Protein in INSANE! Membrane UpperLeaflet>POPC=1.0 LowerLeaflet>POPC=1.0
243992
   22AUC    AUC    1   8.989  29.294   7.500
   23AUC    AUC    2   9.235  29.294   7.348
   24AUC    AUC    3   9.235  29.294   7.651
   25AUC    AUC    4   8.744  29.294   7.348
   26AUC    AUC    5   8.744  29.294   7.651
   27AUC    AUC    6   8.838  29.539   7.500
   28AUC    AUC    7   9.141  29.539   7.500
   29AUC    AUC    8   8.838  29.048   7.500
   30AUC    AUC    9   9.141  29.048   7.500
   31AUC    AUC   10   8.989  29.142   7.745
   32AUC    AUC   11   8.989  29.445   7.745
   33AUC    AUC   12   8.989  29.142   7.254
   34AUC    AUC   13   8.989  29.445   7.254
   35AUC    AUC   14   9.480  29.294   7.196
   36AUC    AUC   15   9.480  29.294   7.500
   37AUC    AUC   16   9.480  29.294   7.803
   38AUC    AUC   17   8.498  29.294   7.196
   39AUC    AUC   18   8.498  29.294   7.500
   40AUC    AUC   19   8.498  29.294   7.803
   41AUC    AUC   20   8.686  29.784   7.500
   42AUC    AUC   21   8.989  29.784   7.500
   43AUC    AUC   22   9.293  29.784   7.500
   44AUC    AUC   23   8.686  28.803   7.500
   45AUC    AUC   24   8.989  28.803   7.500
   46AUC    AUC   25   9.293  28.803   7.500
   47AUC    AUC   26   8.989  28.990   7.991
   48AUC    AUC   27   8.989  29.294   7.991
   49AUC    AUC   28   8.989  29.597   7.991
   50AUC    AUC   29   8.989  28.990   7.009
   51AUC    AUC   30   8.989  29.294   7.009
   52AUC    AUC   31   8.989  29.597   7.009
   53AUC    AUC   32   9.235  29.142   7.897
   54AUC    AUC   33   9.235  29.445   7.897
   55AUC    AUC   34   9.235  29.142   7.103
   56AUC    AUC   35   9.235  29.445   7.103
   57AUC    AUC   36   8.744  29.142   7.897
   58AUC    AUC   37   8.744  29.445   7.897
   59AUC    AUC   38   8.744  29.142   7.103
   60AUC    AUC   39   8.744  29.445   7.103
   61AUC    AUC   40   9.386  29.539   7.348
   62AUC    AUC   41   9.386  29.539   7.651
   63AUC    AUC   42   8.592  29.539   7.348
   64AUC    AUC   43   8.592  29.539   7.651
   65AUC    AUC   44   9.386  29.048   7.348
   66AUC    AUC   45   9.386  29.048   7.651
   67AUC    AUC   46   8.592  29.048   7.348
   68AUC    AUC   47   8.592  29.048   7.651
   69AUC    AUC   48   8.838  29.691   7.745
   70AUC    AUC   49   9.141  29.691   7.745
   71AUC    AUC   50   8.838  28.896   7.745
   72AUC    AUC   51   9.141  28.896   7.745
   73AUC    AUC   52   8.838  29.691   7.254
   74AUC    AUC   53   9.141  29.691   7.254
   75AUC    AUC   54   8.838  28.896   7.254
   76AUC    AUC   55   9.141  28.896   7.254
   77AUSL   AUS   56   9.398  29.294   8.080
   78AUSL   AUS   57   9.254  28.877   8.011
   79AUL    AUL   58   9.480  28.990   8.294
   80THSLK    S   59   9.372  28.689   8.156
   81ETHY    C1   60   9.468  28.321   8.412
   82ETHY    C1   61   9.646  27.938   8.753
   83ETHY    C1   62   9.888  27.638   9.130
   84ETHY    C1   63  10.184  27.419   9.534
   85THSLK    S   64   9.497  29.247   8.327
   86ETHY    C1   65   9.724  29.097   8.694
   87ETHY    C1   66  10.008  29.009   9.148
   88ETHY    C1   67  10.292  29.031   9.607
   89ETHY    C1   68  10.569  29.153  10.061
   90AUSL   AUS   69   9.153  29.142   8.173
   91AUSL   AUS   70   8.826  29.445   8.173
   92AUL    AUL   71   8.989  29.294   8.482
   93THSLK    S   72   9.234  29.091   8.418
   94ETHY    C1   73   9.324  28.873   8.810
   95ETHY    C1   74   9.452  28.699   9.308
   96ETHY    C1   75   9.598  28.634   9.823
   97ETHY    C1   76   9.755  28.668  10.346
   98THSLK    S   77   8.739  29.405   8.432
   99ETHY    C1   78   8.650  29.331   8.874
  100ETHY    C1   79   8.526  29.333   9.403
  101ETHY    C1   80   8.381  29.442   9.912
  102ETHY    C1   81   8.218  29.646  10.392
  103AUSL   AUS   82   9.153  29.445   8.173
  104AUSL   AUS   83   9.499  29.558   7.916
  105AUL    AUL   84   9.480  29.597   8.294
  106THSLK    S   85   9.240  29.497   8.416
  107ETHY    C1   86   9.328  29.714   8.809
  108ETHY    C1   87   9.453  29.887   9.308
  109ETHY    C1   88   9.598  29.953   9.823
  110ETHY    C1   89   9.761  29.920  10.345
  111THSLK    S   90   9.675  29.664   8.079
  112ETHY    C1   91  10.037  29.714   8.355
  113ETHY    C1   92  10.444  29.863   8.681
  114ETHY    C1   93  10.806  30.112   8.995
  115ETHY    C1   94  11.118  30.448   9.293
  116AUSL   AUS   95   9.398  29.294   6.920
  117AUSL   AUS   96   9.254  29.710   6.990
  118AUL    AUL   97   9.480  29.597   6.706
  119THSLK    S   98   9.502  29.247   6.676
  120ETHY    C1   99   9.729  29.097   6.308
  121ETHY    C1  100  10.008  29.009   5.851
  122ETHY    C1  101  10.292  29.031   5.393
  123ETHY    C1  102  10.574  29.153   4.941
  124THSLK    S  103   9.431  29.829   6.820
  125ETHY    C1  104   9.703  29.970   6.480
  126ETHY    C1  105   9.981  30.217   6.085
  127ETHY    C1  106  10.197  30.550   5.720
  128ETHY    C1  107  10.354  30.957   5.391
  129AUSL   AUS  108   9.153  29.142   6.826
  130AUSL   AUS  109   9.499  29.029   7.083
  131AUL    AUL  110   9.480  28.990   6.706
  132THSLK    S  111   9.639  28.838   6.939
  133ETHY    C1  112   9.872  28.521   6.707
  134ETHY    C1  113  10.202  28.214   6.403
  135ETHY    C1  114  10.582  28.005   6.083
  136ETHY    C1  115  11.003  27.888   5.754
  137THSLK    S  116   9.240  29.090   6.583
  138ETHY    C1  117   9.328  28.873   6.191
  139ETHY    C1  118   9.453  28.700   5.692
  140ETHY    C1  119   9.598  28.634   5.176
  141ETHY    C1  120   9.761  28.667   4.656
  142AUSL   AUS  121   9.153  29.445   6.826
  143AUSL   AUS  122   8.826  29.142   6.826
  144AUL    AUL  123   8.989  29.294   6.518
  145THSLK    S  124   8.730  29.090   6.586
  146ETHY    C1  125   8.591  28.875   6.206
  147ETHY    C1  126   8.434  28.704   5.717
  148ETHY    C1  127   8.295  28.638   5.199
  149ETHY    C1  128   8.179  28.669   4.666
  150THSLK    S  129   9.255  29.406   6.572
  151ETHY    C1  130   9.392  29.329   6.142
  152ETHY    C1  131   9.545  29.329   5.622
  153ETHY    C1  132   9.683  29.438   5.112
  154ETHY    C1  133   9.806  29.645   4.621
  155AUSL   AUS  134   8.580  29.294   8.080
  156AUSL   AUS  135   8.725  29.710   8.011
  157AUL    AUL  136   8.498  29.597   8.294
  158THSLK    S  137   8.476  29.247   8.325
  159ETHY    C1  138   8.250  29.097   8.691
  160ETHY    C1  139   7.970  29.009   9.148
  161ETHY    C1  140   7.687  29.031   9.607
  162ETHY    C1  141   7.404  29.153  10.058
  163THSLK    S  142   8.602  29.843   8.201
  164ETHY    C1  143   8.506  30.038   8.604
  165ETHY    C1  144   8.333  30.319   9.034
  166ETHY    C1  145   8.090  30.645   9.390
  167ETHY    C1  146   7.789  31.004   9.671
  168AUSL   AUS  147   8.826  29.142   8.173
  169AUSL   AUS  148   8.479  29.029   7.916
  170AUL    AUL  149   8.498  28.990   8.294
  171THSLK    S  150   8.300  28.863   8.032
  172ETHY    C1  151   7.939  28.616   8.166
  173ETHY    C1  152   7.534  28.350   8.410
  174ETHY    C1  153   7.173  28.130   8.745
  175ETHY    C1  154   6.857  27.957   9.156
  176THSLK    S  155   8.724  29.092   8.413
  177ETHY    C1  156   8.586  28.877   8.793
  178ETHY    C1  157   8.433  28.704   9.284
  179ETHY    C1  158   8.296  28.638   9.800
  180ETHY    C1  159   8.172  28.670  10.332
  181AUSL   AUS  160   8.580  29.294   6.920
  182AUSL   AUS  161   8.725  28.877   6.990
  183AUL    AUL  162   8.498  28.990   6.706
  184THSLK    S  163   8.481  29.247   6.673
  185ETHY    C1  164   8.254  29.097   6.305
  186ETHY    C1  165   7.971  29.009   5.851
  187ETHY    C1  166   7.687  29.031   5.393
  188ETHY    C1  167   7.410  29.153   4.938
  189THSLK    S  168   8.551  28.702   6.865
  190ETHY    C1  169   8.279  28.389   6.673
  191ETHY    C1  170   7.998  28.041   6.367
  192ETHY    C1  171   7.781  27.733   5.980
  193ETHY    C1  172   7.629  27.466   5.528
  194AUSL   AUS  173   8.826  29.445   6.826
  195AUSL   AUS  174   8.479  29.558   7.083
  196AUL    AUL  175   8.498  29.597   6.706
  197THSLK    S  176   8.343  29.689   6.893
  198ETHY    C1  177   8.109  29.810   6.518
  199ETHY    C1  178   7.777  29.998   6.132
  200ETHY    C1  179   7.397  30.237   5.833
  201ETHY    C1  180   6.980  30.517   5.618
  202THSLK    S  181   8.745  29.407   6.566
  203ETHY    C1  182   8.655  29.332   6.124
  204ETHY    C1  183   8.527  29.333   5.597
  205ETHY    C1  184   8.381  29.442   5.089
  206ETHY    C1  185   8.224  29.648   4.608
  207AUSL   AUS  186   9.569  29.703   7.500
  208AUSL   AUS  187   9.499  29.558   7.083
  209AUL    AUL  188   9.783  29.784   7.196
  210THSLK    S  189   9.679  29.665   6.925
  211ETHY    C1  190  10.040  29.715   6.648
  212ETHY    C1  191  10.444  29.863   6.319
  213ETHY    C1  192  10.806  30.112   6.005
  214ETHY    C1  193  11.122  30.449   5.713
  215THSLK    S  194   9.839  29.764   7.503
  216ETHY    C1  195  10.286  29.864   7.502
  217ETHY    C1  196  10.788  30.070   7.500
  218ETHY    C1  197  11.235  30.372   7.500
  219ETHY    C1  198  11.623  30.756   7.503
  220AUSL   AUS  199   9.663  29.457   7.348
  221AUSL   AUS  200   9.663  29.130   7.651
  222AUL    AUL  201   9.971  29.294   7.500
  223THSLK    S  202   9.925  29.504   7.345
  224ETHY    C1  203  10.375  29.473   7.270
  225ETHY    C1  204  10.907  29.528   7.179
  226ETHY    C1  205  11.414  29.691   7.091
  227ETHY    C1  206  11.889  29.949   7.011
  228THSLK    S  207   9.900  28.993   7.659
  229ETHY    C1  208  10.271  28.735   7.726
  230ETHY    C1  209  10.757  28.509   7.808
  231ETHY    C1  210  11.276  28.389   7.896
  232ETHY    C1  211  11.814  28.367   7.989
  233AUSL   AUS  212   9.663  29.457   7.651
  234AUSL   AUS  213   9.406  29.804   7.764
  235AUL    AUL  214   9.783  29.784   7.803
  236THSLK    S  215   9.591  29.928   7.924
  237ETHY    C1  216   9.948  30.120   8.136
  238ETHY    C1  217  10.325  30.427   8.377
  239ETHY    C1  218  10.626  30.814   8.602
  240ETHY    C1  219  10.853  31.265   8.809
  241THSLK    S  220   9.924  29.503   7.661
  242ETHY    C1  221  10.375  29.473   7.734
  243ETHY    C1  222  10.908  29.528   7.821
  244ETHY    C1  223  11.414  29.691   7.908
  245ETHY    C1  224  11.888  29.949   7.995
  246AUSL   AUS  225   8.409  29.703   7.500
  247AUSL   AUS  226   8.479  29.558   7.916
  248AUL    AUL  227   8.195  29.784   7.803
  249THSLK    S  228   8.339  29.684   8.107
  250ETHY    C1  229   8.106  29.805   8.482
  251ETHY    C1  230   7.777  29.998   8.868
  252ETHY    C1  231   7.397  30.237   9.166
  253ETHY    C1  232   6.976  30.512   9.381
  254THSLK    S  233   8.188  29.843   7.503
  255ETHY    C1  234   7.899  30.198   7.502
  256ETHY    C1  235   7.491  30.555   7.500
  257ETHY    C1  236   7.021  30.819   7.500
  258ETHY    C1  237   6.503  30.995   7.503
  259AUSL   AUS  238   8.316  29.457   7.348
  260AUSL   AUS  239   8.573  29.804   7.236
  261AUL    AUL  240   8.195  29.784   7.196
  262THSLK    S  241   8.079  29.571   7.303
  263ETHY    C1  242   7.707  29.745   7.101
  264ETHY    C1  243   7.221  29.921   6.936
  265ETHY    C1  244   6.703  30.053   6.868
  266ETHY    C1  245   6.165  30.145   6.890
  267THSLK    S  246   8.453  29.971   7.056
  268ETHY    C1  247   8.301  30.290   6.765
  269ETHY    C1  248   8.047  30.670   6.473
  270ETHY    C1  249   7.714  31.038   6.260
  271ETHY    C1  250   7.318  31.388   6.122
  272AUSL   AUS  251   8.316  29.457   7.651
  273AUSL   AUS  252   8.316  29.130   7.348
  274AUL    AUL  253   8.008  29.294   7.500
  275THSLK    S  254   8.054  29.055   7.384
  276ETHY    C1  255   7.604  29.004   7.446
  277ETHY    C1  256   7.071  28.901   7.434
  278ETHY    C1  257   6.564  28.751   7.327
  279ETHY    C1  258   6.091  28.558   7.135
  280THSLK    S  259   8.078  29.565   7.699
  281ETHY    C1  260   7.707  29.741   7.901
  282ETHY    C1  261   7.221  29.920   8.063
  283ETHY    C1  262   6.703  30.053   8.133
  284ETHY    C1  263   6.164  30.139   8.114
  285AUSL   AUS  264   9.569  28.884   7.500
  286AUSL   AUS  265   9.499  29.029   7.916
  287AUL    AUL  266   9.783  28.803   7.803
  288THSLK    S  267   9.790  28.744   7.503
  289ETHY    C1  268  10.079  28.389   7.502
  290ETHY    C1  269  10.488  28.032   7.500
  291ETHY    C1  270  10.958  27.768   7.500
  292ETHY    C1  271  11.475  27.592   7.503
  293THSLK    S  272   9.636  28.839   8.066
  294ETHY    C1  273   9.869  28.522   8.297
  295ETHY    C1  274  10.202  28.215   8.598
  296ETHY    C1  275  10.582  28.005   8.918
  297ETHY    C1  276  10.999  27.889   9.250
  298AUSL   AUS  277   9.663  29.130   7.348
  299AUSL   AUS  278   9.406  28.783   7.236
  300AUL    AUL  279   9.783  28.803   7.196
  301THSLK    S  280   9.901  28.993   7.346
  302ETHY    C1  281  10.272  28.735   7.279
  303ETHY    C1  282  10.757  28.509   7.192
  304ETHY    C1  283  11.276  28.389   7.103
  305ETHY    C1  284  11.815  28.367   7.018
  306THSLK    S  285   9.529  28.592   7.099
  307ETHY    C1  286   9.679  28.190   6.942
  308ETHY    C1  287   9.932  27.760   6.728
  309ETHY    C1  288  10.264  27.404   6.495
  310ETHY    C1  289  10.663  27.123   6.249
  311AUSL   AUS  290   8.409  28.884   7.500
  312AUSL   AUS  291   8.479  29.029   7.083
  313AUL    AUL  292   8.195  28.803   7.196
  314THSLK    S  293   8.304  28.858   6.966
  315ETHY    C1  294   7.942  28.612   6.833
  316ETHY    C1  295   7.534  28.349   6.589
  317ETHY    C1  296   7.173  28.130   6.255
  318ETHY    C1  297   6.861  27.952   5.843
  319THSLK    S  298   8.139  28.823   7.503
  320ETHY    C1  299   7.693  28.723   7.502
  321ETHY    C1  300   7.191  28.517   7.500
  322ETHY    C1  301   6.744  28.215   7.500
  323ETHY    C1  302   6.356  27.831   7.503
  324AUSL   AUS  303   8.316  29.130   7.651
  325AUSL   AUS  304   8.573  28.783   7.764
  326AUL    AUL  305   8.195  28.803   7.803
  327THSLK    S  306   8.385  28.635   7.881
  328ETHY    C1  307   8.029  28.359   7.958
  329ETHY    C1  308   7.654  28.002   8.122
  330ETHY    C1  309   7.353  27.628   8.367
  331ETHY    C1  310   7.122  27.246   8.682
  332THSLK    S  311   8.053  29.060   7.618
  333ETHY    C1  312   7.603  29.008   7.557
  334ETHY    C1  313   7.071  28.902   7.566
  335ETHY    C1  314   6.564  28.751   7.673
  336ETHY    C1  315   6.090  28.563   7.867
  337AUSL   AUS  316   8.989  29.874   7.909
  338AUSL   AUS  317   8.573  29.804   7.764
  339AUL    AUL  318   8.686  30.088   7.991
  340THSLK    S  319   8.450  29.966   7.948
  341ETHY    C1  320   8.299  30.286   8.237
  342ETHY    C1  321   8.046  30.669   8.527
  343ETHY    C1  322   7.714  31.037   8.740
  344ETHY    C1  323   7.315  31.383   8.881
  345THSLK    S  324   9.027  30.105   8.034
  346ETHY    C1  325   9.155  30.431   8.327
  347ETHY    C1  326   9.232  30.863   8.646
  348ETHY    C1  327   9.213  31.328   8.920
  349ETHY    C1  328   9.107  31.813   9.147
  350AUSL   AUS  329   8.838  29.967   7.663
  351AUSL   AUS  330   9.141  29.967   7.336
  352AUL    AUL  331   8.989  30.275   7.500
  353THSLK    S  332   8.875  30.219   7.772
  354ETHY    C1  333   8.948  30.643   7.929
  355ETHY    C1  334   8.945  31.159   8.095
  356ETHY    C1  335   8.837  31.670   8.229
  357ETHY    C1  336   8.633  32.166   8.336
  358THSLK    S  337   9.192  30.207   7.237
  359ETHY    C1  338   9.405  30.584   7.091
  360ETHY    C1  339   9.575  31.073   6.929
  361ETHY    C1  340   9.642  31.591   6.792
  362ETHY    C1  341   9.613  32.125   6.682
  363AUSL   AUS  342   9.141  29.967   7.663
  364AUSL   AUS  343   9.254  29.710   8.011
  365AUL    AUL  344   9.293  30.088   7.991
  366THSLK    S  345   9.427  29.827   8.184
  367ETHY    C1  346   9.700  29.968   8.522
  368ETHY    C1  347   9.981  30.217   8.915
  369ETHY    C1  348  10.197  30.550   9.279
  370ETHY    C1  349  10.349  30.955   9.614
  371THSLK    S  350   9.191  30.205   7.768
  372ETHY    C1  351   9.404  30.584   7.913
  373ETHY    C1  352   9.575  31.073   8.072
  374ETHY    C1  353   9.642  31.591   8.207
  375ETHY    C1  354   9.611  32.124   8.325
  376AUSL   AUS  355   8.989  28.713   7.909
  377AUSL   AUS  356   9.406  28.783   7.764
  378AUL    AUL  357   9.293  28.499   7.991
  379THSLK    S  358   8.948  28.456   7.992
  380ETHY    C1  359   8.821  28.047   8.152
  381ETHY    C1  360   8.747  27.566   8.391
  382ETHY    C1  361   8.766  27.114   8.684
  383ETHY    C1  362   8.868  26.696   9.021
  384THSLK    S  363   9.526  28.593   7.907
  385ETHY    C1  364   9.677  28.191   8.062
  386ETHY    C1  365   9.932  27.760   8.272
  387ETHY    C1  366  10.264  27.404   8.505
  388ETHY    C1  367  10.660  27.125   8.758
  389AUSL   AUS  368   8.838  28.620   7.663
  390AUSL   AUS  369   8.725  28.877   8.011
  391AUL    AUL  370   8.686  28.499   7.991
  392THSLK    S  371   8.787  28.375   7.744
  393ETHY    C1  372   8.574  27.976   7.812
  394ETHY    C1  373   8.403  27.473   7.925
  395ETHY    C1  374   8.337  26.959   8.072
  396ETHY    C1  375   8.366  26.444   8.252
  397THSLK    S  376   8.547  28.707   8.136
  398ETHY    C1  377   8.275  28.392   8.327
  399ETHY    C1  378   7.997  28.041   8.633
  400ETHY    C1  379   7.781  27.733   9.019
  401ETHY    C1  380   7.625  27.471   9.473
  402AUSL   AUS  381   9.141  28.620   7.663
  403AUSL   AUS  382   8.838  28.620   7.336
  404AUL    AUL  383   8.989  28.312   7.500
  405THSLK    S  384   8.788  28.373   7.261
  406ETHY    C1  385   8.575  27.975   7.192
  407ETHY    C1  386   8.403  27.473   7.076
  408ETHY    C1  387   8.337  26.959   6.927
  409ETHY    C1  388   8.368  26.442   6.754
  410THSLK    S  389   9.102  28.361   7.748
  411ETHY    C1  390   9.030  27.916   7.829
  412ETHY    C1  391   9.033  27.387   7.948
  413ETHY    C1  392   9.142  26.879   8.095
  414ETHY    C1  393   9.344  26.401   8.264
  415AUSL   AUS  394   8.989  29.874   7.091
  416AUSL   AUS  395   9.406  29.804   7.236
  417AUL    AUL  396   9.293  30.088   7.009
  418THSLK    S  397   9.031  30.108   6.971
  419ETHY    C1  398   9.158  30.433   6.676
  420ETHY    C1  399   9.232  30.863   6.353
  421ETHY    C1  400   9.213  31.328   6.080
  422ETHY    C1  401   9.110  31.816   5.857
  423THSLK    S  402   9.593  29.929   7.081
  424ETHY    C1  403   9.950  30.121   6.869
  425ETHY    C1  404  10.325  30.427   6.623
  426ETHY    C1  405  10.626  30.814   6.398
  427ETHY    C1  406  10.856  31.266   6.197
  428AUSL   AUS  407   8.838  29.967   7.336
  429AUSL   AUS  408   8.725  29.710   6.990
  430AUL    AUL  409   8.686  30.088   7.009
  431THSLK    S  410   8.877  30.221   7.233
  432ETHY    C1  411   8.949  30.644   7.074
  433ETHY    C1  412   8.946  31.160   6.906
  434ETHY    C1  413   8.837  31.670   6.770
  435ETHY    C1  414   8.635  32.168   6.670
  436THSLK    S  415   8.606  29.847   6.800
  437ETHY    C1  416   8.510  30.041   6.396
  438ETHY    C1  417   8.333  30.319   5.966
  439ETHY    C1  418   8.090  30.644   5.611
  440ETHY    C1  419   7.794  31.009   5.330
  441AUSL   AUS  420   8.989  28.713   7.091
  442AUSL   AUS  421   8.573  28.783   7.236
  443AUL    AUL  422   8.686  28.499   7.009
  444THSLK    S  423   8.388  28.630   7.122
  445ETHY    C1  424   8.031  28.356   7.044
  446ETHY    C1  425   7.654  28.002   6.878
  447ETHY    C1  426   7.352  27.628   6.633
  448ETHY    C1  427   7.125  27.241   6.321
  449THSLK    S  428   8.951  28.453   7.013
  450ETHY    C1  429   8.823  28.045   6.852
  451ETHY    C1  430   8.747  27.566   6.609
  452ETHY    C1  431   8.766  27.114   6.315
  453ETHY    C1  432   8.872  26.693   5.983
  454AUSL   AUS  433   9.141  28.620   7.336
  455AUSL   AUS  434   9.254  28.877   6.990
  456AUL    AUL  435   9.293  28.499   7.009
  457THSLK    S  436   9.104  28.360   7.258
  458ETHY    C1  437   9.031  27.915   7.175
  459ETHY    C1  438   9.033  27.387   7.052
  460ETHY    C1  439   9.141  26.879   6.905
  461ETHY    C1  440   9.346  26.400   6.742
  462THSLK    S  441   9.377  28.687   6.847
  463ETHY    C1  442   9.472  28.319   6.592
  464ETHY    C1  443   9.646  27.938   6.247
  465ETHY    C1  444   9.888  27.638   5.870
  466ETHY    C1  445  10.189  27.417   5.471
  467AUC    AUC  446  15.459  33.268   7.500
  468AUC    AUC  447  15.705  33.268   7.348
  469AUC    AUC  448  15.705  33.268   7.651
  470AUC    AUC  449  15.214  33.268   7.348
  471AUC    AUC  450  15.214  33.268   7.651
  472AUC    AUC  451  15.308  33.513   7.500
  473AUC    AUC  452  15.611  33.513   7.500
  474AUC    AUC  453  15.308  33.022   7.500
  475AUC    AUC  454  15.611  33.022   7.500
  476AUC    AUC  455  15.459  33.116   7.745
  477AUC    AUC  456  15.459  33.419   7.745
  478AUC    AUC  457  15.459  33.116   7.254
  479AUC    AUC  458  15.459  33.419   7.254
  480AUC    AUC  459  15.950  33.268   7.196
  481AUC    AUC  460  15.950  33.268   7.500
  482AUC    AUC  461  15.950  33.268   7.803
  483AUC    AUC  462  14.968  33.268   7.196
  484AUC    AUC  463  14.968  33.268   7.500
  485AUC    AUC  464  14.968  33.268   7.803
  486AUC    AUC  465  15.156  33.758   7.500
  487AUC    AUC  466  15.459  33.758   7.500
  488AUC    AUC  467  15.763  33.758   7.500
  489AUC    AUC  468  15.156  32.777   7.500
  490AUC    AUC  469  15.459  32.777   7.500
  491AUC    AUC  470  15.763  32.777   7.500
  492AUC    AUC  471  15.459  32.964   7.991
  493AUC    AUC  472  15.459  33.268   7.991
  494AUC    AUC  473  15.459  33.571   7.991
  495AUC    AUC  474  15.459  32.964   7.009
  496AUC    AUC  475  15.459  33.268   7.009
  497AUC    AUC  476  15.459  33.571   7.009
  498AUC    AUC  477  15.705  33.116   7.897
  499AUC    AUC  478  15.705  33.419   7.897
  500AUC    AUC  479  15.705  33.116   7.103
  501AUC    AUC  480  15.705  33.419   7.103
  502AUC    AUC  481  15.214  33.116   7.897
  503AUC    AUC  482  15.214  33.419   7.897
  504AUC    AUC  483  15.214  33.116   7.103
  505AUC    AUC  484  15.214  33.419   7.103
  506AUC    AUC  485  15.856  33.513   7.348
  507AUC    AUC  486  15.856  33.513   7.651
  508AUC    AUC  487  15.062  33.513   7.348
  509AUC    AUC  488  15.062  33.513   7.651
  510AUC    AUC  489  15.856  33.022   7.348
  511AUC    AUC  490  15.856  33.022   7.651
  512AUC    AUC  491  15.062  33.022   7.348
  513AUC    AUC  492  15.062  33.022   7.651
  514AUC    AUC  493  15.308  33.665   7.745
  515AUC    AUC  494  15.611  33.665   7.745
  516AUC    AUC  495  15.308  32.870   7.745
  517AUC    AUC  496  15.611  32.870   7.745
  518AUC    AUC  497  15.308  33.665   7.254
  519AUC    AUC  498  15.611  33.665   7.254
  520AUC    AUC  499  15.308  32.870   7.254
  521AUC    AUC  500  15.611  32.870   7.254
  522AUSL   AUS  501  15.868  33.268   8.080
  523AUSL   AUS  502  15.724  32.851   8.011
  524AUL    AUL  503  15.950  32.964   8.294
  525THSLK    S  504  15.842  32.663   8.156
  526ETHY    C1  505  15.938  32.295   8.412
  527ETHY    C1  506  16.116  31.912   8.753
  528ETHY    C1  507  16.358  31.612   9.130
  529ETHY    C1  508  16.654  31.393   9.534
  530THSLK    S  509  15.967  33.221   8.327
  531ETHY    C1  510  16.194  33.071   8.694
  532ETHY    C1  511  16.478  32.983   9.148
  533ETHY    C1  512  16.762  33.005   9.607
  534ETHY    C1  513  17.039  33.127  10.061
  535AUSL   AUS  514  15.623  33.116   8.173
  536AUSL   AUS  515  15.296  33.419   8.173
  537AUL    AUL  516  15.459  33.268   8.482
  538THSLK    S  517  15.704  33.065   8.418
  539ETHY    C1  518  15.794  32.847   8.810
  540ETHY    C1  519  15.922  32.673   9.308
  541ETHY    C1  520  16.068  32.608   9.823
  542ETHY    C1  521  16.225  32.642  10.346
  543THSLK    S  522  15.209  33.379   8.432
  544ETHY    C1  523  15.120  33.305   8.874
  545ETHY    C1  524  14.996  33.307   9.403
  546ETHY    C1  525  14.851  33.416   9.912
  547ETHY    C1  526  14.688  33.620  10.392
  548AUSL   AUS  527  15.623  33.419   8.173
  549AUSL   AUS  528  15.969  33.532   7.916
  550AUL    AUL  529  15.950  33.571   8.294
  551THSLK    S  530  15.710  33.471   8.416
  552ETHY    C1  531  15.798  33.688   8.809
  553ETHY    C1  532  15.923  33.861   9.308
  554ETHY    C1  533  16.068  33.927   9.823
  555ETHY    C1  534  16.231  33.894  10.345
  556THSLK    S  535  16.145  33.638   8.079
  557ETHY    C1  536  16.507  33.688   8.355
  558ETHY    C1  537  16.914  33.837   8.681
  559ETHY    C1  538  17.276  34.086   8.995
  560ETHY    C1  539  17.588  34.422   9.293
  561AUSL   AUS  540  15.868  33.268   6.920
  562AUSL   AUS  541  15.724  33.684   6.990
  563AUL    AUL  542  15.950  33.571   6.706
  564THSLK    S  543  15.972  33.221   6.676
  565ETHY    C1  544  16.199  33.071   6.308
  566ETHY    C1  545  16.478  32.983   5.851
  567ETHY    C1  546  16.762  33.005   5.393
  568ETHY    C1  547  17.044  33.127   4.941
  569THSLK    S  548  15.901  33.803   6.820
  570ETHY    C1  549  16.173  33.944   6.480
  571ETHY    C1  550  16.451  34.191   6.085
  572ETHY    C1  551  16.667  34.524   5.720
  573ETHY    C1  552  16.824  34.931   5.391
  574AUSL   AUS  553  15.623  33.116   6.826
  575AUSL   AUS  554  15.969  33.003   7.083
  576AUL    AUL  555  15.950  32.964   6.706
  577THSLK    S  556  16.109  32.812   6.939
  578ETHY    C1  557  16.342  32.495   6.707
  579ETHY    C1  558  16.672  32.188   6.403
  580ETHY    C1  559  17.052  31.979   6.083
  581ETHY    C1  560  17.473  31.862   5.754
  582THSLK    S  561  15.710  33.064   6.583
  583ETHY    C1  562  15.798  32.847   6.191
  584ETHY    C1  563  15.923  32.674   5.692
  585ETHY    C1  564  16.068  32.608   5.176
  586ETHY    C1  565  16.231  32.641   4.656
  587AUSL   AUS  566  15.623  33.419   6.826
  588AUSL   AUS  567  15.296  33.116   6.826
  589AUL    AUL  568  15.459  33.268   6.518
  590THSLK    S  569  15.200  33.064   6.586
  591ETHY    C1  570  15.061  32.849   6.206
  592ETHY    C1  571  14.904  32.678   5.717
  593ETHY    C1  572  14.765  32.612   5.199
  594ETHY    C1  573  14.649  32.643   4.666
  595THSLK    S  574  15.725  33.380   6.572
  596ETHY    C1  575  15.862  33.303   6.142
  597ETHY    C1  576  16.015  33.303   5.622
  598ETHY    C1  577  16.153  33.412   5.112
  599ETHY    C1  578  16.276  33.619   4.621
  600AUSL   AUS  579  15.050  33.268   8.080
  601AUSL   AUS  580  15.195  33.684   8.011
  602AUL    AUL  581  14.968  33.571   8.294
  603THSLK    S  582  14.946  33.221   8.325
  604ETHY    C1  583  14.720  33.071   8.691
  605ETHY    C1  584  14.440  32.983   9.148
  606ETHY    C1  585  14.157  33.005   9.607
  607ETHY    C1  586  13.874  33.127  10.058
  608THSLK    S  587  15.072  33.817   8.201
  609ETHY    C1  588  14.976  34.012   8.604
  610ETHY    C1  589  14.803  34.293   9.034
  611ETHY    C1  590  14.560  34.619   9.390
  612ETHY    C1  591  14.259  34.978   9.671
  613AUSL   AUS  592  15.296  33.116   8.173
  614AUSL   AUS  593  14.949  33.003   7.916
  615AUL    AUL  594  14.968  32.964   8.294
  616THSLK    S  595  14.770  32.837   8.032
  617ETHY    C1  596  14.409  32.590   8.166
  618ETHY    C1  597  14.004  32.324   8.410
  619ETHY    C1  598  13.643  32.104   8.745
  620ETHY    C1  599  13.327  31.931   9.156
  621THSLK    S  600  15.194  33.066   8.413
  622ETHY    C1  601  15.056  32.851   8.793
  623ETHY    C1  602  14.903  32.678   9.284
  624ETHY    C1  603  14.766  32.612   9.800
  625ETHY    C1  604  14.642  32.644  10.332
  626AUSL   AUS  605  15.050  33.268   6.920
  627AUSL   AUS  606  15.195  32.851   6.990
  628AUL    AUL  607  14.968  32.964   6.706
  629THSLK    S  608  14.951  33.221   6.673
  630ETHY    C1  609  14.724  33.071   6.305
  631ETHY    C1  610  14.441  32.983   5.851
  632ETHY    C1  611  14.157  33.005   5.393
  633ETHY    C1  612  13.880  33.127   4.938
  634THSLK    S  613  15.021  32.676   6.865
  635ETHY    C1  614  14.749  32.363   6.673
  636ETHY    C1  615  14.468  32.015   6.367
  637ETHY    C1  616  14.251  31.707   5.980
  638ETHY    C1  617  14.099  31.440   5.528
  639AUSL   AUS  618  15.296  33.419   6.826
  640AUSL   AUS  619  14.949  33.532   7.083
  641AUL    AUL  620  14.968  33.571   6.706
  642THSLK    S  621  14.813  33.663   6.893
  643ETHY    C1  622  14.579  33.784   6.518
  644ETHY    C1  623  14.247  33.972   6.132
  645ETHY    C1  624  13.867  34.211   5.833
  646ETHY    C1  625  13.450  34.491   5.618
  647THSLK    S  626  15.215  33.381   6.566
  648ETHY    C1  627  15.125  33.306   6.124
  649ETHY    C1  628  14.997  33.307   5.597
  650ETHY    C1  629  14.851  33.416   5.089
  651ETHY    C1  630  14.694  33.622   4.608
  652AUSL   AUS  631  16.039  33.677   7.500
  653AUSL   AUS  632  15.969  33.532   7.083
  654AUL    AUL  633  16.253  33.758   7.196
  655THSLK    S  634  16.149  33.639   6.925
  656ETHY    C1  635  16.510  33.689   6.648
  657ETHY    C1  636  16.914  33.837   6.319
  658ETHY    C1  637  17.276  34.086   6.005
  659ETHY    C1  638  17.592  34.423   5.713
  660THSLK    S  639  16.309  33.738   7.503
  661ETHY    C1  640  16.756  33.838   7.502
  662ETHY    C1  641  17.258  34.044   7.500
  663ETHY    C1  642  17.705  34.346   7.500
  664ETHY    C1  643  18.093  34.730   7.503
  665AUSL   AUS  644  16.133  33.431   7.348
  666AUSL   AUS  645  16.133  33.104   7.651
  667AUL    AUL  646  16.441  33.268   7.500
  668THSLK    S  647  16.395  33.478   7.345
  669ETHY    C1  648  16.845  33.447   7.270
  670ETHY    C1  649  17.377  33.502   7.179
  671ETHY    C1  650  17.884  33.665   7.091
  672ETHY    C1  651  18.359  33.923   7.011
  673THSLK    S  652  16.370  32.967   7.659
  674ETHY    C1  653  16.741  32.709   7.726
  675ETHY    C1  654  17.227  32.483   7.808
  676ETHY    C1  655  17.746  32.363   7.896
  677ETHY    C1  656  18.284  32.341   7.989
  678AUSL   AUS  657  16.133  33.431   7.651
  679AUSL   AUS  658  15.876  33.778   7.764
  680AUL    AUL  659  16.253  33.758   7.803
  681THSLK    S  660  16.061  33.902   7.924
  682ETHY    C1  661  16.418  34.094   8.136
  683ETHY    C1  662  16.795  34.401   8.377
  684ETHY    C1  663  17.096  34.788   8.602
  685ETHY    C1  664  17.323  35.239   8.809
  686THSLK    S  665  16.394  33.477   7.661
  687ETHY    C1  666  16.845  33.447   7.734
  688ETHY    C1  667  17.378  33.502   7.821
  689ETHY    C1  668  17.884  33.665   7.908
  690ETHY    C1  669  18.358  33.923   7.995
  691AUSL   AUS  670  14.879  33.677   7.500
  692AUSL   AUS  671  14.949  33.532   7.916
  693AUL    AUL  672  14.665  33.758   7.803
  694THSLK    S  673  14.809  33.658   8.107
  695ETHY    C1  674  14.576  33.779   8.482
  696ETHY    C1  675  14.247  33.972   8.868
  697ETHY    C1  676  13.867  34.211   9.166
  698ETHY    C1  677  13.446  34.486   9.381
  699THSLK    S  678  14.658  33.817   7.503
  700ETHY    C1  679  14.369  34.172   7.502
  701ETHY    C1  680  13.961  34.529   7.500
  702ETHY    C1  681  13.491  34.793   7.500
  703ETHY    C1  682  12.973  34.969   7.503
  704AUSL   AUS  683  14.786  33.431   7.348
  705AUSL   AUS  684  15.043  33.778   7.236
  706AUL    AUL  685  14.665  33.758   7.196
  707THSLK    S  686  14.549  33.545   7.303
  708ETHY    C1  687  14.177  33.719   7.101
  709ETHY    C1  688  13.691  33.895   6.936
  710ETHY    C1  689  13.173  34.027   6.868
  711ETHY    C1  690  12.635  34.119   6.890
  712THSLK    S  691  14.923  33.945   7.056
  713ETHY    C1  692  14.771  34.264   6.765
  714ETHY    C1  693  14.517  34.644   6.473
  715ETHY    C1  694  14.184  35.012   6.260
  716ETHY    C1  695  13.788  35.362   6.122
  717AUSL   AUS  696  14.786  33.431   7.651
  718AUSL   AUS  697  14.786  33.104   7.348
  719AUL    AUL  698  14.478  33.268   7.500
  720THSLK    S  699  14.524  33.029   7.384
  721ETHY    C1  700  14.074  32.978   7.446
  722ETHY    C1  701  13.541  32.875   7.434
  723ETHY    C1  702  13.034  32.725   7.327
  724ETHY    C1  703  12.561  32.532   7.135
  725THSLK    S  704  14.548  33.539   7.699
  726ETHY    C1  705  14.177  33.715   7.901
  727ETHY    C1  706  13.691  33.894   8.063
  728ETHY    C1  707  13.173  34.027   8.133
  729ETHY    C1  708  12.634  34.113   8.114
  730AUSL   AUS  709  16.039  32.858   7.500
  731AUSL   AUS  710  15.969  33.003   7.916
  732AUL    AUL  711  16.253  32.777   7.803
  733THSLK    S  712  16.260  32.718   7.503
  734ETHY    C1  713  16.549  32.363   7.502
  735ETHY    C1  714  16.958  32.006   7.500
  736ETHY    C1  715  17.428  31.742   7.500
  737ETHY    C1  716  17.945  31.566   7.503
  738THSLK    S  717  16.106  32.813   8.066
  739ETHY    C1  718  16.339  32.496   8.297
  740ETHY    C1  719  16.672  32.189   8.598
  741ETHY    C1  720  17.052  31.979   8.918
  742ETHY    C1  721  17.469  31.863   9.250
  743AUSL   AUS  722  16.133  33.104   7.348
  744AUSL   AUS  723  15.876  32.757   7.236
  745AUL    AUL  724  16.253  32.777   7.196
  746THSLK    S  725  16.371  32.967   7.346
  747ETHY    C1  726  16.742  32.709   7.279
  748ETHY    C1  727  17.227  32.483   7.192
  749ETHY    C1  728  17.746  32.363   7.103
  750ETHY    C1  729  18.285  32.341   7.018
  751THSLK    S  730  15.999  32.566   7.099
  752ETHY    C1  731  16.149  32.164   6.942
  753ETHY    C1  732  16.402  31.734   6.728
  754ETHY    C1  733  16.734  31.378   6.495
  755ETHY    C1  734  17.133  31.097   6.249
  756AUSL   AUS  735  14.879  32.858   7.500
  757AUSL   AUS  736  14.949  33.003   7.083
  758AUL    AUL  737  14.665  32.777   7.196
  759THSLK    S  738  14.774  32.832   6.966
  760ETHY    C1  739  14.412  32.586   6.833
  761ETHY    C1  740  14.004  32.323   6.589
  762ETHY    C1  741  13.643  32.104   6.255
  763ETHY    C1  742  13.331  31.926   5.843
  764THSLK    S  743  14.609  32.797   7.503
  765ETHY    C1  744  14.163  32.697   7.502
  766ETHY    C1  745  13.661  32.491   7.500
  767ETHY    C1  746  13.214  32.189   7.500
  768ETHY    C1  747  12.826  31.805   7.503
  769AUSL   AUS  748  14.786  33.104   7.651
  770AUSL   AUS  749  15.043  32.757   7.764
  771AUL    AUL  750  14.665  32.777   7.803
  772THSLK    S  751  14.855  32.609   7.881
  773ETHY    C1  752  14.499  32.333   7.958
  774ETHY    C1  753  14.124  31.976   8.122
  775ETHY    C1  754  13.823  31.602   8.367
  776ETHY    C1  755  13.592  31.220   8.682
  777THSLK    S  756  14.523  33.034   7.618
  778ETHY    C1  757  14.073  32.982   7.557
  779ETHY    C1  758  13.541  32.876   7.566
  780ETHY    C1  759  13.034  32.725   7.673
  781ETHY    C1  760  12.560  32.537   7.867
  782AUSL   AUS  761  15.459  33.848   7.909
  783AUSL   AUS  762  15.043  33.778   7.764
  784AUL    AUL  763  15.156  34.062   7.991
  785THSLK    S  764  14.920  33.940   7.948
  786ETHY    C1  765  14.769  34.260   8.237
  787ETHY    C1  766  14.516  34.643   8.527
  788ETHY    C1  767  14.184  35.011   8.740
  789ETHY    C1  768  13.785  35.357   8.881
  790THSLK    S  769  15.497  34.079   8.034
  791ETHY    C1  770  15.625  34.405   8.327
  792ETHY    C1  771  15.702  34.837   8.646
  793ETHY    C1  772  15.683  35.302   8.920
  794ETHY    C1  773  15.577  35.787   9.147
  795AUSL   AUS  774  15.308  33.941   7.663
  796AUSL   AUS  775  15.611  33.941   7.336
  797AUL    AUL  776  15.459  34.249   7.500
  798THSLK    S  777  15.345  34.193   7.772
  799ETHY    C1  778  15.418  34.617   7.929
  800ETHY    C1  779  15.415  35.133   8.095
  801ETHY    C1  780  15.307  35.644   8.229
  802ETHY    C1  781  15.103  36.140   8.336
  803THSLK    S  782  15.662  34.181   7.237
  804ETHY    C1  783  15.875  34.558   7.091
  805ETHY    C1  784  16.045  35.047   6.929
  806ETHY    C1  785  16.112  35.565   6.792
  807ETHY    C1  786  16.083  36.099   6.682
  808AUSL   AUS  787  15.611  33.941   7.663
  809AUSL   AUS  788  15.724  33.684   8.011
  810AUL    AUL  789  15.763  34.062   7.991
  811THSLK    S  790  15.897  33.801   8.184
  812ETHY    C1  791  16.170  33.942   8.522
  813ETHY    C1  792  16.451  34.191   8.915
  814ETHY    C1  793  16.667  34.524   9.279
  815ETHY    C1  794  16.819  34.929   9.614
  816THSLK    S  795  15.661  34.179   7.768
  817ETHY    C1  796  15.874  34.558   7.913
  818ETHY    C1  797  16.045  35.047   8.072
  819ETHY    C1  798  16.112  35.565   8.207
  820ETHY    C1  799  16.081  36.098   8.325
  821AUSL   AUS  800  15.459  32.687   7.909
  822AUSL   AUS  801  15.876  32.757   7.764
  823AUL    AUL  802  15.763  32.473   7.991
  824THSLK    S  803  15.418  32.430   7.992
  825ETHY    C1  804  15.291  32.021   8.152
  826ETHY    C1  805  15.217  31.540   8.391
  827ETHY    C1  806  15.236  31.088   8.684
  828ETHY    C1  807  15.338  30.670   9.021
  829THSLK    S  808  15.996  32.567   7.907
  830ETHY    C1  809  16.147  32.165   8.062
  831ETHY    C1  810  16.402  31.734   8.272
  832ETHY    C1  811  16.734  31.378   8.505
  833ETHY    C1  812  17.130  31.099   8.758
  834AUSL   AUS  813  15.308  32.594   7.663
  835AUSL   AUS  814  15.195  32.851   8.011
  836AUL    AUL  815  15.156  32.473   7.991
  837THSLK    S  816  15.257  32.349   7.744
  838ETHY    C1  817  15.044  31.950   7.812
  839ETHY    C1  818  14.873  31.447   7.925
  840ETHY    C1  819  14.807  30.933   8.072
  841ETHY    C1  820  14.836  30.418   8.252
  842THSLK    S  821  15.017  32.681   8.136
  843ETHY    C1  822  14.745  32.366   8.327
  844ETHY    C1  823  14.467  32.015   8.633
  845ETHY    C1  824  14.251  31.707   9.019
  846ETHY    C1  825  14.095  31.445   9.473
  847AUSL   AUS  826  15.611  32.594   7.663
  848AUSL   AUS  827  15.308  32.594   7.336
  849AUL    AUL  828  15.459  32.286   7.500
  850THSLK    S  829  15.258  32.347   7.261
  851ETHY    C1  830  15.045  31.949   7.192
  852ETHY    C1  831  14.873  31.447   7.076
  853ETHY    C1  832  14.807  30.933   6.927
  854ETHY    C1  833  14.838  30.416   6.754
  855THSLK    S  834  15.572  32.335   7.748
  856ETHY    C1  835  15.500  31.890   7.829
  857ETHY    C1  836  15.503  31.361   7.948
  858ETHY    C1  837  15.612  30.853   8.095
  859ETHY    C1  838  15.814  30.375   8.264
  860AUSL   AUS  839  15.459  33.848   7.091
  861AUSL   AUS  840  15.876  33.778   7.236
  862AUL    AUL  841  15.763  34.062   7.009
  863THSLK    S  842  15.501  34.082   6.971
  864ETHY    C1  843  15.628  34.407   6.676
  865ETHY    C1  844  15.702  34.837   6.353
  866ETHY    C1  845  15.683  35.302   6.080
  867ETHY    C1  846  15.580  35.790   5.857
  868THSLK    S  847  16.063  33.903   7.081
  869ETHY    C1  848  16.420  34.095   6.869
  870ETHY    C1  849  16.795  34.401   6.623
  871ETHY    C1  850  17.096  34.788   6.398
  872ETHY    C1  851  17.326  35.240   6.197
  873AUSL   AUS  852  15.308  33.941   7.336
  874AUSL   AUS  853  15.195  33.684   6.990
  875AUL    AUL  854  15.156  34.062   7.009
  876THSLK    S  855  15.347  34.195   7.233
  877ETHY    C1  856  15.419  34.618   7.074
  878ETHY    C1  857  15.416  35.134   6.906
  879ETHY    C1  858  15.307  35.644   6.770
  880ETHY    C1  859  15.105  36.142   6.670
  881THSLK    S  860  15.076  33.821   6.800
  882ETHY    C1  861  14.980  34.015   6.396
  883ETHY    C1  862  14.803  34.293   5.966
  884ETHY    C1  863  14.560  34.618   5.611
  885ETHY    C1  864  14.264  34.983   5.330
  886AUSL   AUS  865  15.459  32.687   7.091
  887AUSL   AUS  866  15.043  32.757   7.236
  888AUL    AUL  867  15.156  32.473   7.009
  889THSLK    S  868  14.858  32.604   7.122
  890ETHY    C1  869  14.501  32.330   7.044
  891ETHY    C1  870  14.124  31.976   6.878
  892ETHY    C1  871  13.822  31.602   6.633
  893ETHY    C1  872  13.595  31.215   6.321
  894THSLK    S  873  15.421  32.427   7.013
  895ETHY    C1  874  15.293  32.019   6.852
  896ETHY    C1  875  15.217  31.540   6.609
  897ETHY    C1  876  15.236  31.088   6.315
  898ETHY    C1  877  15.342  30.667   5.983
  899AUSL   AUS  878  15.611  32.594   7.336
  900AUSL   AUS  879  15.724  32.851   6.990
  901AUL    AUL  880  15.763  32.473   7.009
  902THSLK    S  881  15.574  32.334   7.258
  903ETHY    C1  882  15.501  31.889   7.175
  904ETHY    C1  883  15.503  31.361   7.052
  905ETHY    C1  884  15.611  30.853   6.905
  906ETHY    C1  885  15.816  30.374   6.742
  907THSLK    S  886  15.847  32.661   6.847
  908ETHY    C1  887  15.942  32.293   6.592
  909ETHY    C1  888  16.116  31.912   6.247
  910ETHY    C1  889  16.358  31.612   5.870
  911ETHY    C1  890  16.659  31.391   5.471
  912AUC    AUC  891  38.827  49.278   7.500
  913AUC    AUC  892  39.073  49.278   7.348
  914AUC    AUC  893  39.073  49.278   7.651
  915AUC    AUC  894  38.582  49.278   7.348
  916AUC    AUC  895  38.582  49.278   7.651
  917AUC    AUC  896  38.676  49.523   7.500
  918AUC    AUC  897  38.979  49.523   7.500
  919AUC    AUC  898  38.676  49.032   7.500
  920AUC    AUC  899  38.979  49.032   7.500
  921AUC    AUC  900  38.827  49.126   7.745
  922AUC    AUC  901  38.827  49.429   7.745
  923AUC    AUC  902  38.827  49.126   7.254
  924AUC    AUC  903  38.827  49.429   7.254
  925AUC    AUC  904  39.318  49.278   7.196
  926AUC    AUC  905  39.318  49.278   7.500
  927AUC    AUC  906  39.318  49.278   7.803
  928AUC    AUC  907  38.336  49.278   7.196
  929AUC    AUC  908  38.336  49.278   7.500
  930AUC    AUC  909  38.336  49.278   7.803
  931AUC    AUC  910  38.524  49.768   7.500
  932AUC    AUC  911  38.827  49.768   7.500
  933AUC    AUC  912  39.131  49.768   7.500
  934AUC    AUC  913  38.524  48.787   7.500
  935AUC    AUC  914  38.827  48.787   7.500
  936AUC    AUC  915  39.131  48.787   7.500
  937AUC    AUC  916  38.827  48.974   7.991
  938AUC    AUC  917  38.827  49.278   7.991
  939AUC    AUC  918  38.827  49.581   7.991
  940AUC    AUC  919  38.827  48.974   7.009
  941AUC    AUC  920  38.827  49.278   7.009
  942AUC    AUC  921  38.827  49.581   7.009
  943AUC    AUC  922  39.073  49.126   7.897
  944AUC    AUC  923  39.073  49.429   7.897
  945AUC    AUC  924  39.073  49.126   7.103
  946AUC    AUC  925  39.073  49.429   7.103
  947AUC    AUC  926  38.582  49.126   7.897
  948AUC    AUC  927  38.582  49.429   7.897
  949AUC    AUC  928  38.582  49.126   7.103
  950AUC    AUC  929  38.582  49.429   7.103
  951AUC    AUC  930  39.224  49.523   7.348
  952AUC    AUC  931  39.224  49.523   7.651
  953AUC    AUC  932  38.430  49.523   7.348
  954AUC    AUC  933  38.430  49.523   7.651
  955AUC    AUC  934  39.224  49.032   7.348
  956AUC    AUC  935  39.224  49.032   7.651
  957AUC    AUC  936  38.430  49.032   7.348
  958AUC    AUC  937  38.430  49.032   7.651
  959AUC    AUC  938  38.676  49.675   7.745
  960AUC    AUC  939  38.979  49.675   7.745
  961AUC    AUC  940  38.676  48.880   7.745
  962AUC    AUC  941  38.979  48.880   7.745
  963AUC    AUC  942  38.676  49.675   7.254
  964AUC    AUC  943  38.979  49.675   7.254
  965AUC    AUC  944  38.676  48.880   7.254
  966AUC    AUC  945  38.979  48.880   7.254
  967AUSL   AUS  946  39.236  49.278   8.080
  968AUSL   AUS  947  39.092  48.861   8.011
  969AUL    AUL  948  39.318  48.974   8.294
  970THSLK    S  949  39.210  48.673   8.156
  971ETHY    C1  950  39.306  48.305   8.412
  972ETHY    C1  951  39.484  47.922   8.753
  973ETHY    C1  952  39.726  47.622   9.130
  974ETHY    C1  953  40.022  47.403   9.534
  975THSLK    S  954  39.335  49.231   8.327
  976ETHY    C1  955  39.562  49.081   8.694
  977ETHY    C1  956  39.846  48.993   9.148
  978ETHY    C1  957  40.130  49.015   9.607
  979ETHY    C1  958  40.407  49.137  10.061
  980AUSL   AUS  959  38.991  49.126   8.173
  981AUSL   AUS  960  38.664  49.429   8.173
  982AUL    AUL  961  38.827  49.278   8.482
  983THSLK    S  962  39.072  49.075   8.418
  984ETHY    C1  963  39.162  48.857   8.810
  985ETHY    C1  964  39.290  48.683   9.308
  986ETHY    C1  965  39.436  48.618   9.823
  987ETHY    C1  966  39.593  48.652  10.346
  988THSLK    S  967  38.577  49.389   8.432
  989ETHY    C1  968  38.488  49.315   8.874
  990ETHY    C1  969  38.364  49.317   9.403
  991ETHY    C1  970  38.219  49.426   9.912
  992ETHY    C1  971  38.056  49.630  10.392
  993AUSL   AUS  972  38.991  49.429   8.173
  994AUSL   AUS  973  39.337  49.542   7.916
  995AUL    AUL  974  39.318  49.581   8.294
  996THSLK    S  975  39.078  49.481   8.416
  997ETHY    C1  976  39.166  49.698   8.809
  998ETHY    C1  977  39.291  49.871   9.308
  999ETHY    C1  978  39.436  49.937   9.823
 1000ETHY    C1  979  39.599  49.904  10.345
 1001THSLK    S  980  39.513  49.648   8.079
 1002ETHY    C1  981  39.875  49.698   8.355
 1003ETHY    C1  982  40.282  49.847   8.681
 1004ETHY    C1  983  40.644  50.096   8.995
 1005ETHY    C1  984  40.956  50.432   9.293
 1006AUSL   AUS  985  39.236  49.278   6.920
 1007AUSL   AUS  986  39.092  49.694   6.990
 1008AUL    AUL  987  39.318  49.581   6.706
 1009THSLK    S  988  39.340  49.231   6.676
 1010ETHY    C1  989  39.567  49.081   6.308
 1011ETHY    C1  990  39.846  48.993   5.851
 1012ETHY    C1  991  40.130  49.015   5.393
 1013ETHY    C1  992  40.412  49.137   4.941
 1014THSLK    S  993  39.269  49.813   6.820
 1015ETHY    C1  994  39.541  49.954   6.480
 1016ETHY    C1  995  39.819  50.201   6.085
 1017ETHY    C1  996  40.035  50.534   5.720
 1018ETHY    C1  997  40.192  50.941   5.391
 1019AUSL   AUS  998  38.991  49.126   6.826
 1020AUSL   AUS  999  39.337  49.013   7.083
 1021AUL    AUL 1000  39.318  48.974   6.706
 1022THSLK    S 1001  39.477  48.822   6.939
 1023ETHY    C1 1002  39.710  48.505   6.707
 1024ETHY    C1 1003  40.040  48.198   6.403
 1025ETHY    C1 1004  40.420  47.989   6.083
 1026ETHY    C1 1005  40.841  47.872   5.754
 1027THSLK    S 1006  39.078  49.074   6.583
 1028ETHY    C1 1007  39.166  48.857   6.191
 1029ETHY    C1 1008  39.291  48.684   5.692
 1030ETHY    C1 1009  39.436  48.618   5.176
 1031ETHY    C1 1010  39.599  48.651   4.656
 1032AUSL   AUS 1011  38.991  49.429   6.826
 1033AUSL   AUS 1012  38.664  49.126   6.826
 1034AUL    AUL 1013  38.827  49.278   6.518
 1035THSLK    S 1014  38.568  49.074   6.586
 1036ETHY    C1 1015  38.429  48.859   6.206
 1037ETHY    C1 1016  38.272  48.688   5.717
 1038ETHY    C1 1017  38.133  48.622   5.199
 1039ETHY    C1 1018  38.017  48.653   4.666
 1040THSLK    S 1019  39.093  49.390   6.572
 1041ETHY    C1 1020  39.230  49.313   6.142
 1042ETHY    C1 1021  39.383  49.313   5.622
 1043ETHY    C1 1022  39.521  49.422   5.112
 1044ETHY    C1 1023  39.644  49.629   4.621
 1045AUSL   AUS 1024  38.418  49.278   8.080
 1046AUSL   AUS 1025  38.563  49.694   8.011
 1047AUL    AUL 1026  38.336  49.581   8.294
 1048THSLK    S 1027  38.314  49.231   8.325
 1049ETHY    C1 1028  38.088  49.081   8.691
 1050ETHY    C1 1029  37.808  48.993   9.148
 1051ETHY    C1 1030  37.525  49.015   9.607
 1052ETHY    C1 1031  37.242  49.137  10.058
 1053THSLK    S 1032  38.440  49.827   8.201
 1054ETHY    C1 1033  38.344  50.022   8.604
 1055ETHY    C1 1034  38.171  50.303   9.034
 1056ETHY    C1 1035  37.928  50.629   9.390
 1057ETHY    C1 1036  37.627  50.988   9.671
 1058AUSL   AUS 1037  38.664  49.126   8.173
 1059AUSL   AUS 1038  38.317  49.013   7.916
 1060AUL    AUL 1039  38.336  48.974   8.294
 1061THSLK    S 1040  38.138  48.847   8.032
 1062ETHY    C1 1041  37.777  48.600   8.166
 1063ETHY    C1 1042  37.372  48.334   8.410
 1064ETHY    C1 1043  37.011  48.114   8.745
 1065ETHY    C1 1044  36.695  47.941   9.156
 1066THSLK    S 1045  38.562  49.076   8.413
 1067ETHY    C1 1046  38.424  48.861   8.793
 1068ETHY    C1 1047  38.271  48.688   9.284
 1069ETHY    C1 1048  38.134  48.622   9.800
 1070ETHY    C1 1049  38.010  48.654  10.332
 1071AUSL   AUS 1050  38.418  49.278   6.920
 1072AUSL   AUS 1051  38.563  48.861   6.990
 1073AUL    AUL 1052  38.336  48.974   6.706
 1074THSLK    S 1053  38.319  49.231   6.673
 1075ETHY    C1 1054  38.092  49.081   6.305
 1076ETHY    C1 1055  37.809  48.993   5.851
 1077ETHY    C1 1056  37.525  49.015   5.393
 1078ETHY    C1 1057  37.248  49.137   4.938
 1079THSLK    S 1058  38.389  48.686   6.865
 1080ETHY    C1 1059  38.117  48.373   6.673
 1081ETHY    C1 1060  37.836  48.025   6.367
 1082ETHY    C1 1061  37.619  47.717   5.980
 1083ETHY    C1 1062  37.467  47.450   5.528
 1084AUSL   AUS 1063  38.664  49.429   6.826
 1085AUSL   AUS 1064  38.317  49.542   7.083
 1086AUL    AUL 1065  38.336  49.581   6.706
 1087THSLK    S 1066  38.181  49.673   6.893
 1088ETHY    C1 1067  37.947  49.794   6.518
 1089ETHY    C1 1068  37.615  49.982   6.132
 1090ETHY    C1 1069  37.235  50.221   5.833
 1091ETHY    C1 1070  36.818  50.501   5.618
 1092THSLK    S 1071  38.583  49.391   6.566
 1093ETHY    C1 1072  38.493  49.316   6.124
 1094ETHY    C1 1073  38.365  49.317   5.597
 1095ETHY    C1 1074  38.219  49.426   5.089
 1096ETHY    C1 1075  38.062  49.632   4.608
 1097AUSL   AUS 1076  39.407  49.687   7.500
 1098AUSL   AUS 1077  39.337  49.542   7.083
 1099AUL    AUL 1078  39.621  49.768   7.196
 1100THSLK    S 1079  39.517  49.649   6.925
 1101ETHY    C1 1080  39.878  49.699   6.648
 1102ETHY    C1 1081  40.282  49.847   6.319
 1103ETHY    C1 1082  40.644  50.096   6.005
 1104ETHY    C1 1083  40.960  50.433   5.713
 1105THSLK    S 1084  39.677  49.748   7.503
 1106ETHY    C1 1085  40.124  49.848   7.502
 1107ETHY    C1 1086  40.626  50.054   7.500
 1108ETHY    C1 1087  41.073  50.356   7.500
 1109ETHY    C1 1088  41.461  50.740   7.503
 1110AUSL   AUS 1089  39.501  49.441   7.348
 1111AUSL   AUS 1090  39.501  49.114   7.651
 1112AUL    AUL 1091  39.809  49.278   7.500
 1113THSLK    S 1092  39.763  49.488   7.345
 1114ETHY    C1 1093  40.213  49.457   7.270
 1115ETHY    C1 1094  40.745  49.512   7.179
 1116ETHY    C1 1095  41.252  49.675   7.091
 1117ETHY    C1 1096  41.727  49.933   7.011
 1118THSLK    S 1097  39.738  48.977   7.659
 1119ETHY    C1 1098  40.109  48.719   7.726
 1120ETHY    C1 1099  40.595  48.493   7.808
 1121ETHY    C1 1100  41.114  48.373   7.896
 1122ETHY    C1 1101  41.652  48.351   7.989
 1123AUSL   AUS 1102  39.501  49.441   7.651
 1124AUSL   AUS 1103  39.244  49.788   7.764
 1125AUL    AUL 1104  39.621  49.768   7.803
 1126THSLK    S 1105  39.429  49.912   7.924
 1127ETHY    C1 1106  39.786  50.104   8.136
 1128ETHY    C1 1107  40.163  50.411   8.377
 1129ETHY    C1 1108  40.464  50.798   8.602
 1130ETHY    C1 1109  40.691  51.249   8.809
 1131THSLK    S 1110  39.762  49.487   7.661
 1132ETHY    C1 1111  40.213  49.457   7.734
 1133ETHY    C1 1112  40.746  49.512   7.821
 1134ETHY    C1 1113  41.252  49.675   7.908
 1135ETHY    C1 1114  41.726  49.933   7.995
 1136AUSL   AUS 1115  38.247  49.687   7.500
 1137AUSL   AUS 1116  38.317  49.542   7.916
 1138AUL    AUL 1117  38.033  49.768   7.803
 1139THSLK    S 1118  38.177  49.668   8.107
 1140ETHY    C1 1119  37.944  49.789   8.482
 1141ETHY    C1 1120  37.615  49.982   8.868
 1142ETHY    C1 1121  37.235  50.221   9.166
 1143ETHY    C1 1122  36.814  50.496   9.381
 1144THSLK    S 1123  38.026  49.827   7.503
 1145ETHY    C1 1124  37.737  50.182   7.502
 1146ETHY    C1 1125  37.329  50.539   7.500
 1147ETHY    C1 1126  36.859  50.803   7.500
 1148ETHY    C1 1127  36.341  50.979   7.503
 1149AUSL   AUS 1128  38.154  49.441   7.348
 1150AUSL   AUS 1129  38.411  49.788   7.236
 1151AUL    AUL 1130  38.033  49.768   7.196
 1152THSLK    S 1131  37.917  49.555   7.303
 1153ETHY    C1 1132  37.545  49.729   7.101
 1154ETHY    C1 1133  37.059  49.905   6.936
 1155ETHY    C1 1134  36.541  50.037   6.868
 1156ETHY    C1 1135  36.003  50.129   6.890
 1157THSLK    S 1136  38.291  49.955   7.056
 1158ETHY    C1 1137  38.139  50.274   6.765
 1159ETHY    C1 1138  37.885  50.654   6.473
 1160ETHY    C1 1139  37.552  51.022   6.260
 1161ETHY    C1 1140  37.156  51.372   6.122
 1162AUSL   AUS 1141  38.154  49.441   7.651
 1163AUSL   AUS 1142  38.154  49.114   7.348
 1164AUL    AUL 1143  37.846  49.278   7.500
 1165THSLK    S 1144  37.892  49.039   7.384
 1166ETHY    C1 1145  37.442  48.988   7.446
 1167ETHY    C1 1146  36.909  48.885   7.434
 1168ETHY    C1 1147  36.402  48.735   7.327
 1169ETHY    C1 1148  35.929  48.542   7.135
 1170THSLK    S 1149  37.916  49.549   7.699
 1171ETHY    C1 1150  37.545  49.725   7.901
 1172ETHY    C1 1151  37.059  49.904   8.063
 1173ETHY    C1 1152  36.541  50.037   8.133
 1174ETHY    C1 1153  36.002  50.123   8.114
 1175AUSL   AUS 1154  39.407  48.868   7.500
 1176AUSL   AUS 1155  39.337  49.013   7.916
 1177AUL    AUL 1156  39.621  48.787   7.803
 1178THSLK    S 1157  39.628  48.728   7.503
 1179ETHY    C1 1158  39.917  48.373   7.502
 1180ETHY    C1 1159  40.326  48.016   7.500
 1181ETHY    C1 1160  40.796  47.752   7.500
 1182ETHY    C1 1161  41.313  47.576   7.503
 1183THSLK    S 1162  39.474  48.823   8.066
 1184ETHY    C1 1163  39.707  48.506   8.297
 1185ETHY    C1 1164  40.040  48.199   8.598
 1186ETHY    C1 1165  40.420  47.989   8.918
 1187ETHY    C1 1166  40.837  47.873   9.250
 1188AUSL   AUS 1167  39.501  49.114   7.348
 1189AUSL   AUS 1168  39.244  48.767   7.236
 1190AUL    AUL 1169  39.621  48.787   7.196
 1191THSLK    S 1170  39.739  48.977   7.346
 1192ETHY    C1 1171  40.110  48.719   7.279
 1193ETHY    C1 1172  40.595  48.493   7.192
 1194ETHY    C1 1173  41.114  48.373   7.103
 1195ETHY    C1 1174  41.653  48.351   7.018
 1196THSLK    S 1175  39.367  48.576   7.099
 1197ETHY    C1 1176  39.517  48.174   6.942
 1198ETHY    C1 1177  39.770  47.744   6.728
 1199ETHY    C1 1178  40.102  47.388   6.495
 1200ETHY    C1 1179  40.501  47.107   6.249
 1201AUSL   AUS 1180  38.247  48.868   7.500
 1202AUSL   AUS 1181  38.317  49.013   7.083
 1203AUL    AUL 1182  38.033  48.787   7.196
 1204THSLK    S 1183  38.142  48.842   6.966
 1205ETHY    C1 1184  37.780  48.596   6.833
 1206ETHY    C1 1185  37.372  48.333   6.589
 1207ETHY    C1 1186  37.011  48.114   6.255
 1208ETHY    C1 1187  36.699  47.936   5.843
 1209THSLK    S 1188  37.977  48.807   7.503
 1210ETHY    C1 1189  37.531  48.707   7.502
 1211ETHY    C1 1190  37.029  48.501   7.500
 1212ETHY    C1 1191  36.582  48.199   7.500
 1213ETHY    C1 1192  36.194  47.815   7.503
 1214AUSL   AUS 1193  38.154  49.114   7.651
 1215AUSL   AUS 1194  38.411  48.767   7.764
 1216AUL    AUL 1195  38.033  48.787   7.803
 1217THSLK    S 1196  38.223  48.619   7.881
 1218ETHY    C1 1197  37.867  48.343   7.958
 1219ETHY    C1 1198  37.492  47.986   8.122
 1220ETHY    C1 1199  37.191  47.612   8.367
 1221ETHY    C1 1200  36.960  47.230   8.682
 1222THSLK    S 1201  37.891  49.044   7.618
 1223ETHY    C1 1202  37.441  48.992   7.557
 1224ETHY    C1 1203  36.909  48.886   7.566
 1225ETHY    C1 1204  36.402  48.735   7.673
 1226ETHY    C1 1205  35.928  48.547   7.867
 1227AUSL   AUS 1206  38.827  49.858   7.909
 1228AUSL   AUS 1207  38.411  49.788   7.764
 1229AUL    AUL 1208  38.524  50.072   7.991
 1230THSLK    S 1209  38.288  49.950   7.948
 1231ETHY    C1 1210  38.137  50.270   8.237
 1232ETHY    C1 1211  37.884  50.653   8.527
 1233ETHY    C1 1212  37.552  51.021   8.740
 1234ETHY    C1 1213  37.153  51.367   8.881
 1235THSLK    S 1214  38.865  50.089   8.034
 1236ETHY    C1 1215  38.993  50.415   8.327
 1237ETHY    C1 1216  39.070  50.847   8.646
 1238ETHY    C1 1217  39.051  51.312   8.920
 1239ETHY    C1 1218  38.945  51.797   9.147
 1240AUSL   AUS 1219  38.676  49.951   7.663
 1241AUSL   AUS 1220  38.979  49.951   7.336
 1242AUL    AUL 1221  38.827  50.259   7.500
 1243THSLK    S 1222  38.713  50.203   7.772
 1244ETHY    C1 1223  38.786  50.627   7.929
 1245ETHY    C1 1224  38.783  51.143   8.095
 1246ETHY    C1 1225  38.675  51.654   8.229
 1247ETHY    C1 1226  38.471  52.150   8.336
 1248THSLK    S 1227  39.030  50.191   7.237
 1249ETHY    C1 1228  39.243  50.568   7.091
 1250ETHY    C1 1229  39.413  51.057   6.929
 1251ETHY    C1 1230  39.480  51.575   6.792
 1252ETHY    C1 1231  39.451  52.109   6.682
 1253AUSL   AUS 1232  38.979  49.951   7.663
 1254AUSL   AUS 1233  39.092  49.694   8.011
 1255AUL    AUL 1234  39.131  50.072   7.991
 1256THSLK    S 1235  39.265  49.811   8.184
 1257ETHY    C1 1236  39.538  49.952   8.522
 1258ETHY    C1 1237  39.819  50.201   8.915
 1259ETHY    C1 1238  40.035  50.534   9.279
 1260ETHY    C1 1239  40.187  50.939   9.614
 1261THSLK    S 1240  39.029  50.189   7.768
 1262ETHY    C1 1241  39.242  50.568   7.913
 1263ETHY    C1 1242  39.413  51.057   8.072
 1264ETHY    C1 1243  39.480  51.575   8.207
 1265ETHY    C1 1244  39.449  52.108   8.325
 1266AUSL   AUS 1245  38.827  48.697   7.909
 1267AUSL   AUS 1246  39.244  48.767   7.764
 1268AUL    AUL 1247  39.131  48.483   7.991
 1269THSLK    S 1248  38.786  48.440   7.992
 1270ETHY    C1 1249  38.659  48.031   8.152
 1271ETHY    C1 1250  38.585  47.550   8.391
 1272ETHY    C1 1251  38.604  47.098   8.684
 1273ETHY    C1 1252  38.706  46.680   9.021
 1274THSLK    S 1253  39.364  48.577   7.907
 1275ETHY    C1 1254  39.515  48.175   8.062
 1276ETHY    C1 1255  39.770  47.744   8.272
 1277ETHY    C1 1256  40.102  47.388   8.505
 1278ETHY    C1 1257  40.498  47.109   8.758
 1279AUSL   AUS 1258  38.676  48.604   7.663
 1280AUSL   AUS 1259  38.563  48.861   8.011
 1281AUL    AUL 1260  38.524  48.483   7.991
 1282THSLK    S 1261  38.625  48.359   7.744
 1283ETHY    C1 1262  38.412  47.960   7.812
 1284ETHY    C1 1263  38.241  47.457   7.925
 1285ETHY    C1 1264  38.175  46.943   8.072
 1286ETHY    C1 1265  38.204  46.428   8.252
 1287THSLK    S 1266  38.385  48.691   8.136
 1288ETHY    C1 1267  38.113  48.376   8.327
 1289ETHY    C1 1268  37.835  48.025   8.633
 1290ETHY    C1 1269  37.619  47.717   9.019
 1291ETHY    C1 1270  37.463  47.455   9.473
 1292AUSL   AUS 1271  38.979  48.604   7.663
 1293AUSL   AUS 1272  38.676  48.604   7.336
 1294AUL    AUL 1273  38.827  48.296   7.500
 1295THSLK    S 1274  38.626  48.357   7.261
 1296ETHY    C1 1275  38.413  47.959   7.192
 1297ETHY    C1 1276  38.241  47.457   7.076
 1298ETHY    C1 1277  38.175  46.943   6.927
 1299ETHY    C1 1278  38.206  46.426   6.754
 1300THSLK    S 1279  38.940  48.345   7.748
 1301ETHY    C1 1280  38.868  47.900   7.829
 1302ETHY    C1 1281  38.871  47.371   7.948
 1303ETHY    C1 1282  38.980  46.863   8.095
 1304ETHY    C1 1283  39.182  46.385   8.264
 1305AUSL   AUS 1284  38.827  49.858   7.091
 1306AUSL   AUS 1285  39.244  49.788   7.236
 1307AUL    AUL 1286  39.131  50.072   7.009
 1308THSLK    S 1287  38.869  50.092   6.971
 1309ETHY    C1 1288  38.996  50.417   6.676
 1310ETHY    C1 1289  39.070  50.847   6.353
 1311ETHY    C1 1290  39.051  51.312   6.080
 1312ETHY    C1 1291  38.948  51.800   5.857
 1313THSLK    S 1292  39.431  49.913   7.081
 1314ETHY    C1 1293  39.788  50.105   6.869
 1315ETHY    C1 1294  40.163  50.411   6.623
 1316ETHY    C1 1295  40.464  50.798   6.398
 1317ETHY    C1 1296  40.694  51.250   6.197
 1318AUSL   AUS 1297  38.676  49.951   7.336
 1319AUSL   AUS 1298  38.563  49.694   6.990
 1320AUL    AUL 1299  38.524  50.072   7.009
 1321THSLK    S 1300  38.715  50.205   7.233
 1322ETHY    C1 1301  38.787  50.628   7.074
 1323ETHY    C1 1302  38.784  51.144   6.906
 1324ETHY    C1 1303  38.675  51.654   6.770
 1325ETHY    C1 1304  38.473  52.152   6.670
 1326THSLK    S 1305  38.444  49.831   6.800
 1327ETHY    C1 1306  38.348  50.025   6.396
 1328ETHY    C1 1307  38.171  50.303   5.966
 1329ETHY    C1 1308  37.928  50.628   5.611
 1330ETHY    C1 1309  37.632  50.993   5.330
 1331AUSL   AUS 1310  38.827  48.697   7.091
 1332AUSL   AUS 1311  38.411  48.767   7.236
 1333AUL    AUL 1312  38.524  48.483   7.009
 1334THSLK    S 1313  38.226  48.614   7.122
 1335ETHY    C1 1314  37.869  48.340   7.044
 1336ETHY    C1 1315  37.492  47.986   6.878
 1337ETHY    C1 1316  37.190  47.612   6.633
 1338ETHY    C1 1317  36.963  47.225   6.321
 1339THSLK    S 1318  38.789  48.437   7.013
 1340ETHY    C1 1319  38.661  48.029   6.852
 1341ETHY    C1 1320  38.585  47.550   6.609
 1342ETHY    C1 1321  38.604  47.098   6.315
 1343ETHY    C1 1322  38.710  46.677   5.983
 1344AUSL   AUS 1323  38.979  48.604   7.336
 1345AUSL   AUS 1324  39.092  48.861   6.990
 1346AUL    AUL 1325  39.131  48.483   7.009
 1347THSLK    S 1326  38.942  48.344   7.258
 1348ETHY    C1 1327  38.869  47.899   7.175
 1349ETHY    C1 1328  38.871  47.371   7.052
 1350ETHY    C1 1329  38.979  46.863   6.905
 1351ETHY    C1 1330  39.184  46.384   6.742
 1352THSLK    S 1331  39.215  48.671   6.847
 1353ETHY    C1 1332  39.310  48.303   6.592
 1354ETHY    C1 1333  39.484  47.922   6.247
 1355ETHY    C1 1334  39.726  47.622   5.870
 1356ETHY    C1 1335  40.027  47.401   5.471
 1357AUC    AUC 1336   8.994  16.409   7.500
 1358AUC    AUC 1337   9.240  16.409   7.348
 1359AUC    AUC 1338   9.240  16.409   7.651
 1360AUC    AUC 1339   8.749  16.409   7.348
 1361AUC    AUC 1340   8.749  16.409   7.651
 1362AUC    AUC 1341   8.843  16.654   7.500
 1363AUC    AUC 1342   9.146  16.654   7.500
 1364AUC    AUC 1343   8.843  16.163   7.500
 1365AUC    AUC 1344   9.146  16.163   7.500
 1366AUC    AUC 1345   8.994  16.257   7.745
 1367AUC    AUC 1346   8.994  16.560   7.745
 1368AUC    AUC 1347   8.994  16.257   7.254
 1369AUC    AUC 1348   8.994  16.560   7.254
 1370AUC    AUC 1349   9.485  16.409   7.196
 1371AUC    AUC 1350   9.485  16.409   7.500
 1372AUC    AUC 1351   9.485  16.409   7.803
 1373AUC    AUC 1352   8.503  16.409   7.196
 1374AUC    AUC 1353   8.503  16.409   7.500
 1375AUC    AUC 1354   8.503  16.409   7.803
 1376AUC    AUC 1355   8.691  16.899   7.500
 1377AUC    AUC 1356   8.994  16.899   7.500
 1378AUC    AUC 1357   9.298  16.899   7.500
 1379AUC    AUC 1358   8.691  15.918   7.500
 1380AUC    AUC 1359   8.994  15.918   7.500
 1381AUC    AUC 1360   9.298  15.918   7.500
 1382AUC    AUC 1361   8.994  16.105   7.991
 1383AUC    AUC 1362   8.994  16.409   7.991
 1384AUC    AUC 1363   8.994  16.712   7.991
 1385AUC    AUC 1364   8.994  16.105   7.009
 1386AUC    AUC 1365   8.994  16.409   7.009
 1387AUC    AUC 1366   8.994  16.712   7.009
 1388AUC    AUC 1367   9.240  16.257   7.897
 1389AUC    AUC 1368   9.240  16.560   7.897
 1390AUC    AUC 1369   9.240  16.257   7.103
 1391AUC    AUC 1370   9.240  16.560   7.103
 1392AUC    AUC 1371   8.749  16.257   7.897
 1393AUC    AUC 1372   8.749  16.560   7.897
 1394AUC    AUC 1373   8.749  16.257   7.103
 1395AUC    AUC 1374   8.749  16.560   7.103
 1396AUC    AUC 1375   9.391  16.654   7.348
 1397AUC    AUC 1376   9.391  16.654   7.651
 1398AUC    AUC 1377   8.597  16.654   7.348
 1399AUC    AUC 1378   8.597  16.654   7.651
 1400AUC    AUC 1379   9.391  16.163   7.348
 1401AUC    AUC 1380   9.391  16.163   7.651
 1402AUC    AUC 1381   8.597  16.163   7.348
 1403AUC    AUC 1382   8.597  16.163   7.651
 1404AUC    AUC 1383   8.843  16.806   7.745
 1405AUC    AUC 1384   9.146  16.806   7.745
 1406AUC    AUC 1385   8.843  16.011   7.745
 1407AUC    AUC 1386   9.146  16.011   7.745
 1408AUC    AUC 1387   8.843  16.806   7.254
 1409AUC    AUC 1388   9.146  16.806   7.254
 1410AUC    AUC 1389   8.843  16.011   7.254
 1411AUC    AUC 1390   9.146  16.011   7.254
 1412AUSL   AUS 1391   9.403  16.409   8.080
 1413AUSL   AUS 1392   9.259  15.992   8.011
 1414AUL    AUL 1393   9.485  16.105   8.294
 1415THSLK    S 1394   9.377  15.804   8.156
 1416ETHY    C1 1395   9.473  15.436   8.412
 1417ETHY    C1 1396   9.651  15.053   8.753
 1418ETHY    C1 1397   9.893  14.753   9.130
 1419ETHY    C1 1398  10.189  14.534   9.534
 1420THSLK    S 1399   9.502  16.362   8.327
 1421ETHY    C1 1400   9.729  16.212   8.694
 1422ETHY    C1 1401  10.013  16.124   9.148
 1423ETHY    C1 1402  10.297  16.146   9.607
 1424ETHY    C1 1403  10.574  16.268  10.061
 1425AUSL   AUS 1404   9.158  16.257   8.173
 1426AUSL   AUS 1405   8.831  16.560   8.173
 1427AUL    AUL 1406   8.994  16.409   8.482
 1428THSLK    S 1407   9.239  16.206   8.418
 1429ETHY    C1 1408   9.329  15.988   8.810
 1430ETHY    C1 1409   9.457  15.814   9.308
 1431ETHY    C1 1410   9.603  15.749   9.823
 1432ETHY    C1 1411   9.760  15.783  10.346
 1433THSLK    S 1412   8.744  16.520   8.432
 1434ETHY    C1 1413   8.655  16.446   8.874
 1435ETHY    C1 1414   8.531  16.448   9.403
 1436ETHY    C1 1415   8.386  16.557   9.912
 1437ETHY    C1 1416   8.223  16.761  10.392
 1438AUSL   AUS 1417   9.158  16.560   8.173
 1439AUSL   AUS 1418   9.504  16.673   7.916
 1440AUL    AUL 1419   9.485  16.712   8.294
 1441THSLK    S 1420   9.245  16.612   8.416
 1442ETHY    C1 1421   9.333  16.829   8.809
 1443ETHY    C1 1422   9.458  17.002   9.308
 1444ETHY    C1 1423   9.603  17.068   9.823
 1445ETHY    C1 1424   9.766  17.035  10.345
 1446THSLK    S 1425   9.680  16.779   8.079
 1447ETHY    C1 1426  10.042  16.829   8.355
 1448ETHY    C1 1427  10.449  16.978   8.681
 1449ETHY    C1 1428  10.811  17.227   8.995
 1450ETHY    C1 1429  11.123  17.563   9.293
 1451AUSL   AUS 1430   9.403  16.409   6.920
 1452AUSL   AUS 1431   9.259  16.825   6.990
 1453AUL    AUL 1432   9.485  16.712   6.706
 1454THSLK    S 1433   9.507  16.362   6.676
 1455ETHY    C1 1434   9.734  16.212   6.308
 1456ETHY    C1 1435  10.013  16.124   5.851
 1457ETHY    C1 1436  10.297  16.146   5.393
 1458ETHY    C1 1437  10.579  16.268   4.941
 1459THSLK    S 1438   9.436  16.944   6.820
 1460ETHY    C1 1439   9.708  17.085   6.480
 1461ETHY    C1 1440   9.986  17.332   6.085
 1462ETHY    C1 1441  10.202  17.665   5.720
 1463ETHY    C1 1442  10.359  18.072   5.391
 1464AUSL   AUS 1443   9.158  16.257   6.826
 1465AUSL   AUS 1444   9.504  16.144   7.083
 1466AUL    AUL 1445   9.485  16.105   6.706
 1467THSLK    S 1446   9.644  15.953   6.939
 1468ETHY    C1 1447   9.877  15.636   6.707
 1469ETHY    C1 1448  10.207  15.329   6.403
 1470ETHY    C1 1449  10.587  15.120   6.083
 1471ETHY    C1 1450  11.008  15.003   5.754
 1472THSLK    S 1451   9.245  16.205   6.583
 1473ETHY    C1 1452   9.333  15.988   6.191
 1474ETHY    C1 1453   9.458  15.815   5.692
 1475ETHY    C1 1454   9.603  15.749   5.176
 1476ETHY    C1 1455   9.766  15.782   4.656
 1477AUSL   AUS 1456   9.158  16.560   6.826
 1478AUSL   AUS 1457   8.831  16.257   6.826
 1479AUL    AUL 1458   8.994  16.409   6.518
 1480THSLK    S 1459   8.735  16.205   6.586
 1481ETHY    C1 1460   8.596  15.990   6.206
 1482ETHY    C1 1461   8.439  15.819   5.717
 1483ETHY    C1 1462   8.300  15.753   5.199
 1484ETHY    C1 1463   8.184  15.784   4.666
 1485THSLK    S 1464   9.260  16.521   6.572
 1486ETHY    C1 1465   9.397  16.444   6.142
 1487ETHY    C1 1466   9.550  16.444   5.622
 1488ETHY    C1 1467   9.688  16.553   5.112
 1489ETHY    C1 1468   9.811  16.760   4.621
 1490AUSL   AUS 1469   8.585  16.409   8.080
 1491AUSL   AUS 1470   8.730  16.825   8.011
 1492AUL    AUL 1471   8.503  16.712   8.294
 1493THSLK    S 1472   8.481  16.362   8.325
 1494ETHY    C1 1473   8.255  16.212   8.691
 1495ETHY    C1 1474   7.975  16.124   9.148
 1496ETHY    C1 1475   7.692  16.146   9.607
 1497ETHY    C1 1476   7.409  16.268  10.058
 1498THSLK    S 1477   8.607  16.958   8.201
 1499ETHY    C1 1478   8.511  17.153   8.604
 1500ETHY    C1 1479   8.338  17.434   9.034
 1501ETHY    C1 1480   8.095  17.760   9.390
 1502ETHY    C1 1481   7.794  18.119   9.671
 1503AUSL   AUS 1482   8.831  16.257   8.173
 1504AUSL   AUS 1483   8.484  16.144   7.916
 1505AUL    AUL 1484   8.503  16.105   8.294
 1506THSLK    S 1485   8.305  15.978   8.032
 1507ETHY    C1 1486   7.944  15.731   8.166
 1508ETHY    C1 1487   7.539  15.465   8.410
 1509ETHY    C1 1488   7.178  15.245   8.745
 1510ETHY    C1 1489   6.862  15.072   9.156
 1511THSLK    S 1490   8.729  16.207   8.413
 1512ETHY    C1 1491   8.591  15.992   8.793
 1513ETHY    C1 1492   8.438  15.819   9.284
 1514ETHY    C1 1493   8.301  15.753   9.800
 1515ETHY    C1 1494   8.177  15.785  10.332
 1516AUSL   AUS 1495   8.585  16.409   6.920
 1517AUSL   AUS 1496   8.730  15.992   6.990
 1518AUL    AUL 1497   8.503  16.105   6.706
 1519THSLK    S 1498   8.486  16.362   6.673
 1520ETHY    C1 1499   8.259  16.212   6.305
 1521ETHY    C1 1500   7.976  16.124   5.851
 1522ETHY    C1 1501   7.692  16.146   5.393
 1523ETHY    C1 1502   7.415  16.268   4.938
 1524THSLK    S 1503   8.556  15.817   6.865
 1525ETHY    C1 1504   8.284  15.504   6.673
 1526ETHY    C1 1505   8.003  15.156   6.367
 1527ETHY    C1 1506   7.786  14.848   5.980
 1528ETHY    C1 1507   7.634  14.581   5.528
 1529AUSL   AUS 1508   8.831  16.560   6.826
 1530AUSL   AUS 1509   8.484  16.673   7.083
 1531AUL    AUL 1510   8.503  16.712   6.706
 1532THSLK    S 1511   8.348  16.804   6.893
 1533ETHY    C1 1512   8.114  16.925   6.518
 1534ETHY    C1 1513   7.782  17.113   6.132
 1535ETHY    C1 1514   7.402  17.352   5.833
 1536ETHY    C1 1515   6.985  17.632   5.618
 1537THSLK    S 1516   8.750  16.522   6.566
 1538ETHY    C1 1517   8.660  16.447   6.124
 1539ETHY    C1 1518   8.532  16.448   5.597
 1540ETHY    C1 1519   8.386  16.557   5.089
 1541ETHY    C1 1520   8.229  16.763   4.608
 1542AUSL   AUS 1521   9.574  16.818   7.500
 1543AUSL   AUS 1522   9.504  16.673   7.083
 1544AUL    AUL 1523   9.788  16.899   7.196
 1545THSLK    S 1524   9.684  16.780   6.925
 1546ETHY    C1 1525  10.045  16.830   6.648
 1547ETHY    C1 1526  10.449  16.978   6.319
 1548ETHY    C1 1527  10.811  17.227   6.005
 1549ETHY    C1 1528  11.127  17.564   5.713
 1550THSLK    S 1529   9.844  16.879   7.503
 1551ETHY    C1 1530  10.291  16.979   7.502
 1552ETHY    C1 1531  10.793  17.185   7.500
 1553ETHY    C1 1532  11.240  17.487   7.500
 1554ETHY    C1 1533  11.628  17.871   7.503
 1555AUSL   AUS 1534   9.668  16.572   7.348
 1556AUSL   AUS 1535   9.668  16.245   7.651
 1557AUL    AUL 1536   9.976  16.409   7.500
 1558THSLK    S 1537   9.930  16.619   7.345
 1559ETHY    C1 1538  10.380  16.588   7.270
 1560ETHY    C1 1539  10.912  16.643   7.179
 1561ETHY    C1 1540  11.419  16.806   7.091
 1562ETHY    C1 1541  11.894  17.064   7.011
 1563THSLK    S 1542   9.905  16.108   7.659
 1564ETHY    C1 1543  10.276  15.850   7.726
 1565ETHY    C1 1544  10.762  15.624   7.808
 1566ETHY    C1 1545  11.281  15.504   7.896
 1567ETHY    C1 1546  11.819  15.482   7.989
 1568AUSL   AUS 1547   9.668  16.572   7.651
 1569AUSL   AUS 1548   9.411  16.919   7.764
 1570AUL    AUL 1549   9.788  16.899   7.803
 1571THSLK    S 1550   9.596  17.043   7.924
 1572ETHY    C1 1551   9.953  17.235   8.136
 1573ETHY    C1 1552  10.330  17.542   8.377
 1574ETHY    C1 1553  10.631  17.929   8.602
 1575ETHY    C1 1554  10.858  18.380   8.809
 1576THSLK    S 1555   9.929  16.618   7.661
 1577ETHY    C1 1556  10.380  16.588   7.734
 1578ETHY    C1 1557  10.913  16.643   7.821
 1579ETHY    C1 1558  11.419  16.806   7.908
 1580ETHY    C1 1559  11.893  17.064   7.995
 1581AUSL   AUS 1560   8.414  16.818   7.500
 1582AUSL   AUS 1561   8.484  16.673   7.916
 1583AUL    AUL 1562   8.200  16.899   7.803
 1584THSLK    S 1563   8.344  16.799   8.107
 1585ETHY    C1 1564   8.111  16.920   8.482
 1586ETHY    C1 1565   7.782  17.113   8.868
 1587ETHY    C1 1566   7.402  17.352   9.166
 1588ETHY    C1 1567   6.981  17.627   9.381
 1589THSLK    S 1568   8.193  16.958   7.503
 1590ETHY    C1 1569   7.904  17.313   7.502
 1591ETHY    C1 1570   7.496  17.670   7.500
 1592ETHY    C1 1571   7.026  17.934   7.500
 1593ETHY    C1 1572   6.508  18.110   7.503
 1594AUSL   AUS 1573   8.321  16.572   7.348
 1595AUSL   AUS 1574   8.578  16.919   7.236
 1596AUL    AUL 1575   8.200  16.899   7.196
 1597THSLK    S 1576   8.084  16.686   7.303
 1598ETHY    C1 1577   7.712  16.860   7.101
 1599ETHY    C1 1578   7.226  17.036   6.936
 1600ETHY    C1 1579   6.708  17.168   6.868
 1601ETHY    C1 1580   6.170  17.260   6.890
 1602THSLK    S 1581   8.458  17.086   7.056
 1603ETHY    C1 1582   8.306  17.405   6.765
 1604ETHY    C1 1583   8.052  17.785   6.473
 1605ETHY    C1 1584   7.719  18.153   6.260
 1606ETHY    C1 1585   7.323  18.503   6.122
 1607AUSL   AUS 1586   8.321  16.572   7.651
 1608AUSL   AUS 1587   8.321  16.245   7.348
 1609AUL    AUL 1588   8.013  16.409   7.500
 1610THSLK    S 1589   8.059  16.170   7.384
 1611ETHY    C1 1590   7.609  16.119   7.446
 1612ETHY    C1 1591   7.076  16.016   7.434
 1613ETHY    C1 1592   6.569  15.866   7.327
 1614ETHY    C1 1593   6.096  15.673   7.135
 1615THSLK    S 1594   8.083  16.680   7.699
 1616ETHY    C1 1595   7.712  16.856   7.901
 1617ETHY    C1 1596   7.226  17.035   8.063
 1618ETHY    C1 1597   6.708  17.168   8.133
 1619ETHY    C1 1598   6.169  17.254   8.114
 1620AUSL   AUS 1599   9.574  15.999   7.500
 1621AUSL   AUS 1600   9.504  16.144   7.916
 1622AUL    AUL 1601   9.788  15.918   7.803
 1623THSLK    S 1602   9.795  15.859   7.503
 1624ETHY    C1 1603  10.084  15.504   7.502
 1625ETHY    C1 1604  10.493  15.147   7.500
 1626ETHY    C1 1605  10.963  14.883   7.500
 1627ETHY    C1 1606  11.480  14.707   7.503
 1628THSLK    S 1607   9.641  15.954   8.066
 1629ETHY    C1 1608   9.874  15.637   8.297
 1630ETHY    C1 1609  10.207  15.330   8.598
 1631ETHY    C1 1610  10.587  15.120   8.918
 1632ETHY    C1 1611  11.004  15.004   9.250
 1633AUSL   AUS 1612   9.668  16.245   7.348
 1634AUSL   AUS 1613   9.411  15.898   7.236
 1635AUL    AUL 1614   9.788  15.918   7.196
 1636THSLK    S 1615   9.906  16.108   7.346
 1637ETHY    C1 1616  10.277  15.850   7.279
 1638ETHY    C1 1617  10.762  15.624   7.192
 1639ETHY    C1 1618  11.281  15.504   7.103
 1640ETHY    C1 1619  11.820  15.482   7.018
 1641THSLK    S 1620   9.534  15.707   7.099
 1642ETHY    C1 1621   9.684  15.305   6.942
 1643ETHY    C1 1622   9.937  14.875   6.728
 1644ETHY    C1 1623  10.269  14.519   6.495
 1645ETHY    C1 1624  10.668  14.238   6.249
 1646AUSL   AUS 1625   8.414  15.999   7.500
 1647AUSL   AUS 1626   8.484  16.144   7.083
 1648AUL    AUL 1627   8.200  15.918   7.196
 1649THSLK    S 1628   8.309  15.973   6.966
 1650ETHY    C1 1629   7.947  15.727   6.833
 1651ETHY    C1 1630   7.539  15.464   6.589
 1652ETHY    C1 1631   7.178  15.245   6.255
 1653ETHY    C1 1632   6.866  15.067   5.843
 1654THSLK    S 1633   8.144  15.938   7.503
 1655ETHY    C1 1634   7.698  15.838   7.502
 1656ETHY    C1 1635   7.196  15.632   7.500
 1657ETHY    C1 1636   6.749  15.330   7.500
 1658ETHY    C1 1637   6.361  14.946   7.503
 1659AUSL   AUS 1638   8.321  16.245   7.651
 1660AUSL   AUS 1639   8.578  15.898   7.764
 1661AUL    AUL 1640   8.200  15.918   7.803
 1662THSLK    S 1641   8.390  15.750   7.881
 1663ETHY    C1 1642   8.034  15.474   7.958
 1664ETHY    C1 1643   7.659  15.117   8.122
 1665ETHY    C1 1644   7.358  14.743   8.367
 1666ETHY    C1 1645   7.127  14.361   8.682
 1667THSLK    S 1646   8.058  16.175   7.618
 1668ETHY    C1 1647   7.608  16.123   7.557
 1669ETHY    C1 1648   7.076  16.017   7.566
 1670ETHY    C1 1649   6.569  15.866   7.673
 1671ETHY    C1 1650   6.095  15.678   7.867
 1672AUSL   AUS 1651   8.994  16.989   7.909
 1673AUSL   AUS 1652   8.578  16.919   7.764
 1674AUL    AUL 1653   8.691  17.203   7.991
 1675THSLK    S 1654   8.455  17.081   7.948
 1676ETHY    C1 1655   8.304  17.401   8.237
 1677ETHY    C1 1656   8.051  17.784   8.527
 1678ETHY    C1 1657   7.719  18.152   8.740
 1679ETHY    C1 1658   7.320  18.498   8.881
 1680THSLK    S 1659   9.032  17.220   8.034
 1681ETHY    C1 1660   9.160  17.546   8.327
 1682ETHY    C1 1661   9.237  17.978   8.646
 1683ETHY    C1 1662   9.218  18.443   8.920
 1684ETHY    C1 1663   9.112  18.928   9.147
 1685AUSL   AUS 1664   8.843  17.082   7.663
 1686AUSL   AUS 1665   9.146  17.082   7.336
 1687AUL    AUL 1666   8.994  17.390   7.500
 1688THSLK    S 1667   8.880  17.334   7.772
 1689ETHY    C1 1668   8.953  17.758   7.929
 1690ETHY    C1 1669   8.950  18.274   8.095
 1691ETHY    C1 1670   8.842  18.785   8.229
 1692ETHY    C1 1671   8.638  19.281   8.336
 1693THSLK    S 1672   9.197  17.322   7.237
 1694ETHY    C1 1673   9.410  17.699   7.091
 1695ETHY    C1 1674   9.580  18.188   6.929
 1696ETHY    C1 1675   9.647  18.706   6.792
 1697ETHY    C1 1676   9.618  19.240   6.682
 1698AUSL   AUS 1677   9.146  17.082   7.663
 1699AUSL   AUS 1678   9.259  16.825   8.011
 1700AUL    AUL 1679   9.298  17.203   7.991
 1701THSLK    S 1680   9.432  16.942   8.184
 1702ETHY    C1 1681   9.705  17.083   8.522
 1703ETHY    C1 1682   9.986  17.332   8.915
 1704ETHY    C1 1683  10.202  17.665   9.279
 1705ETHY    C1 1684  10.354  18.070   9.614
 1706THSLK    S 1685   9.196  17.320   7.768
 1707ETHY    C1 1686   9.409  17.699   7.913
 1708ETHY    C1 1687   9.580  18.188   8.072
 1709ETHY    C1 1688   9.647  18.706   8.207
 1710ETHY    C1 1689   9.616  19.239   8.325
 1711AUSL   AUS 1690   8.994  15.828   7.909
 1712AUSL   AUS 1691   9.411  15.898   7.764
 1713AUL    AUL 1692   9.298  15.614   7.991
 1714THSLK    S 1693   8.953  15.571   7.992
 1715ETHY    C1 1694   8.826  15.162   8.152
 1716ETHY    C1 1695   8.752  14.681   8.391
 1717ETHY    C1 1696   8.771  14.229   8.684
 1718ETHY    C1 1697   8.873  13.811   9.021
 1719THSLK    S 1698   9.531  15.708   7.907
 1720ETHY    C1 1699   9.682  15.306   8.062
 1721ETHY    C1 1700   9.937  14.875   8.272
 1722ETHY    C1 1701  10.269  14.519   8.505
 1723ETHY    C1 1702  10.665  14.240   8.758
 1724AUSL   AUS 1703   8.843  15.735   7.663
 1725AUSL   AUS 1704   8.730  15.992   8.011
 1726AUL    AUL 1705   8.691  15.614   7.991
 1727THSLK    S 1706   8.792  15.490   7.744
 1728ETHY    C1 1707   8.579  15.091   7.812
 1729ETHY    C1 1708   8.408  14.588   7.925
 1730ETHY    C1 1709   8.342  14.074   8.072
 1731ETHY    C1 1710   8.371  13.559   8.252
 1732THSLK    S 1711   8.552  15.822   8.136
 1733ETHY    C1 1712   8.280  15.507   8.327
 1734ETHY    C1 1713   8.002  15.156   8.633
 1735ETHY    C1 1714   7.786  14.848   9.019
 1736ETHY    C1 1715   7.630  14.586   9.473
 1737AUSL   AUS 1716   9.146  15.735   7.663
 1738AUSL   AUS 1717   8.843  15.735   7.336
 1739AUL    AUL 1718   8.994  15.427   7.500
 1740THSLK    S 1719   8.793  15.488   7.261
 1741ETHY    C1 1720   8.580  15.090   7.192
 1742ETHY    C1 1721   8.408  14.588   7.076
 1743ETHY    C1 1722   8.342  14.074   6.927
 1744ETHY    C1 1723   8.373  13.557   6.754
 1745THSLK    S 1724   9.107  15.476   7.748
 1746ETHY    C1 1725   9.035  15.031   7.829
 1747ETHY    C1 1726   9.038  14.502   7.948
 1748ETHY    C1 1727   9.147  13.994   8.095
 1749ETHY    C1 1728   9.349  13.516   8.264
 1750AUSL   AUS 1729   8.994  16.989   7.091
 1751AUSL   AUS 1730   9.411  16.919   7.236
 1752AUL    AUL 1731   9.298  17.203   7.009
 1753THSLK    S 1732   9.036  17.223   6.971
 1754ETHY    C1 1733   9.163  17.548   6.676
 1755ETHY    C1 1734   9.237  17.978   6.353
 1756ETHY    C1 1735   9.218  18.443   6.080
 1757ETHY    C1 1736   9.115  18.931   5.857
 1758THSLK    S 1737   9.598  17.044   7.081
 1759ETHY    C1 1738   9.955  17.236   6.869
 1760ETHY    C1 1739  10.330  17.542   6.623
 1761ETHY    C1 1740  10.631  17.929   6.398
 1762ETHY    C1 1741  10.861  18.381   6.197
 1763AUSL   AUS 1742   8.843  17.082   7.336
 1764AUSL   AUS 1743   8.730  16.825   6.990
 1765AUL    AUL 1744   8.691  17.203   7.009
 1766THSLK    S 1745   8.882  17.336   7.233
 1767ETHY    C1 1746   8.954  17.759   7.074
 1768ETHY    C1 1747   8.951  18.275   6.906
 1769ETHY    C1 1748   8.842  18.785   6.770
 1770ETHY    C1 1749   8.640  19.283   6.670
 1771THSLK    S 1750   8.611  16.962   6.800
 1772ETHY    C1 1751   8.515  17.156   6.396
 1773ETHY    C1 1752   8.338  17.434   5.966
 1774ETHY    C1 1753   8.095  17.759   5.611
 1775ETHY    C1 1754   7.799  18.124   5.330
 1776AUSL   AUS 1755   8.994  15.828   7.091
 1777AUSL   AUS 1756   8.578  15.898   7.236
 1778AUL    AUL 1757   8.691  15.614   7.009
 1779THSLK    S 1758   8.393  15.745   7.122
 1780ETHY    C1 1759   8.036  15.471   7.044
 1781ETHY    C1 1760   7.659  15.117   6.878
 1782ETHY    C1 1761   7.357  14.743   6.633
 1783ETHY    C1 1762   7.130  14.356   6.321
 1784THSLK    S 1763   8.956  15.568   7.013
 1785ETHY    C1 1764   8.828  15.160   6.852
 1786ETHY    C1 1765   8.752  14.681   6.609
 1787ETHY    C1 1766   8.771  14.229   6.315
 1788ETHY    C1 1767   8.877  13.808   5.983
 1789AUSL   AUS 1768   9.146  15.735   7.336
 1790AUSL   AUS 1769   9.259  15.992   6.990
 1791AUL    AUL 1770   9.298  15.614   7.009
 1792THSLK    S 1771   9.109  15.475   7.258
 1793ETHY    C1 1772   9.036  15.030   7.175
 1794ETHY    C1 1773   9.038  14.502   7.052
 1795ETHY    C1 1774   9.146  13.994   6.905
 1796ETHY    C1 1775   9.351  13.515   6.742
 1797THSLK    S 1776   9.382  15.802   6.847
 1798ETHY    C1 1777   9.477  15.434   6.592
 1799ETHY    C1 1778   9.651  15.053   6.247
 1800ETHY    C1 1779   9.893  14.753   5.870
 1801ETHY    C1 1780  10.194  14.532   5.471
 1802AUC    AUC 1781  28.294  40.474   7.500
 1803AUC    AUC 1782  28.540  40.474   7.348
 1804AUC    AUC 1783  28.540  40.474   7.651
 1805AUC    AUC 1784  28.049  40.474   7.348
 1806AUC    AUC 1785  28.049  40.474   7.651
 1807AUC    AUC 1786  28.143  40.719   7.500
 1808AUC    AUC 1787  28.446  40.719   7.500
 1809AUC    AUC 1788  28.143  40.228   7.500
 1810AUC    AUC 1789  28.446  40.228   7.500
 1811AUC    AUC 1790  28.294  40.322   7.745
 1812AUC    AUC 1791  28.294  40.625   7.745
 1813AUC    AUC 1792  28.294  40.322   7.254
 1814AUC    AUC 1793  28.294  40.625   7.254
 1815AUC    AUC 1794  28.785  40.474   7.196
 1816AUC    AUC 1795  28.785  40.474   7.500
 1817AUC    AUC 1796  28.785  40.474   7.803
 1818AUC    AUC 1797  27.803  40.474   7.196
 1819AUC    AUC 1798  27.803  40.474   7.500
 1820AUC    AUC 1799  27.803  40.474   7.803
 1821AUC    AUC 1800  27.991  40.964   7.500
 1822AUC    AUC 1801  28.294  40.964   7.500
 1823AUC    AUC 1802  28.598  40.964   7.500
 1824AUC    AUC 1803  27.991  39.983   7.500
 1825AUC    AUC 1804  28.294  39.983   7.500
 1826AUC    AUC 1805  28.598  39.983   7.500
 1827AUC    AUC 1806  28.294  40.170   7.991
 1828AUC    AUC 1807  28.294  40.474   7.991
 1829AUC    AUC 1808  28.294  40.777   7.991
 1830AUC    AUC 1809  28.294  40.170   7.009
 1831AUC    AUC 1810  28.294  40.474   7.009
 1832AUC    AUC 1811  28.294  40.777   7.009
 1833AUC    AUC 1812  28.540  40.322   7.897
 1834AUC    AUC 1813  28.540  40.625   7.897
 1835AUC    AUC 1814  28.540  40.322   7.103
 1836AUC    AUC 1815  28.540  40.625   7.103
 1837AUC    AUC 1816  28.049  40.322   7.897
 1838AUC    AUC 1817  28.049  40.625   7.897
 1839AUC    AUC 1818  28.049  40.322   7.103
 1840AUC    AUC 1819  28.049  40.625   7.103
 1841AUC    AUC 1820  28.691  40.719   7.348
 1842AUC    AUC 1821  28.691  40.719   7.651
 1843AUC    AUC 1822  27.897  40.719   7.348
 1844AUC    AUC 1823  27.897  40.719   7.651
 1845AUC    AUC 1824  28.691  40.228   7.348
 1846AUC    AUC 1825  28.691  40.228   7.651
 1847AUC    AUC 1826  27.897  40.228   7.348
 1848AUC    AUC 1827  27.897  40.228   7.651
 1849AUC    AUC 1828  28.143  40.871   7.745
 1850AUC    AUC 1829  28.446  40.871   7.745
 1851AUC    AUC 1830  28.143  40.076   7.745
 1852AUC    AUC 1831  28.446  40.076   7.745
 1853AUC    AUC 1832  28.143  40.871   7.254
 1854AUC    AUC 1833  28.446  40.871   7.254
 1855AUC    AUC 1834  28.143  40.076   7.254
 1856AUC    AUC 1835  28.446  40.076   7.254
 1857AUSL   AUS 1836  28.703  40.474   8.080
 1858AUSL   AUS 1837  28.559  40.057   8.011
 1859AUL    AUL 1838  28.785  40.170   8.294
 1860THSLK    S 1839  28.677  39.869   8.156
 1861ETHY    C1 1840  28.773  39.501   8.412
 1862ETHY    C1 1841  28.951  39.118   8.753
 1863ETHY    C1 1842  29.193  38.818   9.130
 1864ETHY    C1 1843  29.489  38.599   9.534
 1865THSLK    S 1844  28.802  40.427   8.327
 1866ETHY    C1 1845  29.029  40.277   8.694
 1867ETHY    C1 1846  29.313  40.189   9.148
 1868ETHY    C1 1847  29.597  40.211   9.607
 1869ETHY    C1 1848  29.874  40.333  10.061
 1870AUSL   AUS 1849  28.458  40.322   8.173
 1871AUSL   AUS 1850  28.131  40.625   8.173
 1872AUL    AUL 1851  28.294  40.474   8.482
 1873THSLK    S 1852  28.539  40.271   8.418
 1874ETHY    C1 1853  28.629  40.053   8.810
 1875ETHY    C1 1854  28.757  39.879   9.308
 1876ETHY    C1 1855  28.903  39.814   9.823
 1877ETHY    C1 1856  29.060  39.848  10.346
 1878THSLK    S 1857  28.044  40.585   8.432
 1879ETHY    C1 1858  27.955  40.511   8.874
 1880ETHY    C1 1859  27.831  40.513   9.403
 1881ETHY    C1 1860  27.686  40.622   9.912
 1882ETHY    C1 1861  27.523  40.826  10.392
 1883AUSL   AUS 1862  28.458  40.625   8.173
 1884AUSL   AUS 1863  28.804  40.738   7.916
 1885AUL    AUL 1864  28.785  40.777   8.294
 1886THSLK    S 1865  28.545  40.677   8.416
 1887ETHY    C1 1866  28.633  40.894   8.809
 1888ETHY    C1 1867  28.758  41.067   9.308
 1889ETHY    C1 1868  28.903  41.133   9.823
 1890ETHY    C1 1869  29.066  41.100  10.345
 1891THSLK    S 1870  28.980  40.844   8.079
 1892ETHY    C1 1871  29.342  40.894   8.355
 1893ETHY    C1 1872  29.749  41.043   8.681
 1894ETHY    C1 1873  30.111  41.292   8.995
 1895ETHY    C1 1874  30.423  41.628   9.293
 1896AUSL   AUS 1875  28.703  40.474   6.920
 1897AUSL   AUS 1876  28.559  40.890   6.990
 1898AUL    AUL 1877  28.785  40.777   6.706
 1899THSLK    S 1878  28.807  40.427   6.676
 1900ETHY    C1 1879  29.034  40.277   6.308
 1901ETHY    C1 1880  29.313  40.189   5.851
 1902ETHY    C1 1881  29.597  40.211   5.393
 1903ETHY    C1 1882  29.879  40.333   4.941
 1904THSLK    S 1883  28.736  41.009   6.820
 1905ETHY    C1 1884  29.008  41.150   6.480
 1906ETHY    C1 1885  29.286  41.397   6.085
 1907ETHY    C1 1886  29.502  41.730   5.720
 1908ETHY    C1 1887  29.659  42.137   5.391
 1909AUSL   AUS 1888  28.458  40.322   6.826
 1910AUSL   AUS 1889  28.804  40.209   7.083
 1911AUL    AUL 1890  28.785  40.170   6.706
 1912THSLK    S 1891  28.944  40.018   6.939
 1913ETHY    C1 1892  29.177  39.701   6.707
 1914ETHY    C1 1893  29.507  39.394   6.403
 1915ETHY    C1 1894  29.887  39.185   6.083
 1916ETHY    C1 1895  30.308  39.068   5.754
 1917THSLK    S 1896  28.545  40.270   6.583
 1918ETHY    C1 1897  28.633  40.053   6.191
 1919ETHY    C1 1898  28.758  39.880   5.692
 1920ETHY    C1 1899  28.903  39.814   5.176
 1921ETHY    C1 1900  29.066  39.847   4.656
 1922AUSL   AUS 1901  28.458  40.625   6.826
 1923AUSL   AUS 1902  28.131  40.322   6.826
 1924AUL    AUL 1903  28.294  40.474   6.518
 1925THSLK    S 1904  28.035  40.270   6.586
 1926ETHY    C1 1905  27.896  40.055   6.206
 1927ETHY    C1 1906  27.739  39.884   5.717
 1928ETHY    C1 1907  27.600  39.818   5.199
 1929ETHY    C1 1908  27.484  39.849   4.666
 1930THSLK    S 1909  28.560  40.586   6.572
 1931ETHY    C1 1910  28.697  40.509   6.142
 1932ETHY    C1 1911  28.850  40.509   5.622
 1933ETHY    C1 1912  28.988  40.618   5.112
 1934ETHY    C1 1913  29.111  40.825   4.621
 1935AUSL   AUS 1914  27.885  40.474   8.080
 1936AUSL   AUS 1915  28.030  40.890   8.011
 1937AUL    AUL 1916  27.803  40.777   8.294
 1938THSLK    S 1917  27.781  40.427   8.325
 1939ETHY    C1 1918  27.555  40.277   8.691
 1940ETHY    C1 1919  27.275  40.189   9.148
 1941ETHY    C1 1920  26.992  40.211   9.607
 1942ETHY    C1 1921  26.709  40.333  10.058
 1943THSLK    S 1922  27.907  41.023   8.201
 1944ETHY    C1 1923  27.811  41.218   8.604
 1945ETHY    C1 1924  27.638  41.499   9.034
 1946ETHY    C1 1925  27.395  41.825   9.390
 1947ETHY    C1 1926  27.094  42.184   9.671
 1948AUSL   AUS 1927  28.131  40.322   8.173
 1949AUSL   AUS 1928  27.784  40.209   7.916
 1950AUL    AUL 1929  27.803  40.170   8.294
 1951THSLK    S 1930  27.605  40.043   8.032
 1952ETHY    C1 1931  27.244  39.796   8.166
 1953ETHY    C1 1932  26.839  39.530   8.410
 1954ETHY    C1 1933  26.478  39.310   8.745
 1955ETHY    C1 1934  26.162  39.137   9.156
 1956THSLK    S 1935  28.029  40.272   8.413
 1957ETHY    C1 1936  27.891  40.057   8.793
 1958ETHY    C1 1937  27.738  39.884   9.284
 1959ETHY    C1 1938  27.601  39.818   9.800
 1960ETHY    C1 1939  27.477  39.850  10.332
 1961AUSL   AUS 1940  27.885  40.474   6.920
 1962AUSL   AUS 1941  28.030  40.057   6.990
 1963AUL    AUL 1942  27.803  40.170   6.706
 1964THSLK    S 1943  27.786  40.427   6.673
 1965ETHY    C1 1944  27.559  40.277   6.305
 1966ETHY    C1 1945  27.276  40.189   5.851
 1967ETHY    C1 1946  26.992  40.211   5.393
 1968ETHY    C1 1947  26.715  40.333   4.938
 1969THSLK    S 1948  27.856  39.882   6.865
 1970ETHY    C1 1949  27.584  39.569   6.673
 1971ETHY    C1 1950  27.303  39.221   6.367
 1972ETHY    C1 1951  27.086  38.913   5.980
 1973ETHY    C1 1952  26.934  38.646   5.528
 1974AUSL   AUS 1953  28.131  40.625   6.826
 1975AUSL   AUS 1954  27.784  40.738   7.083
 1976AUL    AUL 1955  27.803  40.777   6.706
 1977THSLK    S 1956  27.648  40.869   6.893
 1978ETHY    C1 1957  27.414  40.990   6.518
 1979ETHY    C1 1958  27.082  41.178   6.132
 1980ETHY    C1 1959  26.702  41.417   5.833
 1981ETHY    C1 1960  26.285  41.697   5.618
 1982THSLK    S 1961  28.050  40.587   6.566
 1983ETHY    C1 1962  27.960  40.512   6.124
 1984ETHY    C1 1963  27.832  40.513   5.597
 1985ETHY    C1 1964  27.686  40.622   5.089
 1986ETHY    C1 1965  27.529  40.828   4.608
 1987AUSL   AUS 1966  28.874  40.883   7.500
 1988AUSL   AUS 1967  28.804  40.738   7.083
 1989AUL    AUL 1968  29.088  40.964   7.196
 1990THSLK    S 1969  28.984  40.845   6.925
 1991ETHY    C1 1970  29.345  40.895   6.648
 1992ETHY    C1 1971  29.749  41.043   6.319
 1993ETHY    C1 1972  30.111  41.292   6.005
 1994ETHY    C1 1973  30.427  41.629   5.713
 1995THSLK    S 1974  29.144  40.944   7.503
 1996ETHY    C1 1975  29.591  41.044   7.502
 1997ETHY    C1 1976  30.093  41.250   7.500
 1998ETHY    C1 1977  30.540  41.552   7.500
 1999ETHY    C1 1978  30.928  41.936   7.503
 2000AUSL   AUS 1979  28.968  40.637   7.348
 2001AUSL   AUS 1980  28.968  40.310   7.651
 2002AUL    AUL 1981  29.276  40.474   7.500
 2003THSLK    S 1982  29.230  40.684   7.345
 2004ETHY    C1 1983  29.680  40.653   7.270
 2005ETHY    C1 1984  30.212  40.708   7.179
 2006ETHY    C1 1985  30.719  40.871   7.091
 2007ETHY    C1 1986  31.194  41.129   7.011
 2008THSLK    S 1987  29.205  40.173   7.659
 2009ETHY    C1 1988  29.576  39.915   7.726
 2010ETHY    C1 1989  30.062  39.689   7.808
 2011ETHY    C1 1990  30.581  39.569   7.896
 2012ETHY    C1 1991  31.119  39.547   7.989
 2013AUSL   AUS 1992  28.968  40.637   7.651
 2014AUSL   AUS 1993  28.711  40.984   7.764
 2015AUL    AUL 1994  29.088  40.964   7.803
 2016THSLK    S 1995  28.896  41.108   7.924
 2017ETHY    C1 1996  29.253  41.300   8.136
 2018ETHY    C1 1997  29.630  41.607   8.377
 2019ETHY    C1 1998  29.931  41.994   8.602
 2020ETHY    C1 1999  30.158  42.445   8.809
 2021THSLK    S 2000  29.229  40.683   7.661
 2022ETHY    C1 2001  29.680  40.653   7.734
 2023ETHY    C1 2002  30.213  40.708   7.821
 2024ETHY    C1 2003  30.719  40.871   7.908
 2025ETHY    C1 2004  31.193  41.129   7.995
 2026AUSL   AUS 2005  27.714  40.883   7.500
 2027AUSL   AUS 2006  27.784  40.738   7.916
 2028AUL    AUL 2007  27.500  40.964   7.803
 2029THSLK    S 2008  27.644  40.864   8.107
 2030ETHY    C1 2009  27.411  40.985   8.482
 2031ETHY    C1 2010  27.082  41.178   8.868
 2032ETHY    C1 2011  26.702  41.417   9.166
 2033ETHY    C1 2012  26.281  41.692   9.381
 2034THSLK    S 2013  27.493  41.023   7.503
 2035ETHY    C1 2014  27.204  41.378   7.502
 2036ETHY    C1 2015  26.796  41.735   7.500
 2037ETHY    C1 2016  26.326  41.999   7.500
 2038ETHY    C1 2017  25.808  42.175   7.503
 2039AUSL   AUS 2018  27.621  40.637   7.348
 2040AUSL   AUS 2019  27.878  40.984   7.236
 2041AUL    AUL 2020  27.500  40.964   7.196
 2042THSLK    S 2021  27.384  40.751   7.303
 2043ETHY    C1 2022  27.012  40.925   7.101
 2044ETHY    C1 2023  26.526  41.101   6.936
 2045ETHY    C1 2024  26.008  41.233   6.868
 2046ETHY    C1 2025  25.470  41.325   6.890
 2047THSLK    S 2026  27.758  41.151   7.056
 2048ETHY    C1 2027  27.606  41.470   6.765
 2049ETHY    C1 2028  27.352  41.850   6.473
 2050ETHY    C1 2029  27.019  42.218   6.260
 2051ETHY    C1 2030  26.623  42.568   6.122
 2052AUSL   AUS 2031  27.621  40.637   7.651
 2053AUSL   AUS 2032  27.621  40.310   7.348
 2054AUL    AUL 2033  27.313  40.474   7.500
 2055THSLK    S 2034  27.359  40.235   7.384
 2056ETHY    C1 2035  26.909  40.184   7.446
 2057ETHY    C1 2036  26.376  40.081   7.434
 2058ETHY    C1 2037  25.869  39.931   7.327
 2059ETHY    C1 2038  25.396  39.738   7.135
 2060THSLK    S 2039  27.383  40.745   7.699
 2061ETHY    C1 2040  27.012  40.921   7.901
 2062ETHY    C1 2041  26.526  41.100   8.063
 2063ETHY    C1 2042  26.008  41.233   8.133
 2064ETHY    C1 2043  25.469  41.319   8.114
 2065AUSL   AUS 2044  28.874  40.064   7.500
 2066AUSL   AUS 2045  28.804  40.209   7.916
 2067AUL    AUL 2046  29.088  39.983   7.803
 2068THSLK    S 2047  29.095  39.924   7.503
 2069ETHY    C1 2048  29.384  39.569   7.502
 2070ETHY    C1 2049  29.793  39.212   7.500
 2071ETHY    C1 2050  30.263  38.948   7.500
 2072ETHY    C1 2051  30.780  38.772   7.503
 2073THSLK    S 2052  28.941  40.019   8.066
 2074ETHY    C1 2053  29.174  39.702   8.297
 2075ETHY    C1 2054  29.507  39.395   8.598
 2076ETHY    C1 2055  29.887  39.185   8.918
 2077ETHY    C1 2056  30.304  39.069   9.250
 2078AUSL   AUS 2057  28.968  40.310   7.348
 2079AUSL   AUS 2058  28.711  39.963   7.236
 2080AUL    AUL 2059  29.088  39.983   7.196
 2081THSLK    S 2060  29.206  40.173   7.346
 2082ETHY    C1 2061  29.577  39.915   7.279
 2083ETHY    C1 2062  30.062  39.689   7.192
 2084ETHY    C1 2063  30.581  39.569   7.103
 2085ETHY    C1 2064  31.120  39.547   7.018
 2086THSLK    S 2065  28.834  39.772   7.099
 2087ETHY    C1 2066  28.984  39.370   6.942
 2088ETHY    C1 2067  29.237  38.940   6.728
 2089ETHY    C1 2068  29.569  38.584   6.495
 2090ETHY    C1 2069  29.968  38.303   6.249
 2091AUSL   AUS 2070  27.714  40.064   7.500
 2092AUSL   AUS 2071  27.784  40.209   7.083
 2093AUL    AUL 2072  27.500  39.983   7.196
 2094THSLK    S 2073  27.609  40.038   6.966
 2095ETHY    C1 2074  27.247  39.792   6.833
 2096ETHY    C1 2075  26.839  39.529   6.589
 2097ETHY    C1 2076  26.478  39.310   6.255
 2098ETHY    C1 2077  26.166  39.132   5.843
 2099THSLK    S 2078  27.444  40.003   7.503
 2100ETHY    C1 2079  26.998  39.903   7.502
 2101ETHY    C1 2080  26.496  39.697   7.500
 2102ETHY    C1 2081  26.049  39.395   7.500
 2103ETHY    C1 2082  25.661  39.011   7.503
 2104AUSL   AUS 2083  27.621  40.310   7.651
 2105AUSL   AUS 2084  27.878  39.963   7.764
 2106AUL    AUL 2085  27.500  39.983   7.803
 2107THSLK    S 2086  27.690  39.815   7.881
 2108ETHY    C1 2087  27.334  39.539   7.958
 2109ETHY    C1 2088  26.959  39.182   8.122
 2110ETHY    C1 2089  26.658  38.808   8.367
 2111ETHY    C1 2090  26.427  38.426   8.682
 2112THSLK    S 2091  27.358  40.240   7.618
 2113ETHY    C1 2092  26.908  40.188   7.557
 2114ETHY    C1 2093  26.376  40.082   7.566
 2115ETHY    C1 2094  25.869  39.931   7.673
 2116ETHY    C1 2095  25.395  39.743   7.867
 2117AUSL   AUS 2096  28.294  41.054   7.909
 2118AUSL   AUS 2097  27.878  40.984   7.764
 2119AUL    AUL 2098  27.991  41.268   7.991
 2120THSLK    S 2099  27.755  41.146   7.948
 2121ETHY    C1 2100  27.604  41.466   8.237
 2122ETHY    C1 2101  27.351  41.849   8.527
 2123ETHY    C1 2102  27.019  42.217   8.740
 2124ETHY    C1 2103  26.620  42.563   8.881
 2125THSLK    S 2104  28.332  41.285   8.034
 2126ETHY    C1 2105  28.460  41.611   8.327
 2127ETHY    C1 2106  28.537  42.043   8.646
 2128ETHY    C1 2107  28.518  42.508   8.920
 2129ETHY    C1 2108  28.412  42.993   9.147
 2130AUSL   AUS 2109  28.143  41.147   7.663
 2131AUSL   AUS 2110  28.446  41.147   7.336
 2132AUL    AUL 2111  28.294  41.455   7.500
 2133THSLK    S 2112  28.180  41.399   7.772
 2134ETHY    C1 2113  28.253  41.823   7.929
 2135ETHY    C1 2114  28.250  42.339   8.095
 2136ETHY    C1 2115  28.142  42.850   8.229
 2137ETHY    C1 2116  27.938  43.346   8.336
 2138THSLK    S 2117  28.497  41.387   7.237
 2139ETHY    C1 2118  28.710  41.764   7.091
 2140ETHY    C1 2119  28.880  42.253   6.929
 2141ETHY    C1 2120  28.947  42.771   6.792
 2142ETHY    C1 2121  28.918  43.305   6.682
 2143AUSL   AUS 2122  28.446  41.147   7.663
 2144AUSL   AUS 2123  28.559  40.890   8.011
 2145AUL    AUL 2124  28.598  41.268   7.991
 2146THSLK    S 2125  28.732  41.007   8.184
 2147ETHY    C1 2126  29.005  41.148   8.522
 2148ETHY    C1 2127  29.286  41.397   8.915
 2149ETHY    C1 2128  29.502  41.730   9.279
 2150ETHY    C1 2129  29.654  42.135   9.614
 2151THSLK    S 2130  28.496  41.385   7.768
 2152ETHY    C1 2131  28.709  41.764   7.913
 2153ETHY    C1 2132  28.880  42.253   8.072
 2154ETHY    C1 2133  28.947  42.771   8.207
 2155ETHY    C1 2134  28.916  43.304   8.325
 2156AUSL   AUS 2135  28.294  39.893   7.909
 2157AUSL   AUS 2136  28.711  39.963   7.764
 2158AUL    AUL 2137  28.598  39.679   7.991
 2159THSLK    S 2138  28.253  39.636   7.992
 2160ETHY    C1 2139  28.126  39.227   8.152
 2161ETHY    C1 2140  28.052  38.746   8.391
 2162ETHY    C1 2141  28.071  38.294   8.684
 2163ETHY    C1 2142  28.173  37.876   9.021
 2164THSLK    S 2143  28.831  39.773   7.907
 2165ETHY    C1 2144  28.982  39.371   8.062
 2166ETHY    C1 2145  29.237  38.940   8.272
 2167ETHY    C1 2146  29.569  38.584   8.505
 2168ETHY    C1 2147  29.965  38.305   8.758
 2169AUSL   AUS 2148  28.143  39.800   7.663
 2170AUSL   AUS 2149  28.030  40.057   8.011
 2171AUL    AUL 2150  27.991  39.679   7.991
 2172THSLK    S 2151  28.092  39.555   7.744
 2173ETHY    C1 2152  27.879  39.156   7.812
 2174ETHY    C1 2153  27.708  38.653   7.925
 2175ETHY    C1 2154  27.642  38.139   8.072
 2176ETHY    C1 2155  27.671  37.624   8.252
 2177THSLK    S 2156  27.852  39.887   8.136
 2178ETHY    C1 2157  27.580  39.572   8.327
 2179ETHY    C1 2158  27.302  39.221   8.633
 2180ETHY    C1 2159  27.086  38.913   9.019
 2181ETHY    C1 2160  26.930  38.651   9.473
 2182AUSL   AUS 2161  28.446  39.800   7.663
 2183AUSL   AUS 2162  28.143  39.800   7.336
 2184AUL    AUL 2163  28.294  39.492   7.500
 2185THSLK    S 2164  28.093  39.553   7.261
 2186ETHY    C1 2165  27.880  39.155   7.192
 2187ETHY    C1 2166  27.708  38.653   7.076
 2188ETHY    C1 2167  27.642  38.139   6.927
 2189ETHY    C1 2168  27.673  37.622   6.754
 2190THSLK    S 2169  28.407  39.541   7.748
 2191ETHY    C1 2170  28.335  39.096   7.829
 2192ETHY    C1 2171  28.338  38.567   7.948
 2193ETHY    C1 2172  28.447  38.059   8.095
 2194ETHY    C1 2173  28.649  37.581   8.264
 2195AUSL   AUS 2174  28.294  41.054   7.091
 2196AUSL   AUS 2175  28.711  40.984   7.236
 2197AUL    AUL 2176  28.598  41.268   7.009
 2198THSLK    S 2177  28.336  41.288   6.971
 2199ETHY    C1 2178  28.463  41.613   6.676
 2200ETHY    C1 2179  28.537  42.043   6.353
 2201ETHY    C1 2180  28.518  42.508   6.080
 2202ETHY    C1 2181  28.415  42.996   5.857
 2203THSLK    S 2182  28.898  41.109   7.081
 2204ETHY    C1 2183  29.255  41.301   6.869
 2205ETHY    C1 2184  29.630  41.607   6.623
 2206ETHY    C1 2185  29.931  41.994   6.398
 2207ETHY    C1 2186  30.161  42.446   6.197
 2208AUSL   AUS 2187  28.143  41.147   7.336
 2209AUSL   AUS 2188  28.030  40.890   6.990
 2210AUL    AUL 2189  27.991  41.268   7.009
 2211THSLK    S 2190  28.182  41.401   7.233
 2212ETHY    C1 2191  28.254  41.824   7.074
 2213ETHY    C1 2192  28.251  42.340   6.906
 2214ETHY    C1 2193  28.142  42.850   6.770
 2215ETHY    C1 2194  27.940  43.348   6.670
 2216THSLK    S 2195  27.911  41.027   6.800
 2217ETHY    C1 2196  27.815  41.221   6.396
 2218ETHY    C1 2197  27.638  41.499   5.966
 2219ETHY    C1 2198  27.395  41.824   5.611
 2220ETHY    C1 2199  27.099  42.189   5.330
 2221AUSL   AUS 2200  28.294  39.893   7.091
 2222AUSL   AUS 2201  27.878  39.963   7.236
 2223AUL    AUL 2202  27.991  39.679   7.009
 2224THSLK    S 2203  27.693  39.810   7.122
 2225ETHY    C1 2204  27.336  39.536   7.044
 2226ETHY    C1 2205  26.959  39.182   6.878
 2227ETHY    C1 2206  26.657  38.808   6.633
 2228ETHY    C1 2207  26.430  38.421   6.321
 2229THSLK    S 2208  28.256  39.633   7.013
 2230ETHY    C1 2209  28.128  39.225   6.852
 2231ETHY    C1 2210  28.052  38.746   6.609
 2232ETHY    C1 2211  28.071  38.294   6.315
 2233ETHY    C1 2212  28.177  37.873   5.983
 2234AUSL   AUS 2213  28.446  39.800   7.336
 2235AUSL   AUS 2214  28.559  40.057   6.990
 2236AUL    AUL 2215  28.598  39.679   7.009
 2237THSLK    S 2216  28.409  39.540   7.258
 2238ETHY    C1 2217  28.336  39.095   7.175
 2239ETHY    C1 2218  28.338  38.567   7.052
 2240ETHY    C1 2219  28.446  38.059   6.905
 2241ETHY    C1 2220  28.651  37.580   6.742
 2242THSLK    S 2221  28.682  39.867   6.847
 2243ETHY    C1 2222  28.777  39.499   6.592
 2244ETHY    C1 2223  28.951  39.118   6.247
 2245ETHY    C1 2224  29.193  38.818   5.870
 2246ETHY    C1 2225  29.494  38.597   5.471
 2247AUC    AUC 2226  18.240  23.366   7.500
 2248AUC    AUC 2227  18.486  23.366   7.348
 2249AUC    AUC 2228  18.486  23.366   7.651
 2250AUC    AUC 2229  17.995  23.366   7.348
 2251AUC    AUC 2230  17.995  23.366   7.651
 2252AUC    AUC 2231  18.089  23.611   7.500
 2253AUC    AUC 2232  18.392  23.611   7.500
 2254AUC    AUC 2233  18.089  23.120   7.500
 2255AUC    AUC 2234  18.392  23.120   7.500
 2256AUC    AUC 2235  18.240  23.214   7.745
 2257AUC    AUC 2236  18.240  23.517   7.745
 2258AUC    AUC 2237  18.240  23.214   7.254
 2259AUC    AUC 2238  18.240  23.517   7.254
 2260AUC    AUC 2239  18.731  23.366   7.196
 2261AUC    AUC 2240  18.731  23.366   7.500
 2262AUC    AUC 2241  18.731  23.366   7.803
 2263AUC    AUC 2242  17.749  23.366   7.196
 2264AUC    AUC 2243  17.749  23.366   7.500
 2265AUC    AUC 2244  17.749  23.366   7.803
 2266AUC    AUC 2245  17.937  23.856   7.500
 2267AUC    AUC 2246  18.240  23.856   7.500
 2268AUC    AUC 2247  18.544  23.856   7.500
 2269AUC    AUC 2248  17.937  22.875   7.500
 2270AUC    AUC 2249  18.240  22.875   7.500
 2271AUC    AUC 2250  18.544  22.875   7.500
 2272AUC    AUC 2251  18.240  23.062   7.991
 2273AUC    AUC 2252  18.240  23.366   7.991
 2274AUC    AUC 2253  18.240  23.669   7.991
 2275AUC    AUC 2254  18.240  23.062   7.009
 2276AUC    AUC 2255  18.240  23.366   7.009
 2277AUC    AUC 2256  18.240  23.669   7.009
 2278AUC    AUC 2257  18.486  23.214   7.897
 2279AUC    AUC 2258  18.486  23.517   7.897
 2280AUC    AUC 2259  18.486  23.214   7.103
 2281AUC    AUC 2260  18.486  23.517   7.103
 2282AUC    AUC 2261  17.995  23.214   7.897
 2283AUC    AUC 2262  17.995  23.517   7.897
 2284AUC    AUC 2263  17.995  23.214   7.103
 2285AUC    AUC 2264  17.995  23.517   7.103
 2286AUC    AUC 2265  18.637  23.611   7.348
 2287AUC    AUC 2266  18.637  23.611   7.651
 2288AUC    AUC 2267  17.843  23.611   7.348
 2289AUC    AUC 2268  17.843  23.611   7.651
 2290AUC    AUC 2269  18.637  23.120   7.348
 2291AUC    AUC 2270  18.637  23.120   7.651
 2292AUC    AUC 2271  17.843  23.120   7.348
 2293AUC    AUC 2272  17.843  23.120   7.651
 2294AUC    AUC 2273  18.089  23.763   7.745
 2295AUC    AUC 2274  18.392  23.763   7.745
 2296AUC    AUC 2275  18.089  22.968   7.745
 2297AUC    AUC 2276  18.392  22.968   7.745
 2298AUC    AUC 2277  18.089  23.763   7.254
 2299AUC    AUC 2278  18.392  23.763   7.254
 2300AUC    AUC 2279  18.089  22.968   7.254
 2301AUC    AUC 2280  18.392  22.968   7.254
 2302AUSL   AUS 2281  18.649  23.366   8.080
 2303AUSL   AUS 2282  18.505  22.949   8.011
 2304AUL    AUL 2283  18.731  23.062   8.294
 2305THSLK    S 2284  18.623  22.761   8.156
 2306ETHY    C1 2285  18.719  22.393   8.412
 2307ETHY    C1 2286  18.897  22.010   8.753
 2308ETHY    C1 2287  19.139  21.710   9.130
 2309ETHY    C1 2288  19.435  21.491   9.534
 2310THSLK    S 2289  18.748  23.319   8.327
 2311ETHY    C1 2290  18.975  23.169   8.694
 2312ETHY    C1 2291  19.259  23.081   9.148
 2313ETHY    C1 2292  19.543  23.103   9.607
 2314ETHY    C1 2293  19.820  23.225  10.061
 2315AUSL   AUS 2294  18.404  23.214   8.173
 2316AUSL   AUS 2295  18.077  23.517   8.173
 2317AUL    AUL 2296  18.240  23.366   8.482
 2318THSLK    S 2297  18.485  23.163   8.418
 2319ETHY    C1 2298  18.575  22.945   8.810
 2320ETHY    C1 2299  18.703  22.771   9.308
 2321ETHY    C1 2300  18.849  22.706   9.823
 2322ETHY    C1 2301  19.006  22.740  10.346
 2323THSLK    S 2302  17.990  23.477   8.432
 2324ETHY    C1 2303  17.901  23.403   8.874
 2325ETHY    C1 2304  17.777  23.405   9.403
 2326ETHY    C1 2305  17.632  23.514   9.912
 2327ETHY    C1 2306  17.469  23.718  10.392
 2328AUSL   AUS 2307  18.404  23.517   8.173
 2329AUSL   AUS 2308  18.750  23.630   7.916
 2330AUL    AUL 2309  18.731  23.669   8.294
 2331THSLK    S 2310  18.491  23.569   8.416
 2332ETHY    C1 2311  18.579  23.786   8.809
 2333ETHY    C1 2312  18.704  23.959   9.308
 2334ETHY    C1 2313  18.849  24.025   9.823
 2335ETHY    C1 2314  19.012  23.992  10.345
 2336THSLK    S 2315  18.926  23.736   8.079
 2337ETHY    C1 2316  19.288  23.786   8.355
 2338ETHY    C1 2317  19.695  23.935   8.681
 2339ETHY    C1 2318  20.057  24.184   8.995
 2340ETHY    C1 2319  20.369  24.520   9.293
 2341AUSL   AUS 2320  18.649  23.366   6.920
 2342AUSL   AUS 2321  18.505  23.782   6.990
 2343AUL    AUL 2322  18.731  23.669   6.706
 2344THSLK    S 2323  18.753  23.319   6.676
 2345ETHY    C1 2324  18.980  23.169   6.308
 2346ETHY    C1 2325  19.259  23.081   5.851
 2347ETHY    C1 2326  19.543  23.103   5.393
 2348ETHY    C1 2327  19.825  23.225   4.941
 2349THSLK    S 2328  18.682  23.901   6.820
 2350ETHY    C1 2329  18.954  24.042   6.480
 2351ETHY    C1 2330  19.232  24.289   6.085
 2352ETHY    C1 2331  19.448  24.622   5.720
 2353ETHY    C1 2332  19.605  25.029   5.391
 2354AUSL   AUS 2333  18.404  23.214   6.826
 2355AUSL   AUS 2334  18.750  23.101   7.083
 2356AUL    AUL 2335  18.731  23.062   6.706
 2357THSLK    S 2336  18.890  22.910   6.939
 2358ETHY    C1 2337  19.123  22.593   6.707
 2359ETHY    C1 2338  19.453  22.286   6.403
 2360ETHY    C1 2339  19.833  22.077   6.083
 2361ETHY    C1 2340  20.254  21.960   5.754
 2362THSLK    S 2341  18.491  23.162   6.583
 2363ETHY    C1 2342  18.579  22.945   6.191
 2364ETHY    C1 2343  18.704  22.772   5.692
 2365ETHY    C1 2344  18.849  22.706   5.176
 2366ETHY    C1 2345  19.012  22.739   4.656
 2367AUSL   AUS 2346  18.404  23.517   6.826
 2368AUSL   AUS 2347  18.077  23.214   6.826
 2369AUL    AUL 2348  18.240  23.366   6.518
 2370THSLK    S 2349  17.981  23.162   6.586
 2371ETHY    C1 2350  17.842  22.947   6.206
 2372ETHY    C1 2351  17.685  22.776   5.717
 2373ETHY    C1 2352  17.546  22.710   5.199
 2374ETHY    C1 2353  17.430  22.741   4.666
 2375THSLK    S 2354  18.506  23.478   6.572
 2376ETHY    C1 2355  18.643  23.401   6.142
 2377ETHY    C1 2356  18.796  23.401   5.622
 2378ETHY    C1 2357  18.934  23.510   5.112
 2379ETHY    C1 2358  19.057  23.717   4.621
 2380AUSL   AUS 2359  17.831  23.366   8.080
 2381AUSL   AUS 2360  17.976  23.782   8.011
 2382AUL    AUL 2361  17.749  23.669   8.294
 2383THSLK    S 2362  17.727  23.319   8.325
 2384ETHY    C1 2363  17.501  23.169   8.691
 2385ETHY    C1 2364  17.221  23.081   9.148
 2386ETHY    C1 2365  16.938  23.103   9.607
 2387ETHY    C1 2366  16.655  23.225  10.058
 2388THSLK    S 2367  17.853  23.915   8.201
 2389ETHY    C1 2368  17.757  24.110   8.604
 2390ETHY    C1 2369  17.584  24.391   9.034
 2391ETHY    C1 2370  17.341  24.717   9.390
 2392ETHY    C1 2371  17.040  25.076   9.671
 2393AUSL   AUS 2372  18.077  23.214   8.173
 2394AUSL   AUS 2373  17.730  23.101   7.916
 2395AUL    AUL 2374  17.749  23.062   8.294
 2396THSLK    S 2375  17.551  22.935   8.032
 2397ETHY    C1 2376  17.190  22.688   8.166
 2398ETHY    C1 2377  16.785  22.422   8.410
 2399ETHY    C1 2378  16.424  22.202   8.745
 2400ETHY    C1 2379  16.108  22.029   9.156
 2401THSLK    S 2380  17.975  23.164   8.413
 2402ETHY    C1 2381  17.837  22.949   8.793
 2403ETHY    C1 2382  17.684  22.776   9.284
 2404ETHY    C1 2383  17.547  22.710   9.800
 2405ETHY    C1 2384  17.423  22.742  10.332
 2406AUSL   AUS 2385  17.831  23.366   6.920
 2407AUSL   AUS 2386  17.976  22.949   6.990
 2408AUL    AUL 2387  17.749  23.062   6.706
 2409THSLK    S 2388  17.732  23.319   6.673
 2410ETHY    C1 2389  17.505  23.169   6.305
 2411ETHY    C1 2390  17.222  23.081   5.851
 2412ETHY    C1 2391  16.938  23.103   5.393
 2413ETHY    C1 2392  16.661  23.225   4.938
 2414THSLK    S 2393  17.802  22.774   6.865
 2415ETHY    C1 2394  17.530  22.461   6.673
 2416ETHY    C1 2395  17.249  22.113   6.367
 2417ETHY    C1 2396  17.032  21.805   5.980
 2418ETHY    C1 2397  16.880  21.538   5.528
 2419AUSL   AUS 2398  18.077  23.517   6.826
 2420AUSL   AUS 2399  17.730  23.630   7.083
 2421AUL    AUL 2400  17.749  23.669   6.706
 2422THSLK    S 2401  17.594  23.761   6.893
 2423ETHY    C1 2402  17.360  23.882   6.518
 2424ETHY    C1 2403  17.028  24.070   6.132
 2425ETHY    C1 2404  16.648  24.309   5.833
 2426ETHY    C1 2405  16.231  24.589   5.618
 2427THSLK    S 2406  17.996  23.479   6.566
 2428ETHY    C1 2407  17.906  23.404   6.124
 2429ETHY    C1 2408  17.778  23.405   5.597
 2430ETHY    C1 2409  17.632  23.514   5.089
 2431ETHY    C1 2410  17.475  23.720   4.608
 2432AUSL   AUS 2411  18.820  23.775   7.500
 2433AUSL   AUS 2412  18.750  23.630   7.083
 2434AUL    AUL 2413  19.034  23.856   7.196
 2435THSLK    S 2414  18.930  23.737   6.925
 2436ETHY    C1 2415  19.291  23.787   6.648
 2437ETHY    C1 2416  19.695  23.935   6.319
 2438ETHY    C1 2417  20.057  24.184   6.005
 2439ETHY    C1 2418  20.373  24.521   5.713
 2440THSLK    S 2419  19.090  23.836   7.503
 2441ETHY    C1 2420  19.537  23.936   7.502
 2442ETHY    C1 2421  20.039  24.142   7.500
 2443ETHY    C1 2422  20.486  24.444   7.500
 2444ETHY    C1 2423  20.874  24.828   7.503
 2445AUSL   AUS 2424  18.914  23.529   7.348
 2446AUSL   AUS 2425  18.914  23.202   7.651
 2447AUL    AUL 2426  19.222  23.366   7.500
 2448THSLK    S 2427  19.176  23.576   7.345
 2449ETHY    C1 2428  19.626  23.545   7.270
 2450ETHY    C1 2429  20.158  23.600   7.179
 2451ETHY    C1 2430  20.665  23.763   7.091
 2452ETHY    C1 2431  21.140  24.021   7.011
 2453THSLK    S 2432  19.151  23.065   7.659
 2454ETHY    C1 2433  19.522  22.807   7.726
 2455ETHY    C1 2434  20.008  22.581   7.808
 2456ETHY    C1 2435  20.527  22.461   7.896
 2457ETHY    C1 2436  21.065  22.439   7.989
 2458AUSL   AUS 2437  18.914  23.529   7.651
 2459AUSL   AUS 2438  18.657  23.876   7.764
 2460AUL    AUL 2439  19.034  23.856   7.803
 2461THSLK    S 2440  18.842  24.000   7.924
 2462ETHY    C1 2441  19.199  24.192   8.136
 2463ETHY    C1 2442  19.576  24.499   8.377
 2464ETHY    C1 2443  19.877  24.886   8.602
 2465ETHY    C1 2444  20.104  25.337   8.809
 2466THSLK    S 2445  19.175  23.575   7.661
 2467ETHY    C1 2446  19.626  23.545   7.734
 2468ETHY    C1 2447  20.159  23.600   7.821
 2469ETHY    C1 2448  20.665  23.763   7.908
 2470ETHY    C1 2449  21.139  24.021   7.995
 2471AUSL   AUS 2450  17.660  23.775   7.500
 2472AUSL   AUS 2451  17.730  23.630   7.916
 2473AUL    AUL 2452  17.446  23.856   7.803
 2474THSLK    S 2453  17.590  23.756   8.107
 2475ETHY    C1 2454  17.357  23.877   8.482
 2476ETHY    C1 2455  17.028  24.070   8.868
 2477ETHY    C1 2456  16.648  24.309   9.166
 2478ETHY    C1 2457  16.227  24.584   9.381
 2479THSLK    S 2458  17.439  23.915   7.503
 2480ETHY    C1 2459  17.150  24.270   7.502
 2481ETHY    C1 2460  16.742  24.627   7.500
 2482ETHY    C1 2461  16.272  24.891   7.500
 2483ETHY    C1 2462  15.754  25.067   7.503
 2484AUSL   AUS 2463  17.567  23.529   7.348
 2485AUSL   AUS 2464  17.824  23.876   7.236
 2486AUL    AUL 2465  17.446  23.856   7.196
 2487THSLK    S 2466  17.330  23.643   7.303
 2488ETHY    C1 2467  16.958  23.817   7.101
 2489ETHY    C1 2468  16.472  23.993   6.936
 2490ETHY    C1 2469  15.954  24.125   6.868
 2491ETHY    C1 2470  15.416  24.217   6.890
 2492THSLK    S 2471  17.704  24.043   7.056
 2493ETHY    C1 2472  17.552  24.362   6.765
 2494ETHY    C1 2473  17.298  24.742   6.473
 2495ETHY    C1 2474  16.965  25.110   6.260
 2496ETHY    C1 2475  16.569  25.460   6.122
 2497AUSL   AUS 2476  17.567  23.529   7.651
 2498AUSL   AUS 2477  17.567  23.202   7.348
 2499AUL    AUL 2478  17.259  23.366   7.500
 2500THSLK    S 2479  17.305  23.127   7.384
 2501ETHY    C1 2480  16.855  23.076   7.446
 2502ETHY    C1 2481  16.322  22.973   7.434
 2503ETHY    C1 2482  15.815  22.823   7.327
 2504ETHY    C1 2483  15.342  22.630   7.135
 2505THSLK    S 2484  17.329  23.637   7.699
 2506ETHY    C1 2485  16.958  23.813   7.901
 2507ETHY    C1 2486  16.472  23.992   8.063
 2508ETHY    C1 2487  15.954  24.125   8.133
 2509ETHY    C1 2488  15.415  24.211   8.114
 2510AUSL   AUS 2489  18.820  22.956   7.500
 2511AUSL   AUS 2490  18.750  23.101   7.916
 2512AUL    AUL 2491  19.034  22.875   7.803
 2513THSLK    S 2492  19.041  22.816   7.503
 2514ETHY    C1 2493  19.330  22.461   7.502
 2515ETHY    C1 2494  19.739  22.104   7.500
 2516ETHY    C1 2495  20.209  21.840   7.500
 2517ETHY    C1 2496  20.726  21.664   7.503
 2518THSLK    S 2497  18.887  22.911   8.066
 2519ETHY    C1 2498  19.120  22.594   8.297
 2520ETHY    C1 2499  19.453  22.287   8.598
 2521ETHY    C1 2500  19.833  22.077   8.918
 2522ETHY    C1 2501  20.250  21.961   9.250
 2523AUSL   AUS 2502  18.914  23.202   7.348
 2524AUSL   AUS 2503  18.657  22.855   7.236
 2525AUL    AUL 2504  19.034  22.875   7.196
 2526THSLK    S 2505  19.152  23.065   7.346
 2527ETHY    C1 2506  19.523  22.807   7.279
 2528ETHY    C1 2507  20.008  22.581   7.192
 2529ETHY    C1 2508  20.527  22.461   7.103
 2530ETHY    C1 2509  21.066  22.439   7.018
 2531THSLK    S 2510  18.780  22.664   7.099
 2532ETHY    C1 2511  18.930  22.262   6.942
 2533ETHY    C1 2512  19.183  21.832   6.728
 2534ETHY    C1 2513  19.515  21.476   6.495
 2535ETHY    C1 2514  19.914  21.195   6.249
 2536AUSL   AUS 2515  17.660  22.956   7.500
 2537AUSL   AUS 2516  17.730  23.101   7.083
 2538AUL    AUL 2517  17.446  22.875   7.196
 2539THSLK    S 2518  17.555  22.930   6.966
 2540ETHY    C1 2519  17.193  22.684   6.833
 2541ETHY    C1 2520  16.785  22.421   6.589
 2542ETHY    C1 2521  16.424  22.202   6.255
 2543ETHY    C1 2522  16.112  22.024   5.843
 2544THSLK    S 2523  17.390  22.895   7.503
 2545ETHY    C1 2524  16.944  22.795   7.502
 2546ETHY    C1 2525  16.442  22.589   7.500
 2547ETHY    C1 2526  15.995  22.287   7.500
 2548ETHY    C1 2527  15.607  21.903   7.503
 2549AUSL   AUS 2528  17.567  23.202   7.651
 2550AUSL   AUS 2529  17.824  22.855   7.764
 2551AUL    AUL 2530  17.446  22.875   7.803
 2552THSLK    S 2531  17.636  22.707   7.881
 2553ETHY    C1 2532  17.280  22.431   7.958
 2554ETHY    C1 2533  16.905  22.074   8.122
 2555ETHY    C1 2534  16.604  21.700   8.367
 2556ETHY    C1 2535  16.373  21.318   8.682
 2557THSLK    S 2536  17.304  23.132   7.618
 2558ETHY    C1 2537  16.854  23.080   7.557
 2559ETHY    C1 2538  16.322  22.974   7.566
 2560ETHY    C1 2539  15.815  22.823   7.673
 2561ETHY    C1 2540  15.341  22.635   7.867
 2562AUSL   AUS 2541  18.240  23.946   7.909
 2563AUSL   AUS 2542  17.824  23.876   7.764
 2564AUL    AUL 2543  17.937  24.160   7.991
 2565THSLK    S 2544  17.701  24.038   7.948
 2566ETHY    C1 2545  17.550  24.358   8.237
 2567ETHY    C1 2546  17.297  24.741   8.527
 2568ETHY    C1 2547  16.965  25.109   8.740
 2569ETHY    C1 2548  16.566  25.455   8.881
 2570THSLK    S 2549  18.278  24.177   8.034
 2571ETHY    C1 2550  18.406  24.503   8.327
 2572ETHY    C1 2551  18.483  24.935   8.646
 2573ETHY    C1 2552  18.464  25.400   8.920
 2574ETHY    C1 2553  18.358  25.885   9.147
 2575AUSL   AUS 2554  18.089  24.039   7.663
 2576AUSL   AUS 2555  18.392  24.039   7.336
 2577AUL    AUL 2556  18.240  24.347   7.500
 2578THSLK    S 2557  18.126  24.291   7.772
 2579ETHY    C1 2558  18.199  24.715   7.929
 2580ETHY    C1 2559  18.196  25.231   8.095
 2581ETHY    C1 2560  18.088  25.742   8.229
 2582ETHY    C1 2561  17.884  26.238   8.336
 2583THSLK    S 2562  18.443  24.279   7.237
 2584ETHY    C1 2563  18.656  24.656   7.091
 2585ETHY    C1 2564  18.826  25.145   6.929
 2586ETHY    C1 2565  18.893  25.663   6.792
 2587ETHY    C1 2566  18.864  26.197   6.682
 2588AUSL   AUS 2567  18.392  24.039   7.663
 2589AUSL   AUS 2568  18.505  23.782   8.011
 2590AUL    AUL 2569  18.544  24.160   7.991
 2591THSLK    S 2570  18.678  23.899   8.184
 2592ETHY    C1 2571  18.951  24.040   8.522
 2593ETHY    C1 2572  19.232  24.289   8.915
 2594ETHY    C1 2573  19.448  24.622   9.279
 2595ETHY    C1 2574  19.600  25.027   9.614
 2596THSLK    S 2575  18.442  24.277   7.768
 2597ETHY    C1 2576  18.655  24.656   7.913
 2598ETHY    C1 2577  18.826  25.145   8.072
 2599ETHY    C1 2578  18.893  25.663   8.207
 2600ETHY    C1 2579  18.862  26.196   8.325
 2601AUSL   AUS 2580  18.240  22.785   7.909
 2602AUSL   AUS 2581  18.657  22.855   7.764
 2603AUL    AUL 2582  18.544  22.571   7.991
 2604THSLK    S 2583  18.199  22.528   7.992
 2605ETHY    C1 2584  18.072  22.119   8.152
 2606ETHY    C1 2585  17.998  21.638   8.391
 2607ETHY    C1 2586  18.017  21.186   8.684
 2608ETHY    C1 2587  18.119  20.768   9.021
 2609THSLK    S 2588  18.777  22.665   7.907
 2610ETHY    C1 2589  18.928  22.263   8.062
 2611ETHY    C1 2590  19.183  21.832   8.272
 2612ETHY    C1 2591  19.515  21.476   8.505
 2613ETHY    C1 2592  19.911  21.197   8.758
 2614AUSL   AUS 2593  18.089  22.692   7.663
 2615AUSL   AUS 2594  17.976  22.949   8.011
 2616AUL    AUL 2595  17.937  22.571   7.991
 2617THSLK    S 2596  18.038  22.447   7.744
 2618ETHY    C1 2597  17.825  22.048   7.812
 2619ETHY    C1 2598  17.654  21.545   7.925
 2620ETHY    C1 2599  17.588  21.031   8.072
 2621ETHY    C1 2600  17.617  20.516   8.252
 2622THSLK    S 2601  17.798  22.779   8.136
 2623ETHY    C1 2602  17.526  22.464   8.327
 2624ETHY    C1 2603  17.248  22.113   8.633
 2625ETHY    C1 2604  17.032  21.805   9.019
 2626ETHY    C1 2605  16.876  21.543   9.473
 2627AUSL   AUS 2606  18.392  22.692   7.663
 2628AUSL   AUS 2607  18.089  22.692   7.336
 2629AUL    AUL 2608  18.240  22.384   7.500
 2630THSLK    S 2609  18.039  22.445   7.261
 2631ETHY    C1 2610  17.826  22.047   7.192
 2632ETHY    C1 2611  17.654  21.545   7.076
 2633ETHY    C1 2612  17.588  21.031   6.927
 2634ETHY    C1 2613  17.619  20.514   6.754
 2635THSLK    S 2614  18.353  22.433   7.748
 2636ETHY    C1 2615  18.281  21.988   7.829
 2637ETHY    C1 2616  18.284  21.459   7.948
 2638ETHY    C1 2617  18.393  20.951   8.095
 2639ETHY    C1 2618  18.595  20.473   8.264
 2640AUSL   AUS 2619  18.240  23.946   7.091
 2641AUSL   AUS 2620  18.657  23.876   7.236
 2642AUL    AUL 2621  18.544  24.160   7.009
 2643THSLK    S 2622  18.282  24.180   6.971
 2644ETHY    C1 2623  18.409  24.505   6.676
 2645ETHY    C1 2624  18.483  24.935   6.353
 2646ETHY    C1 2625  18.464  25.400   6.080
 2647ETHY    C1 2626  18.361  25.888   5.857
 2648THSLK    S 2627  18.844  24.001   7.081
 2649ETHY    C1 2628  19.201  24.193   6.869
 2650ETHY    C1 2629  19.576  24.499   6.623
 2651ETHY    C1 2630  19.877  24.886   6.398
 2652ETHY    C1 2631  20.107  25.338   6.197
 2653AUSL   AUS 2632  18.089  24.039   7.336
 2654AUSL   AUS 2633  17.976  23.782   6.990
 2655AUL    AUL 2634  17.937  24.160   7.009
 2656THSLK    S 2635  18.128  24.293   7.233
 2657ETHY    C1 2636  18.200  24.716   7.074
 2658ETHY    C1 2637  18.197  25.232   6.906
 2659ETHY    C1 2638  18.088  25.742   6.770
 2660ETHY    C1 2639  17.886  26.240   6.670
 2661THSLK    S 2640  17.857  23.919   6.800
 2662ETHY    C1 2641  17.761  24.113   6.396
 2663ETHY    C1 2642  17.584  24.391   5.966
 2664ETHY    C1 2643  17.341  24.716   5.611
 2665ETHY    C1 2644  17.045  25.081   5.330
 2666AUSL   AUS 2645  18.240  22.785   7.091
 2667AUSL   AUS 2646  17.824  22.855   7.236
 2668AUL    AUL 2647  17.937  22.571   7.009
 2669THSLK    S 2648  17.639  22.702   7.122
 2670ETHY    C1 2649  17.282  22.428   7.044
 2671ETHY    C1 2650  16.905  22.074   6.878
 2672ETHY    C1 2651  16.603  21.700   6.633
 2673ETHY    C1 2652  16.376  21.313   6.321
 2674THSLK    S 2653  18.202  22.525   7.013
 2675ETHY    C1 2654  18.074  22.117   6.852
 2676ETHY    C1 2655  17.998  21.638   6.609
 2677ETHY    C1 2656  18.017  21.186   6.315
 2678ETHY    C1 2657  18.123  20.765   5.983
 2679AUSL   AUS 2658  18.392  22.692   7.336
 2680AUSL   AUS 2659  18.505  22.949   6.990
 2681AUL    AUL 2660  18.544  22.571   7.009
 2682THSLK    S 2661  18.355  22.432   7.258
 2683ETHY    C1 2662  18.282  21.987   7.175
 2684ETHY    C1 2663  18.284  21.459   7.052
 2685ETHY    C1 2664  18.392  20.951   6.905
 2686ETHY    C1 2665  18.597  20.472   6.742
 2687THSLK    S 2666  18.628  22.759   6.847
 2688ETHY    C1 2667  18.723  22.391   6.592
 2689ETHY    C1 2668  18.897  22.010   6.247
 2690ETHY    C1 2669  19.139  21.710   5.870
 2691ETHY    C1 2670  19.440  21.489   5.471
 2692AUC    AUC 2671  17.397   8.263   7.500
 2693AUC    AUC 2672  17.643   8.263   7.348
 2694AUC    AUC 2673  17.643   8.263   7.651
 2695AUC    AUC 2674  17.152   8.263   7.348
 2696AUC    AUC 2675  17.152   8.263   7.651
 2697AUC    AUC 2676  17.246   8.508   7.500
 2698AUC    AUC 2677  17.549   8.508   7.500
 2699AUC    AUC 2678  17.246   8.017   7.500
 2700AUC    AUC 2679  17.549   8.017   7.500
 2701AUC    AUC 2680  17.397   8.111   7.745
 2702AUC    AUC 2681  17.397   8.414   7.745
 2703AUC    AUC 2682  17.397   8.111   7.254
 2704AUC    AUC 2683  17.397   8.414   7.254
 2705AUC    AUC 2684  17.888   8.263   7.196
 2706AUC    AUC 2685  17.888   8.263   7.500
 2707AUC    AUC 2686  17.888   8.263   7.803
 2708AUC    AUC 2687  16.906   8.263   7.196
 2709AUC    AUC 2688  16.906   8.263   7.500
 2710AUC    AUC 2689  16.906   8.263   7.803
 2711AUC    AUC 2690  17.094   8.753   7.500
 2712AUC    AUC 2691  17.397   8.753   7.500
 2713AUC    AUC 2692  17.701   8.753   7.500
 2714AUC    AUC 2693  17.094   7.772   7.500
 2715AUC    AUC 2694  17.397   7.772   7.500
 2716AUC    AUC 2695  17.701   7.772   7.500
 2717AUC    AUC 2696  17.397   7.959   7.991
 2718AUC    AUC 2697  17.397   8.263   7.991
 2719AUC    AUC 2698  17.397   8.566   7.991
 2720AUC    AUC 2699  17.397   7.959   7.009
 2721AUC    AUC 2700  17.397   8.263   7.009
 2722AUC    AUC 2701  17.397   8.566   7.009
 2723AUC    AUC 2702  17.643   8.111   7.897
 2724AUC    AUC 2703  17.643   8.414   7.897
 2725AUC    AUC 2704  17.643   8.111   7.103
 2726AUC    AUC 2705  17.643   8.414   7.103
 2727AUC    AUC 2706  17.152   8.111   7.897
 2728AUC    AUC 2707  17.152   8.414   7.897
 2729AUC    AUC 2708  17.152   8.111   7.103
 2730AUC    AUC 2709  17.152   8.414   7.103
 2731AUC    AUC 2710  17.794   8.508   7.348
 2732AUC    AUC 2711  17.794   8.508   7.651
 2733AUC    AUC 2712  17.000   8.508   7.348
 2734AUC    AUC 2713  17.000   8.508   7.651
 2735AUC    AUC 2714  17.794   8.017   7.348
 2736AUC    AUC 2715  17.794   8.017   7.651
 2737AUC    AUC 2716  17.000   8.017   7.348
 2738AUC    AUC 2717  17.000   8.017   7.651
 2739AUC    AUC 2718  17.246   8.660   7.745
 2740AUC    AUC 2719  17.549   8.660   7.745
 2741AUC    AUC 2720  17.246   7.865   7.745
 2742AUC    AUC 2721  17.549   7.865   7.745
 2743AUC    AUC 2722  17.246   8.660   7.254
 2744AUC    AUC 2723  17.549   8.660   7.254
 2745AUC    AUC 2724  17.246   7.865   7.254
 2746AUC    AUC 2725  17.549   7.865   7.254
 2747AUSL   AUS 2726  17.806   8.263   8.080
 2748AUSL   AUS 2727  17.662   7.846   8.011
 2749AUL    AUL 2728  17.888   7.959   8.294
 2750THSLK    S 2729  17.780   7.658   8.156
 2751ETHY    C1 2730  17.876   7.290   8.412
 2752ETHY    C1 2731  18.054   6.907   8.753
 2753ETHY    C1 2732  18.296   6.607   9.130
 2754ETHY    C1 2733  18.592   6.388   9.534
 2755THSLK    S 2734  17.905   8.216   8.327
 2756ETHY    C1 2735  18.132   8.066   8.694
 2757ETHY    C1 2736  18.416   7.978   9.148
 2758ETHY    C1 2737  18.700   8.000   9.607
 2759ETHY    C1 2738  18.977   8.122  10.061
 2760AUSL   AUS 2739  17.561   8.111   8.173
 2761AUSL   AUS 2740  17.234   8.414   8.173
 2762AUL    AUL 2741  17.397   8.263   8.482
 2763THSLK    S 2742  17.642   8.060   8.418
 2764ETHY    C1 2743  17.732   7.842   8.810
 2765ETHY    C1 2744  17.860   7.668   9.308
 2766ETHY    C1 2745  18.006   7.603   9.823
 2767ETHY    C1 2746  18.163   7.637  10.346
 2768THSLK    S 2747  17.147   8.374   8.432
 2769ETHY    C1 2748  17.058   8.300   8.874
 2770ETHY    C1 2749  16.934   8.302   9.403
 2771ETHY    C1 2750  16.789   8.411   9.912
 2772ETHY    C1 2751  16.626   8.615  10.392
 2773AUSL   AUS 2752  17.561   8.414   8.173
 2774AUSL   AUS 2753  17.907   8.527   7.916
 2775AUL    AUL 2754  17.888   8.566   8.294
 2776THSLK    S 2755  17.648   8.466   8.416
 2777ETHY    C1 2756  17.736   8.683   8.809
 2778ETHY    C1 2757  17.861   8.856   9.308
 2779ETHY    C1 2758  18.006   8.922   9.823
 2780ETHY    C1 2759  18.169   8.889  10.345
 2781THSLK    S 2760  18.083   8.633   8.079
 2782ETHY    C1 2761  18.445   8.683   8.355
 2783ETHY    C1 2762  18.852   8.832   8.681
 2784ETHY    C1 2763  19.214   9.081   8.995
 2785ETHY    C1 2764  19.526   9.417   9.293
 2786AUSL   AUS 2765  17.806   8.263   6.920
 2787AUSL   AUS 2766  17.662   8.679   6.990
 2788AUL    AUL 2767  17.888   8.566   6.706
 2789THSLK    S 2768  17.910   8.216   6.676
 2790ETHY    C1 2769  18.137   8.066   6.308
 2791ETHY    C1 2770  18.416   7.978   5.851
 2792ETHY    C1 2771  18.700   8.000   5.393
 2793ETHY    C1 2772  18.982   8.122   4.941
 2794THSLK    S 2773  17.839   8.798   6.820
 2795ETHY    C1 2774  18.111   8.939   6.480
 2796ETHY    C1 2775  18.389   9.186   6.085
 2797ETHY    C1 2776  18.605   9.519   5.720
 2798ETHY    C1 2777  18.762   9.926   5.391
 2799AUSL   AUS 2778  17.561   8.111   6.826
 2800AUSL   AUS 2779  17.907   7.998   7.083
 2801AUL    AUL 2780  17.888   7.959   6.706
 2802THSLK    S 2781  18.047   7.807   6.939
 2803ETHY    C1 2782  18.280   7.490   6.707
 2804ETHY    C1 2783  18.610   7.183   6.403
 2805ETHY    C1 2784  18.990   6.974   6.083
 2806ETHY    C1 2785  19.411   6.857   5.754
 2807THSLK    S 2786  17.648   8.059   6.583
 2808ETHY    C1 2787  17.736   7.842   6.191
 2809ETHY    C1 2788  17.861   7.669   5.692
 2810ETHY    C1 2789  18.006   7.603   5.176
 2811ETHY    C1 2790  18.169   7.636   4.656
 2812AUSL   AUS 2791  17.561   8.414   6.826
 2813AUSL   AUS 2792  17.234   8.111   6.826
 2814AUL    AUL 2793  17.397   8.263   6.518
 2815THSLK    S 2794  17.138   8.059   6.586
 2816ETHY    C1 2795  16.999   7.844   6.206
 2817ETHY    C1 2796  16.842   7.673   5.717
 2818ETHY    C1 2797  16.703   7.607   5.199
 2819ETHY    C1 2798  16.587   7.638   4.666
 2820THSLK    S 2799  17.663   8.375   6.572
 2821ETHY    C1 2800  17.800   8.298   6.142
 2822ETHY    C1 2801  17.953   8.298   5.622
 2823ETHY    C1 2802  18.091   8.407   5.112
 2824ETHY    C1 2803  18.214   8.614   4.621
 2825AUSL   AUS 2804  16.988   8.263   8.080
 2826AUSL   AUS 2805  17.133   8.679   8.011
 2827AUL    AUL 2806  16.906   8.566   8.294
 2828THSLK    S 2807  16.884   8.216   8.325
 2829ETHY    C1 2808  16.658   8.066   8.691
 2830ETHY    C1 2809  16.378   7.978   9.148
 2831ETHY    C1 2810  16.095   8.000   9.607
 2832ETHY    C1 2811  15.812   8.122  10.058
 2833THSLK    S 2812  17.010   8.812   8.201
 2834ETHY    C1 2813  16.914   9.007   8.604
 2835ETHY    C1 2814  16.741   9.288   9.034
 2836ETHY    C1 2815  16.498   9.614   9.390
 2837ETHY    C1 2816  16.197   9.973   9.671
 2838AUSL   AUS 2817  17.234   8.111   8.173
 2839AUSL   AUS 2818  16.887   7.998   7.916
 2840AUL    AUL 2819  16.906   7.959   8.294
 2841THSLK    S 2820  16.708   7.832   8.032
 2842ETHY    C1 2821  16.347   7.585   8.166
 2843ETHY    C1 2822  15.942   7.319   8.410
 2844ETHY    C1 2823  15.581   7.099   8.745
 2845ETHY    C1 2824  15.265   6.926   9.156
 2846THSLK    S 2825  17.132   8.061   8.413
 2847ETHY    C1 2826  16.994   7.846   8.793
 2848ETHY    C1 2827  16.841   7.673   9.284
 2849ETHY    C1 2828  16.704   7.607   9.800
 2850ETHY    C1 2829  16.580   7.639  10.332
 2851AUSL   AUS 2830  16.988   8.263   6.920
 2852AUSL   AUS 2831  17.133   7.846   6.990
 2853AUL    AUL 2832  16.906   7.959   6.706
 2854THSLK    S 2833  16.889   8.216   6.673
 2855ETHY    C1 2834  16.662   8.066   6.305
 2856ETHY    C1 2835  16.379   7.978   5.851
 2857ETHY    C1 2836  16.095   8.000   5.393
 2858ETHY    C1 2837  15.818   8.122   4.938
 2859THSLK    S 2838  16.959   7.671   6.865
 2860ETHY    C1 2839  16.687   7.358   6.673
 2861ETHY    C1 2840  16.406   7.010   6.367
 2862ETHY    C1 2841  16.189   6.702   5.980
 2863ETHY    C1 2842  16.037   6.435   5.528
 2864AUSL   AUS 2843  17.234   8.414   6.826
 2865AUSL   AUS 2844  16.887   8.527   7.083
 2866AUL    AUL 2845  16.906   8.566   6.706
 2867THSLK    S 2846  16.751   8.658   6.893
 2868ETHY    C1 2847  16.517   8.779   6.518
 2869ETHY    C1 2848  16.185   8.967   6.132
 2870ETHY    C1 2849  15.805   9.206   5.833
 2871ETHY    C1 2850  15.388   9.486   5.618
 2872THSLK    S 2851  17.153   8.376   6.566
 2873ETHY    C1 2852  17.063   8.301   6.124
 2874ETHY    C1 2853  16.935   8.302   5.597
 2875ETHY    C1 2854  16.789   8.411   5.089
 2876ETHY    C1 2855  16.632   8.617   4.608
 2877AUSL   AUS 2856  17.977   8.672   7.500
 2878AUSL   AUS 2857  17.907   8.527   7.083
 2879AUL    AUL 2858  18.191   8.753   7.196
 2880THSLK    S 2859  18.087   8.634   6.925
 2881ETHY    C1 2860  18.448   8.684   6.648
 2882ETHY    C1 2861  18.852   8.832   6.319
 2883ETHY    C1 2862  19.214   9.081   6.005
 2884ETHY    C1 2863  19.530   9.418   5.713
 2885THSLK    S 2864  18.247   8.733   7.503
 2886ETHY    C1 2865  18.694   8.833   7.502
 2887ETHY    C1 2866  19.196   9.039   7.500
 2888ETHY    C1 2867  19.643   9.341   7.500
 2889ETHY    C1 2868  20.031   9.725   7.503
 2890AUSL   AUS 2869  18.071   8.426   7.348
 2891AUSL   AUS 2870  18.071   8.099   7.651
 2892AUL    AUL 2871  18.379   8.263   7.500
 2893THSLK    S 2872  18.333   8.473   7.345
 2894ETHY    C1 2873  18.783   8.442   7.270
 2895ETHY    C1 2874  19.315   8.497   7.179
 2896ETHY    C1 2875  19.822   8.660   7.091
 2897ETHY    C1 2876  20.297   8.918   7.011
 2898THSLK    S 2877  18.308   7.962   7.659
 2899ETHY    C1 2878  18.679   7.704   7.726
 2900ETHY    C1 2879  19.165   7.478   7.808
 2901ETHY    C1 2880  19.684   7.358   7.896
 2902ETHY    C1 2881  20.222   7.336   7.989
 2903AUSL   AUS 2882  18.071   8.426   7.651
 2904AUSL   AUS 2883  17.814   8.773   7.764
 2905AUL    AUL 2884  18.191   8.753   7.803
 2906THSLK    S 2885  17.999   8.897   7.924
 2907ETHY    C1 2886  18.356   9.089   8.136
 2908ETHY    C1 2887  18.733   9.396   8.377
 2909ETHY    C1 2888  19.034   9.783   8.602
 2910ETHY    C1 2889  19.261  10.234   8.809
 2911THSLK    S 2890  18.332   8.472   7.661
 2912ETHY    C1 2891  18.783   8.442   7.734
 2913ETHY    C1 2892  19.316   8.497   7.821
 2914ETHY    C1 2893  19.822   8.660   7.908
 2915ETHY    C1 2894  20.296   8.918   7.995
 2916AUSL   AUS 2895  16.817   8.672   7.500
 2917AUSL   AUS 2896  16.887   8.527   7.916
 2918AUL    AUL 2897  16.603   8.753   7.803
 2919THSLK    S 2898  16.747   8.653   8.107
 2920ETHY    C1 2899  16.514   8.774   8.482
 2921ETHY    C1 2900  16.185   8.967   8.868
 2922ETHY    C1 2901  15.805   9.206   9.166
 2923ETHY    C1 2902  15.384   9.481   9.381
 2924THSLK    S 2903  16.596   8.812   7.503
 2925ETHY    C1 2904  16.307   9.167   7.502
 2926ETHY    C1 2905  15.899   9.524   7.500
 2927ETHY    C1 2906  15.429   9.788   7.500
 2928ETHY    C1 2907  14.911   9.964   7.503
 2929AUSL   AUS 2908  16.724   8.426   7.348
 2930AUSL   AUS 2909  16.981   8.773   7.236
 2931AUL    AUL 2910  16.603   8.753   7.196
 2932THSLK    S 2911  16.487   8.540   7.303
 2933ETHY    C1 2912  16.115   8.714   7.101
 2934ETHY    C1 2913  15.629   8.890   6.936
 2935ETHY    C1 2914  15.111   9.022   6.868
 2936ETHY    C1 2915  14.573   9.114   6.890
 2937THSLK    S 2916  16.861   8.940   7.056
 2938ETHY    C1 2917  16.709   9.259   6.765
 2939ETHY    C1 2918  16.455   9.639   6.473
 2940ETHY    C1 2919  16.122  10.007   6.260
 2941ETHY    C1 2920  15.726  10.357   6.122
 2942AUSL   AUS 2921  16.724   8.426   7.651
 2943AUSL   AUS 2922  16.724   8.099   7.348
 2944AUL    AUL 2923  16.416   8.263   7.500
 2945THSLK    S 2924  16.462   8.024   7.384
 2946ETHY    C1 2925  16.012   7.973   7.446
 2947ETHY    C1 2926  15.479   7.870   7.434
 2948ETHY    C1 2927  14.972   7.720   7.327
 2949ETHY    C1 2928  14.499   7.527   7.135
 2950THSLK    S 2929  16.486   8.534   7.699
 2951ETHY    C1 2930  16.115   8.710   7.901
 2952ETHY    C1 2931  15.629   8.889   8.063
 2953ETHY    C1 2932  15.111   9.022   8.133
 2954ETHY    C1 2933  14.572   9.108   8.114
 2955AUSL   AUS 2934  17.977   7.853   7.500
 2956AUSL   AUS 2935  17.907   7.998   7.916
 2957AUL    AUL 2936  18.191   7.772   7.803
 2958THSLK    S 2937  18.198   7.713   7.503
 2959ETHY    C1 2938  18.487   7.358   7.502
 2960ETHY    C1 2939  18.896   7.001   7.500
 2961ETHY    C1 2940  19.366   6.737   7.500
 2962ETHY    C1 2941  19.883   6.561   7.503
 2963THSLK    S 2942  18.044   7.808   8.066
 2964ETHY    C1 2943  18.277   7.491   8.297
 2965ETHY    C1 2944  18.610   7.184   8.598
 2966ETHY    C1 2945  18.990   6.974   8.918
 2967ETHY    C1 2946  19.407   6.858   9.250
 2968AUSL   AUS 2947  18.071   8.099   7.348
 2969AUSL   AUS 2948  17.814   7.752   7.236
 2970AUL    AUL 2949  18.191   7.772   7.196
 2971THSLK    S 2950  18.309   7.962   7.346
 2972ETHY    C1 2951  18.680   7.704   7.279
 2973ETHY    C1 2952  19.165   7.478   7.192
 2974ETHY    C1 2953  19.684   7.358   7.103
 2975ETHY    C1 2954  20.223   7.336   7.018
 2976THSLK    S 2955  17.937   7.561   7.099
 2977ETHY    C1 2956  18.087   7.159   6.942
 2978ETHY    C1 2957  18.340   6.729   6.728
 2979ETHY    C1 2958  18.672   6.373   6.495
 2980ETHY    C1 2959  19.071   6.092   6.249
 2981AUSL   AUS 2960  16.817   7.853   7.500
 2982AUSL   AUS 2961  16.887   7.998   7.083
 2983AUL    AUL 2962  16.603   7.772   7.196
 2984THSLK    S 2963  16.712   7.827   6.966
 2985ETHY    C1 2964  16.350   7.581   6.833
 2986ETHY    C1 2965  15.942   7.318   6.589
 2987ETHY    C1 2966  15.581   7.099   6.255
 2988ETHY    C1 2967  15.269   6.921   5.843
 2989THSLK    S 2968  16.547   7.792   7.503
 2990ETHY    C1 2969  16.101   7.692   7.502
 2991ETHY    C1 2970  15.599   7.486   7.500
 2992ETHY    C1 2971  15.152   7.184   7.500
 2993ETHY    C1 2972  14.764   6.800   7.503
 2994AUSL   AUS 2973  16.724   8.099   7.651
 2995AUSL   AUS 2974  16.981   7.752   7.764
 2996AUL    AUL 2975  16.603   7.772   7.803
 2997THSLK    S 2976  16.793   7.604   7.881
 2998ETHY    C1 2977  16.437   7.328   7.958
 2999ETHY    C1 2978  16.062   6.971   8.122
 3000ETHY    C1 2979  15.761   6.597   8.367
 3001ETHY    C1 2980  15.530   6.215   8.682
 3002THSLK    S 2981  16.461   8.029   7.618
 3003ETHY    C1 2982  16.011   7.977   7.557
 3004ETHY    C1 2983  15.479   7.871   7.566
 3005ETHY    C1 2984  14.972   7.720   7.673
 3006ETHY    C1 2985  14.498   7.532   7.867
 3007AUSL   AUS 2986  17.397   8.843   7.909
 3008AUSL   AUS 2987  16.981   8.773   7.764
 3009AUL    AUL 2988  17.094   9.057   7.991
 3010THSLK    S 2989  16.858   8.935   7.948
 3011ETHY    C1 2990  16.707   9.255   8.237
 3012ETHY    C1 2991  16.454   9.638   8.527
 3013ETHY    C1 2992  16.122  10.006   8.740
 3014ETHY    C1 2993  15.723  10.352   8.881
 3015THSLK    S 2994  17.435   9.074   8.034
 3016ETHY    C1 2995  17.563   9.400   8.327
 3017ETHY    C1 2996  17.640   9.832   8.646
 3018ETHY    C1 2997  17.621  10.297   8.920
 3019ETHY    C1 2998  17.515  10.782   9.147
 3020AUSL   AUS 2999  17.246   8.936   7.663
 3021AUSL   AUS 3000  17.549   8.936   7.336
 3022AUL    AUL 3001  17.397   9.244   7.500
 3023THSLK    S 3002  17.283   9.188   7.772
 3024ETHY    C1 3003  17.356   9.612   7.929
 3025ETHY    C1 3004  17.353  10.128   8.095
 3026ETHY    C1 3005  17.245  10.639   8.229
 3027ETHY    C1 3006  17.041  11.135   8.336
 3028THSLK    S 3007  17.600   9.176   7.237
 3029ETHY    C1 3008  17.813   9.553   7.091
 3030ETHY    C1 3009  17.983  10.042   6.929
 3031ETHY    C1 3010  18.050  10.560   6.792
 3032ETHY    C1 3011  18.021  11.094   6.682
 3033AUSL   AUS 3012  17.549   8.936   7.663
 3034AUSL   AUS 3013  17.662   8.679   8.011
 3035AUL    AUL 3014  17.701   9.057   7.991
 3036THSLK    S 3015  17.835   8.796   8.184
 3037ETHY    C1 3016  18.108   8.937   8.522
 3038ETHY    C1 3017  18.389   9.186   8.915
 3039ETHY    C1 3018  18.605   9.519   9.279
 3040ETHY    C1 3019  18.757   9.924   9.614
 3041THSLK    S 3020  17.599   9.174   7.768
 3042ETHY    C1 3021  17.812   9.553   7.913
 3043ETHY    C1 3022  17.983  10.042   8.072
 3044ETHY    C1 3023  18.050  10.560   8.207
 3045ETHY    C1 3024  18.019  11.093   8.325
 3046AUSL   AUS 3025  17.397   7.682   7.909
 3047AUSL   AUS 3026  17.814   7.752   7.764
 3048AUL    AUL 3027  17.701   7.468   7.991
 3049THSLK    S 3028  17.356   7.425   7.992
 3050ETHY    C1 3029  17.229   7.016   8.152
 3051ETHY    C1 3030  17.155   6.535   8.391
 3052ETHY    C1 3031  17.174   6.083   8.684
 3053ETHY    C1 3032  17.276   5.665   9.021
 3054THSLK    S 3033  17.934   7.562   7.907
 3055ETHY    C1 3034  18.085   7.160   8.062
 3056ETHY    C1 3035  18.340   6.729   8.272
 3057ETHY    C1 3036  18.672   6.373   8.505
 3058ETHY    C1 3037  19.068   6.094   8.758
 3059AUSL   AUS 3038  17.246   7.589   7.663
 3060AUSL   AUS 3039  17.133   7.846   8.011
 3061AUL    AUL 3040  17.094   7.468   7.991
 3062THSLK    S 3041  17.195   7.344   7.744
 3063ETHY    C1 3042  16.982   6.945   7.812
 3064ETHY    C1 3043  16.811   6.442   7.925
 3065ETHY    C1 3044  16.745   5.928   8.072
 3066ETHY    C1 3045  16.774   5.413   8.252
 3067THSLK    S 3046  16.955   7.676   8.136
 3068ETHY    C1 3047  16.683   7.361   8.327
 3069ETHY    C1 3048  16.405   7.010   8.633
 3070ETHY    C1 3049  16.189   6.702   9.019
 3071ETHY    C1 3050  16.033   6.440   9.473
 3072AUSL   AUS 3051  17.549   7.589   7.663
 3073AUSL   AUS 3052  17.246   7.589   7.336
 3074AUL    AUL 3053  17.397   7.281   7.500
 3075THSLK    S 3054  17.196   7.342   7.261
 3076ETHY    C1 3055  16.983   6.944   7.192
 3077ETHY    C1 3056  16.811   6.442   7.076
 3078ETHY    C1 3057  16.745   5.928   6.927
 3079ETHY    C1 3058  16.776   5.411   6.754
 3080THSLK    S 3059  17.510   7.330   7.748
 3081ETHY    C1 3060  17.438   6.885   7.829
 3082ETHY    C1 3061  17.441   6.356   7.948
 3083ETHY    C1 3062  17.550   5.848   8.095
 3084ETHY    C1 3063  17.752   5.370   8.264
 3085AUSL   AUS 3064  17.397   8.843   7.091
 3086AUSL   AUS 3065  17.814   8.773   7.236
 3087AUL    AUL 3066  17.701   9.057   7.009
 3088THSLK    S 3067  17.439   9.077   6.971
 3089ETHY    C1 3068  17.566   9.402   6.676
 3090ETHY    C1 3069  17.640   9.832   6.353
 3091ETHY    C1 3070  17.621  10.297   6.080
 3092ETHY    C1 3071  17.518  10.785   5.857
 3093THSLK    S 3072  18.001   8.898   7.081
 3094ETHY    C1 3073  18.358   9.090   6.869
 3095ETHY    C1 3074  18.733   9.396   6.623
 3096ETHY    C1 3075  19.034   9.783   6.398
 3097ETHY    C1 3076  19.264  10.235   6.197
 3098AUSL   AUS 3077  17.246   8.936   7.336
 3099AUSL   AUS 3078  17.133   8.679   6.990
 3100AUL    AUL 3079  17.094   9.057   7.009
 3101THSLK    S 3080  17.285   9.190   7.233
 3102ETHY    C1 3081  17.357   9.613   7.074
 3103ETHY    C1 3082  17.354  10.129   6.906
 3104ETHY    C1 3083  17.245  10.639   6.770
 3105ETHY    C1 3084  17.043  11.137   6.670
 3106THSLK    S 3085  17.014   8.816   6.800
 3107ETHY    C1 3086  16.918   9.010   6.396
 3108ETHY    C1 3087  16.741   9.288   5.966
 3109ETHY    C1 3088  16.498   9.613   5.611
 3110ETHY    C1 3089  16.202   9.978   5.330
 3111AUSL   AUS 3090  17.397   7.682   7.091
 3112AUSL   AUS 3091  16.981   7.752   7.236
 3113AUL    AUL 3092  17.094   7.468   7.009
 3114THSLK    S 3093  16.796   7.599   7.122
 3115ETHY    C1 3094  16.439   7.325   7.044
 3116ETHY    C1 3095  16.062   6.971   6.878
 3117ETHY    C1 3096  15.760   6.597   6.633
 3118ETHY    C1 3097  15.533   6.210   6.321
 3119THSLK    S 3098  17.359   7.422   7.013
 3120ETHY    C1 3099  17.231   7.014   6.852
 3121ETHY    C1 3100  17.155   6.535   6.609
 3122ETHY    C1 3101  17.174   6.083   6.315
 3123ETHY    C1 3102  17.280   5.662   5.983
 3124AUSL   AUS 3103  17.549   7.589   7.336
 3125AUSL   AUS 3104  17.662   7.846   6.990
 3126AUL    AUL 3105  17.701   7.468   7.009
 3127THSLK    S 3106  17.512   7.329   7.258
 3128ETHY    C1 3107  17.439   6.884   7.175
 3129ETHY    C1 3108  17.441   6.356   7.052
 3130ETHY    C1 3109  17.549   5.848   6.905
 3131ETHY    C1 3110  17.754   5.369   6.742
 3132THSLK    S 3111  17.785   7.656   6.847
 3133ETHY    C1 3112  17.880   7.288   6.592
 3134ETHY    C1 3113  18.054   6.907   6.247
 3135ETHY    C1 3114  18.296   6.607   5.870
 3136ETHY    C1 3115  18.597   6.386   5.471
 3137AUC    AUC 3116  47.382   6.712   7.500
 3138AUC    AUC 3117  47.628   6.712   7.348
 3139AUC    AUC 3118  47.628   6.712   7.651
 3140AUC    AUC 3119  47.137   6.712   7.348
 3141AUC    AUC 3120  47.137   6.712   7.651
 3142AUC    AUC 3121  47.231   6.957   7.500
 3143AUC    AUC 3122  47.534   6.957   7.500
 3144AUC    AUC 3123  47.231   6.466   7.500
 3145AUC    AUC 3124  47.534   6.466   7.500
 3146AUC    AUC 3125  47.382   6.560   7.745
 3147AUC    AUC 3126  47.382   6.863   7.745
 3148AUC    AUC 3127  47.382   6.560   7.254
 3149AUC    AUC 3128  47.382   6.863   7.254
 3150AUC    AUC 3129  47.873   6.712   7.196
 3151AUC    AUC 3130  47.873   6.712   7.500
 3152AUC    AUC 3131  47.873   6.712   7.803
 3153AUC    AUC 3132  46.891   6.712   7.196
 3154AUC    AUC 3133  46.891   6.712   7.500
 3155AUC    AUC 3134  46.891   6.712   7.803
 3156AUC    AUC 3135  47.079   7.202   7.500
 3157AUC    AUC 3136  47.382   7.202   7.500
 3158AUC    AUC 3137  47.686   7.202   7.500
 3159AUC    AUC 3138  47.079   6.221   7.500
 3160AUC    AUC 3139  47.382   6.221   7.500
 3161AUC    AUC 3140  47.686   6.221   7.500
 3162AUC    AUC 3141  47.382   6.408   7.991
 3163AUC    AUC 3142  47.382   6.712   7.991
 3164AUC    AUC 3143  47.382   7.015   7.991
 3165AUC    AUC 3144  47.382   6.408   7.009
 3166AUC    AUC 3145  47.382   6.712   7.009
 3167AUC    AUC 3146  47.382   7.015   7.009
 3168AUC    AUC 3147  47.628   6.560   7.897
 3169AUC    AUC 3148  47.628   6.863   7.897
 3170AUC    AUC 3149  47.628   6.560   7.103
 3171AUC    AUC 3150  47.628   6.863   7.103
 3172AUC    AUC 3151  47.137   6.560   7.897
 3173AUC    AUC 3152  47.137   6.863   7.897
 3174AUC    AUC 3153  47.137   6.560   7.103
 3175AUC    AUC 3154  47.137   6.863   7.103
 3176AUC    AUC 3155  47.779   6.957   7.348
 3177AUC    AUC 3156  47.779   6.957   7.651
 3178AUC    AUC 3157  46.985   6.957   7.348
 3179AUC    AUC 3158  46.985   6.957   7.651
 3180AUC    AUC 3159  47.779   6.466   7.348
 3181AUC    AUC 3160  47.779   6.466   7.651
 3182AUC    AUC 3161  46.985   6.466   7.348
 3183AUC    AUC 3162  46.985   6.466   7.651
 3184AUC    AUC 3163  47.231   7.109   7.745
 3185AUC    AUC 3164  47.534   7.109   7.745
 3186AUC    AUC 3165  47.231   6.314   7.745
 3187AUC    AUC 3166  47.534   6.314   7.745
 3188AUC    AUC 3167  47.231   7.109   7.254
 3189AUC    AUC 3168  47.534   7.109   7.254
 3190AUC    AUC 3169  47.231   6.314   7.254
 3191AUC    AUC 3170  47.534   6.314   7.254
 3192AUSL   AUS 3171  47.791   6.712   8.080
 3193AUSL   AUS 3172  47.647   6.295   8.011
 3194AUL    AUL 3173  47.873   6.408   8.294
 3195THSLK    S 3174  47.765   6.107   8.156
 3196ETHY    C1 3175  47.861   5.739   8.412
 3197ETHY    C1 3176  48.039   5.356   8.753
 3198ETHY    C1 3177  48.281   5.056   9.130
 3199ETHY    C1 3178  48.577   4.837   9.534
 3200THSLK    S 3179  47.890   6.665   8.327
 3201ETHY    C1 3180  48.117   6.515   8.694
 3202ETHY    C1 3181  48.401   6.427   9.148
 3203ETHY    C1 3182  48.685   6.449   9.607
 3204ETHY    C1 3183  48.962   6.571  10.061
 3205AUSL   AUS 3184  47.546   6.560   8.173
 3206AUSL   AUS 3185  47.219   6.863   8.173
 3207AUL    AUL 3186  47.382   6.712   8.482
 3208THSLK    S 3187  47.627   6.509   8.418
 3209ETHY    C1 3188  47.717   6.291   8.810
 3210ETHY    C1 3189  47.845   6.117   9.308
 3211ETHY    C1 3190  47.991   6.052   9.823
 3212ETHY    C1 3191  48.148   6.086  10.346
 3213THSLK    S 3192  47.132   6.823   8.432
 3214ETHY    C1 3193  47.043   6.749   8.874
 3215ETHY    C1 3194  46.919   6.751   9.403
 3216ETHY    C1 3195  46.774   6.860   9.912
 3217ETHY    C1 3196  46.611   7.064  10.392
 3218AUSL   AUS 3197  47.546   6.863   8.173
 3219AUSL   AUS 3198  47.892   6.976   7.916
 3220AUL    AUL 3199  47.873   7.015   8.294
 3221THSLK    S 3200  47.633   6.915   8.416
 3222ETHY    C1 3201  47.721   7.132   8.809
 3223ETHY    C1 3202  47.846   7.305   9.308
 3224ETHY    C1 3203  47.991   7.371   9.823
 3225ETHY    C1 3204  48.154   7.338  10.345
 3226THSLK    S 3205  48.068   7.082   8.079
 3227ETHY    C1 3206  48.430   7.132   8.355
 3228ETHY    C1 3207  48.837   7.281   8.681
 3229ETHY    C1 3208  49.199   7.530   8.995
 3230ETHY    C1 3209  49.511   7.866   9.293
 3231AUSL   AUS 3210  47.791   6.712   6.920
 3232AUSL   AUS 3211  47.647   7.128   6.990
 3233AUL    AUL 3212  47.873   7.015   6.706
 3234THSLK    S 3213  47.895   6.665   6.676
 3235ETHY    C1 3214  48.122   6.515   6.308
 3236ETHY    C1 3215  48.401   6.427   5.851
 3237ETHY    C1 3216  48.685   6.449   5.393
 3238ETHY    C1 3217  48.967   6.571   4.941
 3239THSLK    S 3218  47.824   7.247   6.820
 3240ETHY    C1 3219  48.096   7.388   6.480
 3241ETHY    C1 3220  48.374   7.635   6.085
 3242ETHY    C1 3221  48.590   7.968   5.720
 3243ETHY    C1 3222  48.747   8.375   5.391
 3244AUSL   AUS 3223  47.546   6.560   6.826
 3245AUSL   AUS 3224  47.892   6.447   7.083
 3246AUL    AUL 3225  47.873   6.408   6.706
 3247THSLK    S 3226  48.032   6.256   6.939
 3248ETHY    C1 3227  48.265   5.939   6.707
 3249ETHY    C1 3228  48.595   5.632   6.403
 3250ETHY    C1 3229  48.975   5.423   6.083
 3251ETHY    C1 3230  49.396   5.306   5.754
 3252THSLK    S 3231  47.633   6.508   6.583
 3253ETHY    C1 3232  47.721   6.291   6.191
 3254ETHY    C1 3233  47.846   6.118   5.692
 3255ETHY    C1 3234  47.991   6.052   5.176
 3256ETHY    C1 3235  48.154   6.085   4.656
 3257AUSL   AUS 3236  47.546   6.863   6.826
 3258AUSL   AUS 3237  47.219   6.560   6.826
 3259AUL    AUL 3238  47.382   6.712   6.518
 3260THSLK    S 3239  47.123   6.508   6.586
 3261ETHY    C1 3240  46.984   6.293   6.206
 3262ETHY    C1 3241  46.827   6.122   5.717
 3263ETHY    C1 3242  46.688   6.056   5.199
 3264ETHY    C1 3243  46.572   6.087   4.666
 3265THSLK    S 3244  47.648   6.824   6.572
 3266ETHY    C1 3245  47.785   6.747   6.142
 3267ETHY    C1 3246  47.938   6.747   5.622
 3268ETHY    C1 3247  48.076   6.856   5.112
 3269ETHY    C1 3248  48.199   7.063   4.621
 3270AUSL   AUS 3249  46.973   6.712   8.080
 3271AUSL   AUS 3250  47.118   7.128   8.011
 3272AUL    AUL 3251  46.891   7.015   8.294
 3273THSLK    S 3252  46.869   6.665   8.325
 3274ETHY    C1 3253  46.643   6.515   8.691
 3275ETHY    C1 3254  46.363   6.427   9.148
 3276ETHY    C1 3255  46.080   6.449   9.607
 3277ETHY    C1 3256  45.797   6.571  10.058
 3278THSLK    S 3257  46.995   7.261   8.201
 3279ETHY    C1 3258  46.899   7.456   8.604
 3280ETHY    C1 3259  46.726   7.737   9.034
 3281ETHY    C1 3260  46.483   8.063   9.390
 3282ETHY    C1 3261  46.182   8.422   9.671
 3283AUSL   AUS 3262  47.219   6.560   8.173
 3284AUSL   AUS 3263  46.872   6.447   7.916
 3285AUL    AUL 3264  46.891   6.408   8.294
 3286THSLK    S 3265  46.693   6.281   8.032
 3287ETHY    C1 3266  46.332   6.034   8.166
 3288ETHY    C1 3267  45.927   5.768   8.410
 3289ETHY    C1 3268  45.566   5.548   8.745
 3290ETHY    C1 3269  45.250   5.375   9.156
 3291THSLK    S 3270  47.117   6.510   8.413
 3292ETHY    C1 3271  46.979   6.295   8.793
 3293ETHY    C1 3272  46.826   6.122   9.284
 3294ETHY    C1 3273  46.689   6.056   9.800
 3295ETHY    C1 3274  46.565   6.088  10.332
 3296AUSL   AUS 3275  46.973   6.712   6.920
 3297AUSL   AUS 3276  47.118   6.295   6.990
 3298AUL    AUL 3277  46.891   6.408   6.706
 3299THSLK    S 3278  46.874   6.665   6.673
 3300ETHY    C1 3279  46.647   6.515   6.305
 3301ETHY    C1 3280  46.364   6.427   5.851
 3302ETHY    C1 3281  46.080   6.449   5.393
 3303ETHY    C1 3282  45.803   6.571   4.938
 3304THSLK    S 3283  46.944   6.120   6.865
 3305ETHY    C1 3284  46.672   5.807   6.673
 3306ETHY    C1 3285  46.391   5.459   6.367
 3307ETHY    C1 3286  46.174   5.151   5.980
 3308ETHY    C1 3287  46.022   4.884   5.528
 3309AUSL   AUS 3288  47.219   6.863   6.826
 3310AUSL   AUS 3289  46.872   6.976   7.083
 3311AUL    AUL 3290  46.891   7.015   6.706
 3312THSLK    S 3291  46.736   7.107   6.893
 3313ETHY    C1 3292  46.502   7.228   6.518
 3314ETHY    C1 3293  46.170   7.416   6.132
 3315ETHY    C1 3294  45.790   7.655   5.833
 3316ETHY    C1 3295  45.373   7.935   5.618
 3317THSLK    S 3296  47.138   6.825   6.566
 3318ETHY    C1 3297  47.048   6.750   6.124
 3319ETHY    C1 3298  46.920   6.751   5.597
 3320ETHY    C1 3299  46.774   6.860   5.089
 3321ETHY    C1 3300  46.617   7.066   4.608
 3322AUSL   AUS 3301  47.962   7.121   7.500
 3323AUSL   AUS 3302  47.892   6.976   7.083
 3324AUL    AUL 3303  48.176   7.202   7.196
 3325THSLK    S 3304  48.072   7.083   6.925
 3326ETHY    C1 3305  48.433   7.133   6.648
 3327ETHY    C1 3306  48.837   7.281   6.319
 3328ETHY    C1 3307  49.199   7.530   6.005
 3329ETHY    C1 3308  49.515   7.867   5.713
 3330THSLK    S 3309  48.232   7.182   7.503
 3331ETHY    C1 3310  48.679   7.282   7.502
 3332ETHY    C1 3311  49.181   7.488   7.500
 3333ETHY    C1 3312  49.628   7.790   7.500
 3334ETHY    C1 3313  50.016   8.174   7.503
 3335AUSL   AUS 3314  48.056   6.875   7.348
 3336AUSL   AUS 3315  48.056   6.548   7.651
 3337AUL    AUL 3316  48.364   6.712   7.500
 3338THSLK    S 3317  48.318   6.922   7.345
 3339ETHY    C1 3318  48.768   6.891   7.270
 3340ETHY    C1 3319  49.300   6.946   7.179
 3341ETHY    C1 3320  49.807   7.109   7.091
 3342ETHY    C1 3321  50.282   7.367   7.011
 3343THSLK    S 3322  48.293   6.411   7.659
 3344ETHY    C1 3323  48.664   6.153   7.726
 3345ETHY    C1 3324  49.150   5.927   7.808
 3346ETHY    C1 3325  49.669   5.807   7.896
 3347ETHY    C1 3326  50.207   5.785   7.989
 3348AUSL   AUS 3327  48.056   6.875   7.651
 3349AUSL   AUS 3328  47.799   7.222   7.764
 3350AUL    AUL 3329  48.176   7.202   7.803
 3351THSLK    S 3330  47.984   7.346   7.924
 3352ETHY    C1 3331  48.341   7.538   8.136
 3353ETHY    C1 3332  48.718   7.845   8.377
 3354ETHY    C1 3333  49.019   8.232   8.602
 3355ETHY    C1 3334  49.246   8.683   8.809
 3356THSLK    S 3335  48.317   6.921   7.661
 3357ETHY    C1 3336  48.768   6.891   7.734
 3358ETHY    C1 3337  49.301   6.946   7.821
 3359ETHY    C1 3338  49.807   7.109   7.908
 3360ETHY    C1 3339  50.281   7.367   7.995
 3361AUSL   AUS 3340  46.802   7.121   7.500
 3362AUSL   AUS 3341  46.872   6.976   7.916
 3363AUL    AUL 3342  46.588   7.202   7.803
 3364THSLK    S 3343  46.732   7.102   8.107
 3365ETHY    C1 3344  46.499   7.223   8.482
 3366ETHY    C1 3345  46.170   7.416   8.868
 3367ETHY    C1 3346  45.790   7.655   9.166
 3368ETHY    C1 3347  45.369   7.930   9.381
 3369THSLK    S 3348  46.581   7.261   7.503
 3370ETHY    C1 3349  46.292   7.616   7.502
 3371ETHY    C1 3350  45.884   7.973   7.500
 3372ETHY    C1 3351  45.414   8.237   7.500
 3373ETHY    C1 3352  44.896   8.413   7.503
 3374AUSL   AUS 3353  46.709   6.875   7.348
 3375AUSL   AUS 3354  46.966   7.222   7.236
 3376AUL    AUL 3355  46.588   7.202   7.196
 3377THSLK    S 3356  46.472   6.989   7.303
 3378ETHY    C1 3357  46.100   7.163   7.101
 3379ETHY    C1 3358  45.614   7.339   6.936
 3380ETHY    C1 3359  45.096   7.471   6.868
 3381ETHY    C1 3360  44.558   7.563   6.890
 3382THSLK    S 3361  46.846   7.389   7.056
 3383ETHY    C1 3362  46.694   7.708   6.765
 3384ETHY    C1 3363  46.440   8.088   6.473
 3385ETHY    C1 3364  46.107   8.456   6.260
 3386ETHY    C1 3365  45.711   8.806   6.122
 3387AUSL   AUS 3366  46.709   6.875   7.651
 3388AUSL   AUS 3367  46.709   6.548   7.348
 3389AUL    AUL 3368  46.401   6.712   7.500
 3390THSLK    S 3369  46.447   6.473   7.384
 3391ETHY    C1 3370  45.997   6.422   7.446
 3392ETHY    C1 3371  45.464   6.319   7.434
 3393ETHY    C1 3372  44.957   6.169   7.327
 3394ETHY    C1 3373  44.484   5.976   7.135
 3395THSLK    S 3374  46.471   6.983   7.699
 3396ETHY    C1 3375  46.100   7.159   7.901
 3397ETHY    C1 3376  45.614   7.338   8.063
 3398ETHY    C1 3377  45.096   7.471   8.133
 3399ETHY    C1 3378  44.557   7.557   8.114
 3400AUSL   AUS 3379  47.962   6.302   7.500
 3401AUSL   AUS 3380  47.892   6.447   7.916
 3402AUL    AUL 3381  48.176   6.221   7.803
 3403THSLK    S 3382  48.183   6.162   7.503
 3404ETHY    C1 3383  48.472   5.807   7.502
 3405ETHY    C1 3384  48.881   5.450   7.500
 3406ETHY    C1 3385  49.351   5.186   7.500
 3407ETHY    C1 3386  49.868   5.010   7.503
 3408THSLK    S 3387  48.029   6.257   8.066
 3409ETHY    C1 3388  48.262   5.940   8.297
 3410ETHY    C1 3389  48.595   5.633   8.598
 3411ETHY    C1 3390  48.975   5.423   8.918
 3412ETHY    C1 3391  49.392   5.307   9.250
 3413AUSL   AUS 3392  48.056   6.548   7.348
 3414AUSL   AUS 3393  47.799   6.201   7.236
 3415AUL    AUL 3394  48.176   6.221   7.196
 3416THSLK    S 3395  48.294   6.411   7.346
 3417ETHY    C1 3396  48.665   6.153   7.279
 3418ETHY    C1 3397  49.150   5.927   7.192
 3419ETHY    C1 3398  49.669   5.807   7.103
 3420ETHY    C1 3399  50.208   5.785   7.018
 3421THSLK    S 3400  47.922   6.010   7.099
 3422ETHY    C1 3401  48.072   5.608   6.942
 3423ETHY    C1 3402  48.325   5.178   6.728
 3424ETHY    C1 3403  48.657   4.822   6.495
 3425ETHY    C1 3404  49.056   4.541   6.249
 3426AUSL   AUS 3405  46.802   6.302   7.500
 3427AUSL   AUS 3406  46.872   6.447   7.083
 3428AUL    AUL 3407  46.588   6.221   7.196
 3429THSLK    S 3408  46.697   6.276   6.966
 3430ETHY    C1 3409  46.335   6.030   6.833
 3431ETHY    C1 3410  45.927   5.767   6.589
 3432ETHY    C1 3411  45.566   5.548   6.255
 3433ETHY    C1 3412  45.254   5.370   5.843
 3434THSLK    S 3413  46.532   6.241   7.503
 3435ETHY    C1 3414  46.086   6.141   7.502
 3436ETHY    C1 3415  45.584   5.935   7.500
 3437ETHY    C1 3416  45.137   5.633   7.500
 3438ETHY    C1 3417  44.749   5.249   7.503
 3439AUSL   AUS 3418  46.709   6.548   7.651
 3440AUSL   AUS 3419  46.966   6.201   7.764
 3441AUL    AUL 3420  46.588   6.221   7.803
 3442THSLK    S 3421  46.778   6.053   7.881
 3443ETHY    C1 3422  46.422   5.777   7.958
 3444ETHY    C1 3423  46.047   5.420   8.122
 3445ETHY    C1 3424  45.746   5.046   8.367
 3446ETHY    C1 3425  45.515   4.664   8.682
 3447THSLK    S 3426  46.446   6.478   7.618
 3448ETHY    C1 3427  45.996   6.426   7.557
 3449ETHY    C1 3428  45.464   6.320   7.566
 3450ETHY    C1 3429  44.957   6.169   7.673
 3451ETHY    C1 3430  44.483   5.981   7.867
 3452AUSL   AUS 3431  47.382   7.292   7.909
 3453AUSL   AUS 3432  46.966   7.222   7.764
 3454AUL    AUL 3433  47.079   7.506   7.991
 3455THSLK    S 3434  46.843   7.384   7.948
 3456ETHY    C1 3435  46.692   7.704   8.237
 3457ETHY    C1 3436  46.439   8.087   8.527
 3458ETHY    C1 3437  46.107   8.455   8.740
 3459ETHY    C1 3438  45.708   8.801   8.881
 3460THSLK    S 3439  47.420   7.523   8.034
 3461ETHY    C1 3440  47.548   7.849   8.327
 3462ETHY    C1 3441  47.625   8.281   8.646
 3463ETHY    C1 3442  47.606   8.746   8.920
 3464ETHY    C1 3443  47.500   9.231   9.147
 3465AUSL   AUS 3444  47.231   7.385   7.663
 3466AUSL   AUS 3445  47.534   7.385   7.336
 3467AUL    AUL 3446  47.382   7.693   7.500
 3468THSLK    S 3447  47.268   7.637   7.772
 3469ETHY    C1 3448  47.341   8.061   7.929
 3470ETHY    C1 3449  47.338   8.577   8.095
 3471ETHY    C1 3450  47.230   9.088   8.229
 3472ETHY    C1 3451  47.026   9.584   8.336
 3473THSLK    S 3452  47.585   7.625   7.237
 3474ETHY    C1 3453  47.798   8.002   7.091
 3475ETHY    C1 3454  47.968   8.491   6.929
 3476ETHY    C1 3455  48.035   9.009   6.792
 3477ETHY    C1 3456  48.006   9.543   6.682
 3478AUSL   AUS 3457  47.534   7.385   7.663
 3479AUSL   AUS 3458  47.647   7.128   8.011
 3480AUL    AUL 3459  47.686   7.506   7.991
 3481THSLK    S 3460  47.820   7.245   8.184
 3482ETHY    C1 3461  48.093   7.386   8.522
 3483ETHY    C1 3462  48.374   7.635   8.915
 3484ETHY    C1 3463  48.590   7.968   9.279
 3485ETHY    C1 3464  48.742   8.373   9.614
 3486THSLK    S 3465  47.584   7.623   7.768
 3487ETHY    C1 3466  47.797   8.002   7.913
 3488ETHY    C1 3467  47.968   8.491   8.072
 3489ETHY    C1 3468  48.035   9.009   8.207
 3490ETHY    C1 3469  48.004   9.542   8.325
 3491AUSL   AUS 3470  47.382   6.131   7.909
 3492AUSL   AUS 3471  47.799   6.201   7.764
 3493AUL    AUL 3472  47.686   5.917   7.991
 3494THSLK    S 3473  47.341   5.874   7.992
 3495ETHY    C1 3474  47.214   5.465   8.152
 3496ETHY    C1 3475  47.140   4.984   8.391
 3497ETHY    C1 3476  47.159   4.532   8.684
 3498ETHY    C1 3477  47.261   4.114   9.021
 3499THSLK    S 3478  47.919   6.011   7.907
 3500ETHY    C1 3479  48.070   5.609   8.062
 3501ETHY    C1 3480  48.325   5.178   8.272
 3502ETHY    C1 3481  48.657   4.822   8.505
 3503ETHY    C1 3482  49.053   4.543   8.758
 3504AUSL   AUS 3483  47.231   6.038   7.663
 3505AUSL   AUS 3484  47.118   6.295   8.011
 3506AUL    AUL 3485  47.079   5.917   7.991
 3507THSLK    S 3486  47.180   5.793   7.744
 3508ETHY    C1 3487  46.967   5.394   7.812
 3509ETHY    C1 3488  46.796   4.891   7.925
 3510ETHY    C1 3489  46.730   4.377   8.072
 3511ETHY    C1 3490  46.759   3.862   8.252
 3512THSLK    S 3491  46.940   6.125   8.136
 3513ETHY    C1 3492  46.668   5.810   8.327
 3514ETHY    C1 3493  46.390   5.459   8.633
 3515ETHY    C1 3494  46.174   5.151   9.019
 3516ETHY    C1 3495  46.018   4.889   9.473
 3517AUSL   AUS 3496  47.534   6.038   7.663
 3518AUSL   AUS 3497  47.231   6.038   7.336
 3519AUL    AUL 3498  47.382   5.730   7.500
 3520THSLK    S 3499  47.181   5.791   7.261
 3521ETHY    C1 3500  46.968   5.393   7.192
 3522ETHY    C1 3501  46.796   4.891   7.076
 3523ETHY    C1 3502  46.730   4.377   6.927
 3524ETHY    C1 3503  46.761   3.860   6.754
 3525THSLK    S 3504  47.495   5.779   7.748
 3526ETHY    C1 3505  47.423   5.334   7.829
 3527ETHY    C1 3506  47.426   4.805   7.948
 3528ETHY    C1 3507  47.535   4.297   8.095
 3529ETHY    C1 3508  47.737   3.819   8.264
 3530AUSL   AUS 3509  47.382   7.292   7.091
 3531AUSL   AUS 3510  47.799   7.222   7.236
 3532AUL    AUL 3511  47.686   7.506   7.009
 3533THSLK    S 3512  47.424   7.526   6.971
 3534ETHY    C1 3513  47.551   7.851   6.676
 3535ETHY    C1 3514  47.625   8.281   6.353
 3536ETHY    C1 3515  47.606   8.746   6.080
 3537ETHY    C1 3516  47.503   9.234   5.857
 3538THSLK    S 3517  47.986   7.347   7.081
 3539ETHY    C1 3518  48.343   7.539   6.869
 3540ETHY    C1 3519  48.718   7.845   6.623
 3541ETHY    C1 3520  49.019   8.232   6.398
 3542ETHY    C1 3521  49.249   8.684   6.197
 3543AUSL   AUS 3522  47.231   7.385   7.336
 3544AUSL   AUS 3523  47.118   7.128   6.990
 3545AUL    AUL 3524  47.079   7.506   7.009
 3546THSLK    S 3525  47.270   7.639   7.233
 3547ETHY    C1 3526  47.342   8.062   7.074
 3548ETHY    C1 3527  47.339   8.578   6.906
 3549ETHY    C1 3528  47.230   9.088   6.770
 3550ETHY    C1 3529  47.028   9.586   6.670
 3551THSLK    S 3530  46.999   7.265   6.800
 3552ETHY    C1 3531  46.903   7.459   6.396
 3553ETHY    C1 3532  46.726   7.737   5.966
 3554ETHY    C1 3533  46.483   8.062   5.611
 3555ETHY    C1 3534  46.187   8.427   5.330
 3556AUSL   AUS 3535  47.382   6.131   7.091
 3557AUSL   AUS 3536  46.966   6.201   7.236
 3558AUL    AUL 3537  47.079   5.917   7.009
 3559THSLK    S 3538  46.781   6.048   7.122
 3560ETHY    C1 3539  46.424   5.774   7.044
 3561ETHY    C1 3540  46.047   5.420   6.878
 3562ETHY    C1 3541  45.745   5.046   6.633
 3563ETHY    C1 3542  45.518   4.659   6.321
 3564THSLK    S 3543  47.344   5.871   7.013
 3565ETHY    C1 3544  47.216   5.463   6.852
 3566ETHY    C1 3545  47.140   4.984   6.609
 3567ETHY    C1 3546  47.159   4.532   6.315
 3568ETHY    C1 3547  47.265   4.111   5.983
 3569AUSL   AUS 3548  47.534   6.038   7.336
 3570AUSL   AUS 3549  47.647   6.295   6.990
 3571AUL    AUL 3550  47.686   5.917   7.009
 3572THSLK    S 3551  47.497   5.778   7.258
 3573ETHY    C1 3552  47.424   5.333   7.175
 3574ETHY    C1 3553  47.426   4.805   7.052
 3575ETHY    C1 3554  47.534   4.297   6.905
 3576ETHY    C1 3555  47.739   3.818   6.742
 3577THSLK    S 3556  47.770   6.105   6.847
 3578ETHY    C1 3557  47.865   5.737   6.592
 3579ETHY    C1 3558  48.039   5.356   6.247
 3580ETHY    C1 3559  48.281   5.056   5.870
 3581ETHY    C1 3560  48.582   4.835   5.471
 3582AUC    AUC 3561  28.465  17.285   7.500
 3583AUC    AUC 3562  28.711  17.285   7.348
 3584AUC    AUC 3563  28.711  17.285   7.651
 3585AUC    AUC 3564  28.220  17.285   7.348
 3586AUC    AUC 3565  28.220  17.285   7.651
 3587AUC    AUC 3566  28.314  17.530   7.500
 3588AUC    AUC 3567  28.617  17.530   7.500
 3589AUC    AUC 3568  28.314  17.039   7.500
 3590AUC    AUC 3569  28.617  17.039   7.500
 3591AUC    AUC 3570  28.465  17.133   7.745
 3592AUC    AUC 3571  28.465  17.436   7.745
 3593AUC    AUC 3572  28.465  17.133   7.254
 3594AUC    AUC 3573  28.465  17.436   7.254
 3595AUC    AUC 3574  28.956  17.285   7.196
 3596AUC    AUC 3575  28.956  17.285   7.500
 3597AUC    AUC 3576  28.956  17.285   7.803
 3598AUC    AUC 3577  27.974  17.285   7.196
 3599AUC    AUC 3578  27.974  17.285   7.500
 3600AUC    AUC 3579  27.974  17.285   7.803
 3601AUC    AUC 3580  28.162  17.775   7.500
 3602AUC    AUC 3581  28.465  17.775   7.500
 3603AUC    AUC 3582  28.769  17.775   7.500
 3604AUC    AUC 3583  28.162  16.794   7.500
 3605AUC    AUC 3584  28.465  16.794   7.500
 3606AUC    AUC 3585  28.769  16.794   7.500
 3607AUC    AUC 3586  28.465  16.981   7.991
 3608AUC    AUC 3587  28.465  17.285   7.991
 3609AUC    AUC 3588  28.465  17.588   7.991
 3610AUC    AUC 3589  28.465  16.981   7.009
 3611AUC    AUC 3590  28.465  17.285   7.009
 3612AUC    AUC 3591  28.465  17.588   7.009
 3613AUC    AUC 3592  28.711  17.133   7.897
 3614AUC    AUC 3593  28.711  17.436   7.897
 3615AUC    AUC 3594  28.711  17.133   7.103
 3616AUC    AUC 3595  28.711  17.436   7.103
 3617AUC    AUC 3596  28.220  17.133   7.897
 3618AUC    AUC 3597  28.220  17.436   7.897
 3619AUC    AUC 3598  28.220  17.133   7.103
 3620AUC    AUC 3599  28.220  17.436   7.103
 3621AUC    AUC 3600  28.862  17.530   7.348
 3622AUC    AUC 3601  28.862  17.530   7.651
 3623AUC    AUC 3602  28.068  17.530   7.348
 3624AUC    AUC 3603  28.068  17.530   7.651
 3625AUC    AUC 3604  28.862  17.039   7.348
 3626AUC    AUC 3605  28.862  17.039   7.651
 3627AUC    AUC 3606  28.068  17.039   7.348
 3628AUC    AUC 3607  28.068  17.039   7.651
 3629AUC    AUC 3608  28.314  17.682   7.745
 3630AUC    AUC 3609  28.617  17.682   7.745
 3631AUC    AUC 3610  28.314  16.887   7.745
 3632AUC    AUC 3611  28.617  16.887   7.745
 3633AUC    AUC 3612  28.314  17.682   7.254
 3634AUC    AUC 3613  28.617  17.682   7.254
 3635AUC    AUC 3614  28.314  16.887   7.254
 3636AUC    AUC 3615  28.617  16.887   7.254
 3637AUSL   AUS 3616  28.874  17.285   8.080
 3638AUSL   AUS 3617  28.730  16.868   8.011
 3639AUL    AUL 3618  28.956  16.981   8.294
 3640THSLK    S 3619  28.848  16.680   8.156
 3641ETHY    C1 3620  28.944  16.312   8.412
 3642ETHY    C1 3621  29.122  15.929   8.753
 3643ETHY    C1 3622  29.364  15.629   9.130
 3644ETHY    C1 3623  29.660  15.410   9.534
 3645THSLK    S 3624  28.973  17.238   8.327
 3646ETHY    C1 3625  29.200  17.088   8.694
 3647ETHY    C1 3626  29.484  17.000   9.148
 3648ETHY    C1 3627  29.768  17.022   9.607
 3649ETHY    C1 3628  30.045  17.144  10.061
 3650AUSL   AUS 3629  28.629  17.133   8.173
 3651AUSL   AUS 3630  28.302  17.436   8.173
 3652AUL    AUL 3631  28.465  17.285   8.482
 3653THSLK    S 3632  28.710  17.082   8.418
 3654ETHY    C1 3633  28.800  16.864   8.810
 3655ETHY    C1 3634  28.928  16.690   9.308
 3656ETHY    C1 3635  29.074  16.625   9.823
 3657ETHY    C1 3636  29.231  16.659  10.346
 3658THSLK    S 3637  28.215  17.396   8.432
 3659ETHY    C1 3638  28.126  17.322   8.874
 3660ETHY    C1 3639  28.002  17.324   9.403
 3661ETHY    C1 3640  27.857  17.433   9.912
 3662ETHY    C1 3641  27.694  17.637  10.392
 3663AUSL   AUS 3642  28.629  17.436   8.173
 3664AUSL   AUS 3643  28.975  17.549   7.916
 3665AUL    AUL 3644  28.956  17.588   8.294
 3666THSLK    S 3645  28.716  17.488   8.416
 3667ETHY    C1 3646  28.804  17.705   8.809
 3668ETHY    C1 3647  28.929  17.878   9.308
 3669ETHY    C1 3648  29.074  17.944   9.823
 3670ETHY    C1 3649  29.237  17.911  10.345
 3671THSLK    S 3650  29.151  17.655   8.079
 3672ETHY    C1 3651  29.513  17.705   8.355
 3673ETHY    C1 3652  29.920  17.854   8.681
 3674ETHY    C1 3653  30.282  18.103   8.995
 3675ETHY    C1 3654  30.594  18.439   9.293
 3676AUSL   AUS 3655  28.874  17.285   6.920
 3677AUSL   AUS 3656  28.730  17.701   6.990
 3678AUL    AUL 3657  28.956  17.588   6.706
 3679THSLK    S 3658  28.978  17.238   6.676
 3680ETHY    C1 3659  29.205  17.088   6.308
 3681ETHY    C1 3660  29.484  17.000   5.851
 3682ETHY    C1 3661  29.768  17.022   5.393
 3683ETHY    C1 3662  30.050  17.144   4.941
 3684THSLK    S 3663  28.907  17.820   6.820
 3685ETHY    C1 3664  29.179  17.961   6.480
 3686ETHY    C1 3665  29.457  18.208   6.085
 3687ETHY    C1 3666  29.673  18.541   5.720
 3688ETHY    C1 3667  29.830  18.948   5.391
 3689AUSL   AUS 3668  28.629  17.133   6.826
 3690AUSL   AUS 3669  28.975  17.020   7.083
 3691AUL    AUL 3670  28.956  16.981   6.706
 3692THSLK    S 3671  29.115  16.829   6.939
 3693ETHY    C1 3672  29.348  16.512   6.707
 3694ETHY    C1 3673  29.678  16.205   6.403
 3695ETHY    C1 3674  30.058  15.996   6.083
 3696ETHY    C1 3675  30.479  15.879   5.754
 3697THSLK    S 3676  28.716  17.081   6.583
 3698ETHY    C1 3677  28.804  16.864   6.191
 3699ETHY    C1 3678  28.929  16.691   5.692
 3700ETHY    C1 3679  29.074  16.625   5.176
 3701ETHY    C1 3680  29.237  16.658   4.656
 3702AUSL   AUS 3681  28.629  17.436   6.826
 3703AUSL   AUS 3682  28.302  17.133   6.826
 3704AUL    AUL 3683  28.465  17.285   6.518
 3705THSLK    S 3684  28.206  17.081   6.586
 3706ETHY    C1 3685  28.067  16.866   6.206
 3707ETHY    C1 3686  27.910  16.695   5.717
 3708ETHY    C1 3687  27.771  16.629   5.199
 3709ETHY    C1 3688  27.655  16.660   4.666
 3710THSLK    S 3689  28.731  17.397   6.572
 3711ETHY    C1 3690  28.868  17.320   6.142
 3712ETHY    C1 3691  29.021  17.320   5.622
 3713ETHY    C1 3692  29.159  17.429   5.112
 3714ETHY    C1 3693  29.282  17.636   4.621
 3715AUSL   AUS 3694  28.056  17.285   8.080
 3716AUSL   AUS 3695  28.201  17.701   8.011
 3717AUL    AUL 3696  27.974  17.588   8.294
 3718THSLK    S 3697  27.952  17.238   8.325
 3719ETHY    C1 3698  27.726  17.088   8.691
 3720ETHY    C1 3699  27.446  17.000   9.148
 3721ETHY    C1 3700  27.163  17.022   9.607
 3722ETHY    C1 3701  26.880  17.144  10.058
 3723THSLK    S 3702  28.078  17.834   8.201
 3724ETHY    C1 3703  27.982  18.029   8.604
 3725ETHY    C1 3704  27.809  18.310   9.034
 3726ETHY    C1 3705  27.566  18.636   9.390
 3727ETHY    C1 3706  27.265  18.995   9.671
 3728AUSL   AUS 3707  28.302  17.133   8.173
 3729AUSL   AUS 3708  27.955  17.020   7.916
 3730AUL    AUL 3709  27.974  16.981   8.294
 3731THSLK    S 3710  27.776  16.854   8.032
 3732ETHY    C1 3711  27.415  16.607   8.166
 3733ETHY    C1 3712  27.010  16.341   8.410
 3734ETHY    C1 3713  26.649  16.121   8.745
 3735ETHY    C1 3714  26.333  15.948   9.156
 3736THSLK    S 3715  28.200  17.083   8.413
 3737ETHY    C1 3716  28.062  16.868   8.793
 3738ETHY    C1 3717  27.909  16.695   9.284
 3739ETHY    C1 3718  27.772  16.629   9.800
 3740ETHY    C1 3719  27.648  16.661  10.332
 3741AUSL   AUS 3720  28.056  17.285   6.920
 3742AUSL   AUS 3721  28.201  16.868   6.990
 3743AUL    AUL 3722  27.974  16.981   6.706
 3744THSLK    S 3723  27.957  17.238   6.673
 3745ETHY    C1 3724  27.730  17.088   6.305
 3746ETHY    C1 3725  27.447  17.000   5.851
 3747ETHY    C1 3726  27.163  17.022   5.393
 3748ETHY    C1 3727  26.886  17.144   4.938
 3749THSLK    S 3728  28.027  16.693   6.865
 3750ETHY    C1 3729  27.755  16.380   6.673
 3751ETHY    C1 3730  27.474  16.032   6.367
 3752ETHY    C1 3731  27.257  15.724   5.980
 3753ETHY    C1 3732  27.105  15.457   5.528
 3754AUSL   AUS 3733  28.302  17.436   6.826
 3755AUSL   AUS 3734  27.955  17.549   7.083
 3756AUL    AUL 3735  27.974  17.588   6.706
 3757THSLK    S 3736  27.819  17.680   6.893
 3758ETHY    C1 3737  27.585  17.801   6.518
 3759ETHY    C1 3738  27.253  17.989   6.132
 3760ETHY    C1 3739  26.873  18.228   5.833
 3761ETHY    C1 3740  26.456  18.508   5.618
 3762THSLK    S 3741  28.221  17.398   6.566
 3763ETHY    C1 3742  28.131  17.323   6.124
 3764ETHY    C1 3743  28.003  17.324   5.597
 3765ETHY    C1 3744  27.857  17.433   5.089
 3766ETHY    C1 3745  27.700  17.639   4.608
 3767AUSL   AUS 3746  29.045  17.694   7.500
 3768AUSL   AUS 3747  28.975  17.549   7.083
 3769AUL    AUL 3748  29.259  17.775   7.196
 3770THSLK    S 3749  29.155  17.656   6.925
 3771ETHY    C1 3750  29.516  17.706   6.648
 3772ETHY    C1 3751  29.920  17.854   6.319
 3773ETHY    C1 3752  30.282  18.103   6.005
 3774ETHY    C1 3753  30.598  18.440   5.713
 3775THSLK    S 3754  29.315  17.755   7.503
 3776ETHY    C1 3755  29.762  17.855   7.502
 3777ETHY    C1 3756  30.264  18.061   7.500
 3778ETHY    C1 3757  30.711  18.363   7.500
 3779ETHY    C1 3758  31.099  18.747   7.503
 3780AUSL   AUS 3759  29.139  17.448   7.348
 3781AUSL   AUS 3760  29.139  17.121   7.651
 3782AUL    AUL 3761  29.447  17.285   7.500
 3783THSLK    S 3762  29.401  17.495   7.345
 3784ETHY    C1 3763  29.851  17.464   7.270
 3785ETHY    C1 3764  30.383  17.519   7.179
 3786ETHY    C1 3765  30.890  17.682   7.091
 3787ETHY    C1 3766  31.365  17.940   7.011
 3788THSLK    S 3767  29.376  16.984   7.659
 3789ETHY    C1 3768  29.747  16.726   7.726
 3790ETHY    C1 3769  30.233  16.500   7.808
 3791ETHY    C1 3770  30.752  16.380   7.896
 3792ETHY    C1 3771  31.290  16.358   7.989
 3793AUSL   AUS 3772  29.139  17.448   7.651
 3794AUSL   AUS 3773  28.882  17.795   7.764
 3795AUL    AUL 3774  29.259  17.775   7.803
 3796THSLK    S 3775  29.067  17.919   7.924
 3797ETHY    C1 3776  29.424  18.111   8.136
 3798ETHY    C1 3777  29.801  18.418   8.377
 3799ETHY    C1 3778  30.102  18.805   8.602
 3800ETHY    C1 3779  30.329  19.256   8.809
 3801THSLK    S 3780  29.400  17.494   7.661
 3802ETHY    C1 3781  29.851  17.464   7.734
 3803ETHY    C1 3782  30.384  17.519   7.821
 3804ETHY    C1 3783  30.890  17.682   7.908
 3805ETHY    C1 3784  31.364  17.940   7.995
 3806AUSL   AUS 3785  27.885  17.694   7.500
 3807AUSL   AUS 3786  27.955  17.549   7.916
 3808AUL    AUL 3787  27.671  17.775   7.803
 3809THSLK    S 3788  27.815  17.675   8.107
 3810ETHY    C1 3789  27.582  17.796   8.482
 3811ETHY    C1 3790  27.253  17.989   8.868
 3812ETHY    C1 3791  26.873  18.228   9.166
 3813ETHY    C1 3792  26.452  18.503   9.381
 3814THSLK    S 3793  27.664  17.834   7.503
 3815ETHY    C1 3794  27.375  18.189   7.502
 3816ETHY    C1 3795  26.967  18.546   7.500
 3817ETHY    C1 3796  26.497  18.810   7.500
 3818ETHY    C1 3797  25.979  18.986   7.503
 3819AUSL   AUS 3798  27.792  17.448   7.348
 3820AUSL   AUS 3799  28.049  17.795   7.236
 3821AUL    AUL 3800  27.671  17.775   7.196
 3822THSLK    S 3801  27.555  17.562   7.303
 3823ETHY    C1 3802  27.183  17.736   7.101
 3824ETHY    C1 3803  26.697  17.912   6.936
 3825ETHY    C1 3804  26.179  18.044   6.868
 3826ETHY    C1 3805  25.641  18.136   6.890
 3827THSLK    S 3806  27.929  17.962   7.056
 3828ETHY    C1 3807  27.777  18.281   6.765
 3829ETHY    C1 3808  27.523  18.661   6.473
 3830ETHY    C1 3809  27.190  19.029   6.260
 3831ETHY    C1 3810  26.794  19.379   6.122
 3832AUSL   AUS 3811  27.792  17.448   7.651
 3833AUSL   AUS 3812  27.792  17.121   7.348
 3834AUL    AUL 3813  27.484  17.285   7.500
 3835THSLK    S 3814  27.530  17.046   7.384
 3836ETHY    C1 3815  27.080  16.995   7.446
 3837ETHY    C1 3816  26.547  16.892   7.434
 3838ETHY    C1 3817  26.040  16.742   7.327
 3839ETHY    C1 3818  25.567  16.549   7.135
 3840THSLK    S 3819  27.554  17.556   7.699
 3841ETHY    C1 3820  27.183  17.732   7.901
 3842ETHY    C1 3821  26.697  17.911   8.063
 3843ETHY    C1 3822  26.179  18.044   8.133
 3844ETHY    C1 3823  25.640  18.130   8.114
 3845AUSL   AUS 3824  29.045  16.875   7.500
 3846AUSL   AUS 3825  28.975  17.020   7.916
 3847AUL    AUL 3826  29.259  16.794   7.803
 3848THSLK    S 3827  29.266  16.735   7.503
 3849ETHY    C1 3828  29.555  16.380   7.502
 3850ETHY    C1 3829  29.964  16.023   7.500
 3851ETHY    C1 3830  30.434  15.759   7.500
 3852ETHY    C1 3831  30.951  15.583   7.503
 3853THSLK    S 3832  29.112  16.830   8.066
 3854ETHY    C1 3833  29.345  16.513   8.297
 3855ETHY    C1 3834  29.678  16.206   8.598
 3856ETHY    C1 3835  30.058  15.996   8.918
 3857ETHY    C1 3836  30.475  15.880   9.250
 3858AUSL   AUS 3837  29.139  17.121   7.348
 3859AUSL   AUS 3838  28.882  16.774   7.236
 3860AUL    AUL 3839  29.259  16.794   7.196
 3861THSLK    S 3840  29.377  16.984   7.346
 3862ETHY    C1 3841  29.748  16.726   7.279
 3863ETHY    C1 3842  30.233  16.500   7.192
 3864ETHY    C1 3843  30.752  16.380   7.103
 3865ETHY    C1 3844  31.291  16.358   7.018
 3866THSLK    S 3845  29.005  16.583   7.099
 3867ETHY    C1 3846  29.155  16.181   6.942
 3868ETHY    C1 3847  29.408  15.751   6.728
 3869ETHY    C1 3848  29.740  15.395   6.495
 3870ETHY    C1 3849  30.139  15.114   6.249
 3871AUSL   AUS 3850  27.885  16.875   7.500
 3872AUSL   AUS 3851  27.955  17.020   7.083
 3873AUL    AUL 3852  27.671  16.794   7.196
 3874THSLK    S 3853  27.780  16.849   6.966
 3875ETHY    C1 3854  27.418  16.603   6.833
 3876ETHY    C1 3855  27.010  16.340   6.589
 3877ETHY    C1 3856  26.649  16.121   6.255
 3878ETHY    C1 3857  26.337  15.943   5.843
 3879THSLK    S 3858  27.615  16.814   7.503
 3880ETHY    C1 3859  27.169  16.714   7.502
 3881ETHY    C1 3860  26.667  16.508   7.500
 3882ETHY    C1 3861  26.220  16.206   7.500
 3883ETHY    C1 3862  25.832  15.822   7.503
 3884AUSL   AUS 3863  27.792  17.121   7.651
 3885AUSL   AUS 3864  28.049  16.774   7.764
 3886AUL    AUL 3865  27.671  16.794   7.803
 3887THSLK    S 3866  27.861  16.626   7.881
 3888ETHY    C1 3867  27.505  16.350   7.958
 3889ETHY    C1 3868  27.130  15.993   8.122
 3890ETHY    C1 3869  26.829  15.619   8.367
 3891ETHY    C1 3870  26.598  15.237   8.682
 3892THSLK    S 3871  27.529  17.051   7.618
 3893ETHY    C1 3872  27.079  16.999   7.557
 3894ETHY    C1 3873  26.547  16.893   7.566
 3895ETHY    C1 3874  26.040  16.742   7.673
 3896ETHY    C1 3875  25.566  16.554   7.867
 3897AUSL   AUS 3876  28.465  17.865   7.909
 3898AUSL   AUS 3877  28.049  17.795   7.764
 3899AUL    AUL 3878  28.162  18.079   7.991
 3900THSLK    S 3879  27.926  17.957   7.948
 3901ETHY    C1 3880  27.775  18.277   8.237
 3902ETHY    C1 3881  27.522  18.660   8.527
 3903ETHY    C1 3882  27.190  19.028   8.740
 3904ETHY    C1 3883  26.791  19.374   8.881
 3905THSLK    S 3884  28.503  18.096   8.034
 3906ETHY    C1 3885  28.631  18.422   8.327
 3907ETHY    C1 3886  28.708  18.854   8.646
 3908ETHY    C1 3887  28.689  19.319   8.920
 3909ETHY    C1 3888  28.583  19.804   9.147
 3910AUSL   AUS 3889  28.314  17.958   7.663
 3911AUSL   AUS 3890  28.617  17.958   7.336
 3912AUL    AUL 3891  28.465  18.266   7.500
 3913THSLK    S 3892  28.351  18.210   7.772
 3914ETHY    C1 3893  28.424  18.634   7.929
 3915ETHY    C1 3894  28.421  19.150   8.095
 3916ETHY    C1 3895  28.313  19.661   8.229
 3917ETHY    C1 3896  28.109  20.157   8.336
 3918THSLK    S 3897  28.668  18.198   7.237
 3919ETHY    C1 3898  28.881  18.575   7.091
 3920ETHY    C1 3899  29.051  19.064   6.929
 3921ETHY    C1 3900  29.118  19.582   6.792
 3922ETHY    C1 3901  29.089  20.116   6.682
 3923AUSL   AUS 3902  28.617  17.958   7.663
 3924AUSL   AUS 3903  28.730  17.701   8.011
 3925AUL    AUL 3904  28.769  18.079   7.991
 3926THSLK    S 3905  28.903  17.818   8.184
 3927ETHY    C1 3906  29.176  17.959   8.522
 3928ETHY    C1 3907  29.457  18.208   8.915
 3929ETHY    C1 3908  29.673  18.541   9.279
 3930ETHY    C1 3909  29.825  18.946   9.614
 3931THSLK    S 3910  28.667  18.196   7.768
 3932ETHY    C1 3911  28.880  18.575   7.913
 3933ETHY    C1 3912  29.051  19.064   8.072
 3934ETHY    C1 3913  29.118  19.582   8.207
 3935ETHY    C1 3914  29.087  20.115   8.325
 3936AUSL   AUS 3915  28.465  16.704   7.909
 3937AUSL   AUS 3916  28.882  16.774   7.764
 3938AUL    AUL 3917  28.769  16.490   7.991
 3939THSLK    S 3918  28.424  16.447   7.992
 3940ETHY    C1 3919  28.297  16.038   8.152
 3941ETHY    C1 3920  28.223  15.557   8.391
 3942ETHY    C1 3921  28.242  15.105   8.684
 3943ETHY    C1 3922  28.344  14.687   9.021
 3944THSLK    S 3923  29.002  16.584   7.907
 3945ETHY    C1 3924  29.153  16.182   8.062
 3946ETHY    C1 3925  29.408  15.751   8.272
 3947ETHY    C1 3926  29.740  15.395   8.505
 3948ETHY    C1 3927  30.136  15.116   8.758
 3949AUSL   AUS 3928  28.314  16.611   7.663
 3950AUSL   AUS 3929  28.201  16.868   8.011
 3951AUL    AUL 3930  28.162  16.490   7.991
 3952THSLK    S 3931  28.263  16.366   7.744
 3953ETHY    C1 3932  28.050  15.967   7.812
 3954ETHY    C1 3933  27.879  15.464   7.925
 3955ETHY    C1 3934  27.813  14.950   8.072
 3956ETHY    C1 3935  27.842  14.435   8.252
 3957THSLK    S 3936  28.023  16.698   8.136
 3958ETHY    C1 3937  27.751  16.383   8.327
 3959ETHY    C1 3938  27.473  16.032   8.633
 3960ETHY    C1 3939  27.257  15.724   9.019
 3961ETHY    C1 3940  27.101  15.462   9.473
 3962AUSL   AUS 3941  28.617  16.611   7.663
 3963AUSL   AUS 3942  28.314  16.611   7.336
 3964AUL    AUL 3943  28.465  16.303   7.500
 3965THSLK    S 3944  28.264  16.364   7.261
 3966ETHY    C1 3945  28.051  15.966   7.192
 3967ETHY    C1 3946  27.879  15.464   7.076
 3968ETHY    C1 3947  27.813  14.950   6.927
 3969ETHY    C1 3948  27.844  14.433   6.754
 3970THSLK    S 3949  28.578  16.352   7.748
 3971ETHY    C1 3950  28.506  15.907   7.829
 3972ETHY    C1 3951  28.509  15.378   7.948
 3973ETHY    C1 3952  28.618  14.870   8.095
 3974ETHY    C1 3953  28.820  14.392   8.264
 3975AUSL   AUS 3954  28.465  17.865   7.091
 3976AUSL   AUS 3955  28.882  17.795   7.236
 3977AUL    AUL 3956  28.769  18.079   7.009
 3978THSLK    S 3957  28.507  18.099   6.971
 3979ETHY    C1 3958  28.634  18.424   6.676
 3980ETHY    C1 3959  28.708  18.854   6.353
 3981ETHY    C1 3960  28.689  19.319   6.080
 3982ETHY    C1 3961  28.586  19.807   5.857
 3983THSLK    S 3962  29.069  17.920   7.081
 3984ETHY    C1 3963  29.426  18.112   6.869
 3985ETHY    C1 3964  29.801  18.418   6.623
 3986ETHY    C1 3965  30.102  18.805   6.398
 3987ETHY    C1 3966  30.332  19.257   6.197
 3988AUSL   AUS 3967  28.314  17.958   7.336
 3989AUSL   AUS 3968  28.201  17.701   6.990
 3990AUL    AUL 3969  28.162  18.079   7.009
 3991THSLK    S 3970  28.353  18.212   7.233
 3992ETHY    C1 3971  28.425  18.635   7.074
 3993ETHY    C1 3972  28.422  19.151   6.906
 3994ETHY    C1 3973  28.313  19.661   6.770
 3995ETHY    C1 3974  28.111  20.159   6.670
 3996THSLK    S 3975  28.082  17.838   6.800
 3997ETHY    C1 3976  27.986  18.032   6.396
 3998ETHY    C1 3977  27.809  18.310   5.966
 3999ETHY    C1 3978  27.566  18.635   5.611
 4000ETHY    C1 3979  27.270  19.000   5.330
 4001AUSL   AUS 3980  28.465  16.704   7.091
 4002AUSL   AUS 3981  28.049  16.774   7.236
 4003AUL    AUL 3982  28.162  16.490   7.009
 4004THSLK    S 3983  27.864  16.621   7.122
 4005ETHY    C1 3984  27.507  16.347   7.044
 4006ETHY    C1 3985  27.130  15.993   6.878
 4007ETHY    C1 3986  26.828  15.619   6.633
 4008ETHY    C1 3987  26.601  15.232   6.321
 4009THSLK    S 3988  28.427  16.444   7.013
 4010ETHY    C1 3989  28.299  16.036   6.852
 4011ETHY    C1 3990  28.223  15.557   6.609
 4012ETHY    C1 3991  28.242  15.105   6.315
 4013ETHY    C1 3992  28.348  14.684   5.983
 4014AUSL   AUS 3993  28.617  16.611   7.336
 4015AUSL   AUS 3994  28.730  16.868   6.990
 4016AUL    AUL 3995  28.769  16.490   7.009
 4017THSLK    S 3996  28.580  16.351   7.258
 4018ETHY    C1 3997  28.507  15.906   7.175
 4019ETHY    C1 3998  28.509  15.378   7.052
 4020ETHY    C1 3999  28.617  14.870   6.905
 4021ETHY    C1 4000  28.822  14.391   6.742
 4022THSLK    S 4001  28.853  16.678   6.847
 4023ETHY    C1 4002  28.948  16.310   6.592
 4024ETHY    C1 4003  29.122  15.929   6.247
 4025ETHY    C1 4004  29.364  15.629   5.870
 4026ETHY    C1 4005  29.665  15.408   5.471
 4027AUC    AUC 4006  12.954   1.196   7.500
 4028AUC    AUC 4007  13.200   1.196   7.348
 4029AUC    AUC 4008  13.200   1.196   7.651
 4030AUC    AUC 4009  12.709   1.196   7.348
 4031AUC    AUC 4010  12.709   1.196   7.651
 4032AUC    AUC 4011  12.803   1.441   7.500
 4033AUC    AUC 4012  13.106   1.441   7.500
 4034AUC    AUC 4013  12.803   0.950   7.500
 4035AUC    AUC 4014  13.106   0.950   7.500
 4036AUC    AUC 4015  12.954   1.044   7.745
 4037AUC    AUC 4016  12.954   1.347   7.745
 4038AUC    AUC 4017  12.954   1.044   7.254
 4039AUC    AUC 4018  12.954   1.347   7.254
 4040AUC    AUC 4019  13.445   1.196   7.196
 4041AUC    AUC 4020  13.445   1.196   7.500
 4042AUC    AUC 4021  13.445   1.196   7.803
 4043AUC    AUC 4022  12.463   1.196   7.196
 4044AUC    AUC 4023  12.463   1.196   7.500
 4045AUC    AUC 4024  12.463   1.196   7.803
 4046AUC    AUC 4025  12.651   1.686   7.500
 4047AUC    AUC 4026  12.954   1.686   7.500
 4048AUC    AUC 4027  13.258   1.686   7.500
 4049AUC    AUC 4028  12.651   0.705   7.500
 4050AUC    AUC 4029  12.954   0.705   7.500
 4051AUC    AUC 4030  13.258   0.705   7.500
 4052AUC    AUC 4031  12.954   0.892   7.991
 4053AUC    AUC 4032  12.954   1.196   7.991
 4054AUC    AUC 4033  12.954   1.499   7.991
 4055AUC    AUC 4034  12.954   0.892   7.009
 4056AUC    AUC 4035  12.954   1.196   7.009
 4057AUC    AUC 4036  12.954   1.499   7.009
 4058AUC    AUC 4037  13.200   1.044   7.897
 4059AUC    AUC 4038  13.200   1.347   7.897
 4060AUC    AUC 4039  13.200   1.044   7.103
 4061AUC    AUC 4040  13.200   1.347   7.103
 4062AUC    AUC 4041  12.709   1.044   7.897
 4063AUC    AUC 4042  12.709   1.347   7.897
 4064AUC    AUC 4043  12.709   1.044   7.103
 4065AUC    AUC 4044  12.709   1.347   7.103
 4066AUC    AUC 4045  13.351   1.441   7.348
 4067AUC    AUC 4046  13.351   1.441   7.651
 4068AUC    AUC 4047  12.557   1.441   7.348
 4069AUC    AUC 4048  12.557   1.441   7.651
 4070AUC    AUC 4049  13.351   0.950   7.348
 4071AUC    AUC 4050  13.351   0.950   7.651
 4072AUC    AUC 4051  12.557   0.950   7.348
 4073AUC    AUC 4052  12.557   0.950   7.651
 4074AUC    AUC 4053  12.803   1.593   7.745
 4075AUC    AUC 4054  13.106   1.593   7.745
 4076AUC    AUC 4055  12.803   0.798   7.745
 4077AUC    AUC 4056  13.106   0.798   7.745
 4078AUC    AUC 4057  12.803   1.593   7.254
 4079AUC    AUC 4058  13.106   1.593   7.254
 4080AUC    AUC 4059  12.803   0.798   7.254
 4081AUC    AUC 4060  13.106   0.798   7.254
 4082AUSL   AUS 4061  13.363   1.196   8.080
 4083AUSL   AUS 4062  13.219   0.779   8.011
 4084AUL    AUL 4063  13.445   0.892   8.294
 4085THSLK    S 4064  13.337   0.591   8.156
 4086ETHY    C1 4065  13.433   0.223   8.412
 4087ETHY    C1 4066  13.611  -0.160   8.753
 4088ETHY    C1 4067  13.853  -0.460   9.130
 4089ETHY    C1 4068  14.149  -0.679   9.534
 4090THSLK    S 4069  13.462   1.149   8.327
 4091ETHY    C1 4070  13.689   0.999   8.694
 4092ETHY    C1 4071  13.973   0.911   9.148
 4093ETHY    C1 4072  14.257   0.933   9.607
 4094ETHY    C1 4073  14.534   1.055  10.061
 4095AUSL   AUS 4074  13.118   1.044   8.173
 4096AUSL   AUS 4075  12.791   1.347   8.173
 4097AUL    AUL 4076  12.954   1.196   8.482
 4098THSLK    S 4077  13.199   0.993   8.418
 4099ETHY    C1 4078  13.289   0.775   8.810
 4100ETHY    C1 4079  13.417   0.601   9.308
 4101ETHY    C1 4080  13.563   0.536   9.823
 4102ETHY    C1 4081  13.720   0.570  10.346
 4103THSLK    S 4082  12.704   1.307   8.432
 4104ETHY    C1 4083  12.615   1.233   8.874
 4105ETHY    C1 4084  12.491   1.235   9.403
 4106ETHY    C1 4085  12.346   1.344   9.912
 4107ETHY    C1 4086  12.183   1.548  10.392
 4108AUSL   AUS 4087  13.118   1.347   8.173
 4109AUSL   AUS 4088  13.464   1.460   7.916
 4110AUL    AUL 4089  13.445   1.499   8.294
 4111THSLK    S 4090  13.205   1.399   8.416
 4112ETHY    C1 4091  13.293   1.616   8.809
 4113ETHY    C1 4092  13.418   1.789   9.308
 4114ETHY    C1 4093  13.563   1.855   9.823
 4115ETHY    C1 4094  13.726   1.822  10.345
 4116THSLK    S 4095  13.640   1.566   8.079
 4117ETHY    C1 4096  14.002   1.616   8.355
 4118ETHY    C1 4097  14.409   1.765   8.681
 4119ETHY    C1 4098  14.771   2.014   8.995
 4120ETHY    C1 4099  15.083   2.350   9.293
 4121AUSL   AUS 4100  13.363   1.196   6.920
 4122AUSL   AUS 4101  13.219   1.612   6.990
 4123AUL    AUL 4102  13.445   1.499   6.706
 4124THSLK    S 4103  13.467   1.149   6.676
 4125ETHY    C1 4104  13.694   0.999   6.308
 4126ETHY    C1 4105  13.973   0.911   5.851
 4127ETHY    C1 4106  14.257   0.933   5.393
 4128ETHY    C1 4107  14.539   1.055   4.941
 4129THSLK    S 4108  13.396   1.731   6.820
 4130ETHY    C1 4109  13.668   1.872   6.480
 4131ETHY    C1 4110  13.946   2.119   6.085
 4132ETHY    C1 4111  14.162   2.452   5.720
 4133ETHY    C1 4112  14.319   2.859   5.391
 4134AUSL   AUS 4113  13.118   1.044   6.826
 4135AUSL   AUS 4114  13.464   0.931   7.083
 4136AUL    AUL 4115  13.445   0.892   6.706
 4137THSLK    S 4116  13.604   0.740   6.939
 4138ETHY    C1 4117  13.837   0.423   6.707
 4139ETHY    C1 4118  14.167   0.116   6.403
 4140ETHY    C1 4119  14.547  -0.093   6.083
 4141ETHY    C1 4120  14.968  -0.210   5.754
 4142THSLK    S 4121  13.205   0.992   6.583
 4143ETHY    C1 4122  13.293   0.775   6.191
 4144ETHY    C1 4123  13.418   0.602   5.692
 4145ETHY    C1 4124  13.563   0.536   5.176
 4146ETHY    C1 4125  13.726   0.569   4.656
 4147AUSL   AUS 4126  13.118   1.347   6.826
 4148AUSL   AUS 4127  12.791   1.044   6.826
 4149AUL    AUL 4128  12.954   1.196   6.518
 4150THSLK    S 4129  12.695   0.992   6.586
 4151ETHY    C1 4130  12.556   0.777   6.206
 4152ETHY    C1 4131  12.399   0.606   5.717
 4153ETHY    C1 4132  12.260   0.540   5.199
 4154ETHY    C1 4133  12.144   0.571   4.666
 4155THSLK    S 4134  13.220   1.308   6.572
 4156ETHY    C1 4135  13.357   1.231   6.142
 4157ETHY    C1 4136  13.510   1.231   5.622
 4158ETHY    C1 4137  13.648   1.340   5.112
 4159ETHY    C1 4138  13.771   1.547   4.621
 4160AUSL   AUS 4139  12.545   1.196   8.080
 4161AUSL   AUS 4140  12.690   1.612   8.011
 4162AUL    AUL 4141  12.463   1.499   8.294
 4163THSLK    S 4142  12.441   1.149   8.325
 4164ETHY    C1 4143  12.215   0.999   8.691
 4165ETHY    C1 4144  11.935   0.911   9.148
 4166ETHY    C1 4145  11.652   0.933   9.607
 4167ETHY    C1 4146  11.369   1.055  10.058
 4168THSLK    S 4147  12.567   1.745   8.201
 4169ETHY    C1 4148  12.471   1.940   8.604
 4170ETHY    C1 4149  12.298   2.221   9.034
 4171ETHY    C1 4150  12.055   2.547   9.390
 4172ETHY    C1 4151  11.754   2.906   9.671
 4173AUSL   AUS 4152  12.791   1.044   8.173
 4174AUSL   AUS 4153  12.444   0.931   7.916
 4175AUL    AUL 4154  12.463   0.892   8.294
 4176THSLK    S 4155  12.265   0.765   8.032
 4177ETHY    C1 4156  11.904   0.518   8.166
 4178ETHY    C1 4157  11.499   0.252   8.410
 4179ETHY    C1 4158  11.138   0.032   8.745
 4180ETHY    C1 4159  10.822  -0.141   9.156
 4181THSLK    S 4160  12.689   0.994   8.413
 4182ETHY    C1 4161  12.551   0.779   8.793
 4183ETHY    C1 4162  12.398   0.606   9.284
 4184ETHY    C1 4163  12.261   0.540   9.800
 4185ETHY    C1 4164  12.137   0.572  10.332
 4186AUSL   AUS 4165  12.545   1.196   6.920
 4187AUSL   AUS 4166  12.690   0.779   6.990
 4188AUL    AUL 4167  12.463   0.892   6.706
 4189THSLK    S 4168  12.446   1.149   6.673
 4190ETHY    C1 4169  12.219   0.999   6.305
 4191ETHY    C1 4170  11.936   0.911   5.851
 4192ETHY    C1 4171  11.652   0.933   5.393
 4193ETHY    C1 4172  11.375   1.055   4.938
 4194THSLK    S 4173  12.516   0.604   6.865
 4195ETHY    C1 4174  12.244   0.291   6.673
 4196ETHY    C1 4175  11.963  -0.057   6.367
 4197ETHY    C1 4176  11.746  -0.365   5.980
 4198ETHY    C1 4177  11.594  -0.632   5.528
 4199AUSL   AUS 4178  12.791   1.347   6.826
 4200AUSL   AUS 4179  12.444   1.460   7.083
 4201AUL    AUL 4180  12.463   1.499   6.706
 4202THSLK    S 4181  12.308   1.591   6.893
 4203ETHY    C1 4182  12.074   1.712   6.518
 4204ETHY    C1 4183  11.742   1.900   6.132
 4205ETHY    C1 4184  11.362   2.139   5.833
 4206ETHY    C1 4185  10.945   2.419   5.618
 4207THSLK    S 4186  12.710   1.309   6.566
 4208ETHY    C1 4187  12.620   1.234   6.124
 4209ETHY    C1 4188  12.492   1.235   5.597
 4210ETHY    C1 4189  12.346   1.344   5.089
 4211ETHY    C1 4190  12.189   1.550   4.608
 4212AUSL   AUS 4191  13.534   1.605   7.500
 4213AUSL   AUS 4192  13.464   1.460   7.083
 4214AUL    AUL 4193  13.748   1.686   7.196
 4215THSLK    S 4194  13.644   1.567   6.925
 4216ETHY    C1 4195  14.005   1.617   6.648
 4217ETHY    C1 4196  14.409   1.765   6.319
 4218ETHY    C1 4197  14.771   2.014   6.005
 4219ETHY    C1 4198  15.087   2.351   5.713
 4220THSLK    S 4199  13.804   1.666   7.503
 4221ETHY    C1 4200  14.251   1.766   7.502
 4222ETHY    C1 4201  14.753   1.972   7.500
 4223ETHY    C1 4202  15.200   2.274   7.500
 4224ETHY    C1 4203  15.588   2.658   7.503
 4225AUSL   AUS 4204  13.628   1.359   7.348
 4226AUSL   AUS 4205  13.628   1.032   7.651
 4227AUL    AUL 4206  13.936   1.196   7.500
 4228THSLK    S 4207  13.890   1.406   7.345
 4229ETHY    C1 4208  14.340   1.375   7.270
 4230ETHY    C1 4209  14.872   1.430   7.179
 4231ETHY    C1 4210  15.379   1.593   7.091
 4232ETHY    C1 4211  15.854   1.851   7.011
 4233THSLK    S 4212  13.865   0.895   7.659
 4234ETHY    C1 4213  14.236   0.637   7.726
 4235ETHY    C1 4214  14.722   0.411   7.808
 4236ETHY    C1 4215  15.241   0.291   7.896
 4237ETHY    C1 4216  15.779   0.269   7.989
 4238AUSL   AUS 4217  13.628   1.359   7.651
 4239AUSL   AUS 4218  13.371   1.706   7.764
 4240AUL    AUL 4219  13.748   1.686   7.803
 4241THSLK    S 4220  13.556   1.830   7.924
 4242ETHY    C1 4221  13.913   2.022   8.136
 4243ETHY    C1 4222  14.290   2.329   8.377
 4244ETHY    C1 4223  14.591   2.716   8.602
 4245ETHY    C1 4224  14.818   3.167   8.809
 4246THSLK    S 4225  13.889   1.405   7.661
 4247ETHY    C1 4226  14.340   1.375   7.734
 4248ETHY    C1 4227  14.873   1.430   7.821
 4249ETHY    C1 4228  15.379   1.593   7.908
 4250ETHY    C1 4229  15.853   1.851   7.995
 4251AUSL   AUS 4230  12.374   1.605   7.500
 4252AUSL   AUS 4231  12.444   1.460   7.916
 4253AUL    AUL 4232  12.160   1.686   7.803
 4254THSLK    S 4233  12.304   1.586   8.107
 4255ETHY    C1 4234  12.071   1.707   8.482
 4256ETHY    C1 4235  11.742   1.900   8.868
 4257ETHY    C1 4236  11.362   2.139   9.166
 4258ETHY    C1 4237  10.941   2.414   9.381
 4259THSLK    S 4238  12.153   1.745   7.503
 4260ETHY    C1 4239  11.864   2.100   7.502
 4261ETHY    C1 4240  11.456   2.457   7.500
 4262ETHY    C1 4241  10.986   2.721   7.500
 4263ETHY    C1 4242  10.468   2.897   7.503
 4264AUSL   AUS 4243  12.281   1.359   7.348
 4265AUSL   AUS 4244  12.538   1.706   7.236
 4266AUL    AUL 4245  12.160   1.686   7.196
 4267THSLK    S 4246  12.044   1.473   7.303
 4268ETHY    C1 4247  11.672   1.647   7.101
 4269ETHY    C1 4248  11.186   1.823   6.936
 4270ETHY    C1 4249  10.668   1.955   6.868
 4271ETHY    C1 4250  10.130   2.047   6.890
 4272THSLK    S 4251  12.418   1.873   7.056
 4273ETHY    C1 4252  12.266   2.192   6.765
 4274ETHY    C1 4253  12.012   2.572   6.473
 4275ETHY    C1 4254  11.679   2.940   6.260
 4276ETHY    C1 4255  11.283   3.290   6.122
 4277AUSL   AUS 4256  12.281   1.359   7.651
 4278AUSL   AUS 4257  12.281   1.032   7.348
 4279AUL    AUL 4258  11.973   1.196   7.500
 4280THSLK    S 4259  12.019   0.957   7.384
 4281ETHY    C1 4260  11.569   0.906   7.446
 4282ETHY    C1 4261  11.036   0.803   7.434
 4283ETHY    C1 4262  10.529   0.653   7.327
 4284ETHY    C1 4263  10.056   0.460   7.135
 4285THSLK    S 4264  12.043   1.467   7.699
 4286ETHY    C1 4265  11.672   1.643   7.901
 4287ETHY    C1 4266  11.186   1.822   8.063
 4288ETHY    C1 4267  10.668   1.955   8.133
 4289ETHY    C1 4268  10.129   2.041   8.114
 4290AUSL   AUS 4269  13.534   0.786   7.500
 4291AUSL   AUS 4270  13.464   0.931   7.916
 4292AUL    AUL 4271  13.748   0.705   7.803
 4293THSLK    S 4272  13.755   0.646   7.503
 4294ETHY    C1 4273  14.044   0.291   7.502
 4295ETHY    C1 4274  14.453  -0.066   7.500
 4296ETHY    C1 4275  14.923  -0.330   7.500
 4297ETHY    C1 4276  15.440  -0.506   7.503
 4298THSLK    S 4277  13.601   0.741   8.066
 4299ETHY    C1 4278  13.834   0.424   8.297
 4300ETHY    C1 4279  14.167   0.117   8.598
 4301ETHY    C1 4280  14.547  -0.093   8.918
 4302ETHY    C1 4281  14.964  -0.209   9.250
 4303AUSL   AUS 4282  13.628   1.032   7.348
 4304AUSL   AUS 4283  13.371   0.685   7.236
 4305AUL    AUL 4284  13.748   0.705   7.196
 4306THSLK    S 4285  13.866   0.895   7.346
 4307ETHY    C1 4286  14.237   0.637   7.279
 4308ETHY    C1 4287  14.722   0.411   7.192
 4309ETHY    C1 4288  15.241   0.291   7.103
 4310ETHY    C1 4289  15.780   0.269   7.018
 4311THSLK    S 4290  13.494   0.494   7.099
 4312ETHY    C1 4291  13.644   0.092   6.942
 4313ETHY    C1 4292  13.897  -0.338   6.728
 4314ETHY    C1 4293  14.229  -0.694   6.495
 4315ETHY    C1 4294  14.628  -0.975   6.249
 4316AUSL   AUS 4295  12.374   0.786   7.500
 4317AUSL   AUS 4296  12.444   0.931   7.083
 4318AUL    AUL 4297  12.160   0.705   7.196
 4319THSLK    S 4298  12.269   0.760   6.966
 4320ETHY    C1 4299  11.907   0.514   6.833
 4321ETHY    C1 4300  11.499   0.251   6.589
 4322ETHY    C1 4301  11.138   0.032   6.255
 4323ETHY    C1 4302  10.826  -0.146   5.843
 4324THSLK    S 4303  12.104   0.725   7.503
 4325ETHY    C1 4304  11.658   0.625   7.502
 4326ETHY    C1 4305  11.156   0.419   7.500
 4327ETHY    C1 4306  10.709   0.117   7.500
 4328ETHY    C1 4307  10.321  -0.267   7.503
 4329AUSL   AUS 4308  12.281   1.032   7.651
 4330AUSL   AUS 4309  12.538   0.685   7.764
 4331AUL    AUL 4310  12.160   0.705   7.803
 4332THSLK    S 4311  12.350   0.537   7.881
 4333ETHY    C1 4312  11.994   0.261   7.958
 4334ETHY    C1 4313  11.619  -0.096   8.122
 4335ETHY    C1 4314  11.318  -0.470   8.367
 4336ETHY    C1 4315  11.087  -0.852   8.682
 4337THSLK    S 4316  12.018   0.962   7.618
 4338ETHY    C1 4317  11.568   0.910   7.557
 4339ETHY    C1 4318  11.036   0.804   7.566
 4340ETHY    C1 4319  10.529   0.653   7.673
 4341ETHY    C1 4320  10.055   0.465   7.867
 4342AUSL   AUS 4321  12.954   1.776   7.909
 4343AUSL   AUS 4322  12.538   1.706   7.764
 4344AUL    AUL 4323  12.651   1.990   7.991
 4345THSLK    S 4324  12.415   1.868   7.948
 4346ETHY    C1 4325  12.264   2.188   8.237
 4347ETHY    C1 4326  12.011   2.571   8.527
 4348ETHY    C1 4327  11.679   2.939   8.740
 4349ETHY    C1 4328  11.280   3.285   8.881
 4350THSLK    S 4329  12.992   2.007   8.034
 4351ETHY    C1 4330  13.120   2.333   8.327
 4352ETHY    C1 4331  13.197   2.765   8.646
 4353ETHY    C1 4332  13.178   3.230   8.920
 4354ETHY    C1 4333  13.072   3.715   9.147
 4355AUSL   AUS 4334  12.803   1.869   7.663
 4356AUSL   AUS 4335  13.106   1.869   7.336
 4357AUL    AUL 4336  12.954   2.177   7.500
 4358THSLK    S 4337  12.840   2.121   7.772
 4359ETHY    C1 4338  12.913   2.545   7.929
 4360ETHY    C1 4339  12.910   3.061   8.095
 4361ETHY    C1 4340  12.802   3.572   8.229
 4362ETHY    C1 4341  12.598   4.068   8.336
 4363THSLK    S 4342  13.157   2.109   7.237
 4364ETHY    C1 4343  13.370   2.486   7.091
 4365ETHY    C1 4344  13.540   2.975   6.929
 4366ETHY    C1 4345  13.607   3.493   6.792
 4367ETHY    C1 4346  13.578   4.027   6.682
 4368AUSL   AUS 4347  13.106   1.869   7.663
 4369AUSL   AUS 4348  13.219   1.612   8.011
 4370AUL    AUL 4349  13.258   1.990   7.991
 4371THSLK    S 4350  13.392   1.729   8.184
 4372ETHY    C1 4351  13.665   1.870   8.522
 4373ETHY    C1 4352  13.946   2.119   8.915
 4374ETHY    C1 4353  14.162   2.452   9.279
 4375ETHY    C1 4354  14.314   2.857   9.614
 4376THSLK    S 4355  13.156   2.107   7.768
 4377ETHY    C1 4356  13.369   2.486   7.913
 4378ETHY    C1 4357  13.540   2.975   8.072
 4379ETHY    C1 4358  13.607   3.493   8.207
 4380ETHY    C1 4359  13.576   4.026   8.325
 4381AUSL   AUS 4360  12.954   0.615   7.909
 4382AUSL   AUS 4361  13.371   0.685   7.764
 4383AUL    AUL 4362  13.258   0.401   7.991
 4384THSLK    S 4363  12.913   0.358   7.992
 4385ETHY    C1 4364  12.786  -0.051   8.152
 4386ETHY    C1 4365  12.712  -0.532   8.391
 4387ETHY    C1 4366  12.731  -0.984   8.684
 4388ETHY    C1 4367  12.833  -1.402   9.021
 4389THSLK    S 4368  13.491   0.495   7.907
 4390ETHY    C1 4369  13.642   0.093   8.062
 4391ETHY    C1 4370  13.897  -0.338   8.272
 4392ETHY    C1 4371  14.229  -0.694   8.505
 4393ETHY    C1 4372  14.625  -0.973   8.758
 4394AUSL   AUS 4373  12.803   0.522   7.663
 4395AUSL   AUS 4374  12.690   0.779   8.011
 4396AUL    AUL 4375  12.651   0.401   7.991
 4397THSLK    S 4376  12.752   0.277   7.744
 4398ETHY    C1 4377  12.539  -0.122   7.812
 4399ETHY    C1 4378  12.368  -0.625   7.925
 4400ETHY    C1 4379  12.302  -1.139   8.072
 4401ETHY    C1 4380  12.331  -1.654   8.252
 4402THSLK    S 4381  12.512   0.609   8.136
 4403ETHY    C1 4382  12.240   0.294   8.327
 4404ETHY    C1 4383  11.962  -0.057   8.633
 4405ETHY    C1 4384  11.746  -0.365   9.019
 4406ETHY    C1 4385  11.590  -0.627   9.473
 4407AUSL   AUS 4386  13.106   0.522   7.663
 4408AUSL   AUS 4387  12.803   0.522   7.336
 4409AUL    AUL 4388  12.954   0.214   7.500
 4410THSLK    S 4389  12.753   0.275   7.261
 4411ETHY    C1 4390  12.540  -0.123   7.192
 4412ETHY    C1 4391  12.368  -0.625   7.076
 4413ETHY    C1 4392  12.302  -1.139   6.927
 4414ETHY    C1 4393  12.333  -1.656   6.754
 4415THSLK    S 4394  13.067   0.263   7.748
 4416ETHY    C1 4395  12.995  -0.182   7.829
 4417ETHY    C1 4396  12.998  -0.711   7.948
 4418ETHY    C1 4397  13.107  -1.219   8.095
 4419ETHY    C1 4398  13.309  -1.697   8.264
 4420AUSL   AUS 4399  12.954   1.776   7.091
 4421AUSL   AUS 4400  13.371   1.706   7.236
 4422AUL    AUL 4401  13.258   1.990   7.009
 4423THSLK    S 4402  12.996   2.010   6.971
 4424ETHY    C1 4403  13.123   2.335   6.676
 4425ETHY    C1 4404  13.197   2.765   6.353
 4426ETHY    C1 4405  13.178   3.230   6.080
 4427ETHY    C1 4406  13.075   3.718   5.857
 4428THSLK    S 4407  13.558   1.831   7.081
 4429ETHY    C1 4408  13.915   2.023   6.869
 4430ETHY    C1 4409  14.290   2.329   6.623
 4431ETHY    C1 4410  14.591   2.716   6.398
 4432ETHY    C1 4411  14.821   3.168   6.197
 4433AUSL   AUS 4412  12.803   1.869   7.336
 4434AUSL   AUS 4413  12.690   1.612   6.990
 4435AUL    AUL 4414  12.651   1.990   7.009
 4436THSLK    S 4415  12.842   2.123   7.233
 4437ETHY    C1 4416  12.914   2.546   7.074
 4438ETHY    C1 4417  12.911   3.062   6.906
 4439ETHY    C1 4418  12.802   3.572   6.770
 4440ETHY    C1 4419  12.600   4.070   6.670
 4441THSLK    S 4420  12.571   1.749   6.800
 4442ETHY    C1 4421  12.475   1.943   6.396
 4443ETHY    C1 4422  12.298   2.221   5.966
 4444ETHY    C1 4423  12.055   2.546   5.611
 4445ETHY    C1 4424  11.759   2.911   5.330
 4446AUSL   AUS 4425  12.954   0.615   7.091
 4447AUSL   AUS 4426  12.538   0.685   7.236
 4448AUL    AUL 4427  12.651   0.401   7.009
 4449THSLK    S 4428  12.353   0.532   7.122
 4450ETHY    C1 4429  11.996   0.258   7.044
 4451ETHY    C1 4430  11.619  -0.096   6.878
 4452ETHY    C1 4431  11.317  -0.470   6.633
 4453ETHY    C1 4432  11.090  -0.857   6.321
 4454THSLK    S 4433  12.916   0.355   7.013
 4455ETHY    C1 4434  12.788  -0.053   6.852
 4456ETHY    C1 4435  12.712  -0.532   6.609
 4457ETHY    C1 4436  12.731  -0.984   6.315
 4458ETHY    C1 4437  12.837  -1.405   5.983
 4459AUSL   AUS 4438  13.106   0.522   7.336
 4460AUSL   AUS 4439  13.219   0.779   6.990
 4461AUL    AUL 4440  13.258   0.401   7.009
 4462THSLK    S 4441  13.069   0.262   7.258
 4463ETHY    C1 4442  12.996  -0.183   7.175
 4464ETHY    C1 4443  12.998  -0.711   7.052
 4465ETHY    C1 4444  13.106  -1.219   6.905
 4466ETHY    C1 4445  13.311  -1.698   6.742
 4467THSLK    S 4446  13.342   0.589   6.847
 4468ETHY    C1 4447  13.437   0.221   6.592
 4469ETHY    C1 4448  13.611  -0.160   6.247
 4470ETHY    C1 4449  13.853  -0.460   5.870
 4471ETHY    C1 4450  14.154  -0.681   5.471
 4472POPC   NC3 4451  40.022   7.374   9.450
 4472POPC   PO4 4452  39.965   7.418   9.150
 4472POPC   GL1 4453  40.035   7.373   8.850
 4472POPC   GL2 4454  39.908   7.332   8.850
 4472POPC   C1A 4455  40.049   7.427   8.550
 4472POPC   D2A 4456  39.999   7.414   8.250
 4472POPC   C3A 4457  40.003   7.375   7.950
 4472POPC   C4A 4458  40.041   7.401   7.650
 4472POPC   C1B 4459  39.786   7.304   8.550
 4472POPC   C2B 4460  39.738   7.298   8.250
 4472POPC   C3B 4461  39.785   7.257   7.950
 4472POPC   C4B 4462  39.781   7.327   7.650
 4473POPC   NC3 4463  30.692  29.110   9.450
 4473POPC   PO4 4464  30.737  29.153   9.150
 4473POPC   GL1 4465  30.682  29.170   8.850
 4473POPC   GL2 4466  30.581  29.097   8.850
 4473POPC   C1A 4467  30.650  29.105   8.550
 4473POPC   D2A 4468  30.677  29.124   8.250
 4473POPC   C3A 4469  30.735  29.175   7.950
 4473POPC   C4A 4470  30.724  29.172   7.650
 4473POPC   C1B 4471  30.454  29.025   8.550
 4473POPC   C2B 4472  30.449  28.960   8.250
 4473POPC   C3B 4473  30.476  28.974   7.950
 4473POPC   C4B 4474  30.471  29.014   7.650
 4474POPC   NC3 4475  20.585   5.070   9.450
 4474POPC   PO4 4476  20.601   5.070   9.150
 4474POPC   GL1 4477  20.632   5.084   8.850
 4474POPC   GL2 4478  20.567   4.951   8.850
 4474POPC   C1A 4479  20.657   5.070   8.550
 4474POPC   D2A 4480  20.567   5.055   8.250
 4474POPC   C3A 4481  20.649   5.062   7.950
 4474POPC   C4A 4482  20.592   5.116   7.650
 4474POPC   C1B 4483  20.500   4.909   8.550
 4474POPC   C2B 4484  20.440   4.905   8.250
 4474POPC   C3B 4485  20.418   4.916   7.950
 4474POPC   C4B 4486  20.502   4.935   7.650
 4475POPC   NC3 4487  17.461  14.403   9.450
 4475POPC   PO4 4488  17.519  14.410   9.150
 4475POPC   GL1 4489  17.518  14.383   8.850
 4475POPC   GL2 4490  17.437  14.549   8.850
 4475POPC   C1A 4491  17.470  14.356   8.550
 4475POPC   D2A 4492  17.476  14.389   8.250
 4475POPC   C3A 4493  17.476  14.419   7.950
 4475POPC   C4A 4494  17.545  14.359   7.650
 4475POPC   C1B 4495  17.366  14.576   8.550
 4475POPC   C2B 4496  17.385  14.585   8.250
 4475POPC   C3B 4497  17.342  14.570   7.950
 4475POPC   C4B 4498  17.361  14.589   7.650
 4476POPC   NC3 4499  39.279  32.238   9.450
 4476POPC   PO4 4500  39.279  32.245   9.150
 4476POPC   GL1 4501  39.244  32.226   8.850
 4476POPC   GL2 4502  39.165  32.387   8.850
 4476POPC   C1A 4503  39.183  32.289   8.550
 4476POPC   D2A 4504  39.255  32.229   8.250
 4476POPC   C3A 4505  39.208  32.278   7.950
 4476POPC   C4A 4506  39.220  32.269   7.650
 4476POPC   C1B 4507  39.160  32.480   8.550
 4476POPC   C2B 4508  39.134  32.450   8.250
 4476POPC   C3B 4509  39.113  32.441   7.950
 4476POPC   C4B 4510  39.118  32.510   7.650
 4477POPC   NC3 4511  15.187  40.798   9.450
 4477POPC   PO4 4512  15.137  40.818   9.150
 4477POPC   GL1 4513  15.222  40.775   8.850
 4477POPC   GL2 4514  15.237  40.665   8.850
 4477POPC   C1A 4515  15.206  40.751   8.550
 4477POPC   D2A 4516  15.138  40.770   8.250
 4477POPC   C3A 4517  15.141  40.815   7.950
 4477POPC   C4A 4518  15.181  40.801   7.650
 4477POPC   C1B 4519  15.176  40.530   8.550
 4477POPC   C2B 4520  15.188  40.518   8.250
 4477POPC   C3B 4521  15.261  40.524   7.950
 4477POPC   C4B 4522  15.183  40.517   7.650
 4478POPC   NC3 4523  28.328  33.848   9.450
 4478POPC   PO4 4524  28.375  33.775   9.150
 4478POPC   GL1 4525  28.396  33.803   8.850
 4478POPC   GL2 4526  28.487  33.881   8.850
 4478POPC   C1A 4527  28.415  33.751   8.550
 4478POPC   D2A 4528  28.364  33.833   8.250
 4478POPC   C3A 4529  28.360  33.766   7.950
 4478POPC   C4A 4530  28.336  33.801   7.650
 4478POPC   C1B 4531  28.615  33.946   8.550
 4478POPC   C2B 4532  28.602  33.934   8.250
 4478POPC   C3B 4533  28.542  33.890   7.950
 4478POPC   C4B 4534  28.608  33.891   7.650
 4479POPC   NC3 4535  34.564  35.394   9.450
 4479POPC   PO4 4536  34.622  35.401   9.150
 4479POPC   GL1 4537  34.614  35.374   8.850
 4479POPC   GL2 4538  34.735  35.360   8.850
 4479POPC   C1A 4539  34.551  35.382   8.550
 4479POPC   D2A 4540  34.543  35.351   8.250
 4479POPC   C3A 4541  34.578  35.348   7.950
 4479POPC   C4A 4542  34.528  35.384   7.650
 4479POPC   C1B 4543  34.793  35.374   8.550
 4479POPC   C2B 4544  34.825  35.370   8.250
 4479POPC   C3B 4545  34.875  35.391   7.950
 4479POPC   C4B 4546  34.850  35.354   7.650
 4480POPC   NC3 4547   0.413  12.093   9.450
 4480POPC   PO4 4548   0.487  12.045   9.150
 4480POPC   GL1 4549   0.478  12.042   8.850
 4480POPC   GL2 4550   0.471  11.918   8.850
 4480POPC   C1A 4551   0.475  12.075   8.550
 4480POPC   D2A 4552   0.479  12.107   8.250
 4480POPC   C3A 4553   0.393  12.037   7.950
 4480POPC   C4A 4554   0.407  12.036   7.650
 4480POPC   C1B 4555   0.472  11.823   8.550
 4480POPC   C2B 4556   0.436  11.838   8.250
 4480POPC   C3B 4557   0.448  11.801   7.950
 4480POPC   C4B 4558   0.477  11.810   7.650
 4481POPC   NC3 4559  21.396  32.218   9.450
 4481POPC   PO4 4560  21.389  32.206   9.150
 4481POPC   GL1 4561  21.397  32.238   8.850
 4481POPC   GL2 4562  21.389  32.136   8.850
 4481POPC   C1A 4563  21.351  32.240   8.550
 4481POPC   D2A 4564  21.380  32.294   8.250
 4481POPC   C3A 4565  21.426  32.256   7.950
 4481POPC   C4A 4566  21.364  32.243   7.650
 4481POPC   C1B 4567  21.321  32.059   8.550
 4481POPC   C2B 4568  21.327  32.045   8.250
 4481POPC   C3B 4569  21.325  32.031   7.950
 4481POPC   C4B 4570  21.328  31.996   7.650
 4482POPC   NC3 4571  40.810  37.670   9.450
 4482POPC   PO4 4572  40.822  37.665   9.150
 4482POPC   GL1 4573  40.824  37.671   8.850
 4482POPC   GL2 4574  40.885  37.711   8.850
 4482POPC   C1A 4575  40.762  37.706   8.550
 4482POPC   D2A 4576  40.758  37.667   8.250
 4482POPC   C3A 4577  40.811  37.681   7.950
 4482POPC   C4A 4578  40.769  37.698   7.650
 4482POPC   C1B 4579  40.948  37.834   8.550
 4482POPC   C2B 4580  41.008  37.804   8.250
 4482POPC   C3B 4581  40.989  37.810   7.950
 4482POPC   C4B 4582  40.953  37.840   7.650
 4483POPC   NC3 4583   5.856  14.422   9.450
 4483POPC   PO4 4584   5.883  14.452   9.150
 4483POPC   GL1 4585   5.898  14.442   8.850
 4483POPC   GL2 4586   5.784  14.321   8.850
 4483POPC   C1A 4587   5.894  14.366   8.550
 4483POPC   D2A 4588   5.821  14.422   8.250
 4483POPC   C3A 4589   5.831  14.418   7.950
 4483POPC   C4A 4590   5.867  14.443   7.650
 4483POPC   C1B 4591   5.722  14.178   8.550
 4483POPC   C2B 4592   5.686  14.202   8.250
 4483POPC   C3B 4593   5.751  14.169   7.950
 4483POPC   C4B 4594   5.768  14.167   7.650
 4484POPC   NC3 4595  27.600  19.796   9.450
 4484POPC   PO4 4596  27.550  19.804   9.150
 4484POPC   GL1 4597  27.635  19.865   8.850
 4484POPC   GL2 4598  27.614  19.923   8.850
 4484POPC   C1A 4599  27.546  19.823   8.550
 4484POPC   D2A 4600  27.560  19.828   8.250
 4484POPC   C3A 4601  27.562  19.877   7.950
 4484POPC   C4A 4602  27.602  19.787   7.650
 4484POPC   C1B 4603  27.686  20.068   8.550
 4484POPC   C2B 4604  27.628  20.062   8.250
 4484POPC   C3B 4605  27.645  20.113   7.950
 4484POPC   C4B 4606  27.694  20.101   7.650
 4485POPC   NC3 4607  19.814   0.484   9.450
 4485POPC   PO4 4608  19.791   0.448   9.150
 4485POPC   GL1 4609  19.867   0.394   8.850
 4485POPC   GL2 4610  19.844   0.270   8.850
 4485POPC   C1A 4611  19.814   0.451   8.550
 4485POPC   D2A 4612  19.831   0.466   8.250
 4485POPC   C3A 4613  19.812   0.426   7.950
 4485POPC   C4A 4614  19.794   0.472   7.650
 4485POPC   C1B 4615  19.805   0.145   8.550
 4485POPC   C2B 4616  19.845   0.168   8.250
 4485POPC   C3B 4617  19.819   0.156   7.950
 4485POPC   C4B 4618  19.766   0.216   7.650
 4486POPC   NC3 4619  29.109   0.389   9.450
 4486POPC   PO4 4620  29.166   0.462   9.150
 4486POPC   GL1 4621  29.158   0.487   8.850
 4486POPC   GL2 4622  29.164   0.597   8.850
 4486POPC   C1A 4623  29.138   0.395   8.550
 4486POPC   D2A 4624  29.114   0.449   8.250
 4486POPC   C3A 4625  29.182   0.418   7.950
 4486POPC   C4A 4626  29.184   0.479   7.650
 4486POPC   C1B 4627  29.109   0.671   8.550
 4486POPC   C2B 4628  29.142   0.659   8.250
 4486POPC   C3B 4629  29.156   0.710   7.950
 4486POPC   C4B 4630  29.178   0.693   7.650
 4487POPC   NC3 4631  15.995  11.253   9.450
 4487POPC   PO4 4632  15.966  11.261   9.150
 4487POPC   GL1 4633  15.956  11.304   8.850
 4487POPC   GL2 4634  15.881  11.214   8.850
 4487POPC   C1A 4635  15.985  11.326   8.550
 4487POPC   D2A 4636  15.943  11.273   8.250
 4487POPC   C3A 4637  15.905  11.312   7.950
 4487POPC   C4A 4638  15.937  11.276   7.650
 4487POPC   C1B 4639  15.785  11.059   8.550
 4487POPC   C2B 4640  15.821  11.117   8.250
 4487POPC   C3B 4641  15.859  11.092   7.950
 4487POPC   C4B 4642  15.853  11.124   7.650
 4488POPC   NC3 4643  43.904  20.617   9.450
 4488POPC   PO4 4644  43.862  20.660   9.150
 4488POPC   GL1 4645  43.893  20.564   8.850
 4488POPC   GL2 4646  43.750  20.626   8.850
 4488POPC   C1A 4647  43.848  20.570   8.550
 4488POPC   D2A 4648  43.906  20.588   8.250
 4488POPC   C3A 4649  43.871  20.597   7.950
 4488POPC   C4A 4650  43.867  20.660   7.650
 4488POPC   C1B 4651  43.588  20.620   8.550
 4488POPC   C2B 4652  43.600  20.623   8.250
 4488POPC   C3B 4653  43.633  20.630   7.950
 4488POPC   C4B 4654  43.598  20.625   7.650
 4489POPC   NC3 4655  37.703  13.633   9.450
 4489POPC   PO4 4656  37.648  13.629   9.150
 4489POPC   GL1 4657  37.669  13.603   8.850
 4489POPC   GL2 4658  37.541  13.537   8.850
 4489POPC   C1A 4659  37.682  13.590   8.550
 4489POPC   D2A 4660  37.692  13.618   8.250
 4489POPC   C3A 4661  37.654  13.620   7.950
 4489POPC   C4A 4662  37.691  13.602   7.650
 4489POPC   C1B 4663  37.436  13.524   8.550
 4489POPC   C2B 4664  37.456  13.464   8.250
 4489POPC   C3B 4665  37.451  13.523   7.950
 4489POPC   C4B 4666  37.468  13.493   7.650
 4490POPC   NC3 4667   9.759  25.224   9.450
 4490POPC   PO4 4668   9.705  25.257   9.150
 4490POPC   GL1 4669   9.798  25.275   8.850
 4490POPC   GL2 4670   9.748  25.408   8.850
 4490POPC   C1A 4671   9.712  25.235   8.550
 4490POPC   D2A 4672   9.763  25.221   8.250
 4490POPC   C3A 4673   9.785  25.301   7.950
 4490POPC   C4A 4674   9.771  25.313   7.650
 4490POPC   C1B 4675   9.769  25.549   8.550
 4490POPC   C2B 4676   9.779  25.521   8.250
 4490POPC   C3B 4677   9.751  25.557   7.950
 4490POPC   C4B 4678   9.730  25.553   7.650
 4491POPC   NC3 4679  30.746  32.251   9.450
 4491POPC   PO4 4680  30.701  32.218   9.150
 4491POPC   GL1 4681  30.657  32.252   8.850
 4491POPC   GL2 4682  30.632  32.363   8.850
 4491POPC   C1A 4683  30.741  32.202   8.550
 4491POPC   D2A 4684  30.662  32.239   8.250
 4491POPC   C3A 4685  30.697  32.237   7.950
 4491POPC   C4A 4686  30.680  32.216   7.650
 4491POPC   C1B 4687  30.493  32.394   8.550
 4491POPC   C2B 4688  30.469  32.356   8.250
 4491POPC   C3B 4689  30.458  32.435   7.950
 4491POPC   C4B 4690  30.489  32.423   7.650
 4492POPC   NC3 4691  33.006   5.868   9.450
 4492POPC   PO4 4692  33.015   5.865   9.150
 4492POPC   GL1 4693  32.997   5.848   8.850
 4492POPC   GL2 4694  33.076   5.698   8.850
 4492POPC   C1A 4695  33.039   5.918   8.550
 4492POPC   D2A 4696  33.074   5.828   8.250
 4492POPC   C3A 4697  33.007   5.891   7.950
 4492POPC   C4A 4698  32.974   5.910   7.650
 4492POPC   C1B 4699  33.094   5.591   8.550
 4492POPC   C2B 4700  33.055   5.629   8.250
 4492POPC   C3B 4701  33.069   5.644   7.950
 4492POPC   C4B 4702  33.125   5.624   7.650
 4493POPC   NC3 4703   6.603  12.058   9.450
 4493POPC   PO4 4704   6.666  12.095   9.150
 4493POPC   GL1 4705   6.607  12.049   8.850
 4493POPC   GL2 4706   6.725  11.995   8.850
 4493POPC   C1A 4707   6.625  12.028   8.550
 4493POPC   D2A 4708   6.604  12.113   8.250
 4493POPC   C3A 4709   6.625  12.048   7.950
 4493POPC   C4A 4710   6.676  12.119   7.650
 4493POPC   C1B 4711   6.704  11.800   8.550
 4493POPC   C2B 4712   6.702  11.862   8.250
 4493POPC   C3B 4713   6.710  11.832   7.950
 4493POPC   C4B 4714   6.754  11.798   7.650
 4494POPC   NC3 4715  25.302  29.192   9.450
 4494POPC   PO4 4716  25.219  29.180   9.150
 4494POPC   GL1 4717  25.240  29.143   8.850
 4494POPC   GL2 4718  25.180  29.141   8.850
 4494POPC   C1A 4719  25.259  29.168   8.550
 4494POPC   D2A 4720  25.269  29.171   8.250
 4494POPC   C3A 4721  25.248  29.162   7.950
 4494POPC   C4A 4722  25.248  29.117   7.650
 4494POPC   C1B 4723  24.984  29.145   8.550
 4494POPC   C2B 4724  25.001  29.168   8.250
 4494POPC   C3B 4725  25.023  29.182   7.950
 4494POPC   C4B 4726  24.977  29.184   7.650
 4495POPC   NC3 4727  33.015  10.526   9.450
 4495POPC   PO4 4728  33.062  10.534   9.150
 4495POPC   GL1 4729  33.065  10.546   8.850
 4495POPC   GL2 4730  32.954  10.543   8.850
 4495POPC   C1A 4731  33.039  10.553   8.550
 4495POPC   D2A 4732  33.073  10.501   8.250
 4495POPC   C3A 4733  33.047  10.546   7.950
 4495POPC   C4A 4734  32.987  10.515   7.650
 4495POPC   C1B 4735  32.803  10.621   8.550
 4495POPC   C2B 4736  32.799  10.547   8.250
 4495POPC   C3B 4737  32.796  10.585   7.950
 4495POPC   C4B 4738  32.801  10.592   7.650
 4496POPC   NC3 4739   8.219   8.228   9.450
 4496POPC   PO4 4740   8.172   8.151   9.150
 4496POPC   GL1 4741   8.166   8.163   8.850
 4496POPC   GL2 4742   8.121   8.285   8.850
 4496POPC   C1A 4743   8.160   8.224   8.550
 4496POPC   D2A 4744   8.182   8.202   8.250
 4496POPC   C3A 4745   8.205   8.166   7.950
 4496POPC   C4A 4746   8.208   8.173   7.650
 4496POPC   C1B 4747   8.025   8.337   8.550
 4496POPC   C2B 4748   7.999   8.312   8.250
 4496POPC   C3B 4749   8.016   8.283   7.950
 4496POPC   C4B 4750   8.012   8.285   7.650
 4497POPC   NC3 4751  26.075  27.549   9.450
 4497POPC   PO4 4752  25.994  27.558   9.150
 4497POPC   GL1 4753  26.072  27.547   8.850
 4497POPC   GL2 4754  26.108  27.666   8.850
 4497POPC   C1A 4755  26.079  27.598   8.550
 4497POPC   D2A 4756  26.003  27.624   8.250
 4497POPC   C3A 4757  26.042  27.566   7.950
 4497POPC   C4A 4758  26.030  27.593   7.650
 4497POPC   C1B 4759  26.148  27.765   8.550
 4497POPC   C2B 4760  26.206  27.833   8.250
 4497POPC   C3B 4761  26.126  27.808   7.950
 4497POPC   C4B 4762  26.179  27.825   7.650
 4498POPC   NC3 4763   5.045  28.366   9.450
 4498POPC   PO4 4764   5.056  28.414   9.150
 4498POPC   GL1 4765   5.138  28.329   8.850
 4498POPC   GL2 4766   5.205  28.323   8.850
 4498POPC   C1A 4767   5.122  28.376   8.550
 4498POPC   D2A 4768   5.091  28.409   8.250
 4498POPC   C3A 4769   5.045  28.341   7.950
 4498POPC   C4A 4770   5.082  28.359   7.650
 4498POPC   C1B 4771   5.316  28.254   8.550
 4498POPC   C2B 4772   5.325  28.174   8.250
 4498POPC   C3B 4773   5.301  28.246   7.950
 4498POPC   C4B 4774   5.283  28.161   7.650
 4499POPC   NC3 4775  24.478  10.528   9.450
 4499POPC   PO4 4776  24.518  10.508   9.150
 4499POPC   GL1 4777  24.443  10.536   8.850
 4499POPC   GL2 4778  24.580  10.568   8.850
 4499POPC   C1A 4779  24.478  10.543   8.550
 4499POPC   D2A 4780  24.471  10.496   8.250
 4499POPC   C3A 4781  24.471  10.521   7.950
 4499POPC   C4A 4782  24.471  10.494   7.650
 4499POPC   C1B 4783  24.686  10.654   8.550
 4499POPC   C2B 4784  24.761  10.631   8.250
 4499POPC   C3B 4785  24.726  10.634   7.950
 4499POPC   C4B 4786  24.756  10.609   7.650
 4500POPC   NC3 4787  43.873  15.997   9.450
 4500POPC   PO4 4788  43.910  15.992   9.150
 4500POPC   GL1 4789  43.843  15.978   8.850
 4500POPC   GL2 4790  43.882  15.831   8.850
 4500POPC   C1A 4791  43.851  15.914   8.550
 4500POPC   D2A 4792  43.913  15.947   8.250
 4500POPC   C3A 4793  43.851  15.974   7.950
 4500POPC   C4A 4794  43.912  15.942   7.650
 4500POPC   C1B 4795  43.854  15.710   8.550
 4500POPC   C2B 4796  43.820  15.728   8.250
 4500POPC   C3B 4797  43.774  15.764   7.950
 4500POPC   C4B 4798  43.801  15.674   7.650
 4501POPC   NC3 4799  41.534  38.449   9.450
 4501POPC   PO4 4800  41.602  38.440   9.150
 4501POPC   GL1 4801  41.605  38.459   8.850
 4501POPC   GL2 4802  41.509  38.373   8.850
 4501POPC   C1A 4803  41.565  38.424   8.550
 4501POPC   D2A 4804  41.598  38.453   8.250
 4501POPC   C3A 4805  41.523  38.441   7.950
 4501POPC   C4A 4806  41.588  38.465   7.650
 4501POPC   C1B 4807  41.363  38.274   8.550
 4501POPC   C2B 4808  41.401  38.328   8.250
 4501POPC   C3B 4809  41.387  38.270   7.950
 4501POPC   C4B 4810  41.365  38.301   7.650
 4502POPC   NC3 4811  36.175  39.190   9.450
 4502POPC   PO4 4812  36.175  39.252   9.150
 4502POPC   GL1 4813  36.084  39.208   8.850
 4502POPC   GL2 4814  35.973  39.168   8.850
 4502POPC   C1A 4815  36.092  39.199   8.550
 4502POPC   D2A 4816  36.176  39.183   8.250
 4502POPC   C3A 4817  36.099  39.214   7.950
 4502POPC   C4A 4818  36.133  39.191   7.650
 4502POPC   C1B 4819  35.906  39.146   8.550
 4502POPC   C2B 4820  35.943  39.134   8.250
 4502POPC   C3B 4821  35.904  39.095   7.950
 4502POPC   C4B 4822  35.916  39.104   7.650
 4503POPC   NC3 4823  41.602  39.983   9.450
 4503POPC   PO4 4824  41.520  39.984   9.150
 4503POPC   GL1 4825  41.559  39.982   8.850
 4503POPC   GL2 4826  41.483  39.938   8.850
 4503POPC   C1A 4827  41.551  40.004   8.550
 4503POPC   D2A 4828  41.545  40.004   8.250
 4503POPC   C3A 4829  41.516  39.979   7.950
 4503POPC   C4A 4830  41.513  40.019   7.650
 4503POPC   C1B 4831  41.294  39.866   8.550
 4503POPC   C2B 4832  41.348  39.944   8.250
 4503POPC   C3B 4833  41.351  39.918   7.950
 4503POPC   C4B 4834  41.303  39.917   7.650
 4504POPC   NC3 4835  33.820  11.348   9.450
 4504POPC   PO4 4836  33.849  11.273   9.150
 4504POPC   GL1 4837  33.849  11.263   8.850
 4504POPC   GL2 4838  33.894  11.352   8.850
 4504POPC   C1A 4839  33.822  11.318   8.550
 4504POPC   D2A 4840  33.834  11.336   8.250
 4504POPC   C3A 4841  33.765  11.327   7.950
 4504POPC   C4A 4842  33.789  11.321   7.650
 4504POPC   C1B 4843  34.064  11.362   8.550
 4504POPC   C2B 4844  34.051  11.380   8.250
 4504POPC   C3B 4845  33.997  11.425   7.950
 4504POPC   C4B 4846  34.030  11.414   7.650
 4505POPC   NC3 4847   1.975  40.796   9.450
 4505POPC   PO4 4848   2.025  40.786   9.150
 4505POPC   GL1 4849   1.959  40.744   8.850
 4505POPC   GL2 4850   1.909  40.927   8.850
 4505POPC   C1A 4851   1.940  40.746   8.550
 4505POPC   D2A 4852   2.015  40.814   8.250
 4505POPC   C3A 4853   1.977  40.809   7.950
 4505POPC   C4A 4854   2.005  40.790   7.650
 4505POPC   C1B 4855   1.913  41.047   8.550
 4505POPC   C2B 4856   1.918  40.963   8.250
 4505POPC   C3B 4857   1.912  41.021   7.950
 4505POPC   C4B 4858   1.844  40.997   7.650
 4506POPC   NC3 4859  36.148   1.220   9.450
 4506POPC   PO4 4860  36.096   1.223   9.150
 4506POPC   GL1 4861  36.162   1.236   8.850
 4506POPC   GL2 4862  36.183   1.136   8.850
 4506POPC   C1A 4863  36.083   1.236   8.550
 4506POPC   D2A 4864  36.126   1.234   8.250
 4506POPC   C3A 4865  36.137   1.190   7.950
 4506POPC   C4A 4866  36.134   1.209   7.650
 4506POPC   C1B 4867  36.176   1.030   8.550
 4506POPC   C2B 4868  36.183   0.964   8.250
 4506POPC   C3B 4869  36.211   0.996   7.950
 4506POPC   C4B 4870  36.251   0.975   7.650
 4507POPC   NC3 4871   3.543   2.736   9.450
 4507POPC   PO4 4872   3.568   2.731   9.150
 4507POPC   GL1 4873   3.502   2.811   8.850
 4507POPC   GL2 4874   3.619   2.673   8.850
 4507POPC   C1A 4875   3.578   2.761   8.550
 4507POPC   D2A 4876   3.545   2.753   8.250
 4507POPC   C3A 4877   3.583   2.748   7.950
 4507POPC   C4A 4878   3.589   2.799   7.650
 4507POPC   C1B 4879   3.682   2.546   8.550
 4507POPC   C2B 4880   3.726   2.554   8.250
 4507POPC   C3B 4881   3.676   2.563   7.950
 4507POPC   C4B 4882   3.728   2.589   7.650
 4508POPC   NC3 4883  22.929  18.295   9.450
 4508POPC   PO4 4884  22.981  18.308   9.150
 4508POPC   GL1 4885  22.967  18.240   8.850
 4508POPC   GL2 4886  23.110  18.252   8.850
 4508POPC   C1A 4887  22.942  18.240   8.550
 4508POPC   D2A 4888  22.946  18.294   8.250
 4508POPC   C3A 4889  22.941  18.269   7.950
 4508POPC   C4A 4890  22.978  18.284   7.650
 4508POPC   C1B 4891  23.181  18.270   8.550
 4508POPC   C2B 4892  23.189  18.288   8.250
 4508POPC   C3B 4893  23.228  18.248   7.950
 4508POPC   C4B 4894  23.186  18.262   7.650
 4509POPC   NC3 4895  44.668  23.726   9.450
 4509POPC   PO4 4896  44.670  23.707   9.150
 4509POPC   GL1 4897  44.652  23.723   8.850
 4509POPC   GL2 4898  44.588  23.638   8.850
 4509POPC   C1A 4899  44.684  23.689   8.550
 4509POPC   D2A 4900  44.685  23.697   8.250
 4509POPC   C3A 4901  44.684  23.671   7.950
 4509POPC   C4A 4902  44.631  23.690   7.650
 4509POPC   C1B 4903  44.504  23.507   8.550
 4509POPC   C2B 4904  44.516  23.538   8.250
 4509POPC   C3B 4905  44.491  23.581   7.950
 4509POPC   C4B 4906  44.505  23.577   7.650
 4510POPC   NC3 4907  26.089  19.830   9.450
 4510POPC   PO4 4908  26.089  19.852   9.150
 4510POPC   GL1 4909  26.045  19.871   8.850
 4510POPC   GL2 4910  26.143  19.751   8.850
 4510POPC   C1A 4911  25.997  19.827   8.550
 4510POPC   D2A 4912  26.015  19.791   8.250
 4510POPC   C3A 4913  26.036  19.829   7.950
 4510POPC   C4A 4914  26.060  19.845   7.650
 4510POPC   C1B 4915  26.105  19.612   8.550
 4510POPC   C2B 4916  26.116  19.624   8.250
 4510POPC   C3B 4917  26.168  19.657   7.950
 4510POPC   C4B 4918  26.124  19.622   7.650
 4511POPC   NC3 4919  37.729   8.934   9.450
 4511POPC   PO4 4920  37.728   9.000   9.150
 4511POPC   GL1 4921  37.664   8.962   8.850
 4511POPC   GL2 4922  37.839   8.949   8.850
 4511POPC   C1A 4923  37.713   8.987   8.550
 4511POPC   D2A 4924  37.685   8.952   8.250
 4511POPC   C3A 4925  37.652   8.933   7.950
 4511POPC   C4A 4926  37.659   8.923   7.650
 4511POPC   C1B 4927  37.930   8.866   8.550
 4511POPC   C2B 4928  37.863   8.911   8.250
 4511POPC   C3B 4929  37.943   8.849   7.950
 4511POPC   C4B 4930  37.877   8.861   7.650
 4512POPC   NC3 4931  26.075   2.792   9.450
 4512POPC   PO4 4932  26.081   2.800   9.150
 4512POPC   GL1 4933  26.027   2.755   8.850
 4512POPC   GL2 4934  26.213   2.779   8.850
 4512POPC   C1A 4935  26.059   2.814   8.550
 4512POPC   D2A 4936  26.001   2.740   8.250
 4512POPC   C3A 4937  26.066   2.780   7.950
 4512POPC   C4A 4938  26.048   2.795   7.650
 4512POPC   C1B 4939  26.330   2.795   8.550
 4512POPC   C2B 4940  26.281   2.796   8.250
 4512POPC   C3B 4941  26.271   2.762   7.950
 4512POPC   C4B 4942  26.238   2.845   7.650
 4513POPC   NC3 4943  35.315  10.476   9.450
 4513POPC   PO4 4944  35.316  10.541   9.150
 4513POPC   GL1 4945  35.359  10.499   8.850
 4513POPC   GL2 4946  35.372  10.358   8.850
 4513POPC   C1A 4947  35.363  10.537   8.550
 4513POPC   D2A 4948  35.400  10.543   8.250
 4513POPC   C3A 4949  35.384  10.482   7.950
 4513POPC   C4A 4950  35.323  10.475   7.650
 4513POPC   C1B 4951  35.347  10.320   8.550
 4513POPC   C2B 4952  35.418  10.306   8.250
 4513POPC   C3B 4953  35.379  10.314   7.950
 4513POPC   C4B 4954  35.344  10.276   7.650
 4514POPC   NC3 4955  33.810  29.140   9.450
 4514POPC   PO4 4956  33.786  29.177   9.150
 4514POPC   GL1 4957  33.834  29.166   8.850
 4514POPC   GL2 4958  33.958  29.078   8.850
 4514POPC   C1A 4959  33.766  29.168   8.550
 4514POPC   D2A 4960  33.844  29.129   8.250
 4514POPC   C3A 4961  33.843  29.098   7.950
 4514POPC   C4A 4962  33.799  29.186   7.650
 4514POPC   C1B 4963  34.024  29.068   8.550
 4514POPC   C2B 4964  33.989  29.055   8.250
 4514POPC   C3B 4965  34.062  29.078   7.950
 4514POPC   C4B 4966  34.079  29.070   7.650
 4515POPC   NC3 4967  22.899   4.324   9.450
 4515POPC   PO4 4968  22.896   4.323   9.150
 4515POPC   GL1 4969  22.981   4.273   8.850
 4515POPC   GL2 4970  22.876   4.461   8.850
 4515POPC   C1A 4971  22.900   4.346   8.550
 4515POPC   D2A 4972  22.960   4.301   8.250
 4515POPC   C3A 4973  22.898   4.361   7.950
 4515POPC   C4A 4974  22.936   4.320   7.650
 4515POPC   C1B 4975  22.800   4.489   8.550
 4515POPC   C2B 4976  22.769   4.552   8.250
 4515POPC   C3B 4977  22.768   4.573   7.950
 4515POPC   C4B 4978  22.843   4.548   7.650
 4516POPC   NC3 4979  37.706  22.985   9.450
 4516POPC   PO4 4980  37.692  22.920   9.150
 4516POPC   GL1 4981  37.697  22.947   8.850
 4516POPC   GL2 4982  37.747  22.907   8.850
 4516POPC   C1A 4983  37.675  22.981   8.550
 4516POPC   D2A 4984  37.693  22.921   8.250
 4516POPC   C3A 4985  37.690  22.908   7.950
 4516POPC   C4A 4986  37.695  22.965   7.650
 4516POPC   C1B 4987  37.941  22.839   8.550
 4516POPC   C2B 4988  37.867  22.883   8.250
 4516POPC   C3B 4989  37.945  22.900   7.950
 4516POPC   C4B 4990  37.892  22.841   7.650
 4517POPC   NC3 4991  11.285   4.336   9.450
 4517POPC   PO4 4992  11.253   4.358   9.150
 4517POPC   GL1 4993  11.266   4.268   8.850
 4517POPC   GL2 4994  11.159   4.301   8.850
 4517POPC   C1A 4995  11.290   4.366   8.550
 4517POPC   D2A 4996  11.339   4.320   8.250
 4517POPC   C3A 4997  11.315   4.340   7.950
 4517POPC   C4A 4998  11.328   4.346   7.650
 4517POPC   C1B 4999  11.045   4.198   8.550
 4517POPC   C2B 5000  11.096   4.178   8.250
 4517POPC   C3B 5001  11.053   4.150   7.950
 4517POPC   C4B 5002  11.034   4.235   7.650
 4518POPC   NC3 5003  43.872  35.353   9.450
 4518POPC   PO4 5004  43.892  35.357   9.150
 4518POPC   GL1 5005  43.915  35.382   8.850
 4518POPC   GL2 5006  43.806  35.247   8.850
 4518POPC   C1A 5007  43.870  35.324   8.550
 4518POPC   D2A 5008  43.857  35.356   8.250
 4518POPC   C3A 5009  43.846  35.356   7.950
 4518POPC   C4A 5010  43.897  35.351   7.650
 4518POPC   C1B 5011  43.808  35.166   8.550
 4518POPC   C2B 5012  43.757  35.105   8.250
 4518POPC   C3B 5013  43.791  35.099   7.950
 4518POPC   C4B 5014  43.813  35.155   7.650
 4519POPC   NC3 5015  32.994  17.459   9.450
 4519POPC   PO4 5016  33.032  17.556   9.150
 4519POPC   GL1 5017  33.007  17.503   8.850
 4519POPC   GL2 5018  33.104  17.621   8.850
 4519POPC   C1A 5019  33.072  17.469   8.550
 4519POPC   D2A 5020  33.042  17.519   8.250
 4519POPC   C3A 5021  33.062  17.523   7.950
 4519POPC   C4A 5022  33.015  17.497   7.650
 4519POPC   C1B 5023  33.197  17.654   8.550
 4519POPC   C2B 5024  33.216  17.608   8.250
 4519POPC   C3B 5025  33.274  17.650   7.950
 4519POPC   C4B 5026  33.237  17.694   7.650
 4520POPC   NC3 5027  33.021   3.548   9.450
 4520POPC   PO4 5028  32.975   3.527   9.150
 4520POPC   GL1 5029  33.052   3.589   8.850
 4520POPC   GL2 5030  33.145   3.631   8.850
 4520POPC   C1A 5031  32.981   3.562   8.550
 4520POPC   D2A 5032  33.000   3.537   8.250
 4520POPC   C3A 5033  33.073   3.567   7.950
 4520POPC   C4A 5034  33.056   3.545   7.650
 4520POPC   C1B 5035  33.236   3.697   8.550
 4520POPC   C2B 5036  33.184   3.680   8.250
 4520POPC   C3B 5037  33.229   3.739   7.950
 4520POPC   C4B 5038  33.217   3.717   7.650
 4521POPC   NC3 5039  31.487   9.785   9.450
 4521POPC   PO4 5040  31.451   9.727   9.150
 4521POPC   GL1 5041  31.461   9.746   8.850
 4521POPC   GL2 5042  31.431   9.888   8.850
 4521POPC   C1A 5043  31.449   9.797   8.550
 4521POPC   D2A 5044  31.424   9.745   8.250
 4521POPC   C3A 5045  31.480   9.727   7.950
 4521POPC   C4A 5046  31.487   9.724   7.650
 4521POPC   C1B 5047  31.346   9.987   8.550
 4521POPC   C2B 5048  31.338  10.001   8.250
 4521POPC   C3B 5049  31.429  10.007   7.950
 4521POPC   C4B 5050  31.425  10.018   7.650
 4522POPC   NC3 5051  33.828  35.379   9.450
 4522POPC   PO4 5052  33.848  35.354   9.150
 4522POPC   GL1 5053  33.773  35.341   8.850
 4522POPC   GL2 5054  33.696  35.403   8.850
 4522POPC   C1A 5055  33.814  35.314   8.550
 4522POPC   D2A 5056  33.786  35.355   8.250
 4522POPC   C3A 5057  33.769  35.380   7.950
 4522POPC   C4A 5058  33.849  35.390   7.650
 4522POPC   C1B 5059  33.603  35.479   8.550
 4522POPC   C2B 5060  33.624  35.494   8.250
 4522POPC   C3B 5061  33.544  35.487   7.950
 4522POPC   C4B 5062  33.531  35.500   7.650
 4523POPC   NC3 5063  33.819  28.348   9.450
 4523POPC   PO4 5064  33.828  28.385   9.150
 4523POPC   GL1 5065  33.847  28.333   8.850
 4523POPC   GL2 5066  33.918  28.334   8.850
 4523POPC   C1A 5067  33.760  28.372   8.550
 4523POPC   D2A 5068  33.834  28.390   8.250
 4523POPC   C3A 5069  33.777  28.366   7.950
 4523POPC   C4A 5070  33.832  28.369   7.650
 4523POPC   C1B 5071  34.045  28.246   8.550
 4523POPC   C2B 5072  34.007  28.193   8.250
 4523POPC   C3B 5073  33.959  28.202   7.950
 4523POPC   C4B 5074  33.969  28.192   7.650
 4524POPC   NC3 5075  41.598  40.827   9.450
 4524POPC   PO4 5076  41.580  40.742   9.150
 4524POPC   GL1 5077  41.583  40.751   8.850
 4524POPC   GL2 5078  41.716  40.803   8.850
 4524POPC   C1A 5079  41.527  40.737   8.550
 4524POPC   D2A 5080  41.568  40.780   8.250
 4524POPC   C3A 5081  41.603  40.764   7.950
 4524POPC   C4A 5082  41.568  40.815   7.650
 4524POPC   C1B 5083  41.816  40.882   8.550
 4524POPC   C2B 5084  41.770  40.859   8.250
 4524POPC   C3B 5085  41.771  40.902   7.950
 4524POPC   C4B 5086  41.763  40.858   7.650
 4525POPC   NC3 5087  26.795  19.875   9.450
 4525POPC   PO4 5088  26.799  19.865   9.150
 4525POPC   GL1 5089  26.767  19.842   8.850
 4525POPC   GL2 5090  26.890  19.870   8.850
 4525POPC   C1A 5091  26.830  19.806   8.550
 4525POPC   D2A 5092  26.812  19.864   8.250
 4525POPC   C3A 5093  26.839  19.841   7.950
 4525POPC   C4A 5094  26.773  19.828   7.650
 4525POPC   C1B 5095  27.011  19.972   8.550
 4525POPC   C2B 5096  27.024  19.985   8.250
 4525POPC   C3B 5097  26.976  20.011   7.950
 4525POPC   C4B 5098  27.023  19.947   7.650
 4526POPC   NC3 5099  33.790  20.617   9.450
 4526POPC   PO4 5100  33.752  20.571   9.150
 4526POPC   GL1 5101  33.825  20.604   8.850
 4526POPC   GL2 5102  33.711  20.689   8.850
 4526POPC   C1A 5103  33.751  20.636   8.550
 4526POPC   D2A 5104  33.816  20.634   8.250
 4526POPC   C3A 5105  33.838  20.580   7.950
 4526POPC   C4A 5106  33.820  20.578   7.650
 4526POPC   C1B 5107  33.604  20.661   8.550
 4526POPC   C2B 5108  33.523  20.667   8.250
 4526POPC   C3B 5109  33.540  20.665   7.950
 4526POPC   C4B 5110  33.575  20.654   7.650
 4527POPC   NC3 5111  43.923  43.837   9.450
 4527POPC   PO4 5112  43.843  43.934   9.150
 4527POPC   GL1 5113  43.926  43.880   8.850
 4527POPC   GL2 5114  43.953  44.013   8.850
 4527POPC   C1A 5115  43.858  43.905   8.550
 4527POPC   D2A 5116  43.846  43.864   8.250
 4527POPC   C3A 5117  43.911  43.895   7.950
 4527POPC   C4A 5118  43.906  43.841   7.650
 4527POPC   C1B 5119  44.054  44.059   8.550
 4527POPC   C2B 5120  43.992  44.102   8.250
 4527POPC   C3B 5121  44.056  44.081   7.950
 4527POPC   C4B 5122  44.017  44.141   7.650
 4528POPC   NC3 5123  42.306  10.557   9.450
 4528POPC   PO4 5124  42.357  10.502   9.150
 4528POPC   GL1 5125  42.382  10.555   8.850
 4528POPC   GL2 5126  42.208  10.545   8.850
 4528POPC   C1A 5127  42.362  10.537   8.550
 4528POPC   D2A 5128  42.342  10.557   8.250
 4528POPC   C3A 5129  42.310  10.525   7.950
 4528POPC   C4A 5130  42.380  10.496   7.650
 4528POPC   C1B 5131  42.102  10.599   8.550
 4528POPC   C2B 5132  42.089  10.641   8.250
 4528POPC   C3B 5133  42.131  10.590   7.950
 4528POPC   C4B 5134  42.097  10.600   7.650
 4529POPC   NC3 5135  44.710  21.391   9.450
 4529POPC   PO4 5136  44.630  21.430   9.150
 4529POPC   GL1 5137  44.631  21.433   8.850
 4529POPC   GL2 5138  44.623  21.505   8.850
 4529POPC   C1A 5139  44.636  21.356   8.550
 4529POPC   D2A 5140  44.658  21.393   8.250
 4529POPC   C3A 5141  44.617  21.431   7.950
 4529POPC   C4A 5142  44.703  21.370   7.650
 4529POPC   C1B 5143  44.533  21.638   8.550
 4529POPC   C2B 5144  44.586  21.622   8.250
 4529POPC   C3B 5145  44.567  21.592   7.950
 4529POPC   C4B 5146  44.594  21.633   7.650
 4530POPC   NC3 5147  34.535   2.789   9.450
 4530POPC   PO4 5148  34.608   2.785   9.150
 4530POPC   GL1 5149  34.596   2.792   8.850
 4530POPC   GL2 5150  34.435   2.717   8.850
 4530POPC   C1A 5151  34.555   2.789   8.550
 4530POPC   D2A 5152  34.623   2.759   8.250
 4530POPC   C3A 5153  34.578   2.772   7.950
 4530POPC   C4A 5154  34.527   2.795   7.650
 4530POPC   C1B 5155  34.424   2.583   8.550
 4530POPC   C2B 5156  34.369   2.632   8.250
 4530POPC   C3B 5157  34.343   2.592   7.950
 4530POPC   C4B 5158  34.426   2.640   7.650
 4531POPC   NC3 5159   1.967   8.186   9.450
 4531POPC   PO4 5160   1.940   8.177   9.150
 4531POPC   GL1 5161   1.996   8.201   8.850
 4531POPC   GL2 5162   2.077   8.334   8.850
 4531POPC   C1A 5163   2.019   8.161   8.550
 4531POPC   D2A 5164   2.016   8.214   8.250
 4531POPC   C3A 5165   1.949   8.158   7.950
 4531POPC   C4A 5166   1.957   8.213   7.650
 4531POPC   C1B 5167   2.119   8.476   8.550
 4531POPC   C2B 5168   2.131   8.416   8.250
 4531POPC   C3B 5169   2.092   8.410   7.950
 4531POPC   C4B 5170   2.062   8.440   7.650
 4532POPC   NC3 5171   6.598  10.481   9.450
 4532POPC   PO4 5172   6.626  10.553   9.150
 4532POPC   GL1 5173   6.665  10.502   8.850
 4532POPC   GL2 5174   6.543  10.640   8.850
 4532POPC   C1A 5175   6.691  10.499   8.550
 4532POPC   D2A 5176   6.660  10.555   8.250
 4532POPC   C3A 5177   6.666  10.484   7.950
 4532POPC   C4A 5178   6.681  10.492   7.650
 4532POPC   C1B 5179   6.518  10.770   8.550
 4532POPC   C2B 5180   6.570  10.705   8.250
 4532POPC   C3B 5181   6.515  10.762   7.950
 4532POPC   C4B 5182   6.568  10.746   7.650
 4533POPC   NC3 5183  29.154   2.013   9.450
 4533POPC   PO4 5184  29.182   1.951   9.150
 4533POPC   GL1 5185  29.150   1.967   8.850
 4533POPC   GL2 5186  29.237   1.954   8.850
 4533POPC   C1A 5187  29.132   2.040   8.550
 4533POPC   D2A 5188  29.162   1.993   8.250
 4533POPC   C3A 5189  29.095   1.965   7.950
 4533POPC   C4A 5190  29.160   2.007   7.650
 4533POPC   C1B 5191  29.369   1.966   8.550
 4533POPC   C2B 5192  29.392   1.952   8.250
 4533POPC   C3B 5193  29.348   1.974   7.950
 4533POPC   C4B 5194  29.365   1.990   7.650
 4534POPC   NC3 5195  22.131  40.815   9.450
 4534POPC   PO4 5196  22.169  40.746   9.150
 4534POPC   GL1 5197  22.180  40.772   8.850
 4534POPC   GL2 5198  22.299  40.841   8.850
 4534POPC   C1A 5199  22.132  40.785   8.550
 4534POPC   D2A 5200  22.172  40.759   8.250
 4534POPC   C3A 5201  22.130  40.820   7.950
 4534POPC   C4A 5202  22.134  40.770   7.650
 4534POPC   C1B 5203  22.392  40.897   8.550
 4534POPC   C2B 5204  22.343  40.960   8.250
 4534POPC   C3B 5205  22.372  40.892   7.950
 4534POPC   C4B 5206  22.318  40.957   7.650
 4535POPC   NC3 5207  16.710  43.118   9.450
 4535POPC   PO4 5208  16.726  43.077   9.150
 4535POPC   GL1 5209  16.681  43.075   8.850
 4535POPC   GL2 5210  16.659  43.203   8.850
 4535POPC   C1A 5211  16.739  43.075   8.550
 4535POPC   D2A 5212  16.705  43.149   8.250
 4535POPC   C3A 5213  16.772  43.134   7.950
 4535POPC   C4A 5214  16.682  43.111   7.650
 4535POPC   C1B 5215  16.660  43.382   8.550
 4535POPC   C2B 5216  16.656  43.360   8.250
 4535POPC   C3B 5217  16.722  43.323   7.950
 4535POPC   C4B 5218  16.698  43.369   7.650
 4536POPC   NC3 5219  39.229  36.881   9.450
 4536POPC   PO4 5220  39.190  36.953   9.150
 4536POPC   GL1 5221  39.213  36.948   8.850
 4536POPC   GL2 5222  39.332  36.880   8.850
 4536POPC   C1A 5223  39.197  36.892   8.550
 4536POPC   D2A 5224  39.271  36.926   8.250
 4536POPC   C3A 5225  39.201  36.881   7.950
 4536POPC   C4A 5226  39.215  36.905   7.650
 4536POPC   C1B 5227  39.506  36.763   8.550
 4536POPC   C2B 5228  39.496  36.799   8.250
 4536POPC   C3B 5229  39.505  36.809   7.950
 4536POPC   C4B 5230  39.415  36.765   7.650
 4537POPC   NC3 5231  33.043  41.596   9.450
 4537POPC   PO4 5232  33.019  41.564   9.150
 4537POPC   GL1 5233  32.982  41.584   8.850
 4537POPC   GL2 5234  33.180  41.631   8.850
 4537POPC   C1A 5235  33.029  41.547   8.550
 4537POPC   D2A 5236  33.006  41.574   8.250
 4537POPC   C3A 5237  33.003  41.591   7.950
 4537POPC   C4A 5238  33.020  41.555   7.650
 4537POPC   C1B 5239  33.280  41.698   8.550
 4537POPC   C2B 5240  33.233  41.730   8.250
 4537POPC   C3B 5241  33.259  41.690   7.950
 4537POPC   C4B 5242  33.273  41.693   7.650
 4538POPC   NC3 5243   3.544  21.378   9.450
 4538POPC   PO4 5244   3.556  21.409   9.150
 4538POPC   GL1 5245   3.566  21.390   8.850
 4538POPC   GL2 5246   3.420  21.298   8.850
 4538POPC   C1A 5247   3.556  21.429   8.550
 4538POPC   D2A 5248   3.500  21.398   8.250
 4538POPC   C3A 5249   3.572  21.407   7.950
 4538POPC   C4A 5250   3.531  21.354   7.650
 4538POPC   C1B 5251   3.355  21.244   8.550
 4538POPC   C2B 5252   3.353  21.243   8.250
 4538POPC   C3B 5253   3.337  21.292   7.950
 4538POPC   C4B 5254   3.297  21.276   7.650
 4539POPC   NC3 5255  12.070  12.841   9.450
 4539POPC   PO4 5256  12.087  12.849   9.150
 4539POPC   GL1 5257  12.082  12.863   8.850
 4539POPC   GL2 5258  12.133  12.983   8.850
 4539POPC   C1A 5259  12.102  12.840   8.550
 4539POPC   D2A 5260  12.061  12.858   8.250
 4539POPC   C3A 5261  12.122  12.844   7.950
 4539POPC   C4A 5262  12.100  12.814   7.650
 4539POPC   C1B 5263  12.168  13.104   8.550
 4539POPC   C2B 5264  12.168  13.071   8.250
 4539POPC   C3B 5265  12.238  13.052   7.950
 4539POPC   C4B 5266  12.213  13.036   7.650
 4540POPC   NC3 5267  21.374  15.133   9.450
 4540POPC   PO4 5268  21.396  15.160   9.150
 4540POPC   GL1 5269  21.351  15.175   8.850
 4540POPC   GL2 5270  21.424  15.043   8.850
 4540POPC   C1A 5271  21.383  15.169   8.550
 4540POPC   D2A 5272  21.399  15.209   8.250
 4540POPC   C3A 5273  21.384  15.169   7.950
 4540POPC   C4A 5274  21.344  15.144   7.650
 4540POPC   C1B 5275  21.362  14.927   8.550
 4540POPC   C2B 5276  21.340  14.931   8.250
 4540POPC   C3B 5277  21.364  14.926   7.950
 4540POPC   C4B 5278  21.375  14.946   7.650
 4541POPC   NC3 5279   4.359  44.697   9.450
 4541POPC   PO4 5280   4.361  44.617   9.150
 4541POPC   GL1 5281   4.297  44.705   8.850
 4541POPC   GL2 5282   4.373  44.789   8.850
 4541POPC   C1A 5283   4.271  44.666   8.550
 4541POPC   D2A 5284   4.289  44.667   8.250
 4541POPC   C3A 5285   4.357  44.698   7.950
 4541POPC   C4A 5286   4.285  44.655   7.650
 4541POPC   C1B 5287   4.442  44.862   8.550
 4541POPC   C2B 5288   4.362  44.936   8.250
 4541POPC   C3B 5289   4.396  44.875   7.950
 4541POPC   C4B 5290   4.441  44.902   7.650
 4542POPC   NC3 5291   5.125   4.312   9.450
 4542POPC   PO4 5292   5.116   4.341   9.150
 4542POPC   GL1 5293   5.045   4.291   8.850
 4542POPC   GL2 5294   5.003   4.255   8.850
 4542POPC   C1A 5295   5.075   4.312   8.550
 4542POPC   D2A 5296   5.132   4.334   8.250
 4542POPC   C3A 5297   5.107   4.348   7.950
 4542POPC   C4A 5298   5.130   4.315   7.650
 4542POPC   C1B 5299   4.920   4.164   8.550
 4542POPC   C2B 5300   4.920   4.177   8.250
 4542POPC   C3B 5301   4.936   4.146   7.950
 4542POPC   C4B 5302   4.870   4.193   7.650
 4543POPC   NC3 5303  28.354  26.062   9.450
 4543POPC   PO4 5304  28.372  26.052   9.150
 4543POPC   GL1 5305  28.394  26.061   8.850
 4543POPC   GL2 5306  28.278  25.896   8.850
 4543POPC   C1A 5307  28.330  26.072   8.550
 4543POPC   D2A 5308  28.394  26.085   8.250
 4543POPC   C3A 5309  28.397  26.073   7.950
 4543POPC   C4A 5310  28.341  26.079   7.650
 4543POPC   C1B 5311  28.319  25.760   8.550
 4543POPC   C2B 5312  28.273  25.842   8.250
 4543POPC   C3B 5313  28.233  25.813   7.950
 4543POPC   C4B 5314  28.314  25.817   7.650
 4544POPC   NC3 5315  10.508  40.767   9.450
 4544POPC   PO4 5316  10.532  40.741   9.150
 4544POPC   GL1 5317  10.534  40.826   8.850
 4544POPC   GL2 5318  10.609  40.809   8.850
 4544POPC   C1A 5319  10.512  40.818   8.550
 4544POPC   D2A 5320  10.560  40.758   8.250
 4544POPC   C3A 5321  10.547  40.823   7.950
 4544POPC   C4A 5322  10.494  40.776   7.650
 4544POPC   C1B 5323  10.752  40.830   8.550
 4544POPC   C2B 5324  10.778  40.902   8.250
 4544POPC   C3B 5325  10.788  40.907   7.950
 4544POPC   C4B 5326  10.718  40.830   7.650
 4545POPC   NC3 5327  34.598  30.664   9.450
 4545POPC   PO4 5328  34.555  30.665   9.150
 4545POPC   GL1 5329  34.540  30.647   8.850
 4545POPC   GL2 5330  34.512  30.605   8.850
 4545POPC   C1A 5331  34.625  30.695   8.550
 4545POPC   D2A 5332  34.559  30.738   8.250
 4545POPC   C3A 5333  34.541  30.699   7.950
 4545POPC   C4A 5334  34.532  30.715   7.650
 4545POPC   C1B 5335  34.534  30.484   8.550
 4545POPC   C2B 5336  34.477  30.448   8.250
 4545POPC   C3B 5337  34.491  30.421   7.950
 4545POPC   C4B 5338  34.478  30.482   7.650
 4546POPC   NC3 5339  29.937  35.342   9.450
 4546POPC   PO4 5340  29.907  35.361   9.150
 4546POPC   GL1 5341  29.968  35.362   8.850
 4546POPC   GL2 5342  29.852  35.270   8.850
 4546POPC   C1A 5343  29.894  35.322   8.550
 4546POPC   D2A 5344  29.912  35.385   8.250
 4546POPC   C3A 5345  29.962  35.389   7.950
 4546POPC   C4A 5346  29.875  35.393   7.650
 4546POPC   C1B 5347  29.858  35.154   8.550
 4546POPC   C2B 5348  29.867  35.098   8.250
 4546POPC   C3B 5349  29.906  35.093   7.950
 4546POPC   C4B 5350  29.901  35.090   7.650
 4547POPC   NC3 5351  12.836  28.353   9.450
 4547POPC   PO4 5352  12.804  28.339   9.150
 4547POPC   GL1 5353  12.858  28.414   8.850
 4547POPC   GL2 5354  12.856  28.236   8.850
 4547POPC   C1A 5355  12.868  28.338   8.550
 4547POPC   D2A 5356  12.870  28.369   8.250
 4547POPC   C3A 5357  12.835  28.389   7.950
 4547POPC   C4A 5358  12.856  28.328   7.650
 4547POPC   C1B 5359  12.769  28.147   8.550
 4547POPC   C2B 5360  12.791  28.155   8.250
 4547POPC   C3B 5361  12.790  28.162   7.950
 4547POPC   C4B 5362  12.730  28.129   7.650
 4548POPC   NC3 5363  22.910   2.780   9.450
 4548POPC   PO4 5364  22.961   2.781   9.150
 4548POPC   GL1 5365  22.930   2.777   8.850
 4548POPC   GL2 5366  22.995   2.669   8.850
 4548POPC   C1A 5367  22.920   2.785   8.550
 4548POPC   D2A 5368  22.973   2.807   8.250
 4548POPC   C3A 5369  22.930   2.751   7.950
 4548POPC   C4A 5370  22.986   2.735   7.650
 4548POPC   C1B 5371  23.083   2.621   8.550
 4548POPC   C2B 5372  23.091   2.598   8.250
 4548POPC   C3B 5373  23.128   2.623   7.950
 4548POPC   C4B 5374  23.095   2.597   7.650
 4549POPC   NC3 5375   6.681  33.755   9.450
 4549POPC   PO4 5376   6.624  33.766   9.150
 4549POPC   GL1 5377   6.611  33.770   8.850
 4549POPC   GL2 5378   6.770  33.677   8.850
 4549POPC   C1A 5379   6.625  33.798   8.550
 4549POPC   D2A 5380   6.608  33.801   8.250
 4549POPC   C3A 5381   6.631  33.762   7.950
 4549POPC   C4A 5382   6.654  33.771   7.650
 4549POPC   C1B 5383   6.865  33.611   8.550
 4549POPC   C2B 5384   6.772  33.648   8.250
 4549POPC   C3B 5385   6.863  33.641   7.950
 4549POPC   C4B 5386   6.852  33.590   7.650
 4550POPC   NC3 5387  20.584  43.132   9.450
 4550POPC   PO4 5388  20.619  43.068   9.150
 4550POPC   GL1 5389  20.621  43.094   8.850
 4550POPC   GL2 5390  20.764  43.056   8.850
 4550POPC   C1A 5391  20.561  43.096   8.550
 4550POPC   D2A 5392  20.635  43.131   8.250
 4550POPC   C3A 5393  20.628  43.103   7.950
 4550POPC   C4A 5394  20.564  43.135   7.650
 4550POPC   C1B 5395  20.878  43.025   8.550
 4550POPC   C2B 5396  20.800  43.001   8.250
 4550POPC   C3B 5397  20.883  43.034   7.950
 4550POPC   C4B 5398  20.869  43.048   7.650
 4551POPC   NC3 5399  13.644  20.651   9.450
 4551POPC   PO4 5400  13.593  20.591   9.150
 4551POPC   GL1 5401  13.649  20.566   8.850
 4551POPC   GL2 5402  13.616  20.464   8.850
 4551POPC   C1A 5403  13.603  20.569   8.550
 4551POPC   D2A 5404  13.593  20.586   8.250
 4551POPC   C3A 5405  13.671  20.582   7.950
 4551POPC   C4A 5406  13.670  20.627   7.650
 4551POPC   C1B 5407  13.582  20.374   8.550
 4551POPC   C2B 5408  13.676  20.338   8.250
 4551POPC   C3B 5409  13.676  20.353   7.950
 4551POPC   C4B 5410  13.673  20.339   7.650
 4552POPC   NC3 5411  43.158  43.893   9.450
 4552POPC   PO4 5412  43.119  43.894   9.150
 4552POPC   GL1 5413  43.129  43.907   8.850
 4552POPC   GL2 5414  43.134  43.978   8.850
 4552POPC   C1A 5415  43.067  43.917   8.550
 4552POPC   D2A 5416  43.137  43.907   8.250
 4552POPC   C3A 5417  43.118  43.894   7.950
 4552POPC   C4A 5418  43.125  43.866   7.650
 4552POPC   C1B 5419  43.035  44.182   8.550
 4552POPC   C2B 5420  43.077  44.163   8.250
 4552POPC   C3B 5421  43.042  44.143   7.950
 4552POPC   C4B 5422  43.051  44.131   7.650
 4553POPC   NC3 5423  19.072   3.585   9.450
 4553POPC   PO4 5424  19.026   3.553   9.150
 4553POPC   GL1 5425  19.093   3.512   8.850
 4553POPC   GL2 5426  19.153   3.610   8.850
 4553POPC   C1A 5427  19.081   3.500   8.550
 4553POPC   D2A 5428  19.094   3.579   8.250
 4553POPC   C3A 5429  19.097   3.566   7.950
 4553POPC   C4A 5430  19.016   3.494   7.650
 4553POPC   C1B 5431  19.254   3.726   8.550
 4553POPC   C2B 5432  19.205   3.700   8.250
 4553POPC   C3B 5433  19.269   3.754   7.950
 4553POPC   C4B 5434  19.217   3.705   7.650
 4554POPC   NC3 5435  21.389  13.632   9.450
 4554POPC   PO4 5436  21.433  13.677   9.150
 4554POPC   GL1 5437  21.422  13.618   8.850
 4554POPC   GL2 5438  21.364  13.524   8.850
 4554POPC   C1A 5439  21.379  13.613   8.550
 4554POPC   D2A 5440  21.379  13.634   8.250
 4554POPC   C3A 5441  21.429  13.594   7.950
 4554POPC   C4A 5442  21.378  13.662   7.650
 4554POPC   C1B 5443  21.282  13.387   8.550
 4554POPC   C2B 5444  21.277  13.438   8.250
 4554POPC   C3B 5445  21.260  13.381   7.950
 4554POPC   C4B 5446  21.228  13.383   7.650
 4555POPC   NC3 5447  16.693  29.153   9.450
 4555POPC   PO4 5448  16.751  29.096   9.150
 4555POPC   GL1 5449  16.704  29.109   8.850
 4555POPC   GL2 5450  16.704  29.013   8.850
 4555POPC   C1A 5451  16.737  29.166   8.550
 4555POPC   D2A 5452  16.692  29.138   8.250
 4555POPC   C3A 5453  16.779  29.171   7.950
 4555POPC   C4A 5454  16.683  29.178   7.650
 4555POPC   C1B 5455  16.743  28.880   8.550
 4555POPC   C2B 5456  16.721  28.856   8.250
 4555POPC   C3B 5457  16.677  28.877   7.950
 4555POPC   C4B 5458  16.737  28.872   7.650
 4556POPC   NC3 5459   4.334  40.008   9.450
 4556POPC   PO4 5460   4.348  39.996   9.150
 4556POPC   GL1 5461   4.285  40.024   8.850
 4556POPC   GL2 5462   4.349  40.086   8.850
 4556POPC   C1A 5463   4.346  40.005   8.550
 4556POPC   D2A 5464   4.314  39.970   8.250
 4556POPC   C3A 5465   4.282  40.023   7.950
 4556POPC   C4A 5466   4.334  39.975   7.650
 4556POPC   C1B 5467   4.289  40.226   8.550
 4556POPC   C2B 5468   4.326  40.295   8.250
 4556POPC   C3B 5469   4.341  40.211   7.950
 4556POPC   C4B 5470   4.312  40.253   7.650
 4557POPC   NC3 5471  33.843  12.810   9.450
 4557POPC   PO4 5472  33.848  12.885   9.150
 4557POPC   GL1 5473  33.849  12.844   8.850
 4557POPC   GL2 5474  33.811  12.788   8.850
 4557POPC   C1A 5475  33.841  12.860   8.550
 4557POPC   D2A 5476  33.774  12.816   8.250
 4557POPC   C3A 5477  33.812  12.871   7.950
 4557POPC   C4A 5478  33.834  12.900   7.650
 4557POPC   C1B 5479  33.866  12.663   8.550
 4557POPC   C2B 5480  33.941  12.649   8.250
 4557POPC   C3B 5481  33.883  12.604   7.950
 4557POPC   C4B 5482  33.882  12.586   7.650
 4558POPC   NC3 5483   1.180  11.328   9.450
 4558POPC   PO4 5484   1.170  11.254   9.150
 4558POPC   GL1 5485   1.239  11.269   8.850
 4558POPC   GL2 5486   1.263  11.151   8.850
 4558POPC   C1A 5487   1.192  11.285   8.550
 4558POPC   D2A 5488   1.248  11.338   8.250
 4558POPC   C3A 5489   1.210  11.296   7.950
 4558POPC   C4A 5490   1.205  11.332   7.650
 4558POPC   C1B 5491   1.379  11.047   8.550
 4558POPC   C2B 5492   1.364  11.140   8.250
 4558POPC   C3B 5493   1.353  11.062   7.950
 4558POPC   C4B 5494   1.370  11.122   7.650
 4559POPC   NC3 5495  36.117  33.030   9.450
 4559POPC   PO4 5496  36.124  33.060   9.150
 4559POPC   GL1 5497  36.135  33.009   8.850
 4559POPC   GL2 5498  36.058  33.094   8.850
 4559POPC   C1A 5499  36.170  33.052   8.550
 4559POPC   D2A 5500  36.168  32.991   8.250
 4559POPC   C3A 5501  36.162  33.029   7.950
 4559POPC   C4A 5502  36.153  33.040   7.650
 4559POPC   C1B 5503  35.907  33.170   8.550
 4559POPC   C2B 5504  35.904  33.225   8.250
 4559POPC   C3B 5505  35.926  33.206   7.950
 4559POPC   C4B 5506  35.904  33.141   7.650
 4560POPC   NC3 5507  23.758  38.505   9.450
 4560POPC   PO4 5508  23.726  38.475   9.150
 4560POPC   GL1 5509  23.759  38.407   8.850
 4560POPC   GL2 5510  23.586  38.398   8.850
 4560POPC   C1A 5511  23.667  38.457   8.550
 4560POPC   D2A 5512  23.678  38.475   8.250
 4560POPC   C3A 5513  23.688  38.409   7.950
 4560POPC   C4A 5514  23.760  38.485   7.650
 4560POPC   C1B 5515  23.425  38.372   8.550
 4560POPC   C2B 5516  23.482  38.425   8.250
 4560POPC   C3B 5517  23.511  38.394   7.950
 4560POPC   C4B 5518  23.515  38.431   7.650
 4561POPC   NC3 5519  14.438  15.194   9.450
 4561POPC   PO4 5520  14.401  15.219   9.150
 4561POPC   GL1 5521  14.449  15.202   8.850
 4561POPC   GL2 5522  14.325  15.263   8.850
 4561POPC   C1A 5523  14.364  15.221   8.550
 4561POPC   D2A 5524  14.414  15.218   8.250
 4561POPC   C3A 5525  14.408  15.217   7.950
 4561POPC   C4A 5526  14.393  15.213   7.650
 4561POPC   C1B 5527  14.208  15.399   8.550
 4561POPC   C2B 5528  14.217  15.369   8.250
 4561POPC   C3B 5529  14.193  15.390   7.950
 4561POPC   C4B 5530  14.190  15.314   7.650
 4562POPC   NC3 5531   4.343  24.475   9.450
 4562POPC   PO4 5532   4.304  24.517   9.150
 4562POPC   GL1 5533   4.326  24.459   8.850
 4562POPC   GL2 5534   4.313  24.387   8.850
 4562POPC   C1A 5535   4.342  24.487   8.550
 4562POPC   D2A 5536   4.350  24.469   8.250
 4562POPC   C3A 5537   4.341  24.519   7.950
 4562POPC   C4A 5538   4.274  24.515   7.650
 4562POPC   C1B 5539   4.311  24.276   8.550
 4562POPC   C2B 5540   4.307  24.281   8.250
 4562POPC   C3B 5541   4.340  24.203   7.950
 4562POPC   C4B 5542   4.260  24.238   7.650
 4563POPC   NC3 5543  16.733  26.005   9.450
 4563POPC   PO4 5544  16.717  26.052   9.150
 4563POPC   GL1 5545  16.760  26.023   8.850
 4563POPC   GL2 5546  16.649  26.080   8.850
 4563POPC   C1A 5547  16.722  26.035   8.550
 4563POPC   D2A 5548  16.685  26.085   8.250
 4563POPC   C3A 5549  16.752  26.066   7.950
 4563POPC   C4A 5550  16.716  26.002   7.650
 4563POPC   C1B 5551  16.530  26.082   8.550
 4563POPC   C2B 5552  16.497  26.101   8.250
 4563POPC   C3B 5553  16.514  26.065   7.950
 4563POPC   C4B 5554  16.515  26.057   7.650
 4564POPC   NC3 5555  12.045  22.966   9.450
 4564POPC   PO4 5556  12.049  22.986   9.150
 4564POPC   GL1 5557  12.027  22.942   8.850
 4564POPC   GL2 5558  11.931  23.009   8.850
 4564POPC   C1A 5559  12.074  22.948   8.550
 4564POPC   D2A 5560  12.072  22.898   8.250
 4564POPC   C3A 5561  12.047  22.978   7.950
 4564POPC   C4A 5562  12.056  22.961   7.650
 4564POPC   C1B 5563  11.831  23.127   8.550
 4564POPC   C2B 5564  11.920  23.108   8.250
 4564POPC   C3B 5565  11.891  23.071   7.950
 4564POPC   C4B 5566  11.865  23.073   7.650
 4565POPC   NC3 5567   9.798  41.527   9.450
 4565POPC   PO4 5568   9.771  41.562   9.150
 4565POPC   GL1 5569   9.798  41.586   8.850
 4565POPC   GL2 5570   9.666  41.531   8.850
 4565POPC   C1A 5571   9.720  41.606   8.550
 4565POPC   D2A 5572   9.747  41.514   8.250
 4565POPC   C3A 5573   9.792  41.598   7.950
 4565POPC   C4A 5574   9.785  41.521   7.650
 4565POPC   C1B 5575   9.482  41.560   8.550
 4565POPC   C2B 5576   9.457  41.517   8.250
 4565POPC   C3B 5577   9.499  41.552   7.950
 4565POPC   C4B 5578   9.461  41.511   7.650
 4566POPC   NC3 5579  42.285  13.601   9.450
 4566POPC   PO4 5580  42.335  13.626   9.150
 4566POPC   GL1 5581  42.336  13.658   8.850
 4566POPC   GL2 5582  42.318  13.793   8.850
 4566POPC   C1A 5583  42.295  13.670   8.550
 4566POPC   D2A 5584  42.359  13.636   8.250
 4566POPC   C3A 5585  42.373  13.595   7.950
 4566POPC   C4A 5586  42.294  13.590   7.650
 4566POPC   C1B 5587  42.438  13.865   8.550
 4566POPC   C2B 5588  42.391  13.841   8.250
 4566POPC   C3B 5589  42.402  13.891   7.950
 4566POPC   C4B 5590  42.437  13.822   7.650
 4567POPC   NC3 5591  23.674  34.582   9.450
 4567POPC   PO4 5592  23.719  34.613   9.150
 4567POPC   GL1 5593  23.684  34.584   8.850
 4567POPC   GL2 5594  23.658  34.453   8.850
 4567POPC   C1A 5595  23.704  34.573   8.550
 4567POPC   D2A 5596  23.762  34.590   8.250
 4567POPC   C3A 5597  23.733  34.546   7.950
 4567POPC   C4A 5598  23.754  34.541   7.650
 4567POPC   C1B 5599  23.603  34.371   8.550
 4567POPC   C2B 5600  23.597  34.379   8.250
 4567POPC   C3B 5601  23.606  34.394   7.950
 4567POPC   C4B 5602  23.618  34.313   7.650
 4568POPC   NC3 5603  26.074  15.201   9.450
 4568POPC   PO4 5604  25.999  15.159   9.150
 4568POPC   GL1 5605  26.064  15.163   8.850
 4568POPC   GL2 5606  26.115  15.221   8.850
 4568POPC   C1A 5607  26.074  15.167   8.550
 4568POPC   D2A 5608  26.062  15.225   8.250
 4568POPC   C3A 5609  26.000  15.199   7.950
 4568POPC   C4A 5610  26.038  15.184   7.650
 4568POPC   C1B 5611  26.236  15.272   8.550
 4568POPC   C2B 5612  26.219  15.260   8.250
 4568POPC   C3B 5613  26.303  15.288   7.950
 4568POPC   C4B 5614  26.250  15.320   7.650
 4569POPC   NC3 5615  24.477  36.164   9.450
 4569POPC   PO4 5616  24.443  36.141   9.150
 4569POPC   GL1 5617  24.510  36.177   8.850
 4569POPC   GL2 5618  24.605  36.221   8.850
 4569POPC   C1A 5619  24.448  36.172   8.550
 4569POPC   D2A 5620  24.463  36.095   8.250
 4569POPC   C3A 5621  24.536  36.102   7.950
 4569POPC   C4A 5622  24.520  36.118   7.650
 4569POPC   C1B 5623  24.703  36.266   8.550
 4569POPC   C2B 5624  24.686  36.249   8.250
 4569POPC   C3B 5625  24.740  36.289   7.950
 4569POPC   C4B 5626  24.736  36.289   7.650
 4570POPC   NC3 5627   1.241  15.910   9.450
 4570POPC   PO4 5628   1.255  15.986   9.150
 4570POPC   GL1 5629   1.218  15.949   8.850
 4570POPC   GL2 5630   1.143  15.963   8.850
 4570POPC   C1A 5631   1.204  15.986   8.550
 4570POPC   D2A 5632   1.205  15.923   8.250
 4570POPC   C3A 5633   1.181  15.927   7.950
 4570POPC   C4A 5634   1.228  15.962   7.650
 4570POPC   C1B 5635   0.944  16.025   8.550
 4570POPC   C2B 5636   0.992  16.056   8.250
 4570POPC   C3B 5637   1.027  16.056   7.950
 4570POPC   C4B 5638   0.984  16.024   7.650
 4571POPC   NC3 5639  43.105   6.647   9.450
 4571POPC   PO4 5640  43.157   6.599   9.150
 4571POPC   GL1 5641  43.141   6.655   8.850
 4571POPC   GL2 5642  43.243   6.667   8.850
 4571POPC   C1A 5643  43.122   6.679   8.550
 4571POPC   D2A 5644  43.078   6.666   8.250
 4571POPC   C3A 5645  43.105   6.641   7.950
 4571POPC   C4A 5646  43.069   6.597   7.650
 4571POPC   C1B 5647  43.344   6.662   8.550
 4571POPC   C2B 5648  43.368   6.683   8.250
 4571POPC   C3B 5649  43.395   6.695   7.950
 4571POPC   C4B 5650  43.314   6.613   7.650
 4572POPC   NC3 5651  41.566   9.705   9.450
 4572POPC   PO4 5652  41.586   9.741   9.150
 4572POPC   GL1 5653  41.597   9.757   8.850
 4572POPC   GL2 5654  41.647   9.892   8.850
 4572POPC   C1A 5655  41.597   9.775   8.550
 4572POPC   D2A 5656  41.596   9.793   8.250
 4572POPC   C3A 5657  41.515   9.793   7.950
 4572POPC   C4A 5658  41.515   9.737   7.650
 4572POPC   C1B 5659  41.678   9.973   8.550
 4572POPC   C2B 5660  41.664  10.016   8.250
 4572POPC   C3B 5661  41.639  10.000   7.950
 4572POPC   C4B 5662  41.616   9.969   7.650
 4573POPC   NC3 5663  26.013  33.055   9.450
 4573POPC   PO4 5664  26.062  33.071   9.150
 4573POPC   GL1 5665  26.046  33.068   8.850
 4573POPC   GL2 5666  25.958  32.992   8.850
 4573POPC   C1A 5667  26.029  33.046   8.550
 4573POPC   D2A 5668  26.022  33.014   8.250
 4573POPC   C3A 5669  25.992  32.996   7.950
 4573POPC   C4A 5670  26.044  32.976   7.650
 4573POPC   C1B 5671  25.782  33.012   8.550
 4573POPC   C2B 5672  25.766  33.020   8.250
 4573POPC   C3B 5673  25.792  33.045   7.950
 4573POPC   C4B 5674  25.828  33.054   7.650
 4574POPC   NC3 5675  22.944   8.237   9.450
 4574POPC   PO4 5676  22.895   8.220   9.150
 4574POPC   GL1 5677  22.956   8.225   8.850
 4574POPC   GL2 5678  22.950   8.310   8.850
 4574POPC   C1A 5679  22.938   8.175   8.550
 4574POPC   D2A 5680  22.923   8.221   8.250
 4574POPC   C3A 5681  22.964   8.184   7.950
 4574POPC   C4A 5682  22.964   8.191   7.650
 4574POPC   C1B 5683  22.926   8.460   8.550
 4574POPC   C2B 5684  22.917   8.485   8.250
 4574POPC   C3B 5685  22.947   8.402   7.950
 4574POPC   C4B 5686  22.919   8.481   7.650
 4575POPC   NC3 5687   1.263  12.121   9.450
 4575POPC   PO4 5688   1.236  12.109   9.150
 4575POPC   GL1 5689   1.220  12.027   8.850
 4575POPC   GL2 5690   1.125  12.211   8.850
 4575POPC   C1A 5691   1.172  12.105   8.550
 4575POPC   D2A 5692   1.257  12.064   8.250
 4575POPC   C3A 5693   1.178  12.042   7.950
 4575POPC   C4A 5694   1.197  12.113   7.650
 4575POPC   C1B 5695   1.078  12.274   8.550
 4575POPC   C2B 5696   1.036  12.260   8.250
 4575POPC   C3B 5697   1.049  12.260   7.950
 4575POPC   C4B 5698   1.034  12.291   7.650
 4576POPC   NC3 5699   7.428  11.292   9.450
 4576POPC   PO4 5700   7.424  11.300   9.150
 4576POPC   GL1 5701   7.449  11.300   8.850
 4576POPC   GL2 5702   7.515  11.323   8.850
 4576POPC   C1A 5703   7.439  11.294   8.550
 4576POPC   D2A 5704   7.441  11.345   8.250
 4576POPC   C3A 5705   7.468  11.273   7.950
 4576POPC   C4A 5706   7.456  11.253   7.650
 4576POPC   C1B 5707   7.615  11.314   8.550
 4576POPC   C2B 5708   7.713  11.381   8.250
 4576POPC   C3B 5709   7.705  11.336   7.950
 4576POPC   C4B 5710   7.614  11.385   7.650
 4577POPC   NC3 5711   6.679  32.231   9.450
 4577POPC   PO4 5712   6.606  32.260   9.150
 4577POPC   GL1 5713   6.621  32.228   8.850
 4577POPC   GL2 5714   6.663  32.369   8.850
 4577POPC   C1A 5715   6.631  32.281   8.550
 4577POPC   D2A 5716   6.669  32.203   8.250
 4577POPC   C3A 5717   6.617  32.201   7.950
 4577POPC   C4A 5718   6.600  32.207   7.650
 4577POPC   C1B 5719   6.593  32.458   8.550
 4577POPC   C2B 5720   6.667  32.493   8.250
 4577POPC   C3B 5721   6.664  32.462   7.950
 4577POPC   C4B 5722   6.580  32.497   7.650
 4578POPC   NC3 5723  20.644  15.967   9.450
 4578POPC   PO4 5724  20.632  15.990   9.150
 4578POPC   GL1 5725  20.660  15.939   8.850
 4578POPC   GL2 5726  20.576  15.857   8.850
 4578POPC   C1A 5727  20.622  15.999   8.550
 4578POPC   D2A 5728  20.586  15.971   8.250
 4578POPC   C3A 5729  20.572  15.916   7.950
 4578POPC   C4A 5730  20.660  15.923   7.650
 4578POPC   C1B 5731  20.635  15.743   8.550
 4578POPC   C2B 5732  20.660  15.741   8.250
 4578POPC   C3B 5733  20.629  15.715   7.950
 4578POPC   C4B 5734  20.660  15.722   7.650
 4579POPC   NC3 5735  35.400  18.309   9.450
 4579POPC   PO4 5736  35.368  18.268   9.150
 4579POPC   GL1 5737  35.399  18.264   8.850
 4579POPC   GL2 5738  35.414  18.399   8.850
 4579POPC   C1A 5739  35.357  18.330   8.550
 4579POPC   D2A 5740  35.339  18.311   8.250
 4579POPC   C3A 5741  35.317  18.314   7.950
 4579POPC   C4A 5742  35.344  18.278   7.650
 4579POPC   C1B 5743  35.582  18.443   8.550
 4579POPC   C2B 5744  35.562  18.462   8.250
 4579POPC   C3B 5745  35.517  18.405   7.950
 4579POPC   C4B 5746  35.560  18.492   7.650
 4580POPC   NC3 5747  22.971  29.158   9.450
 4580POPC   PO4 5748  22.937  29.159   9.150
 4580POPC   GL1 5749  22.962  29.163   8.850
 4580POPC   GL2 5750  23.031  29.213   8.850
 4580POPC   C1A 5751  22.910  29.187   8.550
 4580POPC   D2A 5752  22.941  29.173   8.250
 4580POPC   C3A 5753  22.903  29.147   7.950
 4580POPC   C4A 5754  22.954  29.150   7.650
 4580POPC   C1B 5755  23.088  29.280   8.550
 4580POPC   C2B 5756  23.114  29.267   8.250
 4580POPC   C3B 5757  23.154  29.302   7.950
 4580POPC   C4B 5758  23.139  29.281   7.650
 4581POPC   NC3 5759  36.093  28.381   9.450
 4581POPC   PO4 5760  36.079  28.388   9.150
 4581POPC   GL1 5761  36.104  28.389   8.850
 4581POPC   GL2 5762  36.246  28.231   8.850
 4581POPC   C1A 5763  36.131  28.332   8.550
 4581POPC   D2A 5764  36.098  28.366   8.250
 4581POPC   C3A 5765  36.136  28.394   7.950
 4581POPC   C4A 5766  36.084  28.325   7.650
 4581POPC   C1B 5767  36.314  28.184   8.550
 4581POPC   C2B 5768  36.280  28.137   8.250
 4581POPC   C3B 5769  36.321  28.132   7.950
 4581POPC   C4B 5770  36.270  28.153   7.650
 4582POPC   NC3 5771  29.944  22.928   9.450
 4582POPC   PO4 5772  29.874  22.925   9.150
 4582POPC   GL1 5773  29.908  22.968   8.850
 4582POPC   GL2 5774  29.755  22.953   8.850
 4582POPC   C1A 5775  29.886  22.943   8.550
 4582POPC   D2A 5776  29.907  22.936   8.250
 4582POPC   C3A 5777  29.947  22.983   7.950
 4582POPC   C4A 5778  29.898  22.975   7.650
 4582POPC   C1B 5779  29.718  22.919   8.550
 4582POPC   C2B 5780  29.722  22.841   8.250
 4582POPC   C3B 5781  29.654  22.930   7.950
 4582POPC   C4B 5782  29.705  22.926   7.650
 4583POPC   NC3 5783   4.312  18.245   9.450
 4583POPC   PO4 5784   4.328  18.234   9.150
 4583POPC   GL1 5785   4.354  18.260   8.850
 4583POPC   GL2 5786   4.423  18.341   8.850
 4583POPC   C1A 5787   4.358  18.321   8.550
 4583POPC   D2A 5788   4.364  18.307   8.250
 4583POPC   C3A 5789   4.358  18.321   7.950
 4583POPC   C4A 5790   4.361  18.293   7.650
 4583POPC   C1B 5791   4.458  18.490   8.550
 4583POPC   C2B 5792   4.440  18.484   8.250
 4583POPC   C3B 5793   4.490  18.454   7.950
 4583POPC   C4B 5794   4.481  18.481   7.650
 4584POPC   NC3 5795  25.254   0.434   9.450
 4584POPC   PO4 5796  25.260   0.434   9.150
 4584POPC   GL1 5797  25.224   0.438   8.850
 4584POPC   GL2 5798  25.428   0.528   8.850
 4584POPC   C1A 5799  25.235   0.426   8.550
 4584POPC   D2A 5800  25.276   0.404   8.250
 4584POPC   C3A 5801  25.224   0.391   7.950
 4584POPC   C4A 5802  25.258   0.417   7.650
 4584POPC   C1B 5803  25.451   0.556   8.550
 4584POPC   C2B 5804  25.524   0.550   8.250
 4584POPC   C3B 5805  25.489   0.525   7.950
 4584POPC   C4B 5806  25.505   0.489   7.650
 4585POPC   NC3 5807  44.672  20.645   9.450
 4585POPC   PO4 5808  44.655  20.579   9.150
 4585POPC   GL1 5809  44.630  20.631   8.850
 4585POPC   GL2 5810  44.743  20.687   8.850
 4585POPC   C1A 5811  44.627  20.604   8.550
 4585POPC   D2A 5812  44.659  20.601   8.250
 4585POPC   C3A 5813  44.677  20.657   7.950
 4585POPC   C4A 5814  44.613  20.606   7.650
 4585POPC   C1B 5815  44.897  20.678   8.550
 4585POPC   C2B 5816  44.861  20.649   8.250
 4585POPC   C3B 5817  44.874  20.686   7.950
 4585POPC   C4B 5818  44.872  20.690   7.650
 4586POPC   NC3 5819  12.051  30.657   9.450
 4586POPC   PO4 5820  12.063  30.740   9.150
 4586POPC   GL1 5821  12.110  30.733   8.850
 4586POPC   GL2 5822  12.145  30.844   8.850
 4586POPC   C1A 5823  12.060  30.723   8.550
 4586POPC   D2A 5824  12.123  30.745   8.250
 4586POPC   C3A 5825  12.041  30.703   7.950
 4586POPC   C4A 5826  12.121  30.670   7.650
 4586POPC   C1B 5827  12.177  30.926   8.550
 4586POPC   C2B 5828  12.135  30.981   8.250
 4586POPC   C3B 5829  12.139  30.962   7.950
 4586POPC   C4B 5830  12.145  30.969   7.650
 4587POPC   NC3 5831  15.192  12.057   9.450
 4587POPC   PO4 5832  15.195  12.069   9.150
 4587POPC   GL1 5833  15.194  12.094   8.850
 4587POPC   GL2 5834  15.174  11.958   8.850
 4587POPC   C1A 5835  15.206  12.116   8.550
 4587POPC   D2A 5836  15.166  12.106   8.250
 4587POPC   C3A 5837  15.162  12.100   7.950
 4587POPC   C4A 5838  15.171  12.087   7.650
 4587POPC   C1B 5839  15.122  11.813   8.550
 4587POPC   C2B 5840  15.047  11.883   8.250
 4587POPC   C3B 5841  15.071  11.829   7.950
 4587POPC   C4B 5842  15.108  11.867   7.650
 4588POPC   NC3 5843  17.485  36.161   9.450
 4588POPC   PO4 5844  17.536  36.081   9.150
 4588POPC   GL1 5845  17.542  36.133   8.850
 4588POPC   GL2 5846  17.486  36.002   8.850
 4588POPC   C1A 5847  17.507  36.135   8.550
 4588POPC   D2A 5848  17.522  36.099   8.250
 4588POPC   C3A 5849  17.549  36.101   7.950
 4588POPC   C4A 5850  17.488  36.156   7.650
 4588POPC   C1B 5851  17.468  35.895   8.550
 4588POPC   C2B 5852  17.416  35.917   8.250
 4588POPC   C3B 5853  17.397  35.897   7.950
 4588POPC   C4B 5854  17.452  35.856   7.650
 4589POPC   NC3 5855  43.904  36.139   9.450
 4589POPC   PO4 5856  43.927  36.109   9.150
 4589POPC   GL1 5857  43.923  36.115   8.850
 4589POPC   GL2 5858  43.760  36.235   8.850
 4589POPC   C1A 5859  43.865  36.169   8.550
 4589POPC   D2A 5860  43.842  36.097   8.250
 4589POPC   C3A 5861  43.885  36.126   7.950
 4589POPC   C4A 5862  43.925  36.128   7.650
 4589POPC   C1B 5863  43.699  36.296   8.550
 4589POPC   C2B 5864  43.739  36.279   8.250
 4589POPC   C3B 5865  43.671  36.251   7.950
 4589POPC   C4B 5866  43.698  36.312   7.650
 4590POPC   NC3 5867  43.890  12.824   9.450
 4590POPC   PO4 5868  43.881  12.829   9.150
 4590POPC   GL1 5869  43.870  12.886   8.850
 4590POPC   GL2 5870  43.730  12.785   8.850
 4590POPC   C1A 5871  43.875  12.831   8.550
 4590POPC   D2A 5872  43.874  12.892   8.250
 4590POPC   C3A 5873  43.881  12.838   7.950
 4590POPC   C4A 5874  43.919  12.802   7.650
 4590POPC   C1B 5875  43.601  12.785   8.550
 4590POPC   C2B 5876  43.612  12.758   8.250
 4590POPC   C3B 5877  43.694  12.741   7.950
 4590POPC   C4B 5878  43.645  12.748   7.650
 4591POPC   NC3 5879  34.561  33.769   9.450
 4591POPC   PO4 5880  34.562  33.765   9.150
 4591POPC   GL1 5881  34.618  33.784   8.850
 4591POPC   GL2 5882  34.623  33.909   8.850
 4591POPC   C1A 5883  34.577  33.797   8.550
 4591POPC   D2A 5884  34.551  33.762   8.250
 4591POPC   C3A 5885  34.599  33.839   7.950
 4591POPC   C4A 5886  34.603  33.790   7.650
 4591POPC   C1B 5887  34.721  33.991   8.550
 4591POPC   C2B 5888  34.718  34.011   8.250
 4591POPC   C3B 5889  34.693  34.054   7.950
 4591POPC   C4B 5890  34.648  33.987   7.650
 4592POPC   NC3 5891   5.053  26.060   9.450
 4592POPC   PO4 5892   5.050  26.054   9.150
 4592POPC   GL1 5893   5.122  26.072   8.850
 4592POPC   GL2 5894   5.186  26.108   8.850
 4592POPC   C1A 5895   5.111  26.001   8.550
 4592POPC   D2A 5896   5.124  26.028   8.250
 4592POPC   C3A 5897   5.072  26.067   7.950
 4592POPC   C4A 5898   5.100  25.999   7.650
 4592POPC   C1B 5899   5.347  26.109   8.550
 4592POPC   C2B 5900   5.289  26.138   8.250
 4592POPC   C3B 5901   5.322  26.192   7.950
 4592POPC   C4B 5902   5.311  26.136   7.650
 4593POPC   NC3 5903   8.974  36.910   9.450
 4593POPC   PO4 5904   8.965  36.883   9.150
 4593POPC   GL1 5905   9.003  36.884   8.850
 4593POPC   GL2 5906   8.848  37.003   8.850
 4593POPC   C1A 5907   8.930  36.953   8.550
 4593POPC   D2A 5908   8.950  36.891   8.250
 4593POPC   C3A 5909   8.954  36.931   7.950
 4593POPC   C4A 5910   8.967  36.910   7.650
 4593POPC   C1B 5911   8.804  37.094   8.550
 4593POPC   C2B 5912   8.751  37.053   8.250
 4593POPC   C3B 5913   8.801  37.018   7.950
 4593POPC   C4B 5914   8.732  37.040   7.650
 4594POPC   NC3 5915   0.459  10.572   9.450
 4594POPC   PO4 5916   0.464  10.551   9.150
 4594POPC   GL1 5917   0.422  10.506   8.850
 4594POPC   GL2 5918   0.361  10.619   8.850
 4594POPC   C1A 5919   0.474  10.481   8.550
 4594POPC   D2A 5920   0.418  10.489   8.250
 4594POPC   C3A 5921   0.475  10.482   7.950
 4594POPC   C4A 5922   0.459  10.524   7.650
 4594POPC   C1B 5923   0.157  10.652   8.550
 4594POPC   C2B 5924   0.239  10.643   8.250
 4594POPC   C3B 5925   0.193  10.576   7.950
 4594POPC   C4B 5926   0.168  10.634   7.650
 4595POPC   NC3 5927   2.776  22.138   9.450
 4595POPC   PO4 5928   2.815  22.164   9.150
 4595POPC   GL1 5929   2.768  22.114   8.850
 4595POPC   GL2 5930   2.838  22.291   8.850
 4595POPC   C1A 5931   2.733  22.175   8.550
 4595POPC   D2A 5932   2.784  22.134   8.250
 4595POPC   C3A 5933   2.792  22.190   7.950
 4595POPC   C4A 5934   2.753  22.190   7.650
 4595POPC   C1B 5935   2.912  22.360   8.550
 4595POPC   C2B 5936   2.942  22.346   8.250
 4595POPC   C3B 5937   2.930  22.337   7.950
 4595POPC   C4B 5938   2.952  22.369   7.650
 4596POPC   NC3 5939  20.622  30.655   9.450
 4596POPC   PO4 5940  20.605  30.664   9.150
 4596POPC   GL1 5941  20.588  30.702   8.850
 4596POPC   GL2 5942  20.624  30.626   8.850
 4596POPC   C1A 5943  20.593  30.729   8.550
 4596POPC   D2A 5944  20.631  30.724   8.250
 4596POPC   C3A 5945  20.593  30.742   7.950
 4596POPC   C4A 5946  20.572  30.649   7.650
 4596POPC   C1B 5947  20.776  30.494   8.550
 4596POPC   C2B 5948  20.711  30.523   8.250
 4596POPC   C3B 5949  20.752  30.514   7.950
 4596POPC   C4B 5950  20.733  30.491   7.650
 4597POPC   NC3 5951  14.428   8.166   9.450
 4597POPC   PO4 5952  14.404   8.240   9.150
 4597POPC   GL1 5953  14.392   8.191   8.850
 4597POPC   GL2 5954  14.482   8.273   8.850
 4597POPC   C1A 5955  14.384   8.147   8.550
 4597POPC   D2A 5956  14.360   8.178   8.250
 4597POPC   C3A 5957  14.431   8.156   7.950
 4597POPC   C4A 5958  14.414   8.234   7.650
 4597POPC   C1B 5959  14.546   8.350   8.550
 4597POPC   C2B 5960  14.512   8.351   8.250
 4597POPC   C3B 5961  14.551   8.443   7.950
 4597POPC   C4B 5962  14.529   8.418   7.650
 4598POPC   NC3 5963   2.014  35.326   9.450
 4598POPC   PO4 5964   2.025  35.384   9.150
 4598POPC   GL1 5965   2.025  35.331   8.850
 4598POPC   GL2 5966   2.003  35.453   8.850
 4598POPC   C1A 5967   2.007  35.328   8.550
 4598POPC   D2A 5968   1.985  35.351   8.250
 4598POPC   C3A 5969   1.973  35.375   7.950
 4598POPC   C4A 5970   2.005  35.322   7.650
 4598POPC   C1B 5971   2.048  35.616   8.550
 4598POPC   C2B 5972   2.084  35.544   8.250
 4598POPC   C3B 5973   2.038  35.577   7.950
 4598POPC   C4B 5974   2.079  35.550   7.650
 4599POPC   NC3 5975  33.000  38.430   9.450
 4599POPC   PO4 5976  32.987  38.436   9.150
 4599POPC   GL1 5977  33.045  38.487   8.850
 4599POPC   GL2 5978  32.923  38.366   8.850
 4599POPC   C1A 5979  32.985  38.465   8.550
 4599POPC   D2A 5980  33.066  38.485   8.250
 4599POPC   C3A 5981  33.031  38.429   7.950
 4599POPC   C4A 5982  33.063  38.463   7.650
 4599POPC   C1B 5983  32.820  38.307   8.550
 4599POPC   C2B 5984  32.850  38.283   8.250
 4599POPC   C3B 5985  32.777  38.302   7.950
 4599POPC   C4B 5986  32.846  38.300   7.650
 4600POPC   NC3 5987  35.335   3.547   9.450
 4600POPC   PO4 5988  35.328   3.572   9.150
 4600POPC   GL1 5989  35.373   3.507   8.850
 4600POPC   GL2 5990  35.309   3.452   8.850
 4600POPC   C1A 5991  35.347   3.510   8.550
 4600POPC   D2A 5992  35.364   3.534   8.250
 4600POPC   C3A 5993  35.375   3.551   7.950
 4600POPC   C4A 5994  35.327   3.586   7.650
 4600POPC   C1B 5995  35.376   3.334   8.550
 4600POPC   C2B 5996  35.317   3.313   8.250
 4600POPC   C3B 5997  35.319   3.342   7.950
 4600POPC   C4B 5998  35.289   3.292   7.650
 4601POPC   NC3 5999  30.686   5.869   9.450
 4601POPC   PO4 6000  30.712   5.854   9.150
 4601POPC   GL1 6001  30.697   5.831   8.850
 4601POPC   GL2 6002  30.670   6.042   8.850
 4601POPC   C1A 6003  30.657   5.868   8.550
 4601POPC   D2A 6004  30.661   5.883   8.250
 4601POPC   C3A 6005  30.676   5.836   7.950
 4601POPC   C4A 6006  30.654   5.903   7.650
 4601POPC   C1B 6007  30.730   6.150   8.550
 4601POPC   C2B 6008  30.782   6.074   8.250
 4601POPC   C3B 6009  30.762   6.115   7.950
 4601POPC   C4B 6010  30.689   6.145   7.650
 4602POPC   NC3 6011  33.753  40.788   9.450
 4602POPC   PO4 6012  33.781  40.802   9.150
 4602POPC   GL1 6013  33.753  40.800   8.850
 4602POPC   GL2 6014  33.643  40.740   8.850
 4602POPC   C1A 6015  33.805  40.792   8.550
 4602POPC   D2A 6016  33.816  40.766   8.250
 4602POPC   C3A 6017  33.820  40.778   7.950
 4602POPC   C4A 6018  33.843  40.810   7.650
 4602POPC   C1B 6019  33.619  40.668   8.550
 4602POPC   C2B 6020  33.591  40.640   8.250
 4602POPC   C3B 6021  33.590  40.666   7.950
 4602POPC   C4B 6022  33.541  40.652   7.650
 4603POPC   NC3 6023  18.268   4.329   9.450
 4603POPC   PO4 6024  18.256   4.355   9.150
 4603POPC   GL1 6025  18.257   4.324   8.850
 4603POPC   GL2 6026  18.410   4.412   8.850
 4603POPC   C1A 6027  18.299   4.296   8.550
 4603POPC   D2A 6028  18.243   4.353   8.250
 4603POPC   C3A 6029  18.239   4.313   7.950
 4603POPC   C4A 6030  18.258   4.281   7.650
 4603POPC   C1B 6031  18.526   4.425   8.550
 4603POPC   C2B 6032  18.498   4.480   8.250
 4603POPC   C3B 6033  18.502   4.480   7.950
 4603POPC   C4B 6034  18.469   4.438   7.650
 4604POPC   NC3 6035   0.485   2.810   9.450
 4604POPC   PO4 6036   0.438   2.772   9.150
 4604POPC   GL1 6037   0.469   2.794   8.850
 4604POPC   GL2 6038   0.391   2.642   8.850
 4604POPC   C1A 6039   0.440   2.736   8.550
 4604POPC   D2A 6040   0.454   2.791   8.250
 4604POPC   C3A 6041   0.443   2.778   7.950
 4604POPC   C4A 6042   0.390   2.733   7.650
 4604POPC   C1B 6043   0.419   2.513   8.550
 4604POPC   C2B 6044   0.405   2.522   8.250
 4604POPC   C3B 6045   0.410   2.535   7.950
 4604POPC   C4B 6046   0.371   2.558   7.650
 4605POPC   NC3 6047  34.553  11.338   9.450
 4605POPC   PO4 6048  34.571  11.284   9.150
 4605POPC   GL1 6049  34.553  11.317   8.850
 4605POPC   GL2 6050  34.569  11.377   8.850
 4605POPC   C1A 6051  34.617  11.259   8.550
 4605POPC   D2A 6052  34.550  11.339   8.250
 4605POPC   C3A 6053  34.603  11.304   7.950
 4605POPC   C4A 6054  34.576  11.303   7.650
 4605POPC   C1B 6055  34.532  11.551   8.550
 4605POPC   C2B 6056  34.508  11.498   8.250
 4605POPC   C3B 6057  34.530  11.558   7.950
 4605POPC   C4B 6058  34.459  11.493   7.650
 4606POPC   NC3 6059   8.189  31.439   9.450
 4606POPC   PO4 6060   8.210  31.424   9.150
 4606POPC   GL1 6061   8.170  31.464   8.850
 4606POPC   GL2 6062   8.208  31.603   8.850
 4606POPC   C1A 6063   8.229  31.471   8.550
 4606POPC   D2A 6064   8.183  31.492   8.250
 4606POPC   C3A 6065   8.172  31.507   7.950
 4606POPC   C4A 6066   8.229  31.469   7.650
 4606POPC   C1B 6067   8.154  31.754   8.550
 4606POPC   C2B 6068   8.173  31.723   8.250
 4606POPC   C3B 6069   8.229  31.680   7.950
 4606POPC   C4B 6070   8.206  31.688   7.650
 4607POPC   NC3 6071  25.248  43.895   9.450
 4607POPC   PO4 6072  25.294  43.884   9.150
 4607POPC   GL1 6073  25.310  43.847   8.850
 4607POPC   GL2 6074  25.176  43.978   8.850
 4607POPC   C1A 6075  25.279  43.853   8.550
 4607POPC   D2A 6076  25.233  43.838   8.250
 4607POPC   C3A 6077  25.257  43.904   7.950
 4607POPC   C4A 6078  25.270  43.865   7.650
 4607POPC   C1B 6079  25.085  44.059   8.550
 4607POPC   C2B 6080  25.046  43.999   8.250
 4607POPC   C3B 6081  25.098  44.048   7.950
 4607POPC   C4B 6082  25.064  44.048   7.650
 4608POPC   NC3 6083  26.089  36.876   9.450
 4608POPC   PO4 6084  26.043  36.905   9.150
 4608POPC   GL1 6085  26.072  36.920   8.850
 4608POPC   GL2 6086  26.208  36.909   8.850
 4608POPC   C1A 6087  26.070  36.864   8.550
 4608POPC   D2A 6088  26.068  36.922   8.250
 4608POPC   C3A 6089  26.044  36.922   7.950
 4608POPC   C4A 6090  26.015  36.854   7.650
 4608POPC   C1B 6091  26.328  36.914   8.550
 4608POPC   C2B 6092  26.265  36.920   8.250
 4608POPC   C3B 6093  26.276  36.953   7.950
 4608POPC   C4B 6094  26.324  36.998   7.650
 4609POPC   NC3 6095  19.881  33.844   9.450
 4609POPC   PO4 6096  19.860  33.759   9.150
 4609POPC   GL1 6097  19.864  33.842   8.850
 4609POPC   GL2 6098  19.772  33.867   8.850
 4609POPC   C1A 6099  19.852  33.819   8.550
 4609POPC   D2A 6100  19.791  33.760   8.250
 4609POPC   C3A 6101  19.823  33.832   7.950
 4609POPC   C4A 6102  19.878  33.837   7.650
 4609POPC   C1B 6103  19.619  33.993   8.550
 4609POPC   C2B 6104  19.601  33.997   8.250
 4609POPC   C3B 6105  19.667  33.971   7.950
 4609POPC   C4B 6106  19.627  33.929   7.650
 4610POPC   NC3 6107  26.091  35.379   9.450
 4610POPC   PO4 6108  26.069  35.355   9.150
 4610POPC   GL1 6109  26.013  35.368   8.850
 4610POPC   GL2 6110  25.892  35.369   8.850
 4610POPC   C1A 6111  26.011  35.330   8.550
 4610POPC   D2A 6112  26.054  35.400   8.250
 4610POPC   C3A 6113  26.006  35.366   7.950
 4610POPC   C4A 6114  26.072  35.397   7.650
 4610POPC   C1B 6115  25.776  35.506   8.550
 4610POPC   C2B 6116  25.771  35.504   8.250
 4610POPC   C3B 6117  25.851  35.474   7.950
 4610POPC   C4B 6118  25.779  35.507   7.650
 4611POPC   NC3 6119   5.871  36.102   9.450
 4611POPC   PO4 6120   5.909  36.099   9.150
 4611POPC   GL1 6121   5.866  36.099   8.850
 4611POPC   GL2 6122   5.814  36.183   8.850
 4611POPC   C1A 6123   5.846  36.160   8.550
 4611POPC   D2A 6124   5.878  36.178   8.250
 4611POPC   C3A 6125   5.909  36.163   7.950
 4611POPC   C4A 6126   5.865  36.098   7.650
 4611POPC   C1B 6127   5.707  36.338   8.550
 4611POPC   C2B 6128   5.712  36.284   8.250
 4611POPC   C3B 6129   5.744  36.323   7.950
 4611POPC   C4B 6130   5.687  36.312   7.650
 4612POPC   NC3 6131  36.893  33.803   9.450
 4612POPC   PO4 6132  36.949  33.802   9.150
 4612POPC   GL1 6133  36.934  33.756   8.850
 4612POPC   GL2 6134  37.032  33.792   8.850
 4612POPC   C1A 6135  36.873  33.807   8.550
 4612POPC   D2A 6136  36.927  33.789   8.250
 4612POPC   C3A 6137  36.894  33.761   7.950
 4612POPC   C4A 6138  36.877  33.849   7.650
 4612POPC   C1B 6139  37.195  33.746   8.550
 4612POPC   C2B 6140  37.107  33.787   8.250
 4612POPC   C3B 6141  37.150  33.745   7.950
 4612POPC   C4B 6142  37.187  33.811   7.650
 4613POPC   NC3 6143   0.455  14.394   9.450
 4613POPC   PO4 6144   0.430  14.414   9.150
 4613POPC   GL1 6145   0.395  14.445   8.850
 4613POPC   GL2 6146   0.509  14.264   8.850
 4613POPC   C1A 6147   0.436  14.429   8.550
 4613POPC   D2A 6148   0.426  14.364   8.250
 4613POPC   C3A 6149   0.399  14.398   7.950
 4613POPC   C4A 6150   0.399  14.358   7.650
 4613POPC   C1B 6151   0.594  14.172   8.550
 4613POPC   C2B 6152   0.556  14.224   8.250
 4613POPC   C3B 6153   0.596  14.239   7.950
 4613POPC   C4B 6154   0.598  14.222   7.650
 4614POPC   NC3 6155   4.321  22.973   9.450
 4614POPC   PO4 6156   4.323  22.909   9.150
 4614POPC   GL1 6157   4.315  22.904   8.850
 4614POPC   GL2 6158   4.209  22.953   8.850
 4614POPC   C1A 6159   4.359  22.956   8.550
 4614POPC   D2A 6160   4.360  22.970   8.250
 4614POPC   C3A 6161   4.358  22.979   7.950
 4614POPC   C4A 6162   4.306  22.945   7.650
 4614POPC   C1B 6163   4.062  23.009   8.550
 4614POPC   C2B 6164   4.089  22.975   8.250
 4614POPC   C3B 6165   4.071  23.026   7.950
 4614POPC   C4B 6166   4.095  23.025   7.650
 4615POPC   NC3 6167   6.631  26.081   9.450
 4615POPC   PO4 6168   6.677  26.086   9.150
 4615POPC   GL1 6169   6.602  25.994   8.850
 4615POPC   GL2 6170   6.704  26.144   8.850
 4615POPC   C1A 6171   6.630  25.996   8.550
 4615POPC   D2A 6172   6.684  26.084   8.250
 4615POPC   C3A 6173   6.653  26.071   7.950
 4615POPC   C4A 6174   6.601  26.080   7.650
 4615POPC   C1B 6175   6.677  26.303   8.550
 4615POPC   C2B 6176   6.693  26.256   8.250
 4615POPC   C3B 6177   6.645  26.253   7.950
 4615POPC   C4B 6178   6.641  26.333   7.650
 4616POPC   NC3 6179  39.202  17.479   9.450
 4616POPC   PO4 6180  39.219  17.466   9.150
 4616POPC   GL1 6181  39.210  17.486   8.850
 4616POPC   GL2 6182  39.170  17.450   8.850
 4616POPC   C1A 6183  39.185  17.470   8.550
 4616POPC   D2A 6184  39.243  17.505   8.250
 4616POPC   C3A 6185  39.250  17.483   7.950
 4616POPC   C4A 6186  39.276  17.544   7.650
 4616POPC   C1B 6187  39.023  17.401   8.550
 4616POPC   C2B 6188  39.070  17.378   8.250
 4616POPC   C3B 6189  39.075  17.403   7.950
 4616POPC   C4B 6190  39.074  17.315   7.650
 4617POPC   NC3 6191   2.032  17.521   9.450
 4617POPC   PO4 6192   1.985  17.516   9.150
 4617POPC   GL1 6193   1.946  17.475   8.850
 4617POPC   GL2 6194   1.946  17.430   8.850
 4617POPC   C1A 6195   1.994  17.479   8.550
 4617POPC   D2A 6196   1.958  17.458   8.250
 4617POPC   C3A 6197   1.997  17.531   7.950
 4617POPC   C4A 6198   1.940  17.472   7.650
 4617POPC   C1B 6199   1.889  17.281   8.550
 4617POPC   C2B 6200   1.920  17.265   8.250
 4617POPC   C3B 6201   1.940  17.259   7.950
 4617POPC   C4B 6202   1.894  17.295   7.650
 4618POPC   NC3 6203  41.519  43.857   9.450
 4618POPC   PO4 6204  41.576  43.889   9.150
 4618POPC   GL1 6205  41.536  43.907   8.850
 4618POPC   GL2 6206  41.475  43.768   8.850
 4618POPC   C1A 6207  41.604  43.865   8.550
 4618POPC   D2A 6208  41.597  43.927   8.250
 4618POPC   C3A 6209  41.561  43.840   7.950
 4618POPC   C4A 6210  41.557  43.847   7.650
 4618POPC   C1B 6211  41.463  43.696   8.550
 4618POPC   C2B 6212  41.460  43.641   8.250
 4618POPC   C3B 6213  41.472  43.648   7.950
 4618POPC   C4B 6214  41.485  43.704   7.650
 4619POPC   NC3 6215  43.917  26.078   9.450
 4619POPC   PO4 6216  43.865  26.046   9.150
 4619POPC   GL1 6217  43.902  25.994   8.850
 4619POPC   GL2 6218  43.844  26.083   8.850
 4619POPC   C1A 6219  43.925  26.069   8.550
 4619POPC   D2A 6220  43.908  26.030   8.250
 4619POPC   C3A 6221  43.880  25.995   7.950
 4619POPC   C4A 6222  43.871  26.063   7.650
 4619POPC   C1B 6223  43.699  26.201   8.550
 4619POPC   C2B 6224  43.703  26.194   8.250
 4619POPC   C3B 6225  43.695  26.207   7.950
 4619POPC   C4B 6226  43.764  26.211   7.650
 4620POPC   NC3 6227  22.918  17.475   9.450
 4620POPC   PO4 6228  22.900  17.470   9.150
 4620POPC   GL1 6229  22.901  17.518   8.850
 4620POPC   GL2 6230  22.803  17.491   8.850
 4620POPC   C1A 6231  22.965  17.468   8.550
 4620POPC   D2A 6232  22.933  17.553   8.250
 4620POPC   C3A 6233  22.918  17.537   7.950
 4620POPC   C4A 6234  22.951  17.501   7.650
 4620POPC   C1B 6235  22.736  17.476   8.550
 4620POPC   C2B 6236  22.686  17.473   8.250
 4620POPC   C3B 6237  22.713  17.486   7.950
 4620POPC   C4B 6238  22.727  17.497   7.650
 4621POPC   NC3 6239   7.451  19.840   9.450
 4621POPC   PO4 6240   7.444  19.849   9.150
 4621POPC   GL1 6241   7.422  19.836   8.850
 4621POPC   GL2 6242   7.530  19.816   8.850
 4621POPC   C1A 6243   7.426  19.857   8.550
 4621POPC   D2A 6244   7.439  19.866   8.250
 4621POPC   C3A 6245   7.401  19.864   7.950
 4621POPC   C4A 6246   7.375  19.796   7.650
 4621POPC   C1B 6247   7.582  19.700   8.550
 4621POPC   C2B 6248   7.590  19.704   8.250
 4621POPC   C3B 6249   7.646  19.686   7.950
 4621POPC   C4B 6250   7.581  19.682   7.650
 4622POPC   NC3 6251   3.578  19.042   9.450
 4622POPC   PO4 6252   3.499  19.045   9.150
 4622POPC   GL1 6253   3.539  19.087   8.850
 4622POPC   GL2 6254   3.560  19.160   8.850
 4622POPC   C1A 6255   3.510  19.034   8.550
 4622POPC   D2A 6256   3.591  19.094   8.250
 4622POPC   C3A 6257   3.533  19.043   7.950
 4622POPC   C4A 6258   3.514  19.057   7.650
 4622POPC   C1B 6259   3.648  19.274   8.550
 4622POPC   C2B 6260   3.627  19.272   8.250
 4622POPC   C3B 6261   3.682  19.291   7.950
 4622POPC   C4B 6262   3.663  19.334   7.650
 4623POPC   NC3 6263  36.950  42.375   9.450
 4623POPC   PO4 6264  36.948  42.302   9.150
 4623POPC   GL1 6265  36.953  42.317   8.850
 4623POPC   GL2 6266  36.796  42.483   8.850
 4623POPC   C1A 6267  36.953  42.374   8.550
 4623POPC   D2A 6268  36.863  42.317   8.250
 4623POPC   C3A 6269  36.859  42.294   7.950
 4623POPC   C4A 6270  36.879  42.297   7.650
 4623POPC   C1B 6271  36.816  42.554   8.550
 4623POPC   C2B 6272  36.744  42.580   8.250
 4623POPC   C3B 6273  36.797  42.503   7.950
 4623POPC   C4B 6274  36.784  42.533   7.650
 4624POPC   NC3 6275   8.184   2.779   9.450
 4624POPC   PO4 6276   8.173   2.744   9.150
 4624POPC   GL1 6277   8.210   2.805   8.850
 4624POPC   GL2 6278   8.316   2.836   8.850
 4624POPC   C1A 6279   8.214   2.750   8.550
 4624POPC   D2A 6280   8.151   2.800   8.250
 4624POPC   C3A 6281   8.160   2.717   7.950
 4624POPC   C4A 6282   8.218   2.716   7.650
 4624POPC   C1B 6283   8.481   2.880   8.550
 4624POPC   C2B 6284   8.486   2.876   8.250
 4624POPC   C3B 6285   8.399   2.852   7.950
 4624POPC   C4B 6286   8.474   2.850   7.650
 4625POPC   NC3 6287  37.663  34.563   9.450
 4625POPC   PO4 6288  37.702  34.534   9.150
 4625POPC   GL1 6289  37.683  34.595   8.850
 4625POPC   GL2 6290  37.820  34.561   8.850
 4625POPC   C1A 6291  37.716  34.563   8.550
 4625POPC   D2A 6292  37.674  34.532   8.250
 4625POPC   C3A 6293  37.664  34.611   7.950
 4625POPC   C4A 6294  37.694  34.553   7.650
 4625POPC   C1B 6295  37.903  34.483   8.550
 4625POPC   C2B 6296  37.903  34.499   8.250
 4625POPC   C3B 6297  37.938  34.474   7.950
 4625POPC   C4B 6298  37.893  34.528   7.650
 4626POPC   NC3 6299  33.795  37.642   9.450
 4626POPC   PO4 6300  33.816  37.692   9.150
 4626POPC   GL1 6301  33.838  37.696   8.850
 4626POPC   GL2 6302  33.727  37.554   8.850
 4626POPC   C1A 6303  33.837  37.668   8.550
 4626POPC   D2A 6304  33.776  37.643   8.250
 4626POPC   C3A 6305  33.820  37.710   7.950
 4626POPC   C4A 6306  33.804  37.676   7.650
 4626POPC   C1B 6307  33.652  37.562   8.550
 4626POPC   C2B 6308  33.569  37.522   8.250
 4626POPC   C3B 6309  33.646  37.546   7.950
 4626POPC   C4B 6310  33.638  37.570   7.650
 4627POPC   NC3 6311  13.676  17.464   9.450
 4627POPC   PO4 6312  13.611  17.489   9.150
 4627POPC   GL1 6313  13.650  17.493   8.850
 4627POPC   GL2 6314  13.783  17.529   8.850
 4627POPC   C1A 6315  13.585  17.529   8.550
 4627POPC   D2A 6316  13.598  17.470   8.250
 4627POPC   C3A 6317  13.579  17.502   7.950
 4627POPC   C4A 6318  13.596  17.472   7.650
 4627POPC   C1B 6319  13.901  17.444   8.550
 4627POPC   C2B 6320  13.854  17.427   8.250
 4627POPC   C3B 6321  13.879  17.470   7.950
 4627POPC   C4B 6322  13.867  17.478   7.650
 4628POPC   NC3 6323  15.944   4.291   9.450
 4628POPC   PO4 6324  15.949   4.365   9.150
 4628POPC   GL1 6325  15.957   4.306   8.850
 4628POPC   GL2 6326  16.076   4.373   8.850
 4628POPC   C1A 6327  15.972   4.366   8.550
 4628POPC   D2A 6328  15.974   4.301   8.250
 4628POPC   C3A 6329  15.987   4.334   7.950
 4628POPC   C4A 6330  15.976   4.306   7.650
 4628POPC   C1B 6331  16.225   4.437   8.550
 4628POPC   C2B 6332  16.174   4.393   8.250
 4628POPC   C3B 6333  16.175   4.449   7.950
 4628POPC   C4B 6334  16.201   4.441   7.650
 4629POPC   NC3 6335  29.160   9.021   9.450
 4629POPC   PO4 6336  29.139   8.985   9.150
 4629POPC   GL1 6337  29.150   8.981   8.850
 4629POPC   GL2 6338  29.124   8.816   8.850
 4629POPC   C1A 6339  29.129   8.935   8.550
 4629POPC   D2A 6340  29.158   8.958   8.250
 4629POPC   C3A 6341  29.163   8.976   7.950
 4629POPC   C4A 6342  29.139   9.011   7.650
 4629POPC   C1B 6343  29.046   8.770   8.550
 4629POPC   C2B 6344  29.086   8.687   8.250
 4629POPC   C3B 6345  29.068   8.692   7.950
 4629POPC   C4B 6346  29.107   8.730   7.650
 4630POPC   NC3 6347  43.904  42.285   9.450
 4630POPC   PO4 6348  43.901  42.291   9.150
 4630POPC   GL1 6349  43.840  42.356   8.850
 4630POPC   GL2 6350  43.815  42.473   8.850
 4630POPC   C1A 6351  43.899  42.294   8.550
 4630POPC   D2A 6352  43.842  42.300   8.250
 4630POPC   C3A 6353  43.932  42.368   7.950
 4630POPC   C4A 6354  43.927  42.329   7.650
 4630POPC   C1B 6355  43.707  42.519   8.550
 4630POPC   C2B 6356  43.736  42.567   8.250
 4630POPC   C3B 6357  43.784  42.592   7.950
 4630POPC   C4B 6358  43.732  42.514   7.650
 4631POPC   NC3 6359  44.630   1.950   9.450
 4631POPC   PO4 6360  44.678   1.990   9.150
 4631POPC   GL1 6361  44.646   2.037   8.850
 4631POPC   GL2 6362  44.706   2.059   8.850
 4631POPC   C1A 6363  44.623   2.003   8.550
 4631POPC   D2A 6364  44.657   1.982   8.250
 4631POPC   C3A 6365  44.680   2.015   7.950
 4631POPC   C4A 6366  44.652   1.991   7.650
 4631POPC   C1B 6367  44.739   2.232   8.550
 4631POPC   C2B 6368  44.763   2.246   8.250
 4631POPC   C3B 6369  44.759   2.264   7.950
 4631POPC   C4B 6370  44.733   2.257   7.650
 4632POPC   NC3 6371   3.503  25.236   9.450
 4632POPC   PO4 6372   3.590  25.250   9.150
 4632POPC   GL1 6373   3.558  25.305   8.850
 4632POPC   GL2 6374   3.645  25.348   8.850
 4632POPC   C1A 6375   3.548  25.224   8.550
 4632POPC   D2A 6376   3.540  25.235   8.250
 4632POPC   C3A 6377   3.529  25.225   7.950
 4632POPC   C4A 6378   3.504  25.245   7.650
 4632POPC   C1B 6379   3.752  25.406   8.550
 4632POPC   C2B 6380   3.655  25.475   8.250
 4632POPC   C3B 6381   3.720  25.488   7.950
 4632POPC   C4B 6382   3.716  25.470   7.650
 4633POPC   NC3 6383  40.007  38.438   9.450
 4633POPC   PO4 6384  39.989  38.490   9.150
 4633POPC   GL1 6385  40.010  38.432   8.850
 4633POPC   GL2 6386  40.127  38.334   8.850
 4633POPC   C1A 6387  40.053  38.464   8.550
 4633POPC   D2A 6388  40.050  38.415   8.250
 4633POPC   C3A 6389  39.975  38.469   7.950
 4633POPC   C4A 6390  39.996  38.425   7.650
 4633POPC   C1B 6391  40.206  38.247   8.550
 4633POPC   C2B 6392  40.215  38.301   8.250
 4633POPC   C3B 6393  40.149  38.257   7.950
 4633POPC   C4B 6394  40.221  38.314   7.650
 4634POPC   NC3 6395  29.139  29.169   9.450
 4634POPC   PO4 6396  29.194  29.106   9.150
 4634POPC   GL1 6397  29.144  29.187   8.850
 4634POPC   GL2 6398  29.277  29.227   8.850
 4634POPC   C1A 6399  29.179  29.109   8.550
 4634POPC   D2A 6400  29.137  29.175   8.250
 4634POPC   C3A 6401  29.139  29.169   7.950
 4634POPC   C4A 6402  29.122  29.108   7.650
 4634POPC   C1B 6403  29.331  29.240   8.550
 4634POPC   C2B 6404  29.399  29.272   8.250
 4634POPC   C3B 6405  29.307  29.316   7.950
 4634POPC   C4B 6406  29.332  29.273   7.650
 4635POPC   NC3 6407  21.422  22.969   9.450
 4635POPC   PO4 6408  21.363  22.900   9.150
 4635POPC   GL1 6409  21.373  22.950   8.850
 4635POPC   GL2 6410  21.308  22.915   8.850
 4635POPC   C1A 6411  21.382  22.972   8.550
 4635POPC   D2A 6412  21.369  22.940   8.250
 4635POPC   C3A 6413  21.396  22.958   7.950
 4635POPC   C4A 6414  21.350  22.907   7.650
 4635POPC   C1B 6415  21.095  22.929   8.550
 4635POPC   C2B 6416  21.162  22.925   8.250
 4635POPC   C3B 6417  21.170  22.919   7.950
 4635POPC   C4B 6418  21.181  22.870   7.650
 4636POPC   NC3 6419  15.162  43.869   9.450
 4636POPC   PO4 6420  15.149  43.871   9.150
 4636POPC   GL1 6421  15.208  43.912   8.850
 4636POPC   GL2 6422  15.028  43.953   8.850
 4636POPC   C1A 6423  15.205  43.844   8.550
 4636POPC   D2A 6424  15.199  43.895   8.250
 4636POPC   C3A 6425  15.137  43.858   7.950
 4636POPC   C4A 6426  15.173  43.848   7.650
 4636POPC   C1B 6427  15.003  43.965   8.550
 4636POPC   C2B 6428  14.975  43.984   8.250
 4636POPC   C3B 6429  14.934  44.036   7.950
 4636POPC   C4B 6430  14.956  43.975   7.650
 4637POPC   NC3 6431  26.023  36.165   9.450
 4637POPC   PO4 6432  26.039  36.153   9.150
 4637POPC   GL1 6433  26.043  36.096   8.850
 4637POPC   GL2 6434  26.077  36.229   8.850
 4637POPC   C1A 6435  26.081  36.105   8.550
 4637POPC   D2A 6436  26.041  36.154   8.250
 4637POPC   C3A 6437  26.071  36.113   7.950
 4637POPC   C4A 6438  26.040  36.112   7.650
 4637POPC   C1B 6439  26.096  36.338   8.550
 4637POPC   C2B 6440  26.078  36.347   8.250
 4637POPC   C3B 6441  26.109  36.362   7.950
 4637POPC   C4B 6442  26.078  36.414   7.650
 4638POPC   NC3 6443  17.490  42.292   9.450
 4638POPC   PO4 6444  17.512  42.293   9.150
 4638POPC   GL1 6445  17.522  42.374   8.850
 4638POPC   GL2 6446  17.504  42.195   8.850
 4638POPC   C1A 6447  17.545  42.361   8.550
 4638POPC   D2A 6448  17.520  42.285   8.250
 4638POPC   C3A 6449  17.459  42.340   7.950
 4638POPC   C4A 6450  17.468  42.353   7.650
 4638POPC   C1B 6451  17.560  42.118   8.550
 4638POPC   C2B 6452  17.499  42.090   8.250
 4638POPC   C3B 6453  17.567  42.059   7.950
 4638POPC   C4B 6454  17.545  42.098   7.650
 4639POPC   NC3 6455  43.090  26.783   9.450
 4639POPC   PO4 6456  43.156  26.810   9.150
 4639POPC   GL1 6457  43.074  26.783   8.850
 4639POPC   GL2 6458  43.240  26.826   8.850
 4639POPC   C1A 6459  43.072  26.850   8.550
 4639POPC   D2A 6460  43.139  26.846   8.250
 4639POPC   C3A 6461  43.074  26.851   7.950
 4639POPC   C4A 6462  43.068  26.804   7.650
 4639POPC   C1B 6463  43.330  26.796   8.550
 4639POPC   C2B 6464  43.365  26.768   8.250
 4639POPC   C3B 6465  43.355  26.770   7.950
 4639POPC   C4B 6466  43.316  26.778   7.650
 4640POPC   NC3 6467  27.575  20.592   9.450
 4640POPC   PO4 6468  27.573  20.570   9.150
 4640POPC   GL1 6469  27.555  20.650   8.850
 4640POPC   GL2 6470  27.672  20.515   8.850
 4640POPC   C1A 6471  27.566  20.621   8.550
 4640POPC   D2A 6472  27.589  20.563   8.250
 4640POPC   C3A 6473  27.546  20.589   7.950
 4640POPC   C4A 6474  27.590  20.584   7.650
 4640POPC   C1B 6475  27.794  20.497   8.550
 4640POPC   C2B 6476  27.791  20.465   8.250
 4640POPC   C3B 6477  27.798  20.433   7.950
 4640POPC   C4B 6478  27.759  20.450   7.650
 4641POPC   NC3 6479   7.466  43.881   9.450
 4641POPC   PO4 6480   7.445  43.852   9.150
 4641POPC   GL1 6481   7.425  43.885   8.850
 4641POPC   GL2 6482   7.530  43.874   8.850
 4641POPC   C1A 6483   7.433  43.868   8.550
 4641POPC   D2A 6484   7.430  43.912   8.250
 4641POPC   C3A 6485   7.463  43.915   7.950
 4641POPC   C4A 6486   7.408  43.866   7.650
 4641POPC   C1B 6487   7.713  43.907   8.550
 4641POPC   C2B 6488   7.674  43.962   8.250
 4641POPC   C3B 6489   7.680  43.930   7.950
 4641POPC   C4B 6490   7.655  43.910   7.650
 4642POPC   NC3 6491  43.897  33.045   9.450
 4642POPC   PO4 6492  43.839  33.045   9.150
 4642POPC   GL1 6493  43.897  33.072   8.850
 4642POPC   GL2 6494  43.849  32.970   8.850
 4642POPC   C1A 6495  43.902  32.986   8.550
 4642POPC   D2A 6496  43.846  33.012   8.250
 4642POPC   C3A 6497  43.897  33.067   7.950
 4642POPC   C4A 6498  43.856  33.031   7.650
 4642POPC   C1B 6499  43.683  32.795   8.550
 4642POPC   C2B 6500  43.706  32.813   8.250
 4642POPC   C3B 6501  43.720  32.860   7.950
 4642POPC   C4B 6502  43.751  32.818   7.650
 4643POPC   NC3 6503  21.338  39.252   9.450
 4643POPC   PO4 6504  21.398  39.187   9.150
 4643POPC   GL1 6505  21.433  39.260   8.850
 4643POPC   GL2 6506  21.453  39.133   8.850
 4643POPC   C1A 6507  21.376  39.270   8.550
 4643POPC   D2A 6508  21.409  39.263   8.250
 4643POPC   C3A 6509  21.424  39.188   7.950
 4643POPC   C4A 6510  21.415  39.202   7.650
 4643POPC   C1B 6511  21.526  39.026   8.550
 4643POPC   C2B 6512  21.595  39.085   8.250
 4643POPC   C3B 6513  21.587  39.000   7.950
 4643POPC   C4B 6514  21.510  39.020   7.650
 4644POPC   NC3 6515   5.101   6.678   9.450
 4644POPC   PO4 6516   5.092   6.678   9.150
 4644POPC   GL1 6517   5.103   6.611   8.850
 4644POPC   GL2 6518   5.146   6.768   8.850
 4644POPC   C1A 6519   5.066   6.685   8.550
 4644POPC   D2A 6520   5.116   6.615   8.250
 4644POPC   C3A 6521   5.116   6.633   7.950
 4644POPC   C4A 6522   5.047   6.646   7.650
 4644POPC   C1B 6523   5.291   6.841   8.550
 4644POPC   C2B 6524   5.289   6.758   8.250
 4644POPC   C3B 6525   5.308   6.806   7.950
 4644POPC   C4B 6526   5.284   6.780   7.650
 4645POPC   NC3 6527  38.498  10.516   9.450
 4645POPC   PO4 6528  38.496  10.511   9.150
 4645POPC   GL1 6529  38.428  10.486   8.850
 4645POPC   GL2 6530  38.355  10.594   8.850
 4645POPC   C1A 6531  38.460  10.494   8.550
 4645POPC   D2A 6532  38.462  10.516   8.250
 4645POPC   C3A 6533  38.463  10.520   7.950
 4645POPC   C4A 6534  38.433  10.501   7.650
 4645POPC   C1B 6535  38.161  10.625   8.550
 4645POPC   C2B 6536  38.253  10.550   8.250
 4645POPC   C3B 6537  38.176  10.543   7.950
 4645POPC   C4B 6538  38.200  10.562   7.650
 4646POPC   NC3 6539   5.838  40.792   9.450
 4646POPC   PO4 6540   5.910  40.777   9.150
 4646POPC   GL1 6541   5.878  40.809   8.850
 4646POPC   GL2 6542   5.850  40.680   8.850
 4646POPC   C1A 6543   5.916  40.746   8.550
 4646POPC   D2A 6544   5.915  40.762   8.250
 4646POPC   C3A 6545   5.863  40.749   7.950
 4646POPC   C4A 6546   5.917  40.771   7.650
 4646POPC   C1B 6547   5.718  40.529   8.550
 4646POPC   C2B 6548   5.769  40.590   8.250
 4646POPC   C3B 6549   5.783  40.530   7.950
 4646POPC   C4B 6550   5.718  40.612   7.650
 4647POPC   NC3 6551  38.502  24.499   9.450
 4647POPC   PO4 6552  38.484  24.473   9.150
 4647POPC   GL1 6553  38.426  24.458   8.850
 4647POPC   GL2 6554  38.439  24.566   8.850
 4647POPC   C1A 6555  38.494  24.488   8.550
 4647POPC   D2A 6556  38.445  24.503   8.250
 4647POPC   C3A 6557  38.462  24.512   7.950
 4647POPC   C4A 6558  38.473  24.535   7.650
 4647POPC   C1B 6559  38.439  24.694   8.550
 4647POPC   C2B 6560  38.441  24.780   8.250
 4647POPC   C3B 6561  38.503  24.724   7.950
 4647POPC   C4B 6562  38.503  24.725   7.650
 4648POPC   NC3 6563  23.744  39.235   9.450
 4648POPC   PO4 6564  23.742  39.230   9.150
 4648POPC   GL1 6565  23.691  39.236   8.850
 4648POPC   GL2 6566  23.624  39.158   8.850
 4648POPC   C1A 6567  23.686  39.273   8.550
 4648POPC   D2A 6568  23.758  39.281   8.250
 4648POPC   C3A 6569  23.706  39.208   7.950
 4648POPC   C4A 6570  23.671  39.198   7.650
 4648POPC   C1B 6571  23.544  39.026   8.550
 4648POPC   C2B 6572  23.535  39.056   8.250
 4648POPC   C3B 6573  23.584  39.049   7.950
 4648POPC   C4B 6574  23.540  39.050   7.650
 4649POPC   NC3 6575  41.590  23.762   9.450
 4649POPC   PO4 6576  41.605  23.705   9.150
 4649POPC   GL1 6577  41.542  23.743   8.850
 4649POPC   GL2 6578  41.439  23.804   8.850
 4649POPC   C1A 6579  41.591  23.763   8.550
 4649POPC   D2A 6580  41.594  23.763   8.250
 4649POPC   C3A 6581  41.581  23.719   7.950
 4649POPC   C4A 6582  41.549  23.760   7.650
 4649POPC   C1B 6583  41.335  23.800   8.550
 4649POPC   C2B 6584  41.302  23.853   8.250
 4649POPC   C3B 6585  41.390  23.849   7.950
 4649POPC   C4B 6586  41.295  23.856   7.650
 4650POPC   NC3 6587  41.565  11.346   9.450
 4650POPC   PO4 6588  41.543  11.255   9.150
 4650POPC   GL1 6589  41.536  11.288   8.850
 4650POPC   GL2 6590  41.467  11.375   8.850
 4650POPC   C1A 6591  41.563  11.339   8.550
 4650POPC   D2A 6592  41.536  11.335   8.250
 4650POPC   C3A 6593  41.601  11.343   7.950
 4650POPC   C4A 6594  41.512  11.287   7.650
 4650POPC   C1B 6595  41.306  11.364   8.550
 4650POPC   C2B 6596  41.347  11.379   8.250
 4650POPC   C3B 6597  41.347  11.434   7.950
 4650POPC   C4B 6598  41.332  11.381   7.650
 4651POPC   NC3 6599  19.102  29.120   9.450
 4651POPC   PO4 6600  19.084  29.170   9.150
 4651POPC   GL1 6601  19.077  29.096   8.850
 4651POPC   GL2 6602  19.022  29.259   8.850
 4651POPC   C1A 6603  19.027  29.163   8.550
 4651POPC   D2A 6604  19.104  29.194   8.250
 4651POPC   C3A 6605  19.058  29.192   7.950
 4651POPC   C4A 6606  19.086  29.146   7.650
 4651POPC   C1B 6607  19.083  29.405   8.550
 4651POPC   C2B 6608  19.026  29.361   8.250
 4651POPC   C3B 6609  19.065  29.347   7.950
 4651POPC   C4B 6610  19.089  29.407   7.650
 4652POPC   NC3 6611  31.426  37.667   9.450
 4652POPC   PO4 6612  31.432  37.702   9.150
 4652POPC   GL1 6613  31.470  37.675   8.850
 4652POPC   GL2 6614  31.418  37.756   8.850
 4652POPC   C1A 6615  31.437  37.698   8.550
 4652POPC   D2A 6616  31.472  37.661   8.250
 4652POPC   C3A 6617  31.441  37.719   7.950
 4652POPC   C4A 6618  31.452  37.691   7.650
 4652POPC   C1B 6619  31.365  37.925   8.550
 4652POPC   C2B 6620  31.342  37.962   8.250
 4652POPC   C3B 6621  31.387  37.936   7.950
 4652POPC   C4B 6622  31.364  37.947   7.650
 4653POPC   NC3 6623  12.119   6.662   9.450
 4653POPC   PO4 6624  12.034   6.600   9.150
 4653POPC   GL1 6625  12.041   6.618   8.850
 4653POPC   GL2 6626  12.046   6.516   8.850
 4653POPC   C1A 6627  12.051   6.662   8.550
 4653POPC   D2A 6628  12.077   6.666   8.250
 4653POPC   C3A 6629  12.052   6.619   7.950
 4653POPC   C4A 6630  12.051   6.619   7.650
 4653POPC   C1B 6631  12.087   6.355   8.550
 4653POPC   C2B 6632  12.036   6.418   8.250
 4653POPC   C3B 6633  12.091   6.361   7.950
 4653POPC   C4B 6634  12.081   6.417   7.650
 4654POPC   NC3 6635  36.090   7.432   9.450
 4654POPC   PO4 6636  36.136   7.375   9.150
 4654POPC   GL1 6637  36.080   7.447   8.850
 4654POPC   GL2 6638  36.066   7.289   8.850
 4654POPC   C1A 6639  36.101   7.424   8.550
 4654POPC   D2A 6640  36.118   7.372   8.250
 4654POPC   C3A 6641  36.127   7.378   7.950
 4654POPC   C4A 6642  36.173   7.463   7.650
 4654POPC   C1B 6643  36.048   7.224   8.550
 4654POPC   C2B 6644  36.031   7.189   8.250
 4654POPC   C3B 6645  36.017   7.249   7.950
 4654POPC   C4B 6646  35.953   7.215   7.650
 4655POPC   NC3 6647  22.175  19.093   9.450
 4655POPC   PO4 6648  22.197  19.081   9.150
 4655POPC   GL1 6649  22.142  19.030   8.850
 4655POPC   GL2 6650  22.182  18.934   8.850
 4655POPC   C1A 6651  22.120  19.041   8.550
 4655POPC   D2A 6652  22.164  19.035   8.250
 4655POPC   C3A 6653  22.145  19.088   7.950
 4655POPC   C4A 6654  22.143  19.041   7.650
 4655POPC   C1B 6655  22.118  18.798   8.550
 4655POPC   C2B 6656  22.164  18.773   8.250
 4655POPC   C3B 6657  22.072  18.820   7.950
 4655POPC   C4B 6658  22.107  18.773   7.650
 4656POPC   NC3 6659  11.293  36.931   9.450
 4656POPC   PO4 6660  11.333  36.948   9.150
 4656POPC   GL1 6661  11.307  36.891   8.850
 4656POPC   GL2 6662  11.275  36.774   8.850
 4656POPC   C1A 6663  11.303  36.947   8.550
 4656POPC   D2A 6664  11.301  36.877   8.250
 4656POPC   C3A 6665  11.339  36.858   7.950
 4656POPC   C4A 6666  11.346  36.902   7.650
 4656POPC   C1B 6667  11.374  36.609   8.550
 4656POPC   C2B 6668  11.350  36.634   8.250
 4656POPC   C3B 6669  11.355  36.695   7.950
 4656POPC   C4B 6670  11.328  36.683   7.650
 4657POPC   NC3 6671  37.699  42.381   9.450
 4657POPC   PO4 6672  37.643  42.308   9.150
 4657POPC   GL1 6673  37.668  42.366   8.850
 4657POPC   GL2 6674  37.766  42.204   8.850
 4657POPC   C1A 6675  37.647  42.381   8.550
 4657POPC   D2A 6676  37.653  42.285   8.250
 4657POPC   C3A 6677  37.728  42.367   7.950
 4657POPC   C4A 6678  37.684  42.289   7.650
 4657POPC   C1B 6679  37.816  42.086   8.550
 4657POPC   C2B 6680  37.729  42.115   8.250
 4657POPC   C3B 6681  37.740  42.054   7.950
 4657POPC   C4B 6682  37.740  42.066   7.650
 4658POPC   NC3 6683  36.108  38.453   9.450
 4658POPC   PO4 6684  36.175  38.481   9.150
 4658POPC   GL1 6685  36.114  38.457   8.850
 4658POPC   GL2 6686  36.063  38.583   8.850
 4658POPC   C1A 6687  36.139  38.462   8.550
 4658POPC   D2A 6688  36.136  38.410   8.250
 4658POPC   C3A 6689  36.125  38.481   7.950
 4658POPC   C4A 6690  36.093  38.420   7.650
 4658POPC   C1B 6691  35.936  38.678   8.550
 4658POPC   C2B 6692  35.947  38.595   8.250
 4658POPC   C3B 6693  35.920  38.676   7.950
 4658POPC   C4B 6694  35.964  38.624   7.650
 4659POPC   NC3 6695   5.824  24.538   9.450
 4659POPC   PO4 6696   5.877  24.516   9.150
 4659POPC   GL1 6697   5.835  24.444   8.850
 4659POPC   GL2 6698   5.750  24.467   8.850
 4659POPC   C1A 6699   5.893  24.531   8.550
 4659POPC   D2A 6700   5.890  24.481   8.250
 4659POPC   C3A 6701   5.910  24.465   7.950
 4659POPC   C4A 6702   5.883  24.457   7.650
 4659POPC   C1B 6703   5.581  24.385   8.550
 4659POPC   C2B 6704   5.577  24.417   8.250
 4659POPC   C3B 6705   5.610  24.424   7.950
 4659POPC   C4B 6706   5.585  24.470   7.650
 4660POPC   NC3 6707  31.460  13.650   9.450
 4660POPC   PO4 6708  31.485  13.662   9.150
 4660POPC   GL1 6709  31.456  13.588   8.850
 4660POPC   GL2 6710  31.338  13.648   8.850
 4660POPC   C1A 6711  31.473  13.640   8.550
 4660POPC   D2A 6712  31.429  13.612   8.250
 4660POPC   C3A 6713  31.485  13.626   7.950
 4660POPC   C4A 6714  31.458  13.674   7.650
 4660POPC   C1B 6715  31.258  13.770   8.550
 4660POPC   C2B 6716  31.227  13.752   8.250
 4660POPC   C3B 6717  31.196  13.731   7.950
 4660POPC   C4B 6718  31.265  13.715   7.650
 4661POPC   NC3 6719  11.350   7.402   9.450
 4661POPC   PO4 6720  11.288   7.378   9.150
 4661POPC   GL1 6721  11.276   7.462   8.850
 4661POPC   GL2 6722  11.463   7.440   8.850
 4661POPC   C1A 6723  11.270   7.399   8.550
 4661POPC   D2A 6724  11.322   7.402   8.250
 4661POPC   C3A 6725  11.256   7.452   7.950
 4661POPC   C4A 6726  11.307   7.443   7.650
 4661POPC   C1B 6727  11.564   7.384   8.550
 4661POPC   C2B 6728  11.537   7.455   8.250
 4661POPC   C3B 6729  11.505   7.383   7.950
 4661POPC   C4B 6730  11.537   7.380   7.650
 4662POPC   NC3 6731  30.683   3.532   9.450
 4662POPC   PO4 6732  30.694   3.588   9.150
 4662POPC   GL1 6733  30.742   3.530   8.850
 4662POPC   GL2 6734  30.725   3.647   8.850
 4662POPC   C1A 6735  30.685   3.589   8.550
 4662POPC   D2A 6736  30.658   3.548   8.250
 4662POPC   C3A 6737  30.663   3.571   7.950
 4662POPC   C4A 6738  30.683   3.544   7.650
 4662POPC   C1B 6739  30.761   3.746   8.550
 4662POPC   C2B 6740  30.826   3.776   8.250
 4662POPC   C3B 6741  30.767   3.811   7.950
 4662POPC   C4B 6742  30.754   3.769   7.650
 4663POPC   NC3 6743  16.692  39.191   9.450
 4663POPC   PO4 6744  16.681  39.229   9.150
 4663POPC   GL1 6745  16.751  39.279   8.850
 4663POPC   GL2 6746  16.668  39.309   8.850
 4663POPC   C1A 6747  16.725  39.191   8.550
 4663POPC   D2A 6748  16.683  39.201   8.250
 4663POPC   C3A 6749  16.760  39.194   7.950
 4663POPC   C4A 6750  16.764  39.241   7.650
 4663POPC   C1B 6751  16.593  39.434   8.550
 4663POPC   C2B 6752  16.541  39.389   8.250
 4663POPC   C3B 6753  16.588  39.403   7.950
 4663POPC   C4B 6754  16.518  39.437   7.650
 4664POPC   NC3 6755  24.533  11.339   9.450
 4664POPC   PO4 6756  24.490  11.282   9.150
 4664POPC   GL1 6757  24.456  11.308   8.850
 4664POPC   GL2 6758  24.485  11.151   8.850
 4664POPC   C1A 6759  24.477  11.272   8.550
 4664POPC   D2A 6760  24.443  11.280   8.250
 4664POPC   C3A 6761  24.509  11.253   7.950
 4664POPC   C4A 6762  24.536  11.324   7.650
 4664POPC   C1B 6763  24.469  11.066   8.550
 4664POPC   C2B 6764  24.471  11.050   8.250
 4664POPC   C3B 6765  24.430  11.051   7.950
 4664POPC   C4B 6766  24.473  11.051   7.650
 4665POPC   NC3 6767  27.555  44.682   9.450
 4665POPC   PO4 6768  27.571  44.700   9.150
 4665POPC   GL1 6769  27.587  44.652   8.850
 4665POPC   GL2 6770  27.477  44.735   8.850
 4665POPC   C1A 6771  27.601  44.620   8.550
 4665POPC   D2A 6772  27.556  44.640   8.250
 4665POPC   C3A 6773  27.559  44.695   7.950
 4665POPC   C4A 6774  27.555  44.641   7.650
 4665POPC   C1B 6775  27.451  44.869   8.550
 4665POPC   C2B 6776  27.390  44.886   8.250
 4665POPC   C3B 6777  27.447  44.840   7.950
 4665POPC   C4B 6778  27.408  44.817   7.650
 4666POPC   NC3 6779  19.085  15.906   9.450
 4666POPC   PO4 6780  19.077  15.925   9.150
 4666POPC   GL1 6781  19.081  15.929   8.850
 4666POPC   GL2 6782  19.158  15.945   8.850
 4666POPC   C1A 6783  19.065  15.911   8.550
 4666POPC   D2A 6784  19.053  15.926   8.250
 4666POPC   C3A 6785  19.103  15.965   7.950
 4666POPC   C4A 6786  19.081  15.938   7.650
 4666POPC   C1B 6787  19.316  15.886   8.550
 4666POPC   C2B 6788  19.272  15.965   8.250
 4666POPC   C3B 6789  19.261  15.866   7.950
 4666POPC   C4B 6790  19.317  15.875   7.650
 4667POPC   NC3 6791  31.473  26.860   9.450
 4667POPC   PO4 6792  31.459  26.844   9.150
 4667POPC   GL1 6793  31.469  26.783   8.850
 4667POPC   GL2 6794  31.451  26.741   8.850
 4667POPC   C1A 6795  31.435  26.777   8.550
 4667POPC   D2A 6796  31.465  26.850   8.250
 4667POPC   C3A 6797  31.457  26.780   7.950
 4667POPC   C4A 6798  31.476  26.776   7.650
 4667POPC   C1B 6799  31.576  26.557   8.550
 4667POPC   C2B 6800  31.568  26.609   8.250
 4667POPC   C3B 6801  31.520  26.557   7.950
 4667POPC   C4B 6802  31.574  26.595   7.650
 4668POPC   NC3 6803  41.540  33.803   9.450
 4668POPC   PO4 6804  41.586  33.802   9.150
 4668POPC   GL1 6805  41.540  33.754   8.850
 4668POPC   GL2 6806  41.727  33.815   8.850
 4668POPC   C1A 6807  41.523  33.795   8.550
 4668POPC   D2A 6808  41.564  33.780   8.250
 4668POPC   C3A 6809  41.566  33.778   7.950
 4668POPC   C4A 6810  41.569  33.782   7.650
 4668POPC   C1B 6811  41.830  33.832   8.550
 4668POPC   C2B 6812  41.793  33.840   8.250
 4668POPC   C3B 6813  41.802  33.826   7.950
 4668POPC   C4B 6814  41.757  33.865   7.650
 4669POPC   NC3 6815  43.103   7.399   9.450
 4669POPC   PO4 6816  43.097   7.377   9.150
 4669POPC   GL1 6817  43.103   7.391   8.850
 4669POPC   GL2 6818  42.987   7.352   8.850
 4669POPC   C1A 6819  43.076   7.404   8.550
 4669POPC   D2A 6820  43.120   7.414   8.250
 4669POPC   C3A 6821  43.158   7.376   7.950
 4669POPC   C4A 6822  43.138   7.406   7.650
 4669POPC   C1B 6823  42.859   7.233   8.550
 4669POPC   C2B 6824  42.908   7.282   8.250
 4669POPC   C3B 6825  42.927   7.249   7.950
 4669POPC   C4B 6826  42.881   7.277   7.650
 4670POPC   NC3 6827  36.902  41.517   9.450
 4670POPC   PO4 6828  36.945  41.558   9.150
 4670POPC   GL1 6829  36.879  41.601   8.850
 4670POPC   GL2 6830  37.047  41.629   8.850
 4670POPC   C1A 6831  36.897  41.604   8.550
 4670POPC   D2A 6832  36.946  41.525   8.250
 4670POPC   C3A 6833  36.894  41.514   7.950
 4670POPC   C4A 6834  36.921  41.518   7.650
 4670POPC   C1B 6835  37.132  41.708   8.550
 4670POPC   C2B 6836  37.153  41.704   8.250
 4670POPC   C3B 6837  37.126  41.671   7.950
 4670POPC   C4B 6838  37.126  41.709   7.650
 4671POPC   NC3 6839   3.520  15.994   9.450
 4671POPC   PO4 6840   3.523  15.930   9.150
 4671POPC   GL1 6841   3.518  15.965   8.850
 4671POPC   GL2 6842   3.603  15.829   8.850
 4671POPC   C1A 6843   3.512  15.998   8.550
 4671POPC   D2A 6844   3.557  15.995   8.250
 4671POPC   C3A 6845   3.590  15.913   7.950
 4671POPC   C4A 6846   3.543  15.998   7.650
 4671POPC   C1B 6847   3.623  15.715   8.550
 4671POPC   C2B 6848   3.680  15.705   8.250
 4671POPC   C3B 6849   3.688  15.780   7.950
 4671POPC   C4B 6850   3.710  15.767   7.650
 4672POPC   NC3 6851   8.162  36.895   9.450
 4672POPC   PO4 6852   8.209  36.937   9.150
 4672POPC   GL1 6853   8.210  36.897   8.850
 4672POPC   GL2 6854   8.141  36.998   8.850
 4672POPC   C1A 6855   8.235  36.949   8.550
 4672POPC   D2A 6856   8.227  36.928   8.250
 4672POPC   C3A 6857   8.180  36.925   7.950
 4672POPC   C4A 6858   8.207  36.934   7.650
 4672POPC   C1B 6859   8.030  37.085   8.550
 4672POPC   C2B 6860   8.055  37.083   8.250
 4672POPC   C3B 6861   8.070  37.110   7.950
 4672POPC   C4B 6862   7.997  37.116   7.650
 4673POPC   NC3 6863  35.372  23.681   9.450
 4673POPC   PO4 6864  35.398  23.738   9.150
 4673POPC   GL1 6865  35.389  23.665   8.850
 4673POPC   GL2 6866  35.402  23.808   8.850
 4673POPC   C1A 6867  35.338  23.685   8.550
 4673POPC   D2A 6868  35.347  23.732   8.250
 4673POPC   C3A 6869  35.372  23.747   7.950
 4673POPC   C4A 6870  35.372  23.689   7.650
 4673POPC   C1B 6871  35.441  23.957   8.550
 4673POPC   C2B 6872  35.435  23.934   8.250
 4673POPC   C3B 6873  35.431  23.896   7.950
 4673POPC   C4B 6874  35.500  23.973   7.650
 4674POPC   NC3 6875   8.190  33.837   9.450
 4674POPC   PO4 6876   8.203  33.787   9.150
 4674POPC   GL1 6877   8.218  33.817   8.850
 4674POPC   GL2 6878   8.240  33.913   8.850
 4674POPC   C1A 6879   8.165  33.807   8.550
 4674POPC   D2A 6880   8.184  33.845   8.250
 4674POPC   C3A 6881   8.175  33.801   7.950
 4674POPC   C4A 6882   8.162  33.813   7.650
 4674POPC   C1B 6883   8.282  34.057   8.550
 4674POPC   C2B 6884   8.273  34.053   8.250
 4674POPC   C3B 6885   8.212  34.070   7.950
 4674POPC   C4B 6886   8.234  34.050   7.650
 4675POPC   NC3 6887   9.766  39.211   9.450
 4675POPC   PO4 6888   9.701  39.266   9.150
 4675POPC   GL1 6889   9.789  39.216   8.850
 4675POPC   GL2 6890   9.836  39.327   8.850
 4675POPC   C1A 6891   9.700  39.204   8.550
 4675POPC   D2A 6892   9.746  39.232   8.250
 4675POPC   C3A 6893   9.743  39.278   7.950
 4675POPC   C4A 6894   9.714  39.183   7.650
 4675POPC   C1B 6895   9.934  39.370   8.550
 4675POPC   C2B 6896   9.881  39.423   8.250
 4675POPC   C3B 6897   9.910  39.371   7.950
 4675POPC   C4B 6898   9.896  39.395   7.650
 4676POPC   NC3 6899  33.804   7.371   9.450
 4676POPC   PO4 6900  33.839   7.381   9.150
 4676POPC   GL1 6901  33.777   7.391   8.850
 4676POPC   GL2 6902  33.759   7.550   8.850
 4676POPC   C1A 6903  33.819   7.391   8.550
 4676POPC   D2A 6904  33.822   7.373   8.250
 4676POPC   C3A 6905  33.787   7.417   7.950
 4676POPC   C4A 6906  33.796   7.411   7.650
 4676POPC   C1B 6907  33.648   7.644   8.550
 4676POPC   C2B 6908  33.629   7.576   8.250
 4676POPC   C3B 6909  33.633   7.649   7.950
 4676POPC   C4B 6910  33.669   7.655   7.650
 4677POPC   NC3 6911  21.362  18.310   9.450
 4677POPC   PO4 6912  21.368  18.277   9.150
 4677POPC   GL1 6913  21.361  18.259   8.850
 4677POPC   GL2 6914  21.451  18.183   8.850
 4677POPC   C1A 6915  21.358  18.327   8.550
 4677POPC   D2A 6916  21.382  18.315   8.250
 4677POPC   C3A 6917  21.403  18.288   7.950
 4677POPC   C4A 6918  21.379  18.275   7.650
 4677POPC   C1B 6919  21.462  18.032   8.550
 4677POPC   C2B 6920  21.401  18.085   8.250
 4677POPC   C3B 6921  21.379  18.068   7.950
 4677POPC   C4B 6922  21.375  18.055   7.650
 4678POPC   NC3 6923  20.586   2.723   9.450
 4678POPC   PO4 6924  20.573   2.810   9.150
 4678POPC   GL1 6925  20.655   2.754   8.850
 4678POPC   GL2 6926  20.602   2.876   8.850
 4678POPC   C1A 6927  20.565   2.801   8.550
 4678POPC   D2A 6928  20.627   2.726   8.250
 4678POPC   C3A 6929  20.599   2.773   7.950
 4678POPC   C4A 6930  20.606   2.783   7.650
 4678POPC   C1B 6931  20.487   2.969   8.550
 4678POPC   C2B 6932  20.509   2.998   8.250
 4678POPC   C3B 6933  20.542   2.989   7.950
 4678POPC   C4B 6934  20.464   2.959   7.650
 4679POPC   NC3 6935  20.614  34.567   9.450
 4679POPC   PO4 6936  20.564  34.535   9.150
 4679POPC   GL1 6937  20.617  34.616   8.850
 4679POPC   GL2 6938  20.611  34.649   8.850
 4679POPC   C1A 6939  20.654  34.573   8.550
 4679POPC   D2A 6940  20.577  34.529   8.250
 4679POPC   C3A 6941  20.626  34.559   7.950
 4679POPC   C4A 6942  20.655  34.534   7.650
 4679POPC   C1B 6943  20.572  34.811   8.550
 4679POPC   C2B 6944  20.529  34.837   8.250
 4679POPC   C3B 6945  20.558  34.795   7.950
 4679POPC   C4B 6946  20.577  34.831   7.650
 4680POPC   NC3 6947  11.314  10.493   9.450
 4680POPC   PO4 6948  11.266  10.501   9.150
 4680POPC   GL1 6949  11.316  10.517   8.850
 4680POPC   GL2 6950  11.225  10.435   8.850
 4680POPC   C1A 6951  11.282  10.516   8.550
 4680POPC   D2A 6952  11.304  10.500   8.250
 4680POPC   C3A 6953  11.347  10.565   7.950
 4680POPC   C4A 6954  11.298  10.508   7.650
 4680POPC   C1B 6955  11.116  10.333   8.550
 4680POPC   C2B 6956  11.100  10.426   8.250
 4680POPC   C3B 6957  11.097  10.388   7.950
 4680POPC   C4B 6958  11.089  10.340   7.650
 4681POPC   NC3 6959  16.763  16.769   9.450
 4681POPC   PO4 6960  16.714  16.739   9.150
 4681POPC   GL1 6961  16.778  16.692   8.850
 4681POPC   GL2 6962  16.712  16.575   8.850
 4681POPC   C1A 6963  16.731  16.682   8.550
 4681POPC   D2A 6964  16.730  16.686   8.250
 4681POPC   C3A 6965  16.693  16.762   7.950
 4681POPC   C4A 6966  16.769  16.758   7.650
 4681POPC   C1B 6967  16.805  16.459   8.550
 4681POPC   C2B 6968  16.759  16.448   8.250
 4681POPC   C3B 6969  16.743  16.446   7.950
 4681POPC   C4B 6970  16.814  16.485   7.650
 4682POPC   NC3 6971  40.829  19.054   9.450
 4682POPC   PO4 6972  40.746  19.062   9.150
 4682POPC   GL1 6973  40.754  19.050   8.850
 4682POPC   GL2 6974  40.774  18.927   8.850
 4682POPC   C1A 6975  40.772  19.054   8.550
 4682POPC   D2A 6976  40.771  19.089   8.250
 4682POPC   C3A 6977  40.805  19.096   7.950
 4682POPC   C4A 6978  40.738  19.038   7.650
 4682POPC   C1B 6979  40.686  18.790   8.550
 4682POPC   C2B 6980  40.780  18.855   8.250
 4682POPC   C3B 6981  40.707  18.854   7.950
 4682POPC   C4B 6982  40.757  18.770   7.650
 4683POPC   NC3 6983  33.009  29.095   9.450
 4683POPC   PO4 6984  33.073  29.099   9.150
 4683POPC   GL1 6985  33.057  29.097   8.850
 4683POPC   GL2 6986  33.160  29.086   8.850
 4683POPC   C1A 6987  33.035  29.177   8.550
 4683POPC   D2A 6988  33.021  29.152   8.250
 4683POPC   C3A 6989  33.037  29.157   7.950
 4683POPC   C4A 6990  33.001  29.108   7.650
 4683POPC   C1B 6991  33.181  29.024   8.550
 4683POPC   C2B 6992  33.201  28.951   8.250
 4683POPC   C3B 6993  33.208  29.017   7.950
 4683POPC   C4B 6994  33.214  28.982   7.650
 4684POPC   NC3 6995  42.378   5.840   9.450
 4684POPC   PO4 6996  42.314   5.900   9.150
 4684POPC   GL1 6997  42.346   5.824   8.850
 4684POPC   GL2 6998  42.309   5.735   8.850
 4684POPC   C1A 6999  42.381   5.882   8.550
 4684POPC   D2A 7000  42.300   5.894   8.250
 4684POPC   C3A 7001  42.299   5.877   7.950
 4684POPC   C4A 7002  42.295   5.861   7.650
 4684POPC   C1B 7003  42.199   5.637   8.550
 4684POPC   C2B 7004  42.259   5.617   8.250
 4684POPC   C3B 7005  42.259   5.626   7.950
 4684POPC   C4B 7006  42.211   5.674   7.650
 4685POPC   NC3 7007  43.917  39.962   9.450
 4685POPC   PO4 7008  43.929  39.998   9.150
 4685POPC   GL1 7009  43.883  40.026   8.850
 4685POPC   GL2 7010  43.959  39.871   8.850
 4685POPC   C1A 7011  43.936  40.029   8.550
 4685POPC   D2A 7012  43.854  40.054   8.250
 4685POPC   C3A 7013  43.866  40.009   7.950
 4685POPC   C4A 7014  43.900  40.004   7.650
 4685POPC   C1B 7015  44.074  39.835   8.550
 4685POPC   C2B 7016  44.049  39.793   8.250
 4685POPC   C3B 7017  44.025  39.854   7.950
 4685POPC   C4B 7018  44.024  39.773   7.650
 4686POPC   NC3 7019   0.399  40.760   9.450
 4686POPC   PO4 7020   0.437  40.804   9.150
 4686POPC   GL1 7021   0.451  40.766   8.850
 4686POPC   GL2 7022   0.538  40.893   8.850
 4686POPC   C1A 7023   0.429  40.805   8.550
 4686POPC   D2A 7024   0.478  40.789   8.250
 4686POPC   C3A 7025   0.473  40.743   7.950
 4686POPC   C4A 7026   0.483  40.756   7.650
 4686POPC   C1B 7027   0.580  41.015   8.550
 4686POPC   C2B 7028   0.550  41.007   8.250
 4686POPC   C3B 7029   0.552  40.943   7.950
 4686POPC   C4B 7030   0.564  40.992   7.650
 4687POPC   NC3 7031  41.579  27.579   9.450
 4687POPC   PO4 7032  41.604  27.621   9.150
 4687POPC   GL1 7033  41.552  27.588   8.850
 4687POPC   GL2 7034  41.484  27.492   8.850
 4687POPC   C1A 7035  41.560  27.581   8.550
 4687POPC   D2A 7036  41.604  27.571   8.250
 4687POPC   C3A 7037  41.559  27.635   7.950
 4687POPC   C4A 7038  41.564  27.565   7.650
 4687POPC   C1B 7039  41.348  27.418   8.550
 4687POPC   C2B 7040  41.394  27.446   8.250
 4687POPC   C3B 7041  41.352  27.421   7.950
 4687POPC   C4B 7042  41.383  27.409   7.650
 4688POPC   NC3 7043  20.654   5.904   9.450
 4688POPC   PO4 7044  20.619   5.829   9.150
 4688POPC   GL1 7045  20.657   5.843   8.850
 4688POPC   GL2 7046  20.479   5.769   8.850
 4688POPC   C1A 7047  20.615   5.887   8.550
 4688POPC   D2A 7048  20.655   5.868   8.250
 4688POPC   C3A 7049  20.590   5.895   7.950
 4688POPC   C4A 7050  20.562   5.880   7.650
 4688POPC   C1B 7051  20.410   5.678   8.550
 4688POPC   C2B 7052  20.444   5.690   8.250
 4688POPC   C3B 7053  20.373   5.728   7.950
 4688POPC   C4B 7054  20.415   5.724   7.650
 4689POPC   NC3 7055  39.258  15.200   9.450
 4689POPC   PO4 7056  39.267  15.166   9.150
 4689POPC   GL1 7057  39.204  15.141   8.850
 4689POPC   GL2 7058  39.337  15.128   8.850
 4689POPC   C1A 7059  39.243  15.137   8.550
 4689POPC   D2A 7060  39.193  15.148   8.250
 4689POPC   C3A 7061  39.245  15.131   7.950
 4689POPC   C4A 7062  39.188  15.196   7.650
 4689POPC   C1B 7063  39.423  15.071   8.550
 4689POPC   C2B 7064  39.444  15.102   8.250
 4689POPC   C3B 7065  39.452  15.105   7.950
 4689POPC   C4B 7066  39.427  15.067   7.650
 4690POPC   NC3 7067  26.043   9.002   9.450
 4690POPC   PO4 7068  26.039   8.952   9.150
 4690POPC   GL1 7069  26.019   8.998   8.850
 4690POPC   GL2 7070  25.941   9.059   8.850
 4690POPC   C1A 7071  26.007   8.974   8.550
 4690POPC   D2A 7072  26.039   8.998   8.250
 4690POPC   C3A 7073  26.018   8.992   7.950
 4690POPC   C4A 7074  26.012   9.000   7.650
 4690POPC   C1B 7075  25.915   9.165   8.550
 4690POPC   C2B 7076  25.903   9.159   8.250
 4690POPC   C3B 7077  25.864   9.166   7.950
 4690POPC   C4B 7078  25.884   9.174   7.650
 4691POPC   NC3 7079   6.693   0.399   9.450
 4691POPC   PO4 7080   6.623   0.394   9.150
 4691POPC   GL1 7081   6.675   0.433   8.850
 4691POPC   GL2 7082   6.604   0.596   8.850
 4691POPC   C1A 7083   6.653   0.449   8.550
 4691POPC   D2A 7084   6.654   0.436   8.250
 4691POPC   C3A 7085   6.665   0.474   7.950
 4691POPC   C4A 7086   6.642   0.450   7.650
 4691POPC   C1B 7087   6.499   0.635   8.550
 4691POPC   C2B 7088   6.550   0.615   8.250
 4691POPC   C3B 7089   6.515   0.610   7.950
 4691POPC   C4B 7090   6.565   0.650   7.650
 4692POPC   NC3 7091  15.920  12.067   9.450
 4692POPC   PO4 7092  15.969  12.051   9.150
 4692POPC   GL1 7093  15.983  12.043   8.850
 4692POPC   GL2 7094  15.897  12.107   8.850
 4692POPC   C1A 7095  15.955  12.036   8.550
 4692POPC   D2A 7096  15.914  12.093   8.250
 4692POPC   C3A 7097  15.930  12.107   7.950
 4692POPC   C4A 7098  15.969  12.120   7.650
 4692POPC   C1B 7099  15.780  12.250   8.550
 4692POPC   C2B 7100  15.731  12.235   8.250
 4692POPC   C3B 7101  15.788  12.214   7.950
 4692POPC   C4B 7102  15.796  12.189   7.650
 4693POPC   NC3 7103  19.074  41.563   9.450
 4693POPC   PO4 7104  19.030  41.599   9.150
 4693POPC   GL1 7105  19.092  41.581   8.850
 4693POPC   GL2 7106  19.167  41.650   8.850
 4693POPC   C1A 7107  19.017  41.573   8.550
 4693POPC   D2A 7108  19.026  41.544   8.250
 4693POPC   C3A 7109  19.026  41.518   7.950
 4693POPC   C4A 7110  19.056  41.556   7.650
 4693POPC   C1B 7111  19.194  41.717   8.550
 4693POPC   C2B 7112  19.207  41.735   8.250
 4693POPC   C3B 7113  19.259  41.712   7.950
 4693POPC   C4B 7114  19.191  41.774   7.650
 4694POPC   NC3 7115   2.725  43.908   9.450
 4694POPC   PO4 7116   2.795  43.897   9.150
 4694POPC   GL1 7117   2.771  43.915   8.850
 4694POPC   GL2 7118   2.702  43.950   8.850
 4694POPC   C1A 7119   2.749  43.840   8.550
 4694POPC   D2A 7120   2.724  43.843   8.250
 4694POPC   C3A 7121   2.740  43.922   7.950
 4694POPC   C4A 7122   2.733  43.860   7.650
 4694POPC   C1B 7123   2.705  44.147   8.550
 4694POPC   C2B 7124   2.644  44.066   8.250
 4694POPC   C3B 7125   2.630  44.157   7.950
 4694POPC   C4B 7126   2.631  44.070   7.650
 4695POPC   NC3 7127  35.364  39.987   9.450
 4695POPC   PO4 7128  35.389  39.982   9.150
 4695POPC   GL1 7129  35.313  40.039   8.850
 4695POPC   GL2 7130  35.459  40.084   8.850
 4695POPC   C1A 7131  35.317  39.977   8.550
 4695POPC   D2A 7132  35.315  40.004   8.250
 4695POPC   C3A 7133  35.381  39.967   7.950
 4695POPC   C4A 7134  35.386  39.973   7.650
 4695POPC   C1B 7135  35.594  40.069   8.550
 4695POPC   C2B 7136  35.590  40.155   8.250
 4695POPC   C3B 7137  35.581  40.064   7.950
 4695POPC   C4B 7138  35.581  40.077   7.650
 4696POPC   NC3 7139  33.043  39.996   9.450
 4696POPC   PO4 7140  32.980  39.998   9.150
 4696POPC   GL1 7141  33.028  40.055   8.850
 4696POPC   GL2 7142  32.951  39.876   8.850
 4696POPC   C1A 7143  32.989  39.965   8.550
 4696POPC   D2A 7144  33.071  40.033   8.250
 4696POPC   C3A 7145  33.054  40.002   7.950
 4696POPC   C4A 7146  33.050  39.971   7.650
 4696POPC   C1B 7147  32.896  39.812   8.550
 4696POPC   C2B 7148  32.875  39.814   8.250
 4696POPC   C3B 7149  32.920  39.828   7.950
 4696POPC   C4B 7150  32.867  39.804   7.650
 4697POPC   NC3 7151  19.811  43.101   9.450
 4697POPC   PO4 7152  19.810  43.124   9.150
 4697POPC   GL1 7153  19.835  43.065   8.850
 4697POPC   GL2 7154  19.686  43.155   8.850
 4697POPC   C1A 7155  19.809  43.103   8.550
 4697POPC   D2A 7156  19.877  43.092   8.250
 4697POPC   C3A 7157  19.794  43.118   7.950
 4697POPC   C4A 7158  19.796  43.122   7.650
 4697POPC   C1B 7159  19.584  43.201   8.550
 4697POPC   C2B 7160  19.572  43.228   8.250
 4697POPC   C3B 7161  19.555  43.223   7.950
 4697POPC   C4B 7162  19.638  43.242   7.650
 4698POPC   NC3 7163  29.964   8.962   9.450
 4698POPC   PO4 7164  29.931   8.930   9.150
 4698POPC   GL1 7165  29.962   8.990   8.850
 4698POPC   GL2 7166  29.978   8.805   8.850
 4698POPC   C1A 7167  29.899   8.978   8.550
 4698POPC   D2A 7168  29.896   8.988   8.250
 4698POPC   C3A 7169  29.908   8.953   7.950
 4698POPC   C4A 7170  29.916   8.970   7.650
 4698POPC   C1B 7171  29.950   8.731   8.550
 4698POPC   C2B 7172  29.933   8.724   8.250
 4698POPC   C3B 7173  29.948   8.721   7.950
 4698POPC   C4B 7174  29.924   8.727   7.650
 4699POPC   NC3 7175  19.834  29.930   9.450
 4699POPC   PO4 7176  19.801  29.874   9.150
 4699POPC   GL1 7177  19.879  29.956   8.850
 4699POPC   GL2 7178  19.726  30.021   8.850
 4699POPC   C1A 7179  19.785  29.904   8.550
 4699POPC   D2A 7180  19.856  29.961   8.250
 4699POPC   C3A 7181  19.794  29.895   7.950
 4699POPC   C4A 7182  19.865  29.949   7.650
 4699POPC   C1B 7183  19.618  30.019   8.550
 4699POPC   C2B 7184  19.635  30.040   8.250
 4699POPC   C3B 7185  19.615  30.038   7.950
 4699POPC   C4B 7186  19.613  29.993   7.650
 4700POPC   NC3 7187  20.639  41.601   9.450
 4700POPC   PO4 7188  20.611  41.548   9.150
 4700POPC   GL1 7189  20.601  41.544   8.850
 4700POPC   GL2 7190  20.692  41.655   8.850
 4700POPC   C1A 7191  20.588  41.588   8.550
 4700POPC   D2A 7192  20.585  41.525   8.250
 4700POPC   C3A 7193  20.660  41.534   7.950
 4700POPC   C4A 7194  20.587  41.547   7.650
 4700POPC   C1B 7195  20.817  41.701   8.550
 4700POPC   C2B 7196  20.791  41.703   8.250
 4700POPC   C3B 7197  20.830  41.764   7.950
 4700POPC   C4B 7198  20.794  41.763   7.650
 4701POPC   NC3 7199  41.516  15.974   9.450
 4701POPC   PO4 7200  41.587  15.984   9.150
 4701POPC   GL1 7201  41.572  15.935   8.850
 4701POPC   GL2 7202  41.598  15.880   8.850
 4701POPC   C1A 7203  41.532  15.981   8.550
 4701POPC   D2A 7204  41.511  15.956   8.250
 4701POPC   C3A 7205  41.582  15.967   7.950
 4701POPC   C4A 7206  41.533  15.912   7.650
 4701POPC   C1B 7207  41.556  15.681   8.550
 4701POPC   C2B 7208  41.593  15.700   8.250
 4701POPC   C3B 7209  41.630  15.715   7.950
 4701POPC   C4B 7210  41.609  15.706   7.650
 4702POPC   NC3 7211  26.034  29.154   9.450
 4702POPC   PO4 7212  26.069  29.120   9.150
 4702POPC   GL1 7213  26.021  29.143   8.850
 4702POPC   GL2 7214  26.130  29.058   8.850
 4702POPC   C1A 7215  26.003  29.188   8.550
 4702POPC   D2A 7216  26.057  29.112   8.250
 4702POPC   C3A 7217  26.074  29.108   7.950
 4702POPC   C4A 7218  25.999  29.111   7.650
 4702POPC   C1B 7219  26.235  28.967   8.550
 4702POPC   C2B 7220  26.220  29.014   8.250
 4702POPC   C3B 7221  26.290  29.041   7.950
 4702POPC   C4B 7222  26.290  29.042   7.650
 4703POPC   NC3 7223  19.032   0.466   9.450
 4703POPC   PO4 7224  19.108   0.416   9.150
 4703POPC   GL1 7225  19.020   0.471   8.850
 4703POPC   GL2 7226  19.115   0.303   8.850
 4703POPC   C1A 7227  19.076   0.395   8.550
 4703POPC   D2A 7228  19.040   0.399   8.250
 4703POPC   C3A 7229  19.020   0.438   7.950
 4703POPC   C4A 7230  19.010   0.416   7.650
 4703POPC   C1B 7231  19.042   0.161   8.550
 4703POPC   C2B 7232  19.107   0.142   8.250
 4703POPC   C3B 7233  19.079   0.225   7.950
 4703POPC   C4B 7234  19.125   0.235   7.650
 4704POPC   NC3 7235  27.620   8.246   9.450
 4704POPC   PO4 7236  27.566   8.203   9.150
 4704POPC   GL1 7237  27.547   8.174   8.850
 4704POPC   GL2 7238  27.510   8.337   8.850
 4704POPC   C1A 7239  27.543   8.169   8.550
 4704POPC   D2A 7240  27.632   8.207   8.250
 4704POPC   C3A 7241  27.601   8.162   7.950
 4704POPC   C4A 7242  27.627   8.166   7.650
 4704POPC   C1B 7243  27.502   8.411   8.550
 4704POPC   C2B 7244  27.573   8.484   8.250
 4704POPC   C3B 7245  27.487   8.408   7.950
 4704POPC   C4B 7246  27.549   8.432   7.650
 4705POPC   NC3 7247  44.654  25.226   9.450
 4705POPC   PO4 7248  44.693  25.312   9.150
 4705POPC   GL1 7249  44.664  25.299   8.850
 4705POPC   GL2 7250  44.589  25.240   8.850
 4705POPC   C1A 7251  44.639  25.263   8.550
 4705POPC   D2A 7252  44.629  25.313   8.250
 4705POPC   C3A 7253  44.628  25.301   7.950
 4705POPC   C4A 7254  44.660  25.281   7.650
 4705POPC   C1B 7255  44.476  25.169   8.550
 4705POPC   C2B 7256  44.491  25.084   8.250
 4705POPC   C3B 7257  44.411  25.144   7.950
 4705POPC   C4B 7258  44.407  25.115   7.650
 4706POPC   NC3 7259  36.937  29.928   9.450
 4706POPC   PO4 7260  36.914  29.898   9.150
 4706POPC   GL1 7261  36.854  29.955   8.850
 4706POPC   GL2 7262  37.066  29.981   8.850
 4706POPC   C1A 7263  36.858  29.933   8.550
 4706POPC   D2A 7264  36.936  29.908   8.250
 4706POPC   C3A 7265  36.926  29.872   7.950
 4706POPC   C4A 7266  36.944  29.922   7.650
 4706POPC   C1B 7267  37.095  30.047   8.550
 4706POPC   C2B 7268  37.096  30.012   8.250
 4706POPC   C3B 7269  37.153  30.011   7.950
 4706POPC   C4B 7270  37.120  29.969   7.650
 4707POPC   NC3 7271  43.079   8.190   9.450
 4707POPC   PO4 7272  43.077   8.187   9.150
 4707POPC   GL1 7273  43.098   8.173   8.850
 4707POPC   GL2 7274  43.060   8.345   8.850
 4707POPC   C1A 7275  43.157   8.234   8.550
 4707POPC   D2A 7276  43.141   8.167   8.250
 4707POPC   C3A 7277  43.086   8.179   7.950
 4707POPC   C4A 7278  43.099   8.157   7.650
 4707POPC   C1B 7279  43.048   8.410   8.550
 4707POPC   C2B 7280  43.054   8.459   8.250
 4707POPC   C3B 7281  43.020   8.446   7.950
 4707POPC   C4B 7282  43.086   8.427   7.650
 4708POPC   NC3 7283  42.297  23.700   9.450
 4708POPC   PO4 7284  42.318  23.732   9.150
 4708POPC   GL1 7285  42.293  23.716   8.850
 4708POPC   GL2 7286  42.245  23.863   8.850
 4708POPC   C1A 7287  42.300  23.708   8.550
 4708POPC   D2A 7288  42.308  23.760   8.250
 4708POPC   C3A 7289  42.373  23.691   7.950
 4708POPC   C4A 7290  42.304  23.710   7.650
 4708POPC   C1B 7291  42.207  23.868   8.550
 4708POPC   C2B 7292  42.223  23.881   8.250
 4708POPC   C3B 7293  42.218  23.902   7.950
 4708POPC   C4B 7294  42.191  23.902   7.650
 4709POPC   NC3 7295  13.591  36.880   9.450
 4709POPC   PO4 7296  13.609  36.896   9.150
 4709POPC   GL1 7297  13.661  36.867   8.850
 4709POPC   GL2 7298  13.499  36.897   8.850
 4709POPC   C1A 7299  13.649  36.894   8.550
 4709POPC   D2A 7300  13.621  36.937   8.250
 4709POPC   C3A 7301  13.668  36.889   7.950
 4709POPC   C4A 7302  13.609  36.935   7.650
 4709POPC   C1B 7303  13.335  36.832   8.550
 4709POPC   C2B 7304  13.360  36.799   8.250
 4709POPC   C3B 7305  13.341  36.808   7.950
 4709POPC   C4B 7306  13.423  36.833   7.650
 4710POPC   NC3 7307  12.064  29.135   9.450
 4710POPC   PO4 7308  12.097  29.191   9.150
 4710POPC   GL1 7309  12.086  29.169   8.850
 4710POPC   GL2 7310  12.066  29.257   8.850
 4710POPC   C1A 7311  12.026  29.129   8.550
 4710POPC   D2A 7312  12.106  29.137   8.250
 4710POPC   C3A 7313  12.074  29.179   7.950
 4710POPC   C4A 7314  12.121  29.112   7.650
 4710POPC   C1B 7315  11.965  29.421   8.550
 4710POPC   C2B 7316  12.005  29.383   8.250
 4710POPC   C3B 7317  11.950  29.422   7.950
 4710POPC   C4B 7318  11.977  29.356   7.650
 4711POPC   NC3 7319   9.021   8.221   9.450
 4711POPC   PO4 7320   8.927   8.231   9.150
 4711POPC   GL1 7321   9.004   8.236   8.850
 4711POPC   GL2 7322   9.046   8.206   8.850
 4711POPC   C1A 7323   8.986   8.212   8.550
 4711POPC   D2A 7324   9.015   8.190   8.250
 4711POPC   C3A 7325   8.968   8.184   7.950
 4711POPC   C4A 7326   8.957   8.151   7.650
 4711POPC   C1B 7327   9.180   8.287   8.550
 4711POPC   C2B 7328   9.222   8.299   8.250
 4711POPC   C3B 7329   9.185   8.284   7.950
 4711POPC   C4B 7330   9.191   8.257   7.650
 4712POPC   NC3 7331   5.067  10.496   9.450
 4712POPC   PO4 7332   5.086  10.552   9.150
 4712POPC   GL1 7333   5.097  10.564   8.850
 4712POPC   GL2 7334   5.152  10.611   8.850
 4712POPC   C1A 7335   5.133  10.537   8.550
 4712POPC   D2A 7336   5.090  10.491   8.250
 4712POPC   C3A 7337   5.108  10.557   7.950
 4712POPC   C4A 7338   5.056  10.563   7.650
 4712POPC   C1B 7339   5.212  10.735   8.550
 4712POPC   C2B 7340   5.211  10.734   8.250
 4712POPC   C3B 7341   5.183  10.783   7.950
 4712POPC   C4B 7342   5.183  10.732   7.650
 4713POPC   NC3 7343  15.967  31.494   9.450
 4713POPC   PO4 7344  15.920  31.455   9.150
 4713POPC   GL1 7345  15.910  31.483   8.850
 4713POPC   GL2 7346  16.098  31.558   8.850
 4713POPC   C1A 7347  15.988  31.458   8.550
 4713POPC   D2A 7348  15.967  31.443   8.250
 4713POPC   C3A 7349  15.997  31.494   7.950
 4713POPC   C4A 7350  15.924  31.499   7.650
 4713POPC   C1B 7351  16.164  31.577   8.550
 4713POPC   C2B 7352  16.167  31.525   8.250
 4713POPC   C3B 7353  16.234  31.560   7.950
 4713POPC   C4B 7354  16.215  31.570   7.650
 4714POPC   NC3 7355   5.087  21.430   9.450
 4714POPC   PO4 7356   5.132  21.435   9.150
 4714POPC   GL1 7357   5.101  21.410   8.850
 4714POPC   GL2 7358   5.208  21.282   8.850
 4714POPC   C1A 7359   5.141  21.432   8.550
 4714POPC   D2A 7360   5.141  21.359   8.250
 4714POPC   C3A 7361   5.075  21.354   7.950
 4714POPC   C4A 7362   5.087  21.414   7.650
 4714POPC   C1B 7363   5.290  21.198   8.550
 4714POPC   C2B 7364   5.256  21.228   8.250
 4714POPC   C3B 7365   5.220  21.157   7.950
 4714POPC   C4B 7366   5.276  21.242   7.650
 4715POPC   NC3 7367   2.739  42.348   9.450
 4715POPC   PO4 7368   2.732  42.306   9.150
 4715POPC   GL1 7369   2.731  42.364   8.850
 4715POPC   GL2 7370   2.608  42.363   8.850
 4715POPC   C1A 7371   2.814  42.333   8.550
 4715POPC   D2A 7372   2.729  42.325   8.250
 4715POPC   C3A 7373   2.724  42.336   7.950
 4715POPC   C4A 7374   2.736  42.314   7.650
 4715POPC   C1B 7375   2.535  42.361   8.550
 4715POPC   C2B 7376   2.479  42.455   8.250
 4715POPC   C3B 7377   2.482  42.396   7.950
 4715POPC   C4B 7378   2.485  42.375   7.650
 4716POPC   NC3 7379  13.628  27.637   9.450
 4716POPC   PO4 7380  13.604  27.557   9.150
 4716POPC   GL1 7381  13.631  27.628   8.850
 4716POPC   GL2 7382  13.792  27.598   8.850
 4716POPC   C1A 7383  13.594  27.643   8.550
 4716POPC   D2A 7384  13.588  27.620   8.250
 4716POPC   C3A 7385  13.578  27.599   7.950
 4716POPC   C4A 7386  13.663  27.589   7.650
 4716POPC   C1B 7387  13.838  27.477   8.550
 4716POPC   C2B 7388  13.862  27.506   8.250
 4716POPC   C3B 7389  13.853  27.512   7.950
 4716POPC   C4B 7390  13.841  27.540   7.650
 4717POPC   NC3 7391  33.785   5.827   9.450
 4717POPC   PO4 7392  33.825   5.913   9.150
 4717POPC   GL1 7393  33.793   5.893   8.850
 4717POPC   GL2 7394  33.810   5.982   8.850
 4717POPC   C1A 7395  33.793   5.847   8.550
 4717POPC   D2A 7396  33.809   5.841   8.250
 4717POPC   C3A 7397  33.810   5.861   7.950
 4717POPC   C4A 7398  33.824   5.827   7.650
 4717POPC   C1B 7399  33.870   6.059   8.550
 4717POPC   C2B 7400  33.901   6.068   8.250
 4717POPC   C3B 7401  33.936   6.136   7.950
 4717POPC   C4B 7402  33.893   6.060   7.650
 4718POPC   NC3 7403  40.762  26.866   9.450
 4718POPC   PO4 7404  40.775  26.804   9.150
 4718POPC   GL1 7405  40.772  26.831   8.850
 4718POPC   GL2 7406  40.693  26.949   8.850
 4718POPC   C1A 7407  40.756  26.788   8.550
 4718POPC   D2A 7408  40.767  26.851   8.250
 4718POPC   C3A 7409  40.756  26.863   7.950
 4718POPC   C4A 7410  40.740  26.771   7.650
 4718POPC   C1B 7411  40.657  27.003   8.550
 4718POPC   C2B 7412  40.577  27.049   8.250
 4718POPC   C3B 7413  40.604  27.000   7.950
 4718POPC   C4B 7414  40.618  27.002   7.650
 4719POPC   NC3 7415  39.251  28.325   9.450
 4719POPC   PO4 7416  39.215  28.418   9.150
 4719POPC   GL1 7417  39.256  28.334   8.850
 4719POPC   GL2 7418  39.369  28.360   8.850
 4719POPC   C1A 7419  39.195  28.399   8.550
 4719POPC   D2A 7420  39.215  28.332   8.250
 4719POPC   C3A 7421  39.218  28.342   7.950
 4719POPC   C4A 7422  39.196  28.327   7.650
 4719POPC   C1B 7423  39.456  28.297   8.550
 4719POPC   C2B 7424  39.457  28.258   8.250
 4719POPC   C3B 7425  39.480  28.252   7.950
 4719POPC   C4B 7426  39.489  28.277   7.650
 4720POPC   NC3 7427   6.640  38.458   9.450
 4720POPC   PO4 7428   6.654  38.467   9.150
 4720POPC   GL1 7429   6.652  38.418   8.850
 4720POPC   GL2 7430   6.695  38.514   8.850
 4720POPC   C1A 7431   6.675  38.449   8.550
 4720POPC   D2A 7432   6.652  38.488   8.250
 4720POPC   C3A 7433   6.603  38.467   7.950
 4720POPC   C4A 7434   6.639  38.493   7.650
 4720POPC   C1B 7435   6.861  38.592   8.550
 4720POPC   C2B 7436   6.811  38.650   8.250
 4720POPC   C3B 7437   6.807  38.633   7.950
 4720POPC   C4B 7438   6.833  38.651   7.650
 4721POPC   NC3 7439  10.492  23.698   9.450
 4721POPC   PO4 7440  10.506  23.702   9.150
 4721POPC   GL1 7441  10.525  23.720   8.850
 4721POPC   GL2 7442  10.544  23.626   8.850
 4721POPC   C1A 7443  10.547  23.703   8.550
 4721POPC   D2A 7444  10.506  23.762   8.250
 4721POPC   C3A 7445  10.544  23.685   7.950
 4721POPC   C4A 7446  10.485  23.715   7.650
 4721POPC   C1B 7447  10.500  23.448   8.550
 4721POPC   C2B 7448  10.544  23.482   8.250
 4721POPC   C3B 7449  10.562  23.451   7.950
 4721POPC   C4B 7450  10.516  23.442   7.650
 4722POPC   NC3 7451  19.025  34.602   9.450
 4722POPC   PO4 7452  19.092  34.604   9.150
 4722POPC   GL1 7453  19.061  34.584   8.850
 4722POPC   GL2 7454  19.044  34.408   8.850
 4722POPC   C1A 7455  19.103  34.527   8.550
 4722POPC   D2A 7456  19.107  34.574   8.250
 4722POPC   C3A 7457  19.080  34.535   7.950
 4722POPC   C4A 7458  19.100  34.546   7.650
 4722POPC   C1B 7459  19.053  34.307   8.550
 4722POPC   C2B 7460  19.060  34.368   8.250
 4722POPC   C3B 7461  19.048  34.339   7.950
 4722POPC   C4B 7462  19.038  34.336   7.650
 4723POPC   NC3 7463  23.760  22.209   9.450
 4723POPC   PO4 7464  23.719  22.162   9.150
 4723POPC   GL1 7465  23.722  22.125   8.850
 4723POPC   GL2 7466  23.791  22.202   8.850
 4723POPC   C1A 7467  23.698  22.154   8.550
 4723POPC   D2A 7468  23.687  22.156   8.250
 4723POPC   C3A 7469  23.758  22.196   7.950
 4723POPC   C4A 7470  23.699  22.169   7.650
 4723POPC   C1B 7471  23.973  22.317   8.550
 4723POPC   C2B 7472  23.897  22.309   8.250
 4723POPC   C3B 7473  23.927  22.251   7.950
 4723POPC   C4B 7474  23.918  22.235   7.650
 4724POPC   NC3 7475  33.776  22.916   9.450
 4724POPC   PO4 7476  33.829  22.909   9.150
 4724POPC   GL1 7477  33.808  22.940   8.850
 4724POPC   GL2 7478  33.782  23.050   8.850
 4724POPC   C1A 7479  33.827  22.940   8.550
 4724POPC   D2A 7480  33.820  22.909   8.250
 4724POPC   C3A 7481  33.802  22.970   7.950
 4724POPC   C4A 7482  33.832  22.893   7.650
 4724POPC   C1B 7483  33.794  23.143   8.550
 4724POPC   C2B 7484  33.791  23.162   8.250
 4724POPC   C3B 7485  33.813  23.152   7.950
 4724POPC   C4B 7486  33.821  23.186   7.650
 4725POPC   NC3 7487  32.292  13.607   9.450
 4725POPC   PO4 7488  32.269  13.587   9.150
 4725POPC   GL1 7489  32.260  13.619   8.850
 4725POPC   GL2 7490  32.394  13.631   8.850
 4725POPC   C1A 7491  32.208  13.658   8.550
 4725POPC   D2A 7492  32.295  13.671   8.250
 4725POPC   C3A 7493  32.210  13.641   7.950
 4725POPC   C4A 7494  32.284  13.649   7.650
 4725POPC   C1B 7495  32.510  13.574   8.550
 4725POPC   C2B 7496  32.437  13.561   8.250
 4725POPC   C3B 7497  32.516  13.502   7.950
 4725POPC   C4B 7498  32.465  13.574   7.650
 4726POPC   NC3 7499  44.615  11.274   9.450
 4726POPC   PO4 7500  44.667  11.342   9.150
 4726POPC   GL1 7501  44.680  11.340   8.850
 4726POPC   GL2 7502  44.497  11.291   8.850
 4726POPC   C1A 7503  44.614  11.272   8.550
 4726POPC   D2A 7504  44.681  11.293   8.250
 4726POPC   C3A 7505  44.621  11.261   7.950
 4726POPC   C4A 7506  44.662  11.259   7.650
 4726POPC   C1B 7507  44.439  11.308   8.550
 4726POPC   C2B 7508  44.419  11.348   8.250
 4726POPC   C3B 7509  44.442  11.344   7.950
 4726POPC   C4B 7510  44.374  11.291   7.650
 4727POPC   NC3 7511  43.910   9.726   9.450
 4727POPC   PO4 7512  43.901   9.701   9.150
 4727POPC   GL1 7513  43.858   9.793   8.850
 4727POPC   GL2 7514  43.916   9.663   8.850
 4727POPC   C1A 7515  43.917   9.783   8.550
 4727POPC   D2A 7516  43.862   9.751   8.250
 4727POPC   C3A 7517  43.859   9.786   7.950
 4727POPC   C4A 7518  43.850   9.716   7.650
 4727POPC   C1B 7519  43.970   9.474   8.550
 4727POPC   C2B 7520  43.916   9.549   8.250
 4727POPC   C3B 7521  43.945   9.496   7.950
 4727POPC   C4B 7522  43.944   9.480   7.650
 4728POPC   NC3 7523  29.938  22.132   9.450
 4728POPC   PO4 7524  29.914  22.150   9.150
 4728POPC   GL1 7525  29.920  22.127   8.850
 4728POPC   GL2 7526  29.838  22.169   8.850
 4728POPC   C1A 7527  29.895  22.174   8.550
 4728POPC   D2A 7528  29.961  22.183   8.250
 4728POPC   C3A 7529  29.958  22.163   7.950
 4728POPC   C4A 7530  29.970  22.144   7.650
 4728POPC   C1B 7531  29.654  22.180   8.550
 4728POPC   C2B 7532  29.709  22.098   8.250
 4728POPC   C3B 7533  29.641  22.170   7.950
 4728POPC   C4B 7534  29.659  22.189   7.650
 4729POPC   NC3 7535  37.709  21.408   9.450
 4729POPC   PO4 7536  37.712  21.336   9.150
 4729POPC   GL1 7537  37.679  21.414   8.850
 4729POPC   GL2 7538  37.573  21.335   8.850
 4729POPC   C1A 7539  37.717  21.414   8.550
 4729POPC   D2A 7540  37.711  21.401   8.250
 4729POPC   C3A 7541  37.720  21.427   7.950
 4729POPC   C4A 7542  37.719  21.365   7.650
 4729POPC   C1B 7543  37.461  21.260   8.550
 4729POPC   C2B 7544  37.474  21.265   8.250
 4729POPC   C3B 7545  37.474  21.256   7.950
 4729POPC   C4B 7546  37.522  21.196   7.650
 4730POPC   NC3 7547  32.245  22.906   9.450
 4730POPC   PO4 7548  32.277  22.952   9.150
 4730POPC   GL1 7549  32.208  22.912   8.850
 4730POPC   GL2 7550  32.337  22.855   8.850
 4730POPC   C1A 7551  32.206  22.988   8.550
 4730POPC   D2A 7552  32.270  22.905   8.250
 4730POPC   C3A 7553  32.259  22.899   7.950
 4730POPC   C4A 7554  32.243  22.963   7.650
 4730POPC   C1B 7555  32.462  22.822   8.550
 4730POPC   C2B 7556  32.500  22.885   8.250
 4730POPC   C3B 7557  32.495  22.824   7.950
 4730POPC   C4B 7558  32.446  22.822   7.650
 4731POPC   NC3 7559  19.063  29.966   9.450
 4731POPC   PO4 7560  19.080  29.966   9.150
 4731POPC   GL1 7561  19.085  29.893   8.850
 4731POPC   GL2 7562  19.150  29.827   8.850
 4731POPC   C1A 7563  19.086  29.882   8.550
 4731POPC   D2A 7564  19.038  29.952   8.250
 4731POPC   C3A 7565  19.057  29.926   7.950
 4731POPC   C4A 7566  19.062  29.945   7.650
 4731POPC   C1B 7567  19.281  29.726   8.550
 4731POPC   C2B 7568  19.209  29.718   8.250
 4731POPC   C3B 7569  19.235  29.756   7.950
 4731POPC   C4B 7570  19.245  29.757   7.650
 4732POPC   NC3 7571  25.282  20.570   9.450
 4732POPC   PO4 7572  25.228  20.605   9.150
 4732POPC   GL1 7573  25.236  20.651   8.850
 4732POPC   GL2 7574  25.341  20.756   8.850
 4732POPC   C1A 7575  25.218  20.581   8.550
 4732POPC   D2A 7576  25.267  20.644   8.250
 4732POPC   C3A 7577  25.311  20.581   7.950
 4732POPC   C4A 7578  25.288  20.608   7.650
 4732POPC   C1B 7579  25.326  20.903   8.550
 4732POPC   C2B 7580  25.325  20.869   8.250
 4732POPC   C3B 7581  25.334  20.870   7.950
 4732POPC   C4B 7582  25.320  20.897   7.650
 4733POPC   NC3 7583  10.509  43.160   9.450
 4733POPC   PO4 7584  10.491  43.129   9.150
 4733POPC   GL1 7585  10.504  43.080   8.850
 4733POPC   GL2 7586  10.494  42.982   8.850
 4733POPC   C1A 7587  10.482  43.113   8.550
 4733POPC   D2A 7588  10.559  43.092   8.250
 4733POPC   C3A 7589  10.475  43.090   7.950
 4733POPC   C4A 7590  10.506  43.062   7.650
 4733POPC   C1B 7591  10.420  42.837   8.550
 4733POPC   C2B 7592  10.440  42.857   8.250
 4733POPC   C3B 7593  10.487  42.847   7.950
 4733POPC   C4B 7594  10.452  42.897   7.650
 4734POPC   NC3 7595  12.095  26.836   9.450
 4734POPC   PO4 7596  12.119  26.830   9.150
 4734POPC   GL1 7597  12.096  26.839   8.850
 4734POPC   GL2 7598  11.945  26.826   8.850
 4734POPC   C1A 7599  12.046  26.771   8.550
 4734POPC   D2A 7600  12.095  26.809   8.250
 4734POPC   C3A 7601  12.117  26.782   7.950
 4734POPC   C4A 7602  12.098  26.830   7.650
 4734POPC   C1B 7603  11.822  26.945   8.550
 4734POPC   C2B 7604  11.895  26.947   8.250
 4734POPC   C3B 7605  11.879  26.884   7.950
 4734POPC   C4B 7606  11.873  26.938   7.650
 4735POPC   NC3 7607   7.383   9.738   9.450
 4735POPC   PO4 7608   7.436   9.780   9.150
 4735POPC   GL1 7609   7.414   9.722   8.850
 4735POPC   GL2 7610   7.369   9.608   8.850
 4735POPC   C1A 7611   7.445   9.729   8.550
 4735POPC   D2A 7612   7.452   9.720   8.250
 4735POPC   C3A 7613   7.407   9.781   7.950
 4735POPC   C4A 7614   7.453   9.772   7.650
 4735POPC   C1B 7615   7.258   9.573   8.550
 4735POPC   C2B 7616   7.282   9.551   8.250
 4735POPC   C3B 7617   7.305   9.502   7.950
 4735POPC   C4B 7618   7.324   9.527   7.650
 4736POPC   NC3 7619  14.360  23.716   9.450
 4736POPC   PO4 7620  14.450  23.760   9.150
 4736POPC   GL1 7621  14.398  23.691   8.850
 4736POPC   GL2 7622  14.319  23.724   8.850
 4736POPC   C1A 7623  14.355  23.726   8.550
 4736POPC   D2A 7624  14.383  23.684   8.250
 4736POPC   C3A 7625  14.453  23.707   7.950
 4736POPC   C4A 7626  14.385  23.744   7.650
 4736POPC   C1B 7627  14.176  23.768   8.550
 4736POPC   C2B 7628  14.179  23.798   8.250
 4736POPC   C3B 7629  14.199  23.734   7.950
 4736POPC   C4B 7630  14.169  23.743   7.650
 4737POPC   NC3 7631   8.941  36.159   9.450
 4737POPC   PO4 7632   9.016  36.115   9.150
 4737POPC   GL1 7633   8.970  36.078   8.850
 4737POPC   GL2 7634   9.035  36.055   8.850
 4737POPC   C1A 7635   9.022  36.098   8.550
 4737POPC   D2A 7636   9.010  36.128   8.250
 4737POPC   C3A 7637   8.930  36.126   7.950
 4737POPC   C4A 7638   8.991  36.170   7.650
 4737POPC   C1B 7639   9.149  36.060   8.550
 4737POPC   C2B 7640   9.190  36.009   8.250
 4737POPC   C3B 7641   9.241  36.010   7.950
 4737POPC   C4B 7642   9.189  36.046   7.650
 4738POPC   NC3 7643  37.657  33.026   9.450
 4738POPC   PO4 7644  37.672  33.055   9.150
 4738POPC   GL1 7645  37.654  33.028   8.850
 4738POPC   GL2 7646  37.561  33.054   8.850
 4738POPC   C1A 7647  37.710  32.981   8.550
 4738POPC   D2A 7648  37.652  32.992   8.250
 4738POPC   C3A 7649  37.690  33.003   7.950
 4738POPC   C4A 7650  37.717  33.033   7.650
 4738POPC   C1B 7651  37.402  33.081   8.550
 4738POPC   C2B 7652  37.497  33.105   8.250
 4738POPC   C3B 7653  37.414  33.070   7.950
 4738POPC   C4B 7654  37.480  33.111   7.650
 4739POPC   NC3 7655  33.012  32.241   9.450
 4739POPC   PO4 7656  33.060  32.274   9.150
 4739POPC   GL1 7657  33.062  32.281   8.850
 4739POPC   GL2 7658  33.135  32.181   8.850
 4739POPC   C1A 7659  32.994  32.242   8.550
 4739POPC   D2A 7660  33.011  32.219   8.250
 4739POPC   C3A 7661  33.000  32.284   7.950
 4739POPC   C4A 7662  33.000  32.206   7.650
 4739POPC   C1B 7663  33.156  32.053   8.550
 4739POPC   C2B 7664  33.202  32.022   8.250
 4739POPC   C3B 7665  33.131  32.089   7.950
 4739POPC   C4B 7666  33.177  32.016   7.650
 4740POPC   NC3 7667  21.347   0.441   9.450
 4740POPC   PO4 7668  21.431   0.391   9.150
 4740POPC   GL1 7669  21.345   0.470   8.850
 4740POPC   GL2 7670  21.276   0.299   8.850
 4740POPC   C1A 7671  21.349   0.452   8.550
 4740POPC   D2A 7672  21.345   0.396   8.250
 4740POPC   C3A 7673  21.416   0.485   7.950
 4740POPC   C4A 7674  21.350   0.409   7.650
 4740POPC   C1B 7675  21.266   0.253   8.550
 4740POPC   C2B 7676  21.251   0.181   8.250
 4740POPC   C3B 7677  21.210   0.213   7.950
 4740POPC   C4B 7678  21.299   0.273   7.650
 4741POPC   NC3 7679   9.723  32.997   9.450
 4741POPC   PO4 7680   9.787  32.974   9.150
 4741POPC   GL1 7681   9.795  33.020   8.850
 4741POPC   GL2 7682   9.691  32.929   8.850
 4741POPC   C1A 7683   9.751  33.032   8.550
 4741POPC   D2A 7684   9.705  33.073   8.250
 4741POPC   C3A 7685   9.742  33.054   7.950
 4741POPC   C4A 7686   9.725  32.998   7.650
 4741POPC   C1B 7687   9.740  32.741   8.550
 4741POPC   C2B 7688   9.728  32.777   8.250
 4741POPC   C3B 7689   9.740  32.811   7.950
 4741POPC   C4B 7690   9.721  32.783   7.650
 4742POPC   NC3 7691  19.819  26.008   9.450
 4742POPC   PO4 7692  19.805  26.079   9.150
 4742POPC   GL1 7693  19.818  26.026   8.850
 4742POPC   GL2 7694  19.824  25.965   8.850
 4742POPC   C1A 7695  19.867  26.031   8.550
 4742POPC   D2A 7696  19.835  26.055   8.250
 4742POPC   C3A 7697  19.785  26.062   7.950
 4742POPC   C4A 7698  19.835  25.998   7.650
 4742POPC   C1B 7699  19.775  25.750   8.550
 4742POPC   C2B 7700  19.849  25.750   8.250
 4742POPC   C3B 7701  19.837  25.773   7.950
 4742POPC   C4B 7702  19.768  25.819   7.650
 4743POPC   NC3 7703  22.937   5.124   9.450
 4743POPC   PO4 7704  22.930   5.082   9.150
 4743POPC   GL1 7705  22.957   5.076   8.850
 4743POPC   GL2 7706  22.916   4.937   8.850
 4743POPC   C1A 7707  22.962   5.100   8.550
 4743POPC   D2A 7708  22.933   5.063   8.250
 4743POPC   C3A 7709  22.957   5.128   7.950
 4743POPC   C4A 7710  22.917   5.066   7.650
 4743POPC   C1B 7711  22.867   4.849   8.550
 4743POPC   C2B 7712  22.884   4.884   8.250
 4743POPC   C3B 7713  22.850   4.824   7.950
 4743POPC   C4B 7714  22.879   4.817   7.650
 4744POPC   NC3 7715  21.424  27.552   9.450
 4744POPC   PO4 7716  21.386  27.549   9.150
 4744POPC   GL1 7717  21.357  27.550   8.850
 4744POPC   GL2 7718  21.427  27.499   8.850
 4744POPC   C1A 7719  21.373  27.551   8.550
 4744POPC   D2A 7720  21.382  27.568   8.250
 4744POPC   C3A 7721  21.337  27.629   7.950
 4744POPC   C4A 7722  21.369  27.554   7.650
 4744POPC   C1B 7723  21.423  27.379   8.550
 4744POPC   C2B 7724  21.431  27.326   8.250
 4744POPC   C3B 7725  21.506  27.382   7.950
 4744POPC   C4B 7726  21.442  27.403   7.650
 4745POPC   NC3 7727  26.829  23.741   9.450
 4745POPC   PO4 7728  26.849  23.732   9.150
 4745POPC   GL1 7729  26.796  23.691   8.850
 4745POPC   GL2 7730  26.810  23.821   8.850
 4745POPC   C1A 7731  26.825  23.749   8.550
 4745POPC   D2A 7732  26.860  23.673   8.250
 4745POPC   C3A 7733  26.808  23.735   7.950
 4745POPC   C4A 7734  26.831  23.676   7.650
 4745POPC   C1B 7735  26.851  23.984   8.550
 4745POPC   C2B 7736  26.832  23.972   8.250
 4745POPC   C3B 7737  26.908  23.935   7.950
 4745POPC   C4B 7738  26.899  23.948   7.650
 4746POPC   NC3 7739  31.493  22.138   9.450
 4746POPC   PO4 7740  31.430  22.173   9.150
 4746POPC   GL1 7741  31.461  22.178   8.850
 4746POPC   GL2 7742  31.369  22.049   8.850
 4746POPC   C1A 7743  31.449  22.138   8.550
 4746POPC   D2A 7744  31.466  22.150   8.250
 4746POPC   C3A 7745  31.430  22.137   7.950
 4746POPC   C4A 7746  31.462  22.135   7.650
 4746POPC   C1B 7747  31.302  21.943   8.550
 4746POPC   C2B 7748  31.359  21.995   8.250
 4746POPC   C3B 7749  31.330  21.921   7.950
 4746POPC   C4B 7750  31.333  21.912   7.650
 4747POPC   NC3 7751  22.920  10.512   9.450
 4747POPC   PO4 7752  22.939  10.513   9.150
 4747POPC   GL1 7753  22.953  10.501   8.850
 4747POPC   GL2 7754  22.830  10.534   8.850
 4747POPC   C1A 7755  22.904  10.569   8.550
 4747POPC   D2A 7756  22.963  10.500   8.250
 4747POPC   C3A 7757  22.945  10.479   7.950
 4747POPC   C4A 7758  22.898  10.537   7.650
 4747POPC   C1B 7759  22.729  10.544   8.550
 4747POPC   C2B 7760  22.714  10.564   8.250
 4747POPC   C3B 7761  22.659  10.607   7.950
 4747POPC   C4B 7762  22.728  10.541   7.650
 4748POPC   NC3 7763  32.293   7.390   9.450
 4748POPC   PO4 7764  32.271   7.376   9.150
 4748POPC   GL1 7765  32.201   7.427   8.850
 4748POPC   GL2 7766  32.270   7.482   8.850
 4748POPC   C1A 7767  32.221   7.463   8.550
 4748POPC   D2A 7768  32.251   7.460   8.250
 4748POPC   C3A 7769  32.268   7.433   7.950
 4748POPC   C4A 7770  32.297   7.373   7.650
 4748POPC   C1B 7771  32.396   7.676   8.550
 4748POPC   C2B 7772  32.425   7.623   8.250
 4748POPC   C3B 7773  32.391   7.616   7.950
 4748POPC   C4B 7774  32.401   7.590   7.650
 4749POPC   NC3 7775  41.510  34.587   9.450
 4749POPC   PO4 7776  41.517  34.549   9.150
 4749POPC   GL1 7777  41.605  34.543   8.850
 4749POPC   GL2 7778  41.470  34.577   8.850
 4749POPC   C1A 7779  41.583  34.596   8.550
 4749POPC   D2A 7780  41.577  34.612   8.250
 4749POPC   C3A 7781  41.538  34.604   7.950
 4749POPC   C4A 7782  41.551  34.585   7.650
 4749POPC   C1B 7783  41.300  34.713   8.550
 4749POPC   C2B 7784  41.316  34.642   8.250
 4749POPC   C3B 7785  41.336  34.707   7.950
 4749POPC   C4B 7786  41.351  34.652   7.650
 4750POPC   NC3 7787   7.413  32.236   9.450
 4750POPC   PO4 7788   7.424  32.284   9.150
 4750POPC   GL1 7789   7.424  32.200   8.850
 4750POPC   GL2 7790   7.387  32.355   8.850
 4750POPC   C1A 7791   7.380  32.298   8.550
 4750POPC   D2A 7792   7.376  32.292   8.250
 4750POPC   C3A 7793   7.429  32.290   7.950
 4750POPC   C4A 7794   7.404  32.237   7.650
 4750POPC   C1B 7795   7.383  32.478   8.550
 4750POPC   C2B 7796   7.425  32.506   8.250
 4750POPC   C3B 7797   7.441  32.455   7.950
 4750POPC   C4B 7798   7.451  32.473   7.650
 4751POPC   NC3 7799   6.669  13.585   9.450
 4751POPC   PO4 7800   6.678  13.633   9.150
 4751POPC   GL1 7801   6.646  13.662   8.850
 4751POPC   GL2 7802   6.618  13.530   8.850
 4751POPC   C1A 7803   6.603  13.602   8.550
 4751POPC   D2A 7804   6.605  13.580   8.250
 4751POPC   C3A 7805   6.694  13.621   7.950
 4751POPC   C4A 7806   6.635  13.618   7.650
 4751POPC   C1B 7807   6.680  13.349   8.550
 4751POPC   C2B 7808   6.658  13.402   8.250
 4751POPC   C3B 7809   6.646  13.406   7.950
 4751POPC   C4B 7810   6.707  13.404   7.650
 4752POPC   NC3 7811  12.047  19.056   9.450
 4752POPC   PO4 7812  12.082  19.092   9.150
 4752POPC   GL1 7813  12.060  19.048   8.850
 4752POPC   GL2 7814  11.905  19.067   8.850
 4752POPC   C1A 7815  12.077  19.102   8.550
 4752POPC   D2A 7816  12.089  19.062   8.250
 4752POPC   C3A 7817  12.069  19.035   7.950
 4752POPC   C4A 7818  12.084  19.078   7.650
 4752POPC   C1B 7819  11.842  18.979   8.550
 4752POPC   C2B 7820  11.876  19.010   8.250
 4752POPC   C3B 7821  11.807  18.991   7.950
 4752POPC   C4B 7822  11.818  19.043   7.650
 4753POPC   NC3 7823  25.251  25.279   9.450
 4753POPC   PO4 7824  25.255  25.253   9.150
 4753POPC   GL1 7825  25.258  25.256   8.850
 4753POPC   GL2 7826  25.201  25.176   8.850
 4753POPC   C1A 7827  25.303  25.244   8.550
 4753POPC   D2A 7828  25.226  25.249   8.250
 4753POPC   C3A 7829  25.236  25.223   7.950
 4753POPC   C4A 7830  25.311  25.314   7.650
 4753POPC   C1B 7831  25.119  25.129   8.550
 4753POPC   C2B 7832  25.066  25.117   8.250
 4753POPC   C3B 7833  25.052  25.048   7.950
 4753POPC   C4B 7834  25.120  25.038   7.650
 4754POPC   NC3 7835  38.488  25.299   9.450
 4754POPC   PO4 7836  38.409  25.229   9.150
 4754POPC   GL1 7837  38.488  25.296   8.850
 4754POPC   GL2 7838  38.391  25.158   8.850
 4754POPC   C1A 7839  38.485  25.256   8.550
 4754POPC   D2A 7840  38.477  25.245   8.250
 4754POPC   C3A 7841  38.455  25.218   7.950
 4754POPC   C4A 7842  38.492  25.281   7.650
 4754POPC   C1B 7843  38.373  25.078   8.550
 4754POPC   C2B 7844  38.337  25.081   8.250
 4754POPC   C3B 7845  38.328  25.031   7.950
 4754POPC   C4B 7846  38.339  25.035   7.650
 4755POPC   NC3 7847  17.477  41.555   9.450
 4755POPC   PO4 7848  17.474  41.604   9.150
 4755POPC   GL1 7849  17.500  41.598   8.850
 4755POPC   GL2 7850  17.434  41.710   8.850
 4755POPC   C1A 7851  17.480  41.541   8.550
 4755POPC   D2A 7852  17.524  41.594   8.250
 4755POPC   C3A 7853  17.469  41.534   7.950
 4755POPC   C4A 7854  17.497  41.581   7.650
 4755POPC   C1B 7855  17.406  41.814   8.550
 4755POPC   C2B 7856  17.394  41.820   8.250
 4755POPC   C3B 7857  17.345  41.783   7.950
 4755POPC   C4B 7858  17.423  41.813   7.650
 4756POPC   NC3 7859  29.938   2.738   9.450
 4756POPC   PO4 7860  29.898   2.743   9.150
 4756POPC   GL1 7861  29.900   2.782   8.850
 4756POPC   GL2 7862  29.840   2.858   8.850
 4756POPC   C1A 7863  29.925   2.759   8.550
 4756POPC   D2A 7864  29.881   2.775   8.250
 4756POPC   C3A 7865  29.941   2.756   7.950
 4756POPC   C4A 7866  29.959   2.785   7.650
 4756POPC   C1B 7867  29.704   2.941   8.550
 4756POPC   C2B 7868  29.727   2.895   8.250
 4756POPC   C3B 7869  29.719   2.949   7.950
 4756POPC   C4B 7870  29.702   2.915   7.650
 4757POPC   NC3 7871  19.856  19.095   9.450
 4757POPC   PO4 7872  19.881  19.057   9.150
 4757POPC   GL1 7873  19.797  19.048   8.850
 4757POPC   GL2 7874  19.726  19.025   8.850
 4757POPC   C1A 7875  19.816  19.051   8.550
 4757POPC   D2A 7876  19.817  19.058   8.250
 4757POPC   C3A 7877  19.866  19.035   7.950
 4757POPC   C4A 7878  19.859  19.096   7.650
 4757POPC   C1B 7879  19.648  18.893   8.550
 4757POPC   C2B 7880  19.665  18.870   8.250
 4757POPC   C3B 7881  19.668  18.897   7.950
 4757POPC   C4B 7882  19.595  18.889   7.650
 4758POPC   NC3 7883   5.128  33.029   9.450
 4758POPC   PO4 7884   5.082  33.025   9.150
 4758POPC   GL1 7885   5.120  33.045   8.850
 4758POPC   GL2 7886   5.240  33.017   8.850
 4758POPC   C1A 7887   5.119  33.005   8.550
 4758POPC   D2A 7888   5.109  33.032   8.250
 4758POPC   C3A 7889   5.111  33.014   7.950
 4758POPC   C4A 7890   5.104  33.032   7.650
 4758POPC   C1B 7891   5.339  33.053   8.550
 4758POPC   C2B 7892   5.325  32.989   8.250
 4758POPC   C3B 7893   5.353  32.994   7.950
 4758POPC   C4B 7894   5.305  33.021   7.650
 4759POPC   NC3 7895   7.430  40.809   9.450
 4759POPC   PO4 7896   7.437  40.736   9.150
 4759POPC   GL1 7897   7.405  40.818   8.850
 4759POPC   GL2 7898   7.479  40.888   8.850
 4759POPC   C1A 7899   7.430  40.806   8.550
 4759POPC   D2A 7900   7.416  40.761   8.250
 4759POPC   C3A 7901   7.423  40.766   7.950
 4759POPC   C4A 7902   7.378  40.795   7.650
 4759POPC   C1B 7903   7.528  40.982   8.550
 4759POPC   C2B 7904   7.554  41.047   8.250
 4759POPC   C3B 7905   7.492  41.015   7.950
 4759POPC   C4B 7906   7.535  41.036   7.650
 4760POPC   NC3 7907  16.732   4.293   9.450
 4760POPC   PO4 7908  16.692   4.340   9.150
 4760POPC   GL1 7909  16.722   4.364   8.850
 4760POPC   GL2 7910  16.784   4.156   8.850
 4760POPC   C1A 7911  16.754   4.269   8.550
 4760POPC   D2A 7912  16.733   4.282   8.250
 4760POPC   C3A 7913  16.726   4.358   7.950
 4760POPC   C4A 7914  16.699   4.308   7.650
 4760POPC   C1B 7915  16.767   4.064   8.550
 4760POPC   C2B 7916  16.772   4.030   8.250
 4760POPC   C3B 7917  16.804   4.101   7.950
 4760POPC   C4B 7918  16.745   4.038   7.650
 4761POPC   NC3 7919  31.471  12.090   9.450
 4761POPC   PO4 7920  31.476  12.068   9.150
 4761POPC   GL1 7921  31.448  12.125   8.850
 4761POPC   GL2 7922  31.329  12.153   8.850
 4761POPC   C1A 7923  31.468  12.109   8.550
 4761POPC   D2A 7924  31.459  12.102   8.250
 4761POPC   C3A 7925  31.470  12.086   7.950
 4761POPC   C4A 7926  31.439  12.112   7.650
 4761POPC   C1B 7927  31.296  12.193   8.550
 4761POPC   C2B 7928  31.214  12.191   8.250
 4761POPC   C3B 7929  31.210  12.231   7.950
 4761POPC   C4B 7930  31.256  12.243   7.650
 4762POPC   NC3 7931  40.806  20.582   9.450
 4762POPC   PO4 7932  40.749  20.619   9.150
 4762POPC   GL1 7933  40.767  20.601   8.850
 4762POPC   GL2 7934  40.886  20.563   8.850
 4762POPC   C1A 7935  40.765  20.606   8.550
 4762POPC   D2A 7936  40.818  20.584   8.250
 4762POPC   C3A 7937  40.805  20.587   7.950
 4762POPC   C4A 7938  40.780  20.653   7.650
 4762POPC   C1B 7939  40.990  20.577   8.550
 4762POPC   C2B 7940  40.987  20.541   8.250
 4762POPC   C3B 7941  41.004  20.542   7.950
 4762POPC   C4B 7942  41.056  20.576   7.650
 4763POPC   NC3 7943  29.871  26.049   9.450
 4763POPC   PO4 7944  29.962  26.001   9.150
 4763POPC   GL1 7945  29.919  25.993   8.850
 4763POPC   GL2 7946  30.060  26.026   8.850
 4763POPC   C1A 7947  29.904  26.066   8.550
 4763POPC   D2A 7948  29.900  25.999   8.250
 4763POPC   C3A 7949  29.922  26.015   7.950
 4763POPC   C4A 7950  29.914  26.089   7.650
 4763POPC   C1B 7951  30.196  25.941   8.550
 4763POPC   C2B 7952  30.157  25.899   8.250
 4763POPC   C3B 7953  30.174  25.908   7.950
 4763POPC   C4B 7954  30.102  25.980   7.650
 4764POPC   NC3 7955  35.379  22.117   9.450
 4764POPC   PO4 7956  35.328  22.178   9.150
 4764POPC   GL1 7957  35.361  22.189   8.850
 4764POPC   GL2 7958  35.367  22.256   8.850
 4764POPC   C1A 7959  35.367  22.113   8.550
 4764POPC   D2A 7960  35.391  22.181   8.250
 4764POPC   C3A 7961  35.363  22.126   7.950
 4764POPC   C4A 7962  35.396  22.165   7.650
 4764POPC   C1B 7963  35.386  22.432   8.550
 4764POPC   C2B 7964  35.433  22.374   8.250
 4764POPC   C3B 7965  35.362  22.438   7.950
 4764POPC   C4B 7966  35.433  22.369   7.650
 4765POPC   NC3 7967  25.254  31.512   9.450
 4765POPC   PO4 7968  25.268  31.445   9.150
 4765POPC   GL1 7969  25.301  31.463   8.850
 4765POPC   GL2 7970  25.355  31.441   8.850
 4765POPC   C1A 7971  25.311  31.440   8.550
 4765POPC   D2A 7972  25.268  31.500   8.250
 4765POPC   C3A 7973  25.255  31.443   7.950
 4765POPC   C4A 7974  25.228  31.522   7.650
 4765POPC   C1B 7975  25.456  31.339   8.550
 4765POPC   C2B 7976  25.507  31.371   8.250
 4765POPC   C3B 7977  25.482  31.340   7.950
 4765POPC   C4B 7978  25.457  31.347   7.650
 4766POPC   NC3 7979  23.709   5.842   9.450
 4766POPC   PO4 7980  23.672   5.896   9.150
 4766POPC   GL1 7981  23.688   5.892   8.850
 4766POPC   GL2 7982  23.672   5.998   8.850
 4766POPC   C1A 7983  23.668   5.898   8.550
 4766POPC   D2A 7984  23.719   5.913   8.250
 4766POPC   C3A 7985  23.756   5.875   7.950
 4766POPC   C4A 7986  23.707   5.894   7.650
 4766POPC   C1B 7987  23.589   6.091   8.550
 4766POPC   C2B 7988  23.591   6.077   8.250
 4766POPC   C3B 7989  23.679   6.056   7.950
 4766POPC   C4B 7990  23.584   6.074   7.650
 4767POPC   NC3 7991  24.478   7.457   9.450
 4767POPC   PO4 7992  24.520   7.460   9.150
 4767POPC   GL1 7993  24.506   7.416   8.850
 4767POPC   GL2 7994  24.586   7.576   8.850
 4767POPC   C1A 7995  24.500   7.419   8.550
 4767POPC   D2A 7996  24.538   7.422   8.250
 4767POPC   C3A 7997  24.492   7.433   7.950
 4767POPC   C4A 7998  24.448   7.372   7.650
 4767POPC   C1B 7999  24.580   7.649   8.550
 4767POPC   C2B 8000  24.596   7.603   8.250
 4767POPC   C3B 8001  24.586   7.639   7.950
 4767POPC   C4B 8002  24.550   7.613   7.650
 4768POPC   NC3 8003  29.165  37.712   9.450
 4768POPC   PO4 8004  29.179  37.663   9.150
 4768POPC   GL1 8005  29.185  37.728   8.850
 4768POPC   GL2 8006  29.222  37.596   8.850
 4768POPC   C1A 8007  29.182  37.654   8.550
 4768POPC   D2A 8008  29.098  37.688   8.250
 4768POPC   C3A 8009  29.113  37.649   7.950
 4768POPC   C4A 8010  29.158  37.708   7.650
 4768POPC   C1B 8011  29.422  37.601   8.550
 4768POPC   C2B 8012  29.356  37.621   8.250
 4768POPC   C3B 8013  29.354  37.618   7.950
 4768POPC   C4B 8014  29.377  37.593   7.650
 4769POPC   NC3 8015   1.168  38.439   9.450
 4769POPC   PO4 8016   1.244  38.438   9.150
 4769POPC   GL1 8017   1.262  38.498   8.850
 4769POPC   GL2 8018   1.315  38.537   8.850
 4769POPC   C1A 8019   1.249  38.471   8.550
 4769POPC   D2A 8020   1.192  38.490   8.250
 4769POPC   C3A 8021   1.242  38.438   7.950
 4769POPC   C4A 8022   1.204  38.445   7.650
 4769POPC   C1B 8023   1.456  38.485   8.550
 4769POPC   C2B 8024   1.414  38.527   8.250
 4769POPC   C3B 8025   1.413  38.510   7.950
 4769POPC   C4B 8026   1.458  38.517   7.650
 4770POPC   NC3 8027   0.414  39.263   9.450
 4770POPC   PO4 8028   0.455  39.262   9.150
 4770POPC   GL1 8029   0.394  39.188   8.850
 4770POPC   GL2 8030   0.323  39.123   8.850
 4770POPC   C1A 8031   0.458  39.256   8.550
 4770POPC   D2A 8032   0.397  39.228   8.250
 4770POPC   C3A 8033   0.402  39.234   7.950
 4770POPC   C4A 8034   0.435  39.248   7.650
 4770POPC   C1B 8035   0.260  39.027   8.550
 4770POPC   C2B 8036   0.327  39.002   8.250
 4770POPC   C3B 8037   0.318  39.003   7.950
 4770POPC   C4B 8038   0.343  39.074   7.650
 4771POPC   NC3 8039  36.872  31.492   9.450
 4771POPC   PO4 8040  36.896  31.483   9.150
 4771POPC   GL1 8041  36.914  31.487   8.850
 4771POPC   GL2 8042  36.997  31.382   8.850
 4771POPC   C1A 8043  36.877  31.471   8.550
 4771POPC   D2A 8044  36.949  31.475   8.250
 4771POPC   C3A 8045  36.896  31.479   7.950
 4771POPC   C4A 8046  36.916  31.514   7.650
 4771POPC   C1B 8047  37.089  31.368   8.550
 4771POPC   C2B 8048  37.123  31.401   8.250
 4771POPC   C3B 8049  37.126  31.329   7.950
 4771POPC   C4B 8050  37.177  31.384   7.650
 4772POPC   NC3 8051  26.807  17.465   9.450
 4772POPC   PO4 8052  26.772  17.470   9.150
 4772POPC   GL1 8053  26.803  17.490   8.850
 4772POPC   GL2 8054  26.685  17.414   8.850
 4772POPC   C1A 8055  26.843  17.501   8.550
 4772POPC   D2A 8056  26.840  17.530   8.250
 4772POPC   C3A 8057  26.861  17.472   7.950
 4772POPC   C4A 8058  26.834  17.469   7.650
 4772POPC   C1B 8059  26.623  17.343   8.550
 4772POPC   C2B 8060  26.664  17.325   8.250
 4772POPC   C3B 8061  26.642  17.380   7.950
 4772POPC   C4B 8062  26.650  17.363   7.650
 4773POPC   NC3 8063  23.667  36.117   9.450
 4773POPC   PO4 8064  23.741  36.095   9.150
 4773POPC   GL1 8065  23.759  36.136   8.850
 4773POPC   GL2 8066  23.682  36.270   8.850
 4773POPC   C1A 8067  23.709  36.137   8.550
 4773POPC   D2A 8068  23.710  36.134   8.250
 4773POPC   C3A 8069  23.721  36.168   7.950
 4773POPC   C4A 8070  23.748  36.091   7.650
 4773POPC   C1B 8071  23.729  36.364   8.550
 4773POPC   C2B 8072  23.694  36.328   8.250
 4773POPC   C3B 8073  23.715  36.399   7.950
 4773POPC   C4B 8074  23.690  36.383   7.650
 4774POPC   NC3 8075  25.298  42.349   9.450
 4774POPC   PO4 8076  25.277  42.318   9.150
 4774POPC   GL1 8077  25.289  42.295   8.850
 4774POPC   GL2 8078  25.372  42.332   8.850
 4774POPC   C1A 8079  25.279  42.351   8.550
 4774POPC   D2A 8080  25.271  42.289   8.250
 4774POPC   C3A 8081  25.263  42.317   7.950
 4774POPC   C4A 8082  25.267  42.291   7.650
 4774POPC   C1B 8083  25.476  42.314   8.550
 4774POPC   C2B 8084  25.565  42.294   8.250
 4774POPC   C3B 8085  25.523  42.360   7.950
 4774POPC   C4B 8086  25.502  42.318   7.650
 4775POPC   NC3 8087  32.281  18.265   9.450
 4775POPC   PO4 8088  32.237  18.287   9.150
 4775POPC   GL1 8089  32.208  18.263   8.850
 4775POPC   GL2 8090  32.186  18.355   8.850
 4775POPC   C1A 8091  32.240  18.283   8.550
 4775POPC   D2A 8092  32.239  18.278   8.250
 4775POPC   C3A 8093  32.261  18.270   7.950
 4775POPC   C4A 8094  32.285  18.299   7.650
 4775POPC   C1B 8095  32.126  18.530   8.550
 4775POPC   C2B 8096  32.185  18.488   8.250
 4775POPC   C3B 8097  32.116  18.502   7.950
 4775POPC   C4B 8098  32.106  18.474   7.650
 4776POPC   NC3 8099  14.429  22.924   9.450
 4776POPC   PO4 8100  14.411  22.965   9.150
 4776POPC   GL1 8101  14.437  22.894   8.850
 4776POPC   GL2 8102  14.446  22.892   8.850
 4776POPC   C1A 8103  14.377  22.961   8.550
 4776POPC   D2A 8104  14.397  22.890   8.250
 4776POPC   C3A 8105  14.451  22.934   7.950
 4776POPC   C4A 8106  14.413  22.940   7.650
 4776POPC   C1B 8107  14.605  22.718   8.550
 4776POPC   C2B 8108  14.532  22.790   8.250
 4776POPC   C3B 8109  14.579  22.719   7.950
 4776POPC   C4B 8110  14.524  22.707   7.650
 4777POPC   NC3 8111   8.230   4.323   9.450
 4777POPC   PO4 8112   8.201   4.283   9.150
 4777POPC   GL1 8113   8.165   4.295   8.850
 4777POPC   GL2 8114   8.191   4.469   8.850
 4777POPC   C1A 8115   8.148   4.343   8.550
 4777POPC   D2A 8116   8.216   4.274   8.250
 4777POPC   C3A 8117   8.179   4.364   7.950
 4777POPC   C4A 8118   8.187   4.297   7.650
 4777POPC   C1B 8119   8.121   4.595   8.550
 4777POPC   C2B 8120   8.118   4.575   8.250
 4777POPC   C3B 8121   8.143   4.523   7.950
 4777POPC   C4B 8122   8.128   4.590   7.650
 4778POPC   NC3 8123  15.188  36.906   9.450
 4778POPC   PO4 8124  15.194  36.931   9.150
 4778POPC   GL1 8125  15.146  36.950   8.850
 4778POPC   GL2 8126  15.099  36.967   8.850
 4778POPC   C1A 8127  15.189  36.890   8.550
 4778POPC   D2A 8128  15.134  36.939   8.250
 4778POPC   C3A 8129  15.186  36.933   7.950
 4778POPC   C4A 8130  15.147  36.900   7.650
 4778POPC   C1B 8131  14.979  36.972   8.550
 4778POPC   C2B 8132  14.896  36.936   8.250
 4778POPC   C3B 8133  14.959  36.996   7.950
 4778POPC   C4B 8134  14.940  36.959   7.650
 4779POPC   NC3 8135  20.582  39.999   9.450
 4779POPC   PO4 8136  20.579  40.035   9.150
 4779POPC   GL1 8137  20.613  40.053   8.850
 4779POPC   GL2 8138  20.465  40.119   8.850
 4779POPC   C1A 8139  20.595  39.968   8.550
 4779POPC   D2A 8140  20.637  40.008   8.250
 4779POPC   C3A 8141  20.646  40.001   7.950
 4779POPC   C4A 8142  20.640  39.972   7.650
 4779POPC   C1B 8143  20.421  40.164   8.550
 4779POPC   C2B 8144  20.424  40.152   8.250
 4779POPC   C3B 8145  20.391  40.132   7.950
 4779POPC   C4B 8146  20.385  40.177   7.650
 4780POPC   NC3 8147  40.754  15.224   9.450
 4780POPC   PO4 8148  40.818  15.176   9.150
 4780POPC   GL1 8149  40.751  15.163   8.850
 4780POPC   GL2 8150  40.682  15.110   8.850
 4780POPC   C1A 8151  40.805  15.172   8.550
 4780POPC   D2A 8152  40.814  15.215   8.250
 4780POPC   C3A 8153  40.791  15.144   7.950
 4780POPC   C4A 8154  40.794  15.141   7.650
 4780POPC   C1B 8155  40.629  14.974   8.550
 4780POPC   C2B 8156  40.577  15.032   8.250
 4780POPC   C3B 8157  40.631  14.975   7.950
 4780POPC   C4B 8158  40.571  14.987   7.650
 4781POPC   NC3 8159   3.525  19.850   9.450
 4781POPC   PO4 8160   3.503  19.800   9.150
 4781POPC   GL1 8161   3.581  19.847   8.850
 4781POPC   GL2 8162   3.429  19.808   8.850
 4781POPC   C1A 8163   3.566  19.866   8.550
 4781POPC   D2A 8164   3.572  19.869   8.250
 4781POPC   C3A 8165   3.575  19.882   7.950
 4781POPC   C4A 8166   3.564  19.791   7.650
 4781POPC   C1B 8167   3.315  19.786   8.550
 4781POPC   C2B 8168   3.322  19.829   8.250
 4781POPC   C3B 8169   3.298  19.802   7.950
 4781POPC   C4B 8170   3.270  19.830   7.650
 4782POPC   NC3 8171  17.485  15.220   9.450
 4782POPC   PO4 8172  17.551  15.206   9.150
 4782POPC   GL1 8173  17.478  15.156   8.850
 4782POPC   GL2 8174  17.449  15.124   8.850
 4782POPC   C1A 8175  17.549  15.226   8.550
 4782POPC   D2A 8176  17.553  15.215   8.250
 4782POPC   C3A 8177  17.542  15.213   7.950
 4782POPC   C4A 8178  17.492  15.173   7.650
 4782POPC   C1B 8179  17.362  15.017   8.550
 4782POPC   C2B 8180  17.357  14.987   8.250
 4782POPC   C3B 8181  17.332  15.029   7.950
 4782POPC   C4B 8182  17.368  14.945   7.650
 4783POPC   NC3 8183  39.199  24.456   9.450
 4783POPC   PO4 8184  39.208  24.521   9.150
 4783POPC   GL1 8185  39.267  24.463   8.850
 4783POPC   GL2 8186  39.188  24.595   8.850
 4783POPC   C1A 8187  39.272  24.511   8.550
 4783POPC   D2A 8188  39.275  24.469   8.250
 4783POPC   C3A 8189  39.272  24.498   7.950
 4783POPC   C4A 8190  39.192  24.440   7.650
 4783POPC   C1B 8191  39.116  24.726   8.550
 4783POPC   C2B 8192  39.200  24.734   8.250
 4783POPC   C3B 8193  39.118  24.731   7.950
 4783POPC   C4B 8194  39.197  24.704   7.650
 4784POPC   NC3 8195   2.724  25.251   9.450
 4784POPC   PO4 8196   2.734  25.313   9.150
 4784POPC   GL1 8197   2.778  25.263   8.850
 4784POPC   GL2 8198   2.663  25.151   8.850
 4784POPC   C1A 8199   2.802  25.302   8.550
 4784POPC   D2A 8200   2.804  25.242   8.250
 4784POPC   C3A 8201   2.767  25.241   7.950
 4784POPC   C4A 8202   2.768  25.313   7.650
 4784POPC   C1B 8203   2.588  25.070   8.550
 4784POPC   C2B 8204   2.570  25.085   8.250
 4784POPC   C3B 8205   2.626  25.074   7.950
 4784POPC   C4B 8206   2.607  25.074   7.650
 4785POPC   NC3 8207   2.778  33.793   9.450
 4785POPC   PO4 8208   2.791  33.839   9.150
 4785POPC   GL1 8209   2.790  33.842   8.850
 4785POPC   GL2 8210   2.676  33.826   8.850
 4785POPC   C1A 8211   2.767  33.777   8.550
 4785POPC   D2A 8212   2.769  33.787   8.250
 4785POPC   C3A 8213   2.804  33.850   7.950
 4785POPC   C4A 8214   2.772  33.804   7.650
 4785POPC   C1B 8215   2.485  33.743   8.550
 4785POPC   C2B 8216   2.476  33.768   8.250
 4785POPC   C3B 8217   2.535  33.781   7.950
 4785POPC   C4B 8218   2.517  33.825   7.650
 4786POPC   NC3 8219  22.134  15.161   9.450
 4786POPC   PO4 8220  22.139  15.140   9.150
 4786POPC   GL1 8221  22.114  15.209   8.850
 4786POPC   GL2 8222  22.085  15.135   8.850
 4786POPC   C1A 8223  22.207  15.190   8.550
 4786POPC   D2A 8224  22.120  15.164   8.250
 4786POPC   C3A 8225  22.147  15.184   7.950
 4786POPC   C4A 8226  22.182  15.168   7.650
 4786POPC   C1B 8227  21.944  14.962   8.550
 4786POPC   C2B 8228  22.017  14.962   8.250
 4786POPC   C3B 8229  21.973  14.990   7.950
 4786POPC   C4B 8230  22.019  14.975   7.650
 4787POPC   NC3 8231  18.233  29.118   9.450
 4787POPC   PO4 8232  18.277  29.184   9.150
 4787POPC   GL1 8233  18.314  29.195   8.850
 4787POPC   GL2 8234  18.238  29.069   8.850
 4787POPC   C1A 8235  18.246  29.174   8.550
 4787POPC   D2A 8236  18.244  29.193   8.250
 4787POPC   C3A 8237  18.313  29.184   7.950
 4787POPC   C4A 8238  18.290  29.163   7.650
 4787POPC   C1B 8239  18.268  28.869   8.550
 4787POPC   C2B 8240  18.253  28.934   8.250
 4787POPC   C3B 8241  18.247  28.910   7.950
 4787POPC   C4B 8242  18.254  28.933   7.650
 4788POPC   NC3 8243  18.253  26.805   9.450
 4788POPC   PO4 8244  18.265  26.808   9.150
 4788POPC   GL1 8245  18.312  26.867   8.850
 4788POPC   GL2 8246  18.329  26.758   8.850
 4788POPC   C1A 8247  18.320  26.770   8.550
 4788POPC   D2A 8248  18.294  26.793   8.250
 4788POPC   C3A 8249  18.318  26.813   7.950
 4788POPC   C4A 8250  18.237  26.848   7.650
 4788POPC   C1B 8251  18.479  26.580   8.550
 4788POPC   C2B 8252  18.431  26.580   8.250
 4788POPC   C3B 8253  18.429  26.646   7.950
 4788POPC   C4B 8254  18.434  26.576   7.650
 4789POPC   NC3 8255   9.756   5.137   9.450
 4789POPC   PO4 8256   9.737   5.075   9.150
 4789POPC   GL1 8257   9.718   5.044   8.850
 4789POPC   GL2 8258   9.818   5.166   8.850
 4789POPC   C1A 8259   9.767   5.060   8.550
 4789POPC   D2A 8260   9.718   5.054   8.250
 4789POPC   C3A 8261   9.782   5.072   7.950
 4789POPC   C4A 8262   9.779   5.120   7.650
 4789POPC   C1B 8263   9.871   5.242   8.550
 4789POPC   C2B 8264   9.944   5.267   8.250
 4789POPC   C3B 8265   9.926   5.229   7.950
 4789POPC   C4B 8266   9.948   5.281   7.650
 4790POPC   NC3 8267  30.653   9.737   9.450
 4790POPC   PO4 8268  30.680   9.709   9.150
 4790POPC   GL1 8269  30.690   9.755   8.850
 4790POPC   GL2 8270  30.610   9.697   8.850
 4790POPC   C1A 8271  30.675   9.770   8.550
 4790POPC   D2A 8272  30.685   9.780   8.250
 4790POPC   C3A 8273  30.680   9.791   7.950
 4790POPC   C4A 8274  30.725   9.753   7.650
 4790POPC   C1B 8275  30.544   9.535   8.550
 4790POPC   C2B 8276  30.584   9.565   8.250
 4790POPC   C3B 8277  30.569   9.560   7.950
 4790POPC   C4B 8278  30.498   9.528   7.650
 4791POPC   NC3 8279  36.948  12.897   9.450
 4791POPC   PO4 8280  36.866  12.890   9.150
 4791POPC   GL1 8281  36.929  12.859   8.850
 4791POPC   GL2 8282  36.952  12.814   8.850
 4791POPC   C1A 8283  36.942  12.826   8.550
 4791POPC   D2A 8284  36.951  12.838   8.250
 4791POPC   C3A 8285  36.888  12.849   7.950
 4791POPC   C4A 8286  36.920  12.814   7.650
 4791POPC   C1B 8287  37.042  12.683   8.550
 4791POPC   C2B 8288  37.078  12.723   8.250
 4791POPC   C3B 8289  37.092  12.640   7.950
 4791POPC   C4B 8290  37.053  12.687   7.650
 4792POPC   NC3 8291  33.771  14.432   9.450
 4792POPC   PO4 8292  33.787  14.436   9.150
 4792POPC   GL1 8293  33.791  14.443   8.850
 4792POPC   GL2 8294  33.714  14.500   8.850
 4792POPC   C1A 8295  33.781  14.388   8.550
 4792POPC   D2A 8296  33.834  14.399   8.250
 4792POPC   C3A 8297  33.804  14.409   7.950
 4792POPC   C4A 8298  33.762  14.434   7.650
 4792POPC   C1B 8299  33.693  14.644   8.550
 4792POPC   C2B 8300  33.647  14.579   8.250
 4792POPC   C3B 8301  33.626  14.561   7.950
 4792POPC   C4B 8302  33.619  14.623   7.650
 4793POPC   NC3 8303  39.229  41.563   9.450
 4793POPC   PO4 8304  39.219  41.541   9.150
 4793POPC   GL1 8305  39.234  41.576   8.850
 4793POPC   GL2 8306  39.165  41.702   8.850
 4793POPC   C1A 8307  39.266  41.595   8.550
 4793POPC   D2A 8308  39.215  41.563   8.250
 4793POPC   C3A 8309  39.195  41.576   7.950
 4793POPC   C4A 8310  39.265  41.571   7.650
 4793POPC   C1B 8311  39.125  41.734   8.550
 4793POPC   C2B 8312  39.095  41.742   8.250
 4793POPC   C3B 8313  39.079  41.783   7.950
 4793POPC   C4B 8314  39.136  41.792   7.650
 4794POPC   NC3 8315  26.844  44.655   9.450
 4794POPC   PO4 8316  26.806  44.633   9.150
 4794POPC   GL1 8317  26.845  44.659   8.850
 4794POPC   GL2 8318  26.887  44.571   8.850
 4794POPC   C1A 8319  26.785  44.668   8.550
 4794POPC   D2A 8320  26.806  44.632   8.250
 4794POPC   C3A 8321  26.793  44.633   7.950
 4794POPC   C4A 8322  26.808  44.619   7.650
 4794POPC   C1B 8323  27.069  44.563   8.550
 4794POPC   C2B 8324  27.005  44.543   8.250
 4794POPC   C3B 8325  26.994  44.533   7.950
 4794POPC   C4B 8326  27.053  44.575   7.650
 4795POPC   NC3 8327  36.100  22.945   9.450
 4795POPC   PO4 8328  36.161  22.965   9.150
 4795POPC   GL1 8329  36.140  22.948   8.850
 4795POPC   GL2 8330  36.079  23.014   8.850
 4795POPC   C1A 8331  36.152  22.909   8.550
 4795POPC   D2A 8332  36.106  22.967   8.250
 4795POPC   C3A 8333  36.153  22.925   7.950
 4795POPC   C4A 8334  36.175  22.895   7.650
 4795POPC   C1B 8335  36.044  23.144   8.550
 4795POPC   C2B 8336  36.021  23.210   8.250
 4795POPC   C3B 8337  36.010  23.123   7.950
 4795POPC   C4B 8338  36.005  23.134   7.650
 4796POPC   NC3 8339  38.411  41.578   9.450
 4796POPC   PO4 8340  38.479  41.574   9.150
 4796POPC   GL1 8341  38.505  41.522   8.850
 4796POPC   GL2 8342  38.292  41.547   8.850
 4796POPC   C1A 8343  38.438  41.543   8.550
 4796POPC   D2A 8344  38.465  41.521   8.250
 4796POPC   C3A 8345  38.460  41.548   7.950
 4796POPC   C4A 8346  38.484  41.546   7.650
 4796POPC   C1B 8347  38.224  41.524   8.550
 4796POPC   C2B 8348  38.204  41.524   8.250
 4796POPC   C3B 8349  38.162  41.617   7.950
 4796POPC   C4B 8350  38.173  41.579   7.650
 4797POPC   NC3 8351  16.719  10.507   9.450
 4797POPC   PO4 8352  16.768  10.477   9.150
 4797POPC   GL1 8353  16.733  10.551   8.850
 4797POPC   GL2 8354  16.650  10.655   8.850
 4797POPC   C1A 8355  16.738  10.562   8.550
 4797POPC   D2A 8356  16.735  10.512   8.250
 4797POPC   C3A 8357  16.772  10.543   7.950
 4797POPC   C4A 8358  16.736  10.572   7.650
 4797POPC   C1B 8359  16.562  10.725   8.550
 4797POPC   C2B 8360  16.621  10.698   8.250
 4797POPC   C3B 8361  16.587  10.712   7.950
 4797POPC   C4B 8362  16.541  10.708   7.650
 4798POPC   NC3 8363  14.375   9.783   9.450
 4798POPC   PO4 8364  14.445   9.796   9.150
 4798POPC   GL1 8365  14.366   9.704   8.850
 4798POPC   GL2 8366  14.446   9.686   8.850
 4798POPC   C1A 8367  14.381   9.729   8.550
 4798POPC   D2A 8368  14.374   9.795   8.250
 4798POPC   C3A 8369  14.438   9.784   7.950
 4798POPC   C4A 8370  14.420   9.778   7.650
 4798POPC   C1B 8371  14.528   9.568   8.550
 4798POPC   C2B 8372  14.552   9.521   8.250
 4798POPC   C3B 8373  14.567   9.500   7.950
 4798POPC   C4B 8374  14.483   9.577   7.650
 4799POPC   NC3 8375  42.313  33.775   9.450
 4799POPC   PO4 8376  42.310  33.758   9.150
 4799POPC   GL1 8377  42.379  33.755   8.850
 4799POPC   GL2 8378  42.431  33.867   8.850
 4799POPC   C1A 8379  42.336  33.825   8.550
 4799POPC   D2A 8380  42.295  33.812   8.250
 4799POPC   C3A 8381  42.322  33.808   7.950
 4799POPC   C4A 8382  42.317  33.809   7.650
 4799POPC   C1B 8383  42.580  33.931   8.550
 4799POPC   C2B 8384  42.555  33.919   8.250
 4799POPC   C3B 8385  42.522  33.983   7.950
 4799POPC   C4B 8386  42.504  33.927   7.650
 4800POPC   NC3 8387  26.837  12.116   9.450
 4800POPC   PO4 8388  26.848  12.058   9.150
 4800POPC   GL1 8389  26.822  12.115   8.850
 4800POPC   GL2 8390  26.765  11.996   8.850
 4800POPC   C1A 8391  26.797  12.125   8.550
 4800POPC   D2A 8392  26.820  12.081   8.250
 4800POPC   C3A 8393  26.847  12.036   7.950
 4800POPC   C4A 8394  26.783  12.076   7.650
 4800POPC   C1B 8395  26.784  11.780   8.550
 4800POPC   C2B 8396  26.783  11.836   8.250
 4800POPC   C3B 8397  26.814  11.850   7.950
 4800POPC   C4B 8398  26.749  11.849   7.650
 4801POPC   NC3 8399   1.960  16.735   9.450
 4801POPC   PO4 8400   1.995  16.690   9.150
 4801POPC   GL1 8401   2.003  16.682   8.850
 4801POPC   GL2 8402   1.986  16.854   8.850
 4801POPC   C1A 8403   1.986  16.685   8.550
 4801POPC   D2A 8404   1.955  16.735   8.250
 4801POPC   C3A 8405   2.007  16.720   7.950
 4801POPC   C4A 8406   2.001  16.765   7.650
 4801POPC   C1B 8407   2.068  16.952   8.550
 4801POPC   C2B 8408   2.030  16.954   8.250
 4801POPC   C3B 8409   2.091  16.962   7.950
 4801POPC   C4B 8410   2.050  16.917   7.650
 4802POPC   NC3 8411   0.469  18.322   9.450
 4802POPC   PO4 8412   0.388  18.281   9.150
 4802POPC   GL1 8413   0.413  18.328   8.850
 4802POPC   GL2 8414   0.294  18.328   8.850
 4802POPC   C1A 8415   0.431  18.254   8.550
 4802POPC   D2A 8416   0.476  18.323   8.250
 4802POPC   C3A 8417   0.483  18.244   7.950
 4802POPC   C4A 8418   0.472  18.289   7.650
 4802POPC   C1B 8419   0.154  18.296   8.550
 4802POPC   C2B 8420   0.153  18.337   8.250
 4802POPC   C3B 8421   0.205  18.326   7.950
 4802POPC   C4B 8422   0.153  18.273   7.650
 4803POPC   NC3 8423  13.618  13.631   9.450
 4803POPC   PO4 8424  13.601  13.634   9.150
 4803POPC   GL1 8425  13.645  13.587   8.850
 4803POPC   GL2 8426  13.478  13.714   8.850
 4803POPC   C1A 8427  13.637  13.586   8.550
 4803POPC   D2A 8428  13.594  13.632   8.250
 4803POPC   C3A 8429  13.601  13.615   7.950
 4803POPC   C4A 8430  13.641  13.627   7.650
 4803POPC   C1B 8431  13.363  13.758   8.550
 4803POPC   C2B 8432  13.449  13.791   8.250
 4803POPC   C3B 8433  13.400  13.698   7.950
 4803POPC   C4B 8434  13.432  13.700   7.650
 4804POPC   NC3 8435  33.029  19.803   9.450
 4804POPC   PO4 8436  32.989  19.812   9.150
 4804POPC   GL1 8437  32.991  19.843   8.850
 4804POPC   GL2 8438  32.949  19.689   8.850
 4804POPC   C1A 8439  33.060  19.789   8.550
 4804POPC   D2A 8440  33.034  19.842   8.250
 4804POPC   C3A 8441  33.030  19.787   7.950
 4804POPC   C4A 8442  33.064  19.822   7.650
 4804POPC   C1B 8443  32.896  19.663   8.550
 4804POPC   C2B 8444  32.919  19.615   8.250
 4804POPC   C3B 8445  32.936  19.620   7.950
 4804POPC   C4B 8446  32.937  19.648   7.650
 4805POPC   NC3 8447  40.756  38.446   9.450
 4805POPC   PO4 8448  40.784  38.413   9.150
 4805POPC   GL1 8449  40.797  38.443   8.850
 4805POPC   GL2 8450  40.656  38.429   8.850
 4805POPC   C1A 8451  40.779  38.444   8.550
 4805POPC   D2A 8452  40.830  38.414   8.250
 4805POPC   C3A 8453  40.791  38.431   7.950
 4805POPC   C4A 8454  40.765  38.443   7.650
 4805POPC   C1B 8455  40.550  38.471   8.550
 4805POPC   C2B 8456  40.532  38.424   8.250
 4805POPC   C3B 8457  40.504  38.478   7.950
 4805POPC   C4B 8458  40.532  38.495   7.650
 4806POPC   NC3 8459   5.124   1.969   9.450
 4806POPC   PO4 8460   5.128   2.021   9.150
 4806POPC   GL1 8461   5.107   2.036   8.850
 4806POPC   GL2 8462   5.240   1.901   8.850
 4806POPC   C1A 8463   5.066   2.015   8.550
 4806POPC   D2A 8464   5.136   1.958   8.250
 4806POPC   C3A 8465   5.045   1.991   7.950
 4806POPC   C4A 8466   5.088   2.037   7.650
 4806POPC   C1B 8467   5.307   1.866   8.550
 4806POPC   C2B 8468   5.292   1.851   8.250
 4806POPC   C3B 8469   5.318   1.824   7.950
 4806POPC   C4B 8470   5.296   1.860   7.650
 4807POPC   NC3 8471   1.218  22.972   9.450
 4807POPC   PO4 8472   1.253  22.927   9.150
 4807POPC   GL1 8473   1.224  22.972   8.850
 4807POPC   GL2 8474   1.084  23.001   8.850
 4807POPC   C1A 8475   1.189  22.921   8.550
 4807POPC   D2A 8476   1.194  22.963   8.250
 4807POPC   C3A 8477   1.181  22.899   7.950
 4807POPC   C4A 8478   1.235  22.903   7.650
 4807POPC   C1B 8479   1.073  23.085   8.550
 4807POPC   C2B 8480   1.056  23.100   8.250
 4807POPC   C3B 8481   1.049  23.097   7.950
 4807POPC   C4B 8482   1.078  23.109   7.650
 4808POPC   NC3 8483  43.917   4.318   9.450
 4808POPC   PO4 8484  43.869   4.351   9.150
 4808POPC   GL1 8485  43.845   4.343   8.850
 4808POPC   GL2 8486  43.961   4.168   8.850
 4808POPC   C1A 8487  43.928   4.355   8.550
 4808POPC   D2A 8488  43.876   4.287   8.250
 4808POPC   C3A 8489  43.850   4.317   7.950
 4808POPC   C4A 8490  43.907   4.307   7.650
 4808POPC   C1B 8491  43.913   4.055   8.550
 4808POPC   C2B 8492  43.912   4.125   8.250
 4808POPC   C3B 8493  43.904   4.108   7.950
 4808POPC   C4B 8494  43.900   4.035   7.650
 4809POPC   NC3 8495  43.070  40.786   9.450
 4809POPC   PO4 8496  43.132  40.769   9.150
 4809POPC   GL1 8497  43.063  40.804   8.850
 4809POPC   GL2 8498  43.058  40.715   8.850
 4809POPC   C1A 8499  43.116  40.739   8.550
 4809POPC   D2A 8500  43.091  40.751   8.250
 4809POPC   C3A 8501  43.070  40.779   7.950
 4809POPC   C4A 8502  43.138  40.755   7.650
 4809POPC   C1B 8503  42.927  40.621   8.550
 4809POPC   C2B 8504  43.008  40.581   8.250
 4809POPC   C3B 8505  42.939  40.594   7.950
 4809POPC   C4B 8506  42.968  40.539   7.650
 4810POPC   NC3 8507  43.151  15.990   9.450
 4810POPC   PO4 8508  43.151  15.988   9.150
 4810POPC   GL1 8509  43.080  16.003   8.850
 4810POPC   GL2 8510  43.037  15.874   8.850
 4810POPC   C1A 8511  43.085  15.972   8.550
 4810POPC   D2A 8512  43.104  15.999   8.250
 4810POPC   C3A 8513  43.094  15.914   7.950
 4810POPC   C4A 8514  43.156  15.944   7.650
 4810POPC   C1B 8515  42.854  15.860   8.550
 4810POPC   C2B 8516  42.914  15.859   8.250
 4810POPC   C3B 8517  42.866  15.841   7.950
 4810POPC   C4B 8518  42.898  15.794   7.650
 4811POPC   NC3 8519  40.028   8.179   9.450
 4811POPC   PO4 8520  40.007   8.209   9.150
 4811POPC   GL1 8521  40.006   8.164   8.850
 4811POPC   GL2 8522  39.961   8.162   8.850
 4811POPC   C1A 8523  40.028   8.245   8.550
 4811POPC   D2A 8524  40.004   8.185   8.250
 4811POPC   C3A 8525  40.018   8.168   7.950
 4811POPC   C4A 8526  39.991   8.207   7.650
 4811POPC   C1B 8527  39.812   8.004   8.550
 4811POPC   C2B 8528  39.841   8.015   8.250
 4811POPC   C3B 8529  39.806   8.037   7.950
 4811POPC   C4B 8530  39.861   8.023   7.650
 4812POPC   NC3 8531  12.851  43.912   9.450
 4812POPC   PO4 8532  12.806  43.923   9.150
 4812POPC   GL1 8533  12.811  43.870   8.850
 4812POPC   GL2 8534  12.878  43.963   8.850
 4812POPC   C1A 8535  12.894  43.872   8.550
 4812POPC   D2A 8536  12.831  43.871   8.250
 4812POPC   C3A 8537  12.896  43.900   7.950
 4812POPC   C4A 8538  12.878  43.930   7.650
 4812POPC   C1B 8539  12.874  44.173   8.550
 4812POPC   C2B 8540  12.835  44.103   8.250
 4812POPC   C3B 8541  12.866  44.124   7.950
 4812POPC   C4B 8542  12.819  44.143   7.650
 4813POPC   NC3 8543  27.633  11.305   9.450
 4813POPC   PO4 8544  27.640  11.273   9.150
 4813POPC   GL1 8545  27.544  11.319   8.850
 4813POPC   GL2 8546  27.729  11.251   8.850
 4813POPC   C1A 8547  27.581  11.303   8.550
 4813POPC   D2A 8548  27.606  11.310   8.250
 4813POPC   C3A 8549  27.614  11.268   7.950
 4813POPC   C4A 8550  27.603  11.266   7.650
 4813POPC   C1B 8551  27.839  11.247   8.550
 4813POPC   C2B 8552  27.871  11.296   8.250
 4813POPC   C3B 8553  27.865  11.274   7.950
 4813POPC   C4B 8554  27.822  11.265   7.650
 4814POPC   NC3 8555   5.898  43.844   9.450
 4814POPC   PO4 8556   5.839  43.889   9.150
 4814POPC   GL1 8557   5.887  43.845   8.850
 4814POPC   GL2 8558   5.778  43.984   8.850
 4814POPC   C1A 8559   5.852  43.885   8.550
 4814POPC   D2A 8560   5.820  43.908   8.250
 4814POPC   C3A 8561   5.847  43.881   7.950
 4814POPC   C4A 8562   5.828  43.857   7.650
 4814POPC   C1B 8563   5.671  44.029   8.550
 4814POPC   C2B 8564   5.658  44.025   8.250
 4814POPC   C3B 8565   5.671  44.057   7.950
 4814POPC   C4B 8566   5.671  44.016   7.650
 4815POPC   NC3 8567  31.452  15.999   9.450
 4815POPC   PO4 8568  31.485  15.970   9.150
 4815POPC   GL1 8569  31.471  15.957   8.850
 4815POPC   GL2 8570  31.534  15.831   8.850
 4815POPC   C1A 8571  31.480  15.914   8.550
 4815POPC   D2A 8572  31.436  15.994   8.250
 4815POPC   C3A 8573  31.515  15.952   7.950
 4815POPC   C4A 8574  31.503  15.960   7.650
 4815POPC   C1B 8575  31.636  15.794   8.550
 4815POPC   C2B 8576  31.657  15.833   8.250
 4815POPC   C3B 8577  31.644  15.770   7.950
 4815POPC   C4B 8578  31.671  15.830   7.650
 4816POPC   NC3 8579  19.028  18.279   9.450
 4816POPC   PO4 8580  19.087  18.254   9.150
 4816POPC   GL1 8581  19.067  18.287   8.850
 4816POPC   GL2 8582  18.950  18.357   8.850
 4816POPC   C1A 8583  19.011  18.261   8.550
 4816POPC   D2A 8584  19.070  18.267   8.250
 4816POPC   C3A 8585  19.046  18.284   7.950
 4816POPC   C4A 8586  19.039  18.275   7.650
 4816POPC   C1B 8587  18.916  18.420   8.550
 4816POPC   C2B 8588  18.848  18.398   8.250
 4816POPC   C3B 8589  18.881  18.448   7.950
 4816POPC   C4B 8590  18.859  18.449   7.650
 4817POPC   NC3 8591  43.097  29.149   9.450
 4817POPC   PO4 8592  43.122  29.108   9.150
 4817POPC   GL1 8593  43.126  29.127   8.850
 4817POPC   GL2 8594  42.989  29.213   8.850
 4817POPC   C1A 8595  43.150  29.167   8.550
 4817POPC   D2A 8596  43.077  29.117   8.250
 4817POPC   C3A 8597  43.069  29.167   7.950
 4817POPC   C4A 8598  43.089  29.140   7.650
 4817POPC   C1B 8599  42.870  29.287   8.550
 4817POPC   C2B 8600  42.901  29.228   8.250
 4817POPC   C3B 8601  42.870  29.289   7.950
 4817POPC   C4B 8602  42.918  29.246   7.650
 4818POPC   NC3 8603  31.476  21.396   9.450
 4818POPC   PO4 8604  31.513  21.424   9.150
 4818POPC   GL1 8605  31.501  21.360   8.850
 4818POPC   GL2 8606  31.517  21.282   8.850
 4818POPC   C1A 8607  31.452  21.431   8.550
 4818POPC   D2A 8608  31.423  21.414   8.250
 4818POPC   C3A 8609  31.503  21.384   7.950
 4818POPC   C4A 8610  31.448  21.398   7.650
 4818POPC   C1B 8611  31.578  21.150   8.550
 4818POPC   C2B 8612  31.618  21.159   8.250
 4818POPC   C3B 8613  31.669  21.226   7.950
 4818POPC   C4B 8614  31.645  21.144   7.650
 4819POPC   NC3 8615   6.682   1.196   9.450
 4819POPC   PO4 8616   6.657   1.208   9.150
 4819POPC   GL1 8617   6.650   1.216   8.850
 4819POPC   GL2 8618   6.579   1.091   8.850
 4819POPC   C1A 8619   6.673   1.189   8.550
 4819POPC   D2A 8620   6.691   1.184   8.250
 4819POPC   C3A 8621   6.662   1.230   7.950
 4819POPC   C4A 8622   6.691   1.205   7.650
 4819POPC   C1B 8623   6.615   0.968   8.550
 4819POPC   C2B 8624   6.615   0.980   8.250
 4819POPC   C3B 8625   6.597   0.987   7.950
 4819POPC   C4B 8626   6.598   0.968   7.650
 4820POPC   NC3 8627   5.131  15.174   9.450
 4820POPC   PO4 8628   5.060  15.160   9.150
 4820POPC   GL1 8629   5.092  15.216   8.850
 4820POPC   GL2 8630   5.013  15.063   8.850
 4820POPC   C1A 8631   5.076  15.216   8.550
 4820POPC   D2A 8632   5.134  15.145   8.250
 4820POPC   C3A 8633   5.058  15.134   7.950
 4820POPC   C4A 8634   5.115  15.196   7.650
 4820POPC   C1B 8635   4.932  15.032   8.550
 4820POPC   C2B 8636   4.924  15.029   8.250
 4820POPC   C3B 8637   4.918  15.040   7.950
 4820POPC   C4B 8638   4.880  14.995   7.650
 4821POPC   NC3 8639  12.114  42.305   9.450
 4821POPC   PO4 8640  12.085  42.382   9.150
 4821POPC   GL1 8641  12.088  42.336   8.850
 4821POPC   GL2 8642  12.137  42.263   8.850
 4821POPC   C1A 8643  12.116  42.351   8.550
 4821POPC   D2A 8644  12.112  42.348   8.250
 4821POPC   C3A 8645  12.051  42.367   7.950
 4821POPC   C4A 8646  12.083  42.302   7.650
 4821POPC   C1B 8647  12.285  42.230   8.550
 4821POPC   C2B 8648  12.275  42.154   8.250
 4821POPC   C3B 8649  12.288  42.223   7.950
 4821POPC   C4B 8650  12.307  42.150   7.650
 4822POPC   NC3 8651  21.410  35.375   9.450
 4822POPC   PO4 8652  21.407  35.309   9.150
 4822POPC   GL1 8653  21.400  35.363   8.850
 4822POPC   GL2 8654  21.371  35.469   8.850
 4822POPC   C1A 8655  21.410  35.348   8.550
 4822POPC   D2A 8656  21.352  35.305   8.250
 4822POPC   C3A 8657  21.373  35.356   7.950
 4822POPC   C4A 8658  21.352  35.349   7.650
 4822POPC   C1B 8659  21.275  35.606   8.550
 4822POPC   C2B 8660  21.325  35.583   8.250
 4822POPC   C3B 8661  21.271  35.622   7.950
 4822POPC   C4B 8662  21.288  35.592   7.650
 4823POPC   NC3 8663  43.129  36.177   9.450
 4823POPC   PO4 8664  43.083  36.132   9.150
 4823POPC   GL1 8665  43.088  36.153   8.850
 4823POPC   GL2 8666  43.205  36.120   8.850
 4823POPC   C1A 8667  43.147  36.120   8.550
 4823POPC   D2A 8668  43.089  36.167   8.250
 4823POPC   C3A 8669  43.105  36.088   7.950
 4823POPC   C4A 8670  43.149  36.128   7.650
 4823POPC   C1B 8671  43.371  36.233   8.550
 4823POPC   C2B 8672  43.380  36.225   8.250
 4823POPC   C3B 8673  43.325  36.227   7.950
 4823POPC   C4B 8674  43.389  36.201   7.650
 4824POPC   NC3 8675  14.445  43.897   9.450
 4824POPC   PO4 8676  14.446  43.926   9.150
 4824POPC   GL1 8677  14.415  43.912   8.850
 4824POPC   GL2 8678  14.266  43.899   8.850
 4824POPC   C1A 8679  14.372  43.856   8.550
 4824POPC   D2A 8680  14.375  43.871   8.250
 4824POPC   C3A 8681  14.361  43.840   7.950
 4824POPC   C4A 8682  14.372  43.874   7.650
 4824POPC   C1B 8683  14.231  43.986   8.550
 4824POPC   C2B 8684  14.231  44.019   8.250
 4824POPC   C3B 8685  14.206  44.051   7.950
 4824POPC   C4B 8686  14.145  43.997   7.650
 4825POPC   NC3 8687  12.826  39.219   9.450
 4825POPC   PO4 8688  12.867  39.274   9.150
 4825POPC   GL1 8689  12.859  39.208   8.850
 4825POPC   GL2 8690  12.690  39.200   8.850
 4825POPC   C1A 8691  12.842  39.223   8.550
 4825POPC   D2A 8692  12.856  39.238   8.250
 4825POPC   C3A 8693  12.894  39.212   7.950
 4825POPC   C4A 8694  12.867  39.182   7.650
 4825POPC   C1B 8695  12.574  39.223   8.550
 4825POPC   C2B 8696  12.592  39.230   8.250
 4825POPC   C3B 8697  12.585  39.218   7.950
 4825POPC   C4B 8698  12.611  39.230   7.650
 4826POPC   NC3 8699   2.031  20.604   9.450
 4826POPC   PO4 8700   1.966  20.620   9.150
 4826POPC   GL1 8701   1.946  20.600   8.850
 4826POPC   GL2 8702   1.974  20.736   8.850
 4826POPC   C1A 8703   2.030  20.572   8.550
 4826POPC   D2A 8704   1.949  20.611   8.250
 4826POPC   C3A 8705   2.025  20.609   7.950
 4826POPC   C4A 8706   1.967  20.561   7.650
 4826POPC   C1B 8707   1.887  20.846   8.550
 4826POPC   C2B 8708   1.832  20.822   8.250
 4826POPC   C3B 8709   1.880  20.783   7.950
 4826POPC   C4B 8710   1.831  20.859   7.650
 4827POPC   NC3 8711  24.480  29.881   9.450
 4827POPC   PO4 8712  24.454  29.893   9.150
 4827POPC   GL1 8713  24.481  29.895   8.850
 4827POPC   GL2 8714  24.585  29.984   8.850
 4827POPC   C1A 8715  24.499  29.966   8.550
 4827POPC   D2A 8716  24.489  29.970   8.250
 4827POPC   C3A 8717  24.473  29.883   7.950
 4827POPC   C4A 8718  24.450  29.906   7.650
 4827POPC   C1B 8719  24.659  30.060   8.550
 4827POPC   C2B 8720  24.708  30.018   8.250
 4827POPC   C3B 8721  24.720  30.083   7.950
 4827POPC   C4B 8722  24.711  30.034   7.650
 4828POPC   NC3 8723  39.190   9.746   9.450
 4828POPC   PO4 8724  39.255   9.782   9.150
 4828POPC   GL1 8725  39.273   9.737   8.850
 4828POPC   GL2 8726  39.125   9.708   8.850
 4828POPC   C1A 8727  39.244   9.728   8.550
 4828POPC   D2A 8728  39.192   9.783   8.250
 4828POPC   C3A 8729  39.259   9.718   7.950
 4828POPC   C4A 8730  39.226   9.736   7.650
 4828POPC   C1B 8731  38.992   9.704   8.550
 4828POPC   C2B 8732  38.946   9.729   8.250
 4828POPC   C3B 8733  39.012   9.761   7.950
 4828POPC   C4B 8734  39.006   9.732   7.650
 4829POPC   NC3 8735   7.435  26.003   9.450
 4829POPC   PO4 8736   7.428  26.039   9.150
 4829POPC   GL1 8737   7.469  26.042   8.850
 4829POPC   GL2 8738   7.346  26.137   8.850
 4829POPC   C1A 8739   7.466  26.058   8.550
 4829POPC   D2A 8740   7.441  26.060   8.250
 4829POPC   C3A 8741   7.467  26.080   7.950
 4829POPC   C4A 8742   7.377  26.039   7.650
 4829POPC   C1B 8743   7.246  26.237   8.550
 4829POPC   C2B 8744   7.230  26.159   8.250
 4829POPC   C3B 8745   7.208  26.173   7.950
 4829POPC   C4B 8746   7.221  26.161   7.650
 4830POPC   NC3 8747   1.165   8.935   9.450
 4830POPC   PO4 8748   1.224   8.981   9.150
 4830POPC   GL1 8749   1.258   8.924   8.850
 4830POPC   GL2 8750   1.308   8.906   8.850
 4830POPC   C1A 8751   1.213   8.948   8.550
 4830POPC   D2A 8752   1.175   8.975   8.250
 4830POPC   C3A 8753   1.217   8.937   7.950
 4830POPC   C4A 8754   1.202   8.942   7.650
 4830POPC   C1B 8755   1.356   8.733   8.550
 4830POPC   C2B 8756   1.278   8.726   8.250
 4830POPC   C3B 8757   1.302   8.711   7.950
 4830POPC   C4B 8758   1.330   8.789   7.650
 4831POPC   NC3 8759  43.905  18.308   9.450
 4831POPC   PO4 8760  43.891  18.329   9.150
 4831POPC   GL1 8761  43.893  18.281   8.850
 4831POPC   GL2 8762  44.040  18.310   8.850
 4831POPC   C1A 8763  43.876  18.317   8.550
 4831POPC   D2A 8764  43.857  18.305   8.250
 4831POPC   C3A 8765  43.899  18.256   7.950
 4831POPC   C4A 8766  43.849  18.240   7.650
 4831POPC   C1B 8767  44.126  18.406   8.550
 4831POPC   C2B 8768  44.125  18.451   8.250
 4831POPC   C3B 8769  44.150  18.390   7.950
 4831POPC   C4B 8770  44.126  18.406   7.650
 4832POPC   NC3 8771  16.713  42.307   9.450
 4832POPC   PO4 8772  16.705  42.288   9.150
 4832POPC   GL1 8773  16.691  42.372   8.850
 4832POPC   GL2 8774  16.677  42.418   8.850
 4832POPC   C1A 8775  16.779  42.320   8.550
 4832POPC   D2A 8776  16.774  42.303   8.250
 4832POPC   C3A 8777  16.715  42.323   7.950
 4832POPC   C4A 8778  16.695  42.303   7.650
 4832POPC   C1B 8779  16.728  42.599   8.550
 4832POPC   C2B 8780  16.680  42.549   8.250
 4832POPC   C3B 8781  16.693  42.616   7.950
 4832POPC   C4B 8782  16.716  42.602   7.650
 4833POPC   NC3 8783  27.627  28.390   9.450
 4833POPC   PO4 8784  27.556  28.392   9.150
 4833POPC   GL1 8785  27.577  28.388   8.850
 4833POPC   GL2 8786  27.505  28.394   8.850
 4833POPC   C1A 8787  27.560  28.364   8.550
 4833POPC   D2A 8788  27.562  28.376   8.250
 4833POPC   C3A 8789  27.601  28.408   7.950
 4833POPC   C4A 8790  27.588  28.327   7.650
 4833POPC   C1B 8791  27.364  28.473   8.550
 4833POPC   C2B 8792  27.376  28.468   8.250
 4833POPC   C3B 8793  27.388  28.453   7.950
 4833POPC   C4B 8794  27.374  28.503   7.650
 4834POPC   NC3 8795  32.251  42.339   9.450
 4834POPC   PO4 8796  32.243  42.366   9.150
 4834POPC   GL1 8797  32.214  42.347   8.850
 4834POPC   GL2 8798  32.164  42.183   8.850
 4834POPC   C1A 8799  32.285  42.364   8.550
 4834POPC   D2A 8800  32.292  42.337   8.250
 4834POPC   C3A 8801  32.280  42.331   7.950
 4834POPC   C4A 8802  32.222  42.320   7.650
 4834POPC   C1B 8803  32.139  42.126   8.550
 4834POPC   C2B 8804  32.109  42.116   8.250
 4834POPC   C3B 8805  32.136  42.172   7.950
 4834POPC   C4B 8806  32.126  42.149   7.650
 4835POPC   NC3 8807  28.390   5.080   9.450
 4835POPC   PO4 8808  28.321   5.050   9.150
 4835POPC   GL1 8809  28.403   5.088   8.850
 4835POPC   GL2 8810  28.409   5.238   8.850
 4835POPC   C1A 8811  28.402   5.142   8.550
 4835POPC   D2A 8812  28.398   5.079   8.250
 4835POPC   C3A 8813  28.325   5.116   7.950
 4835POPC   C4A 8814  28.418   5.089   7.650
 4835POPC   C1B 8815  28.517   5.291   8.550
 4835POPC   C2B 8816  28.558   5.325   8.250
 4835POPC   C3B 8817  28.527   5.251   7.950
 4835POPC   C4B 8818  28.507   5.317   7.650
 4836POPC   NC3 8819  44.619  41.520   9.450
 4836POPC   PO4 8820  44.697  41.538   9.150
 4836POPC   GL1 8821  44.692  41.600   8.850
 4836POPC   GL2 8822  44.629  41.712   8.850
 4836POPC   C1A 8823  44.664  41.575   8.550
 4836POPC   D2A 8824  44.630  41.548   8.250
 4836POPC   C3A 8825  44.650  41.556   7.950
 4836POPC   C4A 8826  44.668  41.533   7.650
 4836POPC   C1B 8827  44.611  41.818   8.550
 4836POPC   C2B 8828  44.660  41.765   8.250
 4836POPC   C3B 8829  44.635  41.804   7.950
 4836POPC   C4B 8830  44.689  41.778   7.650
 4837POPC   NC3 8831   7.424   9.012   9.450
 4837POPC   PO4 8832   7.460   8.995   9.150
 4837POPC   GL1 8833   7.455   8.975   8.850
 4837POPC   GL2 8834   7.297   8.942   8.850
 4837POPC   C1A 8835   7.425   8.966   8.550
 4837POPC   D2A 8836   7.424   8.933   8.250
 4837POPC   C3A 8837   7.373   8.949   7.950
 4837POPC   C4A 8838   7.457   8.960   7.650
 4837POPC   C1B 8839   7.198   8.917   8.550
 4837POPC   C2B 8840   7.133   8.919   8.250
 4837POPC   C3B 8841   7.151   8.864   7.950
 4837POPC   C4B 8842   7.159   8.892   7.650
 4838POPC   NC3 8843  30.683  10.564   9.450
 4838POPC   PO4 8844  30.665  10.478   9.150
 4838POPC   GL1 8845  30.698  10.550   8.850
 4838POPC   GL2 8846  30.682  10.377   8.850
 4838POPC   C1A 8847  30.726  10.561   8.550
 4838POPC   D2A 8848  30.675  10.530   8.250
 4838POPC   C3A 8849  30.709  10.500   7.950
 4838POPC   C4A 8850  30.660  10.487   7.650
 4838POPC   C1B 8851  30.558  10.297   8.550
 4838POPC   C2B 8852  30.565  10.283   8.250
 4838POPC   C3B 8853  30.584  10.295   7.950
 4838POPC   C4B 8854  30.603  10.323   7.650
 4839POPC   NC3 8855  33.001  36.107   9.450
 4839POPC   PO4 8856  33.010  36.118   9.150
 4839POPC   GL1 8857  32.987  36.080   8.850
 4839POPC   GL2 8858  32.924  36.141   8.850
 4839POPC   C1A 8859  32.985  36.085   8.550
 4839POPC   D2A 8860  33.028  36.149   8.250
 4839POPC   C3A 8861  33.012  36.100   7.950
 4839POPC   C4A 8862  33.053  36.168   7.650
 4839POPC   C1B 8863  32.756  36.102   8.550
 4839POPC   C2B 8864  32.737  36.138   8.250
 4839POPC   C3B 8865  32.777  36.175   7.950
 4839POPC   C4B 8866  32.817  36.156   7.650
 4840POPC   NC3 8867  17.465  37.702   9.450
 4840POPC   PO4 8868  17.534  37.667   9.150
 4840POPC   GL1 8869  17.523  37.725   8.850
 4840POPC   GL2 8870  17.537  37.764   8.850
 4840POPC   C1A 8871  17.460  37.682   8.550
 4840POPC   D2A 8872  17.482  37.660   8.250
 4840POPC   C3A 8873  17.472  37.726   7.950
 4840POPC   C4A 8874  17.539  37.689   7.650
 4840POPC   C1B 8875  17.570  37.921   8.550
 4840POPC   C2B 8876  17.532  37.930   8.250
 4840POPC   C3B 8877  17.606  37.874   7.950
 4840POPC   C4B 8878  17.593  37.895   7.650
 4841POPC   NC3 8879  33.048  37.653   9.450
 4841POPC   PO4 8880  33.064  37.701   9.150
 4841POPC   GL1 8881  33.009  37.718   8.850
 4841POPC   GL2 8882  33.108  37.608   8.850
 4841POPC   C1A 8883  33.031  37.665   8.550
 4841POPC   D2A 8884  33.005  37.664   8.250
 4841POPC   C3A 8885  32.994  37.651   7.950
 4841POPC   C4A 8886  33.061  37.703   7.650
 4841POPC   C1B 8887  33.145  37.457   8.550
 4841POPC   C2B 8888  33.212  37.451   8.250
 4841POPC   C3B 8889  33.170  37.534   7.950
 4841POPC   C4B 8890  33.170  37.521   7.650
 4842POPC   NC3 8891  35.385  41.578   9.450
 4842POPC   PO4 8892  35.386  41.592   9.150
 4842POPC   GL1 8893  35.320  41.596   8.850
 4842POPC   GL2 8894  35.241  41.448   8.850
 4842POPC   C1A 8895  35.388  41.591   8.550
 4842POPC   D2A 8896  35.349  41.597   8.250
 4842POPC   C3A 8897  35.376  41.552   7.950
 4842POPC   C4A 8898  35.383  41.527   7.650
 4842POPC   C1B 8899  35.106  41.461   8.550
 4842POPC   C2B 8900  35.173  41.428   8.250
 4842POPC   C3B 8901  35.131  41.387   7.950
 4842POPC   C4B 8902  35.110  41.385   7.650
 4843POPC   NC3 8903  37.657  35.388   9.450
 4843POPC   PO4 8904  37.647  35.309   9.150
 4843POPC   GL1 8905  37.711  35.359   8.850
 4843POPC   GL2 8906  37.540  35.443   8.850
 4843POPC   C1A 8907  37.708  35.401   8.550
 4843POPC   D2A 8908  37.723  35.322   8.250
 4843POPC   C3A 8909  37.716  35.391   7.950
 4843POPC   C4A 8910  37.688  35.373   7.650
 4843POPC   C1B 8911  37.469  35.566   8.550
 4843POPC   C2B 8912  37.521  35.501   8.250
 4843POPC   C3B 8913  37.469  35.514   7.950
 4843POPC   C4B 8914  37.464  35.559   7.650
 4844POPC   NC3 8915  25.272  27.580   9.450
 4844POPC   PO4 8916  25.279  27.616   9.150
 4844POPC   GL1 8917  25.306  27.643   8.850
 4844POPC   GL2 8918  25.393  27.647   8.850
 4844POPC   C1A 8919  25.294  27.569   8.550
 4844POPC   D2A 8920  25.302  27.616   8.250
 4844POPC   C3A 8921  25.253  27.559   7.950
 4844POPC   C4A 8922  25.222  27.556   7.650
 4844POPC   C1B 8923  25.508  27.749   8.550
 4844POPC   C2B 8924  25.519  27.685   8.250
 4844POPC   C3B 8925  25.444  27.703   7.950
 4844POPC   C4B 8926  25.515  27.762   7.650
 4845POPC   NC3 8927  39.185  19.066   9.450
 4845POPC   PO4 8928  39.256  19.021   9.150
 4845POPC   GL1 8929  39.246  19.082   8.850
 4845POPC   GL2 8930  39.320  18.986   8.850
 4845POPC   C1A 8931  39.196  19.013   8.550
 4845POPC   D2A 8932  39.184  19.029   8.250
 4845POPC   C3A 8933  39.210  19.108   7.950
 4845POPC   C4A 8934  39.208  19.073   7.650
 4845POPC   C1B 8935  39.506  18.987   8.550
 4845POPC   C2B 8936  39.464  19.052   8.250
 4845POPC   C3B 8937  39.503  18.973   7.950
 4845POPC   C4B 8938  39.433  18.962   7.650
 4846POPC   NC3 8939  29.968  30.697   9.450
 4846POPC   PO4 8940  29.944  30.677   9.150
 4846POPC   GL1 8941  29.891  30.675   8.850
 4846POPC   GL2 8942  29.909  30.772   8.850
 4846POPC   C1A 8943  29.884  30.658   8.550
 4846POPC   D2A 8944  29.911  30.685   8.250
 4846POPC   C3A 8945  29.928  30.652   7.950
 4846POPC   C4A 8946  29.943  30.721   7.650
 4846POPC   C1B 8947  29.945  30.943   8.550
 4846POPC   C2B 8948  30.021  30.927   8.250
 4846POPC   C3B 8949  29.994  30.895   7.950
 4846POPC   C4B 8950  29.945  30.904   7.650
 4847POPC   NC3 8951   5.112  33.803   9.450
 4847POPC   PO4 8952   5.125  33.774   9.150
 4847POPC   GL1 8953   5.055  33.776   8.850
 4847POPC   GL2 8954   5.145  33.768   8.850
 4847POPC   C1A 8955   5.118  33.775   8.550
 4847POPC   D2A 8956   5.070  33.841   8.250
 4847POPC   C3A 8957   5.054  33.813   7.950
 4847POPC   C4A 8958   5.138  33.832   7.650
 4847POPC   C1B 8959   5.287  33.607   8.550
 4847POPC   C2B 8960   5.286  33.659   8.250
 4847POPC   C3B 8961   5.328  33.677   7.950
 4847POPC   C4B 8962   5.259  33.649   7.650
 4848POPC   NC3 8963  13.670  16.710   9.450
 4848POPC   PO4 8964  13.580  16.722   9.150
 4848POPC   GL1 8965  13.625  16.693   8.850
 4848POPC   GL2 8966  13.511  16.832   8.850
 4848POPC   C1A 8967  13.676  16.768   8.550
 4848POPC   D2A 8968  13.602  16.741   8.250
 4848POPC   C3A 8969  13.652  16.768   7.950
 4848POPC   C4A 8970  13.645  16.681   7.650
 4848POPC   C1B 8971  13.372  16.856   8.550
 4848POPC   C2B 8972  13.387  16.885   8.250
 4848POPC   C3B 8973  13.363  16.809   7.950
 4848POPC   C4B 8974  13.413  16.905   7.650
 4849POPC   NC3 8975  43.913   5.832   9.450
 4849POPC   PO4 8976  43.915   5.857   9.150
 4849POPC   GL1 8977  43.840   5.836   8.850
 4849POPC   GL2 8978  43.911   5.968   8.850
 4849POPC   C1A 8979  43.934   5.836   8.550
 4849POPC   D2A 8980  43.934   5.843   8.250
 4849POPC   C3A 8981  43.895   5.827   7.950
 4849POPC   C4A 8982  43.850   5.907   7.650
 4849POPC   C1B 8983  43.915   6.151   8.550
 4849POPC   C2B 8984  43.915   6.146   8.250
 4849POPC   C3B 8985  43.889   6.075   7.950
 4849POPC   C4B 8986  43.883   6.093   7.650
 4850POPC   NC3 8987  37.657   0.432   9.450
 4850POPC   PO4 8988  37.721   0.407   9.150
 4850POPC   GL1 8989  37.716   0.464   8.850
 4850POPC   GL2 8990  37.701   0.312   8.850
 4850POPC   C1A 8991  37.704   0.390   8.550
 4850POPC   D2A 8992  37.713   0.450   8.250
 4850POPC   C3A 8993  37.728   0.413   7.950
 4850POPC   C4A 8994  37.660   0.393   7.650
 4850POPC   C1B 8995  37.827   0.211   8.550
 4850POPC   C2B 8996  37.806   0.226   8.250
 4850POPC   C3B 8997  37.755   0.196   7.950
 4850POPC   C4B 8998  37.799   0.193   7.650
 4851POPC   NC3 8999  35.393   5.905   9.450
 4851POPC   PO4 9000  35.370   5.875   9.150
 4851POPC   GL1 9001  35.314   5.843   8.850
 4851POPC   GL2 9002  35.415   5.733   8.850
 4851POPC   C1A 9003  35.365   5.850   8.550
 4851POPC   D2A 9004  35.397   5.854   8.250
 4851POPC   C3A 9005  35.342   5.826   7.950
 4851POPC   C4A 9006  35.386   5.911   7.650
 4851POPC   C1B 9007  35.447   5.590   8.550
 4851POPC   C2B 9008  35.405   5.587   8.250
 4851POPC   C3B 9009  35.438   5.601   7.950
 4851POPC   C4B 9010  35.440   5.604   7.650
 4852POPC   NC3 9011  34.573  34.592   9.450
 4852POPC   PO4 9012  34.589  34.613   9.150
 4852POPC   GL1 9013  34.592  34.602   8.850
 4852POPC   GL2 9014  34.691  34.671   8.850
 4852POPC   C1A 9015  34.616  34.597   8.550
 4852POPC   D2A 9016  34.625  34.608   8.250
 4852POPC   C3A 9017  34.565  34.552   7.950
 4852POPC   C4A 9018  34.625  34.543   7.650
 4852POPC   C1B 9019  34.800  34.717   8.550
 4852POPC   C2B 9020  34.772  34.719   8.250
 4852POPC   C3B 9021  34.777  34.758   7.950
 4852POPC   C4B 9022  34.765  34.688   7.650
 4853POPC   NC3 9023  41.549   7.465   9.450
 4853POPC   PO4 9024  41.592   7.405   9.150
 4853POPC   GL1 9025  41.573   7.404   8.850
 4853POPC   GL2 9026  41.408   7.501   8.850
 4853POPC   C1A 9027  41.604   7.400   8.550
 4853POPC   D2A 9028  41.600   7.407   8.250
 4853POPC   C3A 9029  41.587   7.430   7.950
 4853POPC   C4A 9030  41.584   7.457   7.650
 4853POPC   C1B 9031  41.373   7.543   8.550
 4853POPC   C2B 9032  41.371   7.569   8.250
 4853POPC   C3B 9033  41.353   7.524   7.950
 4853POPC   C4B 9034  41.327   7.572   7.650
 4854POPC   NC3 9035  41.598  35.316   9.450
 4854POPC   PO4 9036  41.510  35.334   9.150
 4854POPC   GL1 9037  41.580  35.311   8.850
 4854POPC   GL2 9038  41.667  35.245   8.850
 4854POPC   C1A 9039  41.602  35.399   8.550
 4854POPC   D2A 9040  41.574  35.355   8.250
 4854POPC   C3A 9041  41.585  35.381   7.950
 4854POPC   C4A 9042  41.515  35.320   7.650
 4854POPC   C1B 9043  41.804  35.216   8.550
 4854POPC   C2B 9044  41.797  35.172   8.250
 4854POPC   C3B 9045  41.727  35.204   7.950
 4854POPC   C4B 9046  41.760  35.260   7.650
 4855POPC   NC3 9047   6.661  19.017   9.450
 4855POPC   PO4 9048   6.642  19.023   9.150
 4855POPC   GL1 9049   6.690  19.083   8.850
 4855POPC   GL2 9050   6.726  19.052   8.850
 4855POPC   C1A 9051   6.608  19.043   8.550
 4855POPC   D2A 9052   6.612  19.052   8.250
 4855POPC   C3A 9053   6.623  19.080   7.950
 4855POPC   C4A 9054   6.657  19.030   7.650
 4855POPC   C1B 9055   6.851  19.097   8.550
 4855POPC   C2B 9056   6.897  19.110   8.250
 4855POPC   C3B 9057   6.898  19.097   7.950
 4855POPC   C4B 9058   6.884  19.145   7.650
 4856POPC   NC3 9059  26.790  31.482   9.450
 4856POPC   PO4 9060  26.780  31.521   9.150
 4856POPC   GL1 9061  26.822  31.448   8.850
 4856POPC   GL2 9062  26.877  31.603   8.850
 4856POPC   C1A 9063  26.769  31.443   8.550
 4856POPC   D2A 9064  26.804  31.470   8.250
 4856POPC   C3A 9065  26.832  31.499   7.950
 4856POPC   C4A 9066  26.796  31.447   7.650
 4856POPC   C1B 9067  26.885  31.691   8.550
 4856POPC   C2B 9068  26.833  31.728   8.250
 4856POPC   C3B 9069  26.872  31.749   7.950
 4856POPC   C4B 9070  26.850  31.706   7.650
 4857POPC   NC3 9071  33.001  31.427   9.450
 4857POPC   PO4 9072  33.010  31.459   9.150
 4857POPC   GL1 9073  33.073  31.507   8.850
 4857POPC   GL2 9074  33.095  31.367   8.850
 4857POPC   C1A 9075  33.057  31.488   8.550
 4857POPC   D2A 9076  33.026  31.461   8.250
 4857POPC   C3A 9077  32.996  31.472   7.950
 4857POPC   C4A 9078  33.065  31.504   7.650
 4857POPC   C1B 9079  33.243  31.281   8.550
 4857POPC   C2B 9080  33.180  31.326   8.250
 4857POPC   C3B 9081  33.229  31.337   7.950
 4857POPC   C4B 9082  33.245  31.301   7.650
 4858POPC   NC3 9083   0.483   1.215   9.450
 4858POPC   PO4 9084   0.443   1.225   9.150
 4858POPC   GL1 9085   0.479   1.202   8.850
 4858POPC   GL2 9086   0.554   1.242   8.850
 4858POPC   C1A 9087   0.438   1.188   8.550
 4858POPC   D2A 9088   0.388   1.251   8.250
 4858POPC   C3A 9089   0.427   1.230   7.950
 4858POPC   C4A 9090   0.483   1.211   7.650
 4858POPC   C1B 9091   0.636   1.386   8.550
 4858POPC   C2B 9092   0.642   1.385   8.250
 4858POPC   C3B 9093   0.643   1.364   7.950
 4858POPC   C4B 9094   0.630   1.320   7.650
 4859POPC   NC3 9095  21.372  31.485   9.450
 4859POPC   PO4 9096  21.373  31.485   9.150
 4859POPC   GL1 9097  21.397  31.490   8.850
 4859POPC   GL2 9098  21.392  31.392   8.850
 4859POPC   C1A 9099  21.364  31.469   8.550
 4859POPC   D2A 9100  21.383  31.472   8.250
 4859POPC   C3A 9101  21.424  31.438   7.950
 4859POPC   C4A 9102  21.419  31.431   7.650
 4859POPC   C1B 9103  21.417  31.246   8.550
 4859POPC   C2B 9104  21.402  31.203   8.250
 4859POPC   C3B 9105  21.449  31.194   7.950
 4859POPC   C4B 9106  21.423  31.216   7.650
 4860POPC   NC3 9107  33.819  26.005   9.450
 4860POPC   PO4 9108  33.773  26.016   9.150
 4860POPC   GL1 9109  33.761  26.065   8.850
 4860POPC   GL2 9110  33.643  26.056   8.850
 4860POPC   C1A 9111  33.850  26.083   8.550
 4860POPC   D2A 9112  33.826  26.032   8.250
 4860POPC   C3A 9113  33.811  26.055   7.950
 4860POPC   C4A 9114  33.798  26.014   7.650
 4860POPC   C1B 9115  33.515  26.075   8.550
 4860POPC   C2B 9116  33.536  26.081   8.250
 4860POPC   C3B 9117  33.554  26.051   7.950
 4860POPC   C4B 9118  33.508  26.043   7.650
 4861POPC   NC3 9119  32.227  30.678   9.450
 4861POPC   PO4 9120  32.238  30.745   9.150
 4861POPC   GL1 9121  32.277  30.688   8.850
 4861POPC   GL2 9122  32.180  30.858   8.850
 4861POPC   C1A 9123  32.272  30.715   8.550
 4861POPC   D2A 9124  32.231  30.737   8.250
 4861POPC   C3A 9125  32.259  30.721   7.950
 4861POPC   C4A 9126  32.250  30.745   7.650
 4861POPC   C1B 9127  32.091  30.895   8.550
 4861POPC   C2B 9128  32.148  30.876   8.250
 4861POPC   C3B 9129  32.128  30.918   7.950
 4861POPC   C4B 9130  32.147  30.912   7.650
 4862POPC   NC3 9131   2.038  27.643   9.450
 4862POPC   PO4 9132   2.026  27.549   9.150
 4862POPC   GL1 9133   2.007  27.577   8.850
 4862POPC   GL2 9134   2.064  27.679   8.850
 4862POPC   C1A 9135   2.039  27.627   8.550
 4862POPC   D2A 9136   1.942  27.574   8.250
 4862POPC   C3A 9137   1.950  27.625   7.950
 4862POPC   C4A 9138   2.023  27.611   7.650
 4862POPC   C1B 9139   2.068  27.840   8.550
 4862POPC   C2B 9140   2.079  27.818   8.250
 4862POPC   C3B 9141   2.092  27.807   7.950
 4862POPC   C4B 9142   2.117  27.831   7.650
 4863POPC   NC3 9143   7.390   7.462   9.450
 4863POPC   PO4 9144   7.391   7.399   9.150
 4863POPC   GL1 9145   7.419   7.382   8.850
 4863POPC   GL2 9146   7.445   7.325   8.850
 4863POPC   C1A 9147   7.379   7.429   8.550
 4863POPC   D2A 9148   7.382   7.436   8.250
 4863POPC   C3A 9149   7.470   7.462   7.950
 4863POPC   C4A 9150   7.425   7.389   7.650
 4863POPC   C1B 9151   7.577   7.163   8.550
 4863POPC   C2B 9152   7.548   7.232   8.250
 4863POPC   C3B 9153   7.534   7.235   7.950
 4863POPC   C4B 9154   7.513   7.219   7.650
 4864POPC   NC3 9155  12.053  15.981   9.450
 4864POPC   PO4 9156  12.121  15.975   9.150
 4864POPC   GL1 9157  12.072  15.973   8.850
 4864POPC   GL2 9158  12.224  15.978   8.850
 4864POPC   C1A 9159  12.124  15.971   8.550
 4864POPC   D2A 9160  12.102  15.908   8.250
 4864POPC   C3A 9161  12.077  15.953   7.950
 4864POPC   C4A 9162  12.106  15.971   7.650
 4864POPC   C1B 9163  12.291  16.044   8.550
 4864POPC   C2B 9164  12.315  16.071   8.250
 4864POPC   C3B 9165  12.258  16.109   7.950
 4864POPC   C4B 9166  12.301  16.070   7.650
 4865POPC   NC3 9167  25.251   5.103   9.450
 4865POPC   PO4 9168  25.305   5.052   9.150
 4865POPC   GL1 9169  25.269   5.051   8.850
 4865POPC   GL2 9170  25.335   5.165   8.850
 4865POPC   C1A 9171  25.241   5.045   8.550
 4865POPC   D2A 9172  25.302   5.135   8.250
 4865POPC   C3A 9173  25.314   5.062   7.950
 4865POPC   C4A 9174  25.276   5.136   7.650
 4865POPC   C1B 9175  25.414   5.302   8.550
 4865POPC   C2B 9176  25.485   5.287   8.250
 4865POPC   C3B 9177  25.399   5.252   7.950
 4865POPC   C4B 9178  25.412   5.301   7.650
 4866POPC   NC3 9179   1.962  19.884   9.450
 4866POPC   PO4 9180   1.975  19.786   9.150
 4866POPC   GL1 9181   2.019  19.824   8.850
 4866POPC   GL2 9182   2.038  19.735   8.850
 4866POPC   C1A 9183   2.030  19.841   8.550
 4866POPC   D2A 9184   2.016  19.845   8.250
 4866POPC   C3A 9185   2.011  19.796   7.950
 4866POPC   C4A 9186   1.949  19.823   7.650
 4866POPC   C1B 9187   2.147  19.634   8.550
 4866POPC   C2B 9188   2.135  19.655   8.250
 4866POPC   C3B 9189   2.119  19.666   7.950
 4866POPC   C4B 9190   2.089  19.586   7.650
 4867POPC   NC3 9191   8.958  23.745   9.450
 4867POPC   PO4 9192   8.944  23.672   9.150
 4867POPC   GL1 9193   8.973  23.701   8.850
 4867POPC   GL2 9194   9.065  23.645   8.850
 4867POPC   C1A 9195   8.977  23.761   8.550
 4867POPC   D2A 9196   8.995  23.691   8.250
 4867POPC   C3A 9197   8.972  23.696   7.950
 4867POPC   C4A 9198   9.007  23.724   7.650
 4867POPC   C1B 9199   9.126  23.467   8.550
 4867POPC   C2B 9200   9.067  23.490   8.250
 4867POPC   C3B 9201   9.107  23.481   7.950
 4867POPC   C4B 9202   9.127  23.530   7.650
 4868POPC   NC3 9203  32.237  27.564   9.450
 4868POPC   PO4 9204  32.243  27.631   9.150
 4868POPC   GL1 9205  32.205  27.597   8.850
 4868POPC   GL2 9206  32.373  27.608   8.850
 4868POPC   C1A 9207  32.240  27.613   8.550
 4868POPC   D2A 9208  32.224  27.545   8.250
 4868POPC   C3A 9209  32.205  27.607   7.950
 4868POPC   C4A 9210  32.265  27.558   7.650
 4868POPC   C1B 9211  32.544  27.593   8.550
 4868POPC   C2B 9212  32.497  27.585   8.250
 4868POPC   C3B 9213  32.515  27.611   7.950
 4868POPC   C4B 9214  32.450  27.579   7.650
 4869POPC   NC3 9215  19.850  19.830   9.450
 4869POPC   PO4 9216  19.788  19.871   9.150
 4869POPC   GL1 9217  19.857  19.859   8.850
 4869POPC   GL2 9218  19.791  19.748   8.850
 4869POPC   C1A 9219  19.824  19.880   8.550
 4869POPC   D2A 9220  19.861  19.859   8.250
 4869POPC   C3A 9221  19.826  19.860   7.950
 4869POPC   C4A 9222  19.784  19.815   7.650
 4869POPC   C1B 9223  19.706  19.563   8.550
 4869POPC   C2B 9224  19.786  19.580   8.250
 4869POPC   C3B 9225  19.772  19.606   7.950
 4869POPC   C4B 9226  19.799  19.550   7.650
 4870POPC   NC3 9227   2.741  43.114   9.450
 4870POPC   PO4 9228   2.795  43.077   9.150
 4870POPC   GL1 9229   2.755  43.111   8.850
 4870POPC   GL2 9230   2.703  43.192   8.850
 4870POPC   C1A 9231   2.771  43.157   8.550
 4870POPC   D2A 9232   2.751  43.063   8.250
 4870POPC   C3A 9233   2.808  43.155   7.950
 4870POPC   C4A 9234   2.757  43.153   7.650
 4870POPC   C1B 9235   2.612  43.345   8.550
 4870POPC   C2B 9236   2.667  43.329   8.250
 4870POPC   C3B 9237   2.582  43.316   7.950
 4870POPC   C4B 9238   2.603  43.337   7.650
 4871POPC   NC3 9239  33.822  17.481   9.450
 4871POPC   PO4 9240  33.786  17.541   9.150
 4871POPC   GL1 9241  33.810  17.540   8.850
 4871POPC   GL2 9242  33.874  17.653   8.850
 4871POPC   C1A 9243  33.765  17.519   8.550
 4871POPC   D2A 9244  33.756  17.490   8.250
 4871POPC   C3A 9245  33.842  17.548   7.950
 4871POPC   C4A 9246  33.847  17.490   7.650
 4871POPC   C1B 9247  33.884  17.707   8.550
 4871POPC   C2B 9248  33.889  17.770   8.250
 4871POPC   C3B 9249  33.886  17.739   7.950
 4871POPC   C4B 9250  33.886  17.758   7.650
 4872POPC   NC3 9251  39.224   8.995   9.450
 4872POPC   PO4 9252  39.197   8.939   9.150
 4872POPC   GL1 9253  39.258   8.935   8.850
 4872POPC   GL2 9254  39.313   9.037   8.850
 4872POPC   C1A 9255  39.233   9.009   8.550
 4872POPC   D2A 9256  39.279   8.966   8.250
 4872POPC   C3A 9257  39.268   8.977   7.950
 4872POPC   C4A 9258  39.238   8.925   7.650
 4872POPC   C1B 9259  39.475   8.982   8.550
 4872POPC   C2B 9260  39.484   8.978   8.250
 4872POPC   C3B 9261  39.428   8.985   7.950
 4872POPC   C4B 9262  39.468   8.981   7.650
 4873POPC   NC3 9263  20.650  19.071   9.450
 4873POPC   PO4 9264  20.580  19.061   9.150
 4873POPC   GL1 9265  20.598  19.025   8.850
 4873POPC   GL2 9266  20.660  19.142   8.850
 4873POPC   C1A 9267  20.612  19.011   8.550
 4873POPC   D2A 9268  20.595  19.086   8.250
 4873POPC   C3A 9269  20.627  19.099   7.950
 4873POPC   C4A 9270  20.651  19.074   7.650
 4873POPC   C1B 9271  20.701  19.280   8.550
 4873POPC   C2B 9272  20.700  19.268   8.250
 4873POPC   C3B 9273  20.704  19.272   7.950
 4873POPC   C4B 9274  20.653  19.256   7.650
 4874POPC   NC3 9275  40.777  34.535   9.450
 4874POPC   PO4 9276  40.812  34.537   9.150
 4874POPC   GL1 9277  40.756  34.591   8.850
 4874POPC   GL2 9278  40.881  34.501   8.850
 4874POPC   C1A 9279  40.830  34.545   8.550
 4874POPC   D2A 9280  40.762  34.578   8.250
 4874POPC   C3A 9281  40.789  34.584   7.950
 4874POPC   C4A 9282  40.781  34.605   7.650
 4874POPC   C1B 9283  40.992  34.551   8.550
 4874POPC   C2B 9284  41.029  34.524   8.250
 4874POPC   C3B 9285  41.030  34.503   7.950
 4874POPC   C4B 9286  41.058  34.547   7.650
 4875POPC   NC3 9287  22.969  43.837   9.450
 4875POPC   PO4 9288  22.930  43.883   9.150
 4875POPC   GL1 9289  22.962  43.880   8.850
 4875POPC   GL2 9290  23.108  43.847   8.850
 4875POPC   C1A 9291  22.918  43.879   8.550
 4875POPC   D2A 9292  22.891  43.894   8.250
 4875POPC   C3A 9293  22.950  43.893   7.950
 4875POPC   C4A 9294  22.895  43.847   7.650
 4875POPC   C1B 9295  23.228  43.820   8.550
 4875POPC   C2B 9296  23.187  43.860   8.250
 4875POPC   C3B 9297  23.219  43.824   7.950
 4875POPC   C4B 9298  23.233  43.895   7.650
 4876POPC   NC3 9299  12.081  27.582   9.450
 4876POPC   PO4 9300  12.088  27.630   9.150
 4876POPC   GL1 9301  12.090  27.633   8.850
 4876POPC   GL2 9302  12.088  27.502   8.850
 4876POPC   C1A 9303  12.049  27.585   8.550
 4876POPC   D2A 9304  12.068  27.606   8.250
 4876POPC   C3A 9305  12.061  27.638   7.950
 4876POPC   C4A 9306  12.030  27.591   7.650
 4876POPC   C1B 9307  12.116  27.313   8.550
 4876POPC   C2B 9308  12.162  27.301   8.250
 4876POPC   C3B 9309  12.156  27.336   7.950
 4876POPC   C4B 9310  12.090  27.312   7.650
 4877POPC   NC3 9311  27.577   5.090   9.450
 4877POPC   PO4 9312  27.597   5.129   9.150
 4877POPC   GL1 9313  27.560   5.054   8.850
 4877POPC   GL2 9314  27.734   5.013   8.850
 4877POPC   C1A 9315  27.567   5.050   8.550
 4877POPC   D2A 9316  27.560   5.101   8.250
 4877POPC   C3A 9317  27.639   5.126   7.950
 4877POPC   C4A 9318  27.634   5.094   7.650
 4877POPC   C1B 9319  27.786   4.948   8.550
 4877POPC   C2B 9320  27.746   4.926   8.250
 4877POPC   C3B 9321  27.764   4.985   7.950
 4877POPC   C4B 9322  27.805   4.923   7.650
 4878POPC   NC3 9323  43.908  22.923   9.450
 4878POPC   PO4 9324  43.912  22.965   9.150
 4878POPC   GL1 9325  43.877  22.934   8.850
 4878POPC   GL2 9326  43.871  22.786   8.850
 4878POPC   C1A 9327  43.848  22.918   8.550
 4878POPC   D2A 9328  43.864  22.906   8.250
 4878POPC   C3A 9329  43.923  22.904   7.950
 4878POPC   C4A 9330  43.864  22.909   7.650
 4878POPC   C1B 9331  43.920  22.725   8.550
 4878POPC   C2B 9332  43.913  22.711   8.250
 4878POPC   C3B 9333  43.982  22.712   7.950
 4878POPC   C4B 9334  43.911  22.732   7.650
 4879POPC   NC3 9335  23.706  17.466   9.450
 4879POPC   PO4 9336  23.734  17.545   9.150
 4879POPC   GL1 9337  23.755  17.525   8.850
 4879POPC   GL2 9338  23.800  17.649   8.850
 4879POPC   C1A 9339  23.692  17.530   8.550
 4879POPC   D2A 9340  23.757  17.552   8.250
 4879POPC   C3A 9341  23.675  17.532   7.950
 4879POPC   C4A 9342  23.741  17.464   7.650
 4879POPC   C1B 9343  23.837  17.734   8.550
 4879POPC   C2B 9344  23.901  17.658   8.250
 4879POPC   C3B 9345  23.896  17.662   7.950
 4879POPC   C4B 9346  23.833  17.682   7.650
 4880POPC   NC3 9347  19.030  38.460   9.450
 4880POPC   PO4 9348  19.094  38.414   9.150
 4880POPC   GL1 9349  19.090  38.436   8.850
 4880POPC   GL2 9350  19.132  38.527   8.850
 4880POPC   C1A 9351  19.054  38.484   8.550
 4880POPC   D2A 9352  19.063  38.472   8.250
 4880POPC   C3A 9353  19.055  38.444   7.950
 4880POPC   C4A 9354  19.073  38.465   7.650
 4880POPC   C1B 9355  19.270  38.624   8.550
 4880POPC   C2B 9356  19.279  38.619   8.250
 4880POPC   C3B 9357  19.255  38.616   7.950
 4880POPC   C4B 9358  19.194  38.672   7.650
 4881POPC   NC3 9359   0.419  34.554   9.450
 4881POPC   PO4 9360   0.438  34.536   9.150
 4881POPC   GL1 9361   0.458  34.615   8.850
 4881POPC   GL2 9362   0.501  34.512   8.850
 4881POPC   C1A 9363   0.447  34.577   8.550
 4881POPC   D2A 9364   0.468  34.534   8.250
 4881POPC   C3A 9365   0.402  34.556   7.950
 4881POPC   C4A 9366   0.469  34.530   7.650
 4881POPC   C1B 9367   0.606  34.398   8.550
 4881POPC   C2B 9368   0.651  34.381   8.250
 4881POPC   C3B 9369   0.577  34.367   7.950
 4881POPC   C4B 9370   0.613  34.360   7.650
 4882POPC   NC3 9371   7.461  12.066   9.450
 4882POPC   PO4 9372   7.445  12.052   9.150
 4882POPC   GL1 9373   7.447  12.100   8.850
 4882POPC   GL2 9374   7.321  11.967   8.850
 4882POPC   C1A 9375   7.465  12.037   8.550
 4882POPC   D2A 9376   7.425  12.073   8.250
 4882POPC   C3A 9377   7.441  12.093   7.950
 4882POPC   C4A 9378   7.419  12.090   7.650
 4882POPC   C1B 9379   7.278  11.844   8.550
 4882POPC   C2B 9380   7.289  11.865   8.250
 4882POPC   C3B 9381   7.276  11.854   7.950
 4882POPC   C4B 9382   7.310  11.889   7.650
 4883POPC   NC3 9383  22.192  43.921   9.450
 4883POPC   PO4 9384  22.186  43.863   9.150
 4883POPC   GL1 9385  22.197  43.840   8.850
 4883POPC   GL2 9386  22.075  43.845   8.850
 4883POPC   C1A 9387  22.166  43.853   8.550
 4883POPC   D2A 9388  22.145  43.902   8.250
 4883POPC   C3A 9389  22.139  43.841   7.950
 4883POPC   C4A 9390  22.175  43.859   7.650
 4883POPC   C1B 9391  21.977  43.683   8.550
 4883POPC   C2B 9392  22.007  43.687   8.250
 4883POPC   C3B 9393  21.980  43.707   7.950
 4883POPC   C4B 9394  21.941  43.750   7.650
 4884POPC   NC3 9395  26.089   7.468   9.450
 4884POPC   PO4 9396  26.018   7.453   9.150
 4884POPC   GL1 9397  26.014   7.417   8.850
 4884POPC   GL2 9398  26.090   7.483   8.850
 4884POPC   C1A 9399  26.054   7.439   8.550
 4884POPC   D2A 9400  26.022   7.406   8.250
 4884POPC   C3A 9401  26.073   7.437   7.950
 4884POPC   C4A 9402  26.004   7.433   7.650
 4884POPC   C1B 9403  26.144   7.644   8.550
 4884POPC   C2B 9404  26.153   7.664   8.250
 4884POPC   C3B 9405  26.176   7.665   7.950
 4884POPC   C4B 9406  26.188   7.589   7.650
 4885POPC   NC3 9407  34.534  21.352   9.450
 4885POPC   PO4 9408  34.548  21.349   9.150
 4885POPC   GL1 9409  34.616  21.375   8.850
 4885POPC   GL2 9410  34.452  21.341   8.850
 4885POPC   C1A 9411  34.558  21.405   8.550
 4885POPC   D2A 9412  34.609  21.348   8.250
 4885POPC   C3A 9413  34.600  21.389   7.950
 4885POPC   C4A 9414  34.562  21.355   7.650
 4885POPC   C1B 9415  34.408  21.188   8.550
 4885POPC   C2B 9416  34.357  21.194   8.250
 4885POPC   C3B 9417  34.424  21.211   7.950
 4885POPC   C4B 9418  34.393  21.215   7.650
 4886POPC   NC3 9419  22.203  30.648   9.450
 4886POPC   PO4 9420  22.192  30.745   9.150
 4886POPC   GL1 9421  22.176  30.732   8.850
 4886POPC   GL2 9422  22.112  30.785   8.850
 4886POPC   C1A 9423  22.145  30.734   8.550
 4886POPC   D2A 9424  22.206  30.664   8.250
 4886POPC   C3A 9425  22.195  30.713   7.950
 4886POPC   C4A 9426  22.147  30.685   7.650
 4886POPC   C1B 9427  22.146  30.981   8.550
 4886POPC   C2B 9428  22.126  30.992   8.250
 4886POPC   C3B 9429  22.175  30.960   7.950
 4886POPC   C4B 9430  22.101  30.982   7.650
 4887POPC   NC3 9431  33.786   9.711   9.450
 4887POPC   PO4 9432  33.772   9.787   9.150
 4887POPC   GL1 9433  33.794   9.711   8.850
 4887POPC   GL2 9434  33.755   9.607   8.850
 4887POPC   C1A 9435  33.783   9.791   8.550
 4887POPC   D2A 9436  33.778   9.766   8.250
 4887POPC   C3A 9437  33.811   9.797   7.950
 4887POPC   C4A 9438  33.814   9.709   7.650
 4887POPC   C1B 9439  33.801   9.462   8.550
 4887POPC   C2B 9440  33.786   9.503   8.250
 4887POPC   C3B 9441  33.786   9.525   7.950
 4887POPC   C4B 9442  33.755   9.515   7.650
 4888POPC   NC3 9443  39.199  31.502   9.450
 4888POPC   PO4 9444  39.223  31.433   9.150
 4888POPC   GL1 9445  39.188  31.447   8.850
 4888POPC   GL2 9446  39.295  31.582   8.850
 4888POPC   C1A 9447  39.209  31.463   8.550
 4888POPC   D2A 9448  39.212  31.454   8.250
 4888POPC   C3A 9449  39.266  31.488   7.950
 4888POPC   C4A 9450  39.186  31.447   7.650
 4888POPC   C1B 9451  39.449  31.660   8.550
 4888POPC   C2B 9452  39.411  31.667   8.250
 4888POPC   C3B 9453  39.373  31.591   7.950
 4888POPC   C4B 9454  39.372  31.636   7.650
 4889POPC   NC3 9455   0.441  23.726   9.450
 4889POPC   PO4 9456   0.485  23.707   9.150
 4889POPC   GL1 9457   0.473  23.688   8.850
 4889POPC   GL2 9458   0.518  23.668   8.850
 4889POPC   C1A 9459   0.482  23.687   8.550
 4889POPC   D2A 9460   0.452  23.737   8.250
 4889POPC   C3A 9461   0.394  23.704   7.950
 4889POPC   C4A 9462   0.440  23.750   7.650
 4889POPC   C1B 9463   0.669  23.637   8.550
 4889POPC   C2B 9464   0.637  23.728   8.250
 4889POPC   C3B 9465   0.719  23.701   7.950
 4889POPC   C4B 9466   0.664  23.664   7.650
 4890POPC   NC3 9467   3.533   8.991   9.450
 4890POPC   PO4 9468   3.546   8.948   9.150
 4890POPC   GL1 9469   3.564   9.002   8.850
 4890POPC   GL2 9470   3.478   8.864   8.850
 4890POPC   C1A 9471   3.576   8.963   8.550
 4890POPC   D2A 9472   3.591   8.953   8.250
 4890POPC   C3A 9473   3.536   8.934   7.950
 4890POPC   C4A 9474   3.502   8.954   7.650
 4890POPC   C1B 9475   3.320   8.861   8.550
 4890POPC   C2B 9476   3.369   8.879   8.250
 4890POPC   C3B 9477   3.288   8.833   7.950
 4890POPC   C4B 9478   3.301   8.817   7.650
 4891POPC   NC3 9479  32.229  32.295   9.450
 4891POPC   PO4 9480  32.238  32.240   9.150
 4891POPC   GL1 9481  32.201  32.250   8.850
 4891POPC   GL2 9482  32.288  32.369   8.850
 4891POPC   C1A 9483  32.261  32.276   8.550
 4891POPC   D2A 9484  32.229  32.292   8.250
 4891POPC   C3A 9485  32.291  32.276   7.950
 4891POPC   C4A 9486  32.255  32.213   7.650
 4891POPC   C1B 9487  32.309  32.480   8.550
 4891POPC   C2B 9488  32.285  32.498   8.250
 4891POPC   C3B 9489  32.280  32.478   7.950
 4891POPC   C4B 9490  32.272  32.506   7.650
 4892POPC   NC3 9491  20.588  26.809   9.450
 4892POPC   PO4 9492  20.579  26.792   9.150
 4892POPC   GL1 9493  20.611  26.803   8.850
 4892POPC   GL2 9494  20.624  26.977   8.850
 4892POPC   C1A 9495  20.626  26.839   8.550
 4892POPC   D2A 9496  20.568  26.844   8.250
 4892POPC   C3A 9497  20.630  26.845   7.950
 4892POPC   C4A 9498  20.652  26.804   7.650
 4892POPC   C1B 9499  20.513  27.007   8.550
 4892POPC   C2B 9500  20.493  27.058   8.250
 4892POPC   C3B 9501  20.532  27.041   7.950
 4892POPC   C4B 9502  20.582  27.017   7.650
 4893POPC   NC3 9503  15.166  40.055   9.450
 4893POPC   PO4 9504  15.149  40.013   9.150
 4893POPC   GL1 9505  15.140  40.044   8.850
 4893POPC   GL2 9506  15.333  39.922   8.850
 4893POPC   C1A 9507  15.199  40.040   8.550
 4893POPC   D2A 9508  15.221  39.963   8.250
 4893POPC   C3A 9509  15.183  39.980   7.950
 4893POPC   C4A 9510  15.222  39.969   7.650
 4893POPC   C1B 9511  15.365  39.837   8.550
 4893POPC   C2B 9512  15.414  39.884   8.250
 4893POPC   C3B 9513  15.349  39.896   7.950
 4893POPC   C4B 9514  15.401  39.868   7.650
 4894POPC   NC3 9515  31.481  43.065   9.450
 4894POPC   PO4 9516  31.450  43.103   9.150
 4894POPC   GL1 9517  31.465  43.159   8.850
 4894POPC   GL2 9518  31.629  43.134   8.850
 4894POPC   C1A 9519  31.439  43.089   8.550
 4894POPC   D2A 9520  31.463  43.145   8.250
 4894POPC   C3A 9521  31.471  43.129   7.950
 4894POPC   C4A 9522  31.487  43.142   7.650
 4894POPC   C1B 9523  31.692  43.156   8.550
 4894POPC   C2B 9524  31.719  43.141   8.250
 4894POPC   C3B 9525  31.715  43.158   7.950
 4894POPC   C4B 9526  31.746  43.169   7.650
 4895POPC   NC3 9527  36.923  14.438   9.450
 4895POPC   PO4 9528  36.914  14.440   9.150
 4895POPC   GL1 9529  36.907  14.381   8.850
 4895POPC   GL2 9530  36.923  14.515   8.850
 4895POPC   C1A 9531  36.895  14.445   8.550
 4895POPC   D2A 9532  36.904  14.443   8.250
 4895POPC   C3A 9533  36.936  14.406   7.950
 4895POPC   C4A 9534  36.935  14.355   7.650
 4895POPC   C1B 9535  37.046  14.597   8.550
 4895POPC   C2B 9536  37.020  14.615   8.250
 4895POPC   C3B 9537  37.022  14.623   7.950
 4895POPC   C4B 9538  37.057  14.644   7.650
 4896POPC   NC3 9539  31.509  15.140   9.450
 4896POPC   PO4 9540  31.424  15.133   9.150
 4896POPC   GL1 9541  31.491  15.209   8.850
 4896POPC   GL2 9542  31.609  15.178   8.850
 4896POPC   C1A 9543  31.443  15.137   8.550
 4896POPC   D2A 9544  31.436  15.148   8.250
 4896POPC   C3A 9545  31.474  15.161   7.950
 4896POPC   C4A 9546  31.481  15.216   7.650
 4896POPC   C1B 9547  31.713  15.089   8.550
 4896POPC   C2B 9548  31.746  15.085   8.250
 4896POPC   C3B 9549  31.734  15.124   7.950
 4896POPC   C4B 9550  31.757  15.146   7.650
 4897POPC   NC3 9551  40.829  15.906   9.450
 4897POPC   PO4 9552  40.738  15.965   9.150
 4897POPC   GL1 9553  40.777  15.976   8.850
 4897POPC   GL2 9554  40.635  15.955   8.850
 4897POPC   C1A 9555  40.807  15.911   8.550
 4897POPC   D2A 9556  40.763  15.972   8.250
 4897POPC   C3A 9557  40.802  15.975   7.950
 4897POPC   C4A 9558  40.819  15.931   7.650
 4897POPC   C1B 9559  40.497  15.953   8.550
 4897POPC   C2B 9560  40.581  15.914   8.250
 4897POPC   C3B 9561  40.534  15.872   7.950
 4897POPC   C4B 9562  40.495  15.933   7.650
 4898POPC   NC3 9563  13.607  38.478   9.450
 4898POPC   PO4 9564  13.670  38.406   9.150
 4898POPC   GL1 9565  13.599  38.436   8.850
 4898POPC   GL2 9566  13.680  38.567   8.850
 4898POPC   C1A 9567  13.580  38.469   8.550
 4898POPC   D2A 9568  13.581  38.407   8.250
 4898POPC   C3A 9569  13.600  38.462   7.950
 4898POPC   C4A 9570  13.604  38.505   7.650
 4898POPC   C1B 9571  13.690  38.682   8.550
 4898POPC   C2B 9572  13.703  38.740   8.250
 4898POPC   C3B 9573  13.739  38.677   7.950
 4898POPC   C4B 9574  13.723  38.649   7.650
 4899POPC   NC3 9575  23.748  25.267   9.450
 4899POPC   PO4 9576  23.746  25.251   9.150
 4899POPC   GL1 9577  23.673  25.287   8.850
 4899POPC   GL2 9578  23.850  25.238   8.850
 4899POPC   C1A 9579  23.684  25.314   8.550
 4899POPC   D2A 9580  23.718  25.239   8.250
 4899POPC   C3A 9581  23.725  25.244   7.950
 4899POPC   C4A 9582  23.764  25.252   7.650
 4899POPC   C1B 9583  24.002  25.216   8.550
 4899POPC   C2B 9584  23.967  25.166   8.250
 4899POPC   C3B 9585  23.945  25.184   7.950
 4899POPC   C4B 9586  23.925  25.250   7.650
 4900POPC   NC3 9587  41.608  29.944   9.450
 4900POPC   PO4 9588  41.520  29.960   9.150
 4900POPC   GL1 9589  41.551  29.878   8.850
 4900POPC   GL2 9590  41.474  29.944   8.850
 4900POPC   C1A 9591  41.578  29.966   8.550
 4900POPC   D2A 9592  41.598  29.885   8.250
 4900POPC   C3A 9593  41.549  29.874   7.950
 4900POPC   C4A 9594  41.583  29.904   7.650
 4900POPC   C1B 9595  41.285  29.885   8.550
 4900POPC   C2B 9596  41.356  29.959   8.250
 4900POPC   C3B 9597  41.355  29.935   7.950
 4900POPC   C4B 9598  41.354  29.954   7.650
 4901POPC   NC3 9599  35.399  40.778   9.450
 4901POPC   PO4 9600  35.365  40.830   9.150
 4901POPC   GL1 9601  35.351  40.784   8.850
 4901POPC   GL2 9602  35.432  40.864   8.850
 4901POPC   C1A 9603  35.357  40.765   8.550
 4901POPC   D2A 9604  35.314  40.763   8.250
 4901POPC   C3A 9605  35.356  40.794   7.950
 4901POPC   C4A 9606  35.381  40.806   7.650
 4901POPC   C1B 9607  35.526  40.898   8.550
 4901POPC   C2B 9608  35.582  40.933   8.250
 4901POPC   C3B 9609  35.557  40.910   7.950
 4901POPC   C4B 9610  35.572  40.941   7.650
 4902POPC   NC3 9611  14.386  11.326   9.450
 4902POPC   PO4 9612  14.447  11.329   9.150
 4902POPC   GL1 9613  14.377  11.263   8.850
 4902POPC   GL2 9614  14.314  11.216   8.850
 4902POPC   C1A 9615  14.375  11.288   8.550
 4902POPC   D2A 9616  14.424  11.259   8.250
 4902POPC   C3A 9617  14.371  11.279   7.950
 4902POPC   C4A 9618  14.376  11.305   7.650
 4902POPC   C1B 9619  14.215  11.176   8.550
 4902POPC   C2B 9620  14.203  11.177   8.250
 4902POPC   C3B 9621  14.166  11.190   7.950
 4902POPC   C4B 9622  14.194  11.120   7.650
 4903POPC   NC3 9623  12.099  24.511   9.450
 4903POPC   PO4 9624  12.048  24.478   9.150
 4903POPC   GL1 9625  12.052  24.527   8.850
 4903POPC   GL2 9626  12.014  24.561   8.850
 4903POPC   C1A 9627  12.051  24.466   8.550
 4903POPC   D2A 9628  12.079  24.536   8.250
 4903POPC   C3A 9629  12.084  24.527   7.950
 4903POPC   C4A 9630  12.040  24.502   7.650
 4903POPC   C1B 9631  11.884  24.720   8.550
 4903POPC   C2B 9632  11.907  24.684   8.250
 4903POPC   C3B 9633  11.942  24.694   7.950
 4903POPC   C4B 9634  11.945  24.737   7.650
 4904POPC   NC3 9635  44.701  15.185   9.450
 4904POPC   PO4 9636  44.703  15.177   9.150
 4904POPC   GL1 9637  44.676  15.178   8.850
 4904POPC   GL2 9638  44.558  15.182   8.850
 4904POPC   C1A 9639  44.648  15.214   8.550
 4904POPC   D2A 9640  44.689  15.131   8.250
 4904POPC   C3A 9641  44.708  15.140   7.950
 4904POPC   C4A 9642  44.696  15.205   7.650
 4904POPC   C1B 9643  44.373  15.140   8.550
 4904POPC   C2B 9644  44.438  15.163   8.250
 4904POPC   C3B 9645  44.458  15.117   7.950
 4904POPC   C4B 9646  44.450  15.149   7.650
 4905POPC   NC3 9647  33.771  30.739   9.450
 4905POPC   PO4 9648  33.808  30.653   9.150
 4905POPC   GL1 9649  33.757  30.707   8.850
 4905POPC   GL2 9650  33.716  30.815   8.850
 4905POPC   C1A 9651  33.822  30.664   8.550
 4905POPC   D2A 9652  33.823  30.688   8.250
 4905POPC   C3A 9653  33.781  30.735   7.950
 4905POPC   C4A 9654  33.789  30.665   7.650
 4905POPC   C1B 9655  33.602  30.889   8.550
 4905POPC   C2B 9656  33.687  30.877   8.250
 4905POPC   C3B 9657  33.612  30.903   7.950
 4905POPC   C4B 9658  33.675  30.843   7.650
 4906POPC   NC3 9659  17.490  39.238   9.450
 4906POPC   PO4 9660  17.556  39.196   9.150
 4906POPC   GL1 9661  17.477  39.222   8.850
 4906POPC   GL2 9662  17.404  39.287   8.850
 4906POPC   C1A 9663  17.488  39.260   8.550
 4906POPC   D2A 9664  17.477  39.262   8.250
 4906POPC   C3A 9665  17.510  39.183   7.950
 4906POPC   C4A 9666  17.460  39.218   7.650
 4906POPC   C1B 9667  17.236  39.301   8.550
 4906POPC   C2B 9668  17.234  39.276   8.250
 4906POPC   C3B 9669  17.257  39.321   7.950
 4906POPC   C4B 9670  17.284  39.247   7.650
 4907POPC   NC3 9671  30.684  43.090   9.450
 4907POPC   PO4 9672  30.715  43.086   9.150
 4907POPC   GL1 9673  30.702  43.099   8.850
 4907POPC   GL2 9674  30.787  43.242   8.850
 4907POPC   C1A 9675  30.695  43.095   8.550
 4907POPC   D2A 9676  30.684  43.095   8.250
 4907POPC   C3A 9677  30.699  43.092   7.950
 4907POPC   C4A 9678  30.741  43.076   7.650
 4907POPC   C1B 9679  30.843  43.287   8.550
 4907POPC   C2B 9680  30.849  43.292   8.250
 4907POPC   C3B 9681  30.855  43.251   7.950
 4907POPC   C4B 9682  30.908  43.275   7.650
 4908POPC   NC3 9683   8.219  26.088   9.450
 4908POPC   PO4 9684   8.183  25.993   9.150
 4908POPC   GL1 9685   8.184  26.052   8.850
 4908POPC   GL2 9686   8.119  26.108   8.850
 4908POPC   C1A 9687   8.178  26.041   8.550
 4908POPC   D2A 9688   8.210  26.034   8.250
 4908POPC   C3A 9689   8.211  26.072   7.950
 4908POPC   C4A 9690   8.181  26.005   7.650
 4908POPC   C1B 9691   8.054  26.278   8.550
 4908POPC   C2B 9692   8.131  26.218   8.250
 4908POPC   C3B 9693   8.061  26.307   7.950
 4908POPC   C4B 9694   8.126  26.226   7.650
 4909POPC   NC3 9695   8.175   5.877   9.450
 4909POPC   PO4 9696   8.235   5.881   9.150
 4909POPC   GL1 9697   8.211   5.917   8.850
 4909POPC   GL2 9698   8.173   6.014   8.850
 4909POPC   C1A 9699   8.173   5.875   8.550
 4909POPC   D2A 9700   8.246   5.829   8.250
 4909POPC   C3A 9701   8.198   5.851   7.950
 4909POPC   C4A 9702   8.227   5.887   7.650
 4909POPC   C1B 9703   8.176   6.085   8.550
 4909POPC   C2B 9704   8.259   6.153   8.250
 4909POPC   C3B 9705   8.250   6.148   7.950
 4909POPC   C4B 9706   8.179   6.076   7.650
 4910POPC   NC3 9707   5.105  27.614   9.450
 4910POPC   PO4 9708   5.143  27.628   9.150
 4910POPC   GL1 9709   5.083  27.617   8.850
 4910POPC   GL2 9710   5.086  27.458   8.850
 4910POPC   C1A 9711   5.056  27.576   8.550
 4910POPC   D2A 9712   5.048  27.574   8.250
 4910POPC   C3A 9713   5.123  27.606   7.950
 4910POPC   C4A 9714   5.054  27.620   7.650
 4910POPC   C1B 9715   5.048  27.350   8.550
 4910POPC   C2B 9716   5.055  27.354   8.250
 4910POPC   C3B 9717   5.015  27.351   7.950
 4910POPC   C4B 9718   5.084  27.306   7.650
 4911POPC   NC3 9719  31.459  30.653   9.450
 4911POPC   PO4 9720  31.451  30.734   9.150
 4911POPC   GL1 9721  31.424  30.684   8.850
 4911POPC   GL2 9722  31.584  30.757   8.850
 4911POPC   C1A 9723  31.433  30.655   8.550
 4911POPC   D2A 9724  31.488  30.699   8.250
 4911POPC   C3A 9725  31.446  30.745   7.950
 4911POPC   C4A 9726  31.496  30.678   7.650
 4911POPC   C1B 9727  31.684  30.732   8.550
 4911POPC   C2B 9728  31.676  30.722   8.250
 4911POPC   C3B 9729  31.705  30.712   7.950
 4911POPC   C4B 9730  31.677  30.782   7.650
 4912POPC   NC3 9731  26.863  26.786   9.450
 4912POPC   PO4 9732  26.834  26.856   9.150
 4912POPC   GL1 9733  26.784  26.770   8.850
 4912POPC   GL2 9734  26.790  26.681   8.850
 4912POPC   C1A 9735  26.789  26.837   8.550
 4912POPC   D2A 9736  26.769  26.852   8.250
 4912POPC   C3A 9737  26.807  26.862   7.950
 4912POPC   C4A 9738  26.794  26.843   7.650
 4912POPC   C1B 9739  26.800  26.579   8.550
 4912POPC   C2B 9740  26.826  26.521   8.250
 4912POPC   C3B 9741  26.853  26.604   7.950
 4912POPC   C4B 9742  26.796  26.557   7.650
 4913POPC   NC3 9743  22.956  16.777   9.450
 4913POPC   PO4 9744  22.924  16.714   9.150
 4913POPC   GL1 9745  22.933  16.758   8.850
 4913POPC   GL2 9746  22.902  16.896   8.850
 4913POPC   C1A 9747  22.918  16.710   8.550
 4913POPC   D2A 9748  22.955  16.717   8.250
 4913POPC   C3A 9749  22.935  16.721   7.950
 4913POPC   C4A 9750  22.970  16.763   7.650
 4913POPC   C1B 9751  22.980  16.976   8.550
 4913POPC   C2B 9752  22.926  16.935   8.250
 4913POPC   C3B 9753  22.958  16.940   7.950
 4913POPC   C4B 9754  22.981  17.017   7.650
 4914POPC   NC3 9755  38.425  30.677   9.450
 4914POPC   PO4 9756  38.412  30.651   9.150
 4914POPC   GL1 9757  38.502  30.703   8.850
 4914POPC   GL2 9758  38.512  30.594   8.850
 4914POPC   C1A 9759  38.421  30.657   8.550
 4914POPC   D2A 9760  38.485  30.732   8.250
 4914POPC   C3A 9761  38.442  30.744   7.950
 4914POPC   C4A 9762  38.490  30.722   7.650
 4914POPC   C1B 9763  38.671  30.590   8.550
 4914POPC   C2B 9764  38.666  30.549   8.250
 4914POPC   C3B 9765  38.676  30.575   7.950
 4914POPC   C4B 9766  38.698  30.539   7.650
 4915POPC   NC3 9767  39.243  43.911   9.450
 4915POPC   PO4 9768  39.252  43.871   9.150
 4915POPC   GL1 9769  39.188  43.848   8.850
 4915POPC   GL2 9770  39.376  43.913   8.850
 4915POPC   C1A 9771  39.274  43.836   8.550
 4915POPC   D2A 9772  39.187  43.858   8.250
 4915POPC   C3A 9773  39.221  43.934   7.950
 4915POPC   C4A 9774  39.187  43.861   7.650
 4915POPC   C1B 9775  39.506  43.907   8.550
 4915POPC   C2B 9776  39.505  43.834   8.250
 4915POPC   C3B 9777  39.474  43.861   7.950
 4915POPC   C4B 9778  39.445  43.839   7.650
 4916POPC   NC3 9779  34.569  16.682   9.450
 4916POPC   PO4 9780  34.559  16.744   9.150
 4916POPC   GL1 9781  34.597  16.726   8.850
 4916POPC   GL2 9782  34.657  16.698   8.850
 4916POPC   C1A 9783  34.622  16.741   8.550
 4916POPC   D2A 9784  34.596  16.757   8.250
 4916POPC   C3A 9785  34.584  16.711   7.950
 4916POPC   C4A 9786  34.549  16.743   7.650
 4916POPC   C1B 9787  34.835  16.759   8.550
 4916POPC   C2B 9788  34.778  16.739   8.250
 4916POPC   C3B 9789  34.848  16.762   7.950
 4916POPC   C4B 9790  34.782  16.714   7.650
 4917POPC   NC3 9791   4.279   1.946   9.450
 4917POPC   PO4 9792   4.283   1.969   9.150
 4917POPC   GL1 9793   4.333   2.029   8.850
 4917POPC   GL2 9794   4.300   2.150   8.850
 4917POPC   C1A 9795   4.353   1.969   8.550
 4917POPC   D2A 9796   4.292   1.978   8.250
 4917POPC   C3A 9797   4.303   2.004   7.950
 4917POPC   C4A 9798   4.288   1.961   7.650
 4917POPC   C1B 9799   4.313   2.221   8.550
 4917POPC   C2B 9800   4.328   2.257   8.250
 4917POPC   C3B 9801   4.348   2.242   7.950
 4917POPC   C4B 9802   4.327   2.216   7.650
 4918POPC   NC3 9803  21.390  36.174   9.450
 4918POPC   PO4 9804  21.384  36.108   9.150
 4918POPC   GL1 9805  21.420  36.168   8.850
 4918POPC   GL2 9806  21.523  36.186   8.850
 4918POPC   C1A 9807  21.403  36.109   8.550
 4918POPC   D2A 9808  21.377  36.168   8.250
 4918POPC   C3A 9809  21.393  36.168   7.950
 4918POPC   C4A 9810  21.391  36.123   7.650
 4918POPC   C1B 9811  21.551  36.269   8.550
 4918POPC   C2B 9812  21.586  36.311   8.250
 4918POPC   C3B 9813  21.609  36.301   7.950
 4918POPC   C4B 9814  21.520  36.340   7.650
 4919POPC   NC3 9815  19.011   2.015   9.450
 4919POPC   PO4 9816  19.087   1.976   9.150
 4919POPC   GL1 9817  19.076   1.984   8.850
 4919POPC   GL2 9818  19.041   1.845   8.850
 4919POPC   C1A 9819  19.018   1.945   8.550
 4919POPC   D2A 9820  19.049   1.999   8.250
 4919POPC   C3A 9821  19.066   2.021   7.950
 4919POPC   C4A 9822  19.013   1.945   7.650
 4919POPC   C1B 9823  19.030   1.756   8.550
 4919POPC   C2B 9824  19.097   1.706   8.250
 4919POPC   C3B 9825  19.011   1.719   7.950
 4919POPC   C4B 9826  19.023   1.697   7.650
 4920POPC   NC3 9827  33.031  21.422   9.450
 4920POPC   PO4 9828  33.071  21.342   9.150
 4920POPC   GL1 9829  33.002  21.432   8.850
 4920POPC   GL2 9830  33.149  21.411   8.850
 4920POPC   C1A 9831  33.072  21.412   8.550
 4920POPC   D2A 9832  32.998  21.365   8.250
 4920POPC   C3A 9833  32.975  21.347   7.950
 4920POPC   C4A 9834  33.025  21.381   7.650
 4920POPC   C1B 9835  33.243  21.480   8.550
 4920POPC   C2B 9836  33.185  21.508   8.250
 4920POPC   C3B 9837  33.210  21.490   7.950
 4920POPC   C4B 9838  33.202  21.496   7.650
 4921POPC   NC3 9839  39.976   1.978   9.450
 4921POPC   PO4 9840  40.053   1.994   9.150
 4921POPC   GL1 9841  39.970   1.967   8.850
 4921POPC   GL2 9842  39.938   2.088   8.850
 4921POPC   C1A 9843  40.014   1.998   8.550
 4921POPC   D2A 9844  39.961   2.032   8.250
 4921POPC   C3A 9845  40.009   1.987   7.950
 4921POPC   C4A 9846  39.967   2.034   7.650
 4921POPC   C1B 9847  39.862   2.192   8.550
 4921POPC   C2B 9848  39.796   2.157   8.250
 4921POPC   C3B 9849  39.803   2.214   7.950
 4921POPC   C4B 9850  39.829   2.180   7.650
 4922POPC   NC3 9851  15.954  40.762   9.450
 4922POPC   PO4 9852  15.948  40.821   9.150
 4922POPC   GL1 9853  15.995  40.750   8.850
 4922POPC   GL2 9854  16.033  40.680   8.850
 4922POPC   C1A 9855  15.974  40.757   8.550
 4922POPC   D2A 9856  15.985  40.826   8.250
 4922POPC   C3A 9857  15.941  40.807   7.950
 4922POPC   C4A 9858  15.989  40.798   7.650
 4922POPC   C1B 9859  16.124  40.619   8.550
 4922POPC   C2B 9860  16.158  40.609   8.250
 4922POPC   C3B 9861  16.149  40.563   7.950
 4922POPC   C4B 9862  16.181  40.610   7.650
 4923POPC   NC3 9863  32.286  40.758   9.450
 4923POPC   PO4 9864  32.291  40.771   9.150
 4923POPC   GL1 9865  32.202  40.783   8.850
 4923POPC   GL2 9866  32.208  40.909   8.850
 4923POPC   C1A 9867  32.280  40.809   8.550
 4923POPC   D2A 9868  32.237  40.797   8.250
 4923POPC   C3A 9869  32.227  40.758   7.950
 4923POPC   C4A 9870  32.298  40.753   7.650
 4923POPC   C1B 9871  32.209  41.016   8.550
 4923POPC   C2B 9872  32.168  40.983   8.250
 4923POPC   C3B 9873  32.209  41.016   7.950
 4923POPC   C4B 9874  32.244  40.982   7.650
 4924POPC   NC3 9875   0.402  43.873   9.450
 4924POPC   PO4 9876   0.447  43.911   9.150
 4924POPC   GL1 9877   0.441  43.905   8.850
 4924POPC   GL2 9878   0.562  43.882   8.850
 4924POPC   C1A 9879   0.423  43.927   8.550
 4924POPC   D2A 9880   0.463  43.841   8.250
 4924POPC   C3A 9881   0.469  43.892   7.950
 4924POPC   C4A 9882   0.404  43.905   7.650
 4924POPC   C1B 9883   0.682  43.826   8.550
 4924POPC   C2B 9884   0.705  43.760   8.250
 4924POPC   C3B 9885   0.672  43.732   7.950
 4924POPC   C4B 9886   0.659  43.740   7.650
 4925POPC   NC3 9887  10.519   8.947   9.450
 4925POPC   PO4 9888  10.540   8.999   9.150
 4925POPC   GL1 9889  10.547   8.969   8.850
 4925POPC   GL2 9890  10.388   8.899   8.850
 4925POPC   C1A 9891  10.494   8.972   8.550
 4925POPC   D2A 9892  10.568   8.993   8.250
 4925POPC   C3A 9893  10.565   8.928   7.950
 4925POPC   C4A 9894  10.548   8.945   7.650
 4925POPC   C1B 9895  10.364   8.840   8.550
 4925POPC   C2B 9896  10.352   8.812   8.250
 4925POPC   C3B 9897  10.283   8.803   7.950
 4925POPC   C4B 9898  10.290   8.820   7.650
 4926POPC   NC3 9899  16.697   1.234   9.450
 4926POPC   PO4 9900  16.756   1.244   9.150
 4926POPC   GL1 9901  16.745   1.212   8.850
 4926POPC   GL2 9902  16.586   1.176   8.850
 4926POPC   C1A 9903  16.735   1.166   8.550
 4926POPC   D2A 9904  16.730   1.178   8.250
 4926POPC   C3A 9905  16.757   1.184   7.950
 4926POPC   C4A 9906  16.709   1.240   7.650
 4926POPC   C1B 9907  16.533   1.110   8.550
 4926POPC   C2B 9908  16.565   1.114   8.250
 4926POPC   C3B 9909  16.533   1.080   7.950
 4926POPC   C4B 9910  16.514   1.034   7.650
 4927POPC   NC3 9911  34.612   8.168   9.450
 4927POPC   PO4 9912  34.553   8.171   9.150
 4927POPC   GL1 9913  34.528   8.156   8.850
 4927POPC   GL2 9914  34.431   8.269   8.850
 4927POPC   C1A 9915  34.615   8.205   8.550
 4927POPC   D2A 9916  34.625   8.157   8.250
 4927POPC   C3A 9917  34.584   8.147   7.950
 4927POPC   C4A 9918  34.559   8.191   7.650
 4927POPC   C1B 9919  34.297   8.264   8.550
 4927POPC   C2B 9920  34.335   8.329   8.250
 4927POPC   C3B 9921  34.337   8.334   7.950
 4927POPC   C4B 9922  34.378   8.322   7.650
 4928POPC   NC3 9923  33.821  10.480   9.450
 4928POPC   PO4 9924  33.811  10.525   9.150
 4928POPC   GL1 9925  33.810  10.480   8.850
 4928POPC   GL2 9926  33.807  10.662   8.850
 4928POPC   C1A 9927  33.839  10.511   8.550
 4928POPC   D2A 9928  33.816  10.533   8.250
 4928POPC   C3A 9929  33.820  10.535   7.950
 4928POPC   C4A 9930  33.822  10.481   7.650
 4928POPC   C1B 9931  33.778  10.777   8.550
 4928POPC   C2B 9932  33.819  10.778   8.250
 4928POPC   C3B 9933  33.765  10.811   7.950
 4928POPC   C4B 9934  33.810  10.807   7.650
 4929POPC   NC3 9935  14.424  43.122   9.450
 4929POPC   PO4 9936  14.416  43.090   9.150
 4929POPC   GL1 9937  14.384  43.077   8.850
 4929POPC   GL2 9938  14.411  43.209   8.850
 4929POPC   C1A 9939  14.439  43.069   8.550
 4929POPC   D2A 9940  14.450  43.108   8.250
 4929POPC   C3A 9941  14.419  43.081   7.950
 4929POPC   C4A 9942  14.422  43.130   7.650
 4929POPC   C1B 9943  14.427  43.320   8.550
 4929POPC   C2B 9944  14.446  43.337   8.250
 4929POPC   C3B 9945  14.437  43.326   7.950
 4929POPC   C4B 9946  14.435  43.379   7.650
 4930POPC   NC3 9947  32.201  19.062   9.450
 4930POPC   PO4 9948  32.212  19.018   9.150
 4930POPC   GL1 9949  32.259  19.088   8.850
 4930POPC   GL2 9950  32.171  18.962   8.850
 4930POPC   C1A 9951  32.274  19.107   8.550
 4930POPC   D2A 9952  32.264  19.040   8.250
 4930POPC   C3A 9953  32.277  19.017   7.950
 4930POPC   C4A 9954  32.228  19.055   7.650
 4930POPC   C1B 9955  32.072  18.891   8.550
 4930POPC   C2B 9956  32.011  18.919   8.250
 4930POPC   C3B 9957  32.084  18.943   7.950
 4930POPC   C4B 9958  32.031  18.951   7.650
 4931POPC   NC3 9959  20.622   9.745   9.450
 4931POPC   PO4 9960  20.621   9.706   9.150
 4931POPC   GL1 9961  20.622   9.764   8.850
 4931POPC   GL2 9962  20.617   9.847   8.850
 4931POPC   C1A 9963  20.586   9.769   8.550
 4931POPC   D2A 9964  20.631   9.781   8.250
 4931POPC   C3A 9965  20.580   9.768   7.950
 4931POPC   C4A 9966  20.653   9.783   7.650
 4931POPC   C1B 9967  20.658   9.988   8.550
 4931POPC   C2B 9968  20.603  10.022   8.250
 4931POPC   C3B 9969  20.582   9.982   7.950
 4931POPC   C4B 9970  20.642  10.003   7.650
 4932POPC   NC3 9971   1.222  23.733   9.450
 4932POPC   PO4 9972   1.198  23.736   9.150
 4932POPC   GL1 9973   1.224  23.726   8.850
 4932POPC   GL2 9974   1.281  23.803   8.850
 4932POPC   C1A 9975   1.248  23.678   8.550
 4932POPC   D2A 9976   1.232  23.741   8.250
 4932POPC   C3A 9977   1.208  23.732   7.950
 4932POPC   C4A 9978   1.255  23.665   7.650
 4932POPC   C1B 9979   1.279  23.968   8.550
 4932POPC   C2B 9980   1.280  23.986   8.250
 4932POPC   C3B 9981   1.297  23.908   7.950
 4932POPC   C4B 9982   1.259  23.944   7.650
 4933POPC   NC3 9983  39.188  33.830   9.450
 4933POPC   PO4 9984  39.223  33.769   9.150
 4933POPC   GL1 9985  39.271  33.786   8.850
 4933POPC   GL2 9986  39.310  33.735   8.850
 4933POPC   C1A 9987  39.226  33.761   8.550
 4933POPC   D2A 9988  39.267  33.786   8.250
 4933POPC   C3A 9989  39.200  33.760   7.950
 4933POPC   C4A 9990  39.268  33.782   7.650
 4933POPC   C1B 9991  39.377  33.656   8.550
 4933POPC   C2B 9992  39.432  33.639   8.250
 4933POPC   C3B 9993  39.419  33.577   7.950
 4933POPC   C4B 9994  39.434  33.622   7.650
 4934POPC   NC3 9995   3.493  38.419   9.450
 4934POPC   PO4 9996   3.518  38.487   9.150
 4934POPC   GL1 9997   3.559  38.421   8.850
 4934POPC   GL2 9998   3.619  38.551   8.850
 4934POPC   C1A 9999   3.495  38.489   8.550
 4934POPC   D2A10000   3.524  38.494   8.250
 4934POPC   C3A10001   3.502  38.435   7.950
 4934POPC   C4A10002   3.527  38.448   7.650
 4934POPC   C1B10003   3.774  38.607   8.550
 4934POPC   C2B10004   3.728  38.569   8.250
 4934POPC   C3B10005   3.731  38.608   7.950
 4934POPC   C4B10006   3.710  38.658   7.650
 4935POPC   NC310007  26.843   2.011   9.450
 4935POPC   PO410008  26.798   1.956   9.150
 4935POPC   GL110009  26.783   1.952   8.850
 4935POPC   GL210010  26.774   2.102   8.850
 4935POPC   C1A10011  26.794   1.985   8.550
 4935POPC   D2A10012  26.789   2.033   8.250
 4935POPC   C3A10013  26.789   1.971   7.950
 4935POPC   C4A10014  26.852   1.960   7.650
 4935POPC   C1B10015  26.834   2.272   8.550
 4935POPC   C2B10016  26.758   2.259   8.250
 4935POPC   C3B10017  26.814   2.191   7.950
 4935POPC   C4B10018  26.768   2.243   7.650
 4936POPC   NC310019  30.658  19.850   9.450
 4936POPC   PO410020  30.670  19.827   9.150
 4936POPC   GL110021  30.696  19.804   8.850
 4936POPC   GL210022  30.820  19.815   8.850
 4936POPC   C1A10023  30.722  19.858   8.550
 4936POPC   D2A10024  30.742  19.863   8.250
 4936POPC   C3A10025  30.703  19.805   7.950
 4936POPC   C4A10026  30.726  19.806   7.650
 4936POPC   C1B10027  30.981  19.875   8.550
 4936POPC   C2B10028  30.982  19.806   8.250
 4936POPC   C3B10029  30.966  19.856   7.950
 4936POPC   C4B10030  30.982  19.798   7.650
 4937POPC   NC310031  26.053   3.519   9.450
 4937POPC   PO410032  26.034   3.529   9.150
 4937POPC   GL110033  26.062   3.539   8.850
 4937POPC   GL210034  26.019   3.691   8.850
 4937POPC   C1A10035  26.087   3.523   8.550
 4937POPC   D2A10036  26.023   3.505   8.250
 4937POPC   C3A10037  26.080   3.532   7.950
 4937POPC   C4A10038  26.006   3.510   7.650
 4937POPC   C1B10039  26.071   3.789   8.550
 4937POPC   C2B10040  26.001   3.767   8.250
 4937POPC   C3B10041  26.006   3.805   7.950
 4937POPC   C4B10042  26.039   3.770   7.650
 4938POPC   NC310043  44.652  31.518   9.450
 4938POPC   PO410044  44.674  31.471   9.150
 4938POPC   GL110045  44.684  31.453   8.850
 4938POPC   GL210046  44.614  31.392   8.850
 4938POPC   C1A10047  44.687  31.522   8.550
 4938POPC   D2A10048  44.686  31.442   8.250
 4938POPC   C3A10049  44.635  31.430   7.950
 4938POPC   C4A10050  44.678  31.481   7.650
 4938POPC   C1B10051  44.443  31.263   8.550
 4938POPC   C2B10052  44.445  31.317   8.250
 4938POPC   C3B10053  44.498  31.316   7.950
 4938POPC   C4B10054  44.469  31.304   7.650
 4939POPC   NC310055  40.052  32.296   9.450
 4939POPC   PO410056  40.029  32.211   9.150
 4939POPC   GL110057  40.016  32.216   8.850
 4939POPC   GL210058  39.927  32.324   8.850
 4939POPC   C1A10059  39.971  32.216   8.550
 4939POPC   D2A10060  39.988  32.229   8.250
 4939POPC   C3A10061  39.984  32.221   7.950
 4939POPC   C4A10062  39.991  32.277   7.650
 4939POPC   C1B10063  39.826  32.388   8.550
 4939POPC   C2B10064  39.835  32.413   8.250
 4939POPC   C3B10065  39.818  32.450   7.950
 4939POPC   C4B10066  39.838  32.437   7.650
 4940POPC   NC310067   6.677   7.440   9.450
 4940POPC   PO410068   6.682   7.443   9.150
 4940POPC   GL110069   6.648   7.422   8.850
 4940POPC   GL210070   6.593   7.333   8.850
 4940POPC   C1A10071   6.671   7.405   8.550
 4940POPC   D2A10072   6.595   7.442   8.250
 4940POPC   C3A10073   6.639   7.470   7.950
 4940POPC   C4A10074   6.684   7.382   7.650
 4940POPC   C1B10075   6.425   7.239   8.550
 4940POPC   C2B10076   6.417   7.246   8.250
 4940POPC   C3B10077   6.448   7.289   7.950
 4940POPC   C4B10078   6.478   7.237   7.650
 4941POPC   NC310079  26.084   9.736   9.450
 4941POPC   PO410080  26.072   9.786   9.150
 4941POPC   GL110081  26.002   9.719   8.850
 4941POPC   GL210082  25.967   9.783   8.850
 4941POPC   C1A10083  26.013   9.731   8.550
 4941POPC   D2A10084  26.037   9.727   8.250
 4941POPC   C3A10085  26.051   9.745   7.950
 4941POPC   C4A10086  26.018   9.726   7.650
 4941POPC   C1B10087  25.756   9.839   8.550
 4941POPC   C2B10088  25.843   9.798   8.250
 4941POPC   C3B10089  25.796   9.838   7.950
 4941POPC   C4B10090  25.846   9.801   7.650
 4942POPC   NC310091  12.838  15.131   9.450
 4942POPC   PO410092  12.837  15.140   9.150
 4942POPC   GL110093  12.878  15.139   8.850
 4942POPC   GL210094  12.950  15.251   8.850
 4942POPC   C1A10095  12.889  15.152   8.550
 4942POPC   D2A10096  12.812  15.226   8.250
 4942POPC   C3A10097  12.818  15.144   7.950
 4942POPC   C4A10098  12.875  15.216   7.650
 4942POPC   C1B10099  12.989  15.424   8.550
 4942POPC   C2B10100  13.015  15.416   8.250
 4942POPC   C3B10101  12.975  15.367   7.950
 4942POPC   C4B10102  12.934  15.387   7.650
 4943POPC   NC310103  30.672   8.203   9.450
 4943POPC   PO410104  30.665   8.204   9.150
 4943POPC   GL110105  30.737   8.205   8.850
 4943POPC   GL210106  30.736   8.056   8.850
 4943POPC   C1A10107  30.681   8.164   8.550
 4943POPC   D2A10108  30.650   8.154   8.250
 4943POPC   C3A10109  30.710   8.186   7.950
 4943POPC   C4A10110  30.671   8.199   7.650
 4943POPC   C1B10111  30.785   7.906   8.550
 4943POPC   C2B10112  30.725   7.944   8.250
 4943POPC   C3B10113  30.746   7.996   7.950
 4943POPC   C4B10114  30.691   7.948   7.650
 4944POPC   NC310115   0.440  43.157   9.450
 4944POPC   PO410116   0.442  43.090   9.150
 4944POPC   GL110117   0.456  43.100   8.850
 4944POPC   GL210118   0.304  43.125   8.850
 4944POPC   C1A10119   0.409  43.160   8.550
 4944POPC   D2A10120   0.452  43.077   8.250
 4944POPC   C3A10121   0.428  43.069   7.950
 4944POPC   C4A10122   0.438  43.071   7.650
 4944POPC   C1B10123   0.155  43.237   8.550
 4944POPC   C2B10124   0.156  43.187   8.250
 4944POPC   C3B10125   0.156  43.218   7.950
 4944POPC   C4B10126   0.233  43.164   7.650
 4945POPC   NC310127   7.429  35.320   9.450
 4945POPC   PO410128   7.424  35.353   9.150
 4945POPC   GL110129   7.464  35.337   8.850
 4945POPC   GL210130   7.566  35.368   8.850
 4945POPC   C1A10131   7.439  35.339   8.550
 4945POPC   D2A10132   7.379  35.330   8.250
 4945POPC   C3A10133   7.403  35.335   7.950
 4945POPC   C4A10134   7.432  35.372   7.650
 4945POPC   C1B10135   7.714  35.336   8.550
 4945POPC   C2B10136   7.620  35.370   8.250
 4945POPC   C3B10137   7.698  35.366   7.950
 4945POPC   C4B10138   7.640  35.351   7.650
 4946POPC   NC310139  24.466  42.343   9.450
 4946POPC   PO410140  24.518  42.359   9.150
 4946POPC   GL110141  24.441  42.352   8.850
 4946POPC   GL210142  24.589  42.296   8.850
 4946POPC   C1A10143  24.463  42.346   8.550
 4946POPC   D2A10144  24.443  42.374   8.250
 4946POPC   C3A10145  24.456  42.314   7.950
 4946POPC   C4A10146  24.531  42.303   7.650
 4946POPC   C1B10147  24.728  42.344   8.550
 4946POPC   C2B10148  24.701  42.323   8.250
 4946POPC   C3B10149  24.719  42.348   7.950
 4946POPC   C4B10150  24.772  42.337   7.650
 4947POPC   NC310151  44.684  29.136   9.450
 4947POPC   PO410152  44.666  29.164   9.150
 4947POPC   GL110153  44.657  29.149   8.850
 4947POPC   GL210154  44.762  29.229   8.850
 4947POPC   C1A10155  44.668  29.132   8.550
 4947POPC   D2A10156  44.700  29.159   8.250
 4947POPC   C3A10157  44.677  29.143   7.950
 4947POPC   C4A10158  44.655  29.103   7.650
 4947POPC   C1B10159  44.763  29.385   8.550
 4947POPC   C2B10160  44.816  29.404   8.250
 4947POPC   C3B10161  44.790  29.408   7.950
 4947POPC   C4B10162  44.761  29.352   7.650
 4948POPC   NC310163  16.751  26.863   9.450
 4948POPC   PO410164  16.692  26.780   9.150
 4948POPC   GL110165  16.781  26.808   8.850
 4948POPC   GL210166  16.626  26.789   8.850
 4948POPC   C1A10167  16.723  26.790   8.550
 4948POPC   D2A10168  16.710  26.801   8.250
 4948POPC   C3A10169  16.717  26.801   7.950
 4948POPC   C4A10170  16.685  26.811   7.650
 4948POPC   C1B10171  16.556  26.694   8.550
 4948POPC   C2B10172  16.477  26.729   8.250
 4948POPC   C3B10173  16.494  26.755   7.950
 4948POPC   C4B10174  16.514  26.669   7.650
 4949POPC   NC310175  30.739  22.943   9.450
 4949POPC   PO410176  30.692  22.986   9.150
 4949POPC   GL110177  30.668  22.930   8.850
 4949POPC   GL210178  30.834  22.858   8.850
 4949POPC   C1A10179  30.649  22.954   8.550
 4949POPC   D2A10180  30.720  22.983   8.250
 4949POPC   C3A10181  30.714  22.959   7.950
 4949POPC   C4A10182  30.679  22.967   7.650
 4949POPC   C1B10183  30.900  22.780   8.550
 4949POPC   C2B10184  30.915  22.845   8.250
 4949POPC   C3B10185  30.920  22.755   7.950
 4949POPC   C4B10186  30.940  22.806   7.650
 4950POPC   NC310187  22.148  21.399   9.450
 4950POPC   PO410188  22.184  21.433   9.150
 4950POPC   GL110189  22.177  21.369   8.850
 4950POPC   GL210190  22.016  21.314   8.850
 4950POPC   C1A10191  22.139  21.348   8.550
 4950POPC   D2A10192  22.180  21.391   8.250
 4950POPC   C3A10193  22.158  21.359   7.950
 4950POPC   C4A10194  22.113  21.408   7.650
 4950POPC   C1B10195  21.974  21.246   8.550
 4950POPC   C2B10196  21.985  21.306   8.250
 4950POPC   C3B10197  21.952  21.269   7.950
 4950POPC   C4B10198  21.977  21.310   7.650
 4951POPC   NC310199  33.779  18.319   9.450
 4951POPC   PO410200  33.847  18.270   9.150
 4951POPC   GL110201  33.799  18.320   8.850
 4951POPC   GL210202  33.724  18.327   8.850
 4951POPC   C1A10203  33.797  18.285   8.550
 4951POPC   D2A10204  33.785  18.280   8.250
 4951POPC   C3A10205  33.837  18.276   7.950
 4951POPC   C4A10206  33.752  18.258   7.650
 4951POPC   C1B10207  33.523  18.385   8.550
 4951POPC   C2B10208  33.585  18.362   8.250
 4951POPC   C3B10209  33.619  18.354   7.950
 4951POPC   C4B10210  33.583  18.365   7.650
 4952POPC   NC310211  34.601  29.124   9.450
 4952POPC   PO410212  34.604  29.121   9.150
 4952POPC   GL110213  34.532  29.167   8.850
 4952POPC   GL210214  34.723  29.025   8.850
 4952POPC   C1A10215  34.551  29.171   8.550
 4952POPC   D2A10216  34.560  29.139   8.250
 4952POPC   C3A10217  34.555  29.177   7.950
 4952POPC   C4A10218  34.582  29.122   7.650
 4952POPC   C1B10219  34.748  28.969   8.550
 4952POPC   C2B10220  34.740  28.981   8.250
 4952POPC   C3B10221  34.754  28.984   7.950
 4952POPC   C4B10222  34.799  29.028   7.650
 4953POPC   NC310223  10.545  43.843   9.450
 4953POPC   PO410224  10.514  43.869   9.150
 4953POPC   GL110225  10.516  43.925   8.850
 4953POPC   GL210226  10.415  43.943   8.850
 4953POPC   C1A10227  10.533  43.874   8.550
 4953POPC   D2A10228  10.486  43.898   8.250
 4953POPC   C3A10229  10.487  43.881   7.950
 4953POPC   C4A10230  10.547  43.861   7.650
 4953POPC   C1B10231  10.373  44.103   8.550
 4953POPC   C2B10232  10.438  44.080   8.250
 4953POPC   C3B10233  10.431  44.139   7.950
 4953POPC   C4B10234  10.425  44.052   7.650
 4954POPC   NC310235  38.447  17.462   9.450
 4954POPC   PO410236  38.484  17.541   9.150
 4954POPC   GL110237  38.467  17.533   8.850
 4954POPC   GL210238  38.576  17.486   8.850
 4954POPC   C1A10239  38.434  17.536   8.550
 4954POPC   D2A10240  38.416  17.536   8.250
 4954POPC   C3A10241  38.418  17.487   7.950
 4954POPC   C4A10242  38.495  17.539   7.650
 4954POPC   C1B10243  38.728  17.612   8.550
 4954POPC   C2B10244  38.671  17.566   8.250
 4954POPC   C3B10245  38.668  17.565   7.950
 4954POPC   C4B10246  38.709  17.535   7.650
 4955POPC   NC310247  32.992  25.250   9.450
 4955POPC   PO410248  33.011  25.267   9.150
 4955POPC   GL110249  33.041  25.292   8.850
 4955POPC   GL210250  33.112  25.375   8.850
 4955POPC   C1A10251  32.990  25.274   8.550
 4955POPC   D2A10252  33.036  25.307   8.250
 4955POPC   C3A10253  33.062  25.238   7.950
 4955POPC   C4A10254  33.003  25.286   7.650
 4955POPC   C1B10255  33.167  25.508   8.550
 4955POPC   C2B10256  33.083  25.543   8.250
 4955POPC   C3B10257  33.148  25.473   7.950
 4955POPC   C4B10258  33.105  25.447   7.650
 4956POPC   NC310259  36.138  27.583   9.450
 4956POPC   PO410260  36.156  27.582   9.150
 4956POPC   GL110261  36.125  27.592   8.850
 4956POPC   GL210262  36.052  27.472   8.850
 4956POPC   C1A10263  36.167  27.612   8.550
 4956POPC   D2A10264  36.097  27.571   8.250
 4956POPC   C3A10265  36.167  27.605   7.950
 4956POPC   C4A10266  36.099  27.566   7.650
 4956POPC   C1B10267  36.086  27.379   8.550
 4956POPC   C2B10268  36.029  27.339   8.250
 4956POPC   C3B10269  36.098  27.366   7.950
 4956POPC   C4B10270  36.076  27.318   7.650
 4957POPC   NC310271  36.856  27.555   9.450
 4957POPC   PO410272  36.937  27.616   9.150
 4957POPC   GL110273  36.883  27.551   8.850
 4957POPC   GL210274  37.021  27.495   8.850
 4957POPC   C1A10275  36.949  27.568   8.550
 4957POPC   D2A10276  36.892  27.617   8.250
 4957POPC   C3A10277  36.904  27.597   7.950
 4957POPC   C4A10278  36.889  27.600   7.650
 4957POPC   C1B10279  37.049  27.398   8.550
 4957POPC   C2B10280  37.024  27.422   8.250
 4957POPC   C3B10281  37.026  27.404   7.950
 4957POPC   C4B10282  37.027  27.403   7.650
 4958POPC   NC310283  26.843  36.902   9.450
 4958POPC   PO410284  26.778  36.887   9.150
 4958POPC   GL110285  26.857  36.899   8.850
 4958POPC   GL210286  26.726  36.858   8.850
 4958POPC   C1A10287  26.788  36.889   8.550
 4958POPC   D2A10288  26.796  36.869   8.250
 4958POPC   C3A10289  26.774  36.947   7.950
 4958POPC   C4A10290  26.803  36.944   7.650
 4958POPC   C1B10291  26.559  36.763   8.550
 4958POPC   C2B10292  26.593  36.769   8.250
 4958POPC   C3B10293  26.590  36.746   7.950
 4958POPC   C4B10294  26.646  36.766   7.650
 4959POPC   NC310295  37.710  10.527   9.450
 4959POPC   PO410296  37.661  10.541   9.150
 4959POPC   GL110297  37.707  10.534   8.850
 4959POPC   GL210298  37.726  10.646   8.850
 4959POPC   C1A10299  37.657  10.497   8.550
 4959POPC   D2A10300  37.701  10.488   8.250
 4959POPC   C3A10301  37.705  10.562   7.950
 4959POPC   C4A10302  37.667  10.571   7.650
 4959POPC   C1B10303  37.853  10.764   8.550
 4959POPC   C2B10304  37.809  10.702   8.250
 4959POPC   C3B10305  37.812  10.703   7.950
 4959POPC   C4B10306  37.860  10.745   7.650
 4960POPC   NC310307  12.118   8.167   9.450
 4960POPC   PO410308  12.027   8.227   9.150
 4960POPC   GL110309  12.083   8.211   8.850
 4960POPC   GL210310  11.926   8.198   8.850
 4960POPC   C1A10311  12.027   8.244   8.550
 4960POPC   D2A10312  12.044   8.206   8.250
 4960POPC   C3A10313  12.123   8.170   7.950
 4960POPC   C4A10314  12.052   8.189   7.650
 4960POPC   C1B10315  11.866   8.234   8.550
 4960POPC   C2B10316  11.876   8.267   8.250
 4960POPC   C3B10317  11.837   8.226   7.950
 4960POPC   C4B10318  11.817   8.239   7.650
 4961POPC   NC310319   4.277  37.692   9.450
 4961POPC   PO410320   4.364  37.668   9.150
 4961POPC   GL110321   4.274  37.670   8.850
 4961POPC   GL210322   4.396  37.707   8.850
 4961POPC   C1A10323   4.270  37.672   8.550
 4961POPC   D2A10324   4.331  37.635   8.250
 4961POPC   C3A10325   4.357  37.712   7.950
 4961POPC   C4A10326   4.328  37.671   7.650
 4961POPC   C1B10327   4.589  37.667   8.550
 4961POPC   C2B10328   4.599  37.747   8.250
 4961POPC   C3B10329   4.529  37.666   7.950
 4961POPC   C4B10330   4.608  37.709   7.650
 4962POPC   NC310331  29.111  23.689   9.450
 4962POPC   PO410332  29.180  23.761   9.150
 4962POPC   GL110333  29.144  23.742   8.850
 4962POPC   GL210334  29.198  23.856   8.850
 4962POPC   C1A10335  29.123  23.682   8.550
 4962POPC   D2A10336  29.117  23.697   8.250
 4962POPC   C3A10337  29.178  23.762   7.950
 4962POPC   C4A10338  29.101  23.714   7.650
 4962POPC   C1B10339  29.256  23.914   8.550
 4962POPC   C2B10340  29.207  23.986   8.250
 4962POPC   C3B10341  29.259  23.909   7.950
 4962POPC   C4B10342  29.225  23.973   7.650
 4963POPC   NC310343  31.490  23.745   9.450
 4963POPC   PO410344  31.474  23.753   9.150
 4963POPC   GL110345  31.469  23.727   8.850
 4963POPC   GL210346  31.373  23.559   8.850
 4963POPC   C1A10347  31.444  23.678   8.550
 4963POPC   D2A10348  31.466  23.688   8.250
 4963POPC   C3A10349  31.507  23.666   7.950
 4963POPC   C4A10350  31.497  23.668   7.650
 4963POPC   C1B10351  31.400  23.493   8.550
 4963POPC   C2B10352  31.376  23.474   8.250
 4963POPC   C3B10353  31.404  23.472   7.950
 4963POPC   C4B10354  31.375  23.440   7.650
 4964POPC   NC310355   3.508  22.125   9.450
 4964POPC   PO410356   3.551  22.139   9.150
 4964POPC   GL110357   3.574  22.147   8.850
 4964POPC   GL210358   3.439  22.079   8.850
 4964POPC   C1A10359   3.540  22.138   8.550
 4964POPC   D2A10360   3.577  22.151   8.250
 4964POPC   C3A10361   3.524  22.136   7.950
 4964POPC   C4A10362   3.530  22.210   7.650
 4964POPC   C1B10363   3.384  21.987   8.550
 4964POPC   C2B10364   3.329  22.000   8.250
 4964POPC   C3B10365   3.368  22.032   7.950
 4964POPC   C4B10366   3.398  21.979   7.650
 4965POPC   NC310367  43.900  23.705   9.450
 4965POPC   PO410368  43.880  23.730   9.150
 4965POPC   GL110369  43.896  23.711   8.850
 4965POPC   GL210370  43.824  23.809   8.850
 4965POPC   C1A10371  43.912  23.719   8.550
 4965POPC   D2A10372  43.845  23.721   8.250
 4965POPC   C3A10373  43.865  23.668   7.950
 4965POPC   C4A10374  43.863  23.691   7.650
 4965POPC   C1B10375  43.699  23.908   8.550
 4965POPC   C2B10376  43.751  23.918   8.250
 4965POPC   C3B10377  43.707  23.930   7.950
 4965POPC   C4B10378  43.677  23.879   7.650
 4966POPC   NC310379  12.034  36.117   9.450
 4966POPC   PO410380  12.053  36.121   9.150
 4966POPC   GL110381  12.124  36.168   8.850
 4966POPC   GL210382  11.956  36.179   8.850
 4966POPC   C1A10383  12.052  36.133   8.550
 4966POPC   D2A10384  12.041  36.105   8.250
 4966POPC   C3A10385  12.112  36.132   7.950
 4966POPC   C4A10386  12.096  36.154   7.650
 4966POPC   C1B10387  11.895  36.326   8.550
 4966POPC   C2B10388  11.929  36.298   8.250
 4966POPC   C3B10389  11.849  36.314   7.950
 4966POPC   C4B10390  11.867  36.304   7.650
 4967POPC   NC310391  24.525  44.696   9.450
 4967POPC   PO410392  24.491  44.614   9.150
 4967POPC   GL110393  24.510  44.634   8.850
 4967POPC   GL210394  24.499  44.507   8.850
 4967POPC   C1A10395  24.517  44.703   8.550
 4967POPC   D2A10396  24.475  44.647   8.250
 4967POPC   C3A10397  24.483  44.662   7.950
 4967POPC   C4A10398  24.476  44.640   7.650
 4967POPC   C1B10399  24.537  44.443   8.550
 4967POPC   C2B10400  24.518  44.383   8.250
 4967POPC   C3B10401  24.498  44.416   7.950
 4967POPC   C4B10402  24.528  44.434   7.650
 4968POPC   NC310403  13.666  12.831   9.450
 4968POPC   PO410404  13.623  12.872   9.150
 4968POPC   GL110405  13.586  12.819   8.850
 4968POPC   GL210406  13.708  12.882   8.850
 4968POPC   C1A10407  13.634  12.848   8.550
 4968POPC   D2A10408  13.670  12.813   8.250
 4968POPC   C3A10409  13.582  12.840   7.950
 4968POPC   C4A10410  13.610  12.834   7.650
 4968POPC   C1B10411  13.916  12.832   8.550
 4968POPC   C2B10412  13.916  12.854   8.250
 4968POPC   C3B10413  13.887  12.884   7.950
 4968POPC   C4B10414  13.916  12.900   7.650
 4969POPC   NC310415  15.185  37.728   9.450
 4969POPC   PO410416  15.131  37.720   9.150
 4969POPC   GL110417  15.228  37.684   8.850
 4969POPC   GL210418  15.136  37.579   8.850
 4969POPC   C1A10419  15.193  37.723   8.550
 4969POPC   D2A10420  15.190  37.657   8.250
 4969POPC   C3A10421  15.168  37.675   7.950
 4969POPC   C4A10422  15.164  37.648   7.650
 4969POPC   C1B10423  15.157  37.381   8.550
 4969POPC   C2B10424  15.218  37.475   8.250
 4969POPC   C3B10425  15.203  37.443   7.950
 4969POPC   C4B10426  15.159  37.455   7.650
 4970POPC   NC310427   6.647  25.230   9.450
 4970POPC   PO410428   6.619  25.295   9.150
 4970POPC   GL110429   6.692  25.251   8.850
 4970POPC   GL210430   6.779  25.163   8.850
 4970POPC   C1A10431   6.628  25.271   8.550
 4970POPC   D2A10432   6.657  25.300   8.250
 4970POPC   C3A10433   6.672  25.306   7.950
 4970POPC   C4A10434   6.648  25.252   7.650
 4970POPC   C1B10435   6.814  25.082   8.550
 4970POPC   C2B10436   6.819  25.109   8.250
 4970POPC   C3B10437   6.865  25.092   7.950
 4970POPC   C4B10438   6.877  25.114   7.650
 4971POPC   NC310439  15.172   4.301   9.450
 4971POPC   PO410440  15.198   4.302   9.150
 4971POPC   GL110441  15.156   4.362   8.850
 4971POPC   GL210442  15.275   4.395   8.850
 4971POPC   C1A10443  15.203   4.295   8.550
 4971POPC   D2A10444  15.198   4.306   8.250
 4971POPC   C3A10445  15.208   4.319   7.950
 4971POPC   C4A10446  15.191   4.358   7.650
 4971POPC   C1B10447  15.289   4.585   8.550
 4971POPC   C2B10448  15.310   4.556   8.250
 4971POPC   C3B10449  15.256   4.548   7.950
 4971POPC   C4B10450  15.315   4.518   7.650
 4972POPC   NC310451  23.716  19.857   9.450
 4972POPC   PO410452  23.695  19.884   9.150
 4972POPC   GL110453  23.737  19.879   8.850
 4972POPC   GL210454  23.842  19.873   8.850
 4972POPC   C1A10455  23.665  19.876   8.550
 4972POPC   D2A10456  23.702  19.848   8.250
 4972POPC   C3A10457  23.736  19.883   7.950
 4972POPC   C4A10458  23.743  19.792   7.650
 4972POPC   C1B10459  23.916  19.841   8.550
 4972POPC   C2B10460  23.942  19.890   8.250
 4972POPC   C3B10461  23.922  19.891   7.950
 4972POPC   C4B10462  23.921  19.863   7.650
 4973POPC   NC310463  13.647  21.377   9.450
 4973POPC   PO410464  13.649  21.417   9.150
 4973POPC   GL110465  13.627  21.405   8.850
 4973POPC   GL210466  13.516  21.435   8.850
 4973POPC   C1A10467  13.607  21.413   8.550
 4973POPC   D2A10468  13.604  21.345   8.250
 4973POPC   C3A10469  13.640  21.406   7.950
 4973POPC   C4A10470  13.649  21.403   7.650
 4973POPC   C1B10471  13.466  21.513   8.550
 4973POPC   C2B10472  13.383  21.487   8.250
 4973POPC   C3B10473  13.428  21.568   7.950
 4973POPC   C4B10474  13.455  21.523   7.650
 4974POPC   NC310475   2.006  21.382   9.450
 4974POPC   PO410476   1.941  21.368   9.150
 4974POPC   GL110477   1.985  21.430   8.850
 4974POPC   GL210478   2.008  21.486   8.850
 4974POPC   C1A10479   2.032  21.399   8.550
 4974POPC   D2A10480   2.008  21.352   8.250
 4974POPC   C3A10481   1.958  21.344   7.950
 4974POPC   C4A10482   1.993  21.352   7.650
 4974POPC   C1B10483   2.035  21.579   8.550
 4974POPC   C2B10484   2.107  21.649   8.250
 4974POPC   C3B10485   2.038  21.634   7.950
 4974POPC   C4B10486   2.120  21.622   7.650
 4975POPC   NC310487  38.461  37.718   9.450
 4975POPC   PO410488  38.461  37.723   9.150
 4975POPC   GL110489  38.418  37.671   8.850
 4975POPC   GL210490  38.543  37.585   8.850
 4975POPC   C1A10491  38.469  37.651   8.550
 4975POPC   D2A10492  38.488  37.702   8.250
 4975POPC   C3A10493  38.441  37.713   7.950
 4975POPC   C4A10494  38.443  37.725   7.650
 4975POPC   C1B10495  38.684  37.576   8.550
 4975POPC   C2B10496  38.722  37.582   8.250
 4975POPC   C3B10497  38.710  37.573   7.950
 4975POPC   C4B10498  38.678  37.559   7.650
 4976POPC   NC310499  40.047  18.315   9.450
 4976POPC   PO410500  39.992  18.326   9.150
 4976POPC   GL110501  40.029  18.315   8.850
 4976POPC   GL210502  39.905  18.180   8.850
 4976POPC   C1A10503  39.966  18.300   8.550
 4976POPC   D2A10504  40.009  18.303   8.250
 4976POPC   C3A10505  39.984  18.300   7.950
 4976POPC   C4A10506  39.969  18.243   7.650
 4976POPC   C1B10507  39.825  18.117   8.550
 4976POPC   C2B10508  39.804  18.172   8.250
 4976POPC   C3B10509  39.753  18.163   7.950
 4976POPC   C4B10510  39.815  18.173   7.650
 4977POPC   NC310511  42.349  16.715   9.450
 4977POPC   PO410512  42.297  16.770   9.150
 4977POPC   GL110513  42.322  16.756   8.850
 4977POPC   GL210514  42.188  16.720   8.850
 4977POPC   C1A10515  42.302  16.734   8.550
 4977POPC   D2A10516  42.286  16.763   8.250
 4977POPC   C3A10517  42.333  16.689   7.950
 4977POPC   C4A10518  42.340  16.713   7.650
 4977POPC   C1B10519  42.128  16.643   8.550
 4977POPC   C2B10520  42.065  16.643   8.250
 4977POPC   C3B10521  42.128  16.640   7.950
 4977POPC   C4B10522  42.055  16.669   7.650
 4978POPC   NC310523  43.139  33.030   9.450
 4978POPC   PO410524  43.156  33.047   9.150
 4978POPC   GL110525  43.118  33.064   8.850
 4978POPC   GL210526  43.076  33.103   8.850
 4978POPC   C1A10527  43.078  32.978   8.550
 4978POPC   D2A10528  43.159  32.992   8.250
 4978POPC   C3A10529  43.134  33.057   7.950
 4978POPC   C4A10530  43.149  32.993   7.650
 4978POPC   C1B10531  43.052  33.273   8.550
 4978POPC   C2B10532  43.051  33.240   8.250
 4978POPC   C3B10533  42.963  33.234   7.950
 4978POPC   C4B10534  43.052  33.274   7.650
 4979POPC   NC310535  28.363  36.099   9.450
 4979POPC   PO410536  28.403  36.104   9.150
 4979POPC   GL110537  28.367  36.140   8.850
 4979POPC   GL210538  28.413  36.222   8.850
 4979POPC   C1A10539  28.408  36.161   8.550
 4979POPC   D2A10540  28.356  36.123   8.250
 4979POPC   C3A10541  28.393  36.167   7.950
 4979POPC   C4A10542  28.330  36.155   7.650
 4979POPC   C1B10543  28.423  36.371   8.550
 4979POPC   C2B10544  28.389  36.331   8.250
 4979POPC   C3B10545  28.423  36.419   7.950
 4979POPC   C4B10546  28.447  36.419   7.650
 4980POPC   NC310547  22.983  38.438   9.450
 4980POPC   PO410548  22.907  38.450   9.150
 4980POPC   GL110549  22.921  38.482   8.850
 4980POPC   GL210550  22.906  38.548   8.850
 4980POPC   C1A10551  22.889  38.486   8.550
 4980POPC   D2A10552  22.888  38.435   8.250
 4980POPC   C3A10553  22.934  38.459   7.950
 4980POPC   C4A10554  22.977  38.495   7.650
 4980POPC   C1B10555  22.763  38.636   8.550
 4980POPC   C2B10556  22.802  38.674   8.250
 4980POPC   C3B10557  22.796  38.681   7.950
 4980POPC   C4B10558  22.748  38.658   7.650
 4981POPC   NC310559  35.325   5.060   9.450
 4981POPC   PO410560  35.352   5.101   9.150
 4981POPC   GL110561  35.363   5.119   8.850
 4981POPC   GL210562  35.438   4.986   8.850
 4981POPC   C1A10563  35.353   5.093   8.550
 4981POPC   D2A10564  35.318   5.118   8.250
 4981POPC   C3A10565  35.389   5.134   7.950
 4981POPC   C4A10566  35.331   5.045   7.650
 4981POPC   C1B10567  35.520   5.000   8.550
 4981POPC   C2B10568  35.561   4.923   8.250
 4981POPC   C3B10569  35.596   4.934   7.950
 4981POPC   C4B10570  35.603   4.947   7.650
 4982POPC   NC310571  17.503  39.965   9.450
 4982POPC   PO410572  17.469  40.021   9.150
 4982POPC   GL110573  17.509  40.002   8.850
 4982POPC   GL210574  17.593  40.059   8.850
 4982POPC   C1A10575  17.528  40.038   8.550
 4982POPC   D2A10576  17.526  40.001   8.250
 4982POPC   C3A10577  17.458  40.014   7.950
 4982POPC   C4A10578  17.549  39.974   7.650
 4982POPC   C1B10579  17.799  40.020   8.550
 4982POPC   C2B10580  17.734  40.029   8.250
 4982POPC   C3B10581  17.767  40.057   7.950
 4982POPC   C4B10582  17.771  40.040   7.650
 4983POPC   NC310583   0.419  29.186   9.450
 4983POPC   PO410584   0.424  29.153   9.150
 4983POPC   GL110585   0.402  29.184   8.850
 4983POPC   GL210586   0.406  28.984   8.850
 4983POPC   C1A10587   0.476  29.169   8.550
 4983POPC   D2A10588   0.420  29.136   8.250
 4983POPC   C3A10589   0.478  29.158   7.950
 4983POPC   C4A10590   0.389  29.097   7.650
 4983POPC   C1B10591   0.322  28.878   8.550
 4983POPC   C2B10592   0.323  28.930   8.250
 4983POPC   C3B10593   0.362  28.905   7.950
 4983POPC   C4B10594   0.357  28.914   7.650
 4984POPC   NC310595  40.771  17.473   9.450
 4984POPC   PO410596  40.752  17.490   9.150
 4984POPC   GL110597  40.767  17.470   8.850
 4984POPC   GL210598  40.728  17.371   8.850
 4984POPC   C1A10599  40.740  17.540   8.550
 4984POPC   D2A10600  40.786  17.484   8.250
 4984POPC   C3A10601  40.747  17.539   7.950
 4984POPC   C4A10602  40.752  17.542   7.650
 4984POPC   C1B10603  40.659  17.268   8.550
 4984POPC   C2B10604  40.657  17.295   8.250
 4984POPC   C3B10605  40.690  17.320   7.950
 4984POPC   C4B10606  40.669  17.286   7.650
 4985POPC   NC310607  12.073  23.672   9.450
 4985POPC   PO410608  12.052  23.706   9.150
 4985POPC   GL110609  12.063  23.682   8.850
 4985POPC   GL210610  12.034  23.635   8.850
 4985POPC   C1A10611  12.074  23.676   8.550
 4985POPC   D2A10612  12.096  23.701   8.250
 4985POPC   C3A10613  12.057  23.727   7.950
 4985POPC   C4A10614  12.026  23.756   7.650
 4985POPC   C1B10615  11.929  23.553   8.550
 4985POPC   C2B10616  11.982  23.508   8.250
 4985POPC   C3B10617  11.952  23.479   7.950
 4985POPC   C4B10618  11.960  23.483   7.650
 4986POPC   NC310619  23.736  13.596   9.450
 4986POPC   PO410620  23.748  13.637   9.150
 4986POPC   GL110621  23.689  13.625   8.850
 4986POPC   GL210622  23.613  13.691   8.850
 4986POPC   C1A10623  23.666  13.634   8.550
 4986POPC   D2A10624  23.745  13.601   8.250
 4986POPC   C3A10625  23.678  13.638   7.950
 4986POPC   C4A10626  23.721  13.669   7.650
 4986POPC   C1B10627  23.425  13.667   8.550
 4986POPC   C2B10628  23.453  13.720   8.250
 4986POPC   C3B10629  23.488  13.748   7.950
 4986POPC   C4B10630  23.507  13.741   7.650
 4987POPC   NC310631  17.510  33.016   9.450
 4987POPC   PO410632  17.525  33.046   9.150
 4987POPC   GL110633  17.529  33.017   8.850
 4987POPC   GL210634  17.361  33.091   8.850
 4987POPC   C1A10635  17.493  33.036   8.550
 4987POPC   D2A10636  17.511  33.023   8.250
 4987POPC   C3A10637  17.466  33.070   7.950
 4987POPC   C4A10638  17.535  32.988   7.650
 4987POPC   C1B10639  17.239  33.083   8.550
 4987POPC   C2B10640  17.240  33.148   8.250
 4987POPC   C3B10641  17.237  33.123   7.950
 4987POPC   C4B10642  17.263  33.157   7.650
 4988POPC   NC310643  36.163   0.479   9.450
 4988POPC   PO410644  36.089   0.409   9.150
 4988POPC   GL110645  36.150   0.400   8.850
 4988POPC   GL210646  35.970   0.416   8.850
 4988POPC   C1A10647  36.131   0.461   8.550
 4988POPC   D2A10648  36.087   0.458   8.250
 4988POPC   C3A10649  36.172   0.460   7.950
 4988POPC   C4A10650  36.080   0.399   7.650
 4988POPC   C1B10651  35.837   0.485   8.550
 4988POPC   C2B10652  35.872   0.435   8.250
 4988POPC   C3B10653  35.909   0.404   7.950
 4988POPC   C4B10654  35.904   0.434   7.650
 4989POPC   NC310655  26.083  43.928   9.450
 4989POPC   PO410656  26.078  43.891   9.150
 4989POPC   GL110657  26.058  43.852   8.850
 4989POPC   GL210658  25.951  43.994   8.850
 4989POPC   C1A10659  26.023  43.870   8.550
 4989POPC   D2A10660  26.021  43.922   8.250
 4989POPC   C3A10661  26.026  43.873   7.950
 4989POPC   C4A10662  26.029  43.894   7.650
 4989POPC   C1B10663  25.871  44.050   8.550
 4989POPC   C2B10664  25.890  44.018   8.250
 4989POPC   C3B10665  25.892  44.050   7.950
 4989POPC   C4B10666  25.871  44.039   7.650
 4990POPC   NC310667   5.836  31.493   9.450
 4990POPC   PO410668   5.842  31.423   9.150
 4990POPC   GL110669   5.901  31.464   8.850
 4990POPC   GL210670   5.764  31.384   8.850
 4990POPC   C1A10671   5.873  31.490   8.550
 4990POPC   D2A10672   5.886  31.423   8.250
 4990POPC   C3A10673   5.917  31.437   7.950
 4990POPC   C4A10674   5.844  31.518   7.650
 4990POPC   C1B10675   5.619  31.353   8.550
 4990POPC   C2B10676   5.654  31.322   8.250
 4990POPC   C3B10677   5.713  31.374   7.950
 4990POPC   C4B10678   5.637  31.351   7.650
 4991POPC   NC310679  25.309  22.124   9.450
 4991POPC   PO410680  25.228  22.211   9.150
 4991POPC   GL110681  25.276  22.141   8.850
 4991POPC   GL210682  25.347  22.312   8.850
 4991POPC   C1A10683  25.232  22.160   8.550
 4991POPC   D2A10684  25.273  22.171   8.250
 4991POPC   C3A10685  25.314  22.170   7.950
 4991POPC   C4A10686  25.255  22.132   7.650
 4991POPC   C1B10687  25.359  22.398   8.550
 4991POPC   C2B10688  25.410  22.435   8.250
 4991POPC   C3B10689  25.402  22.346   7.950
 4991POPC   C4B10690  25.399  22.397   7.650
 4992POPC   NC310691  18.282   2.028   9.450
 4992POPC   PO410692  18.252   2.037   9.150
 4992POPC   GL110693  18.269   1.990   8.850
 4992POPC   GL210694  18.198   2.148   8.850
 4992POPC   C1A10695  18.331   1.953   8.550
 4992POPC   D2A10696  18.328   1.961   8.250
 4992POPC   C3A10697  18.268   1.942   7.950
 4992POPC   C4A10698  18.301   1.985   7.650
 4992POPC   C1B10699  18.133   2.214   8.550
 4992POPC   C2B10700  18.153   2.176   8.250
 4992POPC   C3B10701  18.172   2.255   7.950
 4992POPC   C4B10702  18.200   2.185   7.650
 4993POPC   NC310703  33.780  26.820   9.450
 4993POPC   PO410704  33.803  26.843   9.150
 4993POPC   GL110705  33.767  26.846   8.850
 4993POPC   GL210706  33.775  26.930   8.850
 4993POPC   C1A10707  33.754  26.845   8.550
 4993POPC   D2A10708  33.783  26.845   8.250
 4993POPC   C3A10709  33.777  26.847   7.950
 4993POPC   C4A10710  33.760  26.851   7.650
 4993POPC   C1B10711  33.681  27.003   8.550
 4993POPC   C2B10712  33.640  26.990   8.250
 4993POPC   C3B10713  33.677  27.047   7.950
 4993POPC   C4B10714  33.677  26.996   7.650
 4994POPC   NC310715   8.235  19.013   9.450
 4994POPC   PO410716   8.242  19.042   9.150
 4994POPC   GL110717   8.171  19.099   8.850
 4994POPC   GL210718   8.228  18.933   8.850
 4994POPC   C1A10719   8.225  19.102   8.550
 4994POPC   D2A10720   8.214  19.088   8.250
 4994POPC   C3A10721   8.203  19.077   7.950
 4994POPC   C4A10722   8.206  19.038   7.650
 4994POPC   C1B10723   8.314  18.861   8.550
 4994POPC   C2B10724   8.308  18.871   8.250
 4994POPC   C3B10725   8.364  18.879   7.950
 4994POPC   C4B10726   8.287  18.816   7.650
 4995POPC   NC310727   4.358   0.480   9.450
 4995POPC   PO410728   4.285   0.452   9.150
 4995POPC   GL110729   4.293   0.412   8.850
 4995POPC   GL210730   4.314   0.270   8.850
 4995POPC   C1A10731   4.333   0.411   8.550
 4995POPC   D2A10732   4.363   0.390   8.250
 4995POPC   C3A10733   4.325   0.409   7.950
 4995POPC   C4A10734   4.311   0.470   7.650
 4995POPC   C1B10735   4.430   0.206   8.550
 4995POPC   C2B10736   4.393   0.215   8.250
 4995POPC   C3B10737   4.433   0.175   7.950
 4995POPC   C4B10738   4.369   0.211   7.650
 4996POPC   NC310739  25.217   8.186   9.450
 4996POPC   PO410740  25.235   8.172   9.150
 4996POPC   GL110741  25.219   8.198   8.850
 4996POPC   GL210742  25.145   8.275   8.850
 4996POPC   C1A10743  25.236   8.157   8.550
 4996POPC   D2A10744  25.261   8.205   8.250
 4996POPC   C3A10745  25.216   8.240   7.950
 4996POPC   C4A10746  25.250   8.242   7.650
 4996POPC   C1B10747  25.063   8.246   8.550
 4996POPC   C2B10748  24.990   8.296   8.250
 4996POPC   C3B10749  25.065   8.301   7.950
 4996POPC   C4B10750  25.041   8.284   7.650
 4997POPC   NC310751  15.198  29.179   9.450
 4997POPC   PO410752  15.163  29.097   9.150
 4997POPC   GL110753  15.226  29.193   8.850
 4997POPC   GL210754  15.206  29.299   8.850
 4997POPC   C1A10755  15.191  29.099   8.550
 4997POPC   D2A10756  15.185  29.124   8.250
 4997POPC   C3A10757  15.224  29.189   7.950
 4997POPC   C4A10758  15.191  29.133   7.650
 4997POPC   C1B10759  15.199  29.349   8.550
 4997POPC   C2B10760  15.224  29.413   8.250
 4997POPC   C3B10761  15.162  29.437   7.950
 4997POPC   C4B10762  15.209  29.365   7.650
 4998POPC   NC310763  30.745  44.669   9.450
 4998POPC   PO410764  30.678  44.640   9.150
 4998POPC   GL110765  30.691  44.703   8.850
 4998POPC   GL210766  30.807  44.642   8.850
 4998POPC   C1A10767  30.728  44.698   8.550
 4998POPC   D2A10768  30.683  44.656   8.250
 4998POPC   C3A10769  30.739  44.688   7.950
 4998POPC   C4A10770  30.708  44.710   7.650
 4998POPC   C1B10771  30.951  44.676   8.550
 4998POPC   C2B10772  30.993  44.673   8.250
 4998POPC   C3B10773  30.916  44.624   7.950
 4998POPC   C4B10774  30.985  44.634   7.650
 4999POPC   NC310775  22.976  33.763   9.450
 4999POPC   PO410776  22.917  33.790   9.150
 4999POPC   GL110777  22.906  33.824   8.850
 4999POPC   GL210778  22.792  33.748   8.850
 4999POPC   C1A10779  22.986  33.830   8.550
 4999POPC   D2A10780  22.984  33.781   8.250
 4999POPC   C3A10781  22.924  33.776   7.950
 4999POPC   C4A10782  22.925  33.840   7.650
 4999POPC   C1B10783  22.688  33.727   8.550
 4999POPC   C2B10784  22.683  33.640   8.250
 4999POPC   C3B10785  22.761  33.698   7.950
 4999POPC   C4B10786  22.763  33.652   7.650
 5000POPC   NC310787  44.684   8.943   9.450
 5000POPC   PO410788  44.655   8.946   9.150
 5000POPC   GL110789  44.625   8.975   8.850
 5000POPC   GL210790  44.566   8.904   8.850
 5000POPC   C1A10791  44.679   9.007   8.550
 5000POPC   D2A10792  44.679   8.931   8.250
 5000POPC   C3A10793  44.670   8.986   7.950
 5000POPC   C4A10794  44.619   8.955   7.650
 5000POPC   C1B10795  44.515   8.767   8.550
 5000POPC   C2B10796  44.571   8.788   8.250
 5000POPC   C3B10797  44.559   8.770   7.950
 5000POPC   C4B10798  44.541   8.737   7.650
 5001POPC   NC310799   7.462   5.055   9.450
 5001POPC   PO410800   7.372   5.110   9.150
 5001POPC   GL110801   7.462   5.082   8.850
 5001POPC   GL210802   7.362   5.238   8.850
 5001POPC   C1A10803   7.465   5.058   8.550
 5001POPC   D2A10804   7.427   5.047   8.250
 5001POPC   C3A10805   7.438   5.108   7.950
 5001POPC   C4A10806   7.432   5.118   7.650
 5001POPC   C1B10807   7.409   5.371   8.550
 5001POPC   C2B10808   7.404   5.294   8.250
 5001POPC   C3B10809   7.379   5.388   7.950
 5001POPC   C4B10810   7.386   5.375   7.650
 5002POPC   NC310811  26.803  26.014   9.450
 5002POPC   PO410812  26.856  26.046   9.150
 5002POPC   GL110813  26.802  26.018   8.850
 5002POPC   GL210814  26.972  26.089   8.850
 5002POPC   C1A10815  26.852  26.088   8.550
 5002POPC   D2A10816  26.860  26.090   8.250
 5002POPC   C3A10817  26.803  26.063   7.950
 5002POPC   C4A10818  26.804  26.029   7.650
 5002POPC   C1B10819  27.035  26.088   8.550
 5002POPC   C2B10820  27.075  26.062   8.250
 5002POPC   C3B10821  27.059  26.123   7.950
 5002POPC   C4B10822  27.037  26.094   7.650
 5003POPC   NC310823  21.374  11.291   9.450
 5003POPC   PO410824  21.397  11.305   9.150
 5003POPC   GL110825  21.400  11.257   8.850
 5003POPC   GL210826  21.535  11.362   8.850
 5003POPC   C1A10827  21.406  11.307   8.550
 5003POPC   D2A10828  21.343  11.282   8.250
 5003POPC   C3A10829  21.350  11.343   7.950
 5003POPC   C4A10830  21.389  11.260   7.650
 5003POPC   C1B10831  21.668  11.289   8.550
 5003POPC   C2B10832  21.667  11.285   8.250
 5003POPC   C3B10833  21.646  11.289   7.950
 5003POPC   C4B10834  21.594  11.356   7.650
 5004POPC   NC310835  31.507   3.575   9.450
 5004POPC   PO410836  31.464   3.513   9.150
 5004POPC   GL110837  31.435   3.497   8.850
 5004POPC   GL210838  31.507   3.454   8.850
 5004POPC   C1A10839  31.427   3.521   8.550
 5004POPC   D2A10840  31.504   3.498   8.250
 5004POPC   C3A10841  31.473   3.548   7.950
 5004POPC   C4A10842  31.465   3.589   7.650
 5004POPC   C1B10843  31.594   3.301   8.550
 5004POPC   C2B10844  31.606   3.350   8.250
 5004POPC   C3B10845  31.560   3.346   7.950
 5004POPC   C4B10846  31.578   3.286   7.650
 5005POPC   NC310847   3.493  30.652   9.450
 5005POPC   PO410848   3.557  30.698   9.150
 5005POPC   GL110849   3.506  30.656   8.850
 5005POPC   GL210850   3.402  30.661   8.850
 5005POPC   C1A10851   3.510  30.694   8.550
 5005POPC   D2A10852   3.525  30.726   8.250
 5005POPC   C3A10853   3.537  30.739   7.950
 5005POPC   C4A10854   3.570  30.744   7.650
 5005POPC   C1B10855   3.333  30.631   8.550
 5005POPC   C2B10856   3.289  30.608   8.250
 5005POPC   C3B10857   3.280  30.683   7.950
 5005POPC   C4B10858   3.336  30.643   7.650
 5006POPC   NC310859  32.992  40.789   9.450
 5006POPC   PO410860  33.031  40.764   9.150
 5006POPC   GL110861  33.014  40.750   8.850
 5006POPC   GL210862  33.126  40.688   8.850
 5006POPC   C1A10863  32.977  40.820   8.550
 5006POPC   D2A10864  33.041  40.761   8.250
 5006POPC   C3A10865  33.012  40.793   7.950
 5006POPC   C4A10866  33.041  40.807   7.650
 5006POPC   C1B10867  33.197  40.538   8.550
 5006POPC   C2B10868  33.183  40.563   8.250
 5006POPC   C3B10869  33.178  40.577   7.950
 5006POPC   C4B10870  33.211  40.629   7.650
 5007POPC   NC310871  33.782  39.269   9.450
 5007POPC   PO410872  33.837  39.262   9.150
 5007POPC   GL110873  33.839  39.229   8.850
 5007POPC   GL210874  33.732  39.372   8.850
 5007POPC   C1A10875  33.838  39.255   8.550
 5007POPC   D2A10876  33.765  39.188   8.250
 5007POPC   C3A10877  33.836  39.235   7.950
 5007POPC   C4A10878  33.806  39.229   7.650
 5007POPC   C1B10879  33.650  39.408   8.550
 5007POPC   C2B10880  33.635  39.472   8.250
 5007POPC   C3B10881  33.673  39.404   7.950
 5007POPC   C4B10882  33.603  39.451   7.650
 5008POPC   NC310883   1.992  39.184   9.450
 5008POPC   PO410884   1.951  39.243   9.150
 5008POPC   GL110885   1.966  39.246   8.850
 5008POPC   GL210886   1.945  39.142   8.850
 5008POPC   C1A10887   2.018  39.250   8.550
 5008POPC   D2A10888   1.984  39.251   8.250
 5008POPC   C3A10889   1.998  39.270   7.950
 5008POPC   C4A10890   1.953  39.216   7.650
 5008POPC   C1B10891   1.976  39.025   8.550
 5008POPC   C2B10892   2.035  39.009   8.250
 5008POPC   C3B10893   1.989  39.001   7.950
 5008POPC   C4B10894   2.000  38.979   7.650
 5009POPC   NC310895  27.576  43.883   9.450
 5009POPC   PO410896  27.572  43.920   9.150
 5009POPC   GL110897  27.587  43.923   8.850
 5009POPC   GL210898  27.483  43.824   8.850
 5009POPC   C1A10899  27.603  43.894   8.550
 5009POPC   D2A10900  27.586  43.853   8.250
 5009POPC   C3A10901  27.637  43.885   7.950
 5009POPC   C4A10902  27.601  43.887   7.650
 5009POPC   C1B10903  27.399  43.692   8.550
 5009POPC   C2B10904  27.478  43.683   8.250
 5009POPC   C3B10905  27.425  43.706   7.950
 5009POPC   C4B10906  27.409  43.732   7.650
 5010POPC   NC310907  35.393   6.638   9.450
 5010POPC   PO410908  35.353   6.692   9.150
 5010POPC   GL110909  35.375   6.606   8.850
 5010POPC   GL210910  35.445   6.534   8.850
 5010POPC   C1A10911  35.376   6.645   8.550
 5010POPC   D2A10912  35.362   6.624   8.250
 5010POPC   C3A10913  35.396   6.663   7.950
 5010POPC   C4A10914  35.317   6.671   7.650
 5010POPC   C1B10915  35.535   6.486   8.550
 5010POPC   C2B10916  35.596   6.457   8.250
 5010POPC   C3B10917  35.518   6.471   7.950
 5010POPC   C4B10918  35.523   6.504   7.650
 5011POPC   NC310919  42.316  22.934   9.450
 5011POPC   PO410920  42.312  22.963   9.150
 5011POPC   GL110921  42.305  22.985   8.850
 5011POPC   GL210922  42.240  22.881   8.850
 5011POPC   C1A10923  42.343  22.972   8.550
 5011POPC   D2A10924  42.317  22.934   8.250
 5011POPC   C3A10925  42.286  22.958   7.950
 5011POPC   C4A10926  42.356  22.928   7.650
 5011POPC   C1B10927  42.073  22.893   8.550
 5011POPC   C2B10928  42.041  22.917   8.250
 5011POPC   C3B10929  42.060  22.892   7.950
 5011POPC   C4B10930  42.052  22.932   7.650
 5012POPC   NC310931  40.785  21.350   9.450
 5012POPC   PO410932  40.813  21.394   9.150
 5012POPC   GL110933  40.829  21.433   8.850
 5012POPC   GL210934  40.757  21.496   8.850
 5012POPC   C1A10935  40.783  21.339   8.550
 5012POPC   D2A10936  40.770  21.394   8.250
 5012POPC   C3A10937  40.747  21.405   7.950
 5012POPC   C4A10938  40.832  21.347   7.650
 5012POPC   C1B10939  40.685  21.610   8.550
 5012POPC   C2B10940  40.710  21.592   8.250
 5012POPC   C3B10941  40.740  21.667   7.950
 5012POPC   C4B10942  40.757  21.589   7.650
 5013POPC   NC310943  19.061  27.618   9.450
 5013POPC   PO410944  19.074  27.558   9.150
 5013POPC   GL110945  19.064  27.578   8.850
 5013POPC   GL210946  19.171  27.558   8.850
 5013POPC   C1A10947  19.047  27.602   8.550
 5013POPC   D2A10948  19.108  27.575   8.250
 5013POPC   C3A10949  19.057  27.600   7.950
 5013POPC   C4A10950  19.023  27.611   7.650
 5013POPC   C1B10951  19.278  27.542   8.550
 5013POPC   C2B10952  19.286  27.587   8.250
 5013POPC   C3B10953  19.305  27.545   7.950
 5013POPC   C4B10954  19.310  27.593   7.650
 5014POPC   NC310955  35.340   0.405   9.450
 5014POPC   PO410956  35.310   0.457   9.150
 5014POPC   GL110957  35.372   0.443   8.850
 5014POPC   GL210958  35.237   0.407   8.850
 5014POPC   C1A10959  35.353   0.474   8.550
 5014POPC   D2A10960  35.303   0.425   8.250
 5014POPC   C3A10961  35.392   0.470   7.950
 5014POPC   C4A10962  35.357   0.437   7.650
 5014POPC   C1B10963  35.150   0.431   8.550
 5014POPC   C2B10964  35.112   0.455   8.250
 5014POPC   C3B10965  35.123   0.444   7.950
 5014POPC   C4B10966  35.088   0.495   7.650
 5015POPC   NC310967  20.653  11.273   9.450
 5015POPC   PO410968  20.605  11.277   9.150
 5015POPC   GL110969  20.644  11.277   8.850
 5015POPC   GL210970  20.714  11.390   8.850
 5015POPC   C1A10971  20.590  11.264   8.550
 5015POPC   D2A10972  20.650  11.268   8.250
 5015POPC   C3A10973  20.569  11.263   7.950
 5015POPC   C4A10974  20.653  11.300   7.650
 5015POPC   C1B10975  20.827  11.513   8.550
 5015POPC   C2B10976  20.808  11.477   8.250
 5015POPC   C3B10977  20.773  11.502   7.950
 5015POPC   C4B10978  20.737  11.439   7.650
 5016POPC   NC310979  29.105  33.757   9.450
 5016POPC   PO410980  29.152  33.821   9.150
 5016POPC   GL110981  29.133  33.790   8.850
 5016POPC   GL210982  29.064  33.745   8.850
 5016POPC   C1A10983  29.114  33.830   8.550
 5016POPC   D2A10984  29.143  33.756   8.250
 5016POPC   C3A10985  29.143  33.826   7.950
 5016POPC   C4A10986  29.163  33.827   7.650
 5016POPC   C1B10987  28.934  33.677   8.550
 5016POPC   C2B10988  28.944  33.708   8.250
 5016POPC   C3B10989  28.916  33.730   7.950
 5016POPC   C4B10990  28.900  33.718   7.650
 5017POPC   NC310991  33.806  13.613   9.450
 5017POPC   PO410992  33.751  13.617   9.150
 5017POPC   GL110993  33.845  13.602   8.850
 5017POPC   GL210994  33.681  13.607   8.850
 5017POPC   C1A10995  33.758  13.653   8.550
 5017POPC   D2A10996  33.773  13.615   8.250
 5017POPC   C3A10997  33.796  13.622   7.950
 5017POPC   C4A10998  33.824  13.664   7.650
 5017POPC   C1B10999  33.552  13.592   8.550
 5017POPC   C2B11000  33.557  13.605   8.250
 5017POPC   C3B11001  33.505  13.644   7.950
 5017POPC   C4B11002  33.504  13.550   7.650
 5018POPC   NC311003   5.844  19.805   9.450
 5018POPC   PO411004   5.847  19.850   9.150
 5018POPC   GL111005   5.890  19.871   8.850
 5018POPC   GL211006   5.768  19.879   8.850
 5018POPC   C1A11007   5.918  19.842   8.550
 5018POPC   D2A11008   5.871  19.812   8.250
 5018POPC   C3A11009   5.871  19.797   7.950
 5018POPC   C4A11010   5.834  19.858   7.650
 5018POPC   C1B11011   5.648  19.896   8.550
 5018POPC   C2B11012   5.577  19.879   8.250
 5018POPC   C3B11013   5.583  19.814   7.950
 5018POPC   C4B11014   5.653  19.909   7.650
 5019POPC   NC311015  14.360  40.799   9.450
 5019POPC   PO411016  14.384  40.746   9.150
 5019POPC   GL111017  14.411  40.750   8.850
 5019POPC   GL211018  14.485  40.668   8.850
 5019POPC   C1A11019  14.371  40.779   8.550
 5019POPC   D2A11020  14.388  40.816   8.250
 5019POPC   C3A11021  14.383  40.801   7.950
 5019POPC   C4A11022  14.392  40.750   7.650
 5019POPC   C1B11023  14.572  40.591   8.550
 5019POPC   C2B11024  14.551  40.565   8.250
 5019POPC   C3B11025  14.588  40.626   7.950
 5019POPC   C4B11026  14.517  40.579   7.650
 5020POPC   NC311027   0.429  25.225   9.450
 5020POPC   PO411028   0.455  25.220   9.150
 5020POPC   GL111029   0.450  25.265   8.850
 5020POPC   GL211030   0.478  25.408   8.850
 5020POPC   C1A11031   0.478  25.230   8.550
 5020POPC   D2A11032   0.407  25.314   8.250
 5020POPC   C3A11033   0.417  25.271   7.950
 5020POPC   C4A11034   0.436  25.231   7.650
 5020POPC   C1B11035   0.507  25.464   8.550
 5020POPC   C2B11036   0.472  25.511   8.250
 5020POPC   C3B11037   0.477  25.543   7.950
 5020POPC   C4B11038   0.524  25.524   7.650
 5021POPC   NC311039  22.974  30.690   9.450
 5021POPC   PO411040  22.928  30.720   9.150
 5021POPC   GL111041  22.977  30.733   8.850
 5021POPC   GL211042  23.007  30.570   8.850
 5021POPC   C1A11043  22.931  30.744   8.550
 5021POPC   D2A11044  22.955  30.715   8.250
 5021POPC   C3A11045  22.930  30.730   7.950
 5021POPC   C4A11046  22.979  30.728   7.650
 5021POPC   C1B11047  23.104  30.432   8.550
 5021POPC   C2B11048  23.040  30.498   8.250
 5021POPC   C3B11049  23.039  30.515   7.950
 5021POPC   C4B11050  23.060  30.489   7.650
 5022POPC   NC311051   1.993  13.619   9.450
 5022POPC   PO411052   1.964  13.621   9.150
 5022POPC   GL111053   2.015  13.613   8.850
 5022POPC   GL211054   2.042  13.737   8.850
 5022POPC   C1A11055   1.953  13.637   8.550
 5022POPC   D2A11056   2.025  13.587   8.250
 5022POPC   C3A11057   2.014  13.602   7.950
 5022POPC   C4A11058   2.029  13.580   7.650
 5022POPC   C1B11059   1.977  13.891   8.550
 5022POPC   C2B11060   2.008  13.899   8.250
 5022POPC   C3B11061   1.968  13.845   7.950
 5022POPC   C4B11062   1.996  13.918   7.650
 5023POPC   NC311063  38.469  19.056   9.450
 5023POPC   PO411064  38.483  19.049   9.150
 5023POPC   GL111065  38.488  19.045   8.850
 5023POPC   GL211066  38.537  18.969   8.850
 5023POPC   C1A11067  38.471  19.087   8.550
 5023POPC   D2A11068  38.453  19.088   8.250
 5023POPC   C3A11069  38.442  19.047   7.950
 5023POPC   C4A11070  38.477  19.046   7.650
 5023POPC   C1B11071  38.535  18.837   8.550
 5023POPC   C2B11072  38.604  18.873   8.250
 5023POPC   C3B11073  38.593  18.850   7.950
 5023POPC   C4B11074  38.586  18.884   7.650
 5024POPC   NC311075   6.616   2.812   9.450
 5024POPC   PO411076   6.680   2.797   9.150
 5024POPC   GL111077   6.638   2.767   8.850
 5024POPC   GL211078   6.729   2.810   8.850
 5024POPC   C1A11079   6.630   2.789   8.550
 5024POPC   D2A11080   6.669   2.741   8.250
 5024POPC   C3A11081   6.665   2.775   7.950
 5024POPC   C4A11082   6.666   2.725   7.650
 5024POPC   C1B11083   6.890   2.868   8.550
 5024POPC   C2B11084   6.888   2.931   8.250
 5024POPC   C3B11085   6.816   2.949   7.950
 5024POPC   C4B11086   6.893   2.960   7.650
 5025POPC   NC311087   1.223  42.308   9.450
 5025POPC   PO411088   1.184  42.349   9.150
 5025POPC   GL111089   1.194  42.290   8.850
 5025POPC   GL211090   1.184  42.205   8.850
 5025POPC   C1A11091   1.202  42.285   8.550
 5025POPC   D2A11092   1.172  42.297   8.250
 5025POPC   C3A11093   1.226  42.360   7.950
 5025POPC   C4A11094   1.221  42.286   7.650
 5025POPC   C1B11095   1.149  42.113   8.550
 5025POPC   C2B11096   1.138  42.080   8.250
 5025POPC   C3B11097   1.209  42.080   7.950
 5025POPC   C4B11098   1.187  42.039   7.650
 5026POPC   NC311099  19.842  31.454   9.450
 5026POPC   PO411100  19.864  31.514   9.150
 5026POPC   GL111101  19.862  31.448   8.850
 5026POPC   GL211102  19.838  31.589   8.850
 5026POPC   C1A11103  19.884  31.467   8.550
 5026POPC   D2A11104  19.810  31.509   8.250
 5026POPC   C3A11105  19.801  31.438   7.950
 5026POPC   C4A11106  19.876  31.440   7.650
 5026POPC   C1B11107  19.834  31.753   8.550
 5026POPC   C2B11108  19.828  31.742   8.250
 5026POPC   C3B11109  19.873  31.706   7.950
 5026POPC   C4B11110  19.859  31.765   7.650
 5027POPC   NC311111  44.644   1.263   9.450
 5027POPC   PO411112  44.694   1.246   9.150
 5027POPC   GL111113  44.687   1.228   8.850
 5027POPC   GL211114  44.819   1.188   8.850
 5027POPC   C1A11115  44.642   1.165   8.550
 5027POPC   D2A11116  44.700   1.174   8.250
 5027POPC   C3A11117  44.620   1.249   7.950
 5027POPC   C4A11118  44.627   1.237   7.650
 5027POPC   C1B11119  44.874   1.109   8.550
 5027POPC   C2B11120  44.900   1.048   8.250
 5027POPC   C3B11121  44.917   1.080   7.950
 5027POPC   C4B11122  44.869   1.091   7.650
 5028POPC   NC311123  22.891   1.183   9.450
 5028POPC   PO411124  22.978   1.192   9.150
 5028POPC   GL111125  22.904   1.241   8.850
 5028POPC   GL211126  22.981   1.339   8.850
 5028POPC   C1A11127  22.894   1.257   8.550
 5028POPC   D2A11128  22.986   1.207   8.250
 5028POPC   C3A11129  22.967   1.242   7.950
 5028POPC   C4A11130  22.932   1.256   7.650
 5028POPC   C1B11131  23.123   1.366   8.550
 5028POPC   C2B11132  23.047   1.433   8.250
 5028POPC   C3B11133  23.096   1.440   7.950
 5028POPC   C4B11134  23.091   1.378   7.650
 5029POPC   NC311135   1.972   1.225   9.450
 5029POPC   PO411136   1.976   1.229   9.150
 5029POPC   GL111137   1.962   1.197   8.850
 5029POPC   GL211138   1.886   1.257   8.850
 5029POPC   C1A11139   2.035   1.257   8.550
 5029POPC   D2A11140   1.978   1.195   8.250
 5029POPC   C3A11141   2.017   1.209   7.950
 5029POPC   C4A11142   1.971   1.261   7.650
 5029POPC   C1B11143   1.714   1.245   8.550
 5029POPC   C2B11144   1.773   1.287   8.250
 5029POPC   C3B11145   1.712   1.251   7.950
 5029POPC   C4B11146   1.699   1.290   7.650
 5030POPC   NC311147  42.361  29.156   9.450
 5030POPC   PO411148  42.303  29.124   9.150
 5030POPC   GL111149  42.376  29.121   8.850
 5030POPC   GL211150  42.319  29.048   8.850
 5030POPC   C1A11151  42.383  29.097   8.550
 5030POPC   D2A11152  42.313  29.181   8.250
 5030POPC   C3A11153  42.291  29.115   7.950
 5030POPC   C4A11154  42.294  29.186   7.650
 5030POPC   C1B11155  42.398  28.900   8.550
 5030POPC   C2B11156  42.352  28.931   8.250
 5030POPC   C3B11157  42.338  28.918   7.950
 5030POPC   C4B11158  42.340  28.930   7.650
 5031POPC   NC311159  29.136  44.634   9.450
 5031POPC   PO411160  29.173  44.613   9.150
 5031POPC   GL111161  29.148  44.710   8.850
 5031POPC   GL211162  29.282  44.737   8.850
 5031POPC   C1A11163  29.127  44.631   8.550
 5031POPC   D2A11164  29.128  44.653   8.250
 5031POPC   C3A11165  29.133  44.620   7.950
 5031POPC   C4A11166  29.149  44.619   7.650
 5031POPC   C1B11167  29.379  44.745   8.550
 5031POPC   C2B11168  29.338  44.748   8.250
 5031POPC   C3B11169  29.394  44.751   7.950
 5031POPC   C4B11170  29.407  44.792   7.650
 5032POPC   NC311171  12.082  35.304   9.450
 5032POPC   PO411172  12.096  35.335   9.150
 5032POPC   GL111173  12.108  35.369   8.850
 5032POPC   GL211174  12.121  35.456   8.850
 5032POPC   C1A11175  12.035  35.389   8.550
 5032POPC   D2A11176  12.036  35.363   8.250
 5032POPC   C3A11177  12.027  35.313   7.950
 5032POPC   C4A11178  12.123  35.367   7.650
 5032POPC   C1B11179  12.240  35.498   8.550
 5032POPC   C2B11180  12.211  35.518   8.250
 5032POPC   C3B11181  12.187  35.516   7.950
 5032POPC   C4B11182  12.218  35.564   7.650
 5033POPC   NC311183  33.770  25.227   9.450
 5033POPC   PO411184  33.784  25.243   9.150
 5033POPC   GL111185  33.756  25.220   8.850
 5033POPC   GL211186  33.873  25.350   8.850
 5033POPC   C1A11187  33.833  25.281   8.550
 5033POPC   D2A11188  33.773  25.268   8.250
 5033POPC   C3A11189  33.763  25.241   7.950
 5033POPC   C4A11190  33.822  25.281   7.650
 5033POPC   C1B11191  33.965  25.453   8.550
 5033POPC   C2B11192  33.944  25.450   8.250
 5033POPC   C3B11193  33.921  25.474   7.950
 5033POPC   C4B11194  33.947  25.483   7.650
 5034POPC   NC311195  42.306  19.819   9.450
 5034POPC   PO411196  42.384  19.874   9.150
 5034POPC   GL111197  42.381  19.813   8.850
 5034POPC   GL211198  42.263  19.766   8.850
 5034POPC   C1A11199  42.339  19.884   8.550
 5034POPC   D2A11200  42.369  19.806   8.250
 5034POPC   C3A11201  42.335  19.800   7.950
 5034POPC   C4A11202  42.359  19.837   7.650
 5034POPC   C1B11203  42.172  19.626   8.550
 5034POPC   C2B11204  42.141  19.667   8.250
 5034POPC   C3B11205  42.144  19.716   7.950
 5034POPC   C4B11206  42.180  19.682   7.650
 5035POPC   NC311207  33.065  20.635   9.450
 5035POPC   PO411208  33.021  20.599   9.150
 5035POPC   GL111209  33.052  20.611   8.850
 5035POPC   GL211210  33.110  20.478   8.850
 5035POPC   C1A11211  33.042  20.579   8.550
 5035POPC   D2A11212  33.010  20.587   8.250
 5035POPC   C3A11213  33.068  20.577   7.950
 5035POPC   C4A11214  32.980  20.606   7.650
 5035POPC   C1B11215  33.207  20.403   8.550
 5035POPC   C2B11216  33.217  20.374   8.250
 5035POPC   C3B11217  33.161  20.358   7.950
 5035POPC   C4B11218  33.182  20.405   7.650
 5036POPC   NC311219  16.713  19.851   9.450
 5036POPC   PO411220  16.716  19.868   9.150
 5036POPC   GL111221  16.703  19.806   8.850
 5036POPC   GL211222  16.771  19.673   8.850
 5036POPC   C1A11223  16.717  19.873   8.550
 5036POPC   D2A11224  16.761  19.847   8.250
 5036POPC   C3A11225  16.730  19.797   7.950
 5036POPC   C4A11226  16.684  19.879   7.650
 5036POPC   C1B11227  16.782  19.625   8.550
 5036POPC   C2B11228  16.800  19.586   8.250
 5036POPC   C3B11229  16.766  19.589   7.950
 5036POPC   C4B11230  16.799  19.581   7.650
 5037POPC   NC311231  11.330  22.124   9.450
 5037POPC   PO411232  11.295  22.145   9.150
 5037POPC   GL111233  11.298  22.169   8.850
 5037POPC   GL211234  11.329  22.051   8.850
 5037POPC   C1A11235  11.286  22.125   8.550
 5037POPC   D2A11236  11.294  22.135   8.250
 5037POPC   C3A11237  11.255  22.149   7.950
 5037POPC   C4A11238  11.339  22.203   7.650
 5037POPC   C1B11239  11.350  21.905   8.550
 5037POPC   C2B11240  11.347  21.893   8.250
 5037POPC   C3B11241  11.348  21.916   7.950
 5037POPC   C4B11242  11.325  21.945   7.650
 5038POPC   NC311243   2.718  24.455   9.450
 5038POPC   PO411244   2.799  24.456   9.150
 5038POPC   GL111245   2.785  24.443   8.850
 5038POPC   GL211246   2.912  24.427   8.850
 5038POPC   C1A11247   2.795  24.485   8.550
 5038POPC   D2A11248   2.814  24.510   8.250
 5038POPC   C3A11249   2.747  24.489   7.950
 5038POPC   C4A11250   2.794  24.528   7.650
 5038POPC   C1B11251   2.925  24.376   8.550
 5038POPC   C2B11252   2.921  24.338   8.250
 5038POPC   C3B11253   3.011  24.317   7.950
 5038POPC   C4B11254   2.973  24.379   7.650
 5039POPC   NC311255  43.147  32.296   9.450
 5039POPC   PO411256  43.079  32.269   9.150
 5039POPC   GL111257  43.076  32.285   8.850
 5039POPC   GL211258  43.229  32.227   8.850
 5039POPC   C1A11259  43.098  32.281   8.550
 5039POPC   D2A11260  43.106  32.216   8.250
 5039POPC   C3A11261  43.073  32.250   7.950
 5039POPC   C4A11262  43.103  32.202   7.650
 5039POPC   C1B11263  43.361  32.346   8.550
 5039POPC   C2B11264  43.382  32.343   8.250
 5039POPC   C3B11265  43.347  32.256   7.950
 5039POPC   C4B11266  43.385  32.323   7.650
 5040POPC   NC311267  18.280   5.905   9.450
 5040POPC   PO411268  18.320   5.905   9.150
 5040POPC   GL111269  18.303   5.873   8.850
 5040POPC   GL211270  18.223   5.762   8.850
 5040POPC   C1A11271  18.328   5.852   8.550
 5040POPC   D2A11272  18.297   5.900   8.250
 5040POPC   C3A11273  18.308   5.821   7.950
 5040POPC   C4A11274  18.327   5.895   7.650
 5040POPC   C1B11275  18.080   5.777   8.550
 5040POPC   C2B11276  18.052   5.737   8.250
 5040POPC   C3B11277  18.047   5.775   7.950
 5040POPC   C4B11278  18.073   5.708   7.650
 5041POPC   NC311279  34.608  36.094   9.450
 5041POPC   PO411280  34.607  36.145   9.150
 5041POPC   GL111281  34.548  36.106   8.850
 5041POPC   GL211282  34.699  36.101   8.850
 5041POPC   C1A11283  34.615  36.176   8.550
 5041POPC   D2A11284  34.610  36.110   8.250
 5041POPC   C3A11285  34.582  36.135   7.950
 5041POPC   C4A11286  34.613  36.156   7.650
 5041POPC   C1B11287  34.813  36.055   8.550
 5041POPC   C2B11288  34.842  36.059   8.250
 5041POPC   C3B11289  34.864  36.023   7.950
 5041POPC   C4B11290  34.825  36.026   7.650
 5042POPC   NC311291  15.155  39.202   9.450
 5042POPC   PO411292  15.210  39.256   9.150
 5042POPC   GL111293  15.226  39.218   8.850
 5042POPC   GL211294  15.200  39.369   8.850
 5042POPC   C1A11295  15.133  39.190   8.550
 5042POPC   D2A11296  15.171  39.274   8.250
 5042POPC   C3A11297  15.140  39.195   7.950
 5042POPC   C4A11298  15.171  39.237   7.650
 5042POPC   C1B11299  15.151  39.512   8.550
 5042POPC   C2B11300  15.160  39.476   8.250
 5042POPC   C3B11301  15.191  39.502   7.950
 5042POPC   C4B11302  15.133  39.507   7.650
 5043POPC   NC311303  28.330  12.812   9.450
 5043POPC   PO411304  28.412  12.877   9.150
 5043POPC   GL111305  28.410  12.866   8.850
 5043POPC   GL211306  28.235  12.918   8.850
 5043POPC   C1A11307  28.402  12.846   8.550
 5043POPC   D2A11308  28.405  12.843   8.250
 5043POPC   C3A11309  28.366  12.892   7.950
 5043POPC   C4A11310  28.348  12.815   7.650
 5043POPC   C1B11311  28.143  13.018   8.550
 5043POPC   C2B11312  28.168  12.989   8.250
 5043POPC   C3B11313  28.173  12.997   7.950
 5043POPC   C4B11314  28.207  13.050   7.650
 5044POPC   NC311315   1.993  33.843   9.450
 5044POPC   PO411316   1.989  33.834   9.150
 5044POPC   GL111317   1.948  33.828   8.850
 5044POPC   GL211318   2.019  33.918   8.850
 5044POPC   C1A11319   1.969  33.774   8.550
 5044POPC   D2A11320   2.008  33.819   8.250
 5044POPC   C3A11321   1.982  33.824   7.950
 5044POPC   C4A11322   2.022  33.789   7.650
 5044POPC   C1B11323   2.146  34.068   8.550
 5044POPC   C2B11324   2.099  34.026   8.250
 5044POPC   C3B11325   2.069  34.054   7.950
 5044POPC   C4B11326   2.070  34.028   7.650
 5045POPC   NC311327  29.897  24.466   9.450
 5045POPC   PO411328  29.922  24.455   9.150
 5045POPC   GL111329  29.956  24.523   8.850
 5045POPC   GL211330  29.820  24.585   8.850
 5045POPC   C1A11331  29.871  24.506   8.550
 5045POPC   D2A11332  29.878  24.505   8.250
 5045POPC   C3A11333  29.911  24.519   7.950
 5045POPC   C4A11334  29.907  24.510   7.650
 5045POPC   C1B11335  29.731  24.624   8.550
 5045POPC   C2B11336  29.698  24.669   8.250
 5045POPC   C3B11337  29.676  24.666   7.950
 5045POPC   C4B11338  29.670  24.631   7.650
 5046POPC   NC311339  39.973   8.928   9.450
 5046POPC   PO411340  40.036   8.985   9.150
 5046POPC   GL111341  39.992   8.999   8.850
 5046POPC   GL211342  40.082   8.978   8.850
 5046POPC   C1A11343  39.979   8.982   8.550
 5046POPC   D2A11344  39.970   8.980   8.250
 5046POPC   C3A11345  39.999   8.981   7.950
 5046POPC   C4A11346  40.027   8.941   7.650
 5046POPC   C1B11347  40.299   8.994   8.550
 5046POPC   C2B11348  40.248   9.010   8.250
 5046POPC   C3B11349  40.222   8.984   7.950
 5046POPC   C4B11350  40.296   9.030   7.650
 5047POPC   NC311351  15.983  37.707   9.450
 5047POPC   PO411352  15.979  37.638   9.150
 5047POPC   GL111353  15.970  37.713   8.850
 5047POPC   GL211354  15.870  37.740   8.850
 5047POPC   C1A11355  15.929  37.712   8.550
 5047POPC   D2A11356  15.975  37.688   8.250
 5047POPC   C3A11357  15.990  37.658   7.950
 5047POPC   C4A11358  15.925  37.724   7.650
 5047POPC   C1B11359  15.828  37.881   8.550
 5047POPC   C2B11360  15.786  37.897   8.250
 5047POPC   C3B11361  15.789  37.888   7.950
 5047POPC   C4B11362  15.751  37.827   7.650
 5048POPC   NC311363  18.262  13.657   9.450
 5048POPC   PO411364  18.289  13.650   9.150
 5048POPC   GL111365  18.331  13.611   8.850
 5048POPC   GL211366  18.151  13.527   8.850
 5048POPC   C1A11367  18.283  13.650   8.550
 5048POPC   D2A11368  18.332  13.623   8.250
 5048POPC   C3A11369  18.279  13.587   7.950
 5048POPC   C4A11370  18.305  13.647   7.650
 5048POPC   C1B11371  18.107  13.519   8.550
 5048POPC   C2B11372  18.076  13.518   8.250
 5048POPC   C3B11373  18.023  13.545   7.950
 5048POPC   C4B11374  18.033  13.509   7.650
 5049POPC   NC311375  12.053   3.507   9.450
 5049POPC   PO411376  12.077   3.529   9.150
 5049POPC   GL111377  12.096   3.512   8.850
 5049POPC   GL211378  12.097   3.692   8.850
 5049POPC   C1A11379  12.093   3.558   8.550
 5049POPC   D2A11380  12.121   3.504   8.250
 5049POPC   C3A11381  12.065   3.552   7.950
 5049POPC   C4A11382  12.120   3.494   7.650
 5049POPC   C1B11383  12.245   3.746   8.550
 5049POPC   C2B11384  12.208   3.726   8.250
 5049POPC   C3B11385  12.229   3.740   7.950
 5049POPC   C4B11386  12.177   3.799   7.650
 5050POPC   NC311387  25.246  44.711   9.450
 5050POPC   PO411388  25.264  44.624   9.150
 5050POPC   GL111389  25.313  44.648   8.850
 5050POPC   GL211390  25.184  44.743   8.850
 5050POPC   C1A11391  25.295  44.630   8.550
 5050POPC   D2A11392  25.305  44.679   8.250
 5050POPC   C3A11393  25.278  44.708   7.950
 5050POPC   C4A11394  25.315  44.708   7.650
 5050POPC   C1B11395  25.113  44.833   8.550
 5050POPC   C2B11396  25.040  44.866   8.250
 5050POPC   C3B11397  25.102  44.807   7.950
 5050POPC   C4B11398  25.046  44.809   7.650
 5051POPC   NC311399  33.819  38.453   9.450
 5051POPC   PO411400  33.803  38.424   9.150
 5051POPC   GL111401  33.813  38.482   8.850
 5051POPC   GL211402  33.672  38.518   8.850
 5051POPC   C1A11403  33.805  38.437   8.550
 5051POPC   D2A11404  33.752  38.425   8.250
 5051POPC   C3A11405  33.789  38.446   7.950
 5051POPC   C4A11406  33.803  38.465   7.650
 5051POPC   C1B11407  33.583  38.475   8.550
 5051POPC   C2B11408  33.592  38.526   8.250
 5051POPC   C3B11409  33.558  38.574   7.950
 5051POPC   C4B11410  33.520  38.553   7.650
 5052POPC   NC311411  40.807   7.407   9.450
 5052POPC   PO411412  40.738   7.412   9.150
 5052POPC   GL111413  40.826   7.461   8.850
 5052POPC   GL211414  40.645   7.438   8.850
 5052POPC   C1A11415  40.733   7.431   8.550
 5052POPC   D2A11416  40.804   7.406   8.250
 5052POPC   C3A11417  40.772   7.423   7.950
 5052POPC   C4A11418  40.790   7.384   7.650
 5052POPC   C1B11419  40.549   7.508   8.550
 5052POPC   C2B11420  40.589   7.517   8.250
 5052POPC   C3B11421  40.539   7.460   7.950
 5052POPC   C4B11422  40.552   7.517   7.650
 5053POPC   NC311423  43.084  15.144   9.450
 5053POPC   PO411424  43.072  15.206   9.150
 5053POPC   GL111425  43.081  15.181   8.850
 5053POPC   GL211426  43.176  15.241   8.850
 5053POPC   C1A11427  43.108  15.138   8.550
 5053POPC   D2A11428  43.095  15.149   8.250
 5053POPC   C3A11429  43.124  15.209   7.950
 5053POPC   C4A11430  43.141  15.225   7.650
 5053POPC   C1B11431  43.357  15.334   8.550
 5053POPC   C2B11432  43.347  15.340   8.250
 5053POPC   C3B11433  43.329  15.333   7.950
 5053POPC   C4B11434  43.344  15.345   7.650
 5054POPC   NC311435  32.274  36.130   9.450
 5054POPC   PO411436  32.279  36.167   9.150
 5054POPC   GL111437  32.283  36.123   8.850
 5054POPC   GL211438  32.141  36.118   8.850
 5054POPC   C1A11439  32.244  36.154   8.550
 5054POPC   D2A11440  32.297  36.094   8.250
 5054POPC   C3A11441  32.255  36.091   7.950
 5054POPC   C4A11442  32.199  36.170   7.650
 5054POPC   C1B11443  31.967  36.116   8.550
 5054POPC   C2B11444  32.014  36.117   8.250
 5054POPC   C3B11445  32.005  36.097   7.950
 5054POPC   C4B11446  32.001  36.092   7.650
 5055POPC   NC311447  29.195  36.894   9.450
 5055POPC   PO411448  29.139  36.937   9.150
 5055POPC   GL111449  29.172  36.907   8.850
 5055POPC   GL211450  29.185  37.044   8.850
 5055POPC   C1A11451  29.108  36.881   8.550
 5055POPC   D2A11452  29.181  36.888   8.250
 5055POPC   C3A11453  29.147  36.931   7.950
 5055POPC   C4A11454  29.190  36.944   7.650
 5055POPC   C1B11455  29.175  37.126   8.550
 5055POPC   C2B11456  29.107  37.200   8.250
 5055POPC   C3B11457  29.151  37.185   7.950
 5055POPC   C4B11458  29.149  37.197   7.650
 5056POPC   NC311459  20.644  12.875   9.450
 5056POPC   PO411460  20.659  12.837   9.150
 5056POPC   GL111461  20.591  12.866   8.850
 5056POPC   GL211462  20.745  12.812   8.850
 5056POPC   C1A11463  20.585  12.840   8.550
 5056POPC   D2A11464  20.646  12.842   8.250
 5056POPC   C3A11465  20.598  12.838   7.950
 5056POPC   C4A11466  20.654  12.848   7.650
 5056POPC   C1B11467  20.824  12.794   8.550
 5056POPC   C2B11468  20.859  12.722   8.250
 5056POPC   C3B11469  20.888  12.717   7.950
 5056POPC   C4B11470  20.888  12.784   7.650
 5057POPC   NC311471  33.070  22.200   9.450
 5057POPC   PO411472  32.974  22.144   9.150
 5057POPC   GL111473  32.995  22.137   8.850
 5057POPC   GL211474  32.864  22.188   8.850
 5057POPC   C1A11475  33.033  22.119   8.550
 5057POPC   D2A11476  33.012  22.174   8.250
 5057POPC   C3A11477  33.047  22.195   7.950
 5057POPC   C4A11478  32.987  22.116   7.650
 5057POPC   C1B11479  32.746  22.287   8.550
 5057POPC   C2B11480  32.832  22.291   8.250
 5057POPC   C3B11481  32.826  22.310   7.950
 5057POPC   C4B11482  32.789  22.284   7.650
 5058POPC   NC311483  43.855  14.445   9.450
 5058POPC   PO411484  43.836  14.358   9.150
 5058POPC   GL111485  43.909  14.446   8.850
 5058POPC   GL211486  43.789  14.506   8.850
 5058POPC   C1A11487  43.906  14.388   8.550
 5058POPC   D2A11488  43.925  14.383   8.250
 5058POPC   C3A11489  43.870  14.414   7.950
 5058POPC   C4A11490  43.847  14.429   7.650
 5058POPC   C1B11491  43.661  14.510   8.550
 5058POPC   C2B11492  43.729  14.561   8.250
 5058POPC   C3B11493  43.738  14.572   7.950
 5058POPC   C4B11494  43.713  14.603   7.650
 5059POPC   NC311495  31.425  27.551   9.450
 5059POPC   PO411496  31.479  27.613   9.150
 5059POPC   GL111497  31.487  27.594   8.850
 5059POPC   GL211498  31.604  27.640   8.850
 5059POPC   C1A11499  31.449  27.561   8.550
 5059POPC   D2A11500  31.442  27.638   8.250
 5059POPC   C3A11501  31.436  27.625   7.950
 5059POPC   C4A11502  31.502  27.601   7.650
 5059POPC   C1B11503  31.746  27.580   8.550
 5059POPC   C2B11504  31.743  27.589   8.250
 5059POPC   C3B11505  31.726  27.627   7.950
 5059POPC   C4B11506  31.737  27.609   7.650
 5060POPC   NC311507  26.816  25.237   9.450
 5060POPC   PO411508  26.819  25.239   9.150
 5060POPC   GL111509  26.859  25.292   8.850
 5060POPC   GL211510  26.847  25.357   8.850
 5060POPC   C1A11511  26.865  25.313   8.550
 5060POPC   D2A11512  26.777  25.303   8.250
 5060POPC   C3A11513  26.836  25.220   7.950
 5060POPC   C4A11514  26.790  25.278   7.650
 5060POPC   C1B11515  26.768  25.478   8.550
 5060POPC   C2B11516  26.805  25.525   8.250
 5060POPC   C3B11517  26.853  25.541   7.950
 5060POPC   C4B11518  26.774  25.519   7.650
 5061POPC   NC311519   2.811  35.318   9.450
 5061POPC   PO411520   2.815  35.388   9.150
 5061POPC   GL111521   2.737  35.400   8.850
 5061POPC   GL211522   2.851  35.499   8.850
 5061POPC   C1A11523   2.745  35.355   8.550
 5061POPC   D2A11524   2.806  35.360   8.250
 5061POPC   C3A11525   2.810  35.386   7.950
 5061POPC   C4A11526   2.739  35.352   7.650
 5061POPC   C1B11527   2.813  35.629   8.550
 5061POPC   C2B11528   2.878  35.588   8.250
 5061POPC   C3B11529   2.879  35.576   7.950
 5061POPC   C4B11530   2.806  35.629   7.650
 5062POPC   NC311531  44.634  40.787   9.450
 5062POPC   PO411532  44.651  40.768   9.150
 5062POPC   GL111533  44.708  40.762   8.850
 5062POPC   GL211534  44.635  40.880   8.850
 5062POPC   C1A11535  44.625  40.754   8.550
 5062POPC   D2A11536  44.646  40.750   8.250
 5062POPC   C3A11537  44.641  40.745   7.950
 5062POPC   C4A11538  44.711  40.822   7.650
 5062POPC   C1B11539  44.548  40.956   8.550
 5062POPC   C2B11540  44.541  41.050   8.250
 5062POPC   C3B11541  44.535  40.999   7.950
 5062POPC   C4B11542  44.542  41.020   7.650
 5063POPC   NC311543  37.711   7.412   9.450
 5063POPC   PO411544  37.653   7.391   9.150
 5063POPC   GL111545  37.662   7.440   8.850
 5063POPC   GL211546  37.818   7.441   8.850
 5063POPC   C1A11547  37.699   7.397   8.550
 5063POPC   D2A11548  37.721   7.441   8.250
 5063POPC   C3A11549  37.646   7.372   7.950
 5063POPC   C4A11550  37.641   7.445   7.650
 5063POPC   C1B11551  37.955   7.500   8.550
 5063POPC   C2B11552  37.929   7.435   8.250
 5063POPC   C3B11553  37.904   7.512   7.950
 5063POPC   C4B11554  37.948   7.520   7.650
 5064POPC   NC311555  35.327  15.190   9.450
 5064POPC   PO411556  35.330  15.182   9.150
 5064POPC   GL111557  35.378  15.159   8.850
 5064POPC   GL211558  35.225  15.112   8.850
 5064POPC   C1A11559  35.309  15.174   8.550
 5064POPC   D2A11560  35.349  15.198   8.250
 5064POPC   C3A11561  35.400  15.142   7.950
 5064POPC   C4A11562  35.353  15.140   7.650
 5064POPC   C1B11563  35.136  15.052   8.550
 5064POPC   C2B11564  35.084  15.098   8.250
 5064POPC   C3B11565  35.142  15.062   7.950
 5064POPC   C4B11566  35.124  15.094   7.650
 5065POPC   NC311567  36.902  28.372   9.450
 5065POPC   PO411568  36.914  28.390   9.150
 5065POPC   GL111569  36.892  28.332   8.850
 5065POPC   GL211570  36.839  28.491   8.850
 5065POPC   C1A11571  36.930  28.400   8.550
 5065POPC   D2A11572  36.868  28.374   8.250
 5065POPC   C3A11573  36.862  28.391   7.950
 5065POPC   C4A11574  36.893  28.381   7.650
 5065POPC   C1B11575  36.835  28.584   8.550
 5065POPC   C2B11576  36.856  28.607   8.250
 5065POPC   C3B11577  36.814  28.571   7.950
 5065POPC   C4B11578  36.875  28.628   7.650
 5066POPC   NC311579  26.816  29.173   9.450
 5066POPC   PO411580  26.795  29.133   9.150
 5066POPC   GL111581  26.788  29.098   8.850
 5066POPC   GL211582  26.678  29.149   8.850
 5066POPC   C1A11583  26.780  29.116   8.550
 5066POPC   D2A11584  26.805  29.112   8.250
 5066POPC   C3A11585  26.837  29.174   7.950
 5066POPC   C4A11586  26.814  29.185   7.650
 5066POPC   C1B11587  26.557  29.107   8.550
 5066POPC   C2B11588  26.581  29.083   8.250
 5066POPC   C3B11589  26.532  29.033   7.950
 5066POPC   C4B11590  26.604  29.076   7.650
 5067POPC   NC311591  22.195  28.366   9.450
 5067POPC   PO411592  22.185  28.353   9.150
 5067POPC   GL111593  22.203  28.366   8.850
 5067POPC   GL211594  22.240  28.339   8.850
 5067POPC   C1A11595  22.182  28.360   8.550
 5067POPC   D2A11596  22.150  28.363   8.250
 5067POPC   C3A11597  22.139  28.381   7.950
 5067POPC   C4A11598  22.159  28.409   7.650
 5067POPC   C1B11599  22.429  28.289   8.550
 5067POPC   C2B11600  22.413  28.331   8.250
 5067POPC   C3B11601  22.417  28.281   7.950
 5067POPC   C4B11602  22.380  28.275   7.650
 5068POPC   NC311603  23.751  35.374   9.450
 5068POPC   PO411604  23.680  35.329   9.150
 5068POPC   GL111605  23.681  35.317   8.850
 5068POPC   GL211606  23.708  35.447   8.850
 5068POPC   C1A11607  23.743  35.333   8.550
 5068POPC   D2A11608  23.668  35.359   8.250
 5068POPC   C3A11609  23.747  35.394   7.950
 5068POPC   C4A11610  23.694  35.382   7.650
 5068POPC   C1B11611  23.724  35.559   8.550
 5068POPC   C2B11612  23.668  35.625   8.250
 5068POPC   C3B11613  23.727  35.574   7.950
 5068POPC   C4B11614  23.710  35.620   7.650
 5069POPC   NC311615  35.396  42.349   9.450
 5069POPC   PO411616  35.356  42.289   9.150
 5069POPC   GL111617  35.338  42.292   8.850
 5069POPC   GL211618  35.385  42.169   8.850
 5069POPC   C1A11619  35.306  42.378   8.550
 5069POPC   D2A11620  35.367  42.335   8.250
 5069POPC   C3A11621  35.372  42.316   7.950
 5069POPC   C4A11622  35.305  42.300   7.650
 5069POPC   C1B11623  35.334  42.104   8.550
 5069POPC   C2B11624  35.370  42.100   8.250
 5069POPC   C3B11625  35.325  42.115   7.950
 5069POPC   C4B11626  35.361  42.048   7.650
 5070POPC   NC311627  24.504   6.595   9.450
 5070POPC   PO411628  24.500   6.693   9.150
 5070POPC   GL111629  24.442   6.631   8.850
 5070POPC   GL211630  24.614   6.681   8.850
 5070POPC   C1A11631  24.460   6.604   8.550
 5070POPC   D2A11632  24.534   6.606   8.250
 5070POPC   C3A11633  24.503   6.614   7.950
 5070POPC   C4A11634  24.468   6.652   7.650
 5070POPC   C1B11635  24.720   6.640   8.550
 5070POPC   C2B11636  24.747   6.677   8.250
 5070POPC   C3B11637  24.696   6.602   7.950
 5070POPC   C4B11638  24.737   6.614   7.650
 5071POPC   NC311639   0.428  36.910   9.450
 5071POPC   PO411640   0.464  36.911   9.150
 5071POPC   GL111641   0.427  36.855   8.850
 5071POPC   GL211642   0.490  36.941   8.850
 5071POPC   C1A11643   0.430  36.866   8.550
 5071POPC   D2A11644   0.408  36.891   8.250
 5071POPC   C3A11645   0.405  36.938   7.950
 5071POPC   C4A11646   0.453  36.858   7.650
 5071POPC   C1B11647   0.632  37.050   8.550
 5071POPC   C2B11648   0.654  37.066   8.250
 5071POPC   C3B11649   0.632  37.075   7.950
 5071POPC   C4B11650   0.688  37.088   7.650
 5072POPC   NC311651  31.510   1.999   9.450
 5072POPC   PO411652  31.454   1.963   9.150
 5072POPC   GL111653  31.426   2.030   8.850
 5072POPC   GL211654  31.502   2.153   8.850
 5072POPC   C1A11655  31.456   1.984   8.550
 5072POPC   D2A11656  31.431   2.025   8.250
 5072POPC   C3A11657  31.477   2.006   7.950
 5072POPC   C4A11658  31.497   1.993   7.650
 5072POPC   C1B11659  31.594   2.265   8.550
 5072POPC   C2B11660  31.605   2.230   8.250
 5072POPC   C3B11661  31.528   2.175   7.950
 5072POPC   C4B11662  31.595   2.173   7.650
 5073POPC   NC311663  32.247  29.925   9.450
 5073POPC   PO411664  32.234  29.927   9.150
 5073POPC   GL111665  32.214  29.950   8.850
 5073POPC   GL211666  32.146  30.031   8.850
 5073POPC   C1A11667  32.294  29.901   8.550
 5073POPC   D2A11668  32.246  29.879   8.250
 5073POPC   C3A11669  32.288  29.934   7.950
 5073POPC   C4A11670  32.293  29.911   7.650
 5073POPC   C1B11671  32.083  30.085   8.550
 5073POPC   C2B11672  32.059  30.091   8.250
 5073POPC   C3B11673  32.061  30.112   7.950
 5073POPC   C4B11674  32.102  30.124   7.650
 5074POPC   NC311675  29.151  35.401   9.450
 5074POPC   PO411676  29.188  35.370   9.150
 5074POPC   GL111677  29.184  35.358   8.850
 5074POPC   GL211678  29.234  35.417   8.850
 5074POPC   C1A11679  29.155  35.340   8.550
 5074POPC   D2A11680  29.141  35.321   8.250
 5074POPC   C3A11681  29.134  35.313   7.950
 5074POPC   C4A11682  29.121  35.381   7.650
 5074POPC   C1B11683  29.263  35.577   8.550
 5074POPC   C2B11684  29.252  35.589   8.250
 5074POPC   C3B11685  29.282  35.597   7.950
 5074POPC   C4B11686  29.260  35.506   7.650
 5075POPC   NC311687   8.179  20.616   9.450
 5075POPC   PO411688   8.211  20.640   9.150
 5075POPC   GL111689   8.167  20.644   8.850
 5075POPC   GL211690   8.353  20.574   8.850
 5075POPC   C1A11691   8.207  20.619   8.550
 5075POPC   D2A11692   8.173  20.628   8.250
 5075POPC   C3A11693   8.152  20.622   7.950
 5075POPC   C4A11694   8.213  20.570   7.650
 5075POPC   C1B11695   8.400  20.548   8.550
 5075POPC   C2B11696   8.478  20.584   8.250
 5075POPC   C3B11697   8.392  20.521   7.950
 5075POPC   C4B11698   8.435  20.526   7.650
 5076POPC   NC311699   3.504   9.699   9.450
 5076POPC   PO411700   3.556   9.732   9.150
 5076POPC   GL111701   3.543   9.718   8.850
 5076POPC   GL211702   3.608   9.605   8.850
 5076POPC   C1A11703   3.506   9.763   8.550
 5076POPC   D2A11704   3.499   9.760   8.250
 5076POPC   C3A11705   3.558   9.711   7.950
 5076POPC   C4A11706   3.548   9.755   7.650
 5076POPC   C1B11707   3.564   9.550   8.550
 5076POPC   C2B11708   3.639   9.460   8.250
 5076POPC   C3B11709   3.570   9.512   7.950
 5076POPC   C4B11710   3.625   9.485   7.650
 5077POPC   NC311711  22.182   3.517   9.450
 5077POPC   PO411712  22.182   3.566   9.150
 5077POPC   GL111713  22.124   3.586   8.850
 5077POPC   GL211714  22.084   3.452   8.850
 5077POPC   C1A11715  22.171   3.582   8.550
 5077POPC   D2A11716  22.155   3.561   8.250
 5077POPC   C3A11717  22.140   3.537   7.950
 5077POPC   C4A11718  22.196   3.552   7.650
 5077POPC   C1B11719  22.091   3.323   8.550
 5077POPC   C2B11720  22.116   3.286   8.250
 5077POPC   C3B11721  22.102   3.346   7.950
 5077POPC   C4B11722  22.117   3.302   7.650
 5078POPC   NC311723  44.622  12.069   9.450
 5078POPC   PO411724  44.667  12.078   9.150
 5078POPC   GL111725  44.711  12.066   8.850
 5078POPC   GL211726  44.659  11.937   8.850
 5078POPC   C1A11727  44.665  12.086   8.550
 5078POPC   D2A11728  44.636  12.034   8.250
 5078POPC   C3A11729  44.675  12.102   7.950
 5078POPC   C4A11730  44.663  12.036   7.650
 5078POPC   C1B11731  44.589  11.820   8.550
 5078POPC   C2B11732  44.550  11.835   8.250
 5078POPC   C3B11733  44.555  11.838   7.950
 5078POPC   C4B11734  44.572  11.888   7.650
 5079POPC   NC311735  12.867  30.700   9.450
 5079POPC   PO411736  12.820  30.739   9.150
 5079POPC   GL111737  12.819  30.717   8.850
 5079POPC   GL211738  12.828  30.846   8.850
 5079POPC   C1A11739  12.854  30.723   8.550
 5079POPC   D2A11740  12.843  30.649   8.250
 5079POPC   C3A11741  12.857  30.746   7.950
 5079POPC   C4A11742  12.839  30.678   7.650
 5079POPC   C1B11743  12.762  30.945   8.550
 5079POPC   C2B11744  12.787  30.905   8.250
 5079POPC   C3B11745  12.785  30.968   7.950
 5079POPC   C4B11746  12.825  30.988   7.650
 5080POPC   NC311747  23.709  16.768   9.450
 5080POPC   PO411748  23.684  16.729   9.150
 5080POPC   GL111749  23.735  16.760   8.850
 5080POPC   GL211750  23.545  16.686   8.850
 5080POPC   C1A11751  23.701  16.734   8.550
 5080POPC   D2A11752  23.734  16.720   8.250
 5080POPC   C3A11753  23.690  16.719   7.950
 5080POPC   C4A11754  23.741  16.701   7.650
 5080POPC   C1B11755  23.452  16.702   8.550
 5080POPC   C2B11756  23.446  16.688   8.250
 5080POPC   C3B11757  23.496  16.675   7.950
 5080POPC   C4B11758  23.518  16.629   7.650
 5081POPC   NC311759  40.808   1.204   9.450
 5081POPC   PO411760  40.789   1.179   9.150
 5081POPC   GL111761  40.791   1.189   8.850
 5081POPC   GL211762  40.853   1.153   8.850
 5081POPC   C1A11763  40.829   1.212   8.550
 5081POPC   D2A11764  40.763   1.226   8.250
 5081POPC   C3A11765  40.792   1.177   7.950
 5081POPC   C4A11766  40.825   1.189   7.650
 5081POPC   C1B11767  40.891   1.012   8.550
 5081POPC   C2B11768  40.886   1.021   8.250
 5081POPC   C3B11769  40.869   0.967   7.950
 5081POPC   C4B11770  40.867   1.013   7.650
 5082POPC   NC311771  44.644  39.278   9.450
 5082POPC   PO411772  44.629  39.245   9.150
 5082POPC   GL111773  44.620  39.263   8.850
 5082POPC   GL211774  44.586  39.381   8.850
 5082POPC   C1A11775  44.681  39.278   8.550
 5082POPC   D2A11776  44.677  39.245   8.250
 5082POPC   C3A11777  44.636  39.223   7.950
 5082POPC   C4A11778  44.654  39.198   7.650
 5082POPC   C1B11779  44.597  39.434   8.550
 5082POPC   C2B11780  44.581  39.492   8.250
 5082POPC   C3B11781  44.594  39.512   7.950
 5082POPC   C4B11782  44.565  39.440   7.650
 5083POPC   NC311783  17.514   1.997   9.450
 5083POPC   PO411784  17.468   1.994   9.150
 5083POPC   GL111785  17.523   1.998   8.850
 5083POPC   GL211786  17.476   1.894   8.850
 5083POPC   C1A11787  17.493   1.983   8.550
 5083POPC   D2A11788  17.509   2.009   8.250
 5083POPC   C3A11789  17.479   2.038   7.950
 5083POPC   C4A11790  17.543   1.995   7.650
 5083POPC   C1B11791  17.427   1.759   8.550
 5083POPC   C2B11792  17.344   1.759   8.250
 5083POPC   C3B11793  17.339   1.770   7.950
 5083POPC   C4B11794  17.373   1.742   7.650
 5084POPC   NC311795  34.578  25.270   9.450
 5084POPC   PO411796  34.595  25.258   9.150
 5084POPC   GL111797  34.567  25.308   8.850
 5084POPC   GL211798  34.684  25.320   8.850
 5084POPC   C1A11799  34.571  25.283   8.550
 5084POPC   D2A11800  34.557  25.261   8.250
 5084POPC   C3A11801  34.564  25.301   7.950
 5084POPC   C4A11802  34.620  25.304   7.650
 5084POPC   C1B11803  34.837  25.394   8.550
 5084POPC   C2B11804  34.835  25.421   8.250
 5084POPC   C3B11805  34.765  25.395   7.950
 5084POPC   C4B11806  34.762  25.365   7.650
 5085POPC   NC311807  39.199  13.615   9.450
 5085POPC   PO411808  39.197  13.599   9.150
 5085POPC   GL111809  39.208  13.602   8.850
 5085POPC   GL211810  39.123  13.622   8.850
 5085POPC   C1A11811  39.193  13.641   8.550
 5085POPC   D2A11812  39.252  13.640   8.250
 5085POPC   C3A11813  39.274  13.619   7.950
 5085POPC   C4A11814  39.266  13.627   7.650
 5085POPC   C1B11815  39.024  13.664   8.550
 5085POPC   C2B11816  38.958  13.605   8.250
 5085POPC   C3B11817  38.938  13.666   7.950
 5085POPC   C4B11818  38.984  13.642   7.650
 5086POPC   NC311819  25.221  25.993   9.450
 5086POPC   PO411820  25.241  26.076   9.150
 5086POPC   GL111821  25.237  26.052   8.850
 5086POPC   GL211822  25.267  26.178   8.850
 5086POPC   C1A11823  25.240  26.077   8.550
 5086POPC   D2A11824  25.292  26.041   8.250
 5086POPC   C3A11825  25.216  26.020   7.950
 5086POPC   C4A11826  25.248  26.053   7.650
 5086POPC   C1B11827  25.121  26.285   8.550
 5086POPC   C2B11828  25.140  26.315   8.250
 5086POPC   C3B11829  25.180  26.255   7.950
 5086POPC   C4B11830  25.191  26.298   7.650
 5087POPC   NC311831  27.558  25.261   9.450
 5087POPC   PO411832  27.561  25.297   9.150
 5087POPC   GL111833  27.573  25.226   8.850
 5087POPC   GL211834  27.667  25.331   8.850
 5087POPC   C1A11835  27.570  25.268   8.550
 5087POPC   D2A11836  27.577  25.303   8.250
 5087POPC   C3A11837  27.634  25.223   7.950
 5087POPC   C4A11838  27.559  25.281   7.650
 5087POPC   C1B11839  27.876  25.303   8.550
 5087POPC   C2B11840  27.818  25.322   8.250
 5087POPC   C3B11841  27.847  25.345   7.950
 5087POPC   C4B11842  27.808  25.353   7.650
 5088POPC   NC311843  43.919  11.326   9.450
 5088POPC   PO411844  43.930  11.261   9.150
 5088POPC   GL111845  43.901  11.257   8.850
 5088POPC   GL211846  44.026  11.368   8.850
 5088POPC   C1A11847  43.872  11.323   8.550
 5088POPC   D2A11848  43.845  11.281   8.250
 5088POPC   C3A11849  43.905  11.254   7.950
 5088POPC   C4A11850  43.858  11.267   7.650
 5088POPC   C1B11851  44.129  11.334   8.550
 5088POPC   C2B11852  44.134  11.363   8.250
 5088POPC   C3B11853  44.155  11.382   7.950
 5088POPC   C4B11854  44.181  11.300   7.650
 5089POPC   NC311855   1.166  39.998   9.450
 5089POPC   PO411856   1.236  40.051   9.150
 5089POPC   GL111857   1.186  39.993   8.850
 5089POPC   GL211858   1.311  40.019   8.850
 5089POPC   C1A11859   1.203  39.961   8.550
 5089POPC   D2A11860   1.223  40.014   8.250
 5089POPC   C3A11861   1.240  39.987   7.950
 5089POPC   C4A11862   1.239  40.021   7.650
 5089POPC   C1B11863   1.458  39.973   8.550
 5089POPC   C2B11864   1.456  39.998   8.250
 5089POPC   C3B11865   1.504  39.942   7.950
 5089POPC   C4B11866   1.456  40.001   7.650
 5090POPC   NC311867  10.517  39.267   9.450
 5090POPC   PO411868  10.498  39.241   9.150
 5090POPC   GL111869  10.557  39.246   8.850
 5090POPC   GL211870  10.577  39.365   8.850
 5090POPC   C1A11871  10.495  39.211   8.550
 5090POPC   D2A11872  10.489  39.193   8.250
 5090POPC   C3A11873  10.574  39.251   7.950
 5090POPC   C4A11874  10.476  39.272   7.650
 5090POPC   C1B11875  10.602  39.490   8.550
 5090POPC   C2B11876  10.611  39.460   8.250
 5090POPC   C3B11877  10.580  39.499   7.950
 5090POPC   C4B11878  10.582  39.448   7.650
 5091POPC   NC311879  26.015   1.240   9.450
 5091POPC   PO411880  25.998   1.258   9.150
 5091POPC   GL111881  26.078   1.212   8.850
 5091POPC   GL211882  26.116   1.123   8.850
 5091POPC   C1A11883  25.992   1.204   8.550
 5091POPC   D2A11884  25.996   1.221   8.250
 5091POPC   C3A11885  26.019   1.263   7.950
 5091POPC   C4A11886  26.060   1.207   7.650
 5091POPC   C1B11887  26.199   1.044   8.550
 5091POPC   C2B11888  26.129   1.023   8.250
 5091POPC   C3B11889  26.113   1.025   7.950
 5091POPC   C4B11890  26.116   1.032   7.650
 5092POPC   NC311891  23.731  36.888   9.450
 5092POPC   PO411892  23.749  36.943   9.150
 5092POPC   GL111893  23.672  36.862   8.850
 5092POPC   GL211894  23.555  36.886   8.850
 5092POPC   C1A11895  23.711  36.858   8.550
 5092POPC   D2A11896  23.666  36.928   8.250
 5092POPC   C3A11897  23.746  36.882   7.950
 5092POPC   C4A11898  23.679  36.882   7.650
 5092POPC   C1B11899  23.513  36.869   8.550
 5092POPC   C2B11900  23.503  36.960   8.250
 5092POPC   C3B11901  23.512  36.920   7.950
 5092POPC   C4B11902  23.495  36.962   7.650
 5093POPC   NC311903   7.461  42.357   9.450
 5093POPC   PO411904   7.385  42.331   9.150
 5093POPC   GL111905   7.388  42.291   8.850
 5093POPC   GL211906   7.551  42.252   8.850
 5093POPC   C1A11907   7.470  42.369   8.550
 5093POPC   D2A11908   7.438  42.321   8.250
 5093POPC   C3A11909   7.461  42.301   7.950
 5093POPC   C4A11910   7.425  42.304   7.650
 5093POPC   C1B11911   7.623  42.224   8.550
 5093POPC   C2B11912   7.668  42.179   8.250
 5093POPC   C3B11913   7.691  42.255   7.950
 5093POPC   C4B11914   7.609  42.255   7.650
 5094POPC   NC311915  16.749   3.520   9.450
 5094POPC   PO411916  16.742   3.528   9.150
 5094POPC   GL111917  16.697   3.571   8.850
 5094POPC   GL211918  16.598   3.538   8.850
 5094POPC   C1A11919  16.718   3.567   8.550
 5094POPC   D2A11920  16.723   3.500   8.250
 5094POPC   C3A11921  16.771   3.523   7.950
 5094POPC   C4A11922  16.765   3.582   7.650
 5094POPC   C1B11923  16.470   3.627   8.550
 5094POPC   C2B11924  16.495   3.637   8.250
 5094POPC   C3B11925  16.472   3.556   7.950
 5094POPC   C4B11926  16.518   3.629   7.650
 5095POPC   NC311927  20.593  20.599   9.450
 5095POPC   PO411928  20.580  20.657   9.150
 5095POPC   GL111929  20.600  20.567   8.850
 5095POPC   GL211930  20.459  20.554   8.850
 5095POPC   C1A11931  20.605  20.583   8.550
 5095POPC   D2A11932  20.563  20.621   8.250
 5095POPC   C3A11933  20.582  20.576   7.950
 5095POPC   C4A11934  20.582  20.609   7.650
 5095POPC   C1B11935  20.360  20.600   8.550
 5095POPC   C2B11936  20.346  20.586   8.250
 5095POPC   C3B11937  20.402  20.580   7.950
 5095POPC   C4B11938  20.394  20.555   7.650
 5096POPC   NC311939  10.487  33.815   9.450
 5096POPC   PO411940  10.509  33.802   9.150
 5096POPC   GL111941  10.494  33.769   8.850
 5096POPC   GL211942  10.675  33.759   8.850
 5096POPC   C1A11943  10.497  33.812   8.550
 5096POPC   D2A11944  10.526  33.761   8.250
 5096POPC   C3A11945  10.529  33.803   7.950
 5096POPC   C4A11946  10.564  33.786   7.650
 5096POPC   C1B11947  10.789  33.679   8.550
 5096POPC   C2B11948  10.761  33.659   8.250
 5096POPC   C3B11949  10.716  33.684   7.950
 5096POPC   C4B11950  10.706  33.706   7.650
 5097POPC   NC311951   9.750  33.772   9.450
 5097POPC   PO411952   9.718  33.768   9.150
 5097POPC   GL111953   9.747  33.754   8.850
 5097POPC   GL211954   9.653  33.871   8.850
 5097POPC   C1A11955   9.794  33.793   8.550
 5097POPC   D2A11956   9.714  33.842   8.250
 5097POPC   C3A11957   9.733  33.823   7.950
 5097POPC   C4A11958   9.723  33.786   7.650
 5097POPC   C1B11959   9.490  33.959   8.550
 5097POPC   C2B11960   9.492  33.938   8.250
 5097POPC   C3B11961   9.526  33.892   7.950
 5097POPC   C4B11962   9.558  33.926   7.650
 5098POPC   NC311963   5.864  21.417   9.450
 5098POPC   PO411964   5.868  21.403   9.150
 5098POPC   GL111965   5.830  21.375   8.850
 5098POPC   GL211966   6.010  21.317   8.850
 5098POPC   C1A11967   5.908  21.408   8.550
 5098POPC   D2A11968   5.845  21.348   8.250
 5098POPC   C3A11969   5.837  21.413   7.950
 5098POPC   C4A11970   5.846  21.356   7.650
 5098POPC   C1B11971   6.061  21.310   8.550
 5098POPC   C2B11972   6.128  21.331   8.250
 5098POPC   C3B11973   6.116  21.290   7.950
 5098POPC   C4B11974   6.131  21.298   7.650
 5099POPC   NC311975  11.274  19.880   9.450
 5099POPC   PO411976  11.320  19.794   9.150
 5099POPC   GL111977  11.320  19.797   8.850
 5099POPC   GL211978  11.202  19.913   8.850
 5099POPC   C1A11979  11.350  19.861   8.550
 5099POPC   D2A11980  11.261  19.793   8.250
 5099POPC   C3A11981  11.291  19.791   7.950
 5099POPC   C4A11982  11.262  19.867   7.650
 5099POPC   C1B11983  11.163  19.978   8.550
 5099POPC   C2B11984  11.116  20.030   8.250
 5099POPC   C3B11985  11.121  19.989   7.950
 5099POPC   C4B11986  11.088  20.055   7.650
 5100POPC   NC311987  43.067  36.860   9.450
 5100POPC   PO411988  43.065  36.878   9.150
 5100POPC   GL111989  43.089  36.895   8.850
 5100POPC   GL211990  43.078  36.986   8.850
 5100POPC   C1A11991  43.160  36.943   8.550
 5100POPC   D2A11992  43.108  36.913   8.250
 5100POPC   C3A11993  43.144  36.921   7.950
 5100POPC   C4A11994  43.129  36.910   7.650
 5100POPC   C1B11995  43.053  37.134   8.550
 5100POPC   C2B11996  43.019  37.115   8.250
 5100POPC   C3B11997  43.029  37.121   7.950
 5100POPC   C4B11998  43.003  37.109   7.650
 5101POPC   NC311999   9.762   1.968   9.450
 5101POPC   PO412000   9.743   1.942   9.150
 5101POPC   GL112001   9.723   1.977   8.850
 5101POPC   GL212002   9.823   1.959   8.850
 5101POPC   C1A12003   9.709   1.964   8.550
 5101POPC   D2A12004   9.770   1.967   8.250
 5101POPC   C3A12005   9.714   1.949   7.950
 5101POPC   C4A12006   9.715   2.011   7.650
 5101POPC   C1B12007  10.031   1.950   8.550
 5101POPC   C2B12008  10.027   1.964   8.250
 5101POPC   C3B12009   9.968   1.949   7.950
 5101POPC   C4B12010   9.965   1.947   7.650
 5102POPC   NC312011  15.199  12.822   9.450
 5102POPC   PO412012  15.180  12.890   9.150
 5102POPC   GL112013  15.192  12.862   8.850
 5102POPC   GL212014  15.095  13.002   8.850
 5102POPC   C1A12015  15.179  12.852   8.550
 5102POPC   D2A12016  15.174  12.853   8.250
 5102POPC   C3A12017  15.188  12.901   7.950
 5102POPC   C4A12018  15.180  12.895   7.650
 5102POPC   C1B12019  15.112  13.094   8.550
 5102POPC   C2B12020  15.063  13.105   8.250
 5102POPC   C3B12021  15.066  13.095   7.950
 5102POPC   C4B12022  15.120  13.047   7.650
 5103POPC   NC312023   7.460  33.797   9.450
 5103POPC   PO412024   7.383  33.755   9.150
 5103POPC   GL112025   7.428  33.751   8.850
 5103POPC   GL212026   7.487  33.694   8.850
 5103POPC   C1A12027   7.382  33.814   8.550
 5103POPC   D2A12028   7.465  33.756   8.250
 5103POPC   C3A12029   7.418  33.753   7.950
 5103POPC   C4A12030   7.464  33.827   7.650
 5103POPC   C1B12031   7.531  33.608   8.550
 5103POPC   C2B12032   7.534  33.656   8.250
 5103POPC   C3B12033   7.599  33.563   7.950
 5103POPC   C4B12034   7.609  33.640   7.650
 5104POPC   NC312035  13.620  30.678   9.450
 5104POPC   PO412036  13.628  30.690   9.150
 5104POPC   GL112037  13.582  30.649   8.850
 5104POPC   GL212038  13.519  30.776   8.850
 5104POPC   C1A12039  13.612  30.702   8.550
 5104POPC   D2A12040  13.632  30.648   8.250
 5104POPC   C3A12041  13.658  30.669   7.950
 5104POPC   C4A12042  13.637  30.702   7.650
 5104POPC   C1B12043  13.452  30.850   8.550
 5104POPC   C2B12044  13.387  30.781   8.250
 5104POPC   C3B12045  13.446  30.834   7.950
 5104POPC   C4B12046  13.426  30.824   7.650
 5105POPC   NC312047  35.353  21.369   9.450
 5105POPC   PO412048  35.370  21.366   9.150
 5105POPC   GL112049  35.394  21.346   8.850
 5105POPC   GL212050  35.285  21.512   8.850
 5105POPC   C1A12051  35.391  21.382   8.550
 5105POPC   D2A12052  35.369  21.405   8.250
 5105POPC   C3A12053  35.340  21.342   7.950
 5105POPC   C4A12054  35.383  21.403   7.650
 5105POPC   C1B12055  35.138  21.582   8.550
 5105POPC   C2B12056  35.165  21.587   8.250
 5105POPC   C3B12057  35.139  21.519   7.950
 5105POPC   C4B12058  35.165  21.564   7.650
 5106POPC   NC312059  13.640  10.539   9.450
 5106POPC   PO412060  13.662  10.552   9.150
 5106POPC   GL112061  13.580  10.478   8.850
 5106POPC   GL212062  13.590  10.391   8.850
 5106POPC   C1A12063  13.600  10.502   8.550
 5106POPC   D2A12064  13.626  10.518   8.250
 5106POPC   C3A12065  13.583  10.538   7.950
 5106POPC   C4A12066  13.614  10.511   7.650
 5106POPC   C1B12067  13.594  10.264   8.550
 5106POPC   C2B12068  13.573  10.303   8.250
 5106POPC   C3B12069  13.594  10.320   7.950
 5106POPC   C4B12070  13.554  10.265   7.650
 5107POPC   NC312071  24.534   5.916   9.450
 5107POPC   PO412072  24.536   5.915   9.150
 5107POPC   GL112073  24.514   5.832   8.850
 5107POPC   GL212074  24.637   5.863   8.850
 5107POPC   C1A12075  24.470   5.866   8.550
 5107POPC   D2A12076  24.474   5.824   8.250
 5107POPC   C3A12077  24.508   5.869   7.950
 5107POPC   C4A12078  24.448   5.866   7.650
 5107POPC   C1B12079  24.688   5.879   8.550
 5107POPC   C2B12080  24.764   5.888   8.250
 5107POPC   C3B12081  24.688   5.870   7.950
 5107POPC   C4B12082  24.748   5.929   7.650
 5108POPC   NC312083  21.364  42.363   9.450
 5108POPC   PO412084  21.429  42.294   9.150
 5108POPC   GL112085  21.394  42.333   8.850
 5108POPC   GL212086  21.396  42.418   8.850
 5108POPC   C1A12087  21.396  42.341   8.550
 5108POPC   D2A12088  21.421  42.368   8.250
 5108POPC   C3A12089  21.405  42.305   7.950
 5108POPC   C4A12090  21.414  42.358   7.650
 5108POPC   C1B12091  21.305  42.584   8.550
 5108POPC   C2B12092  21.326  42.558   8.250
 5108POPC   C3B12093  21.286  42.607   7.950
 5108POPC   C4B12094  21.291  42.587   7.650
 5109POPC   NC312095   0.463  22.986   9.450
 5109POPC   PO412096   0.459  22.929   9.150
 5109POPC   GL112097   0.487  22.891   8.850
 5109POPC   GL212098   0.432  23.092   8.850
 5109POPC   C1A12099   0.442  22.981   8.550
 5109POPC   D2A12100   0.446  22.952   8.250
 5109POPC   C3A12101   0.400  22.975   7.950
 5109POPC   C4A12102   0.483  22.953   7.650
 5109POPC   C1B12103   0.375  23.180   8.550
 5109POPC   C2B12104   0.340  23.133   8.250
 5109POPC   C3B12105   0.395  23.208   7.950
 5109POPC   C4B12106   0.328  23.212   7.650
 5110POPC   NC312107  15.931  43.139   9.450
 5110POPC   PO412108  15.974  43.072   9.150
 5110POPC   GL112109  15.927  43.148   8.850
 5110POPC   GL212110  15.990  43.022   8.850
 5110POPC   C1A12111  15.954  43.069   8.550
 5110POPC   D2A12112  15.946  43.098   8.250
 5110POPC   C3A12113  15.992  43.158   7.950
 5110POPC   C4A12114  15.932  43.117   7.650
 5110POPC   C1B12115  16.058  42.866   8.550
 5110POPC   C2B12116  16.080  42.891   8.250
 5110POPC   C3B12117  16.010  42.832   7.950
 5110POPC   C4B12118  16.060  42.869   7.650
 5111POPC   NC312119  17.497  13.669   9.450
 5111POPC   PO412120  17.531  13.671   9.150
 5111POPC   GL112121  17.539  13.599   8.850
 5111POPC   GL212122  17.429  13.643   8.850
 5111POPC   C1A12123  17.464  13.645   8.550
 5111POPC   D2A12124  17.499  13.631   8.250
 5111POPC   C3A12125  17.503  13.674   7.950
 5111POPC   C4A12126  17.461  13.612   7.650
 5111POPC   C1B12127  17.295  13.727   8.550
 5111POPC   C2B12128  17.314  13.775   8.250
 5111POPC   C3B12129  17.252  13.722   7.950
 5111POPC   C4B12130  17.304  13.739   7.650
 5112POPC   NC312131  36.168  30.743   9.450
 5112POPC   PO412132  36.094  30.672   9.150
 5112POPC   GL112133  36.177  30.696   8.850
 5112POPC   GL212134  36.197  30.717   8.850
 5112POPC   C1A12135  36.137  30.745   8.550
 5112POPC   D2A12136  36.124  30.729   8.250
 5112POPC   C3A12137  36.105  30.698   7.950
 5112POPC   C4A12138  36.100  30.686   7.650
 5112POPC   C1B12139  36.347  30.796   8.550
 5112POPC   C2B12140  36.317  30.761   8.250
 5112POPC   C3B12141  36.394  30.815   7.950
 5112POPC   C4B12142  36.370  30.789   7.650
 5113POPC   NC312143   8.972  22.114   9.450
 5113POPC   PO412144   8.989  22.192   9.150
 5113POPC   GL112145   9.019  22.163   8.850
 5113POPC   GL212146   9.057  22.105   8.850
 5113POPC   C1A12147   9.004  22.115   8.550
 5113POPC   D2A12148   9.010  22.170   8.250
 5113POPC   C3A12149   9.006  22.135   7.950
 5113POPC   C4A12150   8.933  22.175   7.650
 5113POPC   C1B12151   9.251  22.119   8.550
 5113POPC   C2B12152   9.237  22.165   8.250
 5113POPC   C3B12153   9.227  22.100   7.950
 5113POPC   C4B12154   9.203  22.182   7.650
 5114POPC   NC312155  14.438  20.642   9.450
 5114POPC   PO412156  14.397  20.648   9.150
 5114POPC   GL112157  14.428  20.621   8.850
 5114POPC   GL212158  14.559  20.582   8.850
 5114POPC   C1A12159  14.434  20.621   8.550
 5114POPC   D2A12160  14.385  20.565   8.250
 5114POPC   C3A12161  14.357  20.654   7.950
 5114POPC   C4A12162  14.384  20.640   7.650
 5114POPC   C1B12163  14.674  20.553   8.550
 5114POPC   C2B12164  14.636  20.535   8.250
 5114POPC   C3B12165  14.624  20.554   7.950
 5114POPC   C4B12166  14.642  20.484   7.650
 5115POPC   NC312167  19.037  17.485   9.450
 5115POPC   PO412168  19.029  17.528   9.150
 5115POPC   GL112169  19.059  17.477   8.850
 5115POPC   GL212170  18.901  17.552   8.850
 5115POPC   C1A12171  19.011  17.479   8.550
 5115POPC   D2A12172  19.042  17.523   8.250
 5115POPC   C3A12173  19.012  17.476   7.950
 5115POPC   C4A12174  19.046  17.513   7.650
 5115POPC   C1B12175  18.872  17.627   8.550
 5115POPC   C2B12176  18.811  17.604   8.250
 5115POPC   C3B12177  18.826  17.629   7.950
 5115POPC   C4B12178  18.804  17.604   7.650
 5116POPC   NC312179  20.603  28.389   9.450
 5116POPC   PO412180  20.568  28.333   9.150
 5116POPC   GL112181  20.624  28.342   8.850
 5116POPC   GL212182  20.690  28.472   8.850
 5116POPC   C1A12183  20.660  28.337   8.550
 5116POPC   D2A12184  20.565  28.329   8.250
 5116POPC   C3A12185  20.652  28.401   7.950
 5116POPC   C4A12186  20.572  28.373   7.650
 5116POPC   C1B12187  20.702  28.579   8.550
 5116POPC   C2B12188  20.668  28.612   8.250
 5116POPC   C3B12189  20.658  28.644   7.950
 5116POPC   C4B12190  20.655  28.634   7.650
 5117POPC   NC312191  27.602  22.163   9.450
 5117POPC   PO412192  27.596  22.187   9.150
 5117POPC   GL112193  27.587  22.206   8.850
 5117POPC   GL212194  27.617  22.060   8.850
 5117POPC   C1A12195  27.622  22.205   8.550
 5117POPC   D2A12196  27.602  22.211   8.250
 5117POPC   C3A12197  27.549  22.206   7.950
 5117POPC   C4A12198  27.552  22.210   7.650
 5117POPC   C1B12199  27.538  21.896   8.550
 5117POPC   C2B12200  27.502  21.914   8.250
 5117POPC   C3B12201  27.547  21.918   7.950
 5117POPC   C4B12202  27.523  21.934   7.650
 5118POPC   NC312203  32.278  12.053   9.450
 5118POPC   PO412204  32.287  12.058   9.150
 5118POPC   GL112205  32.238  12.077   8.850
 5118POPC   GL212206  32.404  12.006   8.850
 5118POPC   C1A12207  32.238  12.072   8.550
 5118POPC   D2A12208  32.296  12.105   8.250
 5118POPC   C3A12209  32.247  12.096   7.950
 5118POPC   C4A12210  32.286  12.102   7.650
 5118POPC   C1B12211  32.512  11.984   8.550
 5118POPC   C2B12212  32.486  12.031   8.250
 5118POPC   C3B12213  32.517  11.978   7.950
 5118POPC   C4B12214  32.454  12.033   7.650
 5119POPC   NC312215  12.812  12.079   9.450
 5119POPC   PO412216  12.820  12.114   9.150
 5119POPC   GL112217  12.839  12.064   8.850
 5119POPC   GL212218  12.733  11.973   8.850
 5119POPC   C1A12219  12.809  12.062   8.550
 5119POPC   D2A12220  12.836  12.072   8.250
 5119POPC   C3A12221  12.890  12.071   7.950
 5119POPC   C4A12222  12.893  12.122   7.650
 5119POPC   C1B12223  12.634  11.887   8.550
 5119POPC   C2B12224  12.642  11.875   8.250
 5119POPC   C3B12225  12.697  11.943   7.950
 5119POPC   C4B12226  12.723  11.929   7.650
 5120POPC   NC312227   2.009  11.251   9.450
 5120POPC   PO412228   2.020  11.255   9.150
 5120POPC   GL112229   1.983  11.311   8.850
 5120POPC   GL212230   2.095  11.287   8.850
 5120POPC   C1A12231   2.014  11.327   8.550
 5120POPC   D2A12232   2.024  11.274   8.250
 5120POPC   C3A12233   1.971  11.275   7.950
 5120POPC   C4A12234   1.968  11.264   7.650
 5120POPC   C1B12235   2.221  11.223   8.550
 5120POPC   C2B12236   2.246  11.258   8.250
 5120POPC   C3B12237   2.222  11.217   7.950
 5120POPC   C4B12238   2.209  11.212   7.650
 5121POPC   NC312239  22.972  12.074   9.450
 5121POPC   PO412240  22.946  12.079   9.150
 5121POPC   GL112241  22.935  12.027   8.850
 5121POPC   GL212242  22.854  12.156   8.850
 5121POPC   C1A12243  22.975  12.094   8.550
 5121POPC   D2A12244  22.929  12.119   8.250
 5121POPC   C3A12245  22.895  12.060   7.950
 5121POPC   C4A12246  22.916  12.071   7.650
 5121POPC   C1B12247  22.716  12.199   8.550
 5121POPC   C2B12248  22.750  12.188   8.250
 5121POPC   C3B12249  22.768  12.194   7.950
 5121POPC   C4B12250  22.693  12.180   7.650
 5122POPC   NC312251  18.275  15.199   9.450
 5122POPC   PO412252  18.298  15.156   9.150
 5122POPC   GL112253  18.312  15.175   8.850
 5122POPC   GL212254  18.191  15.251   8.850
 5122POPC   C1A12255  18.250  15.180   8.550
 5122POPC   D2A12256  18.254  15.213   8.250
 5122POPC   C3A12257  18.243  15.165   7.950
 5122POPC   C4A12258  18.295  15.174   7.650
 5122POPC   C1B12259  18.134  15.374   8.550
 5122POPC   C2B12260  18.133  15.399   8.250
 5122POPC   C3B12261  18.142  15.315   7.950
 5122POPC   C4B12262  18.159  15.315   7.650
 5123POPC   NC312263  19.819  40.736   9.450
 5123POPC   PO412264  19.803  40.766   9.150
 5123POPC   GL112265  19.803  40.826   8.850
 5123POPC   GL212266  19.710  40.858   8.850
 5123POPC   C1A12267  19.820  40.735   8.550
 5123POPC   D2A12268  19.815  40.829   8.250
 5123POPC   C3A12269  19.789  40.765   7.950
 5123POPC   C4A12270  19.823  40.752   7.650
 5123POPC   C1B12271  19.569  40.847   8.550
 5123POPC   C2B12272  19.643  40.854   8.250
 5123POPC   C3B12273  19.592  40.827   7.950
 5123POPC   C4B12274  19.634  40.849   7.650
 5124POPC   NC312275   9.723   8.163   9.450
 5124POPC   PO412276   9.755   8.242   9.150
 5124POPC   GL112277   9.708   8.176   8.850
 5124POPC   GL212278   9.839   8.266   8.850
 5124POPC   C1A12279   9.735   8.154   8.550
 5124POPC   D2A12280   9.780   8.246   8.250
 5124POPC   C3A12281   9.775   8.174   7.950
 5124POPC   C4A12282   9.707   8.227   7.650
 5124POPC   C1B12283   9.931   8.290   8.550
 5124POPC   C2B12284   9.976   8.306   8.250
 5124POPC   C3B12285   9.972   8.322   7.950
 5124POPC   C4B12286   9.943   8.339   7.650
 5125POPC   NC312287  27.575  32.289   9.450
 5125POPC   PO412288  27.581  32.298   9.150
 5125POPC   GL112289  27.552  32.288   8.850
 5125POPC   GL212290  27.581  32.399   8.850
 5125POPC   C1A12291  27.582  32.278   8.550
 5125POPC   D2A12292  27.625  32.262   8.250
 5125POPC   C3A12293  27.553  32.256   7.950
 5125POPC   C4A12294  27.595  32.285   7.650
 5125POPC   C1B12295  27.599  32.522   8.550
 5125POPC   C2B12296  27.634  32.520   8.250
 5125POPC   C3B12297  27.609  32.469   7.950
 5125POPC   C4B12298  27.609  32.493   7.650
 5126POPC   NC312299  31.510  43.866   9.450
 5126POPC   PO412300  31.512  43.863   9.150
 5126POPC   GL112301  31.477  43.932   8.850
 5126POPC   GL212302  31.310  43.949   8.850
 5126POPC   C1A12303  31.480  43.920   8.550
 5126POPC   D2A12304  31.447  43.895   8.250
 5126POPC   C3A12305  31.447  43.909   7.950
 5126POPC   C4A12306  31.471  43.898   7.650
 5126POPC   C1B12307  31.271  44.018   8.550
 5126POPC   C2B12308  31.215  44.012   8.250
 5126POPC   C3B12309  31.255  43.988   7.950
 5126POPC   C4B12310  31.280  43.942   7.650
 5127POPC   NC312311   8.184  40.745   9.450
 5127POPC   PO412312   8.189  40.781   9.150
 5127POPC   GL112313   8.178  40.787   8.850
 5127POPC   GL212314   8.236  40.914   8.850
 5127POPC   C1A12315   8.213  40.738   8.550
 5127POPC   D2A12316   8.157  40.810   8.250
 5127POPC   C3A12317   8.242  40.763   7.950
 5127POPC   C4A12318   8.213  40.806   7.650
 5127POPC   C1B12319   8.323  40.982   8.550
 5127POPC   C2B12320   8.326  40.974   8.250
 5127POPC   C3B12321   8.255  40.988   7.950
 5127POPC   C4B12322   8.346  41.006   7.650
 5128POPC   NC312323  29.904  19.883   9.450
 5128POPC   PO412324  29.946  19.827   9.150
 5128POPC   GL112325  29.892  19.820   8.850
 5128POPC   GL212326  29.826  19.746   8.850
 5128POPC   C1A12327  29.962  19.860   8.550
 5128POPC   D2A12328  29.889  19.869   8.250
 5128POPC   C3A12329  29.897  19.870   7.950
 5128POPC   C4A12330  29.931  19.872   7.650
 5128POPC   C1B12331  29.681  19.700   8.550
 5128POPC   C2B12332  29.646  19.764   8.250
 5128POPC   C3B12333  29.686  19.747   7.950
 5128POPC   C4B12334  29.658  19.767   7.650
 5129POPC   NC312335   0.414  44.701   9.450
 5129POPC   PO412336   0.415  44.639   9.150
 5129POPC   GL112337   0.439  44.633   8.850
 5129POPC   GL212338   0.320  44.680   8.850
 5129POPC   C1A12339   0.449  44.677   8.550
 5129POPC   D2A12340   0.449  44.665   8.250
 5129POPC   C3A12341   0.434  44.673   7.950
 5129POPC   C4A12342   0.436  44.692   7.650
 5129POPC   C1B12343   0.157  44.723   8.550
 5129POPC   C2B12344   0.210  44.672   8.250
 5129POPC   C3B12345   0.182  44.738   7.950
 5129POPC   C4B12346   0.144  44.687   7.650
 5130POPC   NC312347  30.725   0.458   9.450
 5130POPC   PO412348  30.722   0.418   9.150
 5130POPC   GL112349  30.674   0.470   8.850
 5130POPC   GL212350  30.605   0.418   8.850
 5130POPC   C1A12351  30.702   0.393   8.550
 5130POPC   D2A12352  30.659   0.487   8.250
 5130POPC   C3A12353  30.685   0.454   7.950
 5130POPC   C4A12354  30.712   0.393   7.650
 5130POPC   C1B12355  30.426   0.359   8.550
 5130POPC   C2B12356  30.439   0.380   8.250
 5130POPC   C3B12357  30.466   0.347   7.950
 5130POPC   C4B12358  30.415   0.393   7.650
 5131POPC   NC312359  25.231   1.971   9.450
 5131POPC   PO412360  25.253   2.016   9.150
 5131POPC   GL112361  25.283   2.019   8.850
 5131POPC   GL212362  25.311   2.078   8.850
 5131POPC   C1A12363  25.285   2.020   8.550
 5131POPC   D2A12364  25.267   1.997   8.250
 5131POPC   C3A12365  25.276   1.965   7.950
 5131POPC   C4A12366  25.285   2.003   7.650
 5131POPC   C1B12367  25.293   2.278   8.550
 5131POPC   C2B12368  25.243   2.229   8.250
 5131POPC   C3B12369  25.275   2.265   7.950
 5131POPC   C4B12370  25.245   2.211   7.650
 5132POPC   NC312371  12.098  39.999   9.450
 5132POPC   PO412372  12.038  40.006   9.150
 5132POPC   GL112373  12.034  40.045   8.850
 5132POPC   GL212374  12.189  40.021   8.850
 5132POPC   C1A12375  12.095  40.046   8.550
 5132POPC   D2A12376  12.088  40.031   8.250
 5132POPC   C3A12377  12.027  40.028   7.950
 5132POPC   C4A12378  12.111  40.055   7.650
 5132POPC   C1B12379  12.315  39.959   8.550
 5132POPC   C2B12380  12.281  39.961   8.250
 5132POPC   C3B12381  12.291  39.924   7.950
 5132POPC   C4B12382  12.311  39.971   7.650
 5133POPC   NC312383   3.501  11.279   9.450
 5133POPC   PO412384   3.504  11.288   9.150
 5133POPC   GL112385   3.544  11.314   8.850
 5133POPC   GL212386   3.604  11.430   8.850
 5133POPC   C1A12387   3.561  11.279   8.550
 5133POPC   D2A12388   3.542  11.268   8.250
 5133POPC   C3A12389   3.523  11.342   7.950
 5133POPC   C4A12390   3.506  11.290   7.650
 5133POPC   C1B12391   3.619  11.489   8.550
 5133POPC   C2B12392   3.643  11.553   8.250
 5133POPC   C3B12393   3.611  11.587   7.950
 5133POPC   C4B12394   3.647  11.584   7.650
 5134POPC   NC312395  34.626  31.425   9.450
 5134POPC   PO412396  34.588  31.516   9.150
 5134POPC   GL112397  34.619  31.437   8.850
 5134POPC   GL212398  34.422  31.536   8.850
 5134POPC   C1A12399  34.539  31.492   8.550
 5134POPC   D2A12400  34.596  31.503   8.250
 5134POPC   C3A12401  34.548  31.459   7.950
 5134POPC   C4A12402  34.602  31.426   7.650
 5134POPC   C1B12403  34.382  31.608   8.550
 5134POPC   C2B12404  34.383  31.561   8.250
 5134POPC   C3B12405  34.364  31.577   7.950
 5134POPC   C4B12406  34.301  31.576   7.650
 5135POPC   NC312407  24.488  15.188   9.450
 5135POPC   PO412408  24.450  15.185   9.150
 5135POPC   GL112409  24.446  15.189   8.850
 5135POPC   GL212410  24.444  15.278   8.850
 5135POPC   C1A12411  24.521  15.162   8.550
 5135POPC   D2A12412  24.471  15.171   8.250
 5135POPC   C3A12413  24.480  15.169   7.950
 5135POPC   C4A12414  24.528  15.211   7.650
 5135POPC   C1B12415  24.364  15.395   8.550
 5135POPC   C2B12416  24.352  15.413   8.250
 5135POPC   C3B12417  24.303  15.333   7.950
 5135POPC   C4B12418  24.301  15.323   7.650
 5136POPC   NC312419   0.429  29.961   9.450
 5136POPC   PO412420   0.430  29.899   9.150
 5136POPC   GL112421   0.423  29.881   8.850
 5136POPC   GL212422   0.553  30.042   8.850
 5136POPC   C1A12423   0.427  29.934   8.550
 5136POPC   D2A12424   0.440  29.883   8.250
 5136POPC   C3A12425   0.477  29.937   7.950
 5136POPC   C4A12426   0.420  29.931   7.650
 5136POPC   C1B12427   0.620  30.113   8.550
 5136POPC   C2B12428   0.590  30.101   8.250
 5136POPC   C3B12429   0.669  30.085   7.950
 5136POPC   C4B12430   0.632  30.046   7.650
 5137POPC   NC312431  39.275  30.723   9.450
 5137POPC   PO412432  39.227  30.682   9.150
 5137POPC   GL112433  39.187  30.653   8.850
 5137POPC   GL212434  39.104  30.790   8.850
 5137POPC   C1A12435  39.201  30.663   8.550
 5137POPC   D2A12436  39.215  30.710   8.250
 5137POPC   C3A12437  39.235  30.724   7.950
 5137POPC   C4A12438  39.257  30.736   7.650
 5137POPC   C1B12439  39.007  30.879   8.550
 5137POPC   C2B12440  39.077  30.859   8.250
 5137POPC   C3B12441  39.048  30.869   7.950
 5137POPC   C4B12442  39.007  30.839   7.650
 5138POPC   NC312443  18.329  43.080   9.450
 5138POPC   PO412444  18.296  43.132   9.150
 5138POPC   GL112445  18.279  43.157   8.850
 5138POPC   GL212446  18.191  43.104   8.850
 5138POPC   C1A12447  18.262  43.102   8.550
 5138POPC   D2A12448  18.251  43.095   8.250
 5138POPC   C3A12449  18.263  43.105   7.950
 5138POPC   C4A12450  18.284  43.072   7.650
 5138POPC   C1B12451  18.036  43.130   8.550
 5138POPC   C2B12452  18.033  43.194   8.250
 5138POPC   C3B12453  18.075  43.186   7.950
 5138POPC   C4B12454  17.986  43.137   7.650
 5139POPC   NC312455   2.806  38.439   9.450
 5139POPC   PO412456   2.720  38.483   9.150
 5139POPC   GL112457   2.745  38.504   8.850
 5139POPC   GL212458   2.754  38.375   8.850
 5139POPC   C1A12459   2.780  38.483   8.550
 5139POPC   D2A12460   2.773  38.444   8.250
 5139POPC   C3A12461   2.795  38.456   7.950
 5139POPC   C4A12462   2.793  38.432   7.650
 5139POPC   C1B12463   2.770  38.206   8.550
 5139POPC   C2B12464   2.725  38.190   8.250
 5139POPC   C3B12465   2.711  38.228   7.950
 5139POPC   C4B12466   2.771  38.243   7.650
 5140POPC   NC312467   7.467   4.291   9.450
 5140POPC   PO412468   7.425   4.345   9.150
 5140POPC   GL112469   7.412   4.282   8.850
 5140POPC   GL212470   7.507   4.461   8.850
 5140POPC   C1A12471   7.461   4.296   8.550
 5140POPC   D2A12472   7.391   4.272   8.250
 5140POPC   C3A12473   7.466   4.355   7.950
 5140POPC   C4A12474   7.420   4.306   7.650
 5140POPC   C1B12475   7.567   4.578   8.550
 5140POPC   C2B12476   7.527   4.566   8.250
 5140POPC   C3B12477   7.588   4.558   7.950
 5140POPC   C4B12478   7.571   4.520   7.650
 5141POPC   NC312479  10.568  25.287   9.450
 5141POPC   PO412480  10.476  25.293   9.150
 5141POPC   GL112481  10.520  25.242   8.850
 5141POPC   GL212482  10.554  25.370   8.850
 5141POPC   C1A12483  10.532  25.216   8.550
 5141POPC   D2A12484  10.533  25.314   8.250
 5141POPC   C3A12485  10.565  25.272   7.950
 5141POPC   C4A12486  10.573  25.219   7.650
 5141POPC   C1B12487  10.617  25.477   8.550
 5141POPC   C2B12488  10.609  25.547   8.250
 5141POPC   C3B12489  10.569  25.550   7.950
 5141POPC   C4B12490  10.542  25.514   7.650
 5142POPC   NC312491  43.069  22.960   9.450
 5142POPC   PO412492  43.123  22.961   9.150
 5142POPC   GL112493  43.160  22.940   8.850
 5142POPC   GL212494  43.154  23.070   8.850
 5142POPC   C1A12495  43.096  22.964   8.550
 5142POPC   D2A12496  43.118  22.979   8.250
 5142POPC   C3A12497  43.103  22.938   7.950
 5142POPC   C4A12498  43.094  22.930   7.650
 5142POPC   C1B12499  43.245  23.098   8.550
 5142POPC   C2B12500  43.322  23.158   8.250
 5142POPC   C3B12501  43.289  23.130   7.950
 5142POPC   C4B12502  43.262  23.140   7.650
 5143POPC   NC312503   8.983   5.061   9.450
 5143POPC   PO412504   8.960   5.141   9.150
 5143POPC   GL112505   8.931   5.127   8.850
 5143POPC   GL212506   8.969   5.220   8.850
 5143POPC   C1A12507   9.016   5.140   8.550
 5143POPC   D2A12508   8.939   5.114   8.250
 5143POPC   C3A12509   8.936   5.130   7.950
 5143POPC   C4A12510   8.997   5.114   7.650
 5143POPC   C1B12511   9.063   5.362   8.550
 5143POPC   C2B12512   9.079   5.302   8.250
 5143POPC   C3B12513   9.034   5.354   7.950
 5143POPC   C4B12514   9.035   5.339   7.650
 5144POPC   NC312515  19.021  36.870   9.450
 5144POPC   PO412516  19.086  36.940   9.150
 5144POPC   GL112517  19.038  36.924   8.850
 5144POPC   GL212518  19.025  37.047   8.850
 5144POPC   C1A12519  19.094  36.904   8.550
 5144POPC   D2A12520  19.059  36.910   8.250
 5144POPC   C3A12521  19.038  36.922   7.950
 5144POPC   C4A12522  19.098  36.930   7.650
 5144POPC   C1B12523  19.059  37.106   8.550
 5144POPC   C2B12524  19.030  37.124   8.250
 5144POPC   C3B12525  19.088  37.148   7.950
 5144POPC   C4B12526  19.025  37.189   7.650
 5145POPC   NC312527  21.431  20.659   9.450
 5145POPC   PO412528  21.407  20.615   9.150
 5145POPC   GL112529  21.400  20.630   8.850
 5145POPC   GL212530  21.368  20.451   8.850
 5145POPC   C1A12531  21.348  20.645   8.550
 5145POPC   D2A12532  21.350  20.580   8.250
 5145POPC   C3A12533  21.379  20.654   7.950
 5145POPC   C4A12534  21.432  20.574   7.650
 5145POPC   C1B12535  21.403  20.338   8.550
 5145POPC   C2B12536  21.361  20.368   8.250
 5145POPC   C3B12537  21.395  20.401   7.950
 5145POPC   C4B12538  21.403  20.355   7.650
 5146POPC   NC312539   1.968  39.973   9.450
 5146POPC   PO412540   2.011  39.957   9.150
 5146POPC   GL112541   2.010  39.995   8.850
 5146POPC   GL212542   1.870  40.080   8.850
 5146POPC   C1A12543   2.010  39.992   8.550
 5146POPC   D2A12544   1.952  40.011   8.250
 5146POPC   C3A12545   1.947  40.032   7.950
 5146POPC   C4A12546   1.955  40.049   7.650
 5146POPC   C1B12547   1.778  40.106   8.550
 5146POPC   C2B12548   1.803  40.090   8.250
 5146POPC   C3B12549   1.763  40.169   7.950
 5146POPC   C4B12550   1.764  40.091   7.650
 5147POPC   NC312551  18.320  19.081   9.450
 5147POPC   PO412552  18.332  19.079   9.150
 5147POPC   GL112553  18.312  19.051   8.850
 5147POPC   GL212554  18.230  18.960   8.850
 5147POPC   C1A12555  18.301  19.108   8.550
 5147POPC   D2A12556  18.319  19.057   8.250
 5147POPC   C3A12557  18.265  19.099   7.950
 5147POPC   C4A12558  18.296  19.055   7.650
 5147POPC   C1B12559  18.116  18.839   8.550
 5147POPC   C2B12560  18.117  18.831   8.250
 5147POPC   C3B12561  18.152  18.848   7.950
 5147POPC   C4B12562  18.180  18.870   7.650
 5148POPC   NC312563  34.586  26.074   9.450
 5148POPC   PO412564  34.603  26.069   9.150
 5148POPC   GL112565  34.535  26.012   8.850
 5148POPC   GL212566  34.732  26.060   8.850
 5148POPC   C1A12567  34.594  26.000   8.550
 5148POPC   D2A12568  34.572  26.081   8.250
 5148POPC   C3A12569  34.621  26.041   7.950
 5148POPC   C4A12570  34.556  26.016   7.650
 5148POPC   C1B12571  34.789  25.987   8.550
 5148POPC   C2B12572  34.871  26.020   8.250
 5148POPC   C3B12573  34.810  25.988   7.950
 5148POPC   C4B12574  34.868  25.990   7.650
 5149POPC   NC312575  22.890   9.709   9.450
 5149POPC   PO412576  22.980   9.793   9.150
 5149POPC   GL112577  22.900   9.746   8.850
 5149POPC   GL212578  23.068   9.688   8.850
 5149POPC   C1A12579  22.923   9.767   8.550
 5149POPC   D2A12580  22.952   9.754   8.250
 5149POPC   C3A12581  22.939   9.749   7.950
 5149POPC   C4A12582  22.890   9.705   7.650
 5149POPC   C1B12583  23.228   9.756   8.550
 5149POPC   C2B12584  23.233   9.669   8.250
 5149POPC   C3B12585  23.150   9.696   7.950
 5149POPC   C4B12586  23.225   9.718   7.650
 5150POPC   NC312587   1.250  16.715   9.450
 5150POPC   PO412588   1.246  16.709   9.150
 5150POPC   GL112589   1.230  16.683   8.850
 5150POPC   GL212590   1.088  16.682   8.850
 5150POPC   C1A12591   1.196  16.776   8.550
 5150POPC   D2A12592   1.191  16.747   8.250
 5150POPC   C3A12593   1.246  16.775   7.950
 5150POPC   C4A12594   1.211  16.682   7.650
 5150POPC   C1B12595   1.063  16.589   8.550
 5150POPC   C2B12596   1.077  16.496   8.250
 5150POPC   C3B12597   1.089  16.555   7.950
 5150POPC   C4B12598   1.005  16.569   7.650
 5151POPC   NC312599   8.980  10.520   9.450
 5151POPC   PO412600   8.972  10.562   9.150
 5151POPC   GL112601   8.938  10.491   8.850
 5151POPC   GL212602   9.055  10.552   8.850
 5151POPC   C1A12603   8.927  10.475   8.550
 5151POPC   D2A12604   9.001  10.490   8.250
 5151POPC   C3A12605   9.016  10.556   7.950
 5151POPC   C4A12606   8.974  10.537   7.650
 5151POPC   C1B12607   9.258  10.594   8.550
 5151POPC   C2B12608   9.225  10.537   8.250
 5151POPC   C3B12609   9.213  10.594   7.950
 5151POPC   C4B12610   9.241  10.578   7.650
 5152POPC   NC312611  39.972  42.302   9.450
 5152POPC   PO412612  40.043  42.308   9.150
 5152POPC   GL112613  39.995  42.306   8.850
 5152POPC   GL212614  39.946  42.494   8.850
 5152POPC   C1A12615  39.984  42.367   8.550
 5152POPC   D2A12616  40.037  42.376   8.250
 5152POPC   C3A12617  40.028  42.345   7.950
 5152POPC   C4A12618  39.981  42.377   7.650
 5152POPC   C1B12619  39.957  42.606   8.550
 5152POPC   C2B12620  39.983  42.549   8.250
 5152POPC   C3B12621  39.931  42.550   7.950
 5152POPC   C4B12622  39.893  42.623   7.650
 5153POPC   NC312623  15.939  29.096   9.450
 5153POPC   PO412624  15.930  29.190   9.150
 5153POPC   GL112625  15.926  29.183   8.850
 5153POPC   GL212626  15.970  29.048   8.850
 5153POPC   C1A12627  16.002  29.142   8.550
 5153POPC   D2A12628  15.975  29.120   8.250
 5153POPC   C3A12629  15.973  29.135   7.950
 5153POPC   C4A12630  15.967  29.179   7.650
 5153POPC   C1B12631  16.005  28.880   8.550
 5153POPC   C2B12632  15.953  28.867   8.250
 5153POPC   C3B12633  15.927  28.911   7.950
 5153POPC   C4B12634  15.929  28.934   7.650
 5154POPC   NC312635  19.809  13.597   9.450
 5154POPC   PO412636  19.833  13.609   9.150
 5154POPC   GL112637  19.829  13.676   8.850
 5154POPC   GL212638  19.915  13.536   8.850
 5154POPC   C1A12639  19.844  13.647   8.550
 5154POPC   D2A12640  19.802  13.630   8.250
 5154POPC   C3A12641  19.861  13.654   7.950
 5154POPC   C4A12642  19.837  13.662   7.650
 5154POPC   C1B12643  19.922  13.416   8.550
 5154POPC   C2B12644  19.961  13.426   8.250
 5154POPC   C3B12645  19.903  13.354   7.950
 5154POPC   C4B12646  19.888  13.440   7.650
 5155POPC   NC312647   4.303  16.762   9.450
 5155POPC   PO412648   4.271  16.775   9.150
 5155POPC   GL112649   4.291  16.735   8.850
 5155POPC   GL212650   4.224  16.751   8.850
 5155POPC   C1A12651   4.356  16.717   8.550
 5155POPC   D2A12652   4.326  16.736   8.250
 5155POPC   C3A12653   4.291  16.713   7.950
 5155POPC   C4A12654   4.346  16.691   7.650
 5155POPC   C1B12655   4.117  16.820   8.550
 5155POPC   C2B12656   4.088  16.828   8.250
 5155POPC   C3B12657   4.137  16.867   7.950
 5155POPC   C4B12658   4.056  16.894   7.650
 5156POPC   NC312659  41.597  19.810   9.450
 5156POPC   PO412660  41.533  19.800   9.150
 5156POPC   GL112661  41.582  19.821   8.850
 5156POPC   GL212662  41.463  19.884   8.850
 5156POPC   C1A12663  41.561  19.793   8.550
 5156POPC   D2A12664  41.519  19.873   8.250
 5156POPC   C3A12665  41.582  19.869   7.950
 5156POPC   C4A12666  41.581  19.822   7.650
 5156POPC   C1B12667  41.359  20.035   8.550
 5156POPC   C2B12668  41.377  19.993   8.250
 5156POPC   C3B12669  41.410  19.964   7.950
 5156POPC   C4B12670  41.370  19.997   7.650
 5157POPC   NC312671  39.258   8.183   9.450
 5157POPC   PO412672  39.281   8.168   9.150
 5157POPC   GL112673  39.235   8.241   8.850
 5157POPC   GL212674  39.332   8.136   8.850
 5157POPC   C1A12675  39.260   8.178   8.550
 5157POPC   D2A12676  39.234   8.207   8.250
 5157POPC   C3A12677  39.266   8.201   7.950
 5157POPC   C4A12678  39.196   8.221   7.650
 5157POPC   C1B12679  39.448   8.177   8.550
 5157POPC   C2B12680  39.459   8.150   8.250
 5157POPC   C3B12681  39.512   8.166   7.950
 5157POPC   C4B12682  39.453   8.157   7.650
 5158POPC   NC312683   4.284  25.226   9.450
 5158POPC   PO412684   4.344  25.236   9.150
 5158POPC   GL112685   4.275  25.255   8.850
 5158POPC   GL212686   4.385  25.160   8.850
 5158POPC   C1A12687   4.342  25.271   8.550
 5158POPC   D2A12688   4.284  25.229   8.250
 5158POPC   C3A12689   4.304  25.279   7.950
 5158POPC   C4A12690   4.319  25.233   7.650
 5158POPC   C1B12691   4.543  25.133   8.550
 5158POPC   C2B12692   4.495  25.144   8.250
 5158POPC   C3B12693   4.550  25.050   7.950
 5158POPC   C4B12694   4.514  25.102   7.650
 5159POPC   NC312695   6.635  11.339   9.450
 5159POPC   PO412696   6.678  11.304   9.150
 5159POPC   GL112697   6.608  11.250   8.850
 5159POPC   GL212698   6.525  11.408   8.850
 5159POPC   C1A12699   6.647  11.293   8.550
 5159POPC   D2A12700   6.675  11.329   8.250
 5159POPC   C3A12701   6.608  11.302   7.950
 5159POPC   C4A12702   6.680  11.333   7.650
 5159POPC   C1B12703   6.454  11.445   8.550
 5159POPC   C2B12704   6.413  11.458   8.250
 5159POPC   C3B12705   6.408  11.433   7.950
 5159POPC   C4B12706   6.446  11.396   7.650
 5160POPC   NC312707  44.630  32.281   9.450
 5160POPC   PO412708  44.658  32.269   9.150
 5160POPC   GL112709  44.616  32.245   8.850
 5160POPC   GL212710  44.763  32.327   8.850
 5160POPC   C1A12711  44.635  32.250   8.550
 5160POPC   D2A12712  44.649  32.260   8.250
 5160POPC   C3A12713  44.684  32.276   7.950
 5160POPC   C4A12714  44.631  32.217   7.650
 5160POPC   C1B12715  44.851  32.425   8.550
 5160POPC   C2B12716  44.852  32.435   8.250
 5160POPC   C3B12717  44.817  32.386   7.950
 5160POPC   C4B12718  44.854  32.384   7.650
 5161POPC   NC312719   2.793  29.964   9.450
 5161POPC   PO412720   2.723  29.951   9.150
 5161POPC   GL112721   2.787  29.876   8.850
 5161POPC   GL212722   2.838  30.075   8.850
 5161POPC   C1A12723   2.800  29.877   8.550
 5161POPC   D2A12724   2.735  29.873   8.250
 5161POPC   C3A12725   2.753  29.968   7.950
 5161POPC   C4A12726   2.728  29.926   7.650
 5161POPC   C1B12727   2.943  30.164   8.550
 5161POPC   C2B12728   2.857  30.101   8.250
 5161POPC   C3B12729   2.912  30.177   7.950
 5161POPC   C4B12730   2.866  30.124   7.650
 5162POPC   NC312731  43.869   6.624   9.450
 5162POPC   PO412732  43.877   6.660   9.150
 5162POPC   GL112733  43.919   6.613   8.850
 5162POPC   GL212734  43.759   6.750   8.850
 5162POPC   C1A12735  43.926   6.622   8.550
 5162POPC   D2A12736  43.869   6.643   8.250
 5162POPC   C3A12737  43.857   6.616   7.950
 5162POPC   C4A12738  43.892   6.617   7.650
 5162POPC   C1B12739  43.646   6.752   8.550
 5162POPC   C2B12740  43.695   6.758   8.250
 5162POPC   C3B12741  43.633   6.760   7.950
 5162POPC   C4B12742  43.706   6.734   7.650
 5163POPC   NC312743  37.699  14.423   9.450
 5163POPC   PO412744  37.698  14.422   9.150
 5163POPC   GL112745  37.678  14.427   8.850
 5163POPC   GL212746  37.515  14.388   8.850
 5163POPC   C1A12747  37.698  14.390   8.550
 5163POPC   D2A12748  37.675  14.435   8.250
 5163POPC   C3A12749  37.677  14.435   7.950
 5163POPC   C4A12750  37.675  14.404   7.650
 5163POPC   C1B12751  37.443  14.336   8.550
 5163POPC   C2B12752  37.459  14.350   8.250
 5163POPC   C3B12753  37.392  14.339   7.950
 5163POPC   C4B12754  37.453  14.353   7.650
 5164POPC   NC312755  11.349   9.796   9.450
 5164POPC   PO412756  11.265   9.718   9.150
 5164POPC   GL112757  11.261   9.776   8.850
 5164POPC   GL212758  11.214   9.697   8.850
 5164POPC   C1A12759  11.341   9.772   8.550
 5164POPC   D2A12760  11.328   9.755   8.250
 5164POPC   C3A12761  11.312   9.716   7.950
 5164POPC   C4A12762  11.258   9.777   7.650
 5164POPC   C1B12763  11.079   9.554   8.550
 5164POPC   C2B12764  11.102   9.585   8.250
 5164POPC   C3B12765  11.078   9.571   7.950
 5164POPC   C4B12766  11.076   9.613   7.650
 5165POPC   NC312767  25.227   2.738   9.450
 5165POPC   PO412768  25.306   2.807   9.150
 5165POPC   GL112769  25.239   2.781   8.850
 5165POPC   GL212770  25.337   2.850   8.850
 5165POPC   C1A12771  25.268   2.723   8.550
 5165POPC   D2A12772  25.261   2.774   8.250
 5165POPC   C3A12773  25.284   2.761   7.950
 5165POPC   C4A12774  25.272   2.760   7.650
 5165POPC   C1B12775  25.413   2.910   8.550
 5165POPC   C2B12776  25.437   2.928   8.250
 5165POPC   C3B12777  25.494   2.893   7.950
 5165POPC   C4B12778  25.478   2.921   7.650
 5166POPC   NC312779  29.872  13.620   9.450
 5166POPC   PO412780  29.882  13.645   9.150
 5166POPC   GL112781  29.917  13.626   8.850
 5166POPC   GL212782  30.056  13.582   8.850
 5166POPC   C1A12783  29.936  13.632   8.550
 5166POPC   D2A12784  29.897  13.652   8.250
 5166POPC   C3A12785  29.954  13.655   7.950
 5166POPC   C4A12786  29.912  13.671   7.650
 5166POPC   C1B12787  30.170  13.523   8.550
 5166POPC   C2B12788  30.157  13.504   8.250
 5166POPC   C3B12789  30.179  13.479   7.950
 5166POPC   C4B12790  30.147  13.540   7.650
 5167POPC   NC312791  14.383  16.693   9.450
 5167POPC   PO412792  14.386  16.713   9.150
 5167POPC   GL112793  14.370  16.744   8.850
 5167POPC   GL212794  14.357  16.657   8.850
 5167POPC   C1A12795  14.424  16.682   8.550
 5167POPC   D2A12796  14.364  16.781   8.250
 5167POPC   C3A12797  14.448  16.758   7.950
 5167POPC   C4A12798  14.431  16.717   7.650
 5167POPC   C1B12799  14.303  16.518   8.550
 5167POPC   C2B12800  14.313  16.534   8.250
 5167POPC   C3B12801  14.387  16.485   7.950
 5167POPC   C4B12802  14.385  16.489   7.650
 5168POPC   NC312803  26.841  33.022   9.450
 5168POPC   PO412804  26.813  32.981   9.150
 5168POPC   GL112805  26.812  33.067   8.850
 5168POPC   GL212806  26.764  32.913   8.850
 5168POPC   C1A12807  26.806  33.023   8.550
 5168POPC   D2A12808  26.805  32.981   8.250
 5168POPC   C3A12809  26.790  33.015   7.950
 5168POPC   C4A12810  26.787  33.004   7.650
 5168POPC   C1B12811  26.650  32.858   8.550
 5168POPC   C2B12812  26.652  32.812   8.250
 5168POPC   C3B12813  26.628  32.819   7.950
 5168POPC   C4B12814  26.656  32.832   7.650
 5169POPC   NC312815  22.170   1.209   9.450
 5169POPC   PO412816  22.144   1.223   9.150
 5169POPC   GL112817  22.144   1.222   8.850
 5169POPC   GL212818  22.254   1.285   8.850
 5169POPC   C1A12819  22.139   1.212   8.550
 5169POPC   D2A12820  22.143   1.245   8.250
 5169POPC   C3A12821  22.198   1.246   7.950
 5169POPC   C4A12822  22.132   1.260   7.650
 5169POPC   C1B12823  22.363   1.265   8.550
 5169POPC   C2B12824  22.425   1.273   8.250
 5169POPC   C3B12825  22.373   1.262   7.950
 5169POPC   C4B12826  22.446   1.257   7.650
 5170POPC   NC312827  22.978  28.409   9.450
 5170POPC   PO412828  22.940  28.341   9.150
 5170POPC   GL112829  22.937  28.346   8.850
 5170POPC   GL212830  22.861  28.416   8.850
 5170POPC   C1A12831  22.926  28.367   8.550
 5170POPC   D2A12832  22.891  28.341   8.250
 5170POPC   C3A12833  22.897  28.348   7.950
 5170POPC   C4A12834  22.974  28.363   7.650
 5170POPC   C1B12835  22.657  28.364   8.550
 5170POPC   C2B12836  22.643  28.390   8.250
 5170POPC   C3B12837  22.658  28.377   7.950
 5170POPC   C4B12838  22.700  28.345   7.650
 5171POPC   NC312839  35.368   2.031   9.450
 5171POPC   PO412840  35.323   1.946   9.150
 5171POPC   GL112841  35.351   1.958   8.850
 5171POPC   GL212842  35.218   1.981   8.850
 5171POPC   C1A12843  35.304   1.942   8.550
 5171POPC   D2A12844  35.393   2.002   8.250
 5171POPC   C3A12845  35.327   1.989   7.950
 5171POPC   C4A12846  35.387   1.953   7.650
 5171POPC   C1B12847  35.152   1.956   8.550
 5171POPC   C2B12848  35.074   1.938   8.250
 5171POPC   C3B12849  35.151   1.902   7.950
 5171POPC   C4B12850  35.085   1.933   7.650
 5172POPC   NC312851  17.510  12.078   9.450
 5172POPC   PO412852  17.478  12.058   9.150
 5172POPC   GL112853  17.457  12.085   8.850
 5172POPC   GL212854  17.586  11.963   8.850
 5172POPC   C1A12855  17.478  12.064   8.550
 5172POPC   D2A12856  17.541  12.115   8.250
 5172POPC   C3A12857  17.491  12.043   7.950
 5172POPC   C4A12858  17.477  12.057   7.650
 5172POPC   C1B12859  17.659  11.860   8.550
 5172POPC   C2B12860  17.730  11.861   8.250
 5172POPC   C3B12861  17.716  11.904   7.950
 5172POPC   C4B12862  17.677  11.949   7.650
 5173POPC   NC312863  23.702  15.141   9.450
 5173POPC   PO412864  23.753  15.164   9.150
 5173POPC   GL112865  23.719  15.164   8.850
 5173POPC   GL212866  23.820  15.136   8.850
 5173POPC   C1A12867  23.710  15.161   8.550
 5173POPC   D2A12868  23.710  15.203   8.250
 5173POPC   C3A12869  23.732  15.223   7.950
 5173POPC   C4A12870  23.753  15.168   7.650
 5173POPC   C1B12871  23.866  15.006   8.550
 5173POPC   C2B12872  23.948  14.986   8.250
 5173POPC   C3B12873  23.909  14.979   7.950
 5173POPC   C4B12874  23.894  15.038   7.650
 5174POPC   NC312875  12.871   5.047   9.450
 5174POPC   PO412876  12.817   5.072   9.150
 5174POPC   GL112877  12.832   5.093   8.850
 5174POPC   GL212878  12.916   5.205   8.850
 5174POPC   C1A12879  12.860   5.096   8.550
 5174POPC   D2A12880  12.862   5.066   8.250
 5174POPC   C3A12881  12.826   5.141   7.950
 5174POPC   C4A12882  12.878   5.116   7.650
 5174POPC   C1B12883  12.966   5.339   8.550
 5174POPC   C2B12884  12.962   5.270   8.250
 5174POPC   C3B12885  13.051   5.314   7.950
 5174POPC   C4B12886  12.997   5.299   7.650
 5175POPC   NC312887  43.101  37.689   9.450
 5175POPC   PO412888  43.063  37.687   9.150
 5175POPC   GL112889  43.125  37.696   8.850
 5175POPC   GL212890  43.110  37.516   8.850
 5175POPC   C1A12891  43.088  37.635   8.550
 5175POPC   D2A12892  43.060  37.696   8.250
 5175POPC   C3A12893  43.119  37.685   7.950
 5175POPC   C4A12894  43.129  37.648   7.650
 5175POPC   C1B12895  43.085  37.452   8.550
 5175POPC   C2B12896  43.122  37.474   8.250
 5175POPC   C3B12897  43.086  37.433   7.950
 5175POPC   C4B12898  43.091  37.421   7.650
 5176POPC   NC312899  42.288  24.471   9.450
 5176POPC   PO412900  42.318  24.466   9.150
 5176POPC   GL112901  42.307  24.509   8.850
 5176POPC   GL212902  42.276  24.571   8.850
 5176POPC   C1A12903  42.348  24.514   8.550
 5176POPC   D2A12904  42.376  24.442   8.250
 5176POPC   C3A12905  42.295  24.455   7.950
 5176POPC   C4A12906  42.345  24.524   7.650
 5176POPC   C1B12907  42.336  24.750   8.550
 5176POPC   C2B12908  42.302  24.748   8.250
 5176POPC   C3B12909  42.273  24.779   7.950
 5176POPC   C4B12910  42.336  24.691   7.650
 5177POPC   NC312911  33.048   4.271   9.450
 5177POPC   PO412912  32.991   4.352   9.150
 5177POPC   GL112913  33.036   4.344   8.850
 5177POPC   GL212914  33.063   4.426   8.850
 5177POPC   C1A12915  33.025   4.317   8.550
 5177POPC   D2A12916  33.008   4.358   8.250
 5177POPC   C3A12917  33.057   4.302   7.950
 5177POPC   C4A12918  32.975   4.361   7.650
 5177POPC   C1B12919  33.126   4.549   8.550
 5177POPC   C2B12920  33.136   4.535   8.250
 5177POPC   C3B12921  33.125   4.493   7.950
 5177POPC   C4B12922  33.165   4.541   7.650
 5178POPC   NC312923  26.826  22.972   9.450
 5178POPC   PO412924  26.784  22.969   9.150
 5178POPC   GL112925  26.780  22.947   8.850
 5178POPC   GL212926  26.859  23.024   8.850
 5178POPC   C1A12927  26.808  22.889   8.550
 5178POPC   D2A12928  26.828  22.920   8.250
 5178POPC   C3A12929  26.847  22.955   7.950
 5178POPC   C4A12930  26.776  22.903   7.650
 5178POPC   C1B12931  27.026  23.141   8.550
 5178POPC   C2B12932  27.021  23.152   8.250
 5178POPC   C3B12933  26.946  23.099   7.950
 5178POPC   C4B12934  26.949  23.090   7.650
 5179POPC   NC312935  15.212  15.207   9.450
 5179POPC   PO412936  15.131  15.186   9.150
 5179POPC   GL112937  15.168  15.198   8.850
 5179POPC   GL212938  15.181  15.055   8.850
 5179POPC   C1A12939  15.171  15.196   8.550
 5179POPC   D2A12940  15.160  15.157   8.250
 5179POPC   C3A12941  15.168  15.192   7.950
 5179POPC   C4A12942  15.215  15.205   7.650
 5179POPC   C1B12943  15.222  14.971   8.550
 5179POPC   C2B12944  15.238  14.942   8.250
 5179POPC   C3B12945  15.266  14.933   7.950
 5179POPC   C4B12946  15.210  14.967   7.650
 5180POPC   NC312947  30.705  28.390   9.450
 5180POPC   PO412948  30.669  28.342   9.150
 5180POPC   GL112949  30.673  28.320   8.850
 5180POPC   GL212950  30.576  28.255   8.850
 5180POPC   C1A12951  30.666  28.339   8.550
 5180POPC   D2A12952  30.666  28.405   8.250
 5180POPC   C3A12953  30.683  28.340   7.950
 5180POPC   C4A12954  30.718  28.387   7.650
 5180POPC   C1B12955  30.464  28.256   8.550
 5180POPC   C2B12956  30.466  28.196   8.250
 5180POPC   C3B12957  30.496  28.267   7.950
 5180POPC   C4B12958  30.530  28.249   7.650
 5181POPC   NC312959  43.074  19.838   9.450
 5181POPC   PO412960  43.077  19.821   9.150
 5181POPC   GL112961  43.070  19.824   8.850
 5181POPC   GL212962  43.159  19.755   8.850
 5181POPC   C1A12963  43.073  19.875   8.550
 5181POPC   D2A12964  43.137  19.831   8.250
 5181POPC   C3A12965  43.084  19.806   7.950
 5181POPC   C4A12966  43.109  19.799   7.650
 5181POPC   C1B12967  43.216  19.598   8.550
 5181POPC   C2B12968  43.178  19.648   8.250
 5181POPC   C3B12969  43.231  19.591   7.950
 5181POPC   C4B12970  43.254  19.593   7.650
 5182POPC   NC312971  42.350  15.208   9.450
 5182POPC   PO412972  42.335  15.201   9.150
 5182POPC   GL112973  42.360  15.132   8.850
 5182POPC   GL212974  42.445  15.025   8.850
 5182POPC   C1A12975  42.295  15.187   8.550
 5182POPC   D2A12976  42.302  15.191   8.250
 5182POPC   C3A12977  42.289  15.141   7.950
 5182POPC   C4A12978  42.369  15.189   7.650
 5182POPC   C1B12979  42.426  14.984   8.550
 5182POPC   C2B12980  42.467  14.989   8.250
 5182POPC   C3B12981  42.439  14.947   7.950
 5182POPC   C4B12982  42.447  15.001   7.650
 5183POPC   NC312983   9.704  35.321   9.450
 5183POPC   PO412984   9.764  35.365   9.150
 5183POPC   GL112985   9.718  35.368   8.850
 5183POPC   GL212986   9.793  35.456   8.850
 5183POPC   C1A12987   9.742  35.373   8.550
 5183POPC   D2A12988   9.750  35.316   8.250
 5183POPC   C3A12989   9.787  35.387   7.950
 5183POPC   C4A12990   9.776  35.345   7.650
 5183POPC   C1B12991   9.889  35.540   8.550
 5183POPC   C2B12992   9.907  35.573   8.250
 5183POPC   C3B12993   9.910  35.583   7.950
 5183POPC   C4B12994   9.863  35.509   7.650
 5184POPC   NC312995   6.607  36.127   9.450
 5184POPC   PO412996   6.622  36.093   9.150
 5184POPC   GL112997   6.603  36.139   8.850
 5184POPC   GL212998   6.741  36.230   8.850
 5184POPC   C1A12999   6.643  36.147   8.550
 5184POPC   D2A13000   6.678  36.129   8.250
 5184POPC   C3A13001   6.637  36.082   7.950
 5184POPC   C4A13002   6.674  36.162   7.650
 5184POPC   C1B13003   6.774  36.270   8.550
 5184POPC   C2B13004   6.797  36.298   8.250
 5184POPC   C3B13005   6.794  36.285   7.950
 5184POPC   C4B13006   6.870  36.262   7.650
 5185POPC   NC313007  27.604  34.574   9.450
 5185POPC   PO413008  27.612  34.598   9.150
 5185POPC   GL113009  27.632  34.608   8.850
 5185POPC   GL213010  27.581  34.425   8.850
 5185POPC   C1A13011  27.618  34.572   8.550
 5185POPC   D2A13012  27.635  34.532   8.250
 5185POPC   C3A13013  27.600  34.596   7.950
 5185POPC   C4A13014  27.606  34.542   7.650
 5185POPC   C1B13015  27.520  34.319   8.550
 5185POPC   C2B13016  27.569  34.288   8.250
 5185POPC   C3B13017  27.489  34.338   7.950
 5185POPC   C4B13018  27.576  34.319   7.650
 5186POPC   NC313019  16.755  17.482   9.450
 5186POPC   PO413020  16.736  17.553   9.150
 5186POPC   GL113021  16.764  17.519   8.850
 5186POPC   GL213022  16.626  17.368   8.850
 5186POPC   C1A13023  16.721  17.499   8.550
 5186POPC   D2A13024  16.710  17.535   8.250
 5186POPC   C3A13025  16.735  17.511   7.950
 5186POPC   C4A13026  16.751  17.523   7.650
 5186POPC   C1B13027  16.528  17.362   8.550
 5186POPC   C2B13028  16.583  17.328   8.250
 5186POPC   C3B13029  16.604  17.293   7.950
 5186POPC   C4B13030  16.573  17.309   7.650
 5187POPC   NC313031   4.301  29.931   9.450
 5187POPC   PO413032   4.285  29.947   9.150
 5187POPC   GL113033   4.297  29.963   8.850
 5187POPC   GL213034   4.247  29.987   8.850
 5187POPC   C1A13035   4.271  29.938   8.550
 5187POPC   D2A13036   4.341  29.932   8.250
 5187POPC   C3A13037   4.337  29.955   7.950
 5187POPC   C4A13038   4.343  29.969   7.650
 5187POPC   C1B13039   4.039  30.046   8.550
 5187POPC   C2B13040   4.081  29.988   8.250
 5187POPC   C3B13041   4.111  29.987   7.950
 5187POPC   C4B13042   4.098  30.017   7.650
 5188POPC   NC313043  14.404  13.663   9.450
 5188POPC   PO413044  14.374  13.647   9.150
 5188POPC   GL113045  14.404  13.595   8.850
 5188POPC   GL213046  14.429  13.533   8.850
 5188POPC   C1A13047  14.384  13.671   8.550
 5188POPC   D2A13048  14.362  13.628   8.250
 5188POPC   C3A13049  14.381  13.601   7.950
 5188POPC   C4A13050  14.427  13.578   7.650
 5188POPC   C1B13051  14.572  13.436   8.550
 5188POPC   C2B13052  14.572  13.428   8.250
 5188POPC   C3B13053  14.544  13.412   7.950
 5188POPC   C4B13054  14.574  13.423   7.650
 5189POPC   NC313055  44.635  34.605   9.450
 5189POPC   PO413056  44.630  34.579   9.150
 5189POPC   GL113057  44.671  34.580   8.850
 5189POPC   GL213058  44.713  34.459   8.850
 5189POPC   C1A13059  44.614  34.570   8.550
 5189POPC   D2A13060  44.642  34.562   8.250
 5189POPC   C3A13061  44.694  34.589   7.950
 5189POPC   C4A13062  44.683  34.543   7.650
 5189POPC   C1B13063  44.761  34.317   8.550
 5189POPC   C2B13064  44.683  34.286   8.250
 5189POPC   C3B13065  44.704  34.370   7.950
 5189POPC   C4B13066  44.726  34.308   7.650
 5190POPC   NC313067  30.668  22.181   9.450
 5190POPC   PO413068  30.724  22.197   9.150
 5190POPC   GL113069  30.656  22.186   8.850
 5190POPC   GL213070  30.630  22.031   8.850
 5190POPC   C1A13071  30.648  22.201   8.550
 5190POPC   D2A13072  30.728  22.177   8.250
 5190POPC   C3A13073  30.716  22.119   7.950
 5190POPC   C4A13074  30.721  22.140   7.650
 5190POPC   C1B13075  30.627  21.905   8.550
 5190POPC   C2B13076  30.583  21.924   8.250
 5190POPC   C3B13077  30.615  21.976   7.950
 5190POPC   C4B13078  30.594  21.949   7.650
 5191POPC   NC313079  25.290  11.316   9.450
 5191POPC   PO413080  25.240  11.267   9.150
 5191POPC   GL113081  25.256  11.298   8.850
 5191POPC   GL213082  25.220  11.178   8.850
 5191POPC   C1A13083  25.242  11.283   8.550
 5191POPC   D2A13084  25.296  11.255   8.250
 5191POPC   C3A13085  25.297  11.310   7.950
 5191POPC   C4A13086  25.304  11.309   7.650
 5191POPC   C1B13087  25.062  11.091   8.550
 5191POPC   C2B13088  25.060  11.096   8.250
 5191POPC   C3B13089  25.117  11.119   7.950
 5191POPC   C4B13090  25.090  11.113   7.650
 5192POPC   NC313091  22.144  19.786   9.450
 5192POPC   PO413092  22.138  19.846   9.150
 5192POPC   GL113093  22.123  19.812   8.850
 5192POPC   GL213094  22.196  19.708   8.850
 5192POPC   C1A13095  22.209  19.791   8.550
 5192POPC   D2A13096  22.210  19.836   8.250
 5192POPC   C3A13097  22.156  19.884   7.950
 5192POPC   C4A13098  22.204  19.823   7.650
 5192POPC   C1B13099  22.321  19.586   8.550
 5192POPC   C2B13100  22.241  19.635   8.250
 5192POPC   C3B13101  22.263  19.665   7.950
 5192POPC   C4B13102  22.289  19.587   7.650
 5193POPC   NC313103  43.893   2.729   9.450
 5193POPC   PO413104  43.891   2.717   9.150
 5193POPC   GL113105  43.918   2.778   8.850
 5193POPC   GL213106  43.790   2.720   8.850
 5193POPC   C1A13107  43.859   2.760   8.550
 5193POPC   D2A13108  43.847   2.780   8.250
 5193POPC   C3A13109  43.931   2.789   7.950
 5193POPC   C4A13110  43.863   2.759   7.650
 5193POPC   C1B13111  43.676   2.678   8.550
 5193POPC   C2B13112  43.653   2.602   8.250
 5193POPC   C3B13113  43.682   2.604   7.950
 5193POPC   C4B13114  43.636   2.626   7.650
 5194POPC   NC313115  31.497  42.347   9.450
 5194POPC   PO413116  31.491  42.323   9.150
 5194POPC   GL113117  31.489  42.323   8.850
 5194POPC   GL213118  31.328  42.351   8.850
 5194POPC   C1A13119  31.440  42.299   8.550
 5194POPC   D2A13120  31.433  42.349   8.250
 5194POPC   C3A13121  31.501  42.286   7.950
 5194POPC   C4A13122  31.495  42.310   7.650
 5194POPC   C1B13123  31.265  42.303   8.550
 5194POPC   C2B13124  31.211  42.242   8.250
 5194POPC   C3B13125  31.261  42.312   7.950
 5194POPC   C4B13126  31.181  42.317   7.650
 5195POPC   NC313127  17.536  25.221   9.450
 5195POPC   PO413128  17.535  25.259   9.150
 5195POPC   GL113129  17.525  25.291   8.850
 5195POPC   GL213130  17.555  25.175   8.850
 5195POPC   C1A13131  17.487  25.312   8.550
 5195POPC   D2A13132  17.494  25.284   8.250
 5195POPC   C3A13133  17.471  25.221   7.950
 5195POPC   C4A13134  17.504  25.260   7.650
 5195POPC   C1B13135  17.524  24.989   8.550
 5195POPC   C2B13136  17.530  25.027   8.250
 5195POPC   C3B13137  17.551  25.049   7.950
 5195POPC   C4B13138  17.479  25.043   7.650
 5196POPC   NC313139  12.890   9.755   9.450
 5196POPC   PO413140  12.856   9.749   9.150
 5196POPC   GL113141  12.894   9.714   8.850
 5196POPC   GL213142  12.763   9.704   8.850
 5196POPC   C1A13143  12.875   9.737   8.550
 5196POPC   D2A13144  12.812   9.783   8.250
 5196POPC   C3A13145  12.882   9.791   7.950
 5196POPC   C4A13146  12.842   9.786   7.650
 5196POPC   C1B13147  12.573   9.728   8.550
 5196POPC   C2B13148  12.583   9.713   8.250
 5196POPC   C3B13149  12.596   9.772   7.950
 5196POPC   C4B13150  12.624   9.726   7.650
 5197POPC   NC313151   8.237  37.658   9.450
 5197POPC   PO413152   8.187  37.636   9.150
 5197POPC   GL113153   8.213  37.667   8.850
 5197POPC   GL213154   8.117  37.790   8.850
 5197POPC   C1A13155   8.195  37.713   8.550
 5197POPC   D2A13156   8.171  37.719   8.250
 5197POPC   C3A13157   8.231  37.704   7.950
 5197POPC   C4A13158   8.189  37.660   7.650
 5197POPC   C1B13159   8.115  37.920   8.550
 5197POPC   C2B13160   8.069  37.964   8.250
 5197POPC   C3B13161   8.107  37.883   7.950
 5197POPC   C4B13162   8.090  37.866   7.650
 5198POPC   NC313163   2.009  24.522   9.450
 5198POPC   PO413164   1.983  24.452   9.150
 5198POPC   GL113165   2.006  24.507   8.850
 5198POPC   GL213166   2.115  24.556   8.850
 5198POPC   C1A13167   1.990  24.459   8.550
 5198POPC   D2A13168   1.960  24.493   8.250
 5198POPC   C3A13169   2.009  24.525   7.950
 5198POPC   C4A13170   2.000  24.501   7.650
 5198POPC   C1B13171   2.229  24.628   8.550
 5198POPC   C2B13172   2.267  24.634   8.250
 5198POPC   C3B13173   2.213  24.563   7.950
 5198POPC   C4B13174   2.214  24.590   7.650
 5199POPC   NC313175   7.441  23.709   9.450
 5199POPC   PO413176   7.378  23.698   9.150
 5199POPC   GL113177   7.459  23.674   8.850
 5199POPC   GL213178   7.337  23.715   8.850
 5199POPC   C1A13179   7.399  23.690   8.550
 5199POPC   D2A13180   7.430  23.670   8.250
 5199POPC   C3A13181   7.409  23.754   7.950
 5199POPC   C4A13182   7.389  23.721   7.650
 5199POPC   C1B13183   7.186  23.624   8.550
 5199POPC   C2B13184   7.183  23.666   8.250
 5199POPC   C3B13185   7.167  23.666   7.950
 5199POPC   C4B13186   7.218  23.607   7.650
 5200POPC   NC313187  40.749   8.992   9.450
 5200POPC   PO413188  40.788   9.011   9.150
 5200POPC   GL113189  40.774   8.953   8.850
 5200POPC   GL213190  40.791   9.058   8.850
 5200POPC   C1A13191  40.807   8.965   8.550
 5200POPC   D2A13192  40.758   8.946   8.250
 5200POPC   C3A13193  40.785   8.991   7.950
 5200POPC   C4A13194  40.803   8.984   7.650
 5200POPC   C1B13195  40.810   9.213   8.550
 5200POPC   C2B13196  40.788   9.236   8.250
 5200POPC   C3B13197  40.752   9.205   7.950
 5200POPC   C4B13198  40.760   9.175   7.650
 5201POPC   NC313199  23.673  10.487   9.450
 5201POPC   PO413200  23.720  10.495   9.150
 5201POPC   GL113201  23.679  10.513   8.850
 5201POPC   GL213202  23.570  10.475   8.850
 5201POPC   C1A13203  23.739  10.475   8.550
 5201POPC   D2A13204  23.702  10.486   8.250
 5201POPC   C3A13205  23.743  10.490   7.950
 5201POPC   C4A13206  23.757  10.484   7.650
 5201POPC   C1B13207  23.437  10.473   8.550
 5201POPC   C2B13208  23.460  10.524   8.250
 5201POPC   C3B13209  23.434  10.537   7.950
 5201POPC   C4B13210  23.472  10.544   7.650
 5202POPC   NC313211   0.463  11.320   9.450
 5202POPC   PO413212   0.389  11.338   9.150
 5202POPC   GL113213   0.463  11.312   8.850
 5202POPC   GL213214   0.508  11.271   8.850
 5202POPC   C1A13215   0.463  11.269   8.550
 5202POPC   D2A13216   0.447  11.344   8.250
 5202POPC   C3A13217   0.487  11.273   7.950
 5202POPC   C4A13218   0.452  11.325   7.650
 5202POPC   C1B13219   0.715  11.250   8.550
 5202POPC   C2B13220   0.650  11.205   8.250
 5202POPC   C3B13221   0.641  11.182   7.950
 5202POPC   C4B13222   0.675  11.249   7.650
 5203POPC   NC313223  35.349  19.024   9.450
 5203POPC   PO413224  35.357  19.039   9.150
 5203POPC   GL113225  35.308  19.106   8.850
 5203POPC   GL213226  35.478  18.992   8.850
 5203POPC   C1A13227  35.311  19.013   8.550
 5203POPC   D2A13228  35.339  19.099   8.250
 5203POPC   C3A13229  35.364  19.065   7.950
 5203POPC   C4A13230  35.350  19.053   7.650
 5203POPC   C1B13231  35.489  18.854   8.550
 5203POPC   C2B13232  35.544  18.933   8.250
 5203POPC   C3B13233  35.585  18.933   7.950
 5203POPC   C4B13234  35.547  18.906   7.650
 5204POPC   NC313235  12.893  18.329   9.450
 5204POPC   PO413236  12.813  18.308   9.150
 5204POPC   GL113237  12.874  18.288   8.850
 5204POPC   GL213238  12.926  18.134   8.850
 5204POPC   C1A13239  12.862  18.276   8.550
 5204POPC   D2A13240  12.832  18.276   8.250
 5204POPC   C3A13241  12.863  18.311   7.950
 5204POPC   C4A13242  12.817  18.251   7.650
 5204POPC   C1B13243  12.901  18.085   8.550
 5204POPC   C2B13244  12.889  18.024   8.250
 5204POPC   C3B13245  12.942  18.046   7.950
 5204POPC   C4B13246  12.936  18.086   7.650
 5205POPC   NC313247  23.702   1.212   9.450
 5205POPC   PO413248  23.666   1.241   9.150
 5205POPC   GL113249  23.754   1.214   8.850
 5205POPC   GL213250  23.593   1.185   8.850
 5205POPC   C1A13251  23.698   1.260   8.550
 5205POPC   D2A13252  23.700   1.176   8.250
 5205POPC   C3A13253  23.715   1.202   7.950
 5205POPC   C4A13254  23.731   1.197   7.650
 5205POPC   C1B13255  23.547   1.111   8.550
 5205POPC   C2B13256  23.489   1.047   8.250
 5205POPC   C3B13257  23.491   1.069   7.950
 5205POPC   C4B13258  23.480   1.078   7.650
 5206POPC   NC313259   9.706  44.676   9.450
 5206POPC   PO413260   9.777  44.650   9.150
 5206POPC   GL113261   9.711  44.623   8.850
 5206POPC   GL213262   9.823  44.591   8.850
 5206POPC   C1A13263   9.740  44.688   8.550
 5206POPC   D2A13264   9.700  44.701   8.250
 5206POPC   C3A13265   9.789  44.641   7.950
 5206POPC   C4A13266   9.733  44.687   7.650
 5206POPC   C1B13267   9.904  44.393   8.550
 5206POPC   C2B13268   9.868  44.434   8.250
 5206POPC   C3B13269   9.862  44.459   7.950
 5206POPC   C4B13270   9.886  44.395   7.650
 5207POPC   NC313271  17.554  43.098   9.450
 5207POPC   PO413272  17.495  43.102   9.150
 5207POPC   GL113273  17.548  43.143   8.850
 5207POPC   GL213274  17.417  42.999   8.850
 5207POPC   C1A13275  17.521  43.098   8.550
 5207POPC   D2A13276  17.532  43.150   8.250
 5207POPC   C3A13277  17.511  43.125   7.950
 5207POPC   C4A13278  17.529  43.097   7.650
 5207POPC   C1B13279  17.361  42.882   8.550
 5207POPC   C2B13280  17.421  42.865   8.250
 5207POPC   C3B13281  17.370  42.851   7.950
 5207POPC   C4B13282  17.393  42.877   7.650
 5208POPC   NC313283   8.238  24.447   9.450
 5208POPC   PO413284   8.148  24.530   9.150
 5208POPC   GL113285   8.155  24.482   8.850
 5208POPC   GL213286   8.051  24.491   8.850
 5208POPC   C1A13287   8.164  24.453   8.550
 5208POPC   D2A13288   8.207  24.453   8.250
 5208POPC   C3A13289   8.210  24.442   7.950
 5208POPC   C4A13290   8.230  24.507   7.650
 5208POPC   C1B13291   7.993  24.372   8.550
 5208POPC   C2B13292   7.950  24.451   8.250
 5208POPC   C3B13293   7.925  24.448   7.950
 5208POPC   C4B13294   7.925  24.409   7.650
 5209POPC   NC313295  12.847  21.422   9.450
 5209POPC   PO413296  12.879  21.401   9.150
 5209POPC   GL113297  12.895  21.366   8.850
 5209POPC   GL213298  12.765  21.405   8.850
 5209POPC   C1A13299  12.871  21.404   8.550
 5209POPC   D2A13300  12.834  21.368   8.250
 5209POPC   C3A13301  12.805  21.395   7.950
 5209POPC   C4A13302  12.803  21.355   7.650
 5209POPC   C1B13303  12.625  21.428   8.550
 5209POPC   C2B13304  12.583  21.387   8.250
 5209POPC   C3B13305  12.624  21.374   7.950
 5209POPC   C4B13306  12.558  21.380   7.650
 5210POPC   NC313307   5.910  41.597   9.450
 5210POPC   PO413308   5.876  41.530   9.150
 5210POPC   GL113309   5.902  41.593   8.850
 5210POPC   GL213310   6.015  41.497   8.850
 5210POPC   C1A13311   5.824  41.549   8.550
 5210POPC   D2A13312   5.893  41.595   8.250
 5210POPC   C3A13313   5.831  41.602   7.950
 5210POPC   C4A13314   5.915  41.544   7.650
 5210POPC   C1B13315   6.128  41.538   8.550
 5210POPC   C2B13316   6.130  41.484   8.250
 5210POPC   C3B13317   6.073  41.532   7.950
 5210POPC   C4B13318   6.152  41.507   7.650
 5211POPC   NC313319  36.908  39.264   9.450
 5211POPC   PO413320  36.899  39.225   9.150
 5211POPC   GL113321  36.943  39.230   8.850
 5211POPC   GL213322  37.025  39.332   8.850
 5211POPC   C1A13323  36.876  39.224   8.550
 5211POPC   D2A13324  36.935  39.253   8.250
 5211POPC   C3A13325  36.865  39.275   7.950
 5211POPC   C4A13326  36.923  39.218   7.650
 5211POPC   C1B13327  37.054  39.369   8.550
 5211POPC   C2B13328  37.109  39.371   8.250
 5211POPC   C3B13329  37.103  39.356   7.950
 5211POPC   C4B13330  37.142  39.400   7.650
 5212POPC   NC313331  19.811  41.597   9.450
 5212POPC   PO413332  19.788  41.567   9.150
 5212POPC   GL113333  19.813  41.600   8.850
 5212POPC   GL213334  19.721  41.572   8.850
 5212POPC   C1A13335  19.813  41.519   8.550
 5212POPC   D2A13336  19.884  41.584   8.250
 5212POPC   C3A13337  19.849  41.598   7.950
 5212POPC   C4A13338  19.860  41.572   7.650
 5212POPC   C1B13339  19.616  41.605   8.550
 5212POPC   C2B13340  19.575  41.590   8.250
 5212POPC   C3B13341  19.571  41.598   7.950
 5212POPC   C4B13342  19.580  41.575   7.650
 5213POPC   NC313343  24.490  12.113   9.450
 5213POPC   PO413344  24.445  12.119   9.150
 5213POPC   GL113345  24.531  12.030   8.850
 5213POPC   GL213346  24.593  12.122   8.850
 5213POPC   C1A13347  24.448  12.055   8.550
 5213POPC   D2A13348  24.478  12.114   8.250
 5213POPC   C3A13349  24.449  12.054   7.950
 5213POPC   C4A13350  24.495  12.099   7.650
 5213POPC   C1B13351  24.662  12.219   8.550
 5213POPC   C2B13352  24.753  12.184   8.250
 5213POPC   C3B13353  24.737  12.239   7.950
 5213POPC   C4B13354  24.733  12.224   7.650
 5214POPC   NC313355  25.252  39.266   9.450
 5214POPC   PO413356  25.228  39.224   9.150
 5214POPC   GL113357  25.233  39.273   8.850
 5214POPC   GL213358  25.425  39.260   8.850
 5214POPC   C1A13359  25.290  39.250   8.550
 5214POPC   D2A13360  25.308  39.229   8.250
 5214POPC   C3A13361  25.222  39.222   7.950
 5214POPC   C4A13362  25.220  39.275   7.650
 5214POPC   C1B13363  25.543  39.241   8.550
 5214POPC   C2B13364  25.499  39.235   8.250
 5214POPC   C3B13365  25.519  39.180   7.950
 5214POPC   C4B13366  25.552  39.178   7.650
 5215POPC   NC313367  19.803  36.926   9.450
 5215POPC   PO413368  19.812  36.863   9.150
 5215POPC   GL113369  19.866  36.948   8.850
 5215POPC   GL213370  19.860  37.001   8.850
 5215POPC   C1A13371  19.864  36.889   8.550
 5215POPC   D2A13372  19.859  36.902   8.250
 5215POPC   C3A13373  19.852  36.872   7.950
 5215POPC   C4A13374  19.862  36.886   7.650
 5215POPC   C1B13375  19.846  37.149   8.550
 5215POPC   C2B13376  19.842  37.155   8.250
 5215POPC   C3B13377  19.802  37.137   7.950
 5215POPC   C4B13378  19.756  37.113   7.650
 5216POPC   NC313379   8.219  39.978   9.450
 5216POPC   PO413380   8.237  39.978   9.150
 5216POPC   GL113381   8.206  40.033   8.850
 5216POPC   GL213382   8.086  40.019   8.850
 5216POPC   C1A13383   8.201  40.019   8.550
 5216POPC   D2A13384   8.179  39.977   8.250
 5216POPC   C3A13385   8.161  40.022   7.950
 5216POPC   C4A13386   8.219  40.026   7.650
 5216POPC   C1B13387   7.952  39.924   8.550
 5216POPC   C2B13388   7.944  39.998   8.250
 5216POPC   C3B13389   7.912  40.003   7.950
 5216POPC   C4B13390   7.969  39.956   7.650
 5217POPC   NC313391  25.240  33.003   9.450
 5217POPC   PO413392  25.288  32.983   9.150
 5217POPC   GL113393  25.254  33.043   8.850
 5217POPC   GL213394  25.281  33.112   8.850
 5217POPC   C1A13395  25.312  33.044   8.550
 5217POPC   D2A13396  25.223  32.993   8.250
 5217POPC   C3A13397  25.224  33.028   7.950
 5217POPC   C4A13398  25.273  33.052   7.650
 5217POPC   C1B13399  25.341  33.275   8.550
 5217POPC   C2B13400  25.331  33.230   8.250
 5217POPC   C3B13401  25.320  33.238   7.950
 5217POPC   C4B13402  25.318  33.308   7.650
 5218POPC   NC313403   5.904  26.821   9.450
 5218POPC   PO413404   5.902  26.771   9.150
 5218POPC   GL113405   5.915  26.837   8.850
 5218POPC   GL213406   5.905  26.963   8.850
 5218POPC   C1A13407   5.897  26.842   8.550
 5218POPC   D2A13408   5.836  26.828   8.250
 5218POPC   C3A13409   5.863  26.809   7.950
 5218POPC   C4A13410   5.862  26.838   7.650
 5218POPC   C1B13411   5.911  27.088   8.550
 5218POPC   C2B13412   5.928  27.072   8.250
 5218POPC   C3B13413   5.873  27.061   7.950
 5218POPC   C4B13414   5.830  27.045   7.650
 5219POPC   NC313415  36.920  40.780   9.450
 5219POPC   PO413416  36.930  40.813   9.150
 5219POPC   GL113417  36.936  40.800   8.850
 5219POPC   GL213418  36.866  40.923   8.850
 5219POPC   C1A13419  36.919  40.825   8.550
 5219POPC   D2A13420  36.921  40.791   8.250
 5219POPC   C3A13421  36.862  40.750   7.950
 5219POPC   C4A13422  36.878  40.741   7.650
 5219POPC   C1B13423  36.801  41.014   8.550
 5219POPC   C2B13424  36.767  40.975   8.250
 5219POPC   C3B13425  36.776  41.001   7.950
 5219POPC   C4B13426  36.816  40.984   7.650
 5220POPC   NC313427  18.242  27.612   9.450
 5220POPC   PO413428  18.324  27.575   9.150
 5220POPC   GL113429  18.261  27.574   8.850
 5220POPC   GL213430  18.246  27.695   8.850
 5220POPC   C1A13431  18.326  27.547   8.550
 5220POPC   D2A13432  18.296  27.584   8.250
 5220POPC   C3A13433  18.250  27.570   7.950
 5220POPC   C4A13434  18.324  27.562   7.650
 5220POPC   C1B13435  18.126  27.750   8.550
 5220POPC   C2B13436  18.101  27.831   8.250
 5220POPC   C3B13437  18.100  27.816   7.950
 5220POPC   C4B13438  18.110  27.811   7.650
 5221POPC   NC313439  16.770  38.417   9.450
 5221POPC   PO413440  16.716  38.484   9.150
 5221POPC   GL113441  16.748  38.494   8.850
 5221POPC   GL213442  16.752  38.356   8.850
 5221POPC   C1A13443  16.764  38.477   8.550
 5221POPC   D2A13444  16.719  38.505   8.250
 5221POPC   C3A13445  16.740  38.483   7.950
 5221POPC   C4A13446  16.772  38.408   7.650
 5221POPC   C1B13447  16.765  38.216   8.550
 5221POPC   C2B13448  16.678  38.247   8.250
 5221POPC   C3B13449  16.707  38.178   7.950
 5221POPC   C4B13450  16.749  38.218   7.650
 5222POPC   NC313451  43.138  35.374   9.450
 5222POPC   PO413452  43.111  35.310   9.150
 5222POPC   GL113453  43.130  35.342   8.850
 5222POPC   GL213454  43.191  35.332   8.850
 5222POPC   C1A13455  43.158  35.358   8.550
 5222POPC   D2A13456  43.080  35.318   8.250
 5222POPC   C3A13457  43.132  35.319   7.950
 5222POPC   C4A13458  43.105  35.364   7.650
 5222POPC   C1B13459  43.334  35.211   8.550
 5222POPC   C2B13460  43.357  35.209   8.250
 5222POPC   C3B13461  43.376  35.239   7.950
 5222POPC   C4B13462  43.299  35.250   7.650
 5223POPC   NC313463  23.711   4.270   9.450
 5223POPC   PO413464  23.746   4.347   9.150
 5223POPC   GL113465  23.709   4.362   8.850
 5223POPC   GL213466  23.840   4.390   8.850
 5223POPC   C1A13467  23.666   4.351   8.550
 5223POPC   D2A13468  23.752   4.349   8.250
 5223POPC   C3A13469  23.673   4.299   7.950
 5223POPC   C4A13470  23.668   4.335   7.650
 5223POPC   C1B13471  23.992   4.360   8.550
 5223POPC   C2B13472  23.908   4.437   8.250
 5223POPC   C3B13473  23.901   4.406   7.950
 5223POPC   C4B13474  23.917   4.371   7.650
 5224POPC   NC313475  35.352   8.213   9.450
 5224POPC   PO413476  35.352   8.210   9.150
 5224POPC   GL113477  35.337   8.246   8.850
 5224POPC   GL213478  35.243   8.157   8.850
 5224POPC   C1A13479  35.302   8.237   8.550
 5224POPC   D2A13480  35.370   8.212   8.250
 5224POPC   C3A13481  35.353   8.243   7.950
 5224POPC   C4A13482  35.364   8.224   7.650
 5224POPC   C1B13483  35.101   8.191   8.550
 5224POPC   C2B13484  35.081   8.185   8.250
 5224POPC   C3B13485  35.069   8.103   7.950
 5224POPC   C4B13486  35.116   8.200   7.650
 5225POPC   NC313487  36.923  30.660   9.450
 5225POPC   PO413488  36.867  30.677   9.150
 5225POPC   GL113489  36.925  30.728   8.850
 5225POPC   GL213490  36.809  30.752   8.850
 5225POPC   C1A13491  36.883  30.688   8.550
 5225POPC   D2A13492  36.929  30.714   8.250
 5225POPC   C3A13493  36.858  30.649   7.950
 5225POPC   C4A13494  36.858  30.699   7.650
 5225POPC   C1B13495  36.622  30.798   8.550
 5225POPC   C2B13496  36.694  30.800   8.250
 5225POPC   C3B13497  36.676  30.799   7.950
 5225POPC   C4B13498  36.687  30.787   7.650
 5226POPC   NC313499  22.132  20.587   9.450
 5226POPC   PO413500  22.167  20.597   9.150
 5226POPC   GL113501  22.149  20.591   8.850
 5226POPC   GL213502  22.267  20.485   8.850
 5226POPC   C1A13503  22.138  20.594   8.550
 5226POPC   D2A13504  22.122  20.621   8.250
 5226POPC   C3A13505  22.155  20.616   7.950
 5226POPC   C4A13506  22.121  20.615   7.650
 5226POPC   C1B13507  22.289  20.464   8.550
 5226POPC   C2B13508  22.332  20.377   8.250
 5226POPC   C3B13509  22.291  20.406   7.950
 5226POPC   C4B13510  22.291  20.472   7.650
 5227POPC   NC313511  21.408   5.045   9.450
 5227POPC   PO413512  21.426   5.068   9.150
 5227POPC   GL113513  21.395   5.115   8.850
 5227POPC   GL213514  21.530   5.075   8.850
 5227POPC   C1A13515  21.435   5.111   8.550
 5227POPC   D2A13516  21.422   5.078   8.250
 5227POPC   C3A13517  21.410   5.091   7.950
 5227POPC   C4A13518  21.338   5.131   7.650
 5227POPC   C1B13519  21.634   5.066   8.550
 5227POPC   C2B13520  21.682   5.070   8.250
 5227POPC   C3B13521  21.628   5.104   7.950
 5227POPC   C4B13522  21.638   5.036   7.650
 5228POPC   NC313523  38.498  15.980   9.450
 5228POPC   PO413524  38.438  15.967   9.150
 5228POPC   GL113525  38.486  15.951   8.850
 5228POPC   GL213526  38.405  15.815   8.850
 5228POPC   C1A13527  38.501  15.947   8.550
 5228POPC   D2A13528  38.423  15.935   8.250
 5228POPC   C3A13529  38.463  15.921   7.950
 5228POPC   C4A13530  38.448  16.001   7.650
 5228POPC   C1B13531  38.316  15.742   8.550
 5228POPC   C2B13532  38.388  15.684   8.250
 5228POPC   C3B13533  38.368  15.748   7.950
 5228POPC   C4B13534  38.348  15.749   7.650
 5229POPC   NC313535  44.641  29.924   9.450
 5229POPC   PO413536  44.711  29.919   9.150
 5229POPC   GL113537  44.685  29.880   8.850
 5229POPC   GL213538  44.696  29.810   8.850
 5229POPC   C1A13539  44.689  29.886   8.550
 5229POPC   D2A13540  44.696  29.951   8.250
 5229POPC   C3A13541  44.706  29.953   7.950
 5229POPC   C4A13542  44.686  29.943   7.650
 5229POPC   C1B13543  44.734  29.705   8.550
 5229POPC   C2B13544  44.778  29.639   8.250
 5229POPC   C3B13545  44.690  29.718   7.950
 5229POPC   C4B13546  44.709  29.707   7.650
 5230POPC   NC313547   5.901  22.154   9.450
 5230POPC   PO413548   5.861  22.142   9.150
 5230POPC   GL113549   5.892  22.115   8.850
 5230POPC   GL213550   5.845  22.293   8.850
 5230POPC   C1A13551   5.904  22.181   8.550
 5230POPC   D2A13552   5.846  22.137   8.250
 5230POPC   C3A13553   5.851  22.144   7.950
 5230POPC   C4A13554   5.892  22.158   7.650
 5230POPC   C1B13555   5.776  22.381   8.550
 5230POPC   C2B13556   5.817  22.393   8.250
 5230POPC   C3B13557   5.847  22.387   7.950
 5230POPC   C4B13558   5.810  22.413   7.650
 5231POPC   NC313559  18.275  30.672   9.450
 5231POPC   PO413560  18.268  30.743   9.150
 5231POPC   GL113561  18.249  30.686   8.850
 5231POPC   GL213562  18.196  30.672   8.850
 5231POPC   C1A13563  18.255  30.669   8.550
 5231POPC   D2A13564  18.281  30.685   8.250
 5231POPC   C3A13565  18.285  30.690   7.950
 5231POPC   C4A13566  18.330  30.733   7.650
 5231POPC   C1B13567  18.051  30.709   8.550
 5231POPC   C2B13568  17.993  30.642   8.250
 5231POPC   C3B13569  18.045  30.660   7.950
 5231POPC   C4B13570  18.059  30.672   7.650
 5232POPC   NC313571  16.702  18.277   9.450
 5232POPC   PO413572  16.695  18.282   9.150
 5232POPC   GL113573  16.729  18.249   8.850
 5232POPC   GL213574  16.856  18.357   8.850
 5232POPC   C1A13575  16.712  18.312   8.550
 5232POPC   D2A13576  16.717  18.306   8.250
 5232POPC   C3A13577  16.714  18.290   7.950
 5232POPC   C4A13578  16.766  18.238   7.650
 5232POPC   C1B13579  16.974  18.431   8.550
 5232POPC   C2B13580  16.885  18.457   8.250
 5232POPC   C3B13581  16.904  18.414   7.950
 5232POPC   C4B13582  16.955  18.454   7.650
 5233POPC   NC313583  33.035  24.487   9.450
 5233POPC   PO413584  32.996  24.513   9.150
 5233POPC   GL113585  32.978  24.527   8.850
 5233POPC   GL213586  32.968  24.370   8.850
 5233POPC   C1A13587  32.979  24.522   8.550
 5233POPC   D2A13588  33.029  24.490   8.250
 5233POPC   C3A13589  33.013  24.533   7.950
 5233POPC   C4A13590  33.006  24.456   7.650
 5233POPC   C1B13591  32.879  24.294   8.550
 5233POPC   C2B13592  32.869  24.285   8.250
 5233POPC   C3B13593  32.896  24.287   7.950
 5233POPC   C4B13594  32.828  24.312   7.650
 5234POPC   NC313595  26.800  33.778   9.450
 5234POPC   PO413596  26.835  33.762   9.150
 5234POPC   GL113597  26.853  33.835   8.850
 5234POPC   GL213598  26.887  33.858   8.850
 5234POPC   C1A13599  26.797  33.841   8.550
 5234POPC   D2A13600  26.778  33.807   8.250
 5234POPC   C3A13601  26.847  33.789   7.950
 5234POPC   C4A13602  26.815  33.805   7.650
 5234POPC   C1B13603  27.017  33.948   8.550
 5234POPC   C2B13604  27.049  33.871   8.250
 5234POPC   C3B13605  27.052  33.891   7.950
 5234POPC   C4B13606  27.043  33.939   7.650
 5235POPC   NC313607  20.591  43.917   9.450
 5235POPC   PO413608  20.648  43.846   9.150
 5235POPC   GL113609  20.637  43.919   8.850
 5235POPC   GL213610  20.507  43.867   8.850
 5235POPC   C1A13611  20.589  43.880   8.550
 5235POPC   D2A13612  20.645  43.924   8.250
 5235POPC   C3A13613  20.641  43.870   7.950
 5235POPC   C4A13614  20.627  43.884   7.650
 5235POPC   C1B13615  20.337  43.793   8.550
 5235POPC   C2B13616  20.422  43.758   8.250
 5235POPC   C3B13617  20.360  43.838   7.950
 5235POPC   C4B13618  20.407  43.771   7.650
 5236POPC   NC313619  16.000  36.921   9.450
 5236POPC   PO413620  15.957  36.903   9.150
 5236POPC   GL113621  15.922  36.930   8.850
 5236POPC   GL213622  15.850  36.887   8.850
 5236POPC   C1A13623  15.937  36.887   8.550
 5236POPC   D2A13624  15.998  36.939   8.250
 5236POPC   C3A13625  15.946  36.871   7.950
 5236POPC   C4A13626  16.004  36.932   7.650
 5236POPC   C1B13627  15.686  36.834   8.550
 5236POPC   C2B13628  15.762  36.854   8.250
 5236POPC   C3B13629  15.682  36.854   7.950
 5236POPC   C4B13630  15.734  36.889   7.650
 5237POPC   NC313631   9.013  43.094   9.450
 5237POPC   PO413632   8.928  43.078   9.150
 5237POPC   GL113633   8.964  43.089   8.850
 5237POPC   GL213634   9.032  43.204   8.850
 5237POPC   C1A13635   8.973  43.131   8.550
 5237POPC   D2A13636   9.001  43.082   8.250
 5237POPC   C3A13637   8.951  43.147   7.950
 5237POPC   C4A13638   8.994  43.142   7.650
 5237POPC   C1B13639   9.193  43.241   8.550
 5237POPC   C2B13640   9.212  43.212   8.250
 5237POPC   C3B13641   9.192  43.233   7.950
 5237POPC   C4B13642   9.206  43.219   7.650
 5238POPC   NC313643  43.841   2.039   9.450
 5238POPC   PO413644  43.874   1.978   9.150
 5238POPC   GL113645  43.867   2.027   8.850
 5238POPC   GL213646  43.954   2.124   8.850
 5238POPC   C1A13647  43.893   2.035   8.550
 5238POPC   D2A13648  43.898   1.993   8.250
 5238POPC   C3A13649  43.844   1.941   7.950
 5238POPC   C4A13650  43.907   2.005   7.650
 5238POPC   C1B13651  43.988   2.237   8.550
 5238POPC   C2B13652  44.056   2.252   8.250
 5238POPC   C3B13653  43.972   2.171   7.950
 5238POPC   C4B13654  44.047   2.239   7.650
 5239POPC   NC313655  33.038  26.845   9.450
 5239POPC   PO413656  33.063  26.768   9.150
 5239POPC   GL113657  33.069  26.795   8.850
 5239POPC   GL213658  33.141  26.848   8.850
 5239POPC   C1A13659  32.992  26.860   8.550
 5239POPC   D2A13660  33.001  26.791   8.250
 5239POPC   C3A13661  33.017  26.844   7.950
 5239POPC   C4A13662  33.001  26.806   7.650
 5239POPC   C1B13663  33.249  26.971   8.550
 5239POPC   C2B13664  33.246  26.936   8.250
 5239POPC   C3B13665  33.222  26.916   7.950
 5239POPC   C4B13666  33.181  26.976   7.650
 5240POPC   NC313667  33.768   3.502   9.450
 5240POPC   PO413668  33.811   3.516   9.150
 5240POPC   GL113669  33.774   3.504   8.850
 5240POPC   GL213670  33.851   3.642   8.850
 5240POPC   C1A13671  33.813   3.518   8.550
 5240POPC   D2A13672  33.774   3.584   8.250
 5240POPC   C3A13673  33.818   3.527   7.950
 5240POPC   C4A13674  33.820   3.589   7.650
 5240POPC   C1B13675  33.804   3.742   8.550
 5240POPC   C2B13676  33.818   3.807   8.250
 5240POPC   C3B13677  33.776   3.815   7.950
 5240POPC   C4B13678  33.780   3.795   7.650
 5241POPC   NC313679   5.872  15.174   9.450
 5241POPC   PO413680   5.827  15.190   9.150
 5241POPC   GL113681   5.846  15.132   8.850
 5241POPC   GL213682   5.917  15.267   8.850
 5241POPC   C1A13683   5.856  15.214   8.550
 5241POPC   D2A13684   5.825  15.145   8.250
 5241POPC   C3A13685   5.901  15.206   7.950
 5241POPC   C4A13686   5.858  15.188   7.650
 5241POPC   C1B13687   5.861  15.465   8.550
 5241POPC   C2B13688   5.931  15.476   8.250
 5241POPC   C3B13689   5.936  15.473   7.950
 5241POPC   C4B13690   5.917  15.473   7.650
 5242POPC   NC313691  41.570  24.465   9.450
 5242POPC   PO413692  41.567  24.465   9.150
 5242POPC   GL113693  41.563  24.520   8.850
 5242POPC   GL213694  41.609  24.377   8.850
 5242POPC   C1A13695  41.515  24.512   8.550
 5242POPC   D2A13696  41.580  24.455   8.250
 5242POPC   C3A13697  41.544  24.501   7.950
 5242POPC   C4A13698  41.605  24.530   7.650
 5242POPC   C1B13699  41.629  24.275   8.550
 5242POPC   C2B13700  41.670  24.269   8.250
 5242POPC   C3B13701  41.666  24.276   7.950
 5242POPC   C4B13702  41.655  24.295   7.650
 5243POPC   NC313703   3.542   3.575   9.450
 5243POPC   PO413704   3.499   3.560   9.150
 5243POPC   GL113705   3.564   3.542   8.850
 5243POPC   GL213706   3.463   3.605   8.850
 5243POPC   C1A13707   3.498   3.568   8.550
 5243POPC   D2A13708   3.528   3.539   8.250
 5243POPC   C3A13709   3.588   3.589   7.950
 5243POPC   C4A13710   3.512   3.520   7.650
 5243POPC   C1B13711   3.287   3.646   8.550
 5243POPC   C2B13712   3.291   3.664   8.250
 5243POPC   C3B13713   3.322   3.619   7.950
 5243POPC   C4B13714   3.288   3.707   7.650
 5244POPC   NC313715  17.555   0.400   9.450
 5244POPC   PO413716  17.510   0.473   9.150
 5244POPC   GL113717  17.509   0.468   8.850
 5244POPC   GL213718  17.410   0.553   8.850
 5244POPC   C1A13719  17.507   0.471   8.550
 5244POPC   D2A13720  17.508   0.393   8.250
 5244POPC   C3A13721  17.497   0.444   7.950
 5244POPC   C4A13722  17.529   0.391   7.650
 5244POPC   C1B13723  17.369   0.666   8.550
 5244POPC   C2B13724  17.367   0.601   8.250
 5244POPC   C3B13725  17.384   0.624   7.950
 5244POPC   C4B13726  17.367   0.685   7.650
 5245POPC   NC313727  26.089  22.985   9.450
 5245POPC   PO413728  26.047  22.905   9.150
 5245POPC   GL113729  26.016  22.930   8.850
 5245POPC   GL213730  26.043  22.854   8.850
 5245POPC   C1A13731  26.086  22.963   8.550
 5245POPC   D2A13732  26.026  22.907   8.250
 5245POPC   C3A13733  26.064  22.923   7.950
 5245POPC   C4A13734  26.001  22.918   7.650
 5245POPC   C1B13735  26.020  22.655   8.550
 5245POPC   C2B13736  26.008  22.707   8.250
 5245POPC   C3B13737  25.960  22.666   7.950
 5245POPC   C4B13738  25.991  22.646   7.650
 5246POPC   NC313739  28.353  30.727   9.450
 5246POPC   PO413740  28.389  30.701   9.150
 5246POPC   GL113741  28.413  30.654   8.850
 5246POPC   GL213742  28.406  30.559   8.850
 5246POPC   C1A13743  28.408  30.711   8.550
 5246POPC   D2A13744  28.344  30.701   8.250
 5246POPC   C3A13745  28.405  30.726   7.950
 5246POPC   C4A13746  28.324  30.703   7.650
 5246POPC   C1B13747  28.554  30.484   8.550
 5246POPC   C2B13748  28.514  30.513   8.250
 5246POPC   C3B13749  28.546  30.498   7.950
 5246POPC   C4B13750  28.478  30.522   7.650
 5247POPC   NC313751  35.332  12.894   9.450
 5247POPC   PO413752  35.364  12.869   9.150
 5247POPC   GL113753  35.366  12.896   8.850
 5247POPC   GL213754  35.370  12.996   8.850
 5247POPC   C1A13755  35.385  12.842   8.550
 5247POPC   D2A13756  35.305  12.889   8.250
 5247POPC   C3A13757  35.312  12.808   7.950
 5247POPC   C4A13758  35.389  12.856   7.650
 5247POPC   C1B13759  35.437  13.067   8.550
 5247POPC   C2B13760  35.427  13.102   8.250
 5247POPC   C3B13761  35.426  13.113   7.950
 5247POPC   C4B13762  35.501  13.122   7.650
 5248POPC   NC313763   8.188  12.083   9.450
 5248POPC   PO413764   8.214  12.072   9.150
 5248POPC   GL113765   8.214  12.046   8.850
 5248POPC   GL213766   8.067  12.133   8.850
 5248POPC   C1A13767   8.155  12.048   8.550
 5248POPC   D2A13768   8.222  12.048   8.250
 5248POPC   C3A13769   8.176  12.074   7.950
 5248POPC   C4A13770   8.173  12.029   7.650
 5248POPC   C1B13771   7.989  12.205   8.550
 5248POPC   C2B13772   7.981  12.191   8.250
 5248POPC   C3B13773   8.047  12.269   7.950
 5248POPC   C4B13774   7.982  12.216   7.650
 5249POPC   NC313775  25.312  13.603   9.450
 5249POPC   PO413776  25.231  13.674   9.150
 5249POPC   GL113777  25.286  13.585   8.850
 5249POPC   GL213778  25.360  13.620   8.850
 5249POPC   C1A13779  25.250  13.630   8.550
 5249POPC   D2A13780  25.290  13.620   8.250
 5249POPC   C3A13781  25.233  13.595   7.950
 5249POPC   C4A13782  25.299  13.590   7.650
 5249POPC   C1B13783  25.538  13.694   8.550
 5249POPC   C2B13784  25.543  13.635   8.250
 5249POPC   C3B13785  25.487  13.688   7.950
 5249POPC   C4B13786  25.473  13.710   7.650
 5250POPC   NC313787   6.664  22.176   9.450
 5250POPC   PO413788   6.676  22.144   9.150
 5250POPC   GL113789   6.639  22.120   8.850
 5250POPC   GL213790   6.766  22.217   8.850
 5250POPC   C1A13791   6.661  22.182   8.550
 5250POPC   D2A13792   6.666  22.142   8.250
 5250POPC   C3A13793   6.649  22.116   7.950
 5250POPC   C4A13794   6.645  22.166   7.650
 5250POPC   C1B13795   6.805  22.401   8.550
 5250POPC   C2B13796   6.836  22.360   8.250
 5250POPC   C3B13797   6.774  22.365   7.950
 5250POPC   C4B13798   6.783  22.338   7.650
 5251POPC   NC313799  24.502   0.459   9.450
 5251POPC   PO413800  24.440   0.471   9.150
 5251POPC   GL113801  24.511   0.454   8.850
 5251POPC   GL213802  24.450   0.550   8.850
 5251POPC   C1A13803  24.506   0.445   8.550
 5251POPC   D2A13804  24.454   0.455   8.250
 5251POPC   C3A13805  24.466   0.477   7.950
 5251POPC   C4A13806  24.523   0.420   7.650
 5251POPC   C1B13807  24.501   0.699   8.550
 5251POPC   C2B13808  24.453   0.716   8.250
 5251POPC   C3B13809  24.523   0.699   7.950
 5251POPC   C4B13810  24.439   0.724   7.650
 5252POPC   NC313811   2.747   2.809   9.450
 5252POPC   PO413812   2.752   2.801   9.150
 5252POPC   GL113813   2.786   2.783   8.850
 5252POPC   GL213814   2.723   2.690   8.850
 5252POPC   C1A13815   2.802   2.781   8.550
 5252POPC   D2A13816   2.760   2.777   8.250
 5252POPC   C3A13817   2.803   2.798   7.950
 5252POPC   C4A13818   2.737   2.721   7.650
 5252POPC   C1B13819   2.673   2.566   8.550
 5252POPC   C2B13820   2.602   2.510   8.250
 5252POPC   C3B13821   2.638   2.513   7.950
 5252POPC   C4B13822   2.610   2.586   7.650
 5253POPC   NC313823  14.402  24.475   9.450
 5253POPC   PO413824  14.376  24.441   9.150
 5253POPC   GL113825  14.374  24.514   8.850
 5253POPC   GL213826  14.232  24.542   8.850
 5253POPC   C1A13827  14.438  24.524   8.550
 5253POPC   D2A13828  14.424  24.502   8.250
 5253POPC   C3A13829  14.388  24.485   7.950
 5253POPC   C4A13830  14.429  24.513   7.650
 5253POPC   C1B13831  14.121  24.516   8.550
 5253POPC   C2B13832  14.112  24.551   8.250
 5253POPC   C3B13833  14.115  24.524   7.950
 5253POPC   C4B13834  14.131  24.470   7.650
 5254POPC   NC313835  12.085  43.146   9.450
 5254POPC   PO413836  12.032  43.125   9.150
 5254POPC   GL113837  12.028  43.159   8.850
 5254POPC   GL213838  12.029  42.993   8.850
 5254POPC   C1A13839  12.038  43.107   8.550
 5254POPC   D2A13840  12.042  43.100   8.250
 5254POPC   C3A13841  12.102  43.079   7.950
 5254POPC   C4A13842  12.100  43.066   7.650
 5254POPC   C1B13843  12.105  42.881   8.550
 5254POPC   C2B13844  12.058  42.814   8.250
 5254POPC   C3B13845  12.080  42.845   7.950
 5254POPC   C4B13846  12.066  42.908   7.650
 5255POPC   NC313847  36.133   4.322   9.450
 5255POPC   PO413848  36.176   4.332   9.150
 5255POPC   GL113849  36.142   4.296   8.850
 5255POPC   GL213850  36.111   4.447   8.850
 5255POPC   C1A13851  36.083   4.288   8.550
 5255POPC   D2A13852  36.152   4.355   8.250
 5255POPC   C3A13853  36.154   4.281   7.950
 5255POPC   C4A13854  36.119   4.340   7.650
 5255POPC   C1B13855  36.143   4.546   8.550
 5255POPC   C2B13856  36.134   4.600   8.250
 5255POPC   C3B13857  36.077   4.553   7.950
 5255POPC   C4B13858  36.105   4.588   7.650
 5256POPC   NC313859  40.049  12.850   9.450
 5256POPC   PO413860  39.962  12.880   9.150
 5256POPC   GL113861  40.036  12.850   8.850
 5256POPC   GL213862  39.897  12.722   8.850
 5256POPC   C1A13863  40.011  12.863   8.550
 5256POPC   D2A13864  40.044  12.874   8.250
 5256POPC   C3A13865  40.002  12.854   7.950
 5256POPC   C4A13866  40.004  12.888   7.650
 5256POPC   C1B13867  39.821  12.664   8.550
 5256POPC   C2B13868  39.806  12.731   8.250
 5256POPC   C3B13869  39.801  12.652   7.950
 5256POPC   C4B13870  39.771  12.644   7.650
 5257POPC   NC313871   5.896   5.086   9.450
 5257POPC   PO413872   5.907   5.135   9.150
 5257POPC   GL113873   5.904   5.142   8.850
 5257POPC   GL213874   5.793   5.219   8.850
 5257POPC   C1A13875   5.862   5.080   8.550
 5257POPC   D2A13876   5.881   5.131   8.250
 5257POPC   C3A13877   5.888   5.091   7.950
 5257POPC   C4A13878   5.832   5.121   7.650
 5257POPC   C1B13879   5.709   5.331   8.550
 5257POPC   C2B13880   5.725   5.329   8.250
 5257POPC   C3B13881   5.673   5.234   7.950
 5257POPC   C4B13882   5.738   5.316   7.650
 5258POPC   NC313883  26.795   8.957   9.450
 5258POPC   PO413884  26.801   8.971   9.150
 5258POPC   GL113885  26.803   8.971   8.850
 5258POPC   GL213886  26.923   8.978   8.850
 5258POPC   C1A13887  26.831   9.014   8.550
 5258POPC   D2A13888  26.783   8.977   8.250
 5258POPC   C3A13889  26.855   9.008   7.950
 5258POPC   C4A13890  26.768   9.015   7.650
 5258POPC   C1B13891  27.106   8.879   8.550
 5258POPC   C2B13892  27.060   8.871   8.250
 5258POPC   C3B13893  27.052   8.890   7.950
 5258POPC   C4B13894  27.047   8.874   7.650
 5259POPC   NC313895  40.041  22.958   9.450
 5259POPC   PO413896  40.048  22.968   9.150
 5259POPC   GL113897  39.971  22.906   8.850
 5259POPC   GL213898  39.880  22.855   8.850
 5259POPC   C1A13899  39.972  22.965   8.550
 5259POPC   D2A13900  40.026  22.983   8.250
 5259POPC   C3A13901  39.966  22.917   7.950
 5259POPC   C4A13902  40.052  22.953   7.650
 5259POPC   C1B13903  39.724  22.885   8.550
 5259POPC   C2B13904  39.769  22.814   8.250
 5259POPC   C3B13905  39.780  22.887   7.950
 5259POPC   C4B13906  39.737  22.879   7.650
 5260POPC   NC313907  39.991  12.041   9.450
 5260POPC   PO413908  39.978  12.057   9.150
 5260POPC   GL113909  39.957  12.090   8.850
 5260POPC   GL213910  39.960  12.190   8.850
 5260POPC   C1A13911  40.056  12.033   8.550
 5260POPC   D2A13912  39.970  12.125   8.250
 5260POPC   C3A13913  40.021  12.072   7.950
 5260POPC   C4A13914  40.002  12.094   7.650
 5260POPC   C1B13915  39.984  12.279   8.550
 5260POPC   C2B13916  39.994  12.278   8.250
 5260POPC   C3B13917  39.990  12.356   7.950
 5260POPC   C4B13918  39.963  12.310   7.650
 5261POPC   NC313919  23.711  37.678   9.450
 5261POPC   PO413920  23.722  37.689   9.150
 5261POPC   GL113921  23.707  37.688   8.850
 5261POPC   GL213922  23.855  37.682   8.850
 5261POPC   C1A13923  23.679  37.726   8.550
 5261POPC   D2A13924  23.747  37.713   8.250
 5261POPC   C3A13925  23.700  37.675   7.950
 5261POPC   C4A13926  23.713  37.672   7.650
 5261POPC   C1B13927  23.917  37.665   8.550
 5261POPC   C2B13928  23.948  37.626   8.250
 5261POPC   C3B13929  23.965  37.613   7.950
 5261POPC   C4B13930  23.973  37.672   7.650
 5262POPC   NC313931   5.083  43.061   9.450
 5262POPC   PO413932   5.113  43.153   9.150
 5262POPC   GL113933   5.134  43.135   8.850
 5262POPC   GL213934   5.011  43.064   8.850
 5262POPC   C1A13935   5.080  43.157   8.550
 5262POPC   D2A13936   5.101  43.131   8.250
 5262POPC   C3A13937   5.066  43.097   7.950
 5262POPC   C4A13938   5.101  43.116   7.650
 5262POPC   C1B13939   4.871  42.979   8.550
 5262POPC   C2B13940   4.898  42.919   8.250
 5262POPC   C3B13941   4.925  42.985   7.950
 5262POPC   C4B13942   4.908  42.972   7.650
 5263POPC   NC313943   9.764  11.288   9.450
 5263POPC   PO413944   9.786  11.276   9.150
 5263POPC   GL113945   9.783  11.295   8.850
 5263POPC   GL213946   9.761  11.457   8.850
 5263POPC   C1A13947   9.759  11.289   8.550
 5263POPC   D2A13948   9.720  11.291   8.250
 5263POPC   C3A13949   9.769  11.304   7.950
 5263POPC   C4A13950   9.729  11.341   7.650
 5263POPC   C1B13951   9.764  11.526   8.550
 5263POPC   C2B13952   9.796  11.560   8.250
 5263POPC   C3B13953   9.780  11.596   7.950
 5263POPC   C4B13954   9.751  11.566   7.650
 5264POPC   NC313955   2.008  12.879   9.450
 5264POPC   PO413956   1.952  12.826   9.150
 5264POPC   GL113957   2.016  12.867   8.850
 5264POPC   GL213958   1.864  12.762   8.850
 5264POPC   C1A13959   1.989  12.881   8.550
 5264POPC   D2A13960   1.988  12.880   8.250
 5264POPC   C3A13961   2.015  12.825   7.950
 5264POPC   C4A13962   1.944  12.826   7.650
 5264POPC   C1B13963   1.741  12.692   8.550
 5264POPC   C2B13964   1.778  12.725   8.250
 5264POPC   C3B13965   1.747  12.678   7.950
 5264POPC   C4B13966   1.725  12.712   7.650
 5265POPC   NC313967  40.028  43.914   9.450
 5265POPC   PO413968  39.998  43.876   9.150
 5265POPC   GL113969  39.996  43.848   8.850
 5265POPC   GL213970  39.939  43.960   8.850
 5265POPC   C1A13971  39.989  43.861   8.550
 5265POPC   D2A13972  39.970  43.909   8.250
 5265POPC   C3A13973  39.965  43.861   7.950
 5265POPC   C4A13974  40.005  43.857   7.650
 5265POPC   C1B13975  39.737  43.962   8.550
 5265POPC   C2B13976  39.771  44.017   8.250
 5265POPC   C3B13977  39.762  44.008   7.950
 5265POPC   C4B13978  39.796  43.974   7.650
 5266POPC   NC313979   0.393  32.297   9.450
 5266POPC   PO413980   0.477  32.296   9.150
 5266POPC   GL113981   0.446  32.278   8.850
 5266POPC   GL213982   0.486  32.375   8.850
 5266POPC   C1A13983   0.473  32.229   8.550
 5266POPC   D2A13984   0.469  32.242   8.250
 5266POPC   C3A13985   0.430  32.284   7.950
 5266POPC   C4A13986   0.468  32.200   7.650
 5266POPC   C1B13987   0.453  32.484   8.550
 5266POPC   C2B13988   0.480  32.469   8.250
 5266POPC   C3B13989   0.473  32.443   7.950
 5266POPC   C4B13990   0.541  32.464   7.650
 5267POPC   NC313991  14.451  26.000   9.450
 5267POPC   PO413992  14.367  26.043   9.150
 5267POPC   GL113993  14.423  26.061   8.850
 5267POPC   GL213994  14.491  25.938   8.850
 5267POPC   C1A13995  14.386  26.001   8.550
 5267POPC   D2A13996  14.382  25.997   8.250
 5267POPC   C3A13997  14.412  25.997   7.950
 5267POPC   C4A13998  14.359  26.007   7.650
 5267POPC   C1B13999  14.646  25.891   8.550
 5267POPC   C2B14000  14.608  25.925   8.250
 5267POPC   C3B14001  14.644  25.946   7.950
 5267POPC   C4B14002  14.612  25.915   7.650
 5268POPC   NC314003  42.309  22.178   9.450
 5268POPC   PO414004  42.372  22.192   9.150
 5268POPC   GL114005  42.287  22.133   8.850
 5268POPC   GL214006  42.230  22.235   8.850
 5268POPC   C1A14007  42.360  22.143   8.550
 5268POPC   D2A14008  42.295  22.181   8.250
 5268POPC   C3A14009  42.326  22.204   7.950
 5268POPC   C4A14010  42.286  22.198   7.650
 5268POPC   C1B14011  42.197  22.400   8.550
 5268POPC   C2B14012  42.231  22.390   8.250
 5268POPC   C3B14013  42.202  22.412   7.950
 5268POPC   C4B14014  42.206  22.399   7.650
 5269POPC   NC314015   5.895   0.392   9.450
 5269POPC   PO414016   5.899   0.428   9.150
 5269POPC   GL114017   5.843   0.421   8.850
 5269POPC   GL214018   5.823   0.569   8.850
 5269POPC   C1A14019   5.897   0.427   8.550
 5269POPC   D2A14020   5.863   0.453   8.250
 5269POPC   C3A14021   5.912   0.403   7.950
 5269POPC   C4A14022   5.878   0.472   7.650
 5269POPC   C1B14023   5.895   0.730   8.550
 5269POPC   C2B14024   5.829   0.659   8.250
 5269POPC   C3B14025   5.865   0.684   7.950
 5269POPC   C4B14026   5.900   0.648   7.650
 5270POPC   NC314027  29.157  30.740   9.450
 5270POPC   PO414028  29.178  30.732   9.150
 5270POPC   GL114029  29.179  30.726   8.850
 5270POPC   GL214030  29.154  30.810   8.850
 5270POPC   C1A14031  29.137  30.714   8.550
 5270POPC   D2A14032  29.100  30.658   8.250
 5270POPC   C3A14033  29.177  30.707   7.950
 5270POPC   C4A14034  29.189  30.705   7.650
 5270POPC   C1B14035  29.131  30.945   8.550
 5270POPC   C2B14036  29.116  30.989   8.250
 5270POPC   C3B14037  29.047  30.959   7.950
 5270POPC   C4B14038  29.075  30.946   7.650
 5271POPC   NC314039  31.495  29.890   9.450
 5271POPC   PO414040  31.470  29.967   9.150
 5271POPC   GL114041  31.439  29.941   8.850
 5271POPC   GL214042  31.555  29.851   8.850
 5271POPC   C1A14043  31.449  29.935   8.550
 5271POPC   D2A14044  31.439  29.961   8.250
 5271POPC   C3A14045  31.428  29.899   7.950
 5271POPC   C4A14046  31.507  29.969   7.650
 5271POPC   C1B14047  31.653  29.803   8.550
 5271POPC   C2B14048  31.658  29.802   8.250
 5271POPC   C3B14049  31.643  29.710   7.950
 5271POPC   C4B14050  31.678  29.803   7.650
 5272POPC   NC314051  19.804  27.619   9.450
 5272POPC   PO414052  19.871  27.614   9.150
 5272POPC   GL114053  19.858  27.545   8.850
 5272POPC   GL214054  19.762  27.520   8.850
 5272POPC   C1A14055  19.825  27.563   8.550
 5272POPC   D2A14056  19.865  27.619   8.250
 5272POPC   C3A14057  19.843  27.570   7.950
 5272POPC   C4A14058  19.829  27.545   7.650
 5272POPC   C1B14059  19.580  27.438   8.550
 5272POPC   C2B14060  19.588  27.497   8.250
 5272POPC   C3B14061  19.672  27.489   7.950
 5272POPC   C4B14062  19.649  27.479   7.650
 5273POPC   NC314063   1.227  27.600   9.450
 5273POPC   PO414064   1.232  27.586   9.150
 5273POPC   GL114065   1.245  27.624   8.850
 5273POPC   GL214066   1.243  27.503   8.850
 5273POPC   C1A14067   1.197  27.582   8.550
 5273POPC   D2A14068   1.239  27.642   8.250
 5273POPC   C3A14069   1.221  27.596   7.950
 5273POPC   C4A14070   1.233  27.610   7.650
 5273POPC   C1B14071   1.314  27.421   8.550
 5273POPC   C2B14072   1.342  27.358   8.250
 5273POPC   C3B14073   1.358  27.409   7.950
 5273POPC   C4B14074   1.358  27.341   7.650
 5274POPC   NC314075   2.759  36.129   9.450
 5274POPC   PO414076   2.783  36.107   9.150
 5274POPC   GL114077   2.743  36.169   8.850
 5274POPC   GL214078   2.687  36.032   8.850
 5274POPC   C1A14079   2.759  36.133   8.550
 5274POPC   D2A14080   2.784  36.148   8.250
 5274POPC   C3A14081   2.799  36.119   7.950
 5274POPC   C4A14082   2.803  36.159   7.650
 5274POPC   C1B14083   2.596  35.983   8.550
 5274POPC   C2B14084   2.591  35.932   8.250
 5274POPC   C3B14085   2.627  35.928   7.950
 5274POPC   C4B14086   2.597  35.937   7.650
 5275POPC   NC314087  30.651  20.568   9.450
 5275POPC   PO414088  30.744  20.650   9.150
 5275POPC   GL114089  30.711  20.626   8.850
 5275POPC   GL214090  30.562  20.549   8.850
 5275POPC   C1A14091  30.707  20.581   8.550
 5275POPC   D2A14092  30.736  20.608   8.250
 5275POPC   C3A14093  30.727  20.562   7.950
 5275POPC   C4A14094  30.695  20.603   7.650
 5275POPC   C1B14095  30.538  20.467   8.550
 5275POPC   C2B14096  30.463  20.495   8.250
 5275POPC   C3B14097  30.490  20.411   7.950
 5275POPC   C4B14098  30.483  20.428   7.650
 5276POPC   NC314099  41.581   8.951   9.450
 5276POPC   PO414100  41.576   8.962   9.150
 5276POPC   GL114101  41.598   8.975   8.850
 5276POPC   GL214102  41.687   9.088   8.850
 5276POPC   C1A14103  41.571   8.938   8.550
 5276POPC   D2A14104  41.570   8.983   8.250
 5276POPC   C3A14105  41.522   8.974   7.950
 5276POPC   C4A14106  41.535   8.956   7.650
 5276POPC   C1B14107  41.734   9.205   8.550
 5276POPC   C2B14108  41.733   9.174   8.250
 5276POPC   C3B14109  41.680   9.151   7.950
 5276POPC   C4B14110  41.738   9.164   7.650
 5277POPC   NC314111  24.526  24.526   9.450
 5277POPC   PO414112  24.448  24.514   9.150
 5277POPC   GL114113  24.460  24.461   8.850
 5277POPC   GL214114  24.613  24.508   8.850
 5277POPC   C1A14115  24.479  24.451   8.550
 5277POPC   D2A14116  24.534  24.484   8.250
 5277POPC   C3A14117  24.515  24.460   7.950
 5277POPC   C4A14118  24.457  24.523   7.650
 5277POPC   C1B14119  24.709  24.548   8.550
 5277POPC   C2B14120  24.717  24.568   8.250
 5277POPC   C3B14121  24.707  24.533   7.950
 5277POPC   C4B14122  24.729  24.618   7.650
 5278POPC   NC314123  40.746  44.669   9.450
 5278POPC   PO414124  40.745  44.665   9.150
 5278POPC   GL114125  40.752  44.682   8.850
 5278POPC   GL214126  40.904  44.573   8.850
 5278POPC   C1A14127  40.752  44.623   8.550
 5278POPC   D2A14128  40.774  44.669   8.250
 5278POPC   C3A14129  40.795  44.626   7.950
 5278POPC   C4A14130  40.792  44.689   7.650
 5278POPC   C1B14131  41.053  44.562   8.550
 5278POPC   C2B14132  41.027  44.562   8.250
 5278POPC   C3B14133  40.995  44.548   7.950
 5278POPC   C4B14134  40.975  44.600   7.650
 5279POPC   NC314135  24.509  22.191   9.450
 5279POPC   PO414136  24.450  22.172   9.150
 5279POPC   GL114137  24.499  22.186   8.850
 5279POPC   GL214138  24.425  22.098   8.850
 5279POPC   C1A14139  24.509  22.181   8.550
 5279POPC   D2A14140  24.539  22.192   8.250
 5279POPC   C3A14141  24.450  22.166   7.950
 5279POPC   C4A14142  24.457  22.165   7.650
 5279POPC   C1B14143  24.375  21.960   8.550
 5279POPC   C2B14144  24.397  21.964   8.250
 5279POPC   C3B14145  24.358  21.978   7.950
 5279POPC   C4B14146  24.313  21.948   7.650
 5280POPC   NC314147  33.041   8.966   9.450
 5280POPC   PO414148  33.041   8.990   9.150
 5280POPC   GL114149  33.021   8.937   8.850
 5280POPC   GL214150  33.104   8.990   8.850
 5280POPC   C1A14151  33.054   8.988   8.550
 5280POPC   D2A14152  33.031   8.989   8.250
 5280POPC   C3A14153  33.071   8.943   7.950
 5280POPC   C4A14154  33.056   8.937   7.650
 5280POPC   C1B14155  33.290   8.899   8.550
 5280POPC   C2B14156  33.245   8.874   8.250
 5280POPC   C3B14157  33.312   8.919   7.950
 5280POPC   C4B14158  33.279   8.931   7.650
 5281POPC   NC314159  23.676  26.021   9.450
 5281POPC   PO414160  23.693  26.077   9.150
 5281POPC   GL114161  23.735  25.997   8.850
 5281POPC   GL214162  23.729  26.142   8.850
 5281POPC   C1A14163  23.672  26.063   8.550
 5281POPC   D2A14164  23.694  26.027   8.250
 5281POPC   C3A14165  23.751  26.074   7.950
 5281POPC   C4A14166  23.687  26.004   7.650
 5281POPC   C1B14167  23.859  26.246   8.550
 5281POPC   C2B14168  23.785  26.269   8.250
 5281POPC   C3B14169  23.800  26.229   7.950
 5281POPC   C4B14170  23.788  26.232   7.650
 5282POPC   NC314171   8.205  42.325   9.450
 5282POPC   PO414172   8.166  42.345   9.150
 5282POPC   GL114173   8.150  42.342   8.850
 5282POPC   GL214174   8.355  42.348   8.850
 5282POPC   C1A14175   8.173  42.293   8.550
 5282POPC   D2A14176   8.224  42.373   8.250
 5282POPC   C3A14177   8.243  42.299   7.950
 5282POPC   C4A14178   8.167  42.343   7.650
 5282POPC   C1B14179   8.424  42.256   8.550
 5282POPC   C2B14180   8.472  42.293   8.250
 5282POPC   C3B14181   8.455  42.270   7.950
 5282POPC   C4B14182   8.472  42.228   7.650
 5283POPC   NC314183  33.848  43.856   9.450
 5283POPC   PO414184  33.780  43.921   9.150
 5283POPC   GL114185  33.786  43.903   8.850
 5283POPC   GL214186  33.913  43.993   8.850
 5283POPC   C1A14187  33.799  43.871   8.550
 5283POPC   D2A14188  33.816  43.878   8.250
 5283POPC   C3A14189  33.837  43.841   7.950
 5283POPC   C4A14190  33.777  43.912   7.650
 5283POPC   C1B14191  33.948  44.094   8.550
 5283POPC   C2B14192  33.908  44.079   8.250
 5283POPC   C3B14193  33.937  44.135   7.950
 5283POPC   C4B14194  33.900  44.088   7.650
 5284POPC   NC314195  40.039   0.394   9.450
 5284POPC   PO414196  40.006   0.447   9.150
 5284POPC   GL114197  39.998   0.396   8.850
 5284POPC   GL214198  39.991   0.605   8.850
 5284POPC   C1A14199  40.021   0.428   8.550
 5284POPC   D2A14200  39.970   0.445   8.250
 5284POPC   C3A14201  39.971   0.418   7.950
 5284POPC   C4A14202  39.996   0.454   7.650
 5284POPC   C1B14203  40.105   0.697   8.550
 5284POPC   C2B14204  40.023   0.636   8.250
 5284POPC   C3B14205  40.069   0.643   7.950
 5284POPC   C4B14206  40.102   0.717   7.650
 5285POPC   NC314207   6.655  24.528   9.450
 5285POPC   PO414208   6.659  24.494   9.150
 5285POPC   GL114209   6.611  24.450   8.850
 5285POPC   GL214210   6.644  24.332   8.850
 5285POPC   C1A14211   6.614  24.447   8.550
 5285POPC   D2A14212   6.627  24.503   8.250
 5285POPC   C3A14213   6.641  24.494   7.950
 5285POPC   C4A14214   6.688  24.471   7.650
 5285POPC   C1B14215   6.576  24.248   8.550
 5285POPC   C2B14216   6.610  24.258   8.250
 5285POPC   C3B14217   6.556  24.251   7.950
 5285POPC   C4B14218   6.576  24.237   7.650
 5286POPC   NC314219  30.715  37.688   9.450
 5286POPC   PO414220  30.712  37.678   9.150
 5286POPC   GL114221  30.649  37.694   8.850
 5286POPC   GL214222  30.744  37.812   8.850
 5286POPC   C1A14223  30.673  37.654   8.550
 5286POPC   D2A14224  30.717  37.630   8.250
 5286POPC   C3A14225  30.725  37.701   7.950
 5286POPC   C4A14226  30.688  37.681   7.650
 5286POPC   C1B14227  30.761  37.960   8.550
 5286POPC   C2B14228  30.794  37.870   8.250
 5286POPC   C3B14229  30.759  37.935   7.950
 5286POPC   C4B14230  30.767  37.925   7.650
 5287POPC   NC314231  26.008  37.722   9.450
 5287POPC   PO414232  26.016  37.669   9.150
 5287POPC   GL114233  26.025  37.656   8.850
 5287POPC   GL214234  26.129  37.735   8.850
 5287POPC   C1A14235  26.041  37.640   8.550
 5287POPC   D2A14236  26.048  37.649   8.250
 5287POPC   C3A14237  26.054  37.633   7.950
 5287POPC   C4A14238  26.076  37.676   7.650
 5287POPC   C1B14239  26.331  37.712   8.550
 5287POPC   C2B14240  26.289  37.689   8.250
 5287POPC   C3B14241  26.268  37.728   7.950
 5287POPC   C4B14242  26.288  37.712   7.650
 5288POPC   NC314243   1.191   1.957   9.450
 5288POPC   PO414244   1.251   1.976   9.150
 5288POPC   GL114245   1.244   1.997   8.850
 5288POPC   GL214246   1.348   1.948   8.850
 5288POPC   C1A14247   1.231   2.020   8.550
 5288POPC   D2A14248   1.258   2.008   8.250
 5288POPC   C3A14249   1.202   1.985   7.950
 5288POPC   C4A14250   1.224   2.028   7.650
 5288POPC   C1B14251   1.456   1.855   8.550
 5288POPC   C2B14252   1.418   1.873   8.250
 5288POPC   C3B14253   1.440   1.858   7.950
 5288POPC   C4B14254   1.428   1.920   7.650
 5289POPC   NC314255  39.249  34.550   9.450
 5289POPC   PO414256  39.206  34.584   9.150
 5289POPC   GL114257  39.206  34.592   8.850
 5289POPC   GL214258  39.230  34.715   8.850
 5289POPC   C1A14259  39.254  34.532   8.550
 5289POPC   D2A14260  39.233  34.556   8.250
 5289POPC   C3A14261  39.194  34.614   7.950
 5289POPC   C4A14262  39.212  34.615   7.650
 5289POPC   C1B14263  39.153  34.820   8.550
 5289POPC   C2B14264  39.220  34.869   8.250
 5289POPC   C3B14265  39.196  34.843   7.950
 5289POPC   C4B14266  39.166  34.818   7.650
 5290POPC   NC314267  10.517  20.646   9.450
 5290POPC   PO414268  10.485  20.566   9.150
 5290POPC   GL114269  10.498  20.568   8.850
 5290POPC   GL214270  10.594  20.708   8.850
 5290POPC   C1A14271  10.512  20.597   8.550
 5290POPC   D2A14272  10.510  20.602   8.250
 5290POPC   C3A14273  10.545  20.582   7.950
 5290POPC   C4A14274  10.509  20.654   7.650
 5290POPC   C1B14275  10.715  20.725   8.550
 5290POPC   C2B14276  10.743  20.742   8.250
 5290POPC   C3B14277  10.775  20.678   7.950
 5290POPC   C4B14278  10.711  20.670   7.650
 5291POPC   NC314279   6.636  23.681   9.450
 5291POPC   PO414280   6.667  23.707   9.150
 5291POPC   GL114281   6.650  23.685   8.850
 5291POPC   GL214282   6.624  23.886   8.850
 5291POPC   C1A14283   6.610  23.745   8.550
 5291POPC   D2A14284   6.694  23.739   8.250
 5291POPC   C3A14285   6.628  23.753   7.950
 5291POPC   C4A14286   6.647  23.703   7.650
 5291POPC   C1B14287   6.609  23.944   8.550
 5291POPC   C2B14288   6.608  23.988   8.250
 5291POPC   C3B14289   6.676  23.973   7.950
 5291POPC   C4B14290   6.630  24.005   7.650
 5292POPC   NC314291  35.327  11.342   9.450
 5292POPC   PO414292  35.355  11.309   9.150
 5292POPC   GL114293  35.339  11.295   8.850
 5292POPC   GL214294  35.489  11.390   8.850
 5292POPC   C1A14295  35.381  11.303   8.550
 5292POPC   D2A14296  35.397  11.275   8.250
 5292POPC   C3A14297  35.401  11.324   7.950
 5292POPC   C4A14298  35.348  11.314   7.650
 5292POPC   C1B14299  35.559  11.447   8.550
 5292POPC   C2B14300  35.570  11.469   8.250
 5292POPC   C3B14301  35.513  11.422   7.950
 5292POPC   C4B14302  35.554  11.470   7.650
 5293POPC   NC314303  39.959  33.756   9.450
 5293POPC   PO414304  39.976  33.776   9.150
 5293POPC   GL114305  40.005  33.820   8.850
 5293POPC   GL214306  39.856  33.808   8.850
 5293POPC   C1A14307  40.019  33.784   8.550
 5293POPC   D2A14308  39.970  33.819   8.250
 5293POPC   C3A14309  40.043  33.772   7.950
 5293POPC   C4A14310  39.958  33.763   7.650
 5293POPC   C1B14311  39.751  33.880   8.550
 5293POPC   C2B14312  39.731  33.862   8.250
 5293POPC   C3B14313  39.741  33.822   7.950
 5293POPC   C4B14314  39.772  33.854   7.650
 5294POPC   NC314315  27.629  33.073   9.450
 5294POPC   PO414316  27.639  33.000   9.150
 5294POPC   GL114317  27.597  32.982   8.850
 5294POPC   GL214318  27.703  33.053   8.850
 5294POPC   C1A14319  27.575  33.016   8.550
 5294POPC   D2A14320  27.640  33.011   8.250
 5294POPC   C3A14321  27.549  32.986   7.950
 5294POPC   C4A14322  27.564  33.041   7.650
 5294POPC   C1B14323  27.882  33.071   8.550
 5294POPC   C2B14324  27.853  33.108   8.250
 5294POPC   C3B14325  27.878  33.067   7.950
 5294POPC   C4B14326  27.871  33.097   7.650
 5295POPC   NC314327  36.100  37.632   9.450
 5295POPC   PO414328  36.141  37.699   9.150
 5295POPC   GL114329  36.117  37.652   8.850
 5295POPC   GL214330  36.164  37.621   8.850
 5295POPC   C1A14331  36.114  37.638   8.550
 5295POPC   D2A14332  36.163  37.697   8.250
 5295POPC   C3A14333  36.161  37.698   7.950
 5295POPC   C4A14334  36.128  37.676   7.650
 5295POPC   C1B14335  36.291  37.446   8.550
 5295POPC   C2B14336  36.210  37.426   8.250
 5295POPC   C3B14337  36.223  37.433   7.950
 5295POPC   C4B14338  36.223  37.425   7.650
 5296POPC   NC314339  34.582   7.385   9.450
 5296POPC   PO414340  34.568   7.398   9.150
 5296POPC   GL114341  34.617   7.439   8.850
 5296POPC   GL214342  34.516   7.353   8.850
 5296POPC   C1A14343  34.542   7.386   8.550
 5296POPC   D2A14344  34.607   7.398   8.250
 5296POPC   C3A14345  34.564   7.435   7.950
 5296POPC   C4A14346  34.595   7.436   7.650
 5296POPC   C1B14347  34.360   7.223   8.550
 5296POPC   C2B14348  34.414   7.206   8.250
 5296POPC   C3B14349  34.433   7.247   7.950
 5296POPC   C4B14350  34.384   7.294   7.650
 5297POPC   NC314351   5.853   6.602   9.450
 5297POPC   PO414352   5.892   6.653   9.150
 5297POPC   GL114353   5.843   6.604   8.850
 5297POPC   GL214354   6.038   6.636   8.850
 5297POPC   C1A14355   5.830   6.694   8.550
 5297POPC   D2A14356   5.839   6.670   8.250
 5297POPC   C3A14357   5.846   6.600   7.950
 5297POPC   C4A14358   5.885   6.630   7.650
 5297POPC   C1B14359   6.068   6.688   8.550
 5297POPC   C2B14360   6.087   6.753   8.250
 5297POPC   C3B14361   6.128   6.681   7.950
 5297POPC   C4B14362   6.149   6.727   7.650
 5298POPC   NC314363  17.491  27.553   9.450
 5298POPC   PO414364  17.503  27.603   9.150
 5298POPC   GL114365  17.555  27.579   8.850
 5298POPC   GL214366  17.565  27.471   8.850
 5298POPC   C1A14367  17.540  27.604   8.550
 5298POPC   D2A14368  17.519  27.554   8.250
 5298POPC   C3A14369  17.469  27.577   7.950
 5298POPC   C4A14370  17.531  27.560   7.650
 5298POPC   C1B14371  17.549  27.387   8.550
 5298POPC   C2B14372  17.525  27.375   8.250
 5298POPC   C3B14373  17.597  27.379   7.950
 5298POPC   C4B14374  17.550  27.341   7.650
 5299POPC   NC314375   5.118  26.804   9.450
 5299POPC   PO414376   5.053  26.861   9.150
 5299POPC   GL114377   5.102  26.830   8.850
 5299POPC   GL214378   5.164  26.963   8.850
 5299POPC   C1A14379   5.092  26.768   8.550
 5299POPC   D2A14380   5.106  26.773   8.250
 5299POPC   C3A14381   5.082  26.785   7.950
 5299POPC   C4A14382   5.110  26.858   7.650
 5299POPC   C1B14383   5.228  27.052   8.550
 5299POPC   C2B14384   5.239  27.039   8.250
 5299POPC   C3B14385   5.285  26.998   7.950
 5299POPC   C4B14386   5.225  27.008   7.650
 5300POPC   NC314387  32.980  33.013   9.450
 5300POPC   PO414388  33.044  32.998   9.150
 5300POPC   GL114389  33.020  33.013   8.850
 5300POPC   GL214390  32.919  33.098   8.850
 5300POPC   C1A14391  32.986  33.051   8.550
 5300POPC   D2A14392  32.980  33.057   8.250
 5300POPC   C3A14393  32.979  33.040   7.950
 5300POPC   C4A14394  33.038  33.050   7.650
 5300POPC   C1B14395  32.827  33.147   8.550
 5300POPC   C2B14396  32.752  33.143   8.250
 5300POPC   C3B14397  32.752  33.142   7.950
 5300POPC   C4B14398  32.832  33.135   7.650
 5301POPC   NC314399   4.295   9.727   9.450
 5301POPC   PO414400   4.324   9.791   9.150
 5301POPC   GL114401   4.307   9.794   8.850
 5301POPC   GL214402   4.311   9.871   8.850
 5301POPC   C1A14403   4.352   9.703   8.550
 5301POPC   D2A14404   4.274   9.707   8.250
 5301POPC   C3A14405   4.321   9.758   7.950
 5301POPC   C4A14406   4.284   9.714   7.650
 5301POPC   C1B14407   4.368   9.970   8.550
 5301POPC   C2B14408   4.371   9.963   8.250
 5301POPC   C3B14409   4.406  10.022   7.950
 5301POPC   C4B14410   4.406   9.946   7.650
 5302POPC   NC314411  34.579  18.298   9.450
 5302POPC   PO414412  34.545  18.306   9.150
 5302POPC   GL114413  34.611  18.265   8.850
 5302POPC   GL214414  34.485  18.233   8.850
 5302POPC   C1A14415  34.551  18.269   8.550
 5302POPC   D2A14416  34.603  18.321   8.250
 5302POPC   C3A14417  34.533  18.234   7.950
 5302POPC   C4A14418  34.564  18.251   7.650
 5302POPC   C1B14419  34.333  18.179   8.550
 5302POPC   C2B14420  34.382  18.220   8.250
 5302POPC   C3B14421  34.363  18.179   7.950
 5302POPC   C4B14422  34.371  18.189   7.650
 5303POPC   NC314423  37.709  12.099   9.450
 5303POPC   PO414424  37.638  12.094   9.150
 5303POPC   GL114425  37.700  12.053   8.850
 5303POPC   GL214426  37.562  11.938   8.850
 5303POPC   C1A14427  37.666  12.086   8.550
 5303POPC   D2A14428  37.666  12.063   8.250
 5303POPC   C3A14429  37.699  12.041   7.950
 5303POPC   C4A14430  37.702  12.075   7.650
 5303POPC   C1B14431  37.499  11.891   8.550
 5303POPC   C2B14432  37.520  11.863   8.250
 5303POPC   C3B14433  37.579  11.847   7.950
 5303POPC   C4B14434  37.498  11.891   7.650
 5304POPC   NC314435  22.167  26.033   9.450
 5304POPC   PO414436  22.131  26.067   9.150
 5304POPC   GL114437  22.158  26.071   8.850
 5304POPC   GL214438  22.246  25.998   8.850
 5304POPC   C1A14439  22.120  26.062   8.550
 5304POPC   D2A14440  22.131  26.054   8.250
 5304POPC   C3A14441  22.175  26.030   7.950
 5304POPC   C4A14442  22.145  26.014   7.650
 5304POPC   C1B14443  22.412  25.948   8.550
 5304POPC   C2B14444  22.370  25.894   8.250
 5304POPC   C3B14445  22.405  25.856   7.950
 5304POPC   C4B14446  22.324  25.891   7.650
 5305POPC   NC314447  19.023  12.806   9.450
 5305POPC   PO414448  19.090  12.804   9.150
 5305POPC   GL114449  19.103  12.886   8.850
 5305POPC   GL214450  18.988  12.949   8.850
 5305POPC   C1A14451  19.080  12.843   8.550
 5305POPC   D2A14452  19.105  12.890   8.250
 5305POPC   C3A14453  19.080  12.805   7.950
 5305POPC   C4A14454  19.097  12.856   7.650
 5305POPC   C1B14455  18.916  13.041   8.550
 5305POPC   C2B14456  18.979  13.063   8.250
 5305POPC   C3B14457  18.936  13.034   7.950
 5305POPC   C4B14458  18.898  13.092   7.650
 5306POPC   NC314459  41.598  36.923   9.450
 5306POPC   PO414460  41.575  36.921   9.150
 5306POPC   GL114461  41.511  36.947   8.850
 5306POPC   GL214462  41.617  37.018   8.850
 5306POPC   C1A14463  41.553  36.934   8.550
 5306POPC   D2A14464  41.544  36.862   8.250
 5306POPC   C3A14465  41.606  36.854   7.950
 5306POPC   C4A14466  41.587  36.869   7.650
 5306POPC   C1B14467  41.703  37.083   8.550
 5306POPC   C2B14468  41.772  37.105   8.250
 5306POPC   C3B14469  41.708  37.075   7.950
 5306POPC   C4B14470  41.730  37.080   7.650
 5307POPC   NC314471  39.248   0.467   9.450
 5307POPC   PO414472  39.212   0.428   9.150
 5307POPC   GL114473  39.216   0.476   8.850
 5307POPC   GL214474  39.300   0.463   8.850
 5307POPC   C1A14475  39.272   0.423   8.550
 5307POPC   D2A14476  39.266   0.424   8.250
 5307POPC   C3A14477  39.268   0.467   7.950
 5307POPC   C4A14478  39.275   0.415   7.650
 5307POPC   C1B14479  39.409   0.623   8.550
 5307POPC   C2B14480  39.427   0.618   8.250
 5307POPC   C3B14481  39.485   0.577   7.950
 5307POPC   C4B14482  39.434   0.567   7.650
 5308POPC   NC314483  44.625  37.636   9.450
 5308POPC   PO414484  44.634  37.699   9.150
 5308POPC   GL114485  44.660  37.709   8.850
 5308POPC   GL214486  44.756  37.544   8.850
 5308POPC   C1A14487  44.616  37.726   8.550
 5308POPC   D2A14488  44.709  37.694   8.250
 5308POPC   C3A14489  44.641  37.634   7.950
 5308POPC   C4A14490  44.688  37.728   7.650
 5308POPC   C1B14491  44.766  37.470   8.550
 5308POPC   C2B14492  44.801  37.503   8.250
 5308POPC   C3B14493  44.829  37.456   7.950
 5308POPC   C4B14494  44.755  37.424   7.650
 5309POPC   NC314495  33.768  19.045   9.450
 5309POPC   PO414496  33.760  19.065   9.150
 5309POPC   GL114497  33.816  19.091   8.850
 5309POPC   GL214498  33.904  19.061   8.850
 5309POPC   C1A14499  33.846  19.103   8.550
 5309POPC   D2A14500  33.820  19.043   8.250
 5309POPC   C3A14501  33.815  19.013   7.950
 5309POPC   C4A14502  33.841  19.031   7.650
 5309POPC   C1B14503  34.025  19.045   8.550
 5309POPC   C2B14504  34.047  19.104   8.250
 5309POPC   C3B14505  34.006  19.064   7.950
 5309POPC   C4B14506  34.052  19.046   7.650
 5310POPC   NC314507  35.324  15.953   9.450
 5310POPC   PO414508  35.363  15.986   9.150
 5310POPC   GL114509  35.341  15.932   8.850
 5310POPC   GL214510  35.318  16.120   8.850
 5310POPC   C1A14511  35.344  15.980   8.550
 5310POPC   D2A14512  35.322  15.973   8.250
 5310POPC   C3A14513  35.365  15.936   7.950
 5310POPC   C4A14514  35.336  15.993   7.650
 5310POPC   C1B14515  35.306  16.232   8.550
 5310POPC   C2B14516  35.361  16.229   8.250
 5310POPC   C3B14517  35.315  16.157   7.950
 5310POPC   C4B14518  35.304  16.169   7.650
 5311POPC   NC314519  26.773  27.622   9.450
 5311POPC   PO414520  26.823  27.582   9.150
 5311POPC   GL114521  26.815  27.582   8.850
 5311POPC   GL214522  26.760  27.505   8.850
 5311POPC   C1A14523  26.818  27.590   8.550
 5311POPC   D2A14524  26.864  27.603   8.250
 5311POPC   C3A14525  26.853  27.601   7.950
 5311POPC   C4A14526  26.798  27.544   7.650
 5311POPC   C1B14527  26.709  27.358   8.550
 5311POPC   C2B14528  26.668  27.387   8.250
 5311POPC   C3B14529  26.717  27.345   7.950
 5311POPC   C4B14530  26.703  27.408   7.650
 5312POPC   NC314531  13.648   5.057   9.450
 5312POPC   PO414532  13.596   5.068   9.150
 5312POPC   GL114533  13.613   5.058   8.850
 5312POPC   GL214534  13.724   5.183   8.850
 5312POPC   C1A14535  13.663   5.079   8.550
 5312POPC   D2A14536  13.605   5.140   8.250
 5312POPC   C3A14537  13.662   5.048   7.950
 5312POPC   C4A14538  13.578   5.068   7.650
 5312POPC   C1B14539  13.877   5.216   8.550
 5312POPC   C2B14540  13.913   5.125   8.250
 5312POPC   C3B14541  13.862   5.133   7.950
 5312POPC   C4B14542  13.884   5.179   7.650
 5313POPC   NC314543  43.159  11.268   9.450
 5313POPC   PO414544  43.099  11.313   9.150
 5313POPC   GL114545  43.117  11.314   8.850
 5313POPC   GL214546  43.178  11.283   8.850
 5313POPC   C1A14547  43.159  11.290   8.550
 5313POPC   D2A14548  43.159  11.293   8.250
 5313POPC   C3A14549  43.113  11.338   7.950
 5313POPC   C4A14550  43.106  11.270   7.650
 5313POPC   C1B14551  43.337  11.199   8.550
 5313POPC   C2B14552  43.336  11.169   8.250
 5313POPC   C3B14553  43.363  11.144   7.950
 5313POPC   C4B14554  43.288  11.232   7.650
 5314POPC   NC314555  39.197  12.065   9.450
 5314POPC   PO414556  39.243  12.105   9.150
 5314POPC   GL114557  39.237  12.114   8.850
 5314POPC   GL214558  39.197  12.131   8.850
 5314POPC   C1A14559  39.256  12.027   8.550
 5314POPC   D2A14560  39.270  12.054   8.250
 5314POPC   C3A14561  39.237  12.089   7.950
 5314POPC   C4A14562  39.280  12.086   7.650
 5314POPC   C1B14563  39.048  12.233   8.550
 5314POPC   C2B14564  39.111  12.246   8.250
 5314POPC   C3B14565  39.123  12.254   7.950
 5314POPC   C4B14566  39.048  12.252   7.650
 5315POPC   NC314567  13.653  19.091   9.450
 5315POPC   PO414568  13.620  19.099   9.150
 5315POPC   GL114569  13.622  19.044   8.850
 5315POPC   GL214570  13.709  19.167   8.850
 5315POPC   C1A14571  13.676  19.037   8.550
 5315POPC   D2A14572  13.637  19.107   8.250
 5315POPC   C3A14573  13.664  19.030   7.950
 5315POPC   C4A14574  13.612  19.096   7.650
 5315POPC   C1B14575  13.829  19.215   8.550
 5315POPC   C2B14576  13.823  19.237   8.250
 5315POPC   C3B14577  13.759  19.198   7.950
 5315POPC   C4B14578  13.832  19.226   7.650
 5316POPC   NC314579  29.934   3.512   9.450
 5316POPC   PO414580  29.915   3.513   9.150
 5316POPC   GL114581  29.969   3.510   8.850
 5316POPC   GL214582  29.974   3.446   8.850
 5316POPC   C1A14583  29.882   3.529   8.550
 5316POPC   D2A14584  29.950   3.502   8.250
 5316POPC   C3A14585  29.962   3.505   7.950
 5316POPC   C4A14586  29.922   3.542   7.650
 5316POPC   C1B14587  30.052   3.365   8.550
 5316POPC   C2B14588  30.111   3.382   8.250
 5316POPC   C3B14589  30.113   3.385   7.950
 5316POPC   C4B14590  30.061   3.391   7.650
 5317POPC   NC314591   0.430  26.795   9.450
 5317POPC   PO414592   0.435  26.862   9.150
 5317POPC   GL114593   0.420  26.818   8.850
 5317POPC   GL214594   0.522  26.696   8.850
 5317POPC   C1A14595   0.469  26.837   8.550
 5317POPC   D2A14596   0.388  26.850   8.250
 5317POPC   C3A14597   0.442  26.843   7.950
 5317POPC   C4A14598   0.436  26.820   7.650
 5317POPC   C1B14599   0.521  26.556   8.550
 5317POPC   C2B14600   0.491  26.554   8.250
 5317POPC   C3B14601   0.480  26.596   7.950
 5317POPC   C4B14602   0.569  26.565   7.650
 5318POPC   NC314603  29.915  29.900   9.450
 5318POPC   PO414604  29.923  29.914   9.150
 5318POPC   GL114605  29.924  29.958   8.850
 5318POPC   GL214606  29.855  29.961   8.850
 5318POPC   C1A14607  29.875  29.886   8.550
 5318POPC   D2A14608  29.934  29.954   8.250
 5318POPC   C3A14609  29.969  29.948   7.950
 5318POPC   C4A14610  29.874  29.889   7.650
 5318POPC   C1B14611  29.777  30.128   8.550
 5318POPC   C2B14612  29.703  30.096   8.250
 5318POPC   C3B14613  29.712  30.127   7.950
 5318POPC   C4B14614  29.759  30.136   7.650
 5319POPC   NC314615  11.329   5.052   9.450
 5319POPC   PO414616  11.287   5.139   9.150
 5319POPC   GL114617  11.287   5.138   8.850
 5319POPC   GL214618  11.341   5.251   8.850
 5319POPC   C1A14619  11.283   5.128   8.550
 5319POPC   D2A14620  11.270   5.140   8.250
 5319POPC   C3A14621  11.276   5.051   7.950
 5319POPC   C4A14622  11.264   5.062   7.650
 5319POPC   C1B14623  11.364   5.325   8.550
 5319POPC   C2B14624  11.333   5.297   8.250
 5319POPC   C3B14625  11.392   5.298   7.950
 5319POPC   C4B14626  11.339   5.336   7.650
 5320POPC   NC314627  29.895  28.409   9.450
 5320POPC   PO414628  29.920  28.389   9.150
 5320POPC   GL114629  29.891  28.350   8.850
 5320POPC   GL214630  30.009  28.282   8.850
 5320POPC   C1A14631  29.938  28.380   8.550
 5320POPC   D2A14632  29.921  28.409   8.250
 5320POPC   C3A14633  29.947  28.323   7.950
 5320POPC   C4A14634  29.957  28.363   7.650
 5320POPC   C1B14635  30.047  28.156   8.550
 5320POPC   C2B14636  30.045  28.141   8.250
 5320POPC   C3B14637  30.015  28.163   7.950
 5320POPC   C4B14638  29.960  28.181   7.650
 5321POPC   NC314639  28.343   6.693   9.450
 5321POPC   PO414640  28.367   6.673   9.150
 5321POPC   GL114641  28.362   6.640   8.850
 5321POPC   GL214642  28.343   6.717   8.850
 5321POPC   C1A14643  28.360   6.642   8.550
 5321POPC   D2A14644  28.376   6.676   8.250
 5321POPC   C3A14645  28.349   6.676   7.950
 5321POPC   C4A14646  28.410   6.675   7.650
 5321POPC   C1B14647  28.280   6.847   8.550
 5321POPC   C2B14648  28.328   6.829   8.250
 5321POPC   C3B14649  28.232   6.878   7.950
 5321POPC   C4B14650  28.232   6.862   7.650
 5322POPC   NC314651  40.761  13.622   9.450
 5322POPC   PO414652  40.768  13.670   9.150
 5322POPC   GL114653  40.771  13.623   8.850
 5322POPC   GL214654  40.707  13.781   8.850
 5322POPC   C1A14655  40.800  13.607   8.550
 5322POPC   D2A14656  40.757  13.661   8.250
 5322POPC   C3A14657  40.746  13.607   7.950
 5322POPC   C4A14658  40.749  13.616   7.650
 5322POPC   C1B14659  40.631  13.864   8.550
 5322POPC   C2B14660  40.638  13.827   8.250
 5322POPC   C3B14661  40.649  13.846   7.950
 5322POPC   C4B14662  40.641  13.807   7.650
 5323POPC   NC314663  37.669   9.744   9.450
 5323POPC   PO414664  37.634   9.710   9.150
 5323POPC   GL114665  37.648   9.777   8.850
 5323POPC   GL214666  37.831   9.724   8.850
 5323POPC   C1A14667  37.630   9.727   8.550
 5323POPC   D2A14668  37.656   9.788   8.250
 5323POPC   C3A14669  37.657   9.752   7.950
 5323POPC   C4A14670  37.706   9.703   7.650
 5323POPC   C1B14671  37.925   9.771   8.550
 5323POPC   C2B14672  37.978   9.791   8.250
 5323POPC   C3B14673  37.921   9.774   7.950
 5323POPC   C4B14674  37.926   9.727   7.650
 5324POPC   NC314675  25.291   1.199   9.450
 5324POPC   PO414676  25.230   1.227   9.150
 5324POPC   GL114677  25.264   1.263   8.850
 5324POPC   GL214678  25.354   1.150   8.850
 5324POPC   C1A14679  25.284   1.181   8.550
 5324POPC   D2A14680  25.235   1.262   8.250
 5324POPC   C3A14681  25.277   1.242   7.950
 5324POPC   C4A14682  25.304   1.197   7.650
 5324POPC   C1B14683  25.362   1.028   8.550
 5324POPC   C2B14684  25.358   1.018   8.250
 5324POPC   C3B14685  25.394   0.995   7.950
 5324POPC   C4B14686  25.355   0.978   7.650
 5325POPC   NC314687  19.011   1.262   9.450
 5325POPC   PO414688  19.014   1.220   9.150
 5325POPC   GL114689  19.095   1.261   8.850
 5325POPC   GL214690  19.035   1.320   8.850
 5325POPC   C1A14691  19.023   1.240   8.550
 5325POPC   D2A14692  19.074   1.175   8.250
 5325POPC   C3A14693  19.095   1.211   7.950
 5325POPC   C4A14694  19.037   1.238   7.650
 5325POPC   C1B14695  19.034   1.497   8.550
 5325POPC   C2B14696  19.063   1.479   8.250
 5325POPC   C3B14697  19.024   1.426   7.950
 5325POPC   C4B14698  18.975   1.439   7.650
 5326POPC   NC314699  19.849  10.554   9.450
 5326POPC   PO414700  19.807  10.485   9.150
 5326POPC   GL114701  19.863  10.519   8.850
 5326POPC   GL214702  19.801  10.636   8.850
 5326POPC   C1A14703  19.855  10.501   8.550
 5326POPC   D2A14704  19.818  10.523   8.250
 5326POPC   C3A14705  19.851  10.541   7.950
 5326POPC   C4A14706  19.797  10.534   7.650
 5326POPC   C1B14707  19.813  10.718   8.550
 5326POPC   C2B14708  19.795  10.726   8.250
 5326POPC   C3B14709  19.745  10.735   7.950
 5326POPC   C4B14710  19.727  10.751   7.650
 5327POPC   NC314711  36.858   0.458   9.450
 5327POPC   PO414712  36.865   0.436   9.150
 5327POPC   GL114713  36.886   0.458   8.850
 5327POPC   GL214714  36.988   0.338   8.850
 5327POPC   C1A14715  36.937   0.390   8.550
 5327POPC   D2A14716  36.890   0.447   8.250
 5327POPC   C3A14717  36.949   0.417   7.950
 5327POPC   C4A14718  36.938   0.436   7.650
 5327POPC   C1B14719  37.008   0.208   8.550
 5327POPC   C2B14720  37.017   0.231   8.250
 5327POPC   C3B14721  37.018   0.194   7.950
 5327POPC   C4B14722  36.978   0.250   7.650
 5328POPC   NC314723  24.508  33.758   9.450
 5328POPC   PO414724  24.525  33.830   9.150
 5328POPC   GL114725  24.528  33.781   8.850
 5328POPC   GL214726  24.552  33.711   8.850
 5328POPC   C1A14727  24.506  33.844   8.550
 5328POPC   D2A14728  24.538  33.845   8.250
 5328POPC   C3A14729  24.488  33.765   7.950
 5328POPC   C4A14730  24.459  33.836   7.650
 5328POPC   C1B14731  24.518  33.568   8.550
 5328POPC   C2B14732  24.512  33.530   8.250
 5328POPC   C3B14733  24.501  33.574   7.950
 5328POPC   C4B14734  24.510  33.525   7.650
 5329POPC   NC314735  26.043  38.472   9.450
 5329POPC   PO414736  26.054  38.407   9.150
 5329POPC   GL114737  26.029  38.488   8.850
 5329POPC   GL214738  26.003  38.369   8.850
 5329POPC   C1A14739  26.068  38.425   8.550
 5329POPC   D2A14740  26.050  38.411   8.250
 5329POPC   C3A14741  26.023  38.416   7.950
 5329POPC   C4A14742  25.999  38.493   7.650
 5329POPC   C1B14743  25.876  38.246   8.550
 5329POPC   C2B14744  25.864  38.291   8.250
 5329POPC   C3B14745  25.857  38.277   7.950
 5329POPC   C4B14746  25.937  38.286   7.650
 5330POPC   NC314747  15.147  41.586   9.450
 5330POPC   PO414748  15.201  41.606   9.150
 5330POPC   GL114749  15.191  41.586   8.850
 5330POPC   GL214750  15.184  41.463   8.850
 5330POPC   C1A14751  15.221  41.558   8.550
 5330POPC   D2A14752  15.163  41.560   8.250
 5330POPC   C3A14753  15.208  41.522   7.950
 5330POPC   C4A14754  15.144  41.515   7.650
 5330POPC   C1B14755  15.116  41.280   8.550
 5330POPC   C2B14756  15.161  41.324   8.250
 5330POPC   C3B14757  15.106  41.270   7.950
 5330POPC   C4B14758  15.096  41.343   7.650
 5331POPC   NC314759  36.906  24.468   9.450
 5331POPC   PO414760  36.898  24.451   9.150
 5331POPC   GL114761  36.928  24.492   8.850
 5331POPC   GL214762  36.874  24.337   8.850
 5331POPC   C1A14763  36.947  24.508   8.550
 5331POPC   D2A14764  36.945  24.464   8.250
 5331POPC   C3A14765  36.900  24.455   7.950
 5331POPC   C4A14766  36.862  24.509   7.650
 5331POPC   C1B14767  36.885  24.221   8.550
 5331POPC   C2B14768  36.885  24.231   8.250
 5331POPC   C3B14769  36.947  24.197   7.950
 5331POPC   C4B14770  36.926  24.204   7.650
 5332POPC   NC314771  33.800   8.159   9.450
 5332POPC   PO414772  33.814   8.172   9.150
 5332POPC   GL114773  33.822   8.200   8.850
 5332POPC   GL214774  33.937   8.175   8.850
 5332POPC   C1A14775  33.803   8.190   8.550
 5332POPC   D2A14776  33.810   8.187   8.250
 5332POPC   C3A14777  33.847   8.241   7.950
 5332POPC   C4A14778  33.821   8.152   7.650
 5332POPC   C1B14779  34.034   8.103   8.550
 5332POPC   C2B14780  34.025   8.113   8.250
 5332POPC   C3B14781  34.042   8.145   7.950
 5332POPC   C4B14782  34.081   8.146   7.650
 5333POPC   NC314783  34.583  10.523   9.450
 5333POPC   PO414784  34.595  10.535   9.150
 5333POPC   GL114785  34.562  10.493   8.850
 5333POPC   GL214786  34.598  10.364   8.850
 5333POPC   C1A14787  34.538  10.514   8.550
 5333POPC   D2A14788  34.595  10.506   8.250
 5333POPC   C3A14789  34.614  10.481   7.950
 5333POPC   C4A14790  34.570  10.480   7.650
 5333POPC   C1B14791  34.650  10.345   8.550
 5333POPC   C2B14792  34.739  10.352   8.250
 5333POPC   C3B14793  34.736  10.315   7.950
 5333POPC   C4B14794  34.691  10.267   7.650
 5334POPC   NC314795  38.501  22.179   9.450
 5334POPC   PO414796  38.413  22.120   9.150
 5334POPC   GL114797  38.435  22.162   8.850
 5334POPC   GL214798  38.583  22.228   8.850
 5334POPC   C1A14799  38.471  22.183   8.550
 5334POPC   D2A14800  38.430  22.168   8.250
 5334POPC   C3A14801  38.416  22.166   7.950
 5334POPC   C4A14802  38.485  22.164   7.650
 5334POPC   C1B14803  38.668  22.203   8.550
 5334POPC   C2B14804  38.734  22.180   8.250
 5334POPC   C3B14805  38.660  22.174   7.950
 5334POPC   C4B14806  38.697  22.193   7.650
 5335POPC   NC314807   5.072  36.083   9.450
 5335POPC   PO414808   5.074  36.107   9.150
 5335POPC   GL114809   5.084  36.155   8.850
 5335POPC   GL214810   5.225  36.137   8.850
 5335POPC   C1A14811   5.123  36.134   8.550
 5335POPC   D2A14812   5.125  36.154   8.250
 5335POPC   C3A14813   5.066  36.140   7.950
 5335POPC   C4A14814   5.075  36.122   7.650
 5335POPC   C1B14815   5.322  36.113   8.550
 5335POPC   C2B14816   5.308  36.074   8.250
 5335POPC   C3B14817   5.341  36.141   7.950
 5335POPC   C4B14818   5.367  36.090   7.650
 5336POPC   NC314819  33.008  33.805   9.450
 5336POPC   PO414820  33.005  33.761   9.150
 5336POPC   GL114821  33.059  33.794   8.850
 5336POPC   GL214822  33.160  33.781   8.850
 5336POPC   C1A14823  32.998  33.825   8.550
 5336POPC   D2A14824  33.038  33.816   8.250
 5336POPC   C3A14825  33.049  33.792   7.950
 5336POPC   C4A14826  33.024  33.766   7.650
 5336POPC   C1B14827  33.286  33.838   8.550
 5336POPC   C2B14828  33.255  33.819   8.250
 5336POPC   C3B14829  33.256  33.831   7.950
 5336POPC   C4B14830  33.284  33.836   7.650
 5337POPC   NC314831   5.869  11.290   9.450
 5337POPC   PO414832   5.836  11.300   9.150
 5337POPC   GL114833   5.874  11.279   8.850
 5337POPC   GL214834   5.819  11.220   8.850
 5337POPC   C1A14835   5.826  11.294   8.550
 5337POPC   D2A14836   5.901  11.305   8.250
 5337POPC   C3A14837   5.836  11.300   7.950
 5337POPC   C4A14838   5.900  11.256   7.650
 5337POPC   C1B14839   5.679  11.099   8.550
 5337POPC   C2B14840   5.747  11.113   8.250
 5337POPC   C3B14841   5.690  11.127   7.950
 5337POPC   C4B14842   5.680  11.110   7.650
 5338POPC   NC314843  10.506   4.343   9.450
 5338POPC   PO414844  10.527   4.335   9.150
 5338POPC   GL114845  10.571   4.283   8.850
 5338POPC   GL214846  10.551   4.180   8.850
 5338POPC   C1A14847  10.562   4.267   8.550
 5338POPC   D2A14848  10.507   4.347   8.250
 5338POPC   C3A14849  10.475   4.326   7.950
 5338POPC   C4A14850  10.539   4.327   7.650
 5338POPC   C1B14851  10.559   4.105   8.550
 5338POPC   C2B14852  10.517   4.074   8.250
 5338POPC   C3B14853  10.585   4.091   7.950
 5338POPC   C4B14854  10.596   4.111   7.650
 5339POPC   NC314855  41.515  32.981   9.450
 5339POPC   PO414856  41.541  33.019   9.150
 5339POPC   GL114857  41.555  32.998   8.850
 5339POPC   GL214858  41.549  32.881   8.850
 5339POPC   C1A14859  41.534  33.019   8.550
 5339POPC   D2A14860  41.532  32.985   8.250
 5339POPC   C3A14861  41.554  33.041   7.950
 5339POPC   C4A14862  41.597  33.035   7.650
 5339POPC   C1B14863  41.449  32.809   8.550
 5339POPC   C2B14864  41.482  32.760   8.250
 5339POPC   C3B14865  41.401  32.774   7.950
 5339POPC   C4B14866  41.483  32.762   7.650
 5340POPC   NC314867  38.464  32.243   9.450
 5340POPC   PO414868  38.484  32.265   9.150
 5340POPC   GL114869  38.419  32.275   8.850
 5340POPC   GL214870  38.303  32.223   8.850
 5340POPC   C1A14871  38.417  32.233   8.550
 5340POPC   D2A14872  38.460  32.240   8.250
 5340POPC   C3A14873  38.449  32.269   7.950
 5340POPC   C4A14874  38.428  32.288   7.650
 5340POPC   C1B14875  38.230  32.290   8.550
 5340POPC   C2B14876  38.238  32.250   8.250
 5340POPC   C3B14877  38.165  32.256   7.950
 5340POPC   C4B14878  38.236  32.296   7.650
 5341POPC   NC314879   4.278  10.544   9.450
 5341POPC   PO414880   4.280  10.560   9.150
 5341POPC   GL114881   4.364  10.504   8.850
 5341POPC   GL214882   4.451  10.632   8.850
 5341POPC   C1A14883   4.364  10.475   8.550
 5341POPC   D2A14884   4.270  10.565   8.250
 5341POPC   C3A14885   4.311  10.564   7.950
 5341POPC   C4A14886   4.276  10.516   7.650
 5341POPC   C1B14887   4.489  10.614   8.550
 5341POPC   C2B14888   4.579  10.627   8.250
 5341POPC   C3B14889   4.501  10.667   7.950
 5341POPC   C4B14890   4.525  10.603   7.650
 5342POPC   NC314891  42.367  26.036   9.450
 5342POPC   PO414892  42.356  26.084   9.150
 5342POPC   GL114893  42.292  26.040   8.850
 5342POPC   GL214894  42.397  26.166   8.850
 5342POPC   C1A14895  42.326  26.020   8.550
 5342POPC   D2A14896  42.367  26.060   8.250
 5342POPC   C3A14897  42.285  26.044   7.950
 5342POPC   C4A14898  42.360  26.047   7.650
 5342POPC   C1B14899  42.449  26.233   8.550
 5342POPC   C2B14900  42.529  26.206   8.250
 5342POPC   C3B14901  42.475  26.217   7.950
 5342POPC   C4B14902  42.468  26.228   7.650
 5343POPC   NC314903  26.774  30.720   9.450
 5343POPC   PO414904  26.805  30.739   9.150
 5343POPC   GL114905  26.789  30.665   8.850
 5343POPC   GL214906  26.827  30.794   8.850
 5343POPC   C1A14907  26.841  30.728   8.550
 5343POPC   D2A14908  26.791  30.731   8.250
 5343POPC   C3A14909  26.823  30.670   7.950
 5343POPC   C4A14910  26.790  30.653   7.650
 5343POPC   C1B14911  26.777  30.996   8.550
 5343POPC   C2B14912  26.778  30.984   8.250
 5343POPC   C3B14913  26.826  30.973   7.950
 5343POPC   C4B14914  26.844  30.912   7.650
 5344POPC   NC314915   5.916   4.367   9.450
 5344POPC   PO414916   5.896   4.278   9.150
 5344POPC   GL114917   5.855   4.334   8.850
 5344POPC   GL214918   5.981   4.251   8.850
 5344POPC   C1A14919   5.825   4.366   8.550
 5344POPC   D2A14920   5.846   4.332   8.250
 5344POPC   C3A14921   5.855   4.277   7.950
 5344POPC   C4A14922   5.830   4.358   7.650
 5344POPC   C1B14923   6.154   4.308   8.550
 5344POPC   C2B14924   6.145   4.286   8.250
 5344POPC   C3B14925   6.123   4.296   7.950
 5344POPC   C4B14926   6.082   4.315   7.650
 5345POPC   NC314927  39.247  19.812   9.450
 5345POPC   PO414928  39.252  19.823   9.150
 5345POPC   GL114929  39.279  19.840   8.850
 5345POPC   GL214930  39.320  19.775   8.850
 5345POPC   C1A14931  39.219  19.817   8.550
 5345POPC   D2A14932  39.204  19.789   8.250
 5345POPC   C3A14933  39.211  19.808   7.950
 5345POPC   C4A14934  39.228  19.823   7.650
 5345POPC   C1B14935  39.423  19.790   8.550
 5345POPC   C2B14936  39.434  19.698   8.250
 5345POPC   C3B14937  39.439  19.710   7.950
 5345POPC   C4B14938  39.450  19.790   7.650
 5346POPC   NC314939  12.867  25.308   9.450
 5346POPC   PO414940  12.891  25.266   9.150
 5346POPC   GL114941  12.832  25.241   8.850
 5346POPC   GL214942  12.782  25.354   8.850
 5346POPC   C1A14943  12.840  25.272   8.550
 5346POPC   D2A14944  12.847  25.312   8.250
 5346POPC   C3A14945  12.807  25.310   7.950
 5346POPC   C4A14946  12.819  25.247   7.650
 5346POPC   C1B14947  12.685  25.464   8.550
 5346POPC   C2B14948  12.696  25.396   8.250
 5346POPC   C3B14949  12.655  25.416   7.950
 5346POPC   C4B14950  12.616  25.396   7.650
 5347POPC   NC314951   8.192  43.873   9.450
 5347POPC   PO414952   8.160  43.884   9.150
 5347POPC   GL114953   8.159  43.854   8.850
 5347POPC   GL214954   8.277  43.989   8.850
 5347POPC   C1A14955   8.238  43.878   8.550
 5347POPC   D2A14956   8.175  43.878   8.250
 5347POPC   C3A14957   8.177  43.894   7.950
 5347POPC   C4A14958   8.178  43.885   7.650
 5347POPC   C1B14959   8.340  44.091   8.550
 5347POPC   C2B14960   8.385  44.049   8.250
 5347POPC   C3B14961   8.324  44.097   7.950
 5347POPC   C4B14962   8.297  44.071   7.650
 5348POPC   NC314963  28.356  26.839   9.450
 5348POPC   PO414964  28.391  26.818   9.150
 5348POPC   GL114965  28.336  26.768   8.850
 5348POPC   GL214966  28.453  26.705   8.850
 5348POPC   C1A14967  28.387  26.808   8.550
 5348POPC   D2A14968  28.344  26.804   8.250
 5348POPC   C3A14969  28.415  26.834   7.950
 5348POPC   C4A14970  28.385  26.827   7.650
 5348POPC   C1B14971  28.520  26.655   8.550
 5348POPC   C2B14972  28.537  26.588   8.250
 5348POPC   C3B14973  28.545  26.620   7.950
 5348POPC   C4B14974  28.528  26.672   7.650
 5349POPC   NC314975  15.226  21.361   9.450
 5349POPC   PO414976  15.140  21.375   9.150
 5349POPC   GL114977  15.135  21.351   8.850
 5349POPC   GL214978  15.200  21.313   8.850
 5349POPC   C1A14979  15.156  21.403   8.550
 5349POPC   D2A14980  15.180  21.370   8.250
 5349POPC   C3A14981  15.209  21.361   7.950
 5349POPC   C4A14982  15.178  21.337   7.650
 5349POPC   C1B14983  15.269  21.156   8.550
 5349POPC   C2B14984  15.242  21.118   8.250
 5349POPC   C3B14985  15.256  21.119   7.950
 5349POPC   C4B14986  15.302  21.132   7.650
 5350POPC   NC314987  13.603   7.440   9.450
 5350POPC   PO414988  13.639   7.407   9.150
 5350POPC   GL114989  13.625   7.467   8.850
 5350POPC   GL214990  13.626   7.500   8.850
 5350POPC   C1A14991  13.619   7.412   8.550
 5350POPC   D2A14992  13.591   7.409   8.250
 5350POPC   C3A14993  13.625   7.382   7.950
 5350POPC   C4A14994  13.617   7.443   7.650
 5350POPC   C1B14995  13.703   7.648   8.550
 5350POPC   C2B14996  13.711   7.627   8.250
 5350POPC   C3B14997  13.679   7.708   7.950
 5350POPC   C4B14998  13.680   7.701   7.650
 5351POPC   NC314999  30.727   1.194   9.450
 5351POPC   PO415000  30.693   1.227   9.150
 5351POPC   GL115001  30.711   1.199   8.850
 5351POPC   GL215002  30.572   1.219   8.850
 5351POPC   C1A15003  30.653   1.197   8.550
 5351POPC   D2A15004  30.722   1.204   8.250
 5351POPC   C3A15005  30.717   1.202   7.950
 5351POPC   C4A15006  30.731   1.253   7.650
 5351POPC   C1B15007  30.414   1.254   8.550
 5351POPC   C2B15008  30.482   1.185   8.250
 5351POPC   C3B15009  30.445   1.260   7.950
 5351POPC   C4B15010  30.444   1.251   7.650
 5352POPC   NC315011  29.163   1.219   9.450
 5352POPC   PO415012  29.116   1.249   9.150
 5352POPC   GL115013  29.139   1.175   8.850
 5352POPC   GL215014  29.268   1.258   8.850
 5352POPC   C1A15015  29.174   1.190   8.550
 5352POPC   D2A15016  29.153   1.231   8.250
 5352POPC   C3A15017  29.131   1.175   7.950
 5352POPC   C4A15018  29.105   1.188   7.650
 5352POPC   C1B15019  29.350   1.332   8.550
 5352POPC   C2B15020  29.377   1.345   8.250
 5352POPC   C3B15021  29.322   1.344   7.950
 5352POPC   C4B15022  29.283   1.350   7.650
 5353POPC   NC315023  31.455   1.172   9.450
 5353POPC   PO415024  31.491   1.224   9.150
 5353POPC   GL115025  31.506   1.200   8.850
 5353POPC   GL215026  31.517   1.384   8.850
 5353POPC   C1A15027  31.488   1.220   8.550
 5353POPC   D2A15028  31.431   1.234   8.250
 5353POPC   C3A15029  31.426   1.224   7.950
 5353POPC   C4A15030  31.516   1.188   7.650
 5353POPC   C1B15031  31.458   1.457   8.550
 5353POPC   C2B15032  31.461   1.468   8.250
 5353POPC   C3B15033  31.499   1.456   7.950
 5353POPC   C4B15034  31.481   1.466   7.650
 5354POPC   NC315035  40.023  36.855   9.450
 5354POPC   PO415036  39.961  36.935   9.150
 5354POPC   GL115037  40.003  36.923   8.850
 5354POPC   GL215038  39.997  36.827   8.850
 5354POPC   C1A15039  40.027  36.939   8.550
 5354POPC   D2A15040  40.042  36.866   8.250
 5354POPC   C3A15041  40.046  36.901   7.950
 5354POPC   C4A15042  40.016  36.933   7.650
 5354POPC   C1B15043  39.891  36.676   8.550
 5354POPC   C2B15044  39.907  36.702   8.250
 5354POPC   C3B15045  39.925  36.635   7.950
 5354POPC   C4B15046  39.925  36.679   7.650
 5355POPC   NC315047  29.130  32.226   9.450
 5355POPC   PO415048  29.194  32.248   9.150
 5355POPC   GL115049  29.095  32.227   8.850
 5355POPC   GL215050  29.033  32.198   8.850
 5355POPC   C1A15051  29.185  32.295   8.550
 5355POPC   D2A15052  29.112  32.223   8.250
 5355POPC   C3A15053  29.188  32.289   7.950
 5355POPC   C4A15054  29.167  32.253   7.650
 5355POPC   C1B15055  28.961  32.055   8.550
 5355POPC   C2B15056  29.016  32.031   8.250
 5355POPC   C3B15057  28.931  32.064   7.950
 5355POPC   C4B15058  28.995  32.079   7.650
 5356POPC   NC315059  31.507  40.025   9.450
 5356POPC   PO415060  31.485  39.971   9.150
 5356POPC   GL115061  31.468  39.986   8.850
 5356POPC   GL215062  31.381  40.138   8.850
 5356POPC   C1A15063  31.470  39.957   8.550
 5356POPC   D2A15064  31.511  40.025   8.250
 5356POPC   C3A15065  31.429  39.969   7.950
 5356POPC   C4A15066  31.459  39.996   7.650
 5356POPC   C1B15067  31.277  40.147   8.550
 5356POPC   C2B15068  31.309  40.146   8.250
 5356POPC   C3B15069  31.290  40.188   7.950
 5356POPC   C4B15070  31.329  40.132   7.650
 5357POPC   NC315071   5.082  42.345   9.450
 5357POPC   PO415072   5.048  42.331   9.150
 5357POPC   GL115073   5.064  42.336   8.850
 5357POPC   GL215074   5.075  42.181   8.850
 5357POPC   C1A15075   5.128  42.337   8.550
 5357POPC   D2A15076   5.108  42.360   8.250
 5357POPC   C3A15077   5.080  42.357   7.950
 5357POPC   C4A15078   5.069  42.375   7.650
 5357POPC   C1B15079   5.060  42.102   8.550
 5357POPC   C2B15080   5.066  42.086   8.250
 5357POPC   C3B15081   5.136  42.071   7.950
 5357POPC   C4B15082   5.133  42.061   7.650
 5358POPC   NC315083  24.459  43.141   9.450
 5358POPC   PO415084  24.516  43.063   9.150
 5358POPC   GL115085  24.509  43.066   8.850
 5358POPC   GL215086  24.600  43.229   8.850
 5358POPC   C1A15087  24.515  43.128   8.550
 5358POPC   D2A15088  24.536  43.090   8.250
 5358POPC   C3A15089  24.451  43.124   7.950
 5358POPC   C4A15090  24.448  43.081   7.650
 5358POPC   C1B15091  24.658  43.290   8.550
 5358POPC   C2B15092  24.703  43.286   8.250
 5358POPC   C3B15093  24.701  43.232   7.950
 5358POPC   C4B15094  24.713  43.324   7.650
 5359POPC   NC315095  35.308  43.074   9.450
 5359POPC   PO415096  35.373  43.079   9.150
 5359POPC   GL115097  35.334  43.146   8.850
 5359POPC   GL215098  35.436  43.022   8.850
 5359POPC   C1A15099  35.348  43.088   8.550
 5359POPC   D2A15100  35.324  43.146   8.250
 5359POPC   C3A15101  35.392  43.121   7.950
 5359POPC   C4A15102  35.372  43.082   7.650
 5359POPC   C1B15103  35.496  42.904   8.550
 5359POPC   C2B15104  35.513  42.963   8.250
 5359POPC   C3B15105  35.490  42.924   7.950
 5359POPC   C4B15106  35.556  42.954   7.650
 5360POPC   NC315107  39.200  22.894   9.450
 5360POPC   PO415108  39.254  22.973   9.150
 5360POPC   GL115109  39.259  22.971   8.850
 5360POPC   GL215110  39.243  22.869   8.850
 5360POPC   C1A15111  39.271  22.931   8.550
 5360POPC   D2A15112  39.259  22.910   8.250
 5360POPC   C3A15113  39.276  22.945   7.950
 5360POPC   C4A15114  39.253  22.889   7.650
 5360POPC   C1B15115  39.377  22.744   8.550
 5360POPC   C2B15116  39.318  22.756   8.250
 5360POPC   C3B15117  39.387  22.735   7.950
 5360POPC   C4B15118  39.348  22.703   7.650
 5361POPC   NC315119  12.815  16.758   9.450
 5361POPC   PO415120  12.875  16.737   9.150
 5361POPC   GL115121  12.829  16.768   8.850
 5361POPC   GL215122  12.703  16.771   8.850
 5361POPC   C1A15123  12.833  16.713   8.550
 5361POPC   D2A15124  12.850  16.709   8.250
 5361POPC   C3A15125  12.898  16.716   7.950
 5361POPC   C4A15126  12.874  16.753   7.650
 5361POPC   C1B15127  12.638  16.760   8.550
 5361POPC   C2B15128  12.577  16.748   8.250
 5361POPC   C3B15129  12.590  16.737   7.950
 5361POPC   C4B15130  12.587  16.754   7.650
 5362POPC   NC315131  33.817  16.747   9.450
 5362POPC   PO415132  33.831  16.731   9.150
 5362POPC   GL115133  33.840  16.681   8.850
 5362POPC   GL215134  33.902  16.738   8.850
 5362POPC   C1A15135  33.787  16.695   8.550
 5362POPC   D2A15136  33.814  16.725   8.250
 5362POPC   C3A15137  33.761  16.760   7.950
 5362POPC   C4A15138  33.844  16.729   7.650
 5362POPC   C1B15139  33.998  16.877   8.550
 5362POPC   C2B15140  34.015  16.840   8.250
 5362POPC   C3B15141  33.997  16.846   7.950
 5362POPC   C4B15142  33.985  16.794   7.650
 5363POPC   NC315143  19.023   2.735   9.450
 5363POPC   PO415144  19.101   2.801   9.150
 5363POPC   GL115145  19.086   2.754   8.850
 5363POPC   GL215146  18.956   2.802   8.850
 5363POPC   C1A15147  19.056   2.739   8.550
 5363POPC   D2A15148  19.021   2.775   8.250
 5363POPC   C3A15149  19.043   2.790   7.950
 5363POPC   C4A15150  19.038   2.747   7.650
 5363POPC   C1B15151  18.851   2.762   8.550
 5363POPC   C2B15152  18.786   2.776   8.250
 5363POPC   C3B15153  18.840   2.726   7.950
 5363POPC   C4B15154  18.841   2.743   7.650
 5364POPC   NC315155  33.071  22.924   9.450
 5364POPC   PO415156  33.011  22.919   9.150
 5364POPC   GL115157  33.069  22.905   8.850
 5364POPC   GL215158  32.989  22.842   8.850
 5364POPC   C1A15159  32.997  22.910   8.550
 5364POPC   D2A15160  33.026  22.921   8.250
 5364POPC   C3A15161  33.045  22.932   7.950
 5364POPC   C4A15162  33.058  22.920   7.650
 5364POPC   C1B15163  33.014  22.681   8.550
 5364POPC   C2B15164  33.005  22.650   8.250
 5364POPC   C3B15165  33.008  22.716   7.950
 5364POPC   C4B15166  33.078  22.685   7.650
 5365POPC   NC315167   9.017  39.970   9.450
 5365POPC   PO415168   8.948  39.980   9.150
 5365POPC   GL115169   8.930  39.977   8.850
 5365POPC   GL215170   9.079  39.983   8.850
 5365POPC   C1A15171   8.956  40.036   8.550
 5365POPC   D2A15172   9.010  39.971   8.250
 5365POPC   C3A15173   8.993  39.973   7.950
 5365POPC   C4A15174   8.941  40.042   7.650
 5365POPC   C1B15175   9.232  40.036   8.550
 5365POPC   C2B15176   9.214  40.012   8.250
 5365POPC   C3B15177   9.182  39.984   7.950
 5365POPC   C4B15178   9.229  40.011   7.650
 5366POPC   NC315179  11.289  19.087   9.450
 5366POPC   PO415180  11.262  19.093   9.150
 5366POPC   GL115181  11.338  19.043   8.850
 5366POPC   GL215182  11.326  18.915   8.850
 5366POPC   C1A15183  11.336  19.072   8.550
 5366POPC   D2A15184  11.298  19.061   8.250
 5366POPC   C3A15185  11.341  19.046   7.950
 5366POPC   C4A15186  11.271  19.077   7.650
 5366POPC   C1B15187  11.356  18.812   8.550
 5366POPC   C2B15188  11.394  18.835   8.250
 5366POPC   C3B15189  11.384  18.779   7.950
 5366POPC   C4B15190  11.355  18.780   7.650
 5367POPC   NC315191  43.151  12.081   9.450
 5367POPC   PO415192  43.114  12.077   9.150
 5367POPC   GL115193  43.106  12.090   8.850
 5367POPC   GL215194  43.080  12.214   8.850
 5367POPC   C1A15195  43.146  12.060   8.550
 5367POPC   D2A15196  43.150  12.078   8.250
 5367POPC   C3A15197  43.080  12.105   7.950
 5367POPC   C4A15198  43.121  12.107   7.650
 5367POPC   C1B15199  43.054  12.369   8.550
 5367POPC   C2B15200  43.047  12.325   8.250
 5367POPC   C3B15201  43.110  12.338   7.950
 5367POPC   C4B15202  43.069  12.323   7.650
 5368POPC   NC315203  33.833   1.984   9.450
 5368POPC   PO415204  33.755   1.991   9.150
 5368POPC   GL115205  33.769   1.943   8.850
 5368POPC   GL215206  33.691   2.098   8.850
 5368POPC   C1A15207  33.803   2.003   8.550
 5368POPC   D2A15208  33.769   2.000   8.250
 5368POPC   C3A15209  33.845   2.002   7.950
 5368POPC   C4A15210  33.819   1.999   7.650
 5368POPC   C1B15211  33.610   2.212   8.550
 5368POPC   C2B15212  33.602   2.167   8.250
 5368POPC   C3B15213  33.597   2.227   7.950
 5368POPC   C4B15214  33.683   2.174   7.650
 5369POPC   NC315215  12.830  26.000   9.450
 5369POPC   PO415216  12.818  26.065   9.150
 5369POPC   GL115217  12.812  26.072   8.850
 5369POPC   GL215218  12.886  25.917   8.850
 5369POPC   C1A15219  12.879  26.038   8.550
 5369POPC   D2A15220  12.821  26.015   8.250
 5369POPC   C3A15221  12.878  26.080   7.950
 5369POPC   C4A15222  12.828  26.005   7.650
 5369POPC   C1B15223  12.872  25.839   8.550
 5369POPC   C2B15224  12.938  25.829   8.250
 5369POPC   C3B15225  12.930  25.789   7.950
 5369POPC   C4B15226  12.911  25.789   7.650
 5370POPC   NC315227  18.236  33.011   9.450
 5370POPC   PO415228  18.233  33.047   9.150
 5370POPC   GL115229  18.291  33.037   8.850
 5370POPC   GL215230  18.372  33.014   8.850
 5370POPC   C1A15231  18.245  33.034   8.550
 5370POPC   D2A15232  18.238  32.977   8.250
 5370POPC   C3A15233  18.309  33.028   7.950
 5370POPC   C4A15234  18.318  33.072   7.650
 5370POPC   C1B15235  18.568  33.049   8.550
 5370POPC   C2B15236  18.489  33.009   8.250
 5370POPC   C3B15237  18.505  33.009   7.950
 5370POPC   C4B15238  18.538  32.984   7.650
 5371POPC   NC315239  40.777  33.846   9.450
 5371POPC   PO415240  40.746  33.769   9.150
 5371POPC   GL115241  40.772  33.843   8.850
 5371POPC   GL215242  40.916  33.876   8.850
 5371POPC   C1A15243  40.809  33.843   8.550
 5371POPC   D2A15244  40.774  33.815   8.250
 5371POPC   C3A15245  40.822  33.850   7.950
 5371POPC   C4A15246  40.795  33.821   7.650
 5371POPC   C1B15247  40.974  33.907   8.550
 5371POPC   C2B15248  40.931  33.938   8.250
 5371POPC   C3B15249  40.939  33.904   7.950
 5371POPC   C4B15250  40.991  33.908   7.650
 5372POPC   NC315251  35.329  38.476   9.450
 5372POPC   PO415252  35.382  38.457   9.150
 5372POPC   GL115253  35.331  38.444   8.850
 5372POPC   GL215254  35.422  38.309   8.850
 5372POPC   C1A15255  35.309  38.434   8.550
 5372POPC   D2A15256  35.347  38.484   8.250
 5372POPC   C3A15257  35.327  38.407   7.950
 5372POPC   C4A15258  35.323  38.454   7.650
 5372POPC   C1B15259  35.459  38.302   8.550
 5372POPC   C2B15260  35.522  38.293   8.250
 5372POPC   C3B15261  35.454  38.257   7.950
 5372POPC   C4B15262  35.454  38.223   7.650
 5373POPC   NC315263  28.335   9.022   9.450
 5373POPC   PO415264  28.354   8.931   9.150
 5373POPC   GL115265  28.337   9.014   8.850
 5373POPC   GL215266  28.507   8.891   8.850
 5373POPC   C1A15267  28.341   8.931   8.550
 5373POPC   D2A15268  28.413   8.944   8.250
 5373POPC   C3A15269  28.370   8.986   7.950
 5373POPC   C4A15270  28.340   8.961   7.650
 5373POPC   C1B15271  28.586   8.889   8.550
 5373POPC   C2B15272  28.576   8.884   8.250
 5373POPC   C3B15273  28.556   8.886   7.950
 5373POPC   C4B15274  28.572   8.895   7.650
 5374POPC   NC315275  32.224   2.754   9.450
 5374POPC   PO415276  32.209   2.771   9.150
 5374POPC   GL115277  32.276   2.752   8.850
 5374POPC   GL215278  32.261   2.895   8.850
 5374POPC   C1A15279  32.249   2.800   8.550
 5374POPC   D2A15280  32.295   2.748   8.250
 5374POPC   C3A15281  32.237   2.727   7.950
 5374POPC   C4A15282  32.281   2.778   7.650
 5374POPC   C1B15283  32.284   3.030   8.550
 5374POPC   C2B15284  32.363   2.961   8.250
 5374POPC   C3B15285  32.299   3.039   7.950
 5374POPC   C4B15286  32.325   3.006   7.650
 5375POPC   NC315287  34.539   6.615   9.450
 5375POPC   PO415288  34.617   6.668   9.150
 5375POPC   GL115289  34.587   6.635   8.850
 5375POPC   GL215290  34.452   6.568   8.850
 5375POPC   C1A15291  34.614   6.686   8.550
 5375POPC   D2A15292  34.586   6.611   8.250
 5375POPC   C3A15293  34.533   6.660   7.950
 5375POPC   C4A15294  34.537   6.668   7.650
 5375POPC   C1B15295  34.408   6.463   8.550
 5375POPC   C2B15296  34.423   6.510   8.250
 5375POPC   C3B15297  34.387   6.521   7.950
 5375POPC   C4B15298  34.331   6.490   7.650
 5376POPC   NC315299  36.139  22.181   9.450
 5376POPC   PO415300  36.103  22.162   9.150
 5376POPC   GL115301  36.174  22.117   8.850
 5376POPC   GL215302  36.226  22.137   8.850
 5376POPC   C1A15303  36.128  22.133   8.550
 5376POPC   D2A15304  36.173  22.207   8.250
 5376POPC   C3A15305  36.173  22.207   7.950
 5376POPC   C4A15306  36.149  22.166   7.650
 5376POPC   C1B15307  36.325  22.142   8.550
 5376POPC   C2B15308  36.377  22.081   8.250
 5376POPC   C3B15309  36.350  22.109   7.950
 5376POPC   C4B15310  36.385  22.148   7.650
 5377POPC   NC315311  17.555  17.510   9.450
 5377POPC   PO415312  17.463  17.480   9.150
 5377POPC   GL115313  17.466  17.513   8.850
 5377POPC   GL215314  17.613  17.491   8.850
 5377POPC   C1A15315  17.536  17.550   8.550
 5377POPC   D2A15316  17.542  17.496   8.250
 5377POPC   C3A15317  17.556  17.512   7.950
 5377POPC   C4A15318  17.469  17.545   7.650
 5377POPC   C1B15319  17.677  17.383   8.550
 5377POPC   C2B15320  17.706  17.352   8.250
 5377POPC   C3B15321  17.699  17.362   7.950
 5377POPC   C4B15322  17.695  17.412   7.650
 5378POPC   NC315323  13.626  44.645   9.450
 5378POPC   PO415324  13.616  44.636   9.150
 5378POPC   GL115325  13.637  44.642   8.850
 5378POPC   GL215326  13.503  44.655   8.850
 5378POPC   C1A15327  13.642  44.621   8.550
 5378POPC   D2A15328  13.617  44.638   8.250
 5378POPC   C3A15329  13.579  44.636   7.950
 5378POPC   C4A15330  13.609  44.652   7.650
 5378POPC   C1B15331  13.403  44.599   8.550
 5378POPC   C2B15332  13.363  44.599   8.250
 5378POPC   C3B15333  13.420  44.607   7.950
 5378POPC   C4B15334  13.383  44.583   7.650
 5379POPC   NC315335  33.043   1.203   9.450
 5379POPC   PO415336  33.035   1.249   9.150
 5379POPC   GL115337  33.031   1.222   8.850
 5379POPC   GL215338  32.908   1.266   8.850
 5379POPC   C1A15339  33.070   1.199   8.550
 5379POPC   D2A15340  33.016   1.183   8.250
 5379POPC   C3A15341  33.050   1.203   7.950
 5379POPC   C4A15342  33.007   1.256   7.650
 5379POPC   C1B15343  32.787   1.279   8.550
 5379POPC   C2B15344  32.821   1.310   8.250
 5379POPC   C3B15345  32.806   1.351   7.950
 5379POPC   C4B15346  32.810   1.291   7.650
 5380POPC   NC315347   1.978  15.914   9.450
 5380POPC   PO415348   1.981  15.974   9.150
 5380POPC   GL115349   1.958  15.982   8.850
 5380POPC   GL215350   2.130  15.918   8.850
 5380POPC   C1A15351   1.970  15.975   8.550
 5380POPC   D2A15352   1.990  15.994   8.250
 5380POPC   C3A15353   1.979  15.946   7.950
 5380POPC   C4A15354   2.010  15.907   7.650
 5380POPC   C1B15355   2.169  15.877   8.550
 5380POPC   C2B15356   2.168  15.841   8.250
 5380POPC   C3B15357   2.252  15.872   7.950
 5380POPC   C4B15358   2.241  15.828   7.650
 5381POPC   NC315359  36.896  15.928   9.450
 5381POPC   PO415360  36.940  15.921   9.150
 5381POPC   GL115361  36.951  15.990   8.850
 5381POPC   GL215362  36.762  15.925   8.850
 5381POPC   C1A15363  36.864  15.948   8.550
 5381POPC   D2A15364  36.946  15.909   8.250
 5381POPC   C3A15365  36.931  15.941   7.950
 5381POPC   C4A15366  36.921  15.921   7.650
 5381POPC   C1B15367  36.704  15.893   8.550
 5381POPC   C2B15368  36.694  15.921   8.250
 5381POPC   C3B15369  36.682  15.942   7.950
 5381POPC   C4B15370  36.681  15.937   7.650
 5382POPC   NC315371  25.299  17.492   9.450
 5382POPC   PO415372  25.277  17.510   9.150
 5382POPC   GL115373  25.234  17.547   8.850
 5382POPC   GL215374  25.195  17.621   8.850
 5382POPC   C1A15375  25.276  17.472   8.550
 5382POPC   D2A15376  25.291  17.464   8.250
 5382POPC   C3A15377  25.286  17.510   7.950
 5382POPC   C4A15378  25.243  17.505   7.650
 5382POPC   C1B15379  25.053  17.677   8.550
 5382POPC   C2B15380  25.052  17.729   8.250
 5382POPC   C3B15381  25.066  17.649   7.950
 5382POPC   C4B15382  25.065  17.668   7.650
 5383POPC   NC315383  42.367  20.638   9.450
 5383POPC   PO415384  42.377  20.626   9.150
 5383POPC   GL115385  42.296  20.652   8.850
 5383POPC   GL215386  42.217  20.703   8.850
 5383POPC   C1A15387  42.288  20.598   8.550
 5383POPC   D2A15388  42.296  20.565   8.250
 5383POPC   C3A15389  42.369  20.598   7.950
 5383POPC   C4A15390  42.331  20.657   7.650
 5383POPC   C1B15391  42.194  20.813   8.550
 5383POPC   C2B15392  42.174  20.838   8.250
 5383POPC   C3B15393  42.161  20.822   7.950
 5383POPC   C4B15394  42.138  20.847   7.650
 5384POPC   NC315395  37.642  39.242   9.450
 5384POPC   PO415396  37.726  39.258   9.150
 5384POPC   GL115397  37.712  39.192   8.850
 5384POPC   GL215398  37.782  39.309   8.850
 5384POPC   C1A15399  37.714  39.214   8.550
 5384POPC   D2A15400  37.662  39.218   8.250
 5384POPC   C3A15401  37.710  39.254   7.950
 5384POPC   C4A15402  37.686  39.209   7.650
 5384POPC   C1B15403  37.889  39.255   8.550
 5384POPC   C2B15404  37.901  39.333   8.250
 5384POPC   C3B15405  37.869  39.351   7.950
 5384POPC   C4B15406  37.924  39.304   7.650
 5385POPC   NC315407  29.925  34.596   9.450
 5385POPC   PO415408  29.882  34.534   9.150
 5385POPC   GL115409  29.923  34.621   8.850
 5385POPC   GL215410  29.877  34.489   8.850
 5385POPC   C1A15411  29.907  34.557   8.550
 5385POPC   D2A15412  29.880  34.618   8.250
 5385POPC   C3A15413  29.890  34.585   7.950
 5385POPC   C4A15414  29.925  34.572   7.650
 5385POPC   C1B15415  29.794  34.338   8.550
 5385POPC   C2B15416  29.788  34.332   8.250
 5385POPC   C3B15417  29.865  34.329   7.950
 5385POPC   C4B15418  29.793  34.306   7.650
 5386POPC   NC315419  23.731   9.716   9.450
 5386POPC   PO415420  23.697   9.780   9.150
 5386POPC   GL115421  23.706   9.746   8.850
 5386POPC   GL215422  23.843   9.803   8.850
 5386POPC   C1A15423  23.680   9.794   8.550
 5386POPC   D2A15424  23.673   9.768   8.250
 5386POPC   C3A15425  23.706   9.701   7.950
 5386POPC   C4A15426  23.724   9.741   7.650
 5386POPC   C1B15427  23.951   9.745   8.550
 5386POPC   C2B15428  23.956   9.766   8.250
 5386POPC   C3B15429  23.986   9.819   7.950
 5386POPC   C4B15430  23.945   9.749   7.650
 5387POPC   NC315431  36.886   8.173   9.450
 5387POPC   PO415432  36.904   8.200   9.150
 5387POPC   GL115433  36.921   8.155   8.850
 5387POPC   GL215434  36.801   8.190   8.850
 5387POPC   C1A15435  36.859   8.151   8.550
 5387POPC   D2A15436  36.927   8.246   8.250
 5387POPC   C3A15437  36.896   8.155   7.950
 5387POPC   C4A15438  36.945   8.160   7.650
 5387POPC   C1B15439  36.649   8.293   8.550
 5387POPC   C2B15440  36.619   8.295   8.250
 5387POPC   C3B15441  36.695   8.242   7.950
 5387POPC   C4B15442  36.621   8.310   7.650
 5388POPC   NC315443  29.142  13.677   9.450
 5388POPC   PO415444  29.178  13.598   9.150
 5388POPC   GL115445  29.100  13.580   8.850
 5388POPC   GL215446  29.296  13.588   8.850
 5388POPC   C1A15447  29.168  13.609   8.550
 5388POPC   D2A15448  29.165  13.622   8.250
 5388POPC   C3A15449  29.106  13.613   7.950
 5388POPC   C4A15450  29.116  13.665   7.650
 5388POPC   C1B15451  29.397  13.632   8.550
 5388POPC   C2B15452  29.439  13.623   8.250
 5388POPC   C3B15453  29.364  13.548   7.950
 5388POPC   C4B15454  29.424  13.545   7.650
 5389POPC   NC315455  35.335  28.409   9.450
 5389POPC   PO415456  35.316  28.365   9.150
 5389POPC   GL115457  35.399  28.400   8.850
 5389POPC   GL215458  35.394  28.508   8.850
 5389POPC   C1A15459  35.332  28.339   8.550
 5389POPC   D2A15460  35.374  28.340   8.250
 5389POPC   C3A15461  35.356  28.381   7.950
 5389POPC   C4A15462  35.319  28.323   7.650
 5389POPC   C1B15463  35.411  28.588   8.550
 5389POPC   C2B15464  35.413  28.646   8.250
 5389POPC   C3B15465  35.326  28.665   7.950
 5389POPC   C4B15466  35.390  28.627   7.650
 5390POPC   NC315467   9.006  41.531   9.450
 5390POPC   PO415468   8.934  41.587   9.150
 5390POPC   GL115469   8.958  41.531   8.850
 5390POPC   GL215470   9.002  41.431   8.850
 5390POPC   C1A15471   8.974  41.530   8.550
 5390POPC   D2A15472   9.018  41.573   8.250
 5390POPC   C3A15473   8.949  41.566   7.950
 5390POPC   C4A15474   8.966  41.536   7.650
 5390POPC   C1B15475   9.091  41.295   8.550
 5390POPC   C2B15476   9.084  41.342   8.250
 5390POPC   C3B15477   9.033  41.300   7.950
 5390POPC   C4B15478   9.047  41.293   7.650
 5391POPC   NC315479  30.716  12.075   9.450
 5391POPC   PO415480  30.695  12.078   9.150
 5391POPC   GL115481  30.705  12.075   8.850
 5391POPC   GL215482  30.685  11.982   8.850
 5391POPC   C1A15483  30.701  12.056   8.550
 5391POPC   D2A15484  30.649  12.115   8.250
 5391POPC   C3A15485  30.739  12.073   7.950
 5391POPC   C4A15486  30.673  12.056   7.650
 5391POPC   C1B15487  30.767  11.809   8.550
 5391POPC   C2B15488  30.796  11.854   8.250
 5391POPC   C3B15489  30.780  11.846   7.950
 5391POPC   C4B15490  30.803  11.836   7.650
 5392POPC   NC315491  22.134  29.956   9.450
 5392POPC   PO415492  22.116  29.900   9.150
 5392POPC   GL115493  22.117  29.924   8.850
 5392POPC   GL215494  22.141  29.764   8.850
 5392POPC   C1A15495  22.176  29.940   8.550
 5392POPC   D2A15496  22.150  29.898   8.250
 5392POPC   C3A15497  22.140  29.935   7.950
 5392POPC   C4A15498  22.114  29.951   7.650
 5392POPC   C1B15499  22.195  29.656   8.550
 5392POPC   C2B15500  22.183  29.670   8.250
 5392POPC   C3B15501  22.189  29.669   7.950
 5392POPC   C4B15502  22.156  29.624   7.650
 5393POPC   NC315503  44.644  16.733   9.450
 5393POPC   PO415504  44.663  16.775   9.150
 5393POPC   GL115505  44.665  16.725   8.850
 5393POPC   GL215506  44.747  16.758   8.850
 5393POPC   C1A15507  44.627  16.730   8.550
 5393POPC   D2A15508  44.677  16.722   8.250
 5393POPC   C3A15509  44.658  16.701   7.950
 5393POPC   C4A15510  44.701  16.727   7.650
 5393POPC   C1B15511  44.930  16.851   8.550
 5393POPC   C2B15512  44.866  16.794   8.250
 5393POPC   C3B15513  44.894  16.872   7.950
 5393POPC   C4B15514  44.905  16.881   7.650
 5394POPC   NC315515  42.305   6.620   9.450
 5394POPC   PO415516  42.352   6.608   9.150
 5394POPC   GL115517  42.318   6.614   8.850
 5394POPC   GL215518  42.457   6.509   8.850
 5394POPC   C1A15519  42.309   6.640   8.550
 5394POPC   D2A15520  42.308   6.693   8.250
 5394POPC   C3A15521  42.285   6.601   7.950
 5394POPC   C4A15522  42.305   6.619   7.650
 5394POPC   C1B15523  42.466   6.476   8.550
 5394POPC   C2B15524  42.466   6.475   8.250
 5394POPC   C3B15525  42.540   6.420   7.950
 5394POPC   C4B15526  42.532   6.487   7.650
 5395POPC   NC315527  34.619  36.934   9.450
 5395POPC   PO415528  34.544  36.884   9.150
 5395POPC   GL115529  34.568  36.946   8.850
 5395POPC   GL215530  34.437  36.775   8.850
 5395POPC   C1A15531  34.579  36.862   8.550
 5395POPC   D2A15532  34.554  36.874   8.250
 5395POPC   C3A15533  34.590  36.893   7.950
 5395POPC   C4A15534  34.603  36.861   7.650
 5395POPC   C1B15535  34.414  36.732   8.550
 5395POPC   C2B15536  34.437  36.719   8.250
 5395POPC   C3B15537  34.376  36.727   7.950
 5395POPC   C4B15538  34.416  36.770   7.650
 5396POPC   NC315539   1.249  12.897   9.450
 5396POPC   PO415540   1.199  12.897   9.150
 5396POPC   GL115541   1.201  12.833   8.850
 5396POPC   GL215542   1.324  12.873   8.850
 5396POPC   C1A15543   1.201  12.847   8.550
 5396POPC   D2A15544   1.193  12.877   8.250
 5396POPC   C3A15545   1.200  12.842   7.950
 5396POPC   C4A15546   1.213  12.844   7.650
 5396POPC   C1B15547   1.472  12.790   8.550
 5396POPC   C2B15548   1.496  12.808   8.250
 5396POPC   C3B15549   1.486  12.782   7.950
 5396POPC   C4B15550   1.449  12.791   7.650
 5397POPC   NC315551   4.333  41.522   9.450
 5397POPC   PO415552   4.366  41.599   9.150
 5397POPC   GL115553   4.313  41.537   8.850
 5397POPC   GL215554   4.196  41.681   8.850
 5397POPC   C1A15555   4.320  41.515   8.550
 5397POPC   D2A15556   4.360  41.566   8.250
 5397POPC   C3A15557   4.336  41.598   7.950
 5397POPC   C4A15558   4.294  41.604   7.650
 5397POPC   C1B15559   4.195  41.778   8.550
 5397POPC   C2B15560   4.201  41.751   8.250
 5397POPC   C3B15561   4.172  41.759   7.950
 5397POPC   C4B15562   4.145  41.765   7.650
 5398POPC   NC315563  22.165   5.084   9.450
 5398POPC   PO415564  22.209   5.099   9.150
 5398POPC   GL115565  22.142   5.108   8.850
 5398POPC   GL215566  22.059   5.047   8.850
 5398POPC   C1A15567  22.123   5.120   8.550
 5398POPC   D2A15568  22.115   5.079   8.250
 5398POPC   C3A15569  22.178   5.126   7.950
 5398POPC   C4A15570  22.140   5.084   7.650
 5398POPC   C1B15571  21.945   4.993   8.550
 5398POPC   C2B15572  21.949   4.940   8.250
 5398POPC   C3B15573  21.938   4.983   7.950
 5398POPC   C4B15574  21.927   4.928   7.650
 5399POPC   NC315575  19.854  38.497   9.450
 5399POPC   PO415576  19.844  38.409   9.150
 5399POPC   GL115577  19.815  38.464   8.850
 5399POPC   GL215578  19.755  38.358   8.850
 5399POPC   C1A15579  19.863  38.492   8.550
 5399POPC   D2A15580  19.874  38.498   8.250
 5399POPC   C3A15581  19.840  38.451   7.950
 5399POPC   C4A15582  19.874  38.420   7.650
 5399POPC   C1B15583  19.700  38.312   8.550
 5399POPC   C2B15584  19.640  38.252   8.250
 5399POPC   C3B15585  19.707  38.274   7.950
 5399POPC   C4B15586  19.646  38.235   7.650
 5400POPC   NC315587  13.614  11.320   9.450
 5400POPC   PO415588  13.600  11.256   9.150
 5400POPC   GL115589  13.606  11.349   8.850
 5400POPC   GL215590  13.622  11.387   8.850
 5400POPC   C1A15591  13.628  11.289   8.550
 5400POPC   D2A15592  13.578  11.325   8.250
 5400POPC   C3A15593  13.634  11.325   7.950
 5400POPC   C4A15594  13.606  11.302   7.650
 5400POPC   C1B15595  13.605  11.548   8.550
 5400POPC   C2B15596  13.568  11.514   8.250
 5400POPC   C3B15597  13.641  11.596   7.950
 5400POPC   C4B15598  13.622  11.510   7.650
 5401POPC   NC315599  12.823  22.946   9.450
 5401POPC   PO415600  12.865  22.977   9.150
 5401POPC   GL115601  12.870  22.944   8.850
 5401POPC   GL215602  12.986  22.848   8.850
 5401POPC   C1A15603  12.822  22.932   8.550
 5401POPC   D2A15604  12.806  22.968   8.250
 5401POPC   C3A15605  12.863  22.968   7.950
 5401POPC   C4A15606  12.842  22.899   7.650
 5401POPC   C1B15607  13.053  22.740   8.550
 5401POPC   C2B15608  13.037  22.790   8.250
 5401POPC   C3B15609  13.063  22.804   7.950
 5401POPC   C4B15610  13.033  22.804   7.650
 5402POPC   NC315611  36.092  26.005   9.450
 5402POPC   PO415612  36.170  25.996   9.150
 5402POPC   GL115613  36.161  26.002   8.850
 5402POPC   GL215614  36.116  26.134   8.850
 5402POPC   C1A15615  36.137  26.021   8.550
 5402POPC   D2A15616  36.094  25.997   8.250
 5402POPC   C3A15617  36.099  26.027   7.950
 5402POPC   C4A15618  36.172  26.060   7.650
 5402POPC   C1B15619  36.104  26.316   8.550
 5402POPC   C2B15620  36.116  26.252   8.250
 5402POPC   C3B15621  36.054  26.311   7.950
 5402POPC   C4B15622  36.094  26.267   7.650
 5403POPC   NC315623   2.003  31.484   9.450
 5403POPC   PO415624   1.959  31.464   9.150
 5403POPC   GL115625   1.941  31.512   8.850
 5403POPC   GL215626   1.885  31.388   8.850
 5403POPC   C1A15627   1.970  31.462   8.550
 5403POPC   D2A15628   1.940  31.423   8.250
 5403POPC   C3A15629   2.018  31.451   7.950
 5403POPC   C4A15630   1.958  31.493   7.650
 5403POPC   C1B15631   1.816  31.339   8.550
 5403POPC   C2B15632   1.820  31.262   8.250
 5403POPC   C3B15633   1.838  31.341   7.950
 5403POPC   C4B15634   1.810  31.330   7.650
 5404POPC   NC315635  26.823   7.451   9.450
 5404POPC   PO415636  26.797   7.418   9.150
 5404POPC   GL115637  26.778   7.403   8.850
 5404POPC   GL215638  26.900   7.423   8.850
 5404POPC   C1A15639  26.779   7.442   8.550
 5404POPC   D2A15640  26.846   7.373   8.250
 5404POPC   C3A15641  26.808   7.420   7.950
 5404POPC   C4A15642  26.834   7.434   7.650
 5404POPC   C1B15643  27.025   7.444   8.550
 5404POPC   C2B15644  27.048   7.452   8.250
 5404POPC   C3B15645  27.078   7.451   7.950
 5404POPC   C4B15646  27.078   7.443   7.650
 5405POPC   NC315647  43.884  26.774   9.450
 5405POPC   PO415648  43.872  26.833   9.150
 5405POPC   GL115649  43.863  26.855   8.850
 5405POPC   GL215650  43.794  26.862   8.850
 5405POPC   C1A15651  43.871  26.865   8.550
 5405POPC   D2A15652  43.912  26.857   8.250
 5405POPC   C3A15653  43.898  26.853   7.950
 5405POPC   C4A15654  43.854  26.776   7.650
 5405POPC   C1B15655  43.716  26.991   8.550
 5405POPC   C2B15656  43.727  26.955   8.250
 5405POPC   C3B15657  43.750  26.971   7.950
 5405POPC   C4B15658  43.691  26.948   7.650
 5406POPC   NC315659   2.001  23.696   9.450
 5406POPC   PO415660   1.987  23.692   9.150
 5406POPC   GL115661   2.015  23.702   8.850
 5406POPC   GL215662   2.124  23.757   8.850
 5406POPC   C1A15663   2.031  23.755   8.550
 5406POPC   D2A15664   1.995  23.736   8.250
 5406POPC   C3A15665   1.976  23.756   7.950
 5406POPC   C4A15666   2.026  23.719   7.650
 5406POPC   C1B15667   2.159  23.893   8.550
 5406POPC   C2B15668   2.127  23.860   8.250
 5406POPC   C3B15669   2.166  23.927   7.950
 5406POPC   C4B15670   2.172  23.879   7.650
 5407POPC   NC315671  44.704  10.508   9.450
 5407POPC   PO415672  44.663  10.529   9.150
 5407POPC   GL115673  44.652  10.554   8.850
 5407POPC   GL215674  44.611  10.675   8.850
 5407POPC   C1A15675  44.644  10.528   8.550
 5407POPC   D2A15676  44.687  10.551   8.250
 5407POPC   C3A15677  44.696  10.529   7.950
 5407POPC   C4A15678  44.628  10.497   7.650
 5407POPC   C1B15679  44.577  10.715   8.550
 5407POPC   C2B15680  44.559  10.798   8.250
 5407POPC   C3B15681  44.550  10.800   7.950
 5407POPC   C4B15682  44.560  10.744   7.650
 5408POPC   NC315683  15.163  19.027   9.450
 5408POPC   PO415684  15.199  19.076   9.150
 5408POPC   GL115685  15.156  19.103   8.850
 5408POPC   GL215686  15.072  19.048   8.850
 5408POPC   C1A15687  15.186  19.017   8.550
 5408POPC   D2A15688  15.158  19.095   8.250
 5408POPC   C3A15689  15.170  19.027   7.950
 5408POPC   C4A15690  15.217  19.045   7.650
 5408POPC   C1B15691  14.963  19.027   8.550
 5408POPC   C2B15692  14.917  19.056   8.250
 5408POPC   C3B15693  14.898  18.980   7.950
 5408POPC   C4B15694  14.929  18.972   7.650
 5409POPC   NC315695  43.075   4.324   9.450
 5409POPC   PO415696  43.126   4.308   9.150
 5409POPC   GL115697  43.132   4.281   8.850
 5409POPC   GL215698  43.030   4.159   8.850
 5409POPC   C1A15699  43.077   4.330   8.550
 5409POPC   D2A15700  43.071   4.362   8.250
 5409POPC   C3A15701  43.064   4.277   7.950
 5409POPC   C4A15702  43.121   4.299   7.650
 5409POPC   C1B15703  43.021   4.108   8.550
 5409POPC   C2B15704  43.000   4.101   8.250
 5409POPC   C3B15705  42.963   4.117   7.950
 5409POPC   C4B15706  42.967   4.118   7.650
 5410POPC   NC315707  26.829  35.328   9.450
 5410POPC   PO415708  26.838  35.384   9.150
 5410POPC   GL115709  26.789  35.374   8.850
 5410POPC   GL215710  26.914  35.209   8.850
 5410POPC   C1A15711  26.789  35.309   8.550
 5410POPC   D2A15712  26.814  35.361   8.250
 5410POPC   C3A15713  26.808  35.381   7.950
 5410POPC   C4A15714  26.821  35.320   7.650
 5410POPC   C1B15715  26.945  35.139   8.550
 5410POPC   C2B15716  27.018  35.203   8.250
 5410POPC   C3B15717  26.964  35.203   7.950
 5410POPC   C4B15718  26.966  35.165   7.650
 5411POPC   NC315719  40.822  22.934   9.450
 5411POPC   PO415720  40.742  22.895   9.150
 5411POPC   GL115721  40.791  22.944   8.850
 5411POPC   GL215722  40.717  22.799   8.850
 5411POPC   C1A15723  40.756  22.949   8.550
 5411POPC   D2A15724  40.822  22.955   8.250
 5411POPC   C3A15725  40.761  22.959   7.950
 5411POPC   C4A15726  40.832  22.945   7.650
 5411POPC   C1B15727  40.649  22.711   8.550
 5411POPC   C2B15728  40.658  22.681   8.250
 5411POPC   C3B15729  40.704  22.673   7.950
 5411POPC   C4B15730  40.739  22.731   7.650
 5412POPC   NC315731  36.860  16.710   9.450
 5412POPC   PO415732  36.903  16.688   9.150
 5412POPC   GL115733  36.946  16.757   8.850
 5412POPC   GL215734  36.821  16.675   8.850
 5412POPC   C1A15735  36.896  16.760   8.550
 5412POPC   D2A15736  36.919  16.726   8.250
 5412POPC   C3A15737  36.872  16.758   7.950
 5412POPC   C4A15738  36.869  16.717   7.650
 5412POPC   C1B15739  36.635  16.599   8.550
 5412POPC   C2B15740  36.656  16.697   8.250
 5412POPC   C3B15741  36.640  16.624   7.950
 5412POPC   C4B15742  36.711  16.660   7.650
 5413POPC   NC315743  11.347  43.070   9.450
 5413POPC   PO415744  11.346  43.143   9.150
 5413POPC   GL115745  11.315  43.123   8.850
 5413POPC   GL215746  11.213  43.154   8.850
 5413POPC   C1A15747  11.253  43.140   8.550
 5413POPC   D2A15748  11.320  43.139   8.250
 5413POPC   C3A15749  11.318  43.103   7.950
 5413POPC   C4A15750  11.313  43.085   7.650
 5413POPC   C1B15751  11.100  43.256   8.550
 5413POPC   C2B15752  11.086  43.281   8.250
 5413POPC   C3B15753  11.062  43.248   7.950
 5413POPC   C4B15754  11.144  43.284   7.650
 5414POPC   NC315755   0.434  19.845   9.450
 5414POPC   PO415756   0.463  19.880   9.150
 5414POPC   GL115757   0.461  19.836   8.850
 5414POPC   GL215758   0.568  19.729   8.850
 5414POPC   C1A15759   0.440  19.789   8.550
 5414POPC   D2A15760   0.468  19.845   8.250
 5414POPC   C3A15761   0.430  19.868   7.950
 5414POPC   C4A15762   0.465  19.837   7.650
 5414POPC   C1B15763   0.676  19.745   8.550
 5414POPC   C2B15764   0.683  19.746   8.250
 5414POPC   C3B15765   0.692  19.667   7.950
 5414POPC   C4B15766   0.636  19.748   7.650
 5415POPC   NC315767  33.772  27.595   9.450
 5415POPC   PO415768  33.797  27.581   9.150
 5415POPC   GL115769  33.826  27.608   8.850
 5415POPC   GL215770  33.947  27.530   8.850
 5415POPC   C1A15771  33.835  27.568   8.550
 5415POPC   D2A15772  33.787  27.594   8.250
 5415POPC   C3A15773  33.813  27.555   7.950
 5415POPC   C4A15774  33.757  27.634   7.650
 5415POPC   C1B15775  34.064  27.423   8.550
 5415POPC   C2B15776  33.978  27.448   8.250
 5415POPC   C3B15777  33.996  27.504   7.950
 5415POPC   C4B15778  34.058  27.429   7.650
 5416POPC   NC315779  15.202  28.402   9.450
 5416POPC   PO415780  15.149  28.400   9.150
 5416POPC   GL115781  15.226  28.348   8.850
 5416POPC   GL215782  15.025  28.362   8.850
 5416POPC   C1A15783  15.183  28.336   8.550
 5416POPC   D2A15784  15.141  28.401   8.250
 5416POPC   C3A15785  15.167  28.409   7.950
 5416POPC   C4A15786  15.167  28.321   7.650
 5416POPC   C1B15787  14.935  28.376   8.550
 5416POPC   C2B15788  14.919  28.465   8.250
 5416POPC   C3B15789  14.950  28.386   7.950
 5416POPC   C4B15790  14.891  28.403   7.650
 5417POPC   NC315791  43.892  22.160   9.450
 5417POPC   PO415792  43.924  22.132   9.150
 5417POPC   GL115793  43.852  22.168   8.850
 5417POPC   GL215794  43.959  22.245   8.850
 5417POPC   C1A15795  43.922  22.197   8.550
 5417POPC   D2A15796  43.863  22.202   8.250
 5417POPC   C3A15797  43.890  22.171   7.950
 5417POPC   C4A15798  43.886  22.207   7.650
 5417POPC   C1B15799  43.940  22.440   8.550
 5417POPC   C2B15800  43.961  22.396   8.250
 5417POPC   C3B15801  43.990  22.367   7.950
 5417POPC   C4B15802  43.958  22.384   7.650
 5418POPC   NC315803   0.481  12.810   9.450
 5418POPC   PO415804   0.421  12.820   9.150
 5418POPC   GL115805   0.399  12.859   8.850
 5418POPC   GL215806   0.515  12.756   8.850
 5418POPC   C1A15807   0.400  12.887   8.550
 5418POPC   D2A15808   0.398  12.861   8.250
 5418POPC   C3A15809   0.478  12.809   7.950
 5418POPC   C4A15810   0.457  12.877   7.650
 5418POPC   C1B15811   0.537  12.593   8.550
 5418POPC   C2B15812   0.548  12.611   8.250
 5418POPC   C3B15813   0.503  12.618   7.950
 5418POPC   C4B15814   0.504  12.604   7.650
 5419POPC   NC315815  12.844   5.834   9.450
 5419POPC   PO415816  12.841   5.850   9.150
 5419POPC   GL115817  12.854   5.839   8.850
 5419POPC   GL215818  12.915   5.998   8.850
 5419POPC   C1A15819  12.850   5.884   8.550
 5419POPC   D2A15820  12.869   5.829   8.250
 5419POPC   C3A15821  12.811   5.908   7.950
 5419POPC   C4A15822  12.884   5.852   7.650
 5419POPC   C1B15823  12.936   6.130   8.550
 5419POPC   C2B15824  12.851   6.112   8.250
 5419POPC   C3B15825  12.888   6.135   7.950
 5419POPC   C4B15826  12.909   6.091   7.650
 5420POPC   NC315827  10.560   8.205   9.450
 5420POPC   PO415828  10.557   8.212   9.150
 5420POPC   GL115829  10.540   8.184   8.850
 5420POPC   GL215830  10.622   8.056   8.850
 5420POPC   C1A15831  10.545   8.204   8.550
 5420POPC   D2A15832  10.505   8.200   8.250
 5420POPC   C3A15833  10.499   8.194   7.950
 5420POPC   C4A15834  10.541   8.163   7.650
 5420POPC   C1B15835  10.660   7.993   8.550
 5420POPC   C2B15836  10.608   7.971   8.250
 5420POPC   C3B15837  10.695   7.960   7.950
 5420POPC   C4B15838  10.608   8.009   7.650
 5421POPC   NC315839  19.864  17.541   9.450
 5421POPC   PO415840  19.877  17.459   9.150
 5421POPC   GL115841  19.803  17.520   8.850
 5421POPC   GL215842  19.961  17.450   8.850
 5421POPC   C1A15843  19.834  17.556   8.550
 5421POPC   D2A15844  19.853  17.486   8.250
 5421POPC   C3A15845  19.812  17.511   7.950
 5421POPC   C4A15846  19.856  17.519   7.650
 5421POPC   C1B15847  20.018  17.371   8.550
 5421POPC   C2B15848  20.085  17.374   8.250
 5421POPC   C3B15849  20.032  17.414   7.950
 5421POPC   C4B15850  20.068  17.441   7.650
 5422POPC   NC315851   5.831  12.859   9.450
 5422POPC   PO415852   5.878  12.889   9.150
 5422POPC   GL115853   5.824  12.860   8.850
 5422POPC   GL215854   5.705  12.853   8.850
 5422POPC   C1A15855   5.912  12.856   8.550
 5422POPC   D2A15856   5.859  12.857   8.250
 5422POPC   C3A15857   5.821  12.874   7.950
 5422POPC   C4A15858   5.911  12.886   7.650
 5422POPC   C1B15859   5.595  12.904   8.550
 5422POPC   C2B15860   5.628  12.905   8.250
 5422POPC   C3B15861   5.646  12.951   7.950
 5422POPC   C4B15862   5.660  12.891   7.650
 5423POPC   NC315863  44.690   0.482   9.450
 5423POPC   PO415864  44.710   0.477   9.150
 5423POPC   GL115865  44.634   0.481   8.850
 5423POPC   GL215866  44.558   0.531   8.850
 5423POPC   C1A15867  44.632   0.405   8.550
 5423POPC   D2A15868  44.639   0.414   8.250
 5423POPC   C3A15869  44.687   0.411   7.950
 5423POPC   C4A15870  44.690   0.481   7.650
 5423POPC   C1B15871  44.509   0.631   8.550
 5423POPC   C2B15872  44.574   0.663   8.250
 5423POPC   C3B15873  44.504   0.653   7.950
 5423POPC   C4B15874  44.506   0.667   7.650
 5424POPC   NC315875   1.259  10.488   9.450
 5424POPC   PO415876   1.212  10.514   9.150
 5424POPC   GL115877   1.196  10.476   8.850
 5424POPC   GL215878   1.047  10.445   8.850
 5424POPC   C1A15879   1.253  10.479   8.550
 5424POPC   D2A15880   1.241  10.550   8.250
 5424POPC   C3A15881   1.201  10.535   7.950
 5424POPC   C4A15882   1.186  10.495   7.650
 5424POPC   C1B15883   1.005  10.410   8.550
 5424POPC   C2B15884   0.958  10.434   8.250
 5424POPC   C3B15885   0.970  10.399   7.950
 5424POPC   C4B15886   0.971  10.455   7.650
 5425POPC   NC315887   5.824  43.152   9.450
 5425POPC   PO415888   5.821  43.107   9.150
 5425POPC   GL115889   5.825  43.105   8.850
 5425POPC   GL215890   5.980  43.147   8.850
 5425POPC   C1A15891   5.846  43.124   8.550
 5425POPC   D2A15892   5.837  43.119   8.250
 5425POPC   C3A15893   5.826  43.083   7.950
 5425POPC   C4A15894   5.853  43.138   7.650
 5425POPC   C1B15895   6.162  43.122   8.550
 5425POPC   C2B15896   6.140  43.092   8.250
 5425POPC   C3B15897   6.099  43.190   7.950
 5425POPC   C4B15898   6.080  43.102   7.650
 5426POPC   NC315899   7.372  43.081   9.450
 5426POPC   PO415900   7.423  43.125   9.150
 5426POPC   GL115901   7.429  43.127   8.850
 5426POPC   GL215902   7.263  43.114   8.850
 5426POPC   C1A15903   7.407  43.094   8.550
 5426POPC   D2A15904   7.384  43.075   8.250
 5426POPC   C3A15905   7.415  43.077   7.950
 5426POPC   C4A15906   7.415  43.138   7.650
 5426POPC   C1B15907   7.173  43.098   8.550
 5426POPC   C2B15908   7.216  43.072   8.250
 5426POPC   C3B15909   7.165  43.158   7.950
 5426POPC   C4B15910   7.140  43.112   7.650
 5427POPC   NC315911   0.442   9.719   9.450
 5427POPC   PO415912   0.479   9.770   9.150
 5427POPC   GL115913   0.412   9.710   8.850
 5427POPC   GL215914   0.539   9.797   8.850
 5427POPC   C1A15915   0.443   9.711   8.550
 5427POPC   D2A15916   0.402   9.764   8.250
 5427POPC   C3A15917   0.474   9.791   7.950
 5427POPC   C4A15918   0.478   9.782   7.650
 5427POPC   C1B15919   0.649   9.859   8.550
 5427POPC   C2B15920   0.656   9.903   8.250
 5427POPC   C3B15921   0.661   9.907   7.950
 5427POPC   C4B15922   0.697   9.862   7.650
 5428POPC   NC315923  41.595  25.277   9.450
 5428POPC   PO415924  41.594  25.220   9.150
 5428POPC   GL115925  41.543  25.244   8.850
 5428POPC   GL215926  41.589  25.393   8.850
 5428POPC   C1A15927  41.563  25.241   8.550
 5428POPC   D2A15928  41.562  25.266   8.250
 5428POPC   C3A15929  41.603  25.294   7.950
 5428POPC   C4A15930  41.587  25.225   7.650
 5428POPC   C1B15931  41.598  25.486   8.550
 5428POPC   C2B15932  41.627  25.465   8.250
 5428POPC   C3B15933  41.632  25.490   7.950
 5428POPC   C4B15934  41.642  25.484   7.650
 5429POPC   NC315935  43.839  17.530   9.450
 5429POPC   PO415936  43.878  17.462   9.150
 5429POPC   GL115937  43.877  17.509   8.850
 5429POPC   GL215938  43.838  17.600   8.850
 5429POPC   C1A15939  43.888  17.463   8.550
 5429POPC   D2A15940  43.901  17.535   8.250
 5429POPC   C3A15941  43.895  17.537   7.950
 5429POPC   C4A15942  43.890  17.508   7.650
 5429POPC   C1B15943  43.810  17.729   8.550
 5429POPC   C2B15944  43.740  17.745   8.250
 5429POPC   C3B15945  43.805  17.765   7.950
 5429POPC   C4B15946  43.820  17.769   7.650
 5430POPC   NC315947  38.450  23.722   9.450
 5430POPC   PO415948  38.463  23.710   9.150
 5430POPC   GL115949  38.451  23.674   8.850
 5430POPC   GL215950  38.318  23.642   8.850
 5430POPC   C1A15951  38.455  23.739   8.550
 5430POPC   D2A15952  38.481  23.727   8.250
 5430POPC   C3A15953  38.478  23.703   7.950
 5430POPC   C4A15954  38.426  23.755   7.650
 5430POPC   C1B15955  38.189  23.663   8.550
 5430POPC   C2B15956  38.240  23.642   8.250
 5430POPC   C3B15957  38.163  23.671   7.950
 5430POPC   C4B15958  38.251  23.678   7.650
 5431POPC   NC315959  42.342  37.651   9.450
 5431POPC   PO415960  42.300  37.678   9.150
 5431POPC   GL115961  42.336  37.686   8.850
 5431POPC   GL215962  42.389  37.559   8.850
 5431POPC   C1A15963  42.353  37.665   8.550
 5431POPC   D2A15964  42.348  37.724   8.250
 5431POPC   C3A15965  42.313  37.634   7.950
 5431POPC   C4A15966  42.288  37.650   7.650
 5431POPC   C1B15967  42.483  37.556   8.550
 5431POPC   C2B15968  42.479  37.567   8.250
 5431POPC   C3B15969  42.483  37.493   7.950
 5431POPC   C4B15970  42.505  37.476   7.650
 5432POPC   NC315971  40.043  31.463   9.450
 5432POPC   PO415972  40.034  31.430   9.150
 5432POPC   GL115973  39.983  31.472   8.850
 5432POPC   GL215974  39.934  31.510   8.850
 5432POPC   C1A15975  40.000  31.517   8.550
 5432POPC   D2A15976  40.008  31.492   8.250
 5432POPC   C3A15977  39.967  31.517   7.950
 5432POPC   C4A15978  39.999  31.448   7.650
 5432POPC   C1B15979  39.796  31.593   8.550
 5432POPC   C2B15980  39.753  31.595   8.250
 5432POPC   C3B15981  39.780  31.569   7.950
 5432POPC   C4B15982  39.816  31.581   7.650
 5433POPC   NC315983  12.873  14.386   9.450
 5433POPC   PO415984  12.841  14.417   9.150
 5433POPC   GL115985  12.886  14.372   8.850
 5433POPC   GL215986  12.988  14.397   8.850
 5433POPC   C1A15987  12.878  14.375   8.550
 5433POPC   D2A15988  12.886  14.408   8.250
 5433POPC   C3A15989  12.854  14.372   7.950
 5433POPC   C4A15990  12.826  14.450   7.650
 5433POPC   C1B15991  13.079  14.348   8.550
 5433POPC   C2B15992  13.109  14.307   8.250
 5433POPC   C3B15993  13.073  14.342   7.950
 5433POPC   C4B15994  13.083  14.280   7.650
 5434POPC   NC315995  21.365   1.953   9.450
 5434POPC   PO415996  21.353   2.003   9.150
 5434POPC   GL115997  21.383   1.976   8.850
 5434POPC   GL215998  21.346   1.886   8.850
 5434POPC   C1A15999  21.396   1.970   8.550
 5434POPC   D2A16000  21.377   1.947   8.250
 5434POPC   C3A16001  21.362   1.992   7.950
 5434POPC   C4A16002  21.364   1.960   7.650
 5434POPC   C1B16003  21.340   1.753   8.550
 5434POPC   C2B16004  21.338   1.722   8.250
 5434POPC   C3B16005  21.341   1.690   7.950
 5434POPC   C4B16006  21.404   1.746   7.650
 5435POPC   NC316007  18.237  35.386   9.450
 5435POPC   PO416008  18.318  35.392   9.150
 5435POPC   GL116009  18.249  35.303   8.850
 5435POPC   GL216010  18.349  35.259   8.850
 5435POPC   C1A16011  18.314  35.320   8.550
 5435POPC   D2A16012  18.321  35.320   8.250
 5435POPC   C3A16013  18.281  35.379   7.950
 5435POPC   C4A16014  18.314  35.365   7.650
 5435POPC   C1B16015  18.512  35.254   8.550
 5435POPC   C2B16016  18.461  35.176   8.250
 5435POPC   C3B16017  18.456  35.262   7.950
 5435POPC   C4B16018  18.523  35.247   7.650
 5436POPC   NC316019  22.940  43.128   9.450
 5436POPC   PO416020  22.906  43.141   9.150
 5436POPC   GL116021  22.970  43.088   8.850
 5436POPC   GL216022  22.909  43.257   8.850
 5436POPC   C1A16023  22.984  43.155   8.550
 5436POPC   D2A16024  22.967  43.155   8.250
 5436POPC   C3A16025  22.947  43.140   7.950
 5436POPC   C4A16026  22.933  43.082   7.650
 5436POPC   C1B16027  22.857  43.404   8.550
 5436POPC   C2B16028  22.906  43.328   8.250
 5436POPC   C3B16029  22.911  43.376   7.950
 5436POPC   C4B16030  22.904  43.390   7.650
 5437POPC   NC316031  30.688  26.017   9.450
 5437POPC   PO416032  30.729  26.030   9.150
 5437POPC   GL116033  30.658  26.056   8.850
 5437POPC   GL216034  30.617  25.929   8.850
 5437POPC   C1A16035  30.735  26.044   8.550
 5437POPC   D2A16036  30.672  25.995   8.250
 5437POPC   C3A16037  30.740  26.075   7.950
 5437POPC   C4A16038  30.701  26.001   7.650
 5437POPC   C1B16039  30.462  25.862   8.550
 5437POPC   C2B16040  30.480  25.942   8.250
 5437POPC   C3B16041  30.474  25.926   7.950
 5437POPC   C4B16042  30.454  25.934   7.650
 5438POPC   NC316043   0.406  27.575   9.450
 5438POPC   PO416044   0.458  27.572   9.150
 5438POPC   GL116045   0.488  27.639   8.850
 5438POPC   GL216046   0.336  27.541   8.850
 5438POPC   C1A16047   0.439  27.564   8.550
 5438POPC   D2A16048   0.395  27.636   8.250
 5438POPC   C3A16049   0.442  27.622   7.950
 5438POPC   C4A16050   0.461  27.561   7.650
 5438POPC   C1B16051   0.164  27.533   8.550
 5438POPC   C2B16052   0.176  27.611   8.250
 5438POPC   C3B16053   0.190  27.529   7.950
 5438POPC   C4B16054   0.177  27.534   7.650
 5439POPC   NC316055  15.913   5.830   9.450
 5439POPC   PO416056  15.967   5.890   9.150
 5439POPC   GL116057  15.955   5.885   8.850
 5439POPC   GL216058  16.010   5.918   8.850
 5439POPC   C1A16059  15.975   5.902   8.550
 5439POPC   D2A16060  15.919   5.914   8.250
 5439POPC   C3A16061  16.003   5.830   7.950
 5439POPC   C4A16062  15.960   5.822   7.650
 5439POPC   C1B16063  16.067   6.026   8.550
 5439POPC   C2B16064  16.058   6.028   8.250
 5439POPC   C3B16065  16.073   6.097   7.950
 5439POPC   C4B16066  16.130   6.099   7.650
 5440POPC   NC316067   4.294  14.359   9.450
 5440POPC   PO416068   4.326  14.391   9.150
 5440POPC   GL116069   4.318  14.355   8.850
 5440POPC   GL216070   4.424  14.461   8.850
 5440POPC   C1A16071   4.326  14.425   8.550
 5440POPC   D2A16072   4.274  14.414   8.250
 5440POPC   C3A16073   4.322  14.392   7.950
 5440POPC   C4A16074   4.346  14.440   7.650
 5440POPC   C1B16075   4.550  14.463   8.550
 5440POPC   C2B16076   4.543  14.452   8.250
 5440POPC   C3B16077   4.565  14.458   7.950
 5440POPC   C4B16078   4.556  14.454   7.650
 5441POPC   NC316079  32.282  37.691   9.450
 5441POPC   PO416080  32.208  37.723   9.150
 5441POPC   GL116081  32.249  37.687   8.850
 5441POPC   GL216082  32.331  37.803   8.850
 5441POPC   C1A16083  32.230  37.637   8.550
 5441POPC   D2A16084  32.222  37.674   8.250
 5441POPC   C3A16085  32.253  37.652   7.950
 5441POPC   C4A16086  32.261  37.696   7.650
 5441POPC   C1B16087  32.364  37.914   8.550
 5441POPC   C2B16088  32.317  37.904   8.250
 5441POPC   C3B16089  32.344  37.909   7.950
 5441POPC   C4B16090  32.341  37.891   7.650
 5442POPC   NC316091  22.917  39.189   9.450
 5442POPC   PO416092  22.954  39.223   9.150
 5442POPC   GL116093  22.954  39.210   8.850
 5442POPC   GL216094  22.852  39.158   8.850
 5442POPC   C1A16095  22.919  39.269   8.550
 5442POPC   D2A16096  22.985  39.254   8.250
 5442POPC   C3A16097  22.928  39.247   7.950
 5442POPC   C4A16098  22.907  39.241   7.650
 5442POPC   C1B16099  22.759  39.021   8.550
 5442POPC   C2B16100  22.740  39.028   8.250
 5442POPC   C3B16101  22.722  39.088   7.950
 5442POPC   C4B16102  22.709  39.030   7.650
 5443POPC   NC316103  19.847  39.258   9.450
 5443POPC   PO416104  19.857  39.256   9.150
 5443POPC   GL116105  19.839  39.231   8.850
 5443POPC   GL216106  19.933  39.155   8.850
 5443POPC   C1A16107  19.882  39.261   8.550
 5443POPC   D2A16108  19.859  39.222   8.250
 5443POPC   C3A16109  19.880  39.229   7.950
 5443POPC   C4A16110  19.792  39.184   7.650
 5443POPC   C1B16111  19.939  39.043   8.550
 5443POPC   C2B16112  19.964  39.030   8.250
 5443POPC   C3B16113  19.987  39.065   7.950
 5443POPC   C4B16114  20.032  39.019   7.650
 5444POPC   NC316115   5.898   3.519   9.450
 5444POPC   PO416116   5.849   3.515   9.150
 5444POPC   GL116117   5.825   3.553   8.850
 5444POPC   GL216118   5.963   3.529   8.850
 5444POPC   C1A16119   5.830   3.533   8.550
 5444POPC   D2A16120   5.827   3.560   8.250
 5444POPC   C3A16121   5.897   3.543   7.950
 5444POPC   C4A16122   5.859   3.565   7.650
 5444POPC   C1B16123   6.096   3.463   8.550
 5444POPC   C2B16124   6.087   3.446   8.250
 5444POPC   C3B16125   6.139   3.501   7.950
 5444POPC   C4B16126   6.088   3.533   7.650
 5445POPC   NC316127  22.929  15.213   9.450
 5445POPC   PO416128  22.932  15.206   9.150
 5445POPC   GL116129  22.932  15.151   8.850
 5445POPC   GL216130  22.799  15.249   8.850
 5445POPC   C1A16131  22.916  15.179   8.550
 5445POPC   D2A16132  22.971  15.183   8.250
 5445POPC   C3A16133  22.970  15.183   7.950
 5445POPC   C4A16134  22.985  15.149   7.650
 5445POPC   C1B16135  22.751  15.252   8.550
 5445POPC   C2B16136  22.674  15.309   8.250
 5445POPC   C3B16137  22.725  15.316   7.950
 5445POPC   C4B16138  22.744  15.283   7.650
 5446POPC   NC316139   8.958  12.900   9.450
 5446POPC   PO416140   8.941  12.872   9.150
 5446POPC   GL116141   8.977  12.823   8.850
 5446POPC   GL216142   9.042  12.738   8.850
 5446POPC   C1A16143   8.925  12.895   8.550
 5446POPC   D2A16144   8.994  12.895   8.250
 5446POPC   C3A16145   8.951  12.813   7.950
 5446POPC   C4A16146   8.989  12.823   7.650
 5446POPC   C1B16147   9.057  12.664   8.550
 5446POPC   C2B16148   9.125  12.614   8.250
 5446POPC   C3B16149   9.111  12.624   7.950
 5446POPC   C4B16150   9.098  12.685   7.650
 5447POPC   NC316151  24.462  37.651   9.450
 5447POPC   PO416152  24.444  37.723   9.150
 5447POPC   GL116153  24.498  37.695   8.850
 5447POPC   GL216154  24.356  37.665   8.850
 5447POPC   C1A16155  24.487  37.698   8.550
 5447POPC   D2A16156  24.463  37.642   8.250
 5447POPC   C3A16157  24.538  37.702   7.950
 5447POPC   C4A16158  24.443  37.715   7.650
 5447POPC   C1B16159  24.210  37.567   8.550
 5447POPC   C2B16160  24.278  37.594   8.250
 5447POPC   C3B16161  24.263  37.634   7.950
 5447POPC   C4B16162  24.270  37.612   7.650
 5448POPC   NC316163  44.653   2.730   9.450
 5448POPC   PO416164  44.700   2.744   9.150
 5448POPC   GL116165  44.675   2.753   8.850
 5448POPC   GL216166  44.636   2.930   8.850
 5448POPC   C1A16167  44.629   2.717   8.550
 5448POPC   D2A16168  44.633   2.786   8.250
 5448POPC   C3A16169  44.623   2.760   7.950
 5448POPC   C4A16170  44.699   2.717   7.650
 5448POPC   C1B16171  44.706   3.024   8.550
 5448POPC   C2B16172  44.739   2.976   8.250
 5448POPC   C3B16173  44.729   3.024   7.950
 5448POPC   C4B16174  44.724   3.031   7.650
 5449POPC   NC316175  40.793   9.754   9.450
 5449POPC   PO416176  40.767   9.790   9.150
 5449POPC   GL116177  40.749   9.709   8.850
 5449POPC   GL216178  40.933   9.722   8.850
 5449POPC   C1A16179  40.783   9.746   8.550
 5449POPC   D2A16180  40.734   9.720   8.250
 5449POPC   C3A16181  40.792   9.728   7.950
 5449POPC   C4A16182  40.771   9.779   7.650
 5449POPC   C1B16183  41.062   9.726   8.550
 5449POPC   C2B16184  41.032   9.710   8.250
 5449POPC   C3B16185  41.033   9.768   7.950
 5449POPC   C4B16186  41.060   9.792   7.650
 5450POPC   NC316187  36.933  22.147   9.450
 5450POPC   PO416188  36.915  22.168   9.150
 5450POPC   GL116189  36.857  22.113   8.850
 5450POPC   GL216190  36.843  22.071   8.850
 5450POPC   C1A16191  36.939  22.157   8.550
 5450POPC   D2A16192  36.916  22.187   8.250
 5450POPC   C3A16193  36.871  22.136   7.950
 5450POPC   C4A16194  36.916  22.166   7.650
 5450POPC   C1B16195  36.866  21.960   8.550
 5450POPC   C2B16196  36.841  21.912   8.250
 5450POPC   C3B16197  36.865  21.885   7.950
 5450POPC   C4B16198  36.856  21.941   7.650
 5451POPC   NC316199  28.389  27.555   9.450
 5451POPC   PO416200  28.330  27.603   9.150
 5451POPC   GL116201  28.380  27.555   8.850
 5451POPC   GL216202  28.447  27.700   8.850
 5451POPC   C1A16203  28.413  27.594   8.550
 5451POPC   D2A16204  28.391  27.545   8.250
 5451POPC   C3A16205  28.338  27.583   7.950
 5451POPC   C4A16206  28.349  27.594   7.650
 5451POPC   C1B16207  28.434  27.868   8.550
 5451POPC   C2B16208  28.478  27.879   8.250
 5451POPC   C3B16209  28.478  27.821   7.950
 5451POPC   C4B16210  28.463  27.798   7.650
 5452POPC   NC316211   4.361  19.035   9.450
 5452POPC   PO416212   4.300  19.034   9.150
 5452POPC   GL116213   4.328  19.037   8.850
 5452POPC   GL216214   4.258  18.977   8.850
 5452POPC   C1A16215   4.352  19.021   8.550
 5452POPC   D2A16216   4.342  19.026   8.250
 5452POPC   C3A16217   4.306  19.023   7.950
 5452POPC   C4A16218   4.336  19.039   7.650
 5452POPC   C1B16219   4.122  18.881   8.550
 5452POPC   C2B16220   4.087  18.947   8.250
 5452POPC   C3B16221   4.079  18.875   7.950
 5452POPC   C4B16222   4.069  18.889   7.650
 5453POPC   NC316223  10.515  41.553   9.450
 5453POPC   PO416224  10.474  41.574   9.150
 5453POPC   GL116225  10.539  41.538   8.850
 5453POPC   GL216226  10.442  41.686   8.850
 5453POPC   C1A16227  10.530  41.536   8.550
 5453POPC   D2A16228  10.543  41.585   8.250
 5453POPC   C3A16229  10.568  41.594   7.950
 5453POPC   C4A16230  10.514  41.548   7.650
 5453POPC   C1B16231  10.470  41.784   8.550
 5453POPC   C2B16232  10.463  41.742   8.250
 5453POPC   C3B16233  10.468  41.761   7.950
 5453POPC   C4B16234  10.449  41.808   7.650
 5454POPC   NC316235  37.667  18.238   9.450
 5454POPC   PO416236  37.714  18.262   9.150
 5454POPC   GL116237  37.687  18.261   8.850
 5454POPC   GL216238  37.811  18.403   8.850
 5454POPC   C1A16239  37.632  18.255   8.550
 5454POPC   D2A16240  37.680  18.330   8.250
 5454POPC   C3A16241  37.695  18.243   7.950
 5454POPC   C4A16242  37.675  18.305   7.650
 5454POPC   C1B16243  37.902  18.456   8.550
 5454POPC   C2B16244  37.925  18.438   8.250
 5454POPC   C3B16245  37.902  18.429   7.950
 5454POPC   C4B16246  37.890  18.378   7.650
 5455POPC   NC316247  27.577  29.169   9.450
 5455POPC   PO416248  27.608  29.161   9.150
 5455POPC   GL116249  27.621  29.156   8.850
 5455POPC   GL216250  27.737  29.118   8.850
 5455POPC   C1A16251  27.639  29.103   8.550
 5455POPC   D2A16252  27.571  29.143   8.250
 5455POPC   C3A16253  27.581  29.131   7.950
 5455POPC   C4A16254  27.602  29.152   7.650
 5455POPC   C1B16255  27.800  29.024   8.550
 5455POPC   C2B16256  27.773  29.000   8.250
 5455POPC   C3B16257  27.822  29.060   7.950
 5455POPC   C4B16258  27.758  29.054   7.650
 5456POPC   NC316259  33.817  34.591   9.450
 5456POPC   PO416260  33.769  34.535   9.150
 5456POPC   GL116261  33.756  34.567   8.850
 5456POPC   GL216262  33.872  34.495   8.850
 5456POPC   C1A16263  33.770  34.556   8.550
 5456POPC   D2A16264  33.791  34.565   8.250
 5456POPC   C3A16265  33.760  34.569   7.950
 5456POPC   C4A16266  33.794  34.530   7.650
 5456POPC   C1B16267  33.899  34.303   8.550
 5456POPC   C2B16268  33.954  34.323   8.250
 5456POPC   C3B16269  33.911  34.398   7.950
 5456POPC   C4B16270  33.908  34.301   7.650
 5457POPC   NC316271  26.023  31.433   9.450
 5457POPC   PO416272  26.058  31.512   9.150
 5457POPC   GL116273  26.038  31.491   8.850
 5457POPC   GL216274  25.898  31.497   8.850
 5457POPC   C1A16275  26.044  31.488   8.550
 5457POPC   D2A16276  26.039  31.456   8.250
 5457POPC   C3A16277  25.996  31.514   7.950
 5457POPC   C4A16278  26.086  31.441   7.650
 5457POPC   C1B16279  25.802  31.519   8.550
 5457POPC   C2B16280  25.811  31.523   8.250
 5457POPC   C3B16281  25.813  31.542   7.950
 5457POPC   C4B16282  25.843  31.569   7.650
 5458POPC   NC316283  38.482  13.658   9.450
 5458POPC   PO416284  38.486  13.578   9.150
 5458POPC   GL116285  38.474  13.658   8.850
 5458POPC   GL216286  38.599  13.675   8.850
 5458POPC   C1A16287  38.477  13.659   8.550
 5458POPC   D2A16288  38.424  13.657   8.250
 5458POPC   C3A16289  38.425  13.627   7.950
 5458POPC   C4A16290  38.453  13.650   7.650
 5458POPC   C1B16291  38.733  13.638   8.550
 5458POPC   C2B16292  38.664  13.704   8.250
 5458POPC   C3B16293  38.683  13.697   7.950
 5458POPC   C4B16294  38.684  13.669   7.650
 5459POPC   NC316295  26.787  10.501   9.450
 5459POPC   PO416296  26.836  10.498   9.150
 5459POPC   GL116297  26.791  10.551   8.850
 5459POPC   GL216298  26.887  10.478   8.850
 5459POPC   C1A16299  26.787  10.517   8.550
 5459POPC   D2A16300  26.860  10.526   8.250
 5459POPC   C3A16301  26.812  10.550   7.950
 5459POPC   C4A16302  26.854  10.535   7.650
 5459POPC   C1B16303  26.992  10.384   8.550
 5459POPC   C2B16304  27.012  10.413   8.250
 5459POPC   C3B16305  27.065  10.426   7.950
 5459POPC   C4B16306  27.075  10.416   7.650
 5460POPC   NC316307  10.558  26.016   9.450
 5460POPC   PO416308  10.557  26.069   9.150
 5460POPC   GL116309  10.533  26.087   8.850
 5460POPC   GL216310  10.375  26.118   8.850
 5460POPC   C1A16311  10.517  26.033   8.550
 5460POPC   D2A16312  10.539  26.025   8.250
 5460POPC   C3A16313  10.485  26.013   7.950
 5460POPC   C4A16314  10.567  26.036   7.650
 5460POPC   C1B16315  10.299  26.095   8.550
 5460POPC   C2B16316  10.292  26.157   8.250
 5460POPC   C3B16317  10.325  26.142   7.950
 5460POPC   C4B16318  10.271  26.149   7.650
 5461POPC   NC316319  22.131  39.989   9.450
 5461POPC   PO416320  22.202  40.012   9.150
 5461POPC   GL116321  22.200  40.051   8.850
 5461POPC   GL216322  22.088  40.006   8.850
 5461POPC   C1A16323  22.138  40.009   8.550
 5461POPC   D2A16324  22.122  39.984   8.250
 5461POPC   C3A16325  22.134  40.014   7.950
 5461POPC   C4A16326  22.142  39.983   7.650
 5461POPC   C1B16327  21.968  39.904   8.550
 5461POPC   C2B16328  21.890  39.961   8.250
 5461POPC   C3B16329  21.923  39.912   7.950
 5461POPC   C4B16330  21.919  39.907   7.650
 5462POPC   NC316331   5.890  33.767   9.450
 5462POPC   PO416332   5.834  33.759   9.150
 5462POPC   GL116333   5.836  33.822   8.850
 5462POPC   GL216334   5.821  33.973   8.850
 5462POPC   C1A16335   5.893  33.827   8.550
 5462POPC   D2A16336   5.888  33.784   8.250
 5462POPC   C3A16337   5.902  33.763   7.950
 5462POPC   C4A16338   5.911  33.783   7.650
 5462POPC   C1B16339   5.837  34.009   8.550
 5462POPC   C2B16340   5.889  34.031   8.250
 5462POPC   C3B16341   5.819  34.033   7.950
 5462POPC   C4B16342   5.844  34.095   7.650
 5463POPC   NC316343  25.262  18.302   9.450
 5463POPC   PO416344  25.263  18.302   9.150
 5463POPC   GL116345  25.258  18.290   8.850
 5463POPC   GL216346  25.278  18.362   8.850
 5463POPC   C1A16347  25.235  18.255   8.550
 5463POPC   D2A16348  25.251  18.307   8.250
 5463POPC   C3A16349  25.248  18.262   7.950
 5463POPC   C4A16350  25.228  18.242   7.650
 5463POPC   C1B16351  25.295  18.521   8.550
 5463POPC   C2B16352  25.305  18.503   8.250
 5463POPC   C3B16353  25.327  18.543   7.950
 5463POPC   C4B16354  25.236  18.547   7.650
 5464POPC   NC316355  37.696  27.618   9.450
 5464POPC   PO416356  37.630  27.639   9.150
 5464POPC   GL116357  37.645  27.558   8.850
 5464POPC   GL216358  37.625  27.514   8.850
 5464POPC   C1A16359  37.702  27.623   8.550
 5464POPC   D2A16360  37.726  27.570   8.250
 5464POPC   C3A16361  37.670  27.583   7.950
 5464POPC   C4A16362  37.638  27.627   7.650
 5464POPC   C1B16363  37.491  27.465   8.550
 5464POPC   C2B16364  37.503  27.442   8.250
 5464POPC   C3B16365  37.466  27.460   7.950
 5464POPC   C4B16366  37.450  27.445   7.650
 5465POPC   NC316367   1.240   1.210   9.450
 5465POPC   PO416368   1.237   1.243   9.150
 5465POPC   GL116369   1.198   1.187   8.850
 5465POPC   GL216370   1.100   1.319   8.850
 5465POPC   C1A16371   1.166   1.263   8.550
 5465POPC   D2A16372   1.226   1.237   8.250
 5465POPC   C3A16373   1.258   1.180   7.950
 5465POPC   C4A16374   1.220   1.226   7.650
 5465POPC   C1B16375   1.107   1.473   8.550
 5465POPC   C2B16376   1.071   1.432   8.250
 5465POPC   C3B16377   1.096   1.470   7.950
 5465POPC   C4B16378   1.036   1.431   7.650
 5466POPC   NC316379  27.637  29.941   9.450
 5466POPC   PO416380  27.577  29.964   9.150
 5466POPC   GL116381  27.548  29.917   8.850
 5466POPC   GL216382  27.599  29.825   8.850
 5466POPC   C1A16383  27.626  29.918   8.550
 5466POPC   D2A16384  27.610  29.951   8.250
 5466POPC   C3A16385  27.625  29.873   7.950
 5466POPC   C4A16386  27.588  29.888   7.650
 5466POPC   C1B16387  27.601  29.712   8.550
 5466POPC   C2B16388  27.621  29.632   8.250
 5466POPC   C3B16389  27.597  29.692   7.950
 5466POPC   C4B16390  27.604  29.690   7.650
 5467POPC   NC316391  17.481  36.925   9.450
 5467POPC   PO416392  17.524  36.899   9.150
 5467POPC   GL116393  17.523  36.869   8.850
 5467POPC   GL216394  17.606  36.860   8.850
 5467POPC   C1A16395  17.486  36.953   8.550
 5467POPC   D2A16396  17.496  36.874   8.250
 5467POPC   C3A16397  17.469  36.923   7.950
 5467POPC   C4A16398  17.511  36.938   7.650
 5467POPC   C1B16399  17.714  36.769   8.550
 5467POPC   C2B16400  17.720  36.708   8.250
 5467POPC   C3B16401  17.700  36.709   7.950
 5467POPC   C4B16402  17.658  36.744   7.650
 5468POPC   NC316403  25.232  37.635   9.450
 5468POPC   PO416404  25.248  37.633   9.150
 5468POPC   GL116405  25.262  37.722   8.850
 5468POPC   GL216406  25.181  37.755   8.850
 5468POPC   C1A16407  25.271  37.707   8.550
 5468POPC   D2A16408  25.314  37.650   8.250
 5468POPC   C3A16409  25.265  37.729   7.950
 5468POPC   C4A16410  25.299  37.691   7.650
 5468POPC   C1B16411  25.201  37.902   8.550
 5468POPC   C2B16412  25.162  37.870   8.250
 5468POPC   C3B16413  25.129  37.930   7.950
 5468POPC   C4B16414  25.137  37.945   7.650
 5469POPC   NC316415  22.972  24.514   9.450
 5469POPC   PO416416  22.959  24.453   9.150
 5469POPC   GL116417  22.923  24.488   8.850
 5469POPC   GL216418  22.982  24.588   8.850
 5469POPC   C1A16419  22.894  24.466   8.550
 5469POPC   D2A16420  22.910  24.492   8.250
 5469POPC   C3A16421  22.918  24.452   7.950
 5469POPC   C4A16422  22.919  24.505   7.650
 5469POPC   C1B16423  23.071  24.713   8.550
 5469POPC   C2B16424  23.127  24.707   8.250
 5469POPC   C3B16425  23.128  24.697   7.950
 5469POPC   C4B16426  23.072  24.670   7.650
 5470POPC   NC316427   2.763  37.721   9.450
 5470POPC   PO416428   2.754  37.665   9.150
 5470POPC   GL116429   2.812  37.677   8.850
 5470POPC   GL216430   2.740  37.793   8.850
 5470POPC   C1A16431   2.759  37.639   8.550
 5470POPC   D2A16432   2.727  37.663   8.250
 5470POPC   C3A16433   2.742  37.719   7.950
 5470POPC   C4A16434   2.781  37.638   7.650
 5470POPC   C1B16435   2.716  37.877   8.550
 5470POPC   C2B16436   2.650  37.930   8.250
 5470POPC   C3B16437   2.700  37.958   7.950
 5470POPC   C4B16438   2.710  37.957   7.650
 5471POPC   NC316439   5.852  40.024   9.450
 5471POPC   PO416440   5.854  40.055   9.150
 5471POPC   GL116441   5.829  39.993   8.850
 5471POPC   GL216442   5.899  40.104   8.850
 5471POPC   C1A16443   5.867  39.962   8.550
 5471POPC   D2A16444   5.873  39.962   8.250
 5471POPC   C3A16445   5.913  40.041   7.950
 5471POPC   C4A16446   5.873  39.960   7.650
 5471POPC   C1B16447   5.948  40.273   8.550
 5471POPC   C2B16448   6.009  40.184   8.250
 5471POPC   C3B16449   5.951  40.207   7.950
 5471POPC   C4B16450   6.006  40.179   7.650
 5472POPC   NC316451  38.426  40.786   9.450
 5472POPC   PO416452  38.460  40.761   9.150
 5472POPC   GL116453  38.505  40.831   8.850
 5472POPC   GL216454  38.488  40.840   8.850
 5472POPC   C1A16455  38.472  40.773   8.550
 5472POPC   D2A16456  38.497  40.806   8.250
 5472POPC   C3A16457  38.440  40.736   7.950
 5472POPC   C4A16458  38.455  40.799   7.650
 5472POPC   C1B16459  38.598  40.958   8.550
 5472POPC   C2B16460  38.615  41.034   8.250
 5472POPC   C3B16461  38.611  41.029   7.950
 5472POPC   C4B16462  38.632  40.950   7.650
 5473POPC   NC316463  20.578   1.195   9.450
 5473POPC   PO416464  20.582   1.199   9.150
 5473POPC   GL116465  20.607   1.257   8.850
 5473POPC   GL216466  20.714   1.289   8.850
 5473POPC   C1A16467  20.573   1.176   8.550
 5473POPC   D2A16468  20.630   1.255   8.250
 5473POPC   C3A16469  20.596   1.222   7.950
 5473POPC   C4A16470  20.563   1.238   7.650
 5473POPC   C1B16471  20.804   1.454   8.550
 5473POPC   C2B16472  20.757   1.371   8.250
 5473POPC   C3B16473  20.763   1.433   7.950
 5473POPC   C4B16474  20.779   1.419   7.650
 5474POPC   NC316475  17.458  16.729   9.450
 5474POPC   PO416476  17.481  16.687   9.150
 5474POPC   GL116477  17.548  16.688   8.850
 5474POPC   GL216478  17.453  16.664   8.850
 5474POPC   C1A16479  17.473  16.768   8.550
 5474POPC   D2A16480  17.529  16.746   8.250
 5474POPC   C3A16481  17.488  16.735   7.950
 5474POPC   C4A16482  17.513  16.720   7.650
 5474POPC   C1B16483  17.358  16.541   8.550
 5474POPC   C2B16484  17.399  16.502   8.250
 5474POPC   C3B16485  17.422  16.553   7.950
 5474POPC   C4B16486  17.404  16.467   7.650
 5475POPC   NC316487  43.869  30.712   9.450
 5475POPC   PO416488  43.920  30.739   9.150
 5475POPC   GL116489  43.865  30.656   8.850
 5475POPC   GL216490  43.976  30.593   8.850
 5475POPC   C1A16491  43.863  30.724   8.550
 5475POPC   D2A16492  43.936  30.699   8.250
 5475POPC   C3A16493  43.852  30.709   7.950
 5475POPC   C4A16494  43.872  30.699   7.650
 5475POPC   C1B16495  44.140  30.595   8.550
 5475POPC   C2B16496  44.097  30.582   8.250
 5475POPC   C3B16497  44.056  30.506   7.950
 5475POPC   C4B16498  44.137  30.539   7.650
 5476POPC   NC316499  13.659  22.146   9.450
 5476POPC   PO416500  13.654  22.189   9.150
 5476POPC   GL116501  13.583  22.152   8.850
 5476POPC   GL216502  13.715  22.227   8.850
 5476POPC   C1A16503  13.583  22.182   8.550
 5476POPC   D2A16504  13.652  22.155   8.250
 5476POPC   C3A16505  13.588  22.203   7.950
 5476POPC   C4A16506  13.627  22.127   7.650
 5476POPC   C1B16507  13.897  22.224   8.550
 5476POPC   C2B16508  13.904  22.193   8.250
 5476POPC   C3B16509  13.860  22.244   7.950
 5476POPC   C4B16510  13.849  22.162   7.650
 5477POPC   NC316511  12.863   6.644   9.450
 5477POPC   PO416512  12.859   6.632   9.150
 5477POPC   GL116513  12.870   6.661   8.850
 5477POPC   GL216514  13.001   6.671   8.850
 5477POPC   C1A16515  12.886   6.612   8.550
 5477POPC   D2A16516  12.874   6.642   8.250
 5477POPC   C3A16517  12.842   6.644   7.950
 5477POPC   C4A16518  12.858   6.670   7.650
 5477POPC   C1B16519  13.128   6.712   8.550
 5477POPC   C2B16520  13.122   6.697   8.250
 5477POPC   C3B16521  13.125   6.721   7.950
 5477POPC   C4B16522  13.140   6.675   7.650
 5478POPC   NC316523  43.125  25.228   9.450
 5478POPC   PO416524  43.071  25.299   9.150
 5478POPC   GL116525  43.129  25.295   8.850
 5478POPC   GL216526  42.994  25.279   8.850
 5478POPC   C1A16527  43.110  25.220   8.550
 5478POPC   D2A16528  43.153  25.251   8.250
 5478POPC   C3A16529  43.136  25.218   7.950
 5478POPC   C4A16530  43.101  25.234   7.650
 5478POPC   C1B16531  42.859  25.206   8.550
 5478POPC   C2B16532  42.873  25.197   8.250
 5478POPC   C3B16533  42.869  25.175   7.950
 5478POPC   C4B16534  42.874  25.190   7.650
 5479POPC   NC316535  11.325  24.483   9.450
 5479POPC   PO416536  11.267  24.509   9.150
 5479POPC   GL116537  11.315  24.440   8.850
 5479POPC   GL216538  11.360  24.380   8.850
 5479POPC   C1A16539  11.305  24.513   8.550
 5479POPC   D2A16540  11.303  24.528   8.250
 5479POPC   C3A16541  11.312  24.514   7.950
 5479POPC   C4A16542  11.296  24.528   7.650
 5479POPC   C1B16543  11.529  24.380   8.550
 5479POPC   C2B16544  11.511  24.340   8.250
 5479POPC   C3B16545  11.527  24.399   7.950
 5479POPC   C4B16546  11.546  24.381   7.650
 5480POPC   NC316547  27.568  12.064   9.450
 5480POPC   PO416548  27.618  12.093   9.150
 5480POPC   GL116549  27.606  12.044   8.850
 5480POPC   GL216550  27.739  12.061   8.850
 5480POPC   C1A16551  27.641  12.057   8.550
 5480POPC   D2A16552  27.621  12.087   8.250
 5480POPC   C3A16553  27.615  12.036   7.950
 5480POPC   C4A16554  27.552  12.116   7.650
 5480POPC   C1B16555  27.815  11.971   8.550
 5480POPC   C2B16556  27.852  12.020   8.250
 5480POPC   C3B16557  27.844  11.950   7.950
 5480POPC   C4B16558  27.824  12.029   7.650
 5481POPC   NC316559  12.089  38.430   9.450
 5481POPC   PO416560  12.107  38.440   9.150
 5481POPC   GL116561  12.055  38.447   8.850
 5481POPC   GL216562  11.959  38.389   8.850
 5481POPC   C1A16563  12.093  38.495   8.550
 5481POPC   D2A16564  12.066  38.483   8.250
 5481POPC   C3A16565  12.115  38.466   7.950
 5481POPC   C4A16566  12.122  38.496   7.650
 5481POPC   C1B16567  11.861  38.360   8.550
 5481POPC   C2B16568  11.820  38.386   8.250
 5481POPC   C3B16569  11.813  38.371   7.950
 5481POPC   C4B16570  11.838  38.357   7.650
 5482POPC   NC316571  29.952  43.091   9.450
 5482POPC   PO416572  29.941  43.086   9.150
 5482POPC   GL116573  29.922  43.122   8.850
 5482POPC   GL216574  29.997  43.202   8.850
 5482POPC   C1A16575  29.954  43.154   8.550
 5482POPC   D2A16576  29.911  43.069   8.250
 5482POPC   C3A16577  29.941  43.097   7.950
 5482POPC   C4A16578  29.951  43.089   7.650
 5482POPC   C1B16579  30.122  43.242   8.550
 5482POPC   C2B16580  30.152  43.215   8.250
 5482POPC   C3B16581  30.122  43.221   7.950
 5482POPC   C4B16582  30.127  43.226   7.650
 5483POPC   NC316583  41.525  44.613   9.450
 5483POPC   PO416584  41.556  44.644   9.150
 5483POPC   GL116585  41.512  44.656   8.850
 5483POPC   GL216586  41.412  44.674   8.850
 5483POPC   C1A16587  41.535  44.693   8.550
 5483POPC   D2A16588  41.589  44.675   8.250
 5483POPC   C3A16589  41.559  44.622   7.950
 5483POPC   C4A16590  41.590  44.699   7.650
 5483POPC   C1B16591  41.289  44.681   8.550
 5483POPC   C2B16592  41.285  44.654   8.250
 5483POPC   C3B16593  41.330  44.699   7.950
 5483POPC   C4B16594  41.356  44.620   7.650
 5484POPC   NC316595   9.745  12.847   9.450
 5484POPC   PO416596   9.769  12.831   9.150
 5484POPC   GL116597   9.788  12.869   8.850
 5484POPC   GL216598   9.859  12.919   8.850
 5484POPC   C1A16599   9.783  12.875   8.550
 5484POPC   D2A16600   9.719  12.826   8.250
 5484POPC   C3A16601   9.731  12.818   7.950
 5484POPC   C4A16602   9.711  12.830   7.650
 5484POPC   C1B16603   9.874  13.076   8.550
 5484POPC   C2B16604   9.877  13.055   8.250
 5484POPC   C3B16605   9.861  13.028   7.950
 5484POPC   C4B16606   9.888  13.067   7.650
 5485POPC   NC316607  21.374  14.356   9.450
 5485POPC   PO416608  21.409  14.399   9.150
 5485POPC   GL116609  21.364  14.433   8.850
 5485POPC   GL216610  21.235  14.385   8.850
 5485POPC   C1A16611  21.416  14.427   8.550
 5485POPC   D2A16612  21.412  14.383   8.250
 5485POPC   C3A16613  21.358  14.358   7.950
 5485POPC   C4A16614  21.362  14.432   7.650
 5485POPC   C1B16615  21.138  14.333   8.550
 5485POPC   C2B16616  21.158  14.370   8.250
 5485POPC   C3B16617  21.123  14.362   7.950
 5485POPC   C4B16618  21.140  14.368   7.650
 5486POPC   NC316619  22.891  31.463   9.450
 5486POPC   PO416620  22.949  31.520   9.150
 5486POPC   GL116621  22.911  31.460   8.850
 5486POPC   GL216622  22.875  31.398   8.850
 5486POPC   C1A16623  22.967  31.475   8.550
 5486POPC   D2A16624  22.956  31.443   8.250
 5486POPC   C3A16625  22.966  31.472   7.950
 5486POPC   C4A16626  22.914  31.513   7.650
 5486POPC   C1B16627  22.747  31.347   8.550
 5486POPC   C2B16628  22.762  31.287   8.250
 5486POPC   C3B16629  22.780  31.330   7.950
 5486POPC   C4B16630  22.765  31.291   7.650
 5487POPC   NC316631  12.071  17.505   9.450
 5487POPC   PO416632  12.101  17.518   9.150
 5487POPC   GL116633  12.076  17.459   8.850
 5487POPC   GL216634  12.197  17.648   8.850
 5487POPC   C1A16635  12.056  17.501   8.550
 5487POPC   D2A16636  12.123  17.539   8.250
 5487POPC   C3A16637  12.110  17.546   7.950
 5487POPC   C4A16638  12.089  17.519   7.650
 5487POPC   C1B16639  12.212  17.686   8.550
 5487POPC   C2B16640  12.273  17.700   8.250
 5487POPC   C3B16641  12.207  17.701   7.950
 5487POPC   C4B16642  12.283  17.687   7.650
 5488POPC   NC316643  32.253   1.228   9.450
 5488POPC   PO416644  32.258   1.227   9.150
 5488POPC   GL116645  32.284   1.205   8.850
 5488POPC   GL216646  32.179   1.279   8.850
 5488POPC   C1A16647  32.223   1.262   8.550
 5488POPC   D2A16648  32.288   1.207   8.250
 5488POPC   C3A16649  32.270   1.227   7.950
 5488POPC   C4A16650  32.287   1.167   7.650
 5488POPC   C1B16651  32.039   1.388   8.550
 5488POPC   C2B16652  32.075   1.415   8.250
 5488POPC   C3B16653  32.054   1.386   7.950
 5488POPC   C4B16654  32.011   1.368   7.650
 5489POPC   NC316655   2.765  22.890   9.450
 5489POPC   PO416656   2.720  22.943   9.150
 5489POPC   GL116657   2.747  22.957   8.850
 5489POPC   GL216658   2.881  22.906   8.850
 5489POPC   C1A16659   2.795  22.968   8.550
 5489POPC   D2A16660   2.798  22.918   8.250
 5489POPC   C3A16661   2.745  22.974   7.950
 5489POPC   C4A16662   2.764  22.890   7.650
 5489POPC   C1B16663   3.026  22.925   8.550
 5489POPC   C2B16664   3.045  22.888   8.250
 5489POPC   C3B16665   2.991  22.864   7.950
 5489POPC   C4B16666   3.034  22.876   7.650
 5490POPC   NC316667  32.249  26.003   9.450
 5490POPC   PO416668  32.266  26.023   9.150
 5490POPC   GL116669  32.242  26.062   8.850
 5490POPC   GL216670  32.125  26.124   8.850
 5490POPC   C1A16671  32.284  26.079   8.550
 5490POPC   D2A16672  32.279  26.018   8.250
 5490POPC   C3A16673  32.264  26.013   7.950
 5490POPC   C4A16674  32.290  26.071   7.650
 5490POPC   C1B16675  32.007  26.164   8.550
 5490POPC   C2B16676  32.001  26.164   8.250
 5490POPC   C3B16677  32.002  26.200   7.950
 5490POPC   C4B16678  32.037  26.206   7.650
 5491POPC   NC316679  42.375  27.593   9.450
 5491POPC   PO416680  42.302  27.564   9.150
 5491POPC   GL116681  42.377  27.548   8.850
 5491POPC   GL216682  42.275  27.517   8.850
 5491POPC   C1A16683  42.350  27.579   8.550
 5491POPC   D2A16684  42.318  27.564   8.250
 5491POPC   C3A16685  42.297  27.601   7.950
 5491POPC   C4A16686  42.347  27.576   7.650
 5491POPC   C1B16687  42.282  27.328   8.550
 5491POPC   C2B16688  42.259  27.357   8.250
 5491POPC   C3B16689  42.322  27.386   7.950
 5491POPC   C4B16690  42.249  27.356   7.650
 5492POPC   NC316691  40.768  36.856   9.450
 5492POPC   PO416692  40.827  36.908   9.150
 5492POPC   GL116693  40.745  36.870   8.850
 5492POPC   GL216694  40.894  36.969   8.850
 5492POPC   C1A16695  40.805  36.892   8.550
 5492POPC   D2A16696  40.786  36.896   8.250
 5492POPC   C3A16697  40.751  36.869   7.950
 5492POPC   C4A16698  40.760  36.909   7.650
 5492POPC   C1B16699  41.065  36.928   8.550
 5492POPC   C2B16700  40.994  36.954   8.250
 5492POPC   C3B16701  40.990  36.973   7.950
 5492POPC   C4B16702  41.060  36.965   7.650
 5493POPC   NC316703  32.285  36.906   9.450
 5493POPC   PO416704  32.248  36.864   9.150
 5493POPC   GL116705  32.265  36.940   8.850
 5493POPC   GL216706  32.083  36.889   8.850
 5493POPC   C1A16707  32.252  36.911   8.550
 5493POPC   D2A16708  32.261  36.924   8.250
 5493POPC   C3A16709  32.263  36.909   7.950
 5493POPC   C4A16710  32.266  36.863   7.650
 5493POPC   C1B16711  31.991  36.979   8.550
 5493POPC   C2B16712  32.009  37.001   8.250
 5493POPC   C3B16713  31.986  36.995   7.950
 5493POPC   C4B16714  32.026  36.983   7.650
 5494POPC   NC316715   5.872  25.235   9.450
 5494POPC   PO416716   5.867  25.272   9.150
 5494POPC   GL116717   5.829  25.244   8.850
 5494POPC   GL216718   5.966  25.185   8.850
 5494POPC   C1A16719   5.881  25.269   8.550
 5494POPC   D2A16720   5.845  25.251   8.250
 5494POPC   C3A16721   5.915  25.227   7.950
 5494POPC   C4A16722   5.837  25.299   7.650
 5494POPC   C1B16723   5.993  25.045   8.550
 5494POPC   C2B16724   6.041  25.028   8.250
 5494POPC   C3B16725   6.021  25.041   7.950
 5494POPC   C4B16726   5.966  25.028   7.650
 5495POPC   NC316727   6.623  43.091   9.450
 5495POPC   PO416728   6.690  43.063   9.150
 5495POPC   GL116729   6.671  43.068   8.850
 5495POPC   GL216730   6.777  43.164   8.850
 5495POPC   C1A16731   6.674  43.067   8.550
 5495POPC   D2A16732   6.651  43.094   8.250
 5495POPC   C3A16733   6.614  43.062   7.950
 5495POPC   C4A16734   6.639  43.089   7.650
 5495POPC   C1B16735   6.791  43.333   8.550
 5495POPC   C2B16736   6.822  43.336   8.250
 5495POPC   C3B16737   6.817  43.291   7.950
 5495POPC   C4B16738   6.856  43.284   7.650
 5496POPC   NC316739   5.858  44.703   9.450
 5496POPC   PO416740   5.893  44.620   9.150
 5496POPC   GL116741   5.885  44.630   8.850
 5496POPC   GL216742   5.719  44.647   8.850
 5496POPC   C1A16743   5.907  44.666   8.550
 5496POPC   D2A16744   5.831  44.706   8.250
 5496POPC   C3A16745   5.907  44.635   7.950
 5496POPC   C4A16746   5.882  44.670   7.650
 5496POPC   C1B16747   5.667  44.565   8.550
 5496POPC   C2B16748   5.592  44.557   8.250
 5496POPC   C3B16749   5.636  44.581   7.950
 5496POPC   C4B16750   5.604  44.583   7.650
 5497POPC   NC316751  20.651  29.875   9.450
 5497POPC   PO416752  20.593  29.921   9.150
 5497POPC   GL116753  20.634  29.947   8.850
 5497POPC   GL216754  20.699  29.775   8.850
 5497POPC   C1A16755  20.594  29.933   8.550
 5497POPC   D2A16756  20.601  29.906   8.250
 5497POPC   C3A16757  20.598  29.938   7.950
 5497POPC   C4A16758  20.572  29.946   7.650
 5497POPC   C1B16759  20.697  29.699   8.550
 5497POPC   C2B16760  20.670  29.638   8.250
 5497POPC   C3B16761  20.718  29.648   7.950
 5497POPC   C4B16762  20.666  29.667   7.650
 5498POPC   NC316763  26.812  13.621   9.450
 5498POPC   PO416764  26.861  13.623   9.150
 5498POPC   GL116765  26.848  13.604   8.850
 5498POPC   GL216766  26.701  13.553   8.850
 5498POPC   C1A16767  26.777  13.638   8.550
 5498POPC   D2A16768  26.781  13.635   8.250
 5498POPC   C3A16769  26.792  13.645   7.950
 5498POPC   C4A16770  26.772  13.624   7.650
 5498POPC   C1B16771  26.568  13.491   8.550
 5498POPC   C2B16772  26.630  13.527   8.250
 5498POPC   C3B16773  26.581  13.485   7.950
 5498POPC   C4B16774  26.587  13.520   7.650
 5499POPC   NC316775  32.268  43.099   9.450
 5499POPC   PO416776  32.251  43.083   9.150
 5499POPC   GL116777  32.286  43.124   8.850
 5499POPC   GL216778  32.369  43.007   8.850
 5499POPC   C1A16779  32.266  43.157   8.550
 5499POPC   D2A16780  32.248  43.061   8.250
 5499POPC   C3A16781  32.260  43.146   7.950
 5499POPC   C4A16782  32.215  43.090   7.650
 5499POPC   C1B16783  32.414  42.936   8.550
 5499POPC   C2B16784  32.357  42.890   8.250
 5499POPC   C3B16785  32.440  42.915   7.950
 5499POPC   C4B16786  32.437  42.899   7.650
 5500POPC   NC316787   2.813  16.768   9.450
 5500POPC   PO416788   2.794  16.743   9.150
 5500POPC   GL116789   2.760  16.765   8.850
 5500POPC   GL216790   2.611  16.799   8.850
 5500POPC   C1A16791   2.767  16.697   8.550
 5500POPC   D2A16792   2.727  16.733   8.250
 5500POPC   C3A16793   2.807  16.728   7.950
 5500POPC   C4A16794   2.782  16.736   7.650
 5500POPC   C1B16795   2.530  16.840   8.550
 5500POPC   C2B16796   2.546  16.858   8.250
 5500POPC   C3B16797   2.588  16.802   7.950
 5500POPC   C4B16798   2.556  16.832   7.650
 5501POPC   NC316799  26.004   2.024   9.450
 5501POPC   PO416800  26.091   2.013   9.150
 5501POPC   GL116801  26.048   1.990   8.850
 5501POPC   GL216802  26.069   2.109   8.850
 5501POPC   C1A16803  26.082   1.952   8.550
 5501POPC   D2A16804  26.004   1.964   8.250
 5501POPC   C3A16805  26.060   1.946   7.950
 5501POPC   C4A16806  26.013   2.028   7.650
 5501POPC   C1B16807  26.130   2.193   8.550
 5501POPC   C2B16808  26.080   2.270   8.250
 5501POPC   C3B16809  26.101   2.191   7.950
 5501POPC   C4B16810  26.145   2.221   7.650
 5502POPC   NC316811  20.650  32.281   9.450
 5502POPC   PO416812  20.598  32.269   9.150
 5502POPC   GL116813  20.589  32.204   8.850
 5502POPC   GL216814  20.640  32.158   8.850
 5502POPC   C1A16815  20.638  32.275   8.550
 5502POPC   D2A16816  20.598  32.263   8.250
 5502POPC   C3A16817  20.629  32.296   7.950
 5502POPC   C4A16818  20.649  32.249   7.650
 5502POPC   C1B16819  20.699  32.020   8.550
 5502POPC   C2B16820  20.688  32.017   8.250
 5502POPC   C3B16821  20.640  31.965   7.950
 5502POPC   C4B16822  20.721  32.030   7.650
 5503POPC   NC316823  29.122  11.255   9.450
 5503POPC   PO416824  29.137  11.340   9.150
 5503POPC   GL116825  29.149  11.340   8.850
 5503POPC   GL216826  29.044  11.323   8.850
 5503POPC   C1A16827  29.176  11.337   8.550
 5503POPC   D2A16828  29.185  11.286   8.250
 5503POPC   C3A16829  29.108  11.263   7.950
 5503POPC   C4A16830  29.096  11.299   7.650
 5503POPC   C1B16831  28.914  11.395   8.550
 5503POPC   C2B16832  28.932  11.403   8.250
 5503POPC   C3B16833  28.860  11.386   7.950
 5503POPC   C4B16834  28.899  11.379   7.650
 5504POPC   NC316835   1.228  33.798   9.450
 5504POPC   PO416836   1.196  33.761   9.150
 5504POPC   GL116837   1.240  33.760   8.850
 5504POPC   GL216838   1.315  33.719   8.850
 5504POPC   C1A16839   1.193  33.803   8.550
 5504POPC   D2A16840   1.176  33.843   8.250
 5504POPC   C3A16841   1.214  33.782   7.950
 5504POPC   C4A16842   1.238  33.767   7.650
 5504POPC   C1B16843   1.406  33.628   8.550
 5504POPC   C2B16844   1.343  33.638   8.250
 5504POPC   C3B16845   1.356  33.597   7.950
 5504POPC   C4B16846   1.353  33.635   7.650
 5505POPC   NC316847  28.382   2.779   9.450
 5505POPC   PO416848  28.328   2.781   9.150
 5505POPC   GL116849  28.326   2.795   8.850
 5505POPC   GL216850  28.410   2.647   8.850
 5505POPC   C1A16851  28.398   2.769   8.550
 5505POPC   D2A16852  28.322   2.723   8.250
 5505POPC   C3A16853  28.414   2.726   7.950
 5505POPC   C4A16854  28.410   2.754   7.650
 5505POPC   C1B16855  28.456   2.508   8.550
 5505POPC   C2B16856  28.493   2.549   8.250
 5505POPC   C3B16857  28.401   2.485   7.950
 5505POPC   C4B16858  28.414   2.529   7.650
 5506POPC   NC316859  40.013  34.567   9.450
 5506POPC   PO416860  39.968  34.622   9.150
 5506POPC   GL116861  39.991  34.580   8.850
 5506POPC   GL216862  39.876  34.572   8.850
 5506POPC   C1A16863  39.972  34.612   8.550
 5506POPC   D2A16864  40.014  34.608   8.250
 5506POPC   C3A16865  39.981  34.596   7.950
 5506POPC   C4A16866  39.995  34.590   7.650
 5506POPC   C1B16867  39.810  34.479   8.550
 5506POPC   C2B16868  39.777  34.548   8.250
 5506POPC   C3B16869  39.785  34.527   7.950
 5506POPC   C4B16870  39.731  34.536   7.650
 5507POPC   NC316871  36.870  37.658   9.450
 5507POPC   PO416872  36.896  37.669   9.150
 5507POPC   GL116873  36.948  37.679   8.850
 5507POPC   GL216874  36.794  37.702   8.850
 5507POPC   C1A16875  36.893  37.641   8.550
 5507POPC   D2A16876  36.896  37.646   8.250
 5507POPC   C3A16877  36.924  37.674   7.950
 5507POPC   C4A16878  36.891  37.724   7.650
 5507POPC   C1B16879  36.695  37.774   8.550
 5507POPC   C2B16880  36.633  37.767   8.250
 5507POPC   C3B16881  36.643  37.809   7.950
 5507POPC   C4B16882  36.717  37.716   7.650
 5508POPC   NC316883  42.360  32.220   9.450
 5508POPC   PO416884  42.326  32.269   9.150
 5508POPC   GL116885  42.361  32.235   8.850
 5508POPC   GL216886  42.428  32.379   8.850
 5508POPC   C1A16887  42.335  32.267   8.550
 5508POPC   D2A16888  42.347  32.217   8.250
 5508POPC   C3A16889  42.366  32.270   7.950
 5508POPC   C4A16890  42.297  32.284   7.650
 5508POPC   C1B16891  42.426  32.423   8.550
 5508POPC   C2B16892  42.440  32.493   8.250
 5508POPC   C3B16893  42.499  32.448   7.950
 5508POPC   C4B16894  42.445  32.437   7.650
 5509POPC   NC316895  21.358  25.270   9.450
 5509POPC   PO416896  21.360  25.290   9.150
 5509POPC   GL116897  21.388  25.260   8.850
 5509POPC   GL216898  21.444  25.404   8.850
 5509POPC   C1A16899  21.386  25.291   8.550
 5509POPC   D2A16900  21.421  25.221   8.250
 5509POPC   C3A16901  21.354  25.299   7.950
 5509POPC   C4A16902  21.421  25.243   7.650
 5509POPC   C1B16903  21.457  25.549   8.550
 5509POPC   C2B16904  21.400  25.520   8.250
 5509POPC   C3B16905  21.385  25.513   7.950
 5509POPC   C4B16906  21.436  25.486   7.650
 5510POPC   NC316907  29.097  26.838   9.450
 5510POPC   PO416908  29.109  26.781   9.150
 5510POPC   GL116909  29.168  26.790   8.850
 5510POPC   GL216910  29.125  26.912   8.850
 5510POPC   C1A16911  29.128  26.820   8.550
 5510POPC   D2A16912  29.105  26.861   8.250
 5510POPC   C3A16913  29.139  26.839   7.950
 5510POPC   C4A16914  29.140  26.797   7.650
 5510POPC   C1B16915  29.173  27.072   8.550
 5510POPC   C2B16916  29.203  27.049   8.250
 5510POPC   C3B16917  29.134  27.058   7.950
 5510POPC   C4B16918  29.113  27.109   7.650
 5511POPC   NC316919  31.445  11.294   9.450
 5511POPC   PO416920  31.514  11.349   9.150
 5511POPC   GL116921  31.454  11.255   8.850
 5511POPC   GL216922  31.492  11.375   8.850
 5511POPC   C1A16923  31.468  11.263   8.550
 5511POPC   D2A16924  31.474  11.278   8.250
 5511POPC   C3A16925  31.476  11.255   7.950
 5511POPC   C4A16926  31.423  11.321   7.650
 5511POPC   C1B16927  31.532  11.530   8.550
 5511POPC   C2B16928  31.562  11.513   8.250
 5511POPC   C3B16929  31.547  11.573   7.950
 5511POPC   C4B16930  31.536  11.550   7.650
 5512POPC   NC316931  13.620  42.369   9.450
 5512POPC   PO416932  13.632  42.326   9.150
 5512POPC   GL116933  13.630  42.300   8.850
 5512POPC   GL216934  13.555  42.483   8.850
 5512POPC   C1A16935  13.602  42.294   8.550
 5512POPC   D2A16936  13.651  42.375   8.250
 5512POPC   C3A16937  13.614  42.316   7.950
 5512POPC   C4A16938  13.587  42.289   7.650
 5512POPC   C1B16939  13.533  42.534   8.550
 5512POPC   C2B16940  13.546  42.531   8.250
 5512POPC   C3B16941  13.554  42.581   7.950
 5512POPC   C4B16942  13.571  42.606   7.650
 5513POPC   NC316943   6.673  12.820   9.450
 5513POPC   PO416944   6.652  12.868   9.150
 5513POPC   GL116945   6.644  12.853   8.850
 5513POPC   GL216946   6.520  12.913   8.850
 5513POPC   C1A16947   6.641  12.878   8.550
 5513POPC   D2A16948   6.654  12.853   8.250
 5513POPC   C3A16949   6.629  12.833   7.950
 5513POPC   C4A16950   6.610  12.823   7.650
 5513POPC   C1B16951   6.359  12.894   8.550
 5513POPC   C2B16952   6.442  12.886   8.250
 5513POPC   C3B16953   6.430  12.927   7.950
 5513POPC   C4B16954   6.402  12.907   7.650
 5514POPC   NC316955  26.806   9.781   9.450
 5514POPC   PO416956  26.825   9.732   9.150
 5514POPC   GL116957  26.856   9.703   8.850
 5514POPC   GL216958  26.715   9.663   8.850
 5514POPC   C1A16959  26.820   9.730   8.550
 5514POPC   D2A16960  26.825   9.713   8.250
 5514POPC   C3A16961  26.844   9.741   7.950
 5514POPC   C4A16962  26.847   9.743   7.650
 5514POPC   C1B16963  26.721   9.574   8.550
 5514POPC   C2B16964  26.737   9.575   8.250
 5514POPC   C3B16965  26.714   9.519   7.950
 5514POPC   C4B16966  26.694   9.525   7.650
 5515POPC   NC316967  11.260  22.981   9.450
 5515POPC   PO416968  11.252  22.934   9.150
 5515POPC   GL116969  11.326  22.910   8.850
 5515POPC   GL216970  11.270  22.819   8.850
 5515POPC   C1A16971  11.290  22.923   8.550
 5515POPC   D2A16972  11.308  22.978   8.250
 5515POPC   C3A16973  11.307  22.983   7.950
 5515POPC   C4A16974  11.330  22.929   7.650
 5515POPC   C1B16975  11.221  22.745   8.550
 5515POPC   C2B16976  11.188  22.714   8.250
 5515POPC   C3B16977  11.229  22.702   7.950
 5515POPC   C4B16978  11.189  22.696   7.650
 5516POPC   NC316979   8.227  22.117   9.450
 5516POPC   PO416980   8.212  22.114   9.150
 5516POPC   GL116981   8.198  22.177   8.850
 5516POPC   GL216982   8.138  22.038   8.850
 5516POPC   C1A16983   8.200  22.129   8.550
 5516POPC   D2A16984   8.164  22.162   8.250
 5516POPC   C3A16985   8.196  22.115   7.950
 5516POPC   C4A16986   8.219  22.145   7.650
 5516POPC   C1B16987   8.075  21.981   8.550
 5516POPC   C2B16988   8.121  21.975   8.250
 5516POPC   C3B16989   8.075  21.939   7.950
 5516POPC   C4B16990   8.063  21.906   7.650
 5517POPC   NC316991   6.660  21.349   9.450
 5517POPC   PO416992   6.616  21.383   9.150
 5517POPC   GL116993   6.617  21.431   8.850
 5517POPC   GL216994   6.611  21.483   8.850
 5517POPC   C1A16995   6.655  21.404   8.550
 5517POPC   D2A16996   6.637  21.355   8.250
 5517POPC   C3A16997   6.673  21.406   7.950
 5517POPC   C4A16998   6.634  21.367   7.650
 5517POPC   C1B16999   6.583  21.656   8.550
 5517POPC   C2B17000   6.541  21.616   8.250
 5517POPC   C3B17001   6.495  21.577   7.950
 5517POPC   C4B17002   6.496  21.580   7.650
 5518POPC   NC317003   3.578  10.501   9.450
 5518POPC   PO417004   3.536  10.572   9.150
 5518POPC   GL117005   3.523  10.505   8.850
 5518POPC   GL217006   3.423  10.575   8.850
 5518POPC   C1A17007   3.517  10.495   8.550
 5518POPC   D2A17008   3.583  10.483   8.250
 5518POPC   C3A17009   3.579  10.501   7.950
 5518POPC   C4A17010   3.510  10.567   7.650
 5518POPC   C1B17011   3.321  10.579   8.550
 5518POPC   C2B17012   3.289  10.674   8.250
 5518POPC   C3B17013   3.333  10.605   7.950
 5518POPC   C4B17014   3.347  10.656   7.650
 5519POPC   NC317015  28.375   1.164   9.450
 5519POPC   PO417016  28.382   1.220   9.150
 5519POPC   GL117017  28.327   1.255   8.850
 5519POPC   GL217018  28.472   1.239   8.850
 5519POPC   C1A17019  28.365   1.240   8.550
 5519POPC   D2A17020  28.375   1.199   8.250
 5519POPC   C3A17021  28.405   1.226   7.950
 5519POPC   C4A17022  28.341   1.254   7.650
 5519POPC   C1B17023  28.608   1.361   8.550
 5519POPC   C2B17024  28.621   1.357   8.250
 5519POPC   C3B17025  28.575   1.342   7.950
 5519POPC   C4B17026  28.623   1.355   7.650
 5520POPC   NC317027  19.067  37.687   9.450
 5520POPC   PO417028  19.063  37.632   9.150
 5520POPC   GL117029  19.037  37.697   8.850
 5520POPC   GL217030  19.154  37.790   8.850
 5520POPC   C1A17031  19.108  37.707   8.550
 5520POPC   D2A17032  19.019  37.694   8.250
 5520POPC   C3A17033  19.079  37.702   7.950
 5520POPC   C4A17034  19.051  37.638   7.650
 5520POPC   C1B17035  19.229  37.781   8.550
 5520POPC   C2B17036  19.258  37.776   8.250
 5520POPC   C3B17037  19.257  37.770   7.950
 5520POPC   C4B17038  19.306  37.850   7.650
 5521POPC   NC317039   1.237  37.687   9.450
 5521POPC   PO417040   1.181  37.693   9.150
 5521POPC   GL117041   1.174  37.658   8.850
 5521POPC   GL217042   1.317  37.793   8.850
 5521POPC   C1A17043   1.222  37.684   8.550
 5521POPC   D2A17044   1.189  37.716   8.250
 5521POPC   C3A17045   1.237  37.642   7.950
 5521POPC   C4A17046   1.167  37.635   7.650
 5521POPC   C1B17047   1.365  37.869   8.550
 5521POPC   C2B17048   1.386  37.872   8.250
 5521POPC   C3B17049   1.418  37.837   7.950
 5521POPC   C4B17050   1.366  37.803   7.650
 5522POPC   NC317051  44.712  17.470   9.450
 5522POPC   PO417052  44.708  17.459   9.150
 5522POPC   GL117053  44.645  17.479   8.850
 5522POPC   GL217054  44.625  17.677   8.850
 5522POPC   C1A17055  44.614  17.540   8.550
 5522POPC   D2A17056  44.656  17.490   8.250
 5522POPC   C3A17057  44.635  17.552   7.950
 5522POPC   C4A17058  44.702  17.477   7.650
 5522POPC   C1B17059  44.602  17.715   8.550
 5522POPC   C2B17060  44.658  17.775   8.250
 5522POPC   C3B17061  44.644  17.801   7.950
 5522POPC   C4B17062  44.598  17.715   7.650
 5523POPC   NC317063  40.012  44.679   9.450
 5523POPC   PO417064  40.008  44.637   9.150
 5523POPC   GL117065  40.024  44.669   8.850
 5523POPC   GL217066  39.886  44.638   8.850
 5523POPC   C1A17067  40.039  44.699   8.550
 5523POPC   D2A17068  40.026  44.657   8.250
 5523POPC   C3A17069  39.973  44.658   7.950
 5523POPC   C4A17070  39.995  44.691   7.650
 5523POPC   C1B17071  39.773  44.616   8.550
 5523POPC   C2B17072  39.724  44.648   8.250
 5523POPC   C3B17073  39.780  44.655   7.950
 5523POPC   C4B17074  39.724  44.593   7.650
 5524POPC   NC317075  37.643  39.966   9.450
 5524POPC   PO417076  37.723  39.989   9.150
 5524POPC   GL117077  37.711  40.049   8.850
 5524POPC   GL217078  37.719  40.123   8.850
 5524POPC   C1A17079  37.729  40.042   8.550
 5524POPC   D2A17080  37.660  40.047   8.250
 5524POPC   C3A17081  37.664  40.035   7.950
 5524POPC   C4A17082  37.645  40.056   7.650
 5524POPC   C1B17083  37.789  40.240   8.550
 5524POPC   C2B17084  37.750  40.203   8.250
 5524POPC   C3B17085  37.772  40.230   7.950
 5524POPC   C4B17086  37.772  40.209   7.650
 5525POPC   NC317087  24.501  25.998   9.450
 5525POPC   PO417088  24.535  26.001   9.150
 5525POPC   GL117089  24.520  26.071   8.850
 5525POPC   GL217090  24.610  25.946   8.850
 5525POPC   C1A17091  24.492  26.052   8.550
 5525POPC   D2A17092  24.479  25.999   8.250
 5525POPC   C3A17093  24.462  26.018   7.950
 5525POPC   C4A17094  24.489  26.028   7.650
 5525POPC   C1B17095  24.657  25.833   8.550
 5525POPC   C2B17096  24.686  25.863   8.250
 5525POPC   C3B17097  24.709  25.883   7.950
 5525POPC   C4B17098  24.670  25.817   7.650
 5526POPC   NC317099  26.824  32.235   9.450
 5526POPC   PO417100  26.816  32.222   9.150
 5526POPC   GL117101  26.856  32.249   8.850
 5526POPC   GL217102  26.948  32.354   8.850
 5526POPC   C1A17103  26.829  32.241   8.550
 5526POPC   D2A17104  26.817  32.230   8.250
 5526POPC   C3A17105  26.857  32.291   7.950
 5526POPC   C4A17106  26.784  32.251   7.650
 5526POPC   C1B17107  27.028  32.447   8.550
 5526POPC   C2B17108  26.982  32.410   8.250
 5526POPC   C3B17109  26.979  32.392   7.950
 5526POPC   C4B17110  27.002  32.417   7.650
 5527POPC   NC317111  23.698  40.791   9.450
 5527POPC   PO417112  23.718  40.743   9.150
 5527POPC   GL117113  23.750  40.775   8.850
 5527POPC   GL217114  23.843  40.917   8.850
 5527POPC   C1A17115  23.763  40.772   8.550
 5527POPC   D2A17116  23.759  40.759   8.250
 5527POPC   C3A17117  23.709  40.770   7.950
 5527POPC   C4A17118  23.684  40.750   7.650
 5527POPC   C1B17119  23.864  40.970   8.550
 5527POPC   C2B17120  23.891  40.981   8.250
 5527POPC   C3B17121  23.894  40.986   7.950
 5527POPC   C4B17122  23.865  40.937   7.650
 5528POPC   NC317123  33.774  29.956   9.450
 5528POPC   PO417124  33.799  29.946   9.150
 5528POPC   GL117125  33.791  29.937   8.850
 5528POPC   GL217126  33.822  29.792   8.850
 5528POPC   C1A17127  33.760  29.872   8.550
 5528POPC   D2A17128  33.833  29.929   8.250
 5528POPC   C3A17129  33.841  29.902   7.950
 5528POPC   C4A17130  33.802  29.950   7.650
 5528POPC   C1B17131  33.927  29.741   8.550
 5528POPC   C2B17132  33.953  29.753   8.250
 5528POPC   C3B17133  33.917  29.664   7.950
 5528POPC   C4B17134  33.981  29.684   7.650
 5529POPC   NC317135  39.233  29.184   9.450
 5529POPC   PO417136  39.253  29.163   9.150
 5529POPC   GL117137  39.184  29.136   8.850
 5529POPC   GL217138  39.149  29.276   8.850
 5529POPC   C1A17139  39.246  29.142   8.550
 5529POPC   D2A17140  39.238  29.143   8.250
 5529POPC   C3A17141  39.209  29.184   7.950
 5529POPC   C4A17142  39.265  29.166   7.650
 5529POPC   C1B17143  39.033  29.360   8.550
 5529POPC   C2B17144  39.013  29.351   8.250
 5529POPC   C3B17145  39.062  29.355   7.950
 5529POPC   C4B17146  39.079  29.328   7.650
 5530POPC   NC317147  19.087  35.393   9.450
 5530POPC   PO417148  19.079  35.380   9.150
 5530POPC   GL117149  19.061  35.304   8.850
 5530POPC   GL217150  18.946  35.334   8.850
 5530POPC   C1A17151  19.073  35.381   8.550
 5530POPC   D2A17152  19.010  35.307   8.250
 5530POPC   C3A17153  19.047  35.380   7.950
 5530POPC   C4A17154  19.068  35.338   7.650
 5530POPC   C1B17155  18.774  35.424   8.550
 5530POPC   C2B17156  18.830  35.379   8.250
 5530POPC   C3B17157  18.793  35.439   7.950
 5530POPC   C4B17158  18.819  35.418   7.650
 5531POPC   NC317159  43.112  39.972   9.450
 5531POPC   PO417160  43.151  40.017   9.150
 5531POPC   GL117161  43.070  40.021   8.850
 5531POPC   GL217162  43.047  39.863   8.850
 5531POPC   C1A17163  43.087  40.029   8.550
 5531POPC   D2A17164  43.085  40.043   8.250
 5531POPC   C3A17165  43.121  40.031   7.950
 5531POPC   C4A17166  43.154  39.992   7.650
 5531POPC   C1B17167  43.091  39.806   8.550
 5531POPC   C2B17168  43.110  39.809   8.250
 5531POPC   C3B17169  43.058  39.789   7.950
 5531POPC   C4B17170  43.033  39.761   7.650
 5532POPC   NC317171  11.350   8.928   9.450
 5532POPC   PO417172  11.329   8.990   9.150
 5532POPC   GL117173  11.302   8.936   8.850
 5532POPC   GL217174  11.417   8.914   8.850
 5532POPC   C1A17175  11.271   8.971   8.550
 5532POPC   D2A17176  11.284   8.996   8.250
 5532POPC   C3A17177  11.342   8.992   7.950
 5532POPC   C4A17178  11.277   8.971   7.650
 5532POPC   C1B17179  11.501   8.924   8.550
 5532POPC   C2B17180  11.537   8.884   8.250
 5532POPC   C3B17181  11.509   8.842   7.950
 5532POPC   C4B17182  11.563   8.886   7.650
 5533POPC   NC317183  33.765  41.570   9.450
 5533POPC   PO417184  33.783  41.608   9.150
 5533POPC   GL117185  33.786  41.601   8.850
 5533POPC   GL217186  33.646  41.598   8.850
 5533POPC   C1A17187  33.797  41.555   8.550
 5533POPC   D2A17188  33.846  41.595   8.250
 5533POPC   C3A17189  33.848  41.557   7.950
 5533POPC   C4A17190  33.806  41.517   7.650
 5533POPC   C1B17191  33.565  41.625   8.550
 5533POPC   C2B17192  33.581  41.699   8.250
 5533POPC   C3B17193  33.570  41.691   7.950
 5533POPC   C4B17194  33.616  41.696   7.650
 5534POPC   NC317195  17.520   3.574   9.450
 5534POPC   PO417196  17.516   3.536   9.150
 5534POPC   GL117197  17.546   3.502   8.850
 5534POPC   GL217198  17.443   3.585   8.850
 5534POPC   C1A17199  17.520   3.580   8.550
 5534POPC   D2A17200  17.518   3.507   8.250
 5534POPC   C3A17201  17.476   3.531   7.950
 5534POPC   C4A17202  17.542   3.532   7.650
 5534POPC   C1B17203  17.338   3.686   8.550
 5534POPC   C2B17204  17.324   3.712   8.250
 5534POPC   C3B17205  17.344   3.754   7.950
 5534POPC   C4B17206  17.364   3.682   7.650
 5535POPC   NC317207   1.181  36.940   9.450
 5535POPC   PO417208   1.187  36.869   9.150
 5535POPC   GL117209   1.173  36.951   8.850
 5535POPC   GL217210   1.251  36.802   8.850
 5535POPC   C1A17211   1.241  36.866   8.550
 5535POPC   D2A17212   1.226  36.897   8.250
 5535POPC   C3A17213   1.215  36.926   7.950
 5535POPC   C4A17214   1.242  36.929   7.650
 5535POPC   C1B17215   1.231  36.617   8.550
 5535POPC   C2B17216   1.285  36.693   8.250
 5535POPC   C3B17217   1.283  36.637   7.950
 5535POPC   C4B17218   1.248  36.673   7.650
 5536POPC   NC317219   8.204  35.358   9.450
 5536POPC   PO417220   8.186  35.345   9.150
 5536POPC   GL117221   8.181  35.397   8.850
 5536POPC   GL217222   8.195  35.254   8.850
 5536POPC   C1A17223   8.175  35.354   8.550
 5536POPC   D2A17224   8.229  35.347   8.250
 5536POPC   C3A17225   8.244  35.358   7.950
 5536POPC   C4A17226   8.233  35.320   7.650
 5536POPC   C1B17227   8.118  35.100   8.550
 5536POPC   C2B17228   8.172  35.065   8.250
 5536POPC   C3B17229   8.194  35.093   7.950
 5536POPC   C4B17230   8.208  35.129   7.650
 5537POPC   NC317231  39.214  20.566   9.450
 5537POPC   PO417232  39.221  20.653   9.150
 5537POPC   GL117233  39.196  20.658   8.850
 5537POPC   GL217234  39.373  20.645   8.850
 5537POPC   C1A17235  39.230  20.614   8.550
 5537POPC   D2A17236  39.228  20.605   8.250
 5537POPC   C3A17237  39.264  20.618   7.950
 5537POPC   C4A17238  39.245  20.598   7.650
 5537POPC   C1B17239  39.409  20.722   8.550
 5537POPC   C2B17240  39.478  20.683   8.250
 5537POPC   C3B17241  39.500  20.714   7.950
 5537POPC   C4B17242  39.502  20.760   7.650
 5538POPC   NC317243  11.331  11.265   9.450
 5538POPC   PO417244  11.300  11.259   9.150
 5538POPC   GL117245  11.348  11.286   8.850
 5538POPC   GL217246  11.439  11.368   8.850
 5538POPC   C1A17247  11.298  11.274   8.550
 5538POPC   D2A17248  11.323  11.312   8.250
 5538POPC   C3A17249  11.335  11.281   7.950
 5538POPC   C4A17250  11.312  11.308   7.650
 5538POPC   C1B17251  11.566  11.298   8.550
 5538POPC   C2B17252  11.506  11.361   8.250
 5538POPC   C3B17253  11.500  11.299   7.950
 5538POPC   C4B17254  11.497  11.368   7.650
 5539POPC   NC317255  27.559  31.490   9.450
 5539POPC   PO417256  27.620  31.504   9.150
 5539POPC   GL117257  27.565  31.479   8.850
 5539POPC   GL217258  27.733  31.460   8.850
 5539POPC   C1A17259  27.633  31.465   8.550
 5539POPC   D2A17260  27.562  31.516   8.250
 5539POPC   C3A17261  27.601  31.518   7.950
 5539POPC   C4A17262  27.570  31.489   7.650
 5539POPC   C1B17263  27.827  31.448   8.550
 5539POPC   C2B17264  27.831  31.419   8.250
 5539POPC   C3B17265  27.849  31.478   7.950
 5539POPC   C4B17266  27.815  31.488   7.650
 5540POPC   NC317267  14.376  19.825   9.450
 5540POPC   PO417268  14.423  19.862   9.150
 5540POPC   GL117269  14.389  19.830   8.850
 5540POPC   GL217270  14.543  19.822   8.850
 5540POPC   C1A17271  14.449  19.829   8.550
 5540POPC   D2A17272  14.410  19.882   8.250
 5540POPC   C3A17273  14.387  19.881   7.950
 5540POPC   C4A17274  14.371  19.874   7.650
 5540POPC   C1B17275  14.675  19.868   8.550
 5540POPC   C2B17276  14.624  19.859   8.250
 5540POPC   C3B17277  14.672  19.859   7.950
 5540POPC   C4B17278  14.685  19.861   7.650
 5541POPC   NC317279   3.531  17.493   9.450
 5541POPC   PO417280   3.528  17.501   9.150
 5541POPC   GL117281   3.497  17.477   8.850
 5541POPC   GL217282   3.458  17.625   8.850
 5541POPC   C1A17283   3.505  17.471   8.550
 5541POPC   D2A17284   3.561  17.529   8.250
 5541POPC   C3A17285   3.539  17.500   7.950
 5541POPC   C4A17286   3.524  17.468   7.650
 5541POPC   C1B17287   3.408  17.673   8.550
 5541POPC   C2B17288   3.427  17.698   8.250
 5541POPC   C3B17289   3.441  17.767   7.950
 5541POPC   C4B17290   3.408  17.734   7.650
 5542POPC   NC317291   0.486   3.551   9.450
 5542POPC   PO417292   0.469   3.518   9.150
 5542POPC   GL117293   0.484   3.520   8.850
 5542POPC   GL217294   0.354   3.602   8.850
 5542POPC   C1A17295   0.475   3.584   8.550
 5542POPC   D2A17296   0.417   3.580   8.250
 5542POPC   C3A17297   0.445   3.572   7.950
 5542POPC   C4A17298   0.422   3.527   7.650
 5542POPC   C1B17299   0.193   3.620   8.550
 5542POPC   C2B17300   0.226   3.567   8.250
 5542POPC   C3B17301   0.221   3.566   7.950
 5542POPC   C4B17302   0.226   3.607   7.650
 5543POPC   NC317303  39.202  23.730   9.450
 5543POPC   PO417304  39.202  23.680   9.150
 5543POPC   GL117305  39.277  23.682   8.850
 5543POPC   GL217306  39.286  23.880   8.850
 5543POPC   C1A17307  39.185  23.688   8.550
 5543POPC   D2A17308  39.231  23.716   8.250
 5543POPC   C3A17309  39.185  23.712   7.950
 5543POPC   C4A17310  39.239  23.735   7.650
 5543POPC   C1B17311  39.299  23.903   8.550
 5543POPC   C2B17312  39.267  23.983   8.250
 5543POPC   C3B17313  39.268  23.945   7.950
 5543POPC   C4B17314  39.309  23.903   7.650
 5544POPC   NC317315  19.090  42.291   9.450
 5544POPC   PO417316  19.098  42.339   9.150
 5544POPC   GL117317  19.061  42.357   8.850
 5544POPC   GL217318  19.160  42.428   8.850
 5544POPC   C1A17319  19.083  42.360   8.550
 5544POPC   D2A17320  19.055  42.384   8.250
 5544POPC   C3A17321  19.018  42.338   7.950
 5544POPC   C4A17322  19.091  42.378   7.650
 5544POPC   C1B17323  19.193  42.572   8.550
 5544POPC   C2B17324  19.219  42.505   8.250
 5544POPC   C3B17325  19.242  42.584   7.950
 5544POPC   C4B17326  19.208  42.554   7.650
 5545POPC   NC317327  14.403  36.141   9.450
 5545POPC   PO417328  14.451  36.142   9.150
 5545POPC   GL117329  14.368  36.083   8.850
 5545POPC   GL217330  14.446  36.213   8.850
 5545POPC   C1A17331  14.404  36.145   8.550
 5545POPC   D2A17332  14.408  36.150   8.250
 5545POPC   C3A17333  14.364  36.154   7.950
 5545POPC   C4A17334  14.398  36.125   7.650
 5545POPC   C1B17335  14.386  36.406   8.550
 5545POPC   C2B17336  14.390  36.351   8.250
 5545POPC   C3B17337  14.394  36.380   7.950
 5545POPC   C4B17338  14.386  36.413   7.650
 5546POPC   NC317339  12.890  27.577   9.450
 5546POPC   PO417340  12.846  27.567   9.150
 5546POPC   GL117341  12.870  27.622   8.850
 5546POPC   GL217342  12.983  27.477   8.850
 5546POPC   C1A17343  12.837  27.618   8.550
 5546POPC   D2A17344  12.871  27.547   8.250
 5546POPC   C3A17345  12.877  27.619   7.950
 5546POPC   C4A17346  12.818  27.601   7.650
 5546POPC   C1B17347  13.063  27.432   8.550
 5546POPC   C2B17348  13.059  27.407   8.250
 5546POPC   C3B17349  13.077  27.462   7.950
 5546POPC   C4B17350  13.068  27.451   7.650
 5547POPC   NC317351   1.233  28.398   9.450
 5547POPC   PO417352   1.164  28.337   9.150
 5547POPC   GL117353   1.238  28.365   8.850
 5547POPC   GL217354   1.171  28.261   8.850
 5547POPC   C1A17355   1.202  28.391   8.550
 5547POPC   D2A17356   1.211  28.346   8.250
 5547POPC   C3A17357   1.260  28.346   7.950
 5547POPC   C4A17358   1.256  28.403   7.650
 5547POPC   C1B17359   1.066  28.144   8.550
 5547POPC   C2B17360   1.051  28.196   8.250
 5547POPC   C3B17361   1.116  28.113   7.950
 5547POPC   C4B17362   1.107  28.144   7.650
 5548POPC   NC317363   7.458  10.570   9.450
 5548POPC   PO417364   7.383  10.542   9.150
 5548POPC   GL117365   7.374  10.520   8.850
 5548POPC   GL217366   7.584  10.587   8.850
 5548POPC   C1A17367   7.425  10.488   8.550
 5548POPC   D2A17368   7.459  10.529   8.250
 5548POPC   C3A17369   7.415  10.500   7.950
 5548POPC   C4A17370   7.464  10.565   7.650
 5548POPC   C1B17371   7.688  10.603   8.550
 5548POPC   C2B17372   7.679  10.618   8.250
 5548POPC   C3B17373   7.678  10.632   7.950
 5548POPC   C4B17374   7.612  10.604   7.650
 5549POPC   NC317375  17.464  19.877   9.450
 5549POPC   PO417376  17.463  19.845   9.150
 5549POPC   GL117377  17.465  19.830   8.850
 5549POPC   GL217378  17.498  19.995   8.850
 5549POPC   C1A17379  17.490  19.840   8.550
 5549POPC   D2A17380  17.496  19.829   8.250
 5549POPC   C3A17381  17.517  19.876   7.950
 5549POPC   C4A17382  17.524  19.825   7.650
 5549POPC   C1B17383  17.540  20.079   8.550
 5549POPC   C2B17384  17.518  20.076   8.250
 5549POPC   C3B17385  17.557  20.109   7.950
 5549POPC   C4B17386  17.493  20.106   7.650
 5550POPC   NC317387  31.494  32.294   9.450
 5550POPC   PO417388  31.508  32.275   9.150
 5550POPC   GL117389  31.482  32.238   8.850
 5550POPC   GL217390  31.415  32.098   8.850
 5550POPC   C1A17391  31.433  32.282   8.550
 5550POPC   D2A17392  31.426  32.207   8.250
 5550POPC   C3A17393  31.446  32.269   7.950
 5550POPC   C4A17394  31.450  32.278   7.650
 5550POPC   C1B17395  31.368  31.984   8.550
 5550POPC   C2B17396  31.388  32.036   8.250
 5550POPC   C3B17397  31.361  31.998   7.950
 5550POPC   C4B17398  31.368  31.988   7.650
 5551POPC   NC317399  36.877  43.850   9.450
 5551POPC   PO417400  36.891  43.852   9.150
 5551POPC   GL117401  36.866  43.886   8.850
 5551POPC   GL217402  36.839  43.977   8.850
 5551POPC   C1A17403  36.936  43.847   8.550
 5551POPC   D2A17404  36.879  43.924   8.250
 5551POPC   C3A17405  36.875  43.842   7.950
 5551POPC   C4A17406  36.872  43.846   7.650
 5551POPC   C1B17407  36.712  44.025   8.550
 5551POPC   C2B17408  36.632  43.995   8.250
 5551POPC   C3B17409  36.683  44.025   7.950
 5551POPC   C4B17410  36.640  44.009   7.650
 5552POPC   NC317411   2.727  26.848   9.450
 5552POPC   PO417412   2.732  26.798   9.150
 5552POPC   GL117413   2.753  26.847   8.850
 5552POPC   GL217414   2.870  26.900   8.850
 5552POPC   C1A17415   2.761  26.855   8.550
 5552POPC   D2A17416   2.754  26.858   8.250
 5552POPC   C3A17417   2.721  26.850   7.950
 5552POPC   C4A17418   2.756  26.825   7.650
 5552POPC   C1B17419   2.892  27.003   8.550
 5552POPC   C2B17420   2.887  26.987   8.250
 5552POPC   C3B17421   2.889  27.056   7.950
 5552POPC   C4B17422   2.912  27.022   7.650
 5553POPC   NC317423   5.052  39.223   9.450
 5553POPC   PO417424   5.044  39.247   9.150
 5553POPC   GL117425   5.139  39.203   8.850
 5553POPC   GL217426   5.227  39.189   8.850
 5553POPC   C1A17427   5.103  39.226   8.550
 5553POPC   D2A17428   5.044  39.255   8.250
 5553POPC   C3A17429   5.089  39.187   7.950
 5553POPC   C4A17430   5.055  39.184   7.650
 5553POPC   C1B17431   5.292  39.155   8.550
 5553POPC   C2B17432   5.363  39.238   8.250
 5553POPC   C3B17433   5.308  39.148   7.950
 5553POPC   C4B17434   5.361  39.197   7.650
 5554POPC   NC317435  22.125  12.043   9.450
 5554POPC   PO417436  22.129  12.046   9.150
 5554POPC   GL117437  22.188  12.034   8.850
 5554POPC   GL217438  22.078  11.981   8.850
 5554POPC   C1A17439  22.186  12.088   8.550
 5554POPC   D2A17440  22.162  12.102   8.250
 5554POPC   C3A17441  22.142  12.119   7.950
 5554POPC   C4A17442  22.209  12.123   7.650
 5554POPC   C1B17443  21.910  11.941   8.550
 5554POPC   C2B17444  21.976  12.000   8.250
 5554POPC   C3B17445  21.884  12.000   7.950
 5554POPC   C4B17446  21.918  11.975   7.650
 5555POPC   NC317447  42.332  43.840   9.450
 5555POPC   PO417448  42.365  43.934   9.150
 5555POPC   GL117449  42.334  43.931   8.850
 5555POPC   GL217450  42.176  43.877   8.850
 5555POPC   C1A17451  42.297  43.884   8.550
 5555POPC   D2A17452  42.357  43.843   8.250
 5555POPC   C3A17453  42.354  43.877   7.950
 5555POPC   C4A17454  42.357  43.895   7.650
 5555POPC   C1B17455  42.132  43.828   8.550
 5555POPC   C2B17456  42.124  43.826   8.250
 5555POPC   C3B17457  42.104  43.807   7.950
 5555POPC   C4B17458  42.066  43.814   7.650
 5556POPC   NC317459  13.631  23.709   9.450
 5556POPC   PO417460  13.618  23.738   9.150
 5556POPC   GL117461  13.669  23.744   8.850
 5556POPC   GL217462  13.482  23.689   8.850
 5556POPC   C1A17463  13.671  23.744   8.550
 5556POPC   D2A17464  13.597  23.762   8.250
 5556POPC   C3A17465  13.620  23.739   7.950
 5556POPC   C4A17466  13.652  23.727   7.650
 5556POPC   C1B17467  13.438  23.602   8.550
 5556POPC   C2B17468  13.439  23.604   8.250
 5556POPC   C3B17469  13.438  23.646   7.950
 5556POPC   C4B17470  13.416  23.569   7.650
 5557POPC   NC317471   3.576  34.579   9.450
 5557POPC   PO417472   3.560  34.586   9.150
 5557POPC   GL117473   3.495  34.616   8.850
 5557POPC   GL217474   3.404  34.475   8.850
 5557POPC   C1A17475   3.525  34.608   8.550
 5557POPC   D2A17476   3.556  34.585   8.250
 5557POPC   C3A17477   3.509  34.597   7.950
 5557POPC   C4A17478   3.498  34.531   7.650
 5557POPC   C1B17479   3.323  34.380   8.550
 5557POPC   C2B17480   3.354  34.353   8.250
 5557POPC   C3B17481   3.368  34.358   7.950
 5557POPC   C4B17482   3.362  34.444   7.650
 5558POPC   NC317483  34.540  15.923   9.450
 5558POPC   PO417484  34.556  15.991   9.150
 5558POPC   GL117485  34.595  15.988   8.850
 5558POPC   GL217486  34.656  16.009   8.850
 5558POPC   C1A17487  34.569  15.977   8.550
 5558POPC   D2A17488  34.624  15.927   8.250
 5558POPC   C3A17489  34.614  15.980   7.950
 5558POPC   C4A17490  34.617  15.996   7.650
 5558POPC   C1B17491  34.855  16.065   8.550
 5558POPC   C2B17492  34.800  16.018   8.250
 5558POPC   C3B17493  34.783  16.036   7.950
 5558POPC   C4B17494  34.800  16.063   7.650
 5559POPC   NC317495   8.210   7.373   9.450
 5559POPC   PO417496   8.212   7.460   9.150
 5559POPC   GL117497   8.153   7.373   8.850
 5559POPC   GL217498   8.201   7.532   8.850
 5559POPC   C1A17499   8.242   7.422   8.550
 5559POPC   D2A17500   8.217   7.446   8.250
 5559POPC   C3A17501   8.156   7.438   7.950
 5559POPC   C4A17502   8.185   7.397   7.650
 5559POPC   C1B17503   8.291   7.659   8.550
 5559POPC   C2B17504   8.237   7.698   8.250
 5559POPC   C3B17505   8.290   7.619   7.950
 5559POPC   C4B17506   8.278   7.611   7.650
 5560POPC   NC317507  44.616  40.045   9.450
 5560POPC   PO417508  44.704  40.055   9.150
 5560POPC   GL117509  44.678  39.971   8.850
 5560POPC   GL217510  44.584  39.892   8.850
 5560POPC   C1A17511  44.682  40.023   8.550
 5560POPC   D2A17512  44.666  39.983   8.250
 5560POPC   C3A17513  44.633  40.035   7.950
 5560POPC   C4A17514  44.619  40.019   7.650
 5560POPC   C1B17515  44.618  39.774   8.550
 5560POPC   C2B17516  44.635  39.735   8.250
 5560POPC   C3B17517  44.607  39.807   7.950
 5560POPC   C4B17518  44.617  39.769   7.650
 5561POPC   NC317519   5.056  19.056   9.450
 5561POPC   PO417520   5.093  19.073   9.150
 5561POPC   GL117521   5.044  19.108   8.850
 5561POPC   GL217522   5.008  19.107   8.850
 5561POPC   C1A17523   5.133  19.036   8.550
 5561POPC   D2A17524   5.133  19.019   8.250
 5561POPC   C3A17525   5.067  19.026   7.950
 5561POPC   C4A17526   5.082  19.078   7.650
 5561POPC   C1B17527   4.882  19.192   8.550
 5561POPC   C2B17528   4.854  19.157   8.250
 5561POPC   C3B17529   4.829  19.161   7.950
 5561POPC   C4B17530   4.860  19.198   7.650
 5562POPC   NC317531  36.952  15.213   9.450
 5562POPC   PO417532  36.861  15.152   9.150
 5562POPC   GL117533  36.874  15.205   8.850
 5562POPC   GL217534  37.029  15.123   8.850
 5562POPC   C1A17535  36.880  15.228   8.550
 5562POPC   D2A17536  36.878  15.189   8.250
 5562POPC   C3A17537  36.894  15.217   7.950
 5562POPC   C4A17538  36.930  15.219   7.650
 5562POPC   C1B17539  37.055  14.994   8.550
 5562POPC   C2B17540  37.105  15.009   8.250
 5562POPC   C3B17541  37.039  14.997   7.950
 5562POPC   C4B17542  37.103  15.000   7.650
 5563POPC   NC317543  27.560  26.006   9.450
 5563POPC   PO417544  27.631  26.016   9.150
 5563POPC   GL117545  27.592  26.060   8.850
 5563POPC   GL217546  27.620  25.941   8.850
 5563POPC   C1A17547  27.582  26.036   8.550
 5563POPC   D2A17548  27.642  26.051   8.250
 5563POPC   C3A17549  27.576  26.023   7.950
 5563POPC   C4A17550  27.546  26.070   7.650
 5563POPC   C1B17551  27.634  25.755   8.550
 5563POPC   C2B17552  27.644  25.765   8.250
 5563POPC   C3B17553  27.668  25.839   7.950
 5563POPC   C4B17554  27.684  25.832   7.650
 5564POPC   NC317555  37.728  40.831   9.450
 5564POPC   PO417556  37.697  40.787   9.150
 5564POPC   GL117557  37.685  40.798   8.850
 5564POPC   GL217558  37.569  40.749   8.850
 5564POPC   C1A17559  37.703  40.802   8.550
 5564POPC   D2A17560  37.718  40.736   8.250
 5564POPC   C3A17561  37.656  40.788   7.950
 5564POPC   C4A17562  37.713  40.744   7.650
 5564POPC   C1B17563  37.425  40.706   8.550
 5564POPC   C2B17564  37.428  40.745   8.250
 5564POPC   C3B17565  37.470  40.756   7.950
 5564POPC   C4B17566  37.457  40.721   7.650
 5565POPC   NC317567  30.658  30.653   9.450
 5565POPC   PO417568  30.714  30.689   9.150
 5565POPC   GL117569  30.690  30.717   8.850
 5565POPC   GL217570  30.620  30.664   8.850
 5565POPC   C1A17571  30.737  30.655   8.550
 5565POPC   D2A17572  30.726  30.670   8.250
 5565POPC   C3A17573  30.656  30.713   7.950
 5565POPC   C4A17574  30.695  30.718   7.650
 5565POPC   C1B17575  30.447  30.606   8.550
 5565POPC   C2B17576  30.409  30.673   8.250
 5565POPC   C3B17577  30.472  30.703   7.950
 5565POPC   C4B17578  30.419  30.704   7.650
 5566POPC   NC317579  12.844  41.602   9.450
 5566POPC   PO417580  12.882  41.568   9.150
 5566POPC   GL117581  12.804  41.591   8.850
 5566POPC   GL217582  12.948  41.630   8.850
 5566POPC   C1A17583  12.828  41.539   8.550
 5566POPC   D2A17584  12.818  41.557   8.250
 5566POPC   C3A17585  12.847  41.511   7.950
 5566POPC   C4A17586  12.894  41.538   7.650
 5566POPC   C1B17587  13.116  41.658   8.550
 5566POPC   C2B17588  13.103  41.612   8.250
 5566POPC   C3B17589  13.116  41.673   7.950
 5566POPC   C4B17590  13.106  41.630   7.650
 5567POPC   NC317591  36.894   1.182   9.450
 5567POPC   PO417592  36.942   1.231   9.150
 5567POPC   GL117593  36.886   1.177   8.850
 5567POPC   GL217594  36.792   1.118   8.850
 5567POPC   C1A17595  36.945   1.169   8.550
 5567POPC   D2A17596  36.921   1.173   8.250
 5567POPC   C3A17597  36.906   1.185   7.950
 5567POPC   C4A17598  36.862   1.213   7.650
 5567POPC   C1B17599  36.706   1.066   8.550
 5567POPC   C2B17600  36.762   1.090   8.250
 5567POPC   C3B17601  36.744   1.093   7.950
 5567POPC   C4B17602  36.740   1.020   7.650
 5568POPC   NC317603  34.622  19.861   9.450
 5568POPC   PO417604  34.620  19.849   9.150
 5568POPC   GL117605  34.600  19.871   8.850
 5568POPC   GL217606  34.451  19.925   8.850
 5568POPC   C1A17607  34.556  19.803   8.550
 5568POPC   D2A17608  34.536  19.793   8.250
 5568POPC   C3A17609  34.565  19.847   7.950
 5568POPC   C4A17610  34.605  19.832   7.650
 5568POPC   C1B17611  34.364  20.020   8.550
 5568POPC   C2B17612  34.405  20.022   8.250
 5568POPC   C3B17613  34.346  20.031   7.950
 5568POPC   C4B17614  34.363  20.018   7.650
 5569POPC   NC317615  19.076  32.226   9.450
 5569POPC   PO417616  19.057  32.204   9.150
 5569POPC   GL117617  19.080  32.229   8.850
 5569POPC   GL217618  19.093  32.363   8.850
 5569POPC   C1A17619  19.075  32.246   8.550
 5569POPC   D2A17620  19.082  32.241   8.250
 5569POPC   C3A17621  19.050  32.258   7.950
 5569POPC   C4A17622  19.047  32.246   7.650
 5569POPC   C1B17623  19.200  32.437   8.550
 5569POPC   C2B17624  19.207  32.455   8.250
 5569POPC   C3B17625  19.142  32.440   7.950
 5569POPC   C4B17626  19.167  32.476   7.650
 5570POPC   NC317627   9.782  37.633   9.450
 5570POPC   PO417628   9.749  37.664   9.150
 5570POPC   GL117629   9.750  37.654   8.850
 5570POPC   GL217630   9.885  37.632   8.850
 5570POPC   C1A17631   9.734  37.635   8.550
 5570POPC   D2A17632   9.795  37.652   8.250
 5570POPC   C3A17633   9.714  37.657   7.950
 5570POPC   C4A17634   9.708  37.630   7.650
 5570POPC   C1B17635   9.950  37.570   8.550
 5570POPC   C2B17636  10.000  37.557   8.250
 5570POPC   C3B17637   9.940  37.572   7.950
 5570POPC   C4B17638   9.982  37.521   7.650
 5571POPC   NC317639  43.099  39.196   9.450
 5571POPC   PO417640  43.109  39.187   9.150
 5571POPC   GL117641  43.143  39.207   8.850
 5571POPC   GL217642  43.078  39.069   8.850
 5571POPC   C1A17643  43.105  39.185   8.550
 5571POPC   D2A17644  43.077  39.206   8.250
 5571POPC   C3A17645  43.147  39.253   7.950
 5571POPC   C4A17646  43.149  39.214   7.650
 5571POPC   C1B17647  43.043  38.981   8.550
 5571POPC   C2B17648  43.064  38.950   8.250
 5571POPC   C3B17649  42.984  38.981   7.950
 5571POPC   C4B17650  42.989  39.018   7.650
 5572POPC   NC317651  17.544  30.678   9.450
 5572POPC   PO417652  17.557  30.684   9.150
 5572POPC   GL117653  17.494  30.708   8.850
 5572POPC   GL217654  17.567  30.589   8.850
 5572POPC   C1A17655  17.553  30.687   8.550
 5572POPC   D2A17656  17.463  30.697   8.250
 5572POPC   C3A17657  17.555  30.722   7.950
 5572POPC   C4A17658  17.461  30.649   7.650
 5572POPC   C1B17659  17.670  30.486   8.550
 5572POPC   C2B17660  17.606  30.513   8.250
 5572POPC   C3B17661  17.656  30.459   7.950
 5572POPC   C4B17662  17.643  30.431   7.650
 5573POPC   NC317663  33.756   9.021   9.450
 5573POPC   PO417664  33.837   8.989   9.150
 5573POPC   GL117665  33.799   8.925   8.850
 5573POPC   GL217666  33.879   9.021   8.850
 5573POPC   C1A17667  33.804   9.005   8.550
 5573POPC   D2A17668  33.796   8.984   8.250
 5573POPC   C3A17669  33.830   8.997   7.950
 5573POPC   C4A17670  33.789   8.939   7.650
 5573POPC   C1B17671  34.019   9.022   8.550
 5573POPC   C2B17672  34.023   9.082   8.250
 5573POPC   C3B17673  34.015   9.023   7.950
 5573POPC   C4B17674  34.022   9.011   7.650
 5574POPC   NC317675   0.449  20.613   9.450
 5574POPC   PO417676   0.417  20.601   9.150
 5574POPC   GL117677   0.434  20.609   8.850
 5574POPC   GL217678   0.498  20.488   8.850
 5574POPC   C1A17679   0.400  20.592   8.550
 5574POPC   D2A17680   0.453  20.612   8.250
 5574POPC   C3A17681   0.455  20.588   7.950
 5574POPC   C4A17682   0.445  20.632   7.650
 5574POPC   C1B17683   0.530  20.365   8.550
 5574POPC   C2B17684   0.556  20.430   8.250
 5574POPC   C3B17685   0.571  20.404   7.950
 5574POPC   C4B17686   0.533  20.392   7.650
 5575POPC   NC317687  22.906  32.278   9.450
 5575POPC   PO417688  22.907  32.277   9.150
 5575POPC   GL117689  22.945  32.268   8.850
 5575POPC   GL217690  22.802  32.349   8.850
 5575POPC   C1A17691  22.906  32.278   8.550
 5575POPC   D2A17692  22.909  32.285   8.250
 5575POPC   C3A17693  22.978  32.219   7.950
 5575POPC   C4A17694  22.974  32.242   7.650
 5575POPC   C1B17695  22.705  32.346   8.550
 5575POPC   C2B17696  22.714  32.374   8.250
 5575POPC   C3B17697  22.774  32.347   7.950
 5575POPC   C4B17698  22.708  32.345   7.650
 5576POPC   NC317699  21.344   3.541   9.450
 5576POPC   PO417700  21.339   3.572   9.150
 5576POPC   GL117701  21.420   3.514   8.850
 5576POPC   GL217702  21.447   3.659   8.850
 5576POPC   C1A17703  21.431   3.574   8.550
 5576POPC   D2A17704  21.376   3.569   8.250
 5576POPC   C3A17705  21.412   3.526   7.950
 5576POPC   C4A17706  21.416   3.553   7.650
 5576POPC   C1B17707  21.495   3.736   8.550
 5576POPC   C2B17708  21.530   3.804   8.250
 5576POPC   C3B17709  21.503   3.749   7.950
 5576POPC   C4B17710  21.478   3.724   7.650
 5577POPC   NC317711  36.152  44.682   9.450
 5577POPC   PO417712  36.117  44.674   9.150
 5577POPC   GL117713  36.144  44.700   8.850
 5577POPC   GL217714  36.057  44.566   8.850
 5577POPC   C1A17715  36.102  44.619   8.550
 5577POPC   D2A17716  36.118  44.673   8.250
 5577POPC   C3A17717  36.156  44.694   7.950
 5577POPC   C4A17718  36.101  44.615   7.650
 5577POPC   C1B17719  35.935  44.589   8.550
 5577POPC   C2B17720  35.887  44.496   8.250
 5577POPC   C3B17721  35.938  44.566   7.950
 5577POPC   C4B17722  35.904  44.514   7.650
 5578POPC   NC317723  13.582  14.378   9.450
 5578POPC   PO417724  13.585  14.379   9.150
 5578POPC   GL117725  13.621  14.397   8.850
 5578POPC   GL217726  13.777  14.417   8.850
 5578POPC   C1A17727  13.668  14.393   8.550
 5578POPC   D2A17728  13.610  14.448   8.250
 5578POPC   C3A17729  13.628  14.448   7.950
 5578POPC   C4A17730  13.583  14.369   7.650
 5578POPC   C1B17731  13.897  14.441   8.550
 5578POPC   C2B17732  13.844  14.488   8.250
 5578POPC   C3B17733  13.846  14.462   7.950
 5578POPC   C4B17734  13.881  14.434   7.650
 5579POPC   NC317735  36.149  33.786   9.450
 5579POPC   PO417736  36.122  33.773   9.150
 5579POPC   GL117737  36.113  33.837   8.850
 5579POPC   GL217738  36.160  33.881   8.850
 5579POPC   C1A17739  36.150  33.849   8.550
 5579POPC   D2A17740  36.132  33.805   8.250
 5579POPC   C3A17741  36.114  33.837   7.950
 5579POPC   C4A17742  36.094  33.820   7.650
 5579POPC   C1B17743  36.141  34.035   8.550
 5579POPC   C2B17744  36.217  34.056   8.250
 5579POPC   C3B17745  36.146  34.079   7.950
 5579POPC   C4B17746  36.146  34.044   7.650
 5580POPC   NC317747  11.303  23.750   9.450
 5580POPC   PO417748  11.339  23.735   9.150
 5580POPC   GL117749  11.272  23.751   8.850
 5580POPC   GL217750  11.413  23.625   8.850
 5580POPC   C1A17751  11.310  23.691   8.550
 5580POPC   D2A17752  11.329  23.702   8.250
 5580POPC   C3A17753  11.303  23.678   7.950
 5580POPC   C4A17754  11.338  23.668   7.650
 5580POPC   C1B17755  11.504  23.646   8.550
 5580POPC   C2B17756  11.532  23.599   8.250
 5580POPC   C3B17757  11.524  23.606   7.950
 5580POPC   C4B17758  11.553  23.653   7.650
 5581POPC   NC317759  38.425  16.777   9.450
 5581POPC   PO417760  38.439  16.696   9.150
 5581POPC   GL117761  38.483  16.697   8.850
 5581POPC   GL217762  38.432  16.571   8.850
 5581POPC   C1A17763  38.461  16.733   8.550
 5581POPC   D2A17764  38.438  16.728   8.250
 5581POPC   C3A17765  38.468  16.729   7.950
 5581POPC   C4A17766  38.415  16.718   7.650
 5581POPC   C1B17767  38.392  16.556   8.550
 5581POPC   C2B17768  38.297  16.549   8.250
 5581POPC   C3B17769  38.357  16.504   7.950
 5581POPC   C4B17770  38.365  16.487   7.650
 5582POPC   NC317771  19.874  15.982   9.450
 5582POPC   PO417772  19.796  15.955   9.150
 5582POPC   GL117773  19.829  15.941   8.850
 5582POPC   GL217774  19.724  15.927   8.850
 5582POPC   C1A17775  19.827  15.961   8.550
 5582POPC   D2A17776  19.811  15.923   8.250
 5582POPC   C3A17777  19.838  15.932   7.950
 5582POPC   C4A17778  19.805  16.003   7.650
 5582POPC   C1B17779  19.612  15.956   8.550
 5582POPC   C2B17780  19.585  15.968   8.250
 5582POPC   C3B17781  19.630  15.974   7.950
 5582POPC   C4B17782  19.565  15.954   7.650
 5583POPC   NC317783  21.423  43.159   9.450
 5583POPC   PO417784  21.436  43.160   9.150
 5583POPC   GL117785  21.428  43.155   8.850
 5583POPC   GL217786  21.485  43.157   8.850
 5583POPC   C1A17787  21.343  43.066   8.550
 5583POPC   D2A17788  21.392  43.128   8.250
 5583POPC   C3A17789  21.423  43.079   7.950
 5583POPC   C4A17790  21.359  43.103   7.650
 5583POPC   C1B17791  21.636  43.169   8.550
 5583POPC   C2B17792  21.613  43.124   8.250
 5583POPC   C3B17793  21.608  43.158   7.950
 5583POPC   C4B17794  21.587  43.153   7.650
 5584POPC   NC317795   6.644   8.219   9.450
 5584POPC   PO417796   6.674   8.172   9.150
 5584POPC   GL117797   6.650   8.235   8.850
 5584POPC   GL217798   6.591   8.103   8.850
 5584POPC   C1A17799   6.677   8.200   8.550
 5584POPC   D2A17800   6.609   8.210   8.250
 5584POPC   C3A17801   6.675   8.159   7.950
 5584POPC   C4A17802   6.598   8.190   7.650
 5584POPC   C1B17803   6.527   7.993   8.550
 5584POPC   C2B17804   6.513   8.019   8.250
 5584POPC   C3B17805   6.538   8.043   7.950
 5584POPC   C4B17806   6.532   8.021   7.650
 5585POPC   NC317807  39.995  13.580   9.450
 5585POPC   PO417808  40.015  13.662   9.150
 5585POPC   GL117809  40.049  13.677   8.850
 5585POPC   GL217810  39.930  13.687   8.850
 5585POPC   C1A17811  39.957  13.642   8.550
 5585POPC   D2A17812  40.024  13.614   8.250
 5585POPC   C3A17813  40.001  13.620   7.950
 5585POPC   C4A17814  39.996  13.619   7.650
 5585POPC   C1B17815  39.799  13.642   8.550
 5585POPC   C2B17816  39.787  13.644   8.250
 5585POPC   C3B17817  39.730  13.704   7.950
 5585POPC   C4B17818  39.725  13.670   7.650
 5586POPC   NC317819  12.108  12.125   9.450
 5586POPC   PO417820  12.099  12.098   9.150
 5586POPC   GL117821  12.084  12.055   8.850
 5586POPC   GL217822  11.989  12.103   8.850
 5586POPC   C1A17823  12.045  12.116   8.550
 5586POPC   D2A17824  12.056  12.029   8.250
 5586POPC   C3A17825  12.103  12.107   7.950
 5586POPC   C4A17826  12.074  12.071   7.650
 5586POPC   C1B17827  11.908  12.169   8.550
 5586POPC   C2B17828  11.875  12.215   8.250
 5586POPC   C3B17829  11.871  12.190   7.950
 5586POPC   C4B17830  11.914  12.239   7.650
 5587POPC   NC317831  27.601   6.691   9.450
 5587POPC   PO417832  27.606   6.631   9.150
 5587POPC   GL117833  27.621   6.688   8.850
 5587POPC   GL217834  27.529   6.489   8.850
 5587POPC   C1A17835  27.587   6.621   8.550
 5587POPC   D2A17836  27.545   6.691   8.250
 5587POPC   C3A17837  27.634   6.639   7.950
 5587POPC   C4A17838  27.631   6.661   7.650
 5587POPC   C1B17839  27.571   6.381   8.550
 5587POPC   C2B17840  27.536   6.360   8.250
 5587POPC   C3B17841  27.547   6.394   7.950
 5587POPC   C4B17842  27.602   6.378   7.650
 5588POPC   NC317843  22.207   6.665   9.450
 5588POPC   PO417844  22.194   6.685   9.150
 5588POPC   GL117845  22.117   6.636   8.850
 5588POPC   GL217846  22.194   6.530   8.850
 5588POPC   C1A17847  22.124   6.623   8.550
 5588POPC   D2A17848  22.207   6.672   8.250
 5588POPC   C3A17849  22.211   6.694   7.950
 5588POPC   C4A17850  22.131   6.672   7.650
 5588POPC   C1B17851  22.129   6.432   8.550
 5588POPC   C2B17852  22.115   6.437   8.250
 5588POPC   C3B17853  22.107   6.418   7.950
 5588POPC   C4B17854  22.203   6.380   7.650
 5589POPC   NC317855   9.008  42.364   9.450
 5589POPC   PO417856   8.941  42.322   9.150
 5589POPC   GL117857   8.939  42.370   8.850
 5589POPC   GL217858   9.035  42.282   8.850
 5589POPC   C1A17859   8.976  42.365   8.550
 5589POPC   D2A17860   8.963  42.364   8.250
 5589POPC   C3A17861   8.954  42.364   7.950
 5589POPC   C4A17862   8.935  42.321   7.650
 5589POPC   C1B17863   9.173  42.101   8.550
 5589POPC   C2B17864   9.128  42.154   8.250
 5589POPC   C3B17865   9.097  42.129   7.950
 5589POPC   C4B17866   9.120  42.110   7.650
 5590POPC   NC317867  19.072   4.278   9.450
 5590POPC   PO417868  19.026   4.352   9.150
 5590POPC   GL117869  19.087   4.306   8.850
 5590POPC   GL217870  19.187   4.199   8.850
 5590POPC   C1A17871  19.106   4.332   8.550
 5590POPC   D2A17872  19.067   4.363   8.250
 5590POPC   C3A17873  19.041   4.301   7.950
 5590POPC   C4A17874  19.090   4.323   7.650
 5590POPC   C1B17875  19.227   4.184   8.550
 5590POPC   C2B17876  19.214   4.190   8.250
 5590POPC   C3B17877  19.270   4.122   7.950
 5590POPC   C4B17878  19.250   4.110   7.650
 5591POPC   NC317879  31.425  22.920   9.450
 5591POPC   PO417880  31.509  22.899   9.150
 5591POPC   GL117881  31.490  22.918   8.850
 5591POPC   GL217882  31.369  22.867   8.850
 5591POPC   C1A17883  31.508  22.924   8.550
 5591POPC   D2A17884  31.425  22.927   8.250
 5591POPC   C3A17885  31.503  22.919   7.950
 5591POPC   C4A17886  31.470  22.927   7.650
 5591POPC   C1B17887  31.243  22.828   8.550
 5591POPC   C2B17888  31.310  22.794   8.250
 5591POPC   C3B17889  31.308  22.795   7.950
 5591POPC   C4B17890  31.315  22.841   7.650
 5592POPC   NC317891  19.040  43.109   9.450
 5592POPC   PO417892  19.065  43.096   9.150
 5592POPC   GL117893  19.036  43.121   8.850
 5592POPC   GL217894  18.934  43.051   8.850
 5592POPC   C1A17895  19.025  43.108   8.550
 5592POPC   D2A17896  19.095  43.073   8.250
 5592POPC   C3A17897  19.081  43.134   7.950
 5592POPC   C4A17898  19.043  43.153   7.650
 5592POPC   C1B17899  18.863  42.988   8.550
 5592POPC   C2B17900  18.807  42.980   8.250
 5592POPC   C3B17901  18.805  43.034   7.950
 5592POPC   C4B17902  18.782  43.028   7.650
 5593POPC   NC317903   1.234  13.658   9.450
 5593POPC   PO417904   1.221  13.632   9.150
 5593POPC   GL117905   1.221  13.639   8.850
 5593POPC   GL217906   1.203  13.461   8.850
 5593POPC   C1A17907   1.251  13.633   8.550
 5593POPC   D2A17908   1.169  13.624   8.250
 5593POPC   C3A17909   1.234  13.628   7.950
 5593POPC   C4A17910   1.259  13.672   7.650
 5593POPC   C1B17911   1.208  13.385   8.550
 5593POPC   C2B17912   1.190  13.424   8.250
 5593POPC   C3B17913   1.240  13.414   7.950
 5593POPC   C4B17914   1.267  13.368   7.650
 5594POPC   NC317915  33.018   6.613   9.450
 5594POPC   PO417916  33.067   6.686   9.150
 5594POPC   GL117917  33.002   6.601   8.850
 5594POPC   GL217918  33.171   6.649   8.850
 5594POPC   C1A17919  33.048   6.652   8.550
 5594POPC   D2A17920  33.009   6.609   8.250
 5594POPC   C3A17921  33.034   6.671   7.950
 5594POPC   C4A17922  32.994   6.695   7.650
 5594POPC   C1B17923  33.291   6.583   8.550
 5594POPC   C2B17924  33.272   6.647   8.250
 5594POPC   C3B17925  33.260   6.563   7.950
 5594POPC   C4B17926  33.266   6.628   7.650
 5595POPC   NC317927  42.355  19.093   9.450
 5595POPC   PO417928  42.374  19.016   9.150
 5595POPC   GL117929  42.364  19.100   8.850
 5595POPC   GL217930  42.478  18.987   8.850
 5595POPC   C1A17931  42.365  19.102   8.550
 5595POPC   D2A17932  42.376  19.082   8.250
 5595POPC   C3A17933  42.335  19.012   7.950
 5595POPC   C4A17934  42.340  19.075   7.650
 5595POPC   C1B17935  42.535  19.007   8.550
 5595POPC   C2B17936  42.524  18.979   8.250
 5595POPC   C3B17937  42.526  19.017   7.950
 5595POPC   C4B17938  42.553  18.997   7.650
 5596POPC   NC317939   8.928  43.892   9.450
 5596POPC   PO417940   8.930  43.905   9.150
 5596POPC   GL117941   8.972  43.885   8.850
 5596POPC   GL217942   9.093  43.777   8.850
 5596POPC   C1A17943   8.990  43.917   8.550
 5596POPC   D2A17944   8.988  43.881   8.250
 5596POPC   C3A17945   9.011  43.859   7.950
 5596POPC   C4A17946   8.996  43.848   7.650
 5596POPC   C1B17947   9.185  43.764   8.550
 5596POPC   C2B17948   9.195  43.756   8.250
 5596POPC   C3B17949   9.110  43.713   7.950
 5596POPC   C4B17950   9.136  43.701   7.650
 5597POPC   NC317951  12.896  20.565   9.450
 5597POPC   PO417952  12.891  20.581   9.150
 5597POPC   GL117953  12.871  20.618   8.850
 5597POPC   GL217954  12.931  20.637   8.850
 5597POPC   C1A17955  12.817  20.611   8.550
 5597POPC   D2A17956  12.847  20.602   8.250
 5597POPC   C3A17957  12.888  20.607   7.950
 5597POPC   C4A17958  12.869  20.641   7.650
 5597POPC   C1B17959  13.105  20.727   8.550
 5597POPC   C2B17960  13.028  20.774   8.250
 5597POPC   C3B17961  13.069  20.779   7.950
 5597POPC   C4B17962  13.012  20.763   7.650
 5598POPC   NC317963  12.869  38.450   9.450
 5598POPC   PO417964  12.847  38.453   9.150
 5598POPC   GL117965  12.892  38.414   8.850
 5598POPC   GL217966  12.818  38.560   8.850
 5598POPC   C1A17967  12.887  38.433   8.550
 5598POPC   D2A17968  12.889  38.472   8.250
 5598POPC   C3A17969  12.839  38.453   7.950
 5598POPC   C4A17970  12.822  38.484   7.650
 5598POPC   C1B17971  12.752  38.708   8.550
 5598POPC   C2B17972  12.789  38.662   8.250
 5598POPC   C3B17973  12.700  38.661   7.950
 5598POPC   C4B17974  12.756  38.640   7.650
 5599POPC   NC317975   9.702  40.799   9.450
 5599POPC   PO417976   9.716  40.825   9.150
 5599POPC   GL117977   9.763  40.830   8.850
 5599POPC   GL217978   9.858  40.811   8.850
 5599POPC   C1A17979   9.743  40.740   8.550
 5599POPC   D2A17980   9.790  40.813   8.250
 5599POPC   C3A17981   9.765  40.827   7.950
 5599POPC   C4A17982   9.723  40.826   7.650
 5599POPC   C1B17983   9.990  40.863   8.550
 5599POPC   C2B17984  10.010  40.852   8.250
 5599POPC   C3B17985  10.013  40.904   7.950
 5599POPC   C4B17986   9.946  40.904   7.650
 5600POPC   NC317987  38.503  19.816   9.450
 5600POPC   PO417988  38.456  19.854   9.150
 5600POPC   GL117989  38.436  19.825   8.850
 5600POPC   GL217990  38.473  19.995   8.850
 5600POPC   C1A17991  38.493  19.827   8.550
 5600POPC   D2A17992  38.439  19.786   8.250
 5600POPC   C3A17993  38.439  19.785   7.950
 5600POPC   C4A17994  38.419  19.872   7.650
 5600POPC   C1B17995  38.592  20.034   8.550
 5600POPC   C2B17996  38.583  20.112   8.250
 5600POPC   C3B17997  38.505  20.049   7.950
 5600POPC   C4B17998  38.533  20.095   7.650
 5601POPC   NC317999  40.013  26.785   9.450
 5601POPC   PO418000  40.053  26.777   9.150
 5601POPC   GL118001  39.966  26.854   8.850
 5601POPC   GL218002  40.135  26.889   8.850
 5601POPC   C1A18003  39.987  26.860   8.550
 5601POPC   D2A18004  40.055  26.836   8.250
 5601POPC   C3A18005  40.035  26.801   7.950
 5601POPC   C4A18006  39.961  26.864   7.650
 5601POPC   C1B18007  40.264  26.859   8.550
 5601POPC   C2B18008  40.290  26.844   8.250
 5601POPC   C3B18009  40.252  26.875   7.950
 5601POPC   C4B18010  40.281  26.870   7.650
 5602POPC   NC318011   1.201  44.618   9.450
 5602POPC   PO418012   1.217  44.633   9.150
 5602POPC   GL118013   1.241  44.673   8.850
 5602POPC   GL218014   1.119  44.637   8.850
 5602POPC   C1A18015   1.216  44.649   8.550
 5602POPC   D2A18016   1.186  44.695   8.250
 5602POPC   C3A18017   1.241  44.613   7.950
 5602POPC   C4A18018   1.179  44.681   7.650
 5602POPC   C1B18019   0.952  44.635   8.550
 5602POPC   C2B18020   0.918  44.712   8.250
 5602POPC   C3B18021   0.981  44.696   7.950
 5602POPC   C4B18022   1.007  44.663   7.650
 5603POPC   NC318023  24.468  29.115   9.450
 5603POPC   PO418024  24.514  29.148   9.150
 5603POPC   GL118025  24.478  29.166   8.850
 5603POPC   GL218026  24.588  29.038   8.850
 5603POPC   C1A18027  24.525  29.112   8.550
 5603POPC   D2A18028  24.487  29.125   8.250
 5603POPC   C3A18029  24.459  29.191   7.950
 5603POPC   C4A18030  24.478  29.180   7.650
 5603POPC   C1B18031  24.704  28.949   8.550
 5603POPC   C2B18032  24.708  29.006   8.250
 5603POPC   C3B18033  24.676  29.024   7.950
 5603POPC   C4B18034  24.666  28.973   7.650
 5604POPC   NC318035  21.403   6.641   9.450
 5604POPC   PO418036  21.361   6.611   9.150
 5604POPC   GL118037  21.431   6.612   8.850
 5604POPC   GL218038  21.362   6.769   8.850
 5604POPC   C1A18039  21.396   6.671   8.550
 5604POPC   D2A18040  21.351   6.670   8.250
 5604POPC   C3A18041  21.378   6.679   7.950
 5604POPC   C4A18042  21.436   6.656   7.650
 5604POPC   C1B18043  21.381   6.900   8.550
 5604POPC   C2B18044  21.351   6.865   8.250
 5604POPC   C3B18045  21.341   6.938   7.950
 5604POPC   C4B18046  21.411   6.883   7.650
 5605POPC   NC318047  33.042  29.952   9.450
 5605POPC   PO418048  33.062  29.944   9.150
 5605POPC   GL118049  32.978  29.953   8.850
 5605POPC   GL218050  33.159  29.962   8.850
 5605POPC   C1A18051  33.047  29.923   8.550
 5605POPC   D2A18052  33.074  29.958   8.250
 5605POPC   C3A18053  33.009  29.898   7.950
 5605POPC   C4A18054  32.976  29.968   7.650
 5605POPC   C1B18055  33.290  30.036   8.550
 5605POPC   C2B18056  33.271  30.034   8.250
 5605POPC   C3B18057  33.228  30.079   7.950
 5605POPC   C4B18058  33.220  30.002   7.650
 5606POPC   NC318059  44.687  12.890   9.450
 5606POPC   PO418060  44.667  12.868   9.150
 5606POPC   GL118061  44.692  12.824   8.850
 5606POPC   GL218062  44.750  12.924   8.850
 5606POPC   C1A18063  44.625  12.821   8.550
 5606POPC   D2A18064  44.675  12.873   8.250
 5606POPC   C3A18065  44.632  12.860   7.950
 5606POPC   C4A18066  44.675  12.816   7.650
 5606POPC   C1B18067  44.932  12.966   8.550
 5606POPC   C2B18068  44.902  12.941   8.250
 5606POPC   C3B18069  44.901  12.964   7.950
 5606POPC   C4B18070  44.880  12.935   7.650
 5607POPC   NC318071   2.799  32.240   9.450
 5607POPC   PO418072   2.720  32.224   9.150
 5607POPC   GL118073   2.755  32.256   8.850
 5607POPC   GL218074   2.804  32.352   8.850
 5607POPC   C1A18075   2.811  32.298   8.550
 5607POPC   D2A18076   2.793  32.254   8.250
 5607POPC   C3A18077   2.768  32.204   7.950
 5607POPC   C4A18078   2.751  32.248   7.650
 5607POPC   C1B18079   2.853  32.506   8.550
 5607POPC   C2B18080   2.909  32.510   8.250
 5607POPC   C3B18081   2.848  32.437   7.950
 5607POPC   C4B18082   2.906  32.472   7.650
 5608POPC   NC318083  41.599  37.689   9.450
 5608POPC   PO418084  41.576  37.631   9.150
 5608POPC   GL118085  41.583  37.669   8.850
 5608POPC   GL218086  41.467  37.638   8.850
 5608POPC   C1A18087  41.570  37.673   8.550
 5608POPC   D2A18088  41.576  37.702   8.250
 5608POPC   C3A18089  41.549  37.675   7.950
 5608POPC   C4A18090  41.605  37.699   7.650
 5608POPC   C1B18091  41.291  37.650   8.550
 5608POPC   C2B18092  41.303  37.625   8.250
 5608POPC   C3B18093  41.298  37.671   7.950
 5608POPC   C4B18094  41.289  37.684   7.650
 5609POPC   NC318095  43.854  24.519   9.450
 5609POPC   PO418096  43.935  24.538   9.150
 5609POPC   GL118097  43.874  24.457   8.850
 5609POPC   GL218098  44.022  24.506   8.850
 5609POPC   C1A18099  43.837  24.517   8.550
 5609POPC   D2A18100  43.890  24.521   8.250
 5609POPC   C3A18101  43.894  24.482   7.950
 5609POPC   C4A18102  43.928  24.501   7.650
 5609POPC   C1B18103  44.153  24.422   8.550
 5609POPC   C2B18104  44.149  24.409   8.250
 5609POPC   C3B18105  44.164  24.379   7.950
 5609POPC   C4B18106  44.085  24.399   7.650
 5610POPC   NC318107  22.158   5.885   9.450
 5610POPC   PO418108  22.147   5.888   9.150
 5610POPC   GL118109  22.122   5.917   8.850
 5610POPC   GL218110  22.266   5.890   8.850
 5610POPC   C1A18111  22.141   5.889   8.550
 5610POPC   D2A18112  22.140   5.898   8.250
 5610POPC   C3A18113  22.177   5.837   7.950
 5610POPC   C4A18114  22.182   5.830   7.650
 5610POPC   C1B18115  22.399   5.990   8.550
 5610POPC   C2B18116  22.399   5.983   8.250
 5610POPC   C3B18117  22.422   5.970   7.950
 5610POPC   C4B18118  22.361   5.918   7.650
 5611POPC   NC318119  34.615  37.654   9.450
 5611POPC   PO418120  34.610  37.724   9.150
 5611POPC   GL118121  34.532  37.702   8.850
 5611POPC   GL218122  34.708  37.640   8.850
 5611POPC   C1A18123  34.585  37.678   8.550
 5611POPC   D2A18124  34.587  37.697   8.250
 5611POPC   C3A18125  34.560  37.701   7.950
 5611POPC   C4A18126  34.538  37.631   7.650
 5611POPC   C1B18127  34.839  37.568   8.550
 5611POPC   C2B18128  34.782  37.562   8.250
 5611POPC   C3B18129  34.831  37.623   7.950
 5611POPC   C4B18130  34.841  37.631   7.650
 5612POPC   NC318131   6.615   4.288   9.450
 5612POPC   PO418132   6.624   4.326   9.150
 5612POPC   GL118133   6.603   4.269   8.850
 5612POPC   GL218134   6.644   4.389   8.850
 5612POPC   C1A18135   6.671   4.296   8.550
 5612POPC   D2A18136   6.608   4.286   8.250
 5612POPC   C3A18137   6.688   4.321   7.950
 5612POPC   C4A18138   6.643   4.306   7.650
 5612POPC   C1B18139   6.666   4.579   8.550
 5612POPC   C2B18140   6.700   4.596   8.250
 5612POPC   C3B18141   6.683   4.512   7.950
 5612POPC   C4B18142   6.752   4.511   7.650
 5613POPC   NC318143   3.530  36.864   9.450
 5613POPC   PO418144   3.515  36.908   9.150
 5613POPC   GL118145   3.552  36.893   8.850
 5613POPC   GL218146   3.576  36.747   8.850
 5613POPC   C1A18147   3.583  36.866   8.550
 5613POPC   D2A18148   3.546  36.902   8.250
 5613POPC   C3A18149   3.574  36.915   7.950
 5613POPC   C4A18150   3.515  36.949   7.650
 5613POPC   C1B18151   3.651  36.692   8.550
 5613POPC   C2B18152   3.648  36.670   8.250
 5613POPC   C3B18153   3.620  36.640   7.950
 5613POPC   C4B18154   3.611  36.688   7.650
 5614POPC   NC318155  15.930  19.864   9.450
 5614POPC   PO418156  15.997  19.878   9.150
 5614POPC   GL118157  15.951  19.835   8.850
 5614POPC   GL218158  15.875  19.688   8.850
 5614POPC   C1A18159  15.946  19.813   8.550
 5614POPC   D2A18160  15.993  19.857   8.250
 5614POPC   C3A18161  15.926  19.789   7.950
 5614POPC   C4A18162  15.906  19.817   7.650
 5614POPC   C1B18163  15.846  19.599   8.550
 5614POPC   C2B18164  15.859  19.560   8.250
 5614POPC   C3B18165  15.876  19.619   7.950
 5614POPC   C4B18166  15.926  19.572   7.650
 5615POPC   NC318167  20.638  42.298   9.450
 5615POPC   PO418168  20.610  42.295   9.150
 5615POPC   GL118169  20.647  42.377   8.850
 5615POPC   GL218170  20.636  42.255   8.850
 5615POPC   C1A18171  20.568  42.339   8.550
 5615POPC   D2A18172  20.599  42.377   8.250
 5615POPC   C3A18173  20.624  42.346   7.950
 5615POPC   C4A18174  20.599  42.370   7.650
 5615POPC   C1B18175  20.628  42.085   8.550
 5615POPC   C2B18176  20.565  42.072   8.250
 5615POPC   C3B18177  20.589  42.077   7.950
 5615POPC   C4B18178  20.566  42.123   7.650
 5616POPC   NC318179  27.619  24.458   9.450
 5616POPC   PO418180  27.610  24.450   9.150
 5616POPC   GL118181  27.621  24.496   8.850
 5616POPC   GL218182  27.515  24.645   8.850
 5616POPC   C1A18183  27.549  24.514   8.550
 5616POPC   D2A18184  27.557  24.490   8.250
 5616POPC   C3A18185  27.615  24.539   7.950
 5616POPC   C4A18186  27.561  24.510   7.650
 5616POPC   C1B18187  27.523  24.747   8.550
 5616POPC   C2B18188  27.442  24.702   8.250
 5616POPC   C3B18189  27.521  24.711   7.950
 5616POPC   C4B18190  27.516  24.685   7.650
 5617POPC   NC318191   8.950   0.466   9.450
 5617POPC   PO418192   8.947   0.458   9.150
 5617POPC   GL118193   8.942   0.462   8.850
 5617POPC   GL218194   8.917   0.330   8.850
 5617POPC   C1A18195   8.995   0.472   8.550
 5617POPC   D2A18196   8.976   0.460   8.250
 5617POPC   C3A18197   8.940   0.401   7.950
 5617POPC   C4A18198   8.938   0.420   7.650
 5617POPC   C1B18199   8.796   0.267   8.550
 5617POPC   C2B18200   8.807   0.294   8.250
 5617POPC   C3B18201   8.800   0.281   7.950
 5617POPC   C4B18202   8.828   0.279   7.650
 5618POPC   NC318203  19.839  35.327   9.450
 5618POPC   PO418204  19.860  35.374   9.150
 5618POPC   GL118205  19.860  35.401   8.850
 5618POPC   GL218206  19.941  35.245   8.850
 5618POPC   C1A18207  19.822  35.326   8.550
 5618POPC   D2A18208  19.793  35.396   8.250
 5618POPC   C3A18209  19.867  35.383   7.950
 5618POPC   C4A18210  19.838  35.325   7.650
 5618POPC   C1B18211  20.017  35.136   8.550
 5618POPC   C2B18212  19.971  35.203   8.250
 5618POPC   C3B18213  19.994  35.179   7.950
 5618POPC   C4B18214  20.043  35.217   7.650
 5619POPC   NC318215  19.084  20.616   9.450
 5619POPC   PO418216  19.019  20.600   9.150
 5619POPC   GL118217  19.067  20.611   8.850
 5619POPC   GL218218  18.940  20.563   8.850
 5619POPC   C1A18219  19.035  20.658   8.550
 5619POPC   D2A18220  19.050  20.569   8.250
 5619POPC   C3A18221  19.092  20.652   7.950
 5619POPC   C4A18222  19.064  20.572   7.650
 5619POPC   C1B18223  18.867  20.483   8.550
 5619POPC   C2B18224  18.795  20.505   8.250
 5619POPC   C3B18225  18.849  20.511   7.950
 5619POPC   C4B18226  18.870  20.492   7.650
 5620POPC   NC318227  24.456  30.689   9.450
 5620POPC   PO418228  24.492  30.683   9.150
 5620POPC   GL118229  24.536  30.703   8.850
 5620POPC   GL218230  24.469  30.854   8.850
 5620POPC   C1A18231  24.458  30.647   8.550
 5620POPC   D2A18232  24.447  30.674   8.250
 5620POPC   C3A18233  24.494  30.657   7.950
 5620POPC   C4A18234  24.450  30.720   7.650
 5620POPC   C1B18235  24.512  30.945   8.550
 5620POPC   C2B18236  24.486  30.984   8.250
 5620POPC   C3B18237  24.510  30.932   7.950
 5620POPC   C4B18238  24.573  30.909   7.650
 5621POPC   NC318239  40.759  32.978   9.450
 5621POPC   PO418240  40.800  32.998   9.150
 5621POPC   GL118241  40.810  33.044   8.850
 5621POPC   GL218242  40.884  33.040   8.850
 5621POPC   C1A18243  40.747  33.035   8.550
 5621POPC   D2A18244  40.757  33.043   8.250
 5621POPC   C3A18245  40.812  33.055   7.950
 5621POPC   C4A18246  40.754  32.999   7.650
 5621POPC   C1B18247  41.074  33.001   8.550
 5621POPC   C2B18248  40.992  33.044   8.250
 5621POPC   C3B18249  40.994  33.037   7.950
 5621POPC   C4B18250  41.009  33.012   7.650
 5622POPC   NC318251  29.104  31.503   9.450
 5622POPC   PO418252  29.095  31.519   9.150
 5622POPC   GL118253  29.135  31.451   8.850
 5622POPC   GL218254  29.014  31.598   8.850
 5622POPC   C1A18255  29.165  31.499   8.550
 5622POPC   D2A18256  29.106  31.456   8.250
 5622POPC   C3A18257  29.143  31.521   7.950
 5622POPC   C4A18258  29.104  31.477   7.650
 5622POPC   C1B18259  28.969  31.640   8.550
 5622POPC   C2B18260  28.994  31.643   8.250
 5622POPC   C3B18261  28.965  31.624   7.950
 5622POPC   C4B18262  28.934  31.603   7.650
 5623POPC   NC318263  43.079  21.429   9.450
 5623POPC   PO418264  43.096  21.355   9.150
 5623POPC   GL118265  43.137  21.424   8.850
 5623POPC   GL218266  43.263  21.362   8.850
 5623POPC   C1A18267  43.086  21.373   8.550
 5623POPC   D2A18268  43.079  21.432   8.250
 5623POPC   C3A18269  43.071  21.375   7.950
 5623POPC   C4A18270  43.126  21.342   7.650
 5623POPC   C1B18271  43.337  21.284   8.550
 5623POPC   C2B18272  43.338  21.300   8.250
 5623POPC   C3B18273  43.316  21.334   7.950
 5623POPC   C4B18274  43.361  21.330   7.650
 5624POPC   NC318275  29.096  33.028   9.450
 5624POPC   PO418276  29.110  33.023   9.150
 5624POPC   GL118277  29.190  32.988   8.850
 5624POPC   GL218278  29.052  32.968   8.850
 5624POPC   C1A18279  29.186  33.042   8.550
 5624POPC   D2A18280  29.182  32.975   8.250
 5624POPC   C3A18281  29.129  33.061   7.950
 5624POPC   C4A18282  29.184  33.059   7.650
 5624POPC   C1B18283  28.892  32.945   8.550
 5624POPC   C2B18284  28.899  33.020   8.250
 5624POPC   C3B18285  28.926  33.007   7.950
 5624POPC   C4B18286  28.896  32.953   7.650
 5625POPC   NC318287  19.079  43.920   9.450
 5625POPC   PO418288  19.065  43.839   9.150
 5625POPC   GL118289  19.101  43.870   8.850
 5625POPC   GL218290  19.079  43.757   8.850
 5625POPC   C1A18291  19.010  43.932   8.550
 5625POPC   D2A18292  19.062  43.874   8.250
 5625POPC   C3A18293  19.060  43.859   7.950
 5625POPC   C4A18294  19.023  43.908   7.650
 5625POPC   C1B18295  19.121  43.598   8.550
 5625POPC   C2B18296  19.095  43.615   8.250
 5625POPC   C3B18297  19.090  43.691   7.950
 5625POPC   C4B18298  19.073  43.605   7.650
 5626POPC   NC318299  38.494  11.291   9.450
 5626POPC   PO418300  38.444  11.309   9.150
 5626POPC   GL118301  38.444  11.318   8.850
 5626POPC   GL218302  38.597  11.276   8.850
 5626POPC   C1A18303  38.436  11.344   8.550
 5626POPC   D2A18304  38.488  11.278   8.250
 5626POPC   C3A18305  38.464  11.337   7.950
 5626POPC   C4A18306  38.435  11.329   7.650
 5626POPC   C1B18307  38.659  11.264   8.550
 5626POPC   C2B18308  38.699  11.238   8.250
 5626POPC   C3B18309  38.664  11.223   7.950
 5626POPC   C4B18310  38.670  11.260   7.650
 5627POPC   NC318311   4.287  21.383   9.450
 5627POPC   PO418312   4.330  21.395   9.150
 5627POPC   GL118313   4.349  21.356   8.850
 5627POPC   GL218314   4.227  21.321   8.850
 5627POPC   C1A18315   4.304  21.351   8.550
 5627POPC   D2A18316   4.270  21.413   8.250
 5627POPC   C3A18317   4.316  21.408   7.950
 5627POPC   C4A18318   4.274  21.350   7.650
 5627POPC   C1B18319   4.158  21.147   8.550
 5627POPC   C2B18320   4.233  21.134   8.250
 5627POPC   C3B18321   4.169  21.197   7.950
 5627POPC   C4B18322   4.219  21.147   7.650
 5628POPC   NC318323  34.560  42.352   9.450
 5628POPC   PO418324  34.588  42.303   9.150
 5628POPC   GL118325  34.604  42.306   8.850
 5628POPC   GL218326  34.439  42.300   8.850
 5628POPC   C1A18327  34.539  42.299   8.550
 5628POPC   D2A18328  34.597  42.297   8.250
 5628POPC   C3A18329  34.573  42.309   7.950
 5628POPC   C4A18330  34.566  42.319   7.650
 5628POPC   C1B18331  34.341  42.339   8.550
 5628POPC   C2B18332  34.365  42.247   8.250
 5628POPC   C3B18333  34.332  42.263   7.950
 5628POPC   C4B18334  34.375  42.250   7.650
 5629POPC   NC318335  16.005  20.621   9.450
 5629POPC   PO418336  15.915  20.658   9.150
 5629POPC   GL118337  15.973  20.656   8.850
 5629POPC   GL218338  15.944  20.781   8.850
 5629POPC   C1A18339  15.921  20.590   8.550
 5629POPC   D2A18340  15.915  20.595   8.250
 5629POPC   C3A18341  15.981  20.585   7.950
 5629POPC   C4A18342  15.962  20.620   7.650
 5629POPC   C1B18343  16.002  20.836   8.550
 5629POPC   C2B18344  15.932  20.855   8.250
 5629POPC   C3B18345  15.946  20.838   7.950
 5629POPC   C4B18346  15.922  20.891   7.650
 5630POPC   NC318347   5.841  32.241   9.450
 5630POPC   PO418348   5.853  32.214   9.150
 5630POPC   GL118349   5.839  32.287   8.850
 5630POPC   GL218350   5.756  32.152   8.850
 5630POPC   C1A18351   5.819  32.236   8.550
 5630POPC   D2A18352   5.876  32.257   8.250
 5630POPC   C3A18353   5.850  32.257   7.950
 5630POPC   C4A18354   5.827  32.223   7.650
 5630POPC   C1B18355   5.680  32.018   8.550
 5630POPC   C2B18356   5.728  32.042   8.250
 5630POPC   C3B18357   5.757  32.003   7.950
 5630POPC   C4B18358   5.719  32.051   7.650
 5631POPC   NC318359  36.917   8.945   9.450
 5631POPC   PO418360  36.909   8.977   9.150
 5631POPC   GL118361  36.870   8.944   8.850
 5631POPC   GL218362  36.872   8.849   8.850
 5631POPC   C1A18363  36.905   8.955   8.550
 5631POPC   D2A18364  36.874   8.961   8.250
 5631POPC   C3A18365  36.895   8.980   7.950
 5631POPC   C4A18366  36.942   9.019   7.650
 5631POPC   C1B18367  36.859   8.688   8.550
 5631POPC   C2B18368  36.862   8.768   8.250
 5631POPC   C3B18369  36.848   8.717   7.950
 5631POPC   C4B18370  36.874   8.754   7.650
 5632POPC   NC318371  30.666   5.056   9.450
 5632POPC   PO418372  30.667   5.057   9.150
 5632POPC   GL118373  30.719   5.073   8.850
 5632POPC   GL218374  30.698   5.193   8.850
 5632POPC   C1A18375  30.719   5.137   8.550
 5632POPC   D2A18376  30.717   5.097   8.250
 5632POPC   C3A18377  30.692   5.093   7.950
 5632POPC   C4A18378  30.669   5.098   7.650
 5632POPC   C1B18379  30.761   5.326   8.550
 5632POPC   C2B18380  30.696   5.348   8.250
 5632POPC   C3B18381  30.726   5.371   7.950
 5632POPC   C4B18382  30.757   5.392   7.650
 5633POPC   NC318383  14.390   5.056   9.450
 5633POPC   PO418384  14.446   5.059   9.150
 5633POPC   GL118385  14.355   5.046   8.850
 5633POPC   GL218386  14.403   5.000   8.850
 5633POPC   C1A18387  14.379   5.069   8.550
 5633POPC   D2A18388  14.431   5.069   8.250
 5633POPC   C3A18389  14.373   5.080   7.950
 5633POPC   C4A18390  14.426   5.056   7.650
 5633POPC   C1B18391  14.512   4.814   8.550
 5633POPC   C2B18392  14.512   4.859   8.250
 5633POPC   C3B18393  14.465   4.863   7.950
 5633POPC   C4B18394  14.513   4.868   7.650
 5634POPC   NC318395  19.858   2.742   9.450
 5634POPC   PO418396  19.820   2.749   9.150
 5634POPC   GL118397  19.797   2.794   8.850
 5634POPC   GL218398  19.937   2.783   8.850
 5634POPC   C1A18399  19.839   2.749   8.550
 5634POPC   D2A18400  19.858   2.805   8.250
 5634POPC   C3A18401  19.800   2.723   7.950
 5634POPC   C4A18402  19.807   2.784   7.650
 5634POPC   C1B18403  20.058   2.727   8.550
 5634POPC   C2B18404  20.072   2.778   8.250
 5634POPC   C3B18405  20.130   2.731   7.950
 5634POPC   C4B18406  20.092   2.706   7.650
 5635POPC   NC318407  42.331  41.592   9.450
 5635POPC   PO418408  42.326  41.600   9.150
 5635POPC   GL118409  42.318  41.558   8.850
 5635POPC   GL218410  42.221  41.489   8.850
 5635POPC   C1A18411  42.346  41.525   8.550
 5635POPC   D2A18412  42.287  41.559   8.250
 5635POPC   C3A18413  42.317  41.580   7.950
 5635POPC   C4A18414  42.354  41.561   7.650
 5635POPC   C1B18415  42.120  41.516   8.550
 5635POPC   C2B18416  42.126  41.520   8.250
 5635POPC   C3B18417  42.139  41.490   7.950
 5635POPC   C4B18418  42.111  41.442   7.650
 5636POPC   NC318419  19.871  33.058   9.450
 5636POPC   PO418420  19.874  33.039   9.150
 5636POPC   GL118421  19.877  33.037   8.850
 5636POPC   GL218422  19.944  33.056   8.850
 5636POPC   C1A18423  19.788  32.986   8.550
 5636POPC   D2A18424  19.882  33.018   8.250
 5636POPC   C3A18425  19.786  32.980   7.950
 5636POPC   C4A18426  19.850  33.030   7.650
 5636POPC   C1B18427  20.062  33.008   8.550
 5636POPC   C2B18428  20.056  33.037   8.250
 5636POPC   C3B18429  20.071  33.043   7.950
 5636POPC   C4B18430  20.084  33.024   7.650
 5637POPC   NC318431   6.680   5.820   9.450
 5637POPC   PO418432   6.644   5.909   9.150
 5637POPC   GL118433   6.631   5.855   8.850
 5637POPC   GL218434   6.514   5.927   8.850
 5637POPC   C1A18435   6.607   5.883   8.550
 5637POPC   D2A18436   6.654   5.893   8.250
 5637POPC   C3A18437   6.683   5.855   7.950
 5637POPC   C4A18438   6.652   5.822   7.650
 5637POPC   C1B18439   6.435   5.960   8.550
 5637POPC   C2B18440   6.392   5.905   8.250
 5637POPC   C3B18441   6.407   5.912   7.950
 5637POPC   C4B18442   6.351   5.907   7.650
 5638POPC   NC318443   3.535  26.824   9.450
 5638POPC   PO418444   3.580  26.775   9.150
 5638POPC   GL118445   3.530  26.800   8.850
 5638POPC   GL218446   3.499  26.671   8.850
 5638POPC   C1A18447   3.567  26.788   8.550
 5638POPC   D2A18448   3.528  26.782   8.250
 5638POPC   C3A18449   3.588  26.859   7.950
 5638POPC   C4A18450   3.588  26.780   7.650
 5638POPC   C1B18451   3.436  26.559   8.550
 5638POPC   C2B18452   3.470  26.553   8.250
 5638POPC   C3B18453   3.453  26.565   7.950
 5638POPC   C4B18454   3.384  26.578   7.650
 5639POPC   NC318455  10.497  42.334   9.450
 5639POPC   PO418456  10.538  42.310   9.150
 5639POPC   GL118457  10.517  42.340   8.850
 5639POPC   GL218458  10.593  42.263   8.850
 5639POPC   C1A18459  10.567  42.380   8.550
 5639POPC   D2A18460  10.495  42.336   8.250
 5639POPC   C3A18461  10.542  42.377   7.950
 5639POPC   C4A18462  10.541  42.311   7.650
 5639POPC   C1B18463  10.693  42.213   8.550
 5639POPC   C2B18464  10.696  42.225   8.250
 5639POPC   C3B18465  10.760  42.241   7.950
 5639POPC   C4B18466  10.706  42.218   7.650
 5640POPC   NC318467  43.100  17.512   9.450
 5640POPC   PO418468  43.114  17.506   9.150
 5640POPC   GL118469  43.075  17.519   8.850
 5640POPC   GL218470  43.268  17.529   8.850
 5640POPC   C1A18471  43.088  17.547   8.550
 5640POPC   D2A18472  43.124  17.497   8.250
 5640POPC   C3A18473  43.076  17.535   7.950
 5640POPC   C4A18474  43.098  17.554   7.650
 5640POPC   C1B18475  43.319  17.550   8.550
 5640POPC   C2B18476  43.370  17.545   8.250
 5640POPC   C3B18477  43.352  17.576   7.950
 5640POPC   C4B18478  43.342  17.547   7.650
 5641POPC   NC318479  33.025  42.342   9.450
 5641POPC   PO418480  33.070  42.382   9.150
 5641POPC   GL118481  33.072  42.345   8.850
 5641POPC   GL218482  33.006  42.205   8.850
 5641POPC   C1A18483  33.002  42.341   8.550
 5641POPC   D2A18484  33.027  42.366   8.250
 5641POPC   C3A18485  32.985  42.338   7.950
 5641POPC   C4A18486  32.975  42.314   7.650
 5641POPC   C1B18487  33.053  42.048   8.550
 5641POPC   C2B18488  32.992  42.093   8.250
 5641POPC   C3B18489  33.040  42.116   7.950
 5641POPC   C4B18490  33.051  42.072   7.650
 5642POPC   NC318491   1.203  20.594   9.450
 5642POPC   PO418492   1.219  20.641   9.150
 5642POPC   GL118493   1.202  20.646   8.850
 5642POPC   GL218494   1.102  20.484   8.850
 5642POPC   C1A18495   1.176  20.629   8.550
 5642POPC   D2A18496   1.182  20.573   8.250
 5642POPC   C3A18497   1.225  20.585   7.950
 5642POPC   C4A18498   1.233  20.658   7.650
 5642POPC   C1B18499   1.010  20.442   8.550
 5642POPC   C2B18500   0.987  20.419   8.250
 5642POPC   C3B18501   1.071  20.401   7.950
 5642POPC   C4B18502   1.060  20.445   7.650
 5643POPC   NC318503  26.044  32.215   9.450
 5643POPC   PO418504  26.059  32.247   9.150
 5643POPC   GL118505  26.022  32.200   8.850
 5643POPC   GL218506  26.183  32.338   8.850
 5643POPC   C1A18507  26.028  32.217   8.550
 5643POPC   D2A18508  25.994  32.277   8.250
 5643POPC   C3A18509  26.072  32.283   7.950
 5643POPC   C4A18510  26.067  32.282   7.650
 5643POPC   C1B18511  26.252  32.367   8.550
 5643POPC   C2B18512  26.221  32.333   8.250
 5643POPC   C3B18513  26.251  32.346   7.950
 5643POPC   C4B18514  26.274  32.407   7.650
 5644POPC   NC318515   5.140   9.796   9.450
 5644POPC   PO418516   5.132   9.784   9.150
 5644POPC   GL118517   5.119   9.764   8.850
 5644POPC   GL218518   4.995   9.708   8.850
 5644POPC   C1A18519   5.085   9.779   8.550
 5644POPC   D2A18520   5.096   9.762   8.250
 5644POPC   C3A18521   5.113   9.769   7.950
 5644POPC   C4A18522   5.096   9.747   7.650
 5644POPC   C1B18523   4.836   9.629   8.550
 5644POPC   C2B18524   4.903   9.617   8.250
 5644POPC   C3B18525   4.910   9.634   7.950
 5644POPC   C4B18526   4.854   9.647   7.650
 5645POPC   NC318527   8.979   2.769   9.450
 5645POPC   PO418528   8.937   2.764   9.150
 5645POPC   GL118529   8.931   2.740   8.850
 5645POPC   GL218530   8.843   2.806   8.850
 5645POPC   C1A18531   8.997   2.803   8.550
 5645POPC   D2A18532   8.965   2.728   8.250
 5645POPC   C3A18533   8.992   2.722   7.950
 5645POPC   C4A18534   8.955   2.726   7.650
 5645POPC   C1B18535   8.675   2.738   8.550
 5645POPC   C2B18536   8.687   2.761   8.250
 5645POPC   C3B18537   8.709   2.785   7.950
 5645POPC   C4B18538   8.721   2.782   7.650
 5646POPC   NC318539   4.365  26.859   9.450
 5646POPC   PO418540   4.321  26.804   9.150
 5646POPC   GL118541   4.345  26.789   8.850
 5646POPC   GL218542   4.294  26.733   8.850
 5646POPC   C1A18543   4.341  26.781   8.550
 5646POPC   D2A18544   4.364  26.826   8.250
 5646POPC   C3A18545   4.343  26.862   7.950
 5646POPC   C4A18546   4.362  26.771   7.650
 5646POPC   C1B18547   4.205  26.625   8.550
 5646POPC   C2B18548   4.198  26.558   8.250
 5646POPC   C3B18549   4.150  26.614   7.950
 5646POPC   C4B18550   4.231  26.633   7.650
 5647POPC   NC318551  26.801   1.252   9.450
 5647POPC   PO418552  26.837   1.195   9.150
 5647POPC   GL118553  26.775   1.197   8.850
 5647POPC   GL218554  26.719   1.098   8.850
 5647POPC   C1A18555  26.846   1.165   8.550
 5647POPC   D2A18556  26.802   1.253   8.250
 5647POPC   C3A18557  26.826   1.178   7.950
 5647POPC   C4A18558  26.839   1.239   7.650
 5647POPC   C1B18559  26.700   0.948   8.550
 5647POPC   C2B18560  26.721   1.010   8.250
 5647POPC   C3B18561  26.704   1.000   7.950
 5647POPC   C4B18562  26.697   0.938   7.650
 5648POPC   NC318563   9.797  22.130   9.450
 5648POPC   PO418564   9.758  22.112   9.150
 5648POPC   GL118565   9.772  22.210   8.850
 5648POPC   GL218566   9.869  22.105   8.850
 5648POPC   C1A18567   9.765  22.189   8.550
 5648POPC   D2A18568   9.796  22.130   8.250
 5648POPC   C3A18569   9.770  22.140   7.950
 5648POPC   C4A18570   9.764  22.181   7.650
 5648POPC   C1B18571   9.943  21.989   8.550
 5648POPC   C2B18572   9.974  21.970   8.250
 5648POPC   C3B18573   9.900  22.044   7.950
 5648POPC   C4B18574   9.967  21.974   7.650
 5649POPC   NC318575   8.155  34.588   9.450
 5649POPC   PO418576   8.224  34.536   9.150
 5649POPC   GL118577   8.148  34.531   8.850
 5649POPC   GL218578   8.269  34.640   8.850
 5649POPC   C1A18579   8.159  34.559   8.550
 5649POPC   D2A18580   8.157  34.582   8.250
 5649POPC   C3A18581   8.237  34.618   7.950
 5649POPC   C4A18582   8.152  34.605   7.650
 5649POPC   C1B18583   8.378  34.736   8.550
 5649POPC   C2B18584   8.418  34.665   8.250
 5649POPC   C3B18585   8.449  34.669   7.950
 5649POPC   C4B18586   8.398  34.667   7.650
 5650POPC   NC318587  44.624  32.988   9.450
 5650POPC   PO418588  44.692  33.072   9.150
 5650POPC   GL118589  44.677  33.033   8.850
 5650POPC   GL218590  44.810  33.097   8.850
 5650POPC   C1A18591  44.663  33.042   8.550
 5650POPC   D2A18592  44.696  33.006   8.250
 5650POPC   C3A18593  44.690  33.023   7.950
 5650POPC   C4A18594  44.669  32.990   7.650
 5650POPC   C1B18595  44.943  33.059   8.550
 5650POPC   C2B18596  44.876  33.128   8.250
 5650POPC   C3B18597  44.857  33.047   7.950
 5650POPC   C4B18598  44.937  33.122   7.650
 5651POPC   NC318599  21.417   5.907   9.450
 5651POPC   PO418600  21.336   5.826   9.150
 5651POPC   GL118601  21.343   5.876   8.850
 5651POPC   GL218602  21.484   5.854   8.850
 5651POPC   C1A18603  21.356   5.868   8.550
 5651POPC   D2A18604  21.345   5.905   8.250
 5651POPC   C3A18605  21.397   5.909   7.950
 5651POPC   C4A18606  21.374   5.841   7.650
 5651POPC   C1B18607  21.638   5.898   8.550
 5651POPC   C2B18608  21.677   5.879   8.250
 5651POPC   C3B18609  21.655   5.872   7.950
 5651POPC   C4B18610  21.622   5.838   7.650
 5652POPC   NC318611  26.792   5.885   9.450
 5652POPC   PO418612  26.781   5.861   9.150
 5652POPC   GL118613  26.840   5.845   8.850
 5652POPC   GL218614  26.810   5.995   8.850
 5652POPC   C1A18615  26.863   5.852   8.550
 5652POPC   D2A18616  26.787   5.883   8.250
 5652POPC   C3A18617  26.820   5.884   7.950
 5652POPC   C4A18618  26.862   5.848   7.650
 5652POPC   C1B18619  26.865   6.153   8.550
 5652POPC   C2B18620  26.888   6.076   8.250
 5652POPC   C3B18621  26.903   6.093   7.950
 5652POPC   C4B18622  26.893   6.150   7.650
 5653POPC   NC318623  18.262  12.078   9.450
 5653POPC   PO418624  18.320  12.090   9.150
 5653POPC   GL118625  18.278  12.042   8.850
 5653POPC   GL218626  18.265  11.940   8.850
 5653POPC   C1A18627  18.324  12.057   8.550
 5653POPC   D2A18628  18.243  12.106   8.250
 5653POPC   C3A18629  18.245  12.122   7.950
 5653POPC   C4A18630  18.250  12.074   7.650
 5653POPC   C1B18631  18.243  11.859   8.550
 5653POPC   C2B18632  18.221  11.853   8.250
 5653POPC   C3B18633  18.243  11.855   7.950
 5653POPC   C4B18634  18.206  11.819   7.650
 5654POPC   NC318635   6.601  22.907   9.450
 5654POPC   PO418636   6.693  22.933   9.150
 5654POPC   GL118637   6.674  22.932   8.850
 5654POPC   GL218638   6.587  23.038   8.850
 5654POPC   C1A18639   6.689  22.975   8.550
 5654POPC   D2A18640   6.664  22.984   8.250
 5654POPC   C3A18641   6.636  22.913   7.950
 5654POPC   C4A18642   6.654  22.916   7.650
 5654POPC   C1B18643   6.491  23.066   8.550
 5654POPC   C2B18644   6.487  23.058   8.250
 5654POPC   C3B18645   6.474  23.052   7.950
 5654POPC   C4B18646   6.458  23.060   7.650
 5655POPC   NC318647  27.574  42.320   9.450
 5655POPC   PO418648  27.559  42.306   9.150
 5655POPC   GL118649  27.585  42.369   8.850
 5655POPC   GL218650  27.625  42.249   8.850
 5655POPC   C1A18651  27.590  42.319   8.550
 5655POPC   D2A18652  27.601  42.379   8.250
 5655POPC   C3A18653  27.574  42.297   7.950
 5655POPC   C4A18654  27.574  42.302   7.650
 5655POPC   C1B18655  27.652  42.061   8.550
 5655POPC   C2B18656  27.642  42.119   8.250
 5655POPC   C3B18657  27.645  42.130   7.950
 5655POPC   C4B18658  27.622  42.054   7.650
 5656POPC   NC318659  43.079   8.985   9.450
 5656POPC   PO418660  43.159   8.943   9.150
 5656POPC   GL118661  43.128   9.000   8.850
 5656POPC   GL218662  43.068   9.126   8.850
 5656POPC   C1A18663  43.092   8.959   8.550
 5656POPC   D2A18664  43.098   8.943   8.250
 5656POPC   C3A18665  43.072   8.993   7.950
 5656POPC   C4A18666  43.133   8.969   7.650
 5656POPC   C1B18667  43.007   9.190   8.550
 5656POPC   C2B18668  42.986   9.182   8.250
 5656POPC   C3B18669  42.990   9.240   7.950
 5656POPC   C4B18670  42.968   9.165   7.650
 5657POPC   NC318671  10.520  12.106   9.450
 5657POPC   PO418672  10.533  12.118   9.150
 5657POPC   GL118673  10.564  12.054   8.850
 5657POPC   GL218674  10.630  12.132   8.850
 5657POPC   C1A18675  10.523  12.099   8.550
 5657POPC   D2A18676  10.524  12.035   8.250
 5657POPC   C3A18677  10.525  12.118   7.950
 5657POPC   C4A18678  10.560  12.053   7.650
 5657POPC   C1B18679  10.670  12.244   8.550
 5657POPC   C2B18680  10.676  12.212   8.250
 5657POPC   C3B18681  10.682  12.198   7.950
 5657POPC   C4B18682  10.718  12.260   7.650
 5658POPC   NC318683   0.477  16.698   9.450
 5658POPC   PO418684   0.425  16.743   9.150
 5658POPC   GL118685   0.416  16.718   8.850
 5658POPC   GL218686   0.331  16.803   8.850
 5658POPC   C1A18687   0.423  16.780   8.550
 5658POPC   D2A18688   0.427  16.686   8.250
 5658POPC   C3A18689   0.401  16.719   7.950
 5658POPC   C4A18690   0.473  16.719   7.650
 5658POPC   C1B18691   0.271  16.904   8.550
 5658POPC   C2B18692   0.329  16.912   8.250
 5658POPC   C3B18693   0.321  16.919   7.950
 5658POPC   C4B18694   0.371  16.993   7.650
 5659POPC   NC318695  29.966   5.080   9.450
 5659POPC   PO418696  29.902   5.094   9.150
 5659POPC   GL118697  29.956   5.070   8.850
 5659POPC   GL218698  29.852   5.201   8.850
 5659POPC   C1A18699  29.940   5.047   8.550
 5659POPC   D2A18700  29.911   5.135   8.250
 5659POPC   C3A18701  29.924   5.052   7.950
 5659POPC   C4A18702  29.895   5.058   7.650
 5659POPC   C1B18703  29.696   5.199   8.550
 5659POPC   C2B18704  29.699   5.172   8.250
 5659POPC   C3B18705  29.748   5.255   7.950
 5659POPC   C4B18706  29.748   5.173   7.650
 5660POPC   NC318707   2.720  23.668   9.450
 5660POPC   PO418708   2.770  23.687   9.150
 5660POPC   GL118709   2.748  23.713   8.850
 5660POPC   GL218710   2.660  23.680   8.850
 5660POPC   C1A18711   2.749  23.761   8.550
 5660POPC   D2A18712   2.790  23.749   8.250
 5660POPC   C3A18713   2.789  23.711   7.950
 5660POPC   C4A18714   2.803  23.703   7.650
 5660POPC   C1B18715   2.558  23.651   8.550
 5660POPC   C2B18716   2.517  23.640   8.250
 5660POPC   C3B18717   2.550  23.646   7.950
 5660POPC   C4B18718   2.528  23.664   7.650
 5661POPC   NC318719   4.286  33.023   9.450
 5661POPC   PO418720   4.315  33.007   9.150
 5661POPC   GL118721   4.361  33.062   8.850
 5661POPC   GL218722   4.370  32.968   8.850
 5661POPC   C1A18723   4.352  32.982   8.550
 5661POPC   D2A18724   4.277  33.070   8.250
 5661POPC   C3A18725   4.277  33.067   7.950
 5661POPC   C4A18726   4.298  32.986   7.650
 5661POPC   C1B18727   4.555  32.847   8.550
 5661POPC   C2B18728   4.507  32.898   8.250
 5661POPC   C3B18729   4.531  32.883   7.950
 5661POPC   C4B18730   4.567  32.836   7.650
 5662POPC   NC318731   3.554  12.868   9.450
 5662POPC   PO418732   3.528  12.864   9.150
 5662POPC   GL118733   3.495  12.882   8.850
 5662POPC   GL218734   3.473  12.713   8.850
 5662POPC   C1A18735   3.510  12.807   8.550
 5662POPC   D2A18736   3.555  12.853   8.250
 5662POPC   C3A18737   3.509  12.855   7.950
 5662POPC   C4A18738   3.571  12.848   7.650
 5662POPC   C1B18739   3.470  12.618   8.550
 5662POPC   C2B18740   3.504  12.567   8.250
 5662POPC   C3B18741   3.468  12.596   7.950
 5662POPC   C4B18742   3.413  12.625   7.650
 5663POPC   NC318743   0.416  15.971   9.450
 5663POPC   PO418744   0.397  15.942   9.150
 5663POPC   GL118745   0.443  15.970   8.850
 5663POPC   GL218746   0.356  15.813   8.850
 5663POPC   C1A18747   0.486  15.917   8.550
 5663POPC   D2A18748   0.399  15.955   8.250
 5663POPC   C3A18749   0.401  15.948   7.950
 5663POPC   C4A18750   0.487  15.955   7.650
 5663POPC   C1B18751   0.368  15.720   8.550
 5663POPC   C2B18752   0.279  15.738   8.250
 5663POPC   C3B18753   0.291  15.768   7.950
 5663POPC   C4B18754   0.304  15.749   7.650
 5664POPC   NC318755  22.122  10.547   9.450
 5664POPC   PO418756  22.138  10.549   9.150
 5664POPC   GL118757  22.150  10.553   8.850
 5664POPC   GL218758  22.122  10.654   8.850
 5664POPC   C1A18759  22.184  10.480   8.550
 5664POPC   D2A18760  22.165  10.574   8.250
 5664POPC   C3A18761  22.128  10.568   7.950
 5664POPC   C4A18762  22.208  10.532   7.650
 5664POPC   C1B18763  22.066  10.766   8.550
 5664POPC   C2B18764  22.032  10.723   8.250
 5664POPC   C3B18765  22.027  10.793   7.950
 5664POPC   C4B18766  22.094  10.737   7.650
 5665POPC   NC318767  41.575   6.658   9.450
 5665POPC   PO418768  41.522   6.652   9.150
 5665POPC   GL118769  41.604   6.650   8.850
 5665POPC   GL218770  41.642   6.740   8.850
 5665POPC   C1A18771  41.528   6.608   8.550
 5665POPC   D2A18772  41.607   6.662   8.250
 5665POPC   C3A18773  41.581   6.596   7.950
 5665POPC   C4A18774  41.575   6.621   7.650
 5665POPC   C1B18775  41.728   6.842   8.550
 5665POPC   C2B18776  41.685   6.840   8.250
 5665POPC   C3B18777  41.653   6.863   7.950
 5665POPC   C4B18778  41.655   6.898   7.650
 5666POPC   NC318779  32.992  15.921   9.450
 5666POPC   PO418780  33.021  15.921   9.150
 5666POPC   GL118781  32.999  15.916   8.850
 5666POPC   GL218782  32.903  15.847   8.850
 5666POPC   C1A18783  33.035  15.986   8.550
 5666POPC   D2A18784  32.983  15.984   8.250
 5666POPC   C3A18785  33.058  15.996   7.950
 5666POPC   C4A18786  33.010  15.919   7.650
 5666POPC   C1B18787  32.809  15.810   8.550
 5666POPC   C2B18788  32.802  15.841   8.250
 5666POPC   C3B18789  32.783  15.791   7.950
 5666POPC   C4B18790  32.798  15.819   7.650
 5667POPC   NC318791  29.954  36.911   9.450
 5667POPC   PO418792  29.900  36.910   9.150
 5667POPC   GL118793  29.970  36.872   8.850
 5667POPC   GL218794  29.876  36.996   8.850
 5667POPC   C1A18795  29.876  36.909   8.550
 5667POPC   D2A18796  29.947  36.886   8.250
 5667POPC   C3A18797  29.920  36.951   7.950
 5667POPC   C4A18798  29.902  36.896   7.650
 5667POPC   C1B18799  29.853  37.192   8.550
 5667POPC   C2B18800  29.894  37.192   8.250
 5667POPC   C3B18801  29.842  37.130   7.950
 5667POPC   C4B18802  29.837  37.180   7.650
 5668POPC   NC318803  39.188  38.431   9.450
 5668POPC   PO418804  39.260  38.439   9.150
 5668POPC   GL118805  39.199  38.414   8.850
 5668POPC   GL218806  39.138  38.334   8.850
 5668POPC   C1A18807  39.264  38.485   8.550
 5668POPC   D2A18808  39.232  38.418   8.250
 5668POPC   C3A18809  39.277  38.452   7.950
 5668POPC   C4A18810  39.241  38.478   7.650
 5668POPC   C1B18811  39.061  38.274   8.550
 5668POPC   C2B18812  39.050  38.346   8.250
 5668POPC   C3B18813  39.026  38.333   7.950
 5668POPC   C4B18814  39.044  38.290   7.650
 5669POPC   NC318815  23.667  30.694   9.450
 5669POPC   PO418816  23.758  30.693   9.150
 5669POPC   GL118817  23.684  30.728   8.850
 5669POPC   GL218818  23.825  30.592   8.850
 5669POPC   C1A18819  23.699  30.740   8.550
 5669POPC   D2A18820  23.722  30.671   8.250
 5669POPC   C3A18821  23.668  30.697   7.950
 5669POPC   C4A18822  23.761  30.705   7.650
 5669POPC   C1B18823  23.876  30.461   8.550
 5669POPC   C2B18824  23.821  30.447   8.250
 5669POPC   C3B18825  23.887  30.512   7.950
 5669POPC   C4B18826  23.843  30.488   7.650
 5670POPC   NC318827  21.361  43.840   9.450
 5670POPC   PO418828  21.355  43.914   9.150
 5670POPC   GL118829  21.367  43.874   8.850
 5670POPC   GL218830  21.267  44.035   8.850
 5670POPC   C1A18831  21.426  43.862   8.550
 5670POPC   D2A18832  21.410  43.898   8.250
 5670POPC   C3A18833  21.434  43.902   7.950
 5670POPC   C4A18834  21.351  43.871   7.650
 5670POPC   C1B18835  21.211  44.067   8.550
 5670POPC   C2B18836  21.290  44.042   8.250
 5670POPC   C3B18837  21.233  44.107   7.950
 5670POPC   C4B18838  21.205  44.113   7.650
 5671POPC   NC318839   4.275  26.045   9.450
 5671POPC   PO418840   4.294  26.083   9.150
 5671POPC   GL118841   4.348  26.032   8.850
 5671POPC   GL218842   4.261  26.021   8.850
 5671POPC   C1A18843   4.291  26.056   8.550
 5671POPC   D2A18844   4.347  26.088   8.250
 5671POPC   C3A18845   4.271  26.000   7.950
 5671POPC   C4A18846   4.295  26.061   7.650
 5671POPC   C1B18847   4.112  25.913   8.550
 5671POPC   C2B18848   4.151  25.886   8.250
 5671POPC   C3B18849   4.124  25.945   7.950
 5671POPC   C4B18850   4.102  25.879   7.650
 5672POPC   NC318851  38.467  27.587   9.450
 5672POPC   PO418852  38.491  27.627   9.150
 5672POPC   GL118853  38.457  27.616   8.850
 5672POPC   GL218854  38.329  27.679   8.850
 5672POPC   C1A18855  38.468  27.569   8.550
 5672POPC   D2A18856  38.500  27.576   8.250
 5672POPC   C3A18857  38.486  27.573   7.950
 5672POPC   C4A18858  38.494  27.639   7.650
 5672POPC   C1B18859  38.229  27.720   8.550
 5672POPC   C2B18860  38.286  27.798   8.250
 5672POPC   C3B18861  38.241  27.786   7.950
 5672POPC   C4B18862  38.228  27.780   7.650
 5673POPC   NC318863  16.763  20.572   9.450
 5673POPC   PO418864  16.701  20.657   9.150
 5673POPC   GL118865  16.685  20.600   8.850
 5673POPC   GL218866  16.875  20.593   8.850
 5673POPC   C1A18867  16.731  20.643   8.550
 5673POPC   D2A18868  16.700  20.588   8.250
 5673POPC   C3A18869  16.772  20.636   7.950
 5673POPC   C4A18870  16.698  20.594   7.650
 5673POPC   C1B18871  17.027  20.638   8.550
 5673POPC   C2B18872  16.961  20.642   8.250
 5673POPC   C3B18873  16.941  20.596   7.950
 5673POPC   C4B18874  16.952  20.661   7.650
 5674POPC   NC318875  19.020  13.590   9.450
 5674POPC   PO418876  19.093  13.591   9.150
 5674POPC   GL118877  19.100  13.649   8.850
 5674POPC   GL218878  18.950  13.573   8.850
 5674POPC   C1A18879  19.014  13.609   8.550
 5674POPC   D2A18880  19.014  13.601   8.250
 5674POPC   C3A18881  19.070  13.627   7.950
 5674POPC   C4A18882  19.098  13.629   7.650
 5674POPC   C1B18883  18.871  13.399   8.550
 5674POPC   C2B18884  18.938  13.475   8.250
 5674POPC   C3B18885  18.909  13.449   7.950
 5674POPC   C4B18886  18.916  13.482   7.650
 5675POPC   NC318887  35.314  29.145   9.450
 5675POPC   PO418888  35.354  29.164   9.150
 5675POPC   GL118889  35.327  29.174   8.850
 5675POPC   GL218890  35.266  29.239   8.850
 5675POPC   C1A18891  35.332  29.118   8.550
 5675POPC   D2A18892  35.364  29.167   8.250
 5675POPC   C3A18893  35.353  29.161   7.950
 5675POPC   C4A18894  35.342  29.149   7.650
 5675POPC   C1B18895  35.208  29.294   8.550
 5675POPC   C2B18896  35.216  29.373   8.250
 5675POPC   C3B18897  35.155  29.367   7.950
 5675POPC   C4B18898  35.170  29.317   7.650
 5676POPC   NC318899  20.646  37.681   9.450
 5676POPC   PO418900  20.631  37.715   9.150
 5676POPC   GL118901  20.638  37.701   8.850
 5676POPC   GL218902  20.684  37.754   8.850
 5676POPC   C1A18903  20.628  37.649   8.550
 5676POPC   D2A18904  20.612  37.650   8.250
 5676POPC   C3A18905  20.627  37.705   7.950
 5676POPC   C4A18906  20.586  37.705   7.650
 5676POPC   C1B18907  20.686  37.865   8.550
 5676POPC   C2B18908  20.707  37.860   8.250
 5676POPC   C3B18909  20.692  37.934   7.950
 5676POPC   C4B18910  20.708  37.867   7.650
 5677POPC   NC318911  33.038  30.710   9.450
 5677POPC   PO418912  33.025  30.737   9.150
 5677POPC   GL118913  33.012  30.729   8.850
 5677POPC   GL218914  33.158  30.731   8.850
 5677POPC   C1A18915  33.009  30.726   8.550
 5677POPC   D2A18916  33.068  30.700   8.250
 5677POPC   C3A18917  33.039  30.733   7.950
 5677POPC   C4A18918  33.052  30.671   7.650
 5677POPC   C1B18919  33.221  30.823   8.550
 5677POPC   C2B18920  33.264  30.791   8.250
 5677POPC   C3B18921  33.246  30.820   7.950
 5677POPC   C4B18922  33.203  30.860   7.650
 5678POPC   NC318923  29.951   8.202   9.450
 5678POPC   PO418924  29.926   8.206   9.150
 5678POPC   GL118925  29.875   8.231   8.850
 5678POPC   GL218926  30.046   8.113   8.850
 5678POPC   C1A18927  29.886   8.176   8.550
 5678POPC   D2A18928  29.935   8.162   8.250
 5678POPC   C3A18929  29.961   8.167   7.950
 5678POPC   C4A18930  29.946   8.152   7.650
 5678POPC   C1B18931  30.151   8.101   8.550
 5678POPC   C2B18932  30.143   8.021   8.250
 5678POPC   C3B18933  30.111   8.021   7.950
 5678POPC   C4B18934  30.116   8.055   7.650
 5679POPC   NC318935  35.318   7.415   9.450
 5679POPC   PO418936  35.313   7.390   9.150
 5679POPC   GL118937  35.344   7.394   8.850
 5679POPC   GL218938  35.460   7.396   8.850
 5679POPC   C1A18939  35.359   7.398   8.550
 5679POPC   D2A18940  35.353   7.372   8.250
 5679POPC   C3A18941  35.321   7.429   7.950
 5679POPC   C4A18942  35.345   7.463   7.650
 5679POPC   C1B18943  35.635   7.333   8.550
 5679POPC   C2B18944  35.626   7.377   8.250
 5679POPC   C3B18945  35.588   7.340   7.950
 5679POPC   C4B18946  35.556   7.369   7.650
 5680POPC   NC318947  29.947  31.456   9.450
 5680POPC   PO418948  29.924  31.452   9.150
 5680POPC   GL118949  29.946  31.431   8.850
 5680POPC   GL218950  30.029  31.480   8.850
 5680POPC   C1A18951  29.907  31.480   8.550
 5680POPC   D2A18952  29.955  31.489   8.250
 5680POPC   C3A18953  29.928  31.493   7.950
 5680POPC   C4A18954  29.908  31.480   7.650
 5680POPC   C1B18955  30.155  31.493   8.550
 5680POPC   C2B18956  30.156  31.511   8.250
 5680POPC   C3B18957  30.146  31.548   7.950
 5680POPC   C4B18958  30.173  31.521   7.650
 5681POPC   NC318959  14.383  18.257   9.450
 5681POPC   PO418960  14.419  18.285   9.150
 5681POPC   GL118961  14.408  18.284   8.850
 5681POPC   GL218962  14.305  18.250   8.850
 5681POPC   C1A18963  14.363  18.327   8.550
 5681POPC   D2A18964  14.378  18.263   8.250
 5681POPC   C3A18965  14.400  18.332   7.950
 5681POPC   C4A18966  14.368  18.248   7.650
 5681POPC   C1B18967  14.131  18.280   8.550
 5681POPC   C2B18968  14.154  18.236   8.250
 5681POPC   C3B18969  14.139  18.230   7.950
 5681POPC   C4B18970  14.150  18.254   7.650
 5682POPC   NC318971  12.096  22.211   9.450
 5682POPC   PO418972  12.126  22.174   9.150
 5682POPC   GL118973  12.094  22.204   8.850
 5682POPC   GL218974  11.932  22.074   8.850
 5682POPC   C1A18975  12.058  22.121   8.550
 5682POPC   D2A18976  12.092  22.178   8.250
 5682POPC   C3A18977  12.060  22.211   7.950
 5682POPC   C4A18978  12.063  22.157   7.650
 5682POPC   C1B18979  11.901  22.038   8.550
 5682POPC   C2B18980  11.824  22.047   8.250
 5682POPC   C3B18981  11.897  22.061   7.950
 5682POPC   C4B18982  11.893  21.979   7.650
 5683POPC   NC318983  20.565   4.333   9.450
 5683POPC   PO418984  20.592   4.322   9.150
 5683POPC   GL118985  20.633   4.271   8.850
 5683POPC   GL218986  20.747   4.260   8.850
 5683POPC   C1A18987  20.572   4.362   8.550
 5683POPC   D2A18988  20.658   4.343   8.250
 5683POPC   C3A18989  20.647   4.337   7.950
 5683POPC   C4A18990  20.623   4.331   7.650
 5683POPC   C1B18991  20.887   4.265   8.550
 5683POPC   C2B18992  20.890   4.272   8.250
 5683POPC   C3B18993  20.864   4.307   7.950
 5683POPC   C4B18994  20.852   4.256   7.650
 5684POPC   NC318995   1.201  39.185   9.450
 5684POPC   PO418996   1.180  39.203   9.150
 5684POPC   GL118997   1.164  39.277   8.850
 5684POPC   GL218998   1.103  39.209   8.850
 5684POPC   C1A18999   1.238  39.205   8.550
 5684POPC   D2A19000   1.263  39.226   8.250
 5684POPC   C3A19001   1.169  39.218   7.950
 5684POPC   C4A19002   1.238  39.191   7.650
 5684POPC   C1B19003   0.925  39.250   8.550
 5684POPC   C2B19004   0.986  39.214   8.250
 5684POPC   C3B19005   0.977  39.203   7.950
 5684POPC   C4B19006   0.956  39.209   7.650
 5685POPC   NC319007  43.842   1.175   9.450
 5685POPC   PO419008  43.839   1.253   9.150
 5685POPC   GL119009  43.902   1.241   8.850
 5685POPC   GL219010  43.952   1.104   8.850
 5685POPC   C1A19011  43.892   1.179   8.550
 5685POPC   D2A19012  43.910   1.193   8.250
 5685POPC   C3A19013  43.856   1.262   7.950
 5685POPC   C4A19014  43.879   1.230   7.650
 5685POPC   C1B19015  43.923   0.925   8.550
 5685POPC   C2B19016  43.871   1.010   8.250
 5685POPC   C3B19017  43.966   0.988   7.950
 5685POPC   C4B19018  43.899   0.989   7.650
 5686POPC   NC319019   6.653   6.672   9.450
 5686POPC   PO419020   6.600   6.621   9.150
 5686POPC   GL119021   6.624   6.610   8.850
 5686POPC   GL219022   6.525   6.706   8.850
 5686POPC   C1A19023   6.623   6.691   8.550
 5686POPC   D2A19024   6.669   6.636   8.250
 5686POPC   C3A19025   6.682   6.679   7.950
 5686POPC   C4A19026   6.643   6.653   7.650
 5686POPC   C1B19027   6.370   6.648   8.550
 5686POPC   C2B19028   6.396   6.730   8.250
 5686POPC   C3B19029   6.437   6.730   7.950
 5686POPC   C4B19030   6.418   6.725   7.650
 5687POPC   NC319031  43.114  13.597   9.450
 5687POPC   PO419032  43.127  13.603   9.150
 5687POPC   GL119033  43.093  13.616   8.850
 5687POPC   GL219034  43.110  13.492   8.850
 5687POPC   C1A19035  43.083  13.604   8.550
 5687POPC   D2A19036  43.120  13.622   8.250
 5687POPC   C3A19037  43.065  13.637   7.950
 5687POPC   C4A19038  43.085  13.598   7.650
 5687POPC   C1B19039  43.141  13.354   8.550
 5687POPC   C2B19040  43.122  13.394   8.250
 5687POPC   C3B19041  43.155  13.361   7.950
 5687POPC   C4B19042  43.082  13.396   7.650
 5688POPC   NC319043  33.841  36.947   9.450
 5688POPC   PO419044  33.796  36.896   9.150
 5688POPC   GL119045  33.766  36.942   8.850
 5688POPC   GL219046  33.677  36.902   8.850
 5688POPC   C1A19047  33.814  36.878   8.550
 5688POPC   D2A19048  33.785  36.881   8.250
 5688POPC   C3A19049  33.817  36.906   7.950
 5688POPC   C4A19050  33.796  36.854   7.650
 5688POPC   C1B19051  33.518  36.950   8.550
 5688POPC   C2B19052  33.530  37.019   8.250
 5688POPC   C3B19053  33.556  36.986   7.950
 5688POPC   C4B19054  33.591  36.951   7.650
 5689POPC   NC319055  36.095  43.857   9.450
 5689POPC   PO419056  36.085  43.848   9.150
 5689POPC   GL119057  36.095  43.880   8.850
 5689POPC   GL219058  36.012  43.994   8.850
 5689POPC   C1A19059  36.101  43.866   8.550
 5689POPC   D2A19060  36.092  43.886   8.250
 5689POPC   C3A19061  36.100  43.879   7.950
 5689POPC   C4A19062  36.142  43.906   7.650
 5689POPC   C1B19063  35.872  44.018   8.550
 5689POPC   C2B19064  35.932  44.058   8.250
 5689POPC   C3B19065  35.944  44.050   7.950
 5689POPC   C4B19066  35.914  43.992   7.650
 5690POPC   NC319067  40.052  27.582   9.450
 5690POPC   PO419068  39.977  27.549   9.150
 5690POPC   GL119069  39.966  27.577   8.850
 5690POPC   GL219070  39.874  27.641   8.850
 5690POPC   C1A19071  40.020  27.584   8.550
 5690POPC   D2A19072  40.022  27.587   8.250
 5690POPC   C3A19073  40.023  27.568   7.950
 5690POPC   C4A19074  40.047  27.590   7.650
 5690POPC   C1B19075  39.771  27.777   8.550
 5690POPC   C2B19076  39.813  27.714   8.250
 5690POPC   C3B19077  39.845  27.689   7.950
 5690POPC   C4B19078  39.802  27.737   7.650
 5691POPC   NC319079  33.058  43.067   9.450
 5691POPC   PO419080  33.070  43.106   9.150
 5691POPC   GL119081  33.007  43.159   8.850
 5691POPC   GL219082  33.154  43.135   8.850
 5691POPC   C1A19083  33.032  43.097   8.550
 5691POPC   D2A19084  33.001  43.159   8.250
 5691POPC   C3A19085  33.000  43.152   7.950
 5691POPC   C4A19086  32.989  43.152   7.650
 5691POPC   C1B19087  33.229  43.261   8.550
 5691POPC   C2B19088  33.286  43.199   8.250
 5691POPC   C3B19089  33.228  43.250   7.950
 5691POPC   C4B19090  33.270  43.261   7.650
 5692POPC   NC319091   9.747  43.889   9.450
 5692POPC   PO419092   9.760  43.861   9.150
 5692POPC   GL119093   9.701  43.911   8.850
 5692POPC   GL219094   9.610  43.933   8.850
 5692POPC   C1A19095   9.715  43.876   8.550
 5692POPC   D2A19096   9.768  43.839   8.250
 5692POPC   C3A19097   9.699  43.847   7.950
 5692POPC   C4A19098   9.734  43.886   7.650
 5692POPC   C1B19099   9.527  43.916   8.550
 5692POPC   C2B19100   9.541  43.875   8.250
 5692POPC   C3B19101   9.522  43.878   7.950
 5692POPC   C4B19102   9.485  43.877   7.650
 5693POPC   NC319103  17.543  19.043   9.450
 5693POPC   PO419104  17.520  19.108   9.150
 5693POPC   GL119105  17.498  19.052   8.850
 5693POPC   GL219106  17.432  19.090   8.850
 5693POPC   C1A19107  17.458  19.054   8.550
 5693POPC   D2A19108  17.544  19.070   8.250
 5693POPC   C3A19109  17.500  19.023   7.950
 5693POPC   C4A19110  17.467  19.075   7.650
 5693POPC   C1B19111  17.270  19.140   8.550
 5693POPC   C2B19112  17.228  19.132   8.250
 5693POPC   C3B19113  17.239  19.134   7.950
 5693POPC   C4B19114  17.286  19.144   7.650
 5694POPC   NC319115  24.496   4.271   9.450
 5694POPC   PO419116  24.499   4.355   9.150
 5694POPC   GL119117  24.509   4.363   8.850
 5694POPC   GL219118  24.541   4.152   8.850
 5694POPC   C1A19119  24.477   4.328   8.550
 5694POPC   D2A19120  24.466   4.353   8.250
 5694POPC   C3A19121  24.536   4.334   7.950
 5694POPC   C4A19122  24.503   4.292   7.650
 5694POPC   C1B19123  24.527   4.048   8.550
 5694POPC   C2B19124  24.577   4.074   8.250
 5694POPC   C3B19125  24.532   4.122   7.950
 5694POPC   C4B19126  24.502   4.105   7.650
 5695POPC   NC319127  36.165   6.684   9.450
 5695POPC   PO419128  36.088   6.675   9.150
 5695POPC   GL119129  36.117   6.683   8.850
 5695POPC   GL219130  36.050   6.675   8.850
 5695POPC   C1A19131  36.078   6.673   8.550
 5695POPC   D2A19132  36.110   6.619   8.250
 5695POPC   C3A19133  36.094   6.690   7.950
 5695POPC   C4A19134  36.162   6.664   7.650
 5695POPC   C1B19135  35.898   6.749   8.550
 5695POPC   C2B19136  35.955   6.778   8.250
 5695POPC   C3B19137  35.903   6.796   7.950
 5695POPC   C4B19138  35.951   6.775   7.650
 5696POPC   NC319139  36.168  26.813   9.450
 5696POPC   PO419140  36.081  26.810   9.150
 5696POPC   GL119141  36.171  26.850   8.850
 5696POPC   GL219142  36.214  26.815   8.850
 5696POPC   C1A19143  36.122  26.816   8.550
 5696POPC   D2A19144  36.104  26.788   8.250
 5696POPC   C3A19145  36.167  26.857   7.950
 5696POPC   C4A19146  36.132  26.804   7.650
 5696POPC   C1B19147  36.358  26.882   8.550
 5696POPC   C2B19148  36.361  26.878   8.250
 5696POPC   C3B19149  36.339  26.844   7.950
 5696POPC   C4B19150  36.321  26.926   7.650
 5697POPC   NC319151  31.454   2.719   9.450
 5697POPC   PO419152  31.502   2.730   9.150
 5697POPC   GL119153  31.444   2.773   8.850
 5697POPC   GL219154  31.319   2.707   8.850
 5697POPC   C1A19155  31.520   2.766   8.550
 5697POPC   D2A19156  31.502   2.721   8.250
 5697POPC   C3A19157  31.500   2.749   7.950
 5697POPC   C4A19158  31.433   2.810   7.650
 5697POPC   C1B19159  31.244   2.659   8.550
 5697POPC   C2B19160  31.200   2.707   8.250
 5697POPC   C3B19161  31.242   2.720   7.950
 5697POPC   C4B19162  31.187   2.656   7.650
 5698POPC   NC319163  29.916  33.028   9.450
 5698POPC   PO419164  29.876  33.073   9.150
 5698POPC   GL119165  29.951  32.979   8.850
 5698POPC   GL219166  29.832  33.028   8.850
 5698POPC   C1A19167  29.935  32.990   8.550
 5698POPC   D2A19168  29.916  33.071   8.250
 5698POPC   C3A19169  29.953  33.034   7.950
 5698POPC   C4A19170  29.932  33.032   7.650
 5698POPC   C1B19171  29.692  33.071   8.550
 5698POPC   C2B19172  29.685  33.106   8.250
 5698POPC   C3B19173  29.701  33.067   7.950
 5698POPC   C4B19174  29.686  33.057   7.650
 5699POPC   NC319175  27.581   0.443   9.450
 5699POPC   PO419176  27.566   0.427   9.150
 5699POPC   GL119177  27.642   0.435   8.850
 5699POPC   GL219178  27.512   0.586   8.850
 5699POPC   C1A19179  27.588   0.483   8.550
 5699POPC   D2A19180  27.608   0.467   8.250
 5699POPC   C3A19181  27.605   0.462   7.950
 5699POPC   C4A19182  27.583   0.482   7.650
 5699POPC   C1B19183  27.467   0.618   8.550
 5699POPC   C2B19184  27.512   0.658   8.250
 5699POPC   C3B19185  27.475   0.672   7.950
 5699POPC   C4B19186  27.438   0.653   7.650
 5700POPC   NC319187  36.889  10.494   9.450
 5700POPC   PO419188  36.932  10.527   9.150
 5700POPC   GL119189  36.894  10.545   8.850
 5700POPC   GL219190  36.878  10.438   8.850
 5700POPC   C1A19191  36.907  10.512   8.550
 5700POPC   D2A19192  36.863  10.524   8.250
 5700POPC   C3A19193  36.897  10.534   7.950
 5700POPC   C4A19194  36.951  10.562   7.650
 5700POPC   C1B19195  36.843  10.287   8.550
 5700POPC   C2B19196  36.813  10.295   8.250
 5700POPC   C3B19197  36.821  10.287   7.950
 5700POPC   C4B19198  36.795  10.344   7.650
 5701POPC   NC319199  28.336   7.407   9.450
 5701POPC   PO419200  28.412   7.443   9.150
 5701POPC   GL119201  28.340   7.397   8.850
 5701POPC   GL219202  28.233   7.469   8.850
 5701POPC   C1A19203  28.378   7.424   8.550
 5701POPC   D2A19204  28.410   7.442   8.250
 5701POPC   C3A19205  28.349   7.403   7.950
 5701POPC   C4A19206  28.328   7.412   7.650
 5701POPC   C1B19207  28.171   7.546   8.550
 5701POPC   C2B19208  28.112   7.473   8.250
 5701POPC   C3B19209  28.113   7.501   7.950
 5701POPC   C4B19210  28.186   7.548   7.650
 5702POPC   NC319211   7.435  36.145   9.450
 5702POPC   PO419212   7.384  36.142   9.150
 5702POPC   GL119213   7.441  36.096   8.850
 5702POPC   GL219214   7.318  36.225   8.850
 5702POPC   C1A19215   7.442  36.128   8.550
 5702POPC   D2A19216   7.455  36.096   8.250
 5702POPC   C3A19217   7.453  36.175   7.950
 5702POPC   C4A19218   7.437  36.138   7.650
 5702POPC   C1B19219   7.256  36.237   8.550
 5702POPC   C2B19220   7.216  36.299   8.250
 5702POPC   C3B19221   7.206  36.292   7.950
 5702POPC   C4B19222   7.255  36.298   7.650
 5703POPC   NC319223  32.978  26.012   9.450
 5703POPC   PO419224  33.031  26.018   9.150
 5703POPC   GL119225  32.996  26.006   8.850
 5703POPC   GL219226  33.155  26.108   8.850
 5703POPC   C1A19227  33.065  26.082   8.550
 5703POPC   D2A19228  33.003  26.084   8.250
 5703POPC   C3A19229  33.013  26.063   7.950
 5703POPC   C4A19230  32.975  26.041   7.650
 5703POPC   C1B19231  33.247  26.195   8.550
 5703POPC   C2B19232  33.185  26.139   8.250
 5703POPC   C3B19233  33.277  26.228   7.950
 5703POPC   C4B19234  33.195  26.196   7.650
 5704POPC   NC319235  18.293  19.856   9.450
 5704POPC   PO419236  18.266  19.820   9.150
 5704POPC   GL119237  18.276  19.813   8.850
 5704POPC   GL219238  18.281  19.920   8.850
 5704POPC   C1A19239  18.244  19.871   8.550
 5704POPC   D2A19240  18.330  19.867   8.250
 5704POPC   C3A19241  18.300  19.812   7.950
 5704POPC   C4A19242  18.296  19.868   7.650
 5704POPC   C1B19243  18.363  20.030   8.550
 5704POPC   C2B19244  18.392  20.089   8.250
 5704POPC   C3B19245  18.413  20.033   7.950
 5704POPC   C4B19246  18.348  20.094   7.650
 5705POPC   NC319247  24.472  34.610   9.450
 5705POPC   PO419248  24.492  34.561   9.150
 5705POPC   GL119249  24.525  34.542   8.850
 5705POPC   GL219250  24.582  34.468   8.850
 5705POPC   C1A19251  24.518  34.558   8.550
 5705POPC   D2A19252  24.496  34.595   8.250
 5705POPC   C3A19253  24.451  34.568   7.950
 5705POPC   C4A19254  24.500  34.625   7.650
 5705POPC   C1B19255  24.659  34.407   8.550
 5705POPC   C2B19256  24.647  34.412   8.250
 5705POPC   C3B19257  24.670  34.419   7.950
 5705POPC   C4B19258  24.688  34.378   7.650
 5706POPC   NC319259  30.676   9.018   9.450
 5706POPC   PO419260  30.647   8.964   9.150
 5706POPC   GL119261  30.685   8.963   8.850
 5706POPC   GL219262  30.611   9.023   8.850
 5706POPC   C1A19263  30.655   8.980   8.550
 5706POPC   D2A19264  30.706   8.954   8.250
 5706POPC   C3A19265  30.716   8.941   7.950
 5706POPC   C4A19266  30.708   8.944   7.650
 5706POPC   C1B19267  30.472   9.043   8.550
 5706POPC   C2B19268  30.496   9.040   8.250
 5706POPC   C3B19269  30.429   9.030   7.950
 5706POPC   C4B19270  30.435   8.996   7.650
 5707POPC   NC319271   5.133  12.880   9.450
 5707POPC   PO419272   5.123  12.804   9.150
 5707POPC   GL119273   5.058  12.880   8.850
 5707POPC   GL219274   5.141  12.697   8.850
 5707POPC   C1A19275   5.083  12.826   8.550
 5707POPC   D2A19276   5.043  12.866   8.250
 5707POPC   C3A19277   5.135  12.875   7.950
 5707POPC   C4A19278   5.105  12.899   7.650
 5707POPC   C1B19279   5.156  12.598   8.550
 5707POPC   C2B19280   5.144  12.563   8.250
 5707POPC   C3B19281   5.130  12.570   7.950
 5707POPC   C4B19282   5.195  12.623   7.650
 5708POPC   NC319283  21.394  33.061   9.450
 5708POPC   PO419284  21.388  32.999   9.150
 5708POPC   GL119285  21.361  33.020   8.850
 5708POPC   GL219286  21.480  33.103   8.850
 5708POPC   C1A19287  21.396  33.019   8.550
 5708POPC   D2A19288  21.386  33.065   8.250
 5708POPC   C3A19289  21.424  33.010   7.950
 5708POPC   C4A19290  21.370  33.069   7.650
 5708POPC   C1B19291  21.644  33.050   8.550
 5708POPC   C2B19292  21.633  33.087   8.250
 5708POPC   C3B19293  21.647  33.087   7.950
 5708POPC   C4B19294  21.607  33.138   7.650
 5709POPC   NC319295  31.501  33.790   9.450
 5709POPC   PO419296  31.509  33.774   9.150
 5709POPC   GL119297  31.454  33.760   8.850
 5709POPC   GL219298  31.421  33.913   8.850
 5709POPC   C1A19299  31.440  33.802   8.550
 5709POPC   D2A19300  31.478  33.844   8.250
 5709POPC   C3A19301  31.457  33.847   7.950
 5709POPC   C4A19302  31.479  33.807   7.650
 5709POPC   C1B19303  31.325  34.016   8.550
 5709POPC   C2B19304  31.323  34.061   8.250
 5709POPC   C3B19305  31.389  34.062   7.950
 5709POPC   C4B19306  31.391  34.033   7.650
 5710POPC   NC319307  43.855   8.977   9.450
 5710POPC   PO419308  43.914   9.011   9.150
 5710POPC   GL119309  43.852   8.980   8.850
 5710POPC   GL219310  43.787   9.048   8.850
 5710POPC   C1A19311  43.898   8.979   8.550
 5710POPC   D2A19312  43.869   8.937   8.250
 5710POPC   C3A19313  43.890   8.946   7.950
 5710POPC   C4A19314  43.917   8.951   7.650
 5710POPC   C1B19315  43.728   9.177   8.550
 5710POPC   C2B19316  43.667   9.116   8.250
 5710POPC   C3B19317  43.740   9.181   7.950
 5710POPC   C4B19318  43.719   9.168   7.650
 5711POPC   NC319319  12.869  15.949   9.450
 5711POPC   PO419320  12.805  15.941   9.150
 5711POPC   GL119321  12.893  15.961   8.850
 5711POPC   GL219322  12.740  15.967   8.850
 5711POPC   C1A19323  12.878  15.958   8.550
 5711POPC   D2A19324  12.898  15.986   8.250
 5711POPC   C3A19325  12.852  15.940   7.950
 5711POPC   C4A19326  12.871  15.964   7.650
 5711POPC   C1B19327  12.602  16.006   8.550
 5711POPC   C2B19328  12.582  15.972   8.250
 5711POPC   C3B19329  12.582  15.986   7.950
 5711POPC   C4B19330  12.652  16.011   7.650
 5712POPC   NC319331  20.646  19.811   9.450
 5712POPC   PO419332  20.629  19.861   9.150
 5712POPC   GL119333  20.610  19.845   8.850
 5712POPC   GL219334  20.533  19.840   8.850
 5712POPC   C1A19335  20.580  19.823   8.550
 5712POPC   D2A19336  20.567  19.877   8.250
 5712POPC   C3A19337  20.641  19.859   7.950
 5712POPC   C4A19338  20.593  19.873   7.650
 5712POPC   C1B19339  20.400  19.911   8.550
 5712POPC   C2B19340  20.345  19.901   8.250
 5712POPC   C3B19341  20.330  19.921   7.950
 5712POPC   C4B19342  20.334  19.869   7.650
 5713POPC   NC319343  21.366  19.085   9.450
 5713POPC   PO419344  21.370  19.064   9.150
 5713POPC   GL119345  21.353  19.025   8.850
 5713POPC   GL219346  21.519  19.133   8.850
 5713POPC   C1A19347  21.416  19.041   8.550
 5713POPC   D2A19348  21.381  19.056   8.250
 5713POPC   C3A19349  21.422  19.024   7.950
 5713POPC   C4A19350  21.378  19.021   7.650
 5713POPC   C1B19351  21.575  19.271   8.550
 5713POPC   C2B19352  21.598  19.232   8.250
 5713POPC   C3B19353  21.543  19.229   7.950
 5713POPC   C4B19354  21.607  19.259   7.650
 5714POPC   NC319355  22.918  29.922   9.450
 5714POPC   PO419356  22.890  29.936   9.150
 5714POPC   GL119357  22.969  29.877   8.850
 5714POPC   GL219358  22.821  29.920   8.850
 5714POPC   C1A19359  22.913  29.872   8.550
 5714POPC   D2A19360  22.950  29.877   8.250
 5714POPC   C3A19361  22.925  29.906   7.950
 5714POPC   C4A19362  22.968  29.929   7.650
 5714POPC   C1B19363  22.716  29.835   8.550
 5714POPC   C2B19364  22.679  29.879   8.250
 5714POPC   C3B19365  22.703  29.810   7.950
 5714POPC   C4B19366  22.660  29.796   7.650
 5715POPC   NC319367  19.806   1.986   9.450
 5715POPC   PO419368  19.799   1.958   9.150
 5715POPC   GL119369  19.806   2.039   8.850
 5715POPC   GL219370  19.752   2.045   8.850
 5715POPC   C1A19371  19.812   1.997   8.550
 5715POPC   D2A19372  19.791   2.016   8.250
 5715POPC   C3A19373  19.846   1.986   7.950
 5715POPC   C4A19374  19.866   2.004   7.650
 5715POPC   C1B19375  19.618   2.079   8.550
 5715POPC   C2B19376  19.650   2.074   8.250
 5715POPC   C3B19377  19.671   2.167   7.950
 5715POPC   C4B19378  19.654   2.111   7.650
 5716POPC   NC319379  10.566   3.543   9.450
 5716POPC   PO419380  10.562   3.558   9.150
 5716POPC   GL119381  10.529   3.503   8.850
 5716POPC   GL219382  10.570   3.396   8.850
 5716POPC   C1A19383  10.513   3.542   8.550
 5716POPC   D2A19384  10.506   3.562   8.250
 5716POPC   C3A19385  10.522   3.505   7.950
 5716POPC   C4A19386  10.487   3.556   7.650
 5716POPC   C1B19387  10.678   3.360   8.550
 5716POPC   C2B19388  10.704   3.317   8.250
 5716POPC   C3B19389  10.639   3.348   7.950
 5716POPC   C4B19390  10.710   3.348   7.650
 5717POPC   NC319391  16.718   0.448   9.450
 5717POPC   PO419392  16.702   0.402   9.150
 5717POPC   GL119393  16.777   0.401   8.850
 5717POPC   GL219394  16.799   0.570   8.850
 5717POPC   C1A19395  16.697   0.457   8.550
 5717POPC   D2A19396  16.705   0.451   8.250
 5717POPC   C3A19397  16.759   0.470   7.950
 5717POPC   C4A19398  16.720   0.476   7.650
 5717POPC   C1B19399  16.756   0.653   8.550
 5717POPC   C2B19400  16.845   0.708   8.250
 5717POPC   C3B19401  16.837   0.671   7.950
 5717POPC   C4B19402  16.828   0.688   7.650
 5718POPC   NC319403  31.457  17.549   9.450
 5718POPC   PO419404  31.512  17.524   9.150
 5718POPC   GL119405  31.507  17.510   8.850
 5718POPC   GL219406  31.581  17.447   8.850
 5718POPC   C1A19407  31.443  17.542   8.550
 5718POPC   D2A19408  31.426  17.460   8.250
 5718POPC   C3A19409  31.423  17.533   7.950
 5718POPC   C4A19410  31.454  17.540   7.650
 5718POPC   C1B19411  31.574  17.317   8.550
 5718POPC   C2B19412  31.585  17.269   8.250
 5718POPC   C3B19413  31.611  17.287   7.950
 5718POPC   C4B19414  31.590  17.262   7.650
 5719POPC   NC319415  11.298   8.242   9.450
 5719POPC   PO419416  11.291   8.198   9.150
 5719POPC   GL119417  11.312   8.236   8.850
 5719POPC   GL219418  11.337   8.320   8.850
 5719POPC   C1A19419  11.270   8.178   8.550
 5719POPC   D2A19420  11.344   8.216   8.250
 5719POPC   C3A19421  11.303   8.231   7.950
 5719POPC   C4A19422  11.304   8.245   7.650
 5719POPC   C1B19423  11.402   8.454   8.550
 5719POPC   C2B19424  11.358   8.419   8.250
 5719POPC   C3B19425  11.419   8.402   7.950
 5719POPC   C4B19426  11.355   8.422   7.650
 5720POPC   NC319427   3.511  42.352   9.450
 5720POPC   PO419428   3.520  42.293   9.150
 5720POPC   GL119429   3.524  42.286   8.850
 5720POPC   GL219430   3.595  42.410   8.850
 5720POPC   C1A19431   3.591  42.315   8.550
 5720POPC   D2A19432   3.510  42.290   8.250
 5720POPC   C3A19433   3.526  42.321   7.950
 5720POPC   C4A19434   3.496  42.296   7.650
 5720POPC   C1B19435   3.754  42.564   8.550
 5720POPC   C2B19436   3.720  42.473   8.250
 5720POPC   C3B19437   3.752  42.467   7.950
 5720POPC   C4B19438   3.724  42.472   7.650
 5721POPC   NC319439  14.404  27.630   9.450
 5721POPC   PO419440  14.362  27.595   9.150
 5721POPC   GL119441  14.441  27.583   8.850
 5721POPC   GL219442  14.311  27.469   8.850
 5721POPC   C1A19443  14.442  27.549   8.550
 5721POPC   D2A19444  14.429  27.590   8.250
 5721POPC   C3A19445  14.404  27.544   7.950
 5721POPC   C4A19446  14.413  27.632   7.650
 5721POPC   C1B19447  14.224  27.400   8.550
 5721POPC   C2B19448  14.210  27.450   8.250
 5721POPC   C3B19449  14.238  27.359   7.950
 5721POPC   C4B19450  14.275  27.415   7.650
 5722POPC   NC319451  14.391  14.393   9.450
 5722POPC   PO419452  14.439  14.373   9.150
 5722POPC   GL119453  14.373  14.426   8.850
 5722POPC   GL219454  14.473  14.344   8.850
 5722POPC   C1A19455  14.378  14.417   8.550
 5722POPC   D2A19456  14.374  14.377   8.250
 5722POPC   C3A19457  14.421  14.449   7.950
 5722POPC   C4A19458  14.355  14.433   7.650
 5722POPC   C1B19459  14.656  14.241   8.550
 5722POPC   C2B19460  14.621  14.267   8.250
 5722POPC   C3B19461  14.571  14.259   7.950
 5722POPC   C4B19462  14.668  14.236   7.650
 5723POPC   NC319463   5.049  22.924   9.450
 5723POPC   PO419464   5.048  22.910   9.150
 5723POPC   GL119465   5.044  22.918   8.850
 5723POPC   GL219466   5.019  22.845   8.850
 5723POPC   C1A19467   5.143  22.919   8.550
 5723POPC   D2A19468   5.057  22.975   8.250
 5723POPC   C3A19469   5.105  22.901   7.950
 5723POPC   C4A19470   5.055  22.955   7.650
 5723POPC   C1B19471   4.849  22.866   8.550
 5723POPC   C2B19472   4.847  22.827   8.250
 5723POPC   C3B19473   4.869  22.861   7.950
 5723POPC   C4B19474   4.874  22.838   7.650
 5724POPC   NC319475  15.980  14.357   9.450
 5724POPC   PO419476  15.998  14.401   9.150
 5724POPC   GL119477  15.989  14.372   8.850
 5724POPC   GL219478  15.815  14.452   8.850
 5724POPC   C1A19479  15.975  14.407   8.550
 5724POPC   D2A19480  15.990  14.415   8.250
 5724POPC   C3A19481  15.951  14.388   7.950
 5724POPC   C4A19482  15.927  14.453   7.650
 5724POPC   C1B19483  15.766  14.580   8.550
 5724POPC   C2B19484  15.740  14.548   8.250
 5724POPC   C3B19485  15.789  14.621   7.950
 5724POPC   C4B19486  15.779  14.553   7.650
 5725POPC   NC319487  29.156  22.906   9.450
 5725POPC   PO419488  29.137  22.961   9.150
 5725POPC   GL119489  29.114  22.972   8.850
 5725POPC   GL219490  29.189  22.797   8.850
 5725POPC   C1A19491  29.183  22.908   8.550
 5725POPC   D2A19492  29.106  22.921   8.250
 5725POPC   C3A19493  29.184  22.894   7.950
 5725POPC   C4A19494  29.137  22.949   7.650
 5725POPC   C1B19495  29.219  22.757   8.550
 5725POPC   C2B19496  29.249  22.682   8.250
 5725POPC   C3B19497  29.266  22.751   7.950
 5725POPC   C4B19498  29.230  22.755   7.650
 5726POPC   NC319499  32.205  40.011   9.450
 5726POPC   PO419500  32.280  40.054   9.150
 5726POPC   GL119501  32.243  40.018   8.850
 5726POPC   GL219502  32.197  40.180   8.850
 5726POPC   C1A19503  32.266  39.969   8.550
 5726POPC   D2A19504  32.210  39.961   8.250
 5726POPC   C3A19505  32.295  40.017   7.950
 5726POPC   C4A19506  32.242  40.007   7.650
 5726POPC   C1B19507  32.250  40.207   8.550
 5726POPC   C2B19508  32.190  40.292   8.250
 5726POPC   C3B19509  32.223  40.265   7.950
 5726POPC   C4B19510  32.228  40.224   7.650
 5727POPC   NC319511  43.855  33.767   9.450
 5727POPC   PO419512  43.906  33.825   9.150
 5727POPC   GL119513  43.896  33.755   8.850
 5727POPC   GL219514  43.958  33.845   8.850
 5727POPC   C1A19515  43.882  33.766   8.550
 5727POPC   D2A19516  43.917  33.820   8.250
 5727POPC   C3A19517  43.930  33.831   7.950
 5727POPC   C4A19518  43.890  33.803   7.650
 5727POPC   C1B19519  44.099  33.900   8.550
 5727POPC   C2B19520  44.133  33.890   8.250
 5727POPC   C3B19521  44.133  33.968   7.950
 5727POPC   C4B19522  44.146  33.978   7.650
 5728POPC   NC319523  11.300  15.938   9.450
 5728POPC   PO419524  11.259  15.962   9.150
 5728POPC   GL119525  11.275  15.990   8.850
 5728POPC   GL219526  11.281  16.049   8.850
 5728POPC   C1A19527  11.306  15.912   8.550
 5728POPC   D2A19528  11.303  16.002   8.250
 5728POPC   C3A19529  11.277  15.935   7.950
 5728POPC   C4A19530  11.348  15.979   7.650
 5728POPC   C1B19531  11.215  16.165   8.550
 5728POPC   C2B19532  11.201  16.185   8.250
 5728POPC   C3B19533  11.190  16.181   7.950
 5728POPC   C4B19534  11.155  16.207   7.650
 5729POPC   NC319535  30.684  27.560   9.450
 5729POPC   PO419536  30.735  27.614   9.150
 5729POPC   GL119537  30.711  27.631   8.850
 5729POPC   GL219538  30.605  27.549   8.850
 5729POPC   C1A19539  30.695  27.612   8.550
 5729POPC   D2A19540  30.745  27.550   8.250
 5729POPC   C3A19541  30.686  27.625   7.950
 5729POPC   C4A19542  30.730  27.560   7.650
 5729POPC   C1B19543  30.525  27.450   8.550
 5729POPC   C2B19544  30.501  27.450   8.250
 5729POPC   C3B19545  30.526  27.388   7.950
 5729POPC   C4B19546  30.490  27.447   7.650
 5730POPC   NC319547   3.539  40.010   9.450
 5730POPC   PO419548   3.535  39.962   9.150
 5730POPC   GL119549   3.494  39.969   8.850
 5730POPC   GL219550   3.461  40.031   8.850
 5730POPC   C1A19551   3.508  40.030   8.550
 5730POPC   D2A19552   3.491  40.044   8.250
 5730POPC   C3A19553   3.561  40.035   7.950
 5730POPC   C4A19554   3.514  40.038   7.650
 5730POPC   C1B19555   3.291  40.025   8.550
 5730POPC   C2B19556   3.328  40.002   8.250
 5730POPC   C3B19557   3.309  40.012   7.950
 5730POPC   C4B19558   3.261  40.004   7.650
 5731POPC   NC319559   5.088   8.989   9.450
 5731POPC   PO419560   5.064   9.007   9.150
 5731POPC   GL119561   5.095   9.018   8.850
 5731POPC   GL219562   4.975   8.908   8.850
 5731POPC   C1A19563   5.075   8.989   8.550
 5731POPC   D2A19564   5.085   8.962   8.250
 5731POPC   C3A19565   5.118   9.017   7.950
 5731POPC   C4A19566   5.121   9.020   7.650
 5731POPC   C1B19567   4.909   8.888   8.550
 5731POPC   C2B19568   4.869   8.830   8.250
 5731POPC   C3B19569   4.827   8.915   7.950
 5731POPC   C4B19570   4.844   8.862   7.650
 5732POPC   NC319571   5.119  13.581   9.450
 5732POPC   PO419572   5.062  13.608   9.150
 5732POPC   GL119573   5.117  13.649   8.850
 5732POPC   GL219574   5.083  13.722   8.850
 5732POPC   C1A19575   5.111  13.673   8.550
 5732POPC   D2A19576   5.103  13.673   8.250
 5732POPC   C3A19577   5.141  13.653   7.950
 5732POPC   C4A19578   5.050  13.620   7.650
 5732POPC   C1B19579   5.078  13.831   8.550
 5732POPC   C2B19580   5.125  13.874   8.250
 5732POPC   C3B19581   5.104  13.848   7.950
 5732POPC   C4B19582   5.075  13.911   7.650
 5733POPC   NC319583   8.964  21.411   9.450
 5733POPC   PO419584   8.952  21.377   9.150
 5733POPC   GL119585   8.966  21.375   8.850
 5733POPC   GL219586   8.971  21.274   8.850
 5733POPC   C1A19587   8.993  21.337   8.550
 5733POPC   D2A19588   8.961  21.381   8.250
 5733POPC   C3A19589   9.017  21.379   7.950
 5733POPC   C4A19590   8.977  21.345   7.650
 5733POPC   C1B19591   8.925  21.102   8.550
 5733POPC   C2B19592   8.920  21.134   8.250
 5733POPC   C3B19593   8.935  21.161   7.950
 5733POPC   C4B19594   8.940  21.179   7.650
 5734POPC   NC319595  29.875   5.881   9.450
 5734POPC   PO419596  29.878   5.821   9.150
 5734POPC   GL119597  29.876   5.876   8.850
 5734POPC   GL219598  29.832   5.978   8.850
 5734POPC   C1A19599  29.915   5.911   8.550
 5734POPC   D2A19600  29.931   5.863   8.250
 5734POPC   C3A19601  29.890   5.886   7.950
 5734POPC   C4A19602  29.902   5.844   7.650
 5734POPC   C1B19603  29.801   6.077   8.550
 5734POPC   C2B19604  29.830   6.054   8.250
 5734POPC   C3B19605  29.765   6.042   7.950
 5734POPC   C4B19606  29.768   6.087   7.650
 5735POPC   NC319607  44.669   6.657   9.450
 5735POPC   PO419608  44.701   6.663   9.150
 5735POPC   GL119609  44.618   6.663   8.850
 5735POPC   GL219610  44.785   6.551   8.850
 5735POPC   C1A19611  44.694   6.656   8.550
 5735POPC   D2A19612  44.636   6.611   8.250
 5735POPC   C3A19613  44.632   6.609   7.950
 5735POPC   C4A19614  44.664   6.672   7.650
 5735POPC   C1B19615  44.857   6.438   8.550
 5735POPC   C2B19616  44.842   6.459   8.250
 5735POPC   C3B19617  44.802   6.473   7.950
 5735POPC   C4B19618  44.766   6.422   7.650
 5736POPC   NC319619  12.804  10.524   9.450
 5736POPC   PO419620  12.877  10.572   9.150
 5736POPC   GL119621  12.807  10.567   8.850
 5736POPC   GL219622  12.967  10.528   8.850
 5736POPC   C1A19623  12.809  10.551   8.550
 5736POPC   D2A19624  12.886  10.551   8.250
 5736POPC   C3A19625  12.887  10.499   7.950
 5736POPC   C4A19626  12.862  10.481   7.650
 5736POPC   C1B19627  13.053  10.536   8.550
 5736POPC   C2B19628  13.100  10.551   8.250
 5736POPC   C3B19629  13.106  10.535   7.950
 5736POPC   C4B19630  13.118  10.584   7.650
 5737POPC   NC319631  29.160  20.590   9.450
 5737POPC   PO419632  29.122  20.625   9.150
 5737POPC   GL119633  29.139  20.621   8.850
 5737POPC   GL219634  29.173  20.782   8.850
 5737POPC   C1A19635  29.166  20.626   8.550
 5737POPC   D2A19636  29.161  20.564   8.250
 5737POPC   C3A19637  29.194  20.587   7.950
 5737POPC   C4A19638  29.127  20.644   7.650
 5737POPC   C1B19639  29.151  20.884   8.550
 5737POPC   C2B19640  29.081  20.830   8.250
 5737POPC   C3B19641  29.087  20.811   7.950
 5737POPC   C4B19642  29.160  20.833   7.650
 5738POPC   NC319643  32.236   4.352   9.450
 5738POPC   PO419644  32.199   4.288   9.150
 5738POPC   GL119645  32.210   4.333   8.850
 5738POPC   GL219646  32.171   4.284   8.850
 5738POPC   C1A19647  32.264   4.276   8.550
 5738POPC   D2A19648  32.218   4.307   8.250
 5738POPC   C3A19649  32.272   4.304   7.950
 5738POPC   C4A19650  32.222   4.292   7.650
 5738POPC   C1B19651  31.999   4.223   8.550
 5738POPC   C2B19652  31.977   4.235   8.250
 5738POPC   C3B19653  32.053   4.200   7.950
 5738POPC   C4B19654  32.047   4.185   7.650
 5739POPC   NC319655  12.121  33.768   9.450
 5739POPC   PO419656  12.111  33.812   9.150
 5739POPC   GL119657  12.064  33.756   8.850
 5739POPC   GL219658  12.218  33.799   8.850
 5739POPC   C1A19659  12.090  33.804   8.550
 5739POPC   D2A19660  12.081  33.809   8.250
 5739POPC   C3A19661  12.044  33.841   7.950
 5739POPC   C4A19662  12.081  33.849   7.650
 5739POPC   C1B19663  12.303  33.879   8.550
 5739POPC   C2B19664  12.280  33.858   8.250
 5739POPC   C3B19665  12.340  33.846   7.950
 5739POPC   C4B19666  12.348  33.809   7.650
 5740POPC   NC319667   5.140  37.705   9.450
 5740POPC   PO419668   5.051  37.729   9.150
 5740POPC   GL119669   5.048  37.683   8.850
 5740POPC   GL219670   5.160  37.771   8.850
 5740POPC   C1A19671   5.044  37.642   8.550
 5740POPC   D2A19672   5.092  37.672   8.250
 5740POPC   C3A19673   5.112  37.645   7.950
 5740POPC   C4A19674   5.066  37.688   7.650
 5740POPC   C1B19675   5.342  37.802   8.550
 5740POPC   C2B19676   5.352  37.855   8.250
 5740POPC   C3B19677   5.263  37.829   7.950
 5740POPC   C4B19678   5.279  37.791   7.650
 5741POPC   NC319679  38.475  29.099   9.450
 5741POPC   PO419680  38.429  29.184   9.150
 5741POPC   GL119681  38.491  29.175   8.850
 5741POPC   GL219682  38.456  29.228   8.850
 5741POPC   C1A19683  38.498  29.190   8.550
 5741POPC   D2A19684  38.433  29.191   8.250
 5741POPC   C3A19685  38.477  29.104   7.950
 5741POPC   C4A19686  38.433  29.097   7.650
 5741POPC   C1B19687  38.520  29.362   8.550
 5741POPC   C2B19688  38.550  29.357   8.250
 5741POPC   C3B19689  38.530  29.338   7.950
 5741POPC   C4B19690  38.574  29.360   7.650
 5742POPC   NC319691  41.592  39.223   9.450
 5742POPC   PO419692  41.512  39.194   9.150
 5742POPC   GL119693  41.520  39.246   8.850
 5742POPC   GL219694  41.481  39.347   8.850
 5742POPC   C1A19695  41.527  39.206   8.550
 5742POPC   D2A19696  41.543  39.204   8.250
 5742POPC   C3A19697  41.528  39.280   7.950
 5742POPC   C4A19698  41.583  39.248   7.650
 5742POPC   C1B19699  41.358  39.425   8.550
 5742POPC   C2B19700  41.368  39.421   8.250
 5742POPC   C3B19701  41.374  39.390   7.950
 5742POPC   C4B19702  41.343  39.392   7.650
 5743POPC   NC319703   1.176  35.322   9.450
 5743POPC   PO419704   1.241  35.346   9.150
 5743POPC   GL119705   1.236  35.322   8.850
 5743POPC   GL219706   1.114  35.417   8.850
 5743POPC   C1A19707   1.171  35.348   8.550
 5743POPC   D2A19708   1.226  35.333   8.250
 5743POPC   C3A19709   1.194  35.346   7.950
 5743POPC   C4A19710   1.206  35.391   7.650
 5743POPC   C1B19711   0.958  35.414   8.550
 5743POPC   C2B19712   0.992  35.385   8.250
 5743POPC   C3B19713   0.970  35.417   7.950
 5743POPC   C4B19714   1.021  35.380   7.650
 5744POPC   NC319715  34.532  27.601   9.450
 5744POPC   PO419716  34.542  27.614   9.150
 5744POPC   GL119717  34.607  27.576   8.850
 5744POPC   GL219718  34.742  27.600   8.850
 5744POPC   C1A19719  34.591  27.595   8.550
 5744POPC   D2A19720  34.611  27.552   8.250
 5744POPC   C3A19721  34.565  27.623   7.950
 5744POPC   C4A19722  34.571  27.628   7.650
 5744POPC   C1B19723  34.783  27.583   8.550
 5744POPC   C2B19724  34.848  27.593   8.250
 5744POPC   C3B19725  34.820  27.517   7.950
 5744POPC   C4B19726  34.865  27.495   7.650
 5745POPC   NC319727   0.446  40.033   9.450
 5745POPC   PO419728   0.420  40.015   9.150
 5745POPC   GL119729   0.461  40.017   8.850
 5745POPC   GL219730   0.294  40.012   8.850
 5745POPC   C1A19731   0.436  40.039   8.550
 5745POPC   D2A19732   0.410  39.958   8.250
 5745POPC   C3A19733   0.452  39.959   7.950
 5745POPC   C4A19734   0.421  40.033   7.650
 5745POPC   C1B19735   0.151  39.925   8.550
 5745POPC   C2B19736   0.222  39.938   8.250
 5745POPC   C3B19737   0.222  39.972   7.950
 5745POPC   C4B19738   0.206  39.988   7.650
 5746POPC   NC319739  37.709  22.179   9.450
 5746POPC   PO419740  37.714  22.135   9.150
 5746POPC   GL119741  37.715  22.122   8.850
 5746POPC   GL219742  37.596  22.088   8.850
 5746POPC   C1A19743  37.728  22.165   8.550
 5746POPC   D2A19744  37.698  22.200   8.250
 5746POPC   C3A19745  37.656  22.197   7.950
 5746POPC   C4A19746  37.702  22.120   7.650
 5746POPC   C1B19747  37.634  21.945   8.550
 5746POPC   C2B19748  37.586  21.965   8.250
 5746POPC   C3B19749  37.654  21.901   7.950
 5746POPC   C4B19750  37.603  21.911   7.650
 5747POPC   NC319751  17.546  29.962   9.450
 5747POPC   PO419752  17.535  29.888   9.150
 5747POPC   GL119753  17.515  29.891   8.850
 5747POPC   GL219754  17.365  29.871   8.850
 5747POPC   C1A19755  17.500  29.906   8.550
 5747POPC   D2A19756  17.484  29.898   8.250
 5747POPC   C3A19757  17.514  29.880   7.950
 5747POPC   C4A19758  17.532  29.968   7.650
 5747POPC   C1B19759  17.272  29.899   8.550
 5747POPC   C2B19760  17.265  29.816   8.250
 5747POPC   C3B19761  17.229  29.850   7.950
 5747POPC   C4B19762  17.290  29.888   7.650
 5748POPC   NC319763  35.340  17.464   9.450
 5748POPC   PO419764  35.334  17.533   9.150
 5748POPC   GL119765  35.348  17.512   8.850
 5748POPC   GL219766  35.246  17.547   8.850
 5748POPC   C1A19767  35.380  17.557   8.550
 5748POPC   D2A19768  35.327  17.514   8.250
 5748POPC   C3A19769  35.325  17.539   7.950
 5748POPC   C4A19770  35.334  17.500   7.650
 5748POPC   C1B19771  35.123  17.469   8.550
 5748POPC   C2B19772  35.088  17.521   8.250
 5748POPC   C3B19773  35.108  17.509   7.950
 5748POPC   C4B19774  35.054  17.518   7.650
 5749POPC   NC319775  19.862  28.368   9.450
 5749POPC   PO419776  19.788  28.371   9.150
 5749POPC   GL119777  19.845  28.334   8.850
 5749POPC   GL219778  19.694  28.408   8.850
 5749POPC   C1A19779  19.844  28.382   8.550
 5749POPC   D2A19780  19.791  28.363   8.250
 5749POPC   C3A19781  19.849  28.339   7.950
 5749POPC   C4A19782  19.880  28.334   7.650
 5749POPC   C1B19783  19.608  28.443   8.550
 5749POPC   C2B19784  19.545  28.443   8.250
 5749POPC   C3B19785  19.602  28.365   7.950
 5749POPC   C4B19786  19.625  28.398   7.650
 5750POPC   NC319787  23.725  18.306   9.450
 5750POPC   PO419788  23.748  18.236   9.150
 5750POPC   GL119789  23.729  18.294   8.850
 5750POPC   GL219790  23.808  18.253   8.850
 5750POPC   C1A19791  23.750  18.312   8.550
 5750POPC   D2A19792  23.669  18.298   8.250
 5750POPC   C3A19793  23.672  18.319   7.950
 5750POPC   C4A19794  23.735  18.315   7.650
 5750POPC   C1B19795  23.994  18.316   8.550
 5750POPC   C2B19796  23.980  18.268   8.250
 5750POPC   C3B19797  23.952  18.267   7.950
 5750POPC   C4B19798  24.009  18.311   7.650
 5751POPC   NC319799  27.600   2.779   9.450
 5751POPC   PO419800  27.597   2.724   9.150
 5751POPC   GL119801  27.593   2.783   8.850
 5751POPC   GL219802  27.568   2.860   8.850
 5751POPC   C1A19803  27.565   2.724   8.550
 5751POPC   D2A19804  27.555   2.738   8.250
 5751POPC   C3A19805  27.635   2.759   7.950
 5751POPC   C4A19806  27.613   2.809   7.650
 5751POPC   C1B19807  27.501   2.965   8.550
 5751POPC   C2B19808  27.484   2.948   8.250
 5751POPC   C3B19809  27.453   2.951   7.950
 5751POPC   C4B19810  27.434   3.002   7.650
 5752POPC   NC319811  31.498   0.411   9.450
 5752POPC   PO419812  31.482   0.473   9.150
 5752POPC   GL119813  31.453   0.476   8.850
 5752POPC   GL219814  31.490   0.327   8.850
 5752POPC   C1A19815  31.494   0.388   8.550
 5752POPC   D2A19816  31.471   0.396   8.250
 5752POPC   C3A19817  31.438   0.404   7.950
 5752POPC   C4A19818  31.438   0.445   7.650
 5752POPC   C1B19819  31.474   0.207   8.550
 5752POPC   C2B19820  31.502   0.162   8.250
 5752POPC   C3B19821  31.489   0.222   7.950
 5752POPC   C4B19822  31.418   0.183   7.650
 5753POPC   NC319823  16.772  12.832   9.450
 5753POPC   PO419824  16.755  12.891   9.150
 5753POPC   GL119825  16.765  12.877   8.850
 5753POPC   GL219826  16.781  12.754   8.850
 5753POPC   C1A19827  16.693  12.811   8.550
 5753POPC   D2A19828  16.742  12.815   8.250
 5753POPC   C3A19829  16.781  12.841   7.950
 5753POPC   C4A19830  16.739  12.853   7.650
 5753POPC   C1B19831  16.742  12.641   8.550
 5753POPC   C2B19832  16.763  12.640   8.250
 5753POPC   C3B19833  16.775  12.637   7.950
 5753POPC   C4B19834  16.725  12.633   7.650
 5754POPC   NC319835  19.797  18.302   9.450
 5754POPC   PO419836  19.830  18.258   9.150
 5754POPC   GL119837  19.811  18.303   8.850
 5754POPC   GL219838  19.920  18.306   8.850
 5754POPC   C1A19839  19.790  18.286   8.550
 5754POPC   D2A19840  19.835  18.251   8.250
 5754POPC   C3A19841  19.814  18.233   7.950
 5754POPC   C4A19842  19.840  18.255   7.650
 5754POPC   C1B19843  20.112  18.415   8.550
 5754POPC   C2B19844  20.112  18.352   8.250
 5754POPC   C3B19845  20.100  18.341   7.950
 5754POPC   C4B19846  20.039  18.338   7.650
 5755POPC   NC319847  33.786  24.472   9.450
 5755POPC   PO419848  33.758  24.537   9.150
 5755POPC   GL119849  33.770  24.449   8.850
 5755POPC   GL219850  33.936  24.439   8.850
 5755POPC   C1A19851  33.839  24.510   8.550
 5755POPC   D2A19852  33.779  24.489   8.250
 5755POPC   C3A19853  33.822  24.501   7.950
 5755POPC   C4A19854  33.808  24.537   7.650
 5755POPC   C1B19855  33.984  24.409   8.550
 5755POPC   C2B19856  33.978  24.389   8.250
 5755POPC   C3B19857  34.023  24.422   7.950
 5755POPC   C4B19858  34.007  24.372   7.650
 5756POPC   NC319859  32.217  26.850   9.450
 5756POPC   PO419860  32.275  26.787   9.150
 5756POPC   GL119861  32.286  26.770   8.850
 5756POPC   GL219862  32.383  26.862   8.850
 5756POPC   C1A19863  32.220  26.854   8.550
 5756POPC   D2A19864  32.202  26.784   8.250
 5756POPC   C3A19865  32.265  26.819   7.950
 5756POPC   C4A19866  32.219  26.797   7.650
 5756POPC   C1B19867  32.486  26.913   8.550
 5756POPC   C2B19868  32.450  26.898   8.250
 5756POPC   C3B19869  32.475  26.832   7.950
 5756POPC   C4B19870  32.488  26.907   7.650
 5757POPC   NC319871   3.547   4.350   9.450
 5757POPC   PO419872   3.499   4.354   9.150
 5757POPC   GL119873   3.528   4.293   8.850
 5757POPC   GL219874   3.576   4.403   8.850
 5757POPC   C1A19875   3.570   4.276   8.550
 5757POPC   D2A19876   3.575   4.335   8.250
 5757POPC   C3A19877   3.535   4.283   7.950
 5757POPC   C4A19878   3.497   4.303   7.650
 5757POPC   C1B19879   3.604   4.582   8.550
 5757POPC   C2B19880   3.641   4.507   8.250
 5757POPC   C3B19881   3.661   4.505   7.950
 5757POPC   C4B19882   3.643   4.512   7.650
 5758POPC   NC319883  34.552  40.019   9.450
 5758POPC   PO419884  34.566  40.037   9.150
 5758POPC   GL119885  34.544  40.020   8.850
 5758POPC   GL219886  34.422  39.959   8.850
 5758POPC   C1A19887  34.620  40.010   8.550
 5758POPC   D2A19888  34.590  40.018   8.250
 5758POPC   C3A19889  34.544  40.052   7.950
 5758POPC   C4A19890  34.617  40.039   7.650
 5758POPC   C1B19891  34.301  39.971   8.550
 5758POPC   C2B19892  34.375  39.984   8.250
 5758POPC   C3B19893  34.328  40.018   7.950
 5758POPC   C4B19894  34.285  39.983   7.650
 5759POPC   NC319895   5.908   8.950   9.450
 5759POPC   PO419896   5.897   9.022   9.150
 5759POPC   GL119897   5.854   8.995   8.850
 5759POPC   GL219898   5.761   8.962   8.850
 5759POPC   C1A19899   5.834   8.945   8.550
 5759POPC   D2A19900   5.831   8.922   8.250
 5759POPC   C3A19901   5.851   9.001   7.950
 5759POPC   C4A19902   5.851   8.953   7.650
 5759POPC   C1B19903   5.615   9.074   8.550
 5759POPC   C2B19904   5.608   9.010   8.250
 5759POPC   C3B19905   5.626   9.089   7.950
 5759POPC   C4B19906   5.604   9.048   7.650
 5760POPC   NC319907  29.169  12.872   9.450
 5760POPC   PO419908  29.179  12.898   9.150
 5760POPC   GL119909  29.179  12.859   8.850
 5760POPC   GL219910  29.180  12.961   8.850
 5760POPC   C1A19911  29.182  12.847   8.550
 5760POPC   D2A19912  29.125  12.851   8.250
 5760POPC   C3A19913  29.102  12.839   7.950
 5760POPC   C4A19914  29.126  12.834   7.650
 5760POPC   C1B19915  29.349  13.060   8.550
 5760POPC   C2B19916  29.355  13.026   8.250
 5760POPC   C3B19917  29.340  13.045   7.950
 5760POPC   C4B19918  29.347  13.051   7.650
 5761POPC   NC319919  18.246  36.112   9.450
 5761POPC   PO419920  18.313  36.138   9.150
 5761POPC   GL119921  18.249  36.105   8.850
 5761POPC   GL219922  18.383  36.140   8.850
 5761POPC   C1A19923  18.322  36.078   8.550
 5761POPC   D2A19924  18.242  36.103   8.250
 5761POPC   C3A19925  18.269  36.164   7.950
 5761POPC   C4A19926  18.249  36.084   7.650
 5761POPC   C1B19927  18.548  36.104   8.550
 5761POPC   C2B19928  18.554  36.084   8.250
 5761POPC   C3B19929  18.485  36.102   7.950
 5761POPC   C4B19930  18.540  36.118   7.650
 5762POPC   NC319931   9.777   1.225   9.450
 5762POPC   PO419932   9.782   1.217   9.150
 5762POPC   GL119933   9.738   1.181   8.850
 5762POPC   GL219934   9.845   1.231   8.850
 5762POPC   C1A19935   9.753   1.184   8.550
 5762POPC   D2A19936   9.789   1.227   8.250
 5762POPC   C3A19937   9.714   1.258   7.950
 5762POPC   C4A19938   9.731   1.197   7.650
 5762POPC   C1B19939  10.009   1.341   8.550
 5762POPC   C2B19940   9.969   1.370   8.250
 5762POPC   C3B19941   9.983   1.367   7.950
 5762POPC   C4B19942   9.959   1.336   7.650
 5763POPC   NC319943  28.392  29.165   9.450
 5763POPC   PO419944  28.393  29.123   9.150
 5763POPC   GL119945  28.409  29.103   8.850
 5763POPC   GL219946  28.323  29.021   8.850
 5763POPC   C1A19947  28.352  29.187   8.550
 5763POPC   D2A19948  28.329  29.146   8.250
 5763POPC   C3A19949  28.388  29.168   7.950
 5763POPC   C4A19950  28.339  29.160   7.650
 5763POPC   C1B19951  28.346  28.890   8.550
 5763POPC   C2B19952  28.409  28.921   8.250
 5763POPC   C3B19953  28.316  28.856   7.950
 5763POPC   C4B19954  28.361  28.899   7.650
 5764POPC   NC319955  35.373  16.774   9.450
 5764POPC   PO419956  35.327  16.740   9.150
 5764POPC   GL119957  35.387  16.737   8.850
 5764POPC   GL219958  35.411  16.819   8.850
 5764POPC   C1A19959  35.359  16.688   8.550
 5764POPC   D2A19960  35.397  16.749   8.250
 5764POPC   C3A19961  35.347  16.732   7.950
 5764POPC   C4A19962  35.361  16.758   7.650
 5764POPC   C1B19963  35.515  16.936   8.550
 5764POPC   C2B19964  35.554  16.892   8.250
 5764POPC   C3B19965  35.521  16.887   7.950
 5764POPC   C4B19966  35.563  16.904   7.650
 5765POPC   NC319967  12.117  34.557   9.450
 5765POPC   PO419968  12.109  34.548   9.150
 5765POPC   GL119969  12.051  34.610   8.850
 5765POPC   GL219970  12.216  34.567   8.850
 5765POPC   C1A19971  12.031  34.599   8.550
 5765POPC   D2A19972  12.125  34.537   8.250
 5765POPC   C3A19973  12.056  34.559   7.950
 5765POPC   C4A19974  12.029  34.564   7.650
 5765POPC   C1B19975  12.279  34.514   8.550
 5765POPC   C2B19976  12.280  34.525   8.250
 5765POPC   C3B19977  12.346  34.593   7.950
 5765POPC   C4B19978  12.347  34.610   7.650
 5766POPC   NC319979  40.776  26.082   9.450
 5766POPC   PO419980  40.771  26.000   9.150
 5766POPC   GL119981  40.804  26.067   8.850
 5766POPC   GL219982  40.721  25.917   8.850
 5766POPC   C1A19983  40.787  26.007   8.550
 5766POPC   D2A19984  40.781  26.085   8.250
 5766POPC   C3A19985  40.814  26.027   7.950
 5766POPC   C4A19986  40.753  26.023   7.650
 5766POPC   C1B19987  40.715  25.842   8.550
 5766POPC   C2B19988  40.667  25.847   8.250
 5766POPC   C3B19989  40.731  25.814   7.950
 5766POPC   C4B19990  40.683  25.807   7.650
 5767POPC   NC319991  37.723  24.509   9.450
 5767POPC   PO419992  37.706  24.512   9.150
 5767POPC   GL119993  37.726  24.445   8.850
 5767POPC   GL219994  37.572  24.632   8.850
 5767POPC   C1A19995  37.663  24.483   8.550
 5767POPC   D2A19996  37.688  24.503   8.250
 5767POPC   C3A19997  37.661  24.447   7.950
 5767POPC   C4A19998  37.690  24.452   7.650
 5767POPC   C1B19999  37.516  24.650   8.550
 5767POPC   C2B20000  37.537  24.731   8.250
 5767POPC   C3B20001  37.498  24.663   7.950
 5767POPC   C4B20002  37.507  24.674   7.650
 5768POPC   NC320003  10.499  36.134   9.450
 5768POPC   PO420004  10.528  36.101   9.150
 5768POPC   GL120005  10.498  36.121   8.850
 5768POPC   GL220006  10.493  36.267   8.850
 5768POPC   C1A20007  10.518  36.127   8.550
 5768POPC   D2A20008  10.507  36.130   8.250
 5768POPC   C3A20009  10.479  36.168   7.950
 5768POPC   C4A20010  10.536  36.149   7.650
 5768POPC   C1B20011  10.375  36.327   8.550
 5768POPC   C2B20012  10.336  36.352   8.250
 5768POPC   C3B20013  10.361  36.347   7.950
 5768POPC   C4B20014  10.332  36.317   7.650
 5769POPC   NC320015   7.424  36.941   9.450
 5769POPC   PO420016   7.465  36.917   9.150
 5769POPC   GL120017   7.382  36.914   8.850
 5769POPC   GL220018   7.534  36.878   8.850
 5769POPC   C1A20019   7.452  36.884   8.550
 5769POPC   D2A20020   7.396  36.937   8.250
 5769POPC   C3A20021   7.460  36.899   7.950
 5769POPC   C4A20022   7.383  36.951   7.650
 5769POPC   C1B20023   7.668  36.895   8.550
 5769POPC   C2B20024   7.660  36.879   8.250
 5769POPC   C3B20025   7.657  36.860   7.950
 5769POPC   C4B20026   7.620  36.898   7.650
 5770POPC   NC320027  15.952  16.685   9.450
 5770POPC   PO420028  15.978  16.720   9.150
 5770POPC   GL120029  15.932  16.736   8.850
 5770POPC   GL220030  16.104  16.715   8.850
 5770POPC   C1A20031  15.945  16.710   8.550
 5770POPC   D2A20032  15.983  16.727   8.250
 5770POPC   C3A20033  15.917  16.702   7.950
 5770POPC   C4A20034  15.928  16.756   7.650
 5770POPC   C1B20035  16.227  16.722   8.550
 5770POPC   C2B20036  16.205  16.734   8.250
 5770POPC   C3B20037  16.198  16.701   7.950
 5770POPC   C4B20038  16.246  16.745   7.650
 5771POPC   NC320039  22.982  41.514   9.450
 5771POPC   PO420040  22.929  41.562   9.150
 5771POPC   GL120041  22.933  41.593   8.850
 5771POPC   GL220042  22.918  41.471   8.850
 5771POPC   C1A20043  22.911  41.603   8.550
 5771POPC   D2A20044  22.977  41.513   8.250
 5771POPC   C3A20045  22.935  41.607   7.950
 5771POPC   C4A20046  22.926  41.596   7.650
 5771POPC   C1B20047  22.852  41.326   8.550
 5771POPC   C2B20048  22.764  41.338   8.250
 5771POPC   C3B20049  22.858  41.340   7.950
 5771POPC   C4B20050  22.817  41.355   7.650
 5772POPC   NC320051  38.472  26.078   9.450
 5772POPC   PO420052  38.492  25.997   9.150
 5772POPC   GL120053  38.421  26.089   8.850
 5772POPC   GL220054  38.335  26.030   8.850
 5772POPC   C1A20055  38.455  26.065   8.550
 5772POPC   D2A20056  38.484  26.057   8.250
 5772POPC   C3A20057  38.412  26.026   7.950
 5772POPC   C4A20058  38.411  26.088   7.650
 5772POPC   C1B20059  38.240  25.915   8.550
 5772POPC   C2B20060  38.187  25.977   8.250
 5772POPC   C3B20061  38.237  25.962   7.950
 5772POPC   C4B20062  38.231  25.922   7.650
 5773POPC   NC320063  29.887  14.403   9.450
 5773POPC   PO420064  29.920  14.424   9.150
 5773POPC   GL120065  29.923  14.404   8.850
 5773POPC   GL220066  29.814  14.542   8.850
 5773POPC   C1A20067  29.947  14.433   8.550
 5773POPC   D2A20068  29.902  14.366   8.250
 5773POPC   C3A20069  29.967  14.427   7.950
 5773POPC   C4A20070  29.931  14.395   7.650
 5773POPC   C1B20071  29.766  14.611   8.550
 5773POPC   C2B20072  29.842  14.614   8.250
 5773POPC   C3B20073  29.831  14.632   7.950
 5773POPC   C4B20074  29.750  14.616   7.650
 5774POPC   NC320075  12.029  10.518   9.450
 5774POPC   PO420076  12.118  10.486   9.150
 5774POPC   GL120077  12.084  10.507   8.850
 5774POPC   GL220078  12.165  10.454   8.850
 5774POPC   C1A20079  12.033  10.560   8.550
 5774POPC   D2A20080  12.046  10.511   8.250
 5774POPC   C3A20081  12.078  10.508   7.950
 5774POPC   C4A20082  12.074  10.540   7.650
 5774POPC   C1B20083  12.237  10.338   8.550
 5774POPC   C2B20084  12.222  10.357   8.250
 5774POPC   C3B20085  12.241  10.383   7.950
 5774POPC   C4B20086  12.254  10.379   7.650
 5775POPC   NC320087   6.619  44.641   9.450
 5775POPC   PO420088   6.690  44.703   9.150
 5775POPC   GL120089   6.650  44.632   8.850
 5775POPC   GL220090   6.707  44.563   8.850
 5775POPC   C1A20091   6.639  44.639   8.550
 5775POPC   D2A20092   6.613  44.641   8.250
 5775POPC   C3A20093   6.610  44.712   7.950
 5775POPC   C4A20094   6.668  44.626   7.650
 5775POPC   C1B20095   6.707  44.406   8.550
 5775POPC   C2B20096   6.692  44.386   8.250
 5775POPC   C3B20097   6.671  44.395   7.950
 5775POPC   C4B20098   6.655  44.457   7.650
 5776POPC   NC320099  36.872  26.068   9.450
 5776POPC   PO420100  36.953  26.027   9.150
 5776POPC   GL120101  36.917  26.081   8.850
 5776POPC   GL220102  36.979  26.031   8.850
 5776POPC   C1A20103  36.916  26.051   8.550
 5776POPC   D2A20104  36.890  26.076   8.250
 5776POPC   C3A20105  36.925  25.998   7.950
 5776POPC   C4A20106  36.921  26.007   7.650
 5776POPC   C1B20107  37.135  25.973   8.550
 5776POPC   C2B20108  37.180  25.942   8.250
 5776POPC   C3B20109  37.181  25.995   7.950
 5776POPC   C4B20110  37.132  25.945   7.650
 5777POPC   NC320111   3.531  36.154   9.450
 5777POPC   PO420112   3.587  36.154   9.150
 5777POPC   GL120113   3.497  36.089   8.850
 5777POPC   GL220114   3.626  36.062   8.850
 5777POPC   C1A20115   3.512  36.134   8.550
 5777POPC   D2A20116   3.541  36.124   8.250
 5777POPC   C3A20117   3.571  36.167   7.950
 5777POPC   C4A20118   3.498  36.123   7.650
 5777POPC   C1B20119   3.794  36.045   8.550
 5777POPC   C2B20120   3.770  35.968   8.250
 5777POPC   C3B20121   3.708  36.017   7.950
 5777POPC   C4B20122   3.709  35.964   7.650
 5778POPC   NC320123  36.164  15.168   9.450
 5778POPC   PO420124  36.103  15.136   9.150
 5778POPC   GL120125  36.130  15.146   8.850
 5778POPC   GL220126  36.103  15.330   8.850
 5778POPC   C1A20127  36.177  15.171   8.550
 5778POPC   D2A20128  36.139  15.196   8.250
 5778POPC   C3A20129  36.114  15.201   7.950
 5778POPC   C4A20130  36.161  15.178   7.650
 5778POPC   C1B20131  36.097  15.404   8.550
 5778POPC   C2B20132  36.090  15.410   8.250
 5778POPC   C3B20133  36.026  15.452   7.950
 5778POPC   C4B20134  36.020  15.425   7.650
 5779POPC   NC320135  21.377  26.084   9.450
 5779POPC   PO420136  21.377  26.022   9.150
 5779POPC   GL120137  21.423  26.075   8.850
 5779POPC   GL220138  21.493  26.143   8.850
 5779POPC   C1A20139  21.377  25.994   8.550
 5779POPC   D2A20140  21.431  26.083   8.250
 5779POPC   C3A20141  21.342  26.015   7.950
 5779POPC   C4A20142  21.406  26.088   7.650
 5779POPC   C1B20143  21.502  26.281   8.550
 5779POPC   C2B20144  21.523  26.275   8.250
 5779POPC   C3B20145  21.499  26.207   7.950
 5779POPC   C4B20146  21.489  26.282   7.650
 5780POPC   NC320147  30.698  29.880   9.450
 5780POPC   PO420148  30.719  29.897   9.150
 5780POPC   GL120149  30.689  29.923   8.850
 5780POPC   GL220150  30.787  29.984   8.850
 5780POPC   C1A20151  30.715  29.886   8.550
 5780POPC   D2A20152  30.668  29.895   8.250
 5780POPC   C3A20153  30.724  29.890   7.950
 5780POPC   C4A20154  30.715  29.930   7.650
 5780POPC   C1B20155  30.824  30.106   8.550
 5780POPC   C2B20156  30.881  30.091   8.250
 5780POPC   C3B20157  30.891  30.118   7.950
 5780POPC   C4B20158  30.852  30.139   7.650
 5781POPC   NC320159  36.104   8.201   9.450
 5781POPC   PO420160  36.162   8.220   9.150
 5781POPC   GL120161  36.082   8.221   8.850
 5781POPC   GL220162  36.179   8.085   8.850
 5781POPC   C1A20163  36.094   8.205   8.550
 5781POPC   D2A20164  36.079   8.234   8.250
 5781POPC   C3A20165  36.103   8.222   7.950
 5781POPC   C4A20166  36.151   8.229   7.650
 5781POPC   C1B20167  36.288   7.996   8.550
 5781POPC   C2B20168  36.248   7.952   8.250
 5781POPC   C3B20169  36.276   7.997   7.950
 5781POPC   C4B20170  36.297   7.969   7.650
 5782POPC   NC320171  15.188  29.965   9.450
 5782POPC   PO420172  15.145  29.905   9.150
 5782POPC   GL120173  15.176  29.944   8.850
 5782POPC   GL220174  15.298  30.050   8.850
 5782POPC   C1A20175  15.169  29.948   8.550
 5782POPC   D2A20176  15.136  29.909   8.250
 5782POPC   C3A20177  15.141  29.884   7.950
 5782POPC   C4A20178  15.222  29.876   7.650
 5782POPC   C1B20179  15.318  30.122   8.550
 5782POPC   C2B20180  15.360  30.076   8.250
 5782POPC   C3B20181  15.398  30.121   7.950
 5782POPC   C4B20182  15.323  30.108   7.650
 5783POPC   NC320183  25.254  21.434   9.450
 5783POPC   PO420184  25.278  21.360   9.150
 5783POPC   GL120185  25.262  21.396   8.850
 5783POPC   GL220186  25.304  21.309   8.850
 5783POPC   C1A20187  25.221  21.350   8.550
 5783POPC   D2A20188  25.283  21.393   8.250
 5783POPC   C3A20189  25.231  21.432   7.950
 5783POPC   C4A20190  25.274  21.337   7.650
 5783POPC   C1B20191  25.407  21.215   8.550
 5783POPC   C2B20192  25.370  21.215   8.250
 5783POPC   C3B20193  25.383  21.216   7.950
 5783POPC   C4B20194  25.373  21.132   7.650
 5784POPC   NC320195  42.382  38.499   9.450
 5784POPC   PO420196  42.308  38.455   9.150
 5784POPC   GL120197  42.380  38.484   8.850
 5784POPC   GL220198  42.212  38.485   8.850
 5784POPC   C1A20199  42.311  38.409   8.550
 5784POPC   D2A20200  42.350  38.473   8.250
 5784POPC   C3A20201  42.324  38.464   7.950
 5784POPC   C4A20202  42.341  38.475   7.650
 5784POPC   C1B20203  42.117  38.611   8.550
 5784POPC   C2B20204  42.150  38.536   8.250
 5784POPC   C3B20205  42.087  38.566   7.950
 5784POPC   C4B20206  42.165  38.550   7.650
 5785POPC   NC320207  24.505  26.860   9.450
 5785POPC   PO420208  24.525  26.854   9.150
 5785POPC   GL120209  24.528  26.824   8.850
 5785POPC   GL220210  24.398  26.759   8.850
 5785POPC   C1A20211  24.502  26.849   8.550
 5785POPC   D2A20212  24.473  26.790   8.250
 5785POPC   C3A20213  24.451  26.827   7.950
 5785POPC   C4A20214  24.476  26.828   7.650
 5785POPC   C1B20215  24.268  26.647   8.550
 5785POPC   C2B20216  24.270  26.629   8.250
 5785POPC   C3B20217  24.320  26.610   7.950
 5785POPC   C4B20218  24.250  26.654   7.650
 5786POPC   NC320219  34.582   5.858   9.450
 5786POPC   PO420220  34.598   5.895   9.150
 5786POPC   GL120221  34.593   5.911   8.850
 5786POPC   GL220222  34.582   5.976   8.850
 5786POPC   C1A20223  34.590   5.868   8.550
 5786POPC   D2A20224  34.619   5.837   8.250
 5786POPC   C3A20225  34.621   5.832   7.950
 5786POPC   C4A20226  34.600   5.858   7.650
 5786POPC   C1B20227  34.690   6.110   8.550
 5786POPC   C2B20228  34.618   6.075   8.250
 5786POPC   C3B20229  34.645   6.122   7.950
 5786POPC   C4B20230  34.612   6.131   7.650
 5787POPC   NC320231  36.151  23.689   9.450
 5787POPC   PO420232  36.106  23.764   9.150
 5787POPC   GL120233  36.151  23.670   8.850
 5787POPC   GL220234  36.034  23.741   8.850
 5787POPC   C1A20235  36.126  23.681   8.550
 5787POPC   D2A20236  36.170  23.746   8.250
 5787POPC   C3A20237  36.168  23.700   7.950
 5787POPC   C4A20238  36.099  23.729   7.650
 5787POPC   C1B20239  35.887  23.877   8.550
 5787POPC   C2B20240  35.963  23.856   8.250
 5787POPC   C3B20241  35.943  23.842   7.950
 5787POPC   C4B20242  35.884  23.840   7.650
 5788POPC   NC320243  12.033  11.289   9.450
 5788POPC   PO420244  12.083  11.263   9.150
 5788POPC   GL120245  12.118  11.305   8.850
 5788POPC   GL220246  11.963  11.270   8.850
 5788POPC   C1A20247  12.118  11.253   8.550
 5788POPC   D2A20248  12.124  11.312   8.250
 5788POPC   C3A20249  12.122  11.316   7.950
 5788POPC   C4A20250  12.062  11.344   7.650
 5788POPC   C1B20251  11.787  11.252   8.550
 5788POPC   C2B20252  11.868  11.237   8.250
 5788POPC   C3B20253  11.824  11.335   7.950
 5788POPC   C4B20254  11.861  11.315   7.650
 5789POPC   NC320255  29.892  36.109   9.450
 5789POPC   PO420256  29.914  36.146   9.150
 5789POPC   GL120257  29.970  36.148   8.850
 5789POPC   GL220258  30.066  36.220   8.850
 5789POPC   C1A20259  29.913  36.160   8.550
 5789POPC   D2A20260  29.901  36.174   8.250
 5789POPC   C3A20261  29.956  36.091   7.950
 5789POPC   C4A20262  29.957  36.168   7.650
 5789POPC   C1B20263  30.131  36.199   8.550
 5789POPC   C2B20264  30.105  36.224   8.250
 5789POPC   C3B20265  30.167  36.206   7.950
 5789POPC   C4B20266  30.169  36.242   7.650
 5790POPC   NC320267  32.249   5.092   9.450
 5790POPC   PO420268  32.289   5.109   9.150
 5790POPC   GL120269  32.231   5.095   8.850
 5790POPC   GL220270  32.303   4.932   8.850
 5790POPC   C1A20271  32.297   5.099   8.550
 5790POPC   D2A20272  32.203   5.073   8.250
 5790POPC   C3A20273  32.282   5.109   7.950
 5790POPC   C4A20274  32.203   5.104   7.650
 5790POPC   C1B20275  32.384   4.867   8.550
 5790POPC   C2B20276  32.378   4.819   8.250
 5790POPC   C3B20277  32.314   4.908   7.950
 5790POPC   C4B20278  32.331   4.890   7.650
 5791POPC   NC320279   9.738   2.795   9.450
 5791POPC   PO420280   9.746   2.726   9.150
 5791POPC   GL120281   9.745   2.732   8.850
 5791POPC   GL220282   9.684   2.868   8.850
 5791POPC   C1A20283   9.788   2.762   8.550
 5791POPC   D2A20284   9.771   2.765   8.250
 5791POPC   C3A20285   9.742   2.773   7.950
 5791POPC   C4A20286   9.710   2.761   7.650
 5791POPC   C1B20287   9.648   2.966   8.550
 5791POPC   C2B20288   9.674   3.040   8.250
 5791POPC   C3B20289   9.706   3.028   7.950
 5791POPC   C4B20290   9.624   3.013   7.650
 5792POPC   NC320291  37.715  26.061   9.450
 5792POPC   PO420292  37.691  26.022   9.150
 5792POPC   GL120293  37.701  26.019   8.850
 5792POPC   GL220294  37.573  26.055   8.850
 5792POPC   C1A20295  37.665  26.030   8.550
 5792POPC   D2A20296  37.679  26.048   8.250
 5792POPC   C3A20297  37.705  26.073   7.950
 5792POPC   C4A20298  37.672  26.084   7.650
 5792POPC   C1B20299  37.481  26.089   8.550
 5792POPC   C2B20300  37.443  26.129   8.250
 5792POPC   C3B20301  37.446  26.140   7.950
 5792POPC   C4B20302  37.474  26.134   7.650
 5793POPC   NC320303   7.463  41.548   9.450
 5793POPC   PO420304   7.457  41.543   9.150
 5793POPC   GL120305   7.424  41.517   8.850
 5793POPC   GL220306   7.328  41.573   8.850
 5793POPC   C1A20307   7.403  41.601   8.550
 5793POPC   D2A20308   7.440  41.558   8.250
 5793POPC   C3A20309   7.443  41.567   7.950
 5793POPC   C4A20310   7.436  41.575   7.650
 5793POPC   C1B20311   7.182  41.537   8.550
 5793POPC   C2B20312   7.213  41.556   8.250
 5793POPC   C3B20313   7.149  41.499   7.950
 5793POPC   C4B20314   7.125  41.473   7.650
 5794POPC   NC320315  43.918  32.214   9.450
 5794POPC   PO420316  43.880  32.283   9.150
 5794POPC   GL120317  43.897  32.222   8.850
 5794POPC   GL220318  43.956  32.342   8.850
 5794POPC   C1A20319  43.922  32.268   8.550
 5794POPC   D2A20320  43.888  32.249   8.250
 5794POPC   C3A20321  43.839  32.254   7.950
 5794POPC   C4A20322  43.933  32.210   7.650
 5794POPC   C1B20323  43.967  32.497   8.550
 5794POPC   C2B20324  43.995  32.515   8.250
 5794POPC   C3B20325  44.034  32.453   7.950
 5794POPC   C4B20326  44.018  32.479   7.650
 5795POPC   NC320327  21.436  44.650   9.450
 5795POPC   PO420328  21.414  44.704   9.150
 5795POPC   GL120329  21.342  44.707   8.850
 5795POPC   GL220330  21.474  44.705   8.850
 5795POPC   C1A20331  21.343  44.636   8.550
 5795POPC   D2A20332  21.345  44.621   8.250
 5795POPC   C3A20333  21.423  44.661   7.950
 5795POPC   C4A20334  21.368  44.638   7.650
 5795POPC   C1B20335  21.629  44.694   8.550
 5795POPC   C2B20336  21.587  44.766   8.250
 5795POPC   C3B20337  21.589  44.683   7.950
 5795POPC   C4B20338  21.643  44.682   7.650
 5796POPC   NC320339   8.234  11.260   9.450
 5796POPC   PO420340   8.200  11.326   9.150
 5796POPC   GL120341   8.222  11.331   8.850
 5796POPC   GL220342   8.252  11.166   8.850
 5796POPC   C1A20343   8.182  11.265   8.550
 5796POPC   D2A20344   8.236  11.282   8.250
 5796POPC   C3A20345   8.170  11.313   7.950
 5796POPC   C4A20346   8.223  11.256   7.650
 5796POPC   C1B20347   8.294  11.044   8.550
 5796POPC   C2B20348   8.343  11.101   8.250
 5796POPC   C3B20349   8.311  11.065   7.950
 5796POPC   C4B20350   8.262  11.094   7.650
 5797POPC   NC320351  25.238  33.796   9.450
 5797POPC   PO420352  25.302  33.763   9.150
 5797POPC   GL120353  25.278  33.763   8.850
 5797POPC   GL220354  25.213  33.930   8.850
 5797POPC   C1A20355  25.224  33.836   8.550
 5797POPC   D2A20356  25.252  33.755   8.250
 5797POPC   C3A20357  25.281  33.763   7.950
 5797POPC   C4A20358  25.302  33.793   7.650
 5797POPC   C1B20359  25.108  34.026   8.550
 5797POPC   C2B20360  25.074  34.029   8.250
 5797POPC   C3B20361  25.089  33.993   7.950
 5797POPC   C4B20362  25.113  34.023   7.650
 5798POPC   NC320363  30.662  23.742   9.450
 5798POPC   PO420364  30.721  23.707   9.150
 5798POPC   GL120365  30.737  23.734   8.850
 5798POPC   GL220366  30.579  23.800   8.850
 5798POPC   C1A20367  30.670  23.685   8.550
 5798POPC   D2A20368  30.675  23.701   8.250
 5798POPC   C3A20369  30.705  23.673   7.950
 5798POPC   C4A20370  30.670  23.732   7.650
 5798POPC   C1B20371  30.522  23.848   8.550
 5798POPC   C2B20372  30.507  23.902   8.250
 5798POPC   C3B20373  30.520  23.902   7.950
 5798POPC   C4B20374  30.533  23.821   7.650
 5799POPC   NC320375   2.805  19.831   9.450
 5799POPC   PO420376   2.772  19.868   9.150
 5799POPC   GL120377   2.718  19.858   8.850
 5799POPC   GL220378   2.839  19.821   8.850
 5799POPC   C1A20379   2.753  19.865   8.550
 5799POPC   D2A20380   2.788  19.862   8.250
 5799POPC   C3A20381   2.791  19.869   7.950
 5799POPC   C4A20382   2.757  19.845   7.650
 5799POPC   C1B20383   3.056  19.863   8.550
 5799POPC   C2B20384   3.042  19.873   8.250
 5799POPC   C3B20385   2.971  19.852   7.950
 5799POPC   C4B20386   3.042  19.903   7.650
 5800POPC   NC320387  26.074  34.618   9.450
 5800POPC   PO420388  26.046  34.563   9.150
 5800POPC   GL120389  26.085  34.591   8.850
 5800POPC   GL220390  26.191  34.647   8.850
 5800POPC   C1A20391  26.080  34.560   8.550
 5800POPC   D2A20392  25.997  34.559   8.250
 5800POPC   C3A20393  26.010  34.584   7.950
 5800POPC   C4A20394  26.058  34.621   7.650
 5800POPC   C1B20395  26.299  34.733   8.550
 5800POPC   C2B20396  26.268  34.666   8.250
 5800POPC   C3B20397  26.301  34.657   7.950
 5800POPC   C4B20398  26.280  34.686   7.650
 5801POPC   NC320399  36.143  42.314   9.450
 5801POPC   PO420400  36.158  42.311   9.150
 5801POPC   GL120401  36.172  42.353   8.850
 5801POPC   GL220402  36.022  42.278   8.850
 5801POPC   C1A20403  36.089  42.346   8.550
 5801POPC   D2A20404  36.104  42.375   8.250
 5801POPC   C3A20405  36.133  42.361   7.950
 5801POPC   C4A20406  36.124  42.304   7.650
 5801POPC   C1B20407  35.961  42.204   8.550
 5801POPC   C2B20408  35.922  42.211   8.250
 5801POPC   C3B20409  35.912  42.167   7.950
 5801POPC   C4B20410  35.886  42.209   7.650
 5802POPC   NC320411   4.289  30.742   9.450
 5802POPC   PO420412   4.318  30.723   9.150
 5802POPC   GL120413   4.271  30.733   8.850
 5802POPC   GL220414   4.264  30.839   8.850
 5802POPC   C1A20415   4.300  30.655   8.550
 5802POPC   D2A20416   4.301  30.739   8.250
 5802POPC   C3A20417   4.295  30.735   7.950
 5802POPC   C4A20418   4.311  30.676   7.650
 5802POPC   C1B20419   4.310  30.927   8.550
 5802POPC   C2B20420   4.295  30.909   8.250
 5802POPC   C3B20421   4.271  30.986   7.950
 5802POPC   C4B20422   4.308  30.968   7.650
 5803POPC   NC320423  32.235  15.199   9.450
 5803POPC   PO420424  32.295  15.168   9.150
 5803POPC   GL120425  32.296  15.217   8.850
 5803POPC   GL220426  32.350  15.219   8.850
 5803POPC   C1A20427  32.296  15.146   8.550
 5803POPC   D2A20428  32.229  15.168   8.250
 5803POPC   C3A20429  32.255  15.222   7.950
 5803POPC   C4A20430  32.266  15.134   7.650
 5803POPC   C1B20431  32.409  15.335   8.550
 5803POPC   C2B20432  32.453  15.311   8.250
 5803POPC   C3B20433  32.460  15.286   7.950
 5803POPC   C4B20434  32.419  15.333   7.650
 5804POPC   NC320435  15.907  38.417   9.450
 5804POPC   PO420436  15.983  38.464   9.150
 5804POPC   GL120437  15.959  38.478   8.850
 5804POPC   GL220438  15.885  38.490   8.850
 5804POPC   C1A20439  15.997  38.421   8.550
 5804POPC   D2A20440  15.935  38.440   8.250
 5804POPC   C3A20441  15.957  38.485   7.950
 5804POPC   C4A20442  15.990  38.499   7.650
 5804POPC   C1B20443  15.720  38.591   8.550
 5804POPC   C2B20444  15.777  38.570   8.250
 5804POPC   C3B20445  15.784  38.545   7.950
 5804POPC   C4B20446  15.723  38.638   7.650
 5805POPC   NC320447  29.900  12.841   9.450
 5805POPC   PO420448  29.881  12.860   9.150
 5805POPC   GL120449  29.949  12.889   8.850
 5805POPC   GL220450  29.912  12.944   8.850
 5805POPC   C1A20451  29.888  12.826   8.550
 5805POPC   D2A20452  29.875  12.813   8.250
 5805POPC   C3A20453  29.903  12.885   7.950
 5805POPC   C4A20454  29.881  12.829   7.650
 5805POPC   C1B20455  29.847  13.130   8.550
 5805POPC   C2B20456  29.796  13.086   8.250
 5805POPC   C3B20457  29.820  13.133   7.950
 5805POPC   C4B20458  29.883  13.112   7.650
 5806POPC   NC320459  43.884  19.880   9.450
 5806POPC   PO420460  43.880  19.875   9.150
 5806POPC   GL120461  43.854  19.881   8.850
 5806POPC   GL220462  43.741  19.835   8.850
 5806POPC   C1A20463  43.894  19.838   8.550
 5806POPC   D2A20464  43.849  19.829   8.250
 5806POPC   C3A20465  43.841  19.870   7.950
 5806POPC   C4A20466  43.871  19.831   7.650
 5806POPC   C1B20467  43.596  19.811   8.550
 5806POPC   C2B20468  43.692  19.775   8.250
 5806POPC   C3B20469  43.680  19.723   7.950
 5806POPC   C4B20470  43.673  19.774   7.650
 5807POPC   NC320471   0.428  33.805   9.450
 5807POPC   PO420472   0.477  33.819   9.150
 5807POPC   GL120473   0.409  33.783   8.850
 5807POPC   GL220474   0.545  33.677   8.850
 5807POPC   C1A20475   0.393  33.830   8.550
 5807POPC   D2A20476   0.468  33.849   8.250
 5807POPC   C3A20477   0.433  33.779   7.950
 5807POPC   C4A20478   0.468  33.760   7.650
 5807POPC   C1B20479   0.602  33.585   8.550
 5807POPC   C2B20480   0.617  33.612   8.250
 5807POPC   C3B20481   0.638  33.587   7.950
 5807POPC   C4B20482   0.650  33.596   7.650
 5808POPC   NC320483   7.436   0.416   9.450
 5808POPC   PO420484   7.415   0.471   9.150
 5808POPC   GL120485   7.420   0.461   8.850
 5808POPC   GL220486   7.372   0.319   8.850
 5808POPC   C1A20487   7.457   0.466   8.550
 5808POPC   D2A20488   7.437   0.485   8.250
 5808POPC   C3A20489   7.421   0.488   7.950
 5808POPC   C4A20490   7.455   0.464   7.650
 5808POPC   C1B20491   7.355   0.193   8.550
 5808POPC   C2B20492   7.361   0.152   8.250
 5808POPC   C3B20493   7.349   0.221   7.950
 5808POPC   C4B20494   7.339   0.241   7.650
 5809POPC   NC320495  22.196   0.455   9.450
 5809POPC   PO420496  22.165   0.471   9.150
 5809POPC   GL120497  22.131   0.449   8.850
 5809POPC   GL220498  22.278   0.461   8.850
 5809POPC   C1A20499  22.157   0.395   8.550
 5809POPC   D2A20500  22.175   0.466   8.250
 5809POPC   C3A20501  22.165   0.423   7.950
 5809POPC   C4A20502  22.167   0.395   7.650
 5809POPC   C1B20503  22.376   0.574   8.550
 5809POPC   C2B20504  22.343   0.566   8.250
 5809POPC   C3B20505  22.341   0.538   7.950
 5809POPC   C4B20506  22.417   0.565   7.650
 5810POPC   NC320507   1.201  19.873   9.450
 5810POPC   PO420508   1.238  19.880   9.150
 5810POPC   GL120509   1.188  19.854   8.850
 5810POPC   GL220510   1.187  19.992   8.850
 5810POPC   C1A20511   1.229  19.813   8.550
 5810POPC   D2A20512   1.219  19.866   8.250
 5810POPC   C3A20513   1.231  19.884   7.950
 5810POPC   C4A20514   1.261  19.823   7.650
 5810POPC   C1B20515   1.082  20.072   8.550
 5810POPC   C2B20516   1.069  20.023   8.250
 5810POPC   C3B20517   1.084  20.059   7.950
 5810POPC   C4B20518   1.086  20.060   7.650
 5811POPC   NC320519  21.429   8.938   9.450
 5811POPC   PO420520  21.406   8.970   9.150
 5811POPC   GL120521  21.397   9.008   8.850
 5811POPC   GL220522  21.310   8.977   8.850
 5811POPC   C1A20523  21.343   8.978   8.550
 5811POPC   D2A20524  21.343   8.949   8.250
 5811POPC   C3A20525  21.386   8.945   7.950
 5811POPC   C4A20526  21.397   9.004   7.650
 5811POPC   C1B20527  21.149   8.931   8.550
 5811POPC   C2B20528  21.191   8.972   8.250
 5811POPC   C3B20529  21.175   8.921   7.950
 5811POPC   C4B20530  21.154   8.920   7.650
 5812POPC   NC320531  27.588   9.722   9.450
 5812POPC   PO420532  27.631   9.747   9.150
 5812POPC   GL120533  27.634   9.702   8.850
 5812POPC   GL220534  27.475   9.689   8.850
 5812POPC   C1A20535  27.623   9.725   8.550
 5812POPC   D2A20536  27.559   9.756   8.250
 5812POPC   C3A20537  27.563   9.774   7.950
 5812POPC   C4A20538  27.573   9.783   7.650
 5812POPC   C1B20539  27.313   9.742   8.550
 5812POPC   C2B20540  27.311   9.715   8.250
 5812POPC   C3B20541  27.301   9.714   7.950
 5812POPC   C4B20542  27.303   9.684   7.650
 5813POPC   NC320543  32.274   6.669   9.450
 5813POPC   PO420544  32.218   6.634   9.150
 5813POPC   GL120545  32.215   6.599   8.850
 5813POPC   GL220546  32.223   6.752   8.850
 5813POPC   C1A20547  32.237   6.603   8.550
 5813POPC   D2A20548  32.295   6.671   8.250
 5813POPC   C3A20549  32.224   6.680   7.950
 5813POPC   C4A20550  32.207   6.648   7.650
 5813POPC   C1B20551  32.170   6.867   8.550
 5813POPC   C2B20552  32.162   6.836   8.250
 5813POPC   C3B20553  32.110   6.835   7.950
 5813POPC   C4B20554  32.193   6.871   7.650
 5814POPC   NC320555  11.253  31.429   9.450
 5814POPC   PO420556  11.285  31.501   9.150
 5814POPC   GL120557  11.339  31.443   8.850
 5814POPC   GL220558  11.225  31.381   8.850
 5814POPC   C1A20559  11.312  31.485   8.550
 5814POPC   D2A20560  11.341  31.433   8.250
 5814POPC   C3A20561  11.332  31.423   7.950
 5814POPC   C4A20562  11.262  31.475   7.650
 5814POPC   C1B20563  11.173  31.256   8.550
 5814POPC   C2B20564  11.108  31.305   8.250
 5814POPC   C3B20565  11.165  31.264   7.950
 5814POPC   C4B20566  11.173  31.271   7.650
 5815POPC   NC320567   2.744  29.126   9.450
 5815POPC   PO420568   2.802  29.151   9.150
 5815POPC   GL120569   2.738  29.161   8.850
 5815POPC   GL220570   2.922  29.220   8.850
 5815POPC   C1A20571   2.723  29.125   8.550
 5815POPC   D2A20572   2.758  29.116   8.250
 5815POPC   C3A20573   2.755  29.139   7.950
 5815POPC   C4A20574   2.793  29.178   7.650
 5815POPC   C1B20575   3.043  29.236   8.550
 5815POPC   C2B20576   3.053  29.156   8.250
 5815POPC   C3B20577   3.009  29.240   7.950
 5815POPC   C4B20578   2.995  29.209   7.650
 5816POPC   NC320579  20.631  31.445   9.450
 5816POPC   PO420580  20.644  31.439   9.150
 5816POPC   GL120581  20.611  31.486   8.850
 5816POPC   GL220582  20.459  31.531   8.850
 5816POPC   C1A20583  20.640  31.506   8.550
 5816POPC   D2A20584  20.581  31.516   8.250
 5816POPC   C3A20585  20.585  31.496   7.950
 5816POPC   C4A20586  20.602  31.440   7.650
 5816POPC   C1B20587  20.407  31.508   8.550
 5816POPC   C2B20588  20.367  31.553   8.250
 5816POPC   C3B20589  20.355  31.564   7.950
 5816POPC   C4B20590  20.363  31.590   7.650
 5817POPC   NC320591  28.416  11.347   9.450
 5817POPC   PO420592  28.356  11.331   9.150
 5817POPC   GL120593  28.331  11.251   8.850
 5817POPC   GL220594  28.390  11.471   8.850
 5817POPC   C1A20595  28.366  11.321   8.550
 5817POPC   D2A20596  28.414  11.340   8.250
 5817POPC   C3A20597  28.332  11.307   7.950
 5817POPC   C4A20598  28.376  11.315   7.650
 5817POPC   C1B20599  28.403  11.584   8.550
 5817POPC   C2B20600  28.387  11.523   8.250
 5817POPC   C3B20601  28.371  11.575   7.950
 5817POPC   C4B20602  28.395  11.568   7.650
 5818POPC   NC320603  41.541  15.147   9.450
 5818POPC   PO420604  41.572  15.205   9.150
 5818POPC   GL120605  41.581  15.220   8.850
 5818POPC   GL220606  41.453  15.084   8.850
 5818POPC   C1A20607  41.513  15.215   8.550
 5818POPC   D2A20608  41.589  15.210   8.250
 5818POPC   C3A20609  41.530  15.218   7.950
 5818POPC   C4A20610  41.543  15.210   7.650
 5818POPC   C1B20611  41.381  15.071   8.550
 5818POPC   C2B20612  41.302  15.048   8.250
 5818POPC   C3B20613  41.326  15.092   7.950
 5818POPC   C4B20614  41.382  15.070   7.650
 5819POPC   NC320615  38.420  44.653   9.450
 5819POPC   PO420616  38.418  44.663   9.150
 5819POPC   GL120617  38.408  44.693   8.850
 5819POPC   GL220618  38.424  44.514   8.850
 5819POPC   C1A20619  38.432  44.659   8.550
 5819POPC   D2A20620  38.460  44.692   8.250
 5819POPC   C3A20621  38.445  44.646   7.950
 5819POPC   C4A20622  38.406  44.709   7.650
 5819POPC   C1B20623  38.333  44.434   8.550
 5819POPC   C2B20624  38.315  44.433   8.250
 5819POPC   C3B20625  38.308  44.419   7.950
 5819POPC   C4B20626  38.338  44.435   7.650
 5820POPC   NC320627  24.449  20.592   9.450
 5820POPC   PO420628  24.467  20.569   9.150
 5820POPC   GL120629  24.477  20.568   8.850
 5820POPC   GL220630  24.427  20.570   8.850
 5820POPC   C1A20631  24.523  20.586   8.550
 5820POPC   D2A20632  24.517  20.625   8.250
 5820POPC   C3A20633  24.472  20.566   7.950
 5820POPC   C4A20634  24.484  20.603   7.650
 5820POPC   C1B20635  24.245  20.438   8.550
 5820POPC   C2B20636  24.275  20.470   8.250
 5820POPC   C3B20637  24.278  20.487   7.950
 5820POPC   C4B20638  24.298  20.458   7.650
 5821POPC   NC320639  42.318  34.571   9.450
 5821POPC   PO420640  42.376  34.576   9.150
 5821POPC   GL120641  42.334  34.553   8.850
 5821POPC   GL220642  42.325  34.720   8.850
 5821POPC   C1A20643  42.312  34.577   8.550
 5821POPC   D2A20644  42.327  34.596   8.250
 5821POPC   C3A20645  42.334  34.557   7.950
 5821POPC   C4A20646  42.373  34.554   7.650
 5821POPC   C1B20647  42.268  34.838   8.550
 5821POPC   C2B20648  42.184  34.756   8.250
 5821POPC   C3B20649  42.269  34.796   7.950
 5821POPC   C4B20650  42.195  34.831   7.650
 5822POPC   NC320651  36.096  41.536   9.450
 5822POPC   PO420652  36.106  41.539   9.150
 5822POPC   GL120653  36.172  41.572   8.850
 5822POPC   GL220654  36.191  41.532   8.850
 5822POPC   C1A20655  36.135  41.582   8.550
 5822POPC   D2A20656  36.162  41.537   8.250
 5822POPC   C3A20657  36.126  41.562   7.950
 5822POPC   C4A20658  36.103  41.551   7.650
 5822POPC   C1B20659  36.346  41.462   8.550
 5822POPC   C2B20660  36.367  41.380   8.250
 5822POPC   C3B20661  36.343  41.375   7.950
 5822POPC   C4B20662  36.342  41.457   7.650
 5823POPC   NC320663  40.797  29.149   9.450
 5823POPC   PO420664  40.798  29.126   9.150
 5823POPC   GL120665  40.740  29.100   8.850
 5823POPC   GL220666  40.654  29.048   8.850
 5823POPC   C1A20667  40.808  29.172   8.550
 5823POPC   D2A20668  40.789  29.174   8.250
 5823POPC   C3A20669  40.759  29.190   7.950
 5823POPC   C4A20670  40.825  29.182   7.650
 5823POPC   C1B20671  40.509  29.010   8.550
 5823POPC   C2B20672  40.524  28.999   8.250
 5823POPC   C3B20673  40.517  29.090   7.950
 5823POPC   C4B20674  40.563  29.062   7.650
 5824POPC   NC320675  28.356   4.322   9.450
 5824POPC   PO420676  28.407   4.327   9.150
 5824POPC   GL120677  28.407   4.298   8.850
 5824POPC   GL220678  28.251   4.321   8.850
 5824POPC   C1A20679  28.389   4.363   8.550
 5824POPC   D2A20680  28.393   4.328   8.250
 5824POPC   C3A20681  28.363   4.325   7.950
 5824POPC   C4A20682  28.383   4.272   7.650
 5824POPC   C1B20683  28.150   4.295   8.550
 5824POPC   C2B20684  28.115   4.263   8.250
 5824POPC   C3B20685  28.088   4.320   7.950
 5824POPC   C4B20686  28.106   4.329   7.650
 5825POPC   NC320687   5.062  14.413   9.450
 5825POPC   PO420688   5.102  14.405   9.150
 5825POPC   GL120689   5.058  14.412   8.850
 5825POPC   GL220690   5.223  14.288   8.850
 5825POPC   C1A20691   5.113  14.434   8.550
 5825POPC   D2A20692   5.138  14.396   8.250
 5825POPC   C3A20693   5.075  14.369   7.950
 5825POPC   C4A20694   5.097  14.377   7.650
 5825POPC   C1B20695   5.256  14.266   8.550
 5825POPC   C2B20696   5.245  14.179   8.250
 5825POPC   C3B20697   5.231  14.223   7.950
 5825POPC   C4B20698   5.265  14.235   7.650
 5826POPC   NC320699  26.059  24.455   9.450
 5826POPC   PO420700  26.004  24.524   9.150
 5826POPC   GL120701  25.993  24.471   8.850
 5826POPC   GL220702  25.995  24.355   8.850
 5826POPC   C1A20703  26.053  24.520   8.550
 5826POPC   D2A20704  26.058  24.443   8.250
 5826POPC   C3A20705  26.035  24.484   7.950
 5826POPC   C4A20706  26.066  24.524   7.650
 5826POPC   C1B20707  26.081  24.238   8.550
 5826POPC   C2B20708  26.066  24.285   8.250
 5826POPC   C3B20709  26.087  24.224   7.950
 5826POPC   C4B20710  26.003  24.250   7.650
 5827POPC   NC320711  14.355  26.860   9.450
 5827POPC   PO420712  14.416  26.824   9.150
 5827POPC   GL120713  14.385  26.792   8.850
 5827POPC   GL220714  14.297  26.872   8.850
 5827POPC   C1A20715  14.391  26.803   8.550
 5827POPC   D2A20716  14.432  26.848   8.250
 5827POPC   C3A20717  14.408  26.844   7.950
 5827POPC   C4A20718  14.404  26.822   7.650
 5827POPC   C1B20719  14.139  26.861   8.550
 5827POPC   C2B20720  14.172  26.879   8.250
 5827POPC   C3B20721  14.183  26.807   7.950
 5827POPC   C4B20722  14.180  26.860   7.650
 5828POPC   NC320723  30.659   6.636   9.450
 5828POPC   PO420724  30.687   6.692   9.150
 5828POPC   GL120725  30.669   6.638   8.850
 5828POPC   GL220726  30.572   6.598   8.850
 5828POPC   C1A20727  30.731   6.661   8.550
 5828POPC   D2A20728  30.696   6.605   8.250
 5828POPC   C3A20729  30.656   6.607   7.950
 5828POPC   C4A20730  30.648   6.601   7.650
 5828POPC   C1B20731  30.505   6.490   8.550
 5828POPC   C2B20732  30.490   6.556   8.250
 5828POPC   C3B20733  30.487   6.566   7.950
 5828POPC   C4B20734  30.482   6.498   7.650
 5829POPC   NC320735   7.404  22.171   9.450
 5829POPC   PO420736   7.463  22.169   9.150
 5829POPC   GL120737   7.415  22.166   8.850
 5829POPC   GL220738   7.298  22.176   8.850
 5829POPC   C1A20739   7.396  22.191   8.550
 5829POPC   D2A20740   7.382  22.177   8.250
 5829POPC   C3A20741   7.391  22.198   7.950
 5829POPC   C4A20742   7.434  22.164   7.650
 5829POPC   C1B20743   7.236  22.298   8.550
 5829POPC   C2B20744   7.158  22.230   8.250
 5829POPC   C3B20745   7.205  22.264   7.950
 5829POPC   C4B20746   7.237  22.316   7.650
 5830POPC   NC320747  36.855  21.413   9.450
 5830POPC   PO420748  36.871  21.392   9.150
 5830POPC   GL120749  36.890  21.401   8.850
 5830POPC   GL220750  36.760  21.442   8.850
 5830POPC   C1A20751  36.902  21.341   8.550
 5830POPC   D2A20752  36.891  21.376   8.250
 5830POPC   C3A20753  36.864  21.381   7.950
 5830POPC   C4A20754  36.928  21.405   7.650
 5830POPC   C1B20755  36.636  21.519   8.550
 5830POPC   C2B20756  36.652  21.469   8.250
 5830POPC   C3B20757  36.690  21.469   7.950
 5830POPC   C4B20758  36.630  21.482   7.650
 5831POPC   NC320759   1.170  14.451   9.450
 5831POPC   PO420760   1.237  14.371   9.150
 5831POPC   GL120761   1.219  14.393   8.850
 5831POPC   GL220762   1.100  14.382   8.850
 5831POPC   C1A20763   1.193  14.419   8.550
 5831POPC   D2A20764   1.189  14.369   8.250
 5831POPC   C3A20765   1.264  14.418   7.950
 5831POPC   C4A20766   1.245  14.388   7.650
 5831POPC   C1B20767   1.039  14.228   8.550
 5831POPC   C2B20768   1.044  14.236   8.250
 5831POPC   C3B20769   0.957  14.284   7.950
 5831POPC   C4B20770   0.964  14.247   7.650
 5832POPC   NC320771  32.286  24.448   9.450
 5832POPC   PO420772  32.254  24.470   9.150
 5832POPC   GL120773  32.250  24.457   8.850
 5832POPC   GL220774  32.336  24.652   8.850
 5832POPC   C1A20775  32.264  24.440   8.550
 5832POPC   D2A20776  32.282  24.471   8.250
 5832POPC   C3A20777  32.270  24.537   7.950
 5832POPC   C4A20778  32.269  24.493   7.650
 5832POPC   C1B20779  32.318  24.737   8.550
 5832POPC   C2B20780  32.353  24.717   8.250
 5832POPC   C3B20781  32.388  24.755   7.950
 5832POPC   C4B20782  32.298  24.726   7.650
 5833POPC   NC320783  22.208  33.060   9.450
 5833POPC   PO420784  22.207  32.989   9.150
 5833POPC   GL120785  22.178  32.977   8.850
 5833POPC   GL220786  22.257  32.954   8.850
 5833POPC   C1A20787  22.200  32.979   8.550
 5833POPC   D2A20788  22.153  33.019   8.250
 5833POPC   C3A20789  22.175  32.976   7.950
 5833POPC   C4A20790  22.211  32.981   7.650
 5833POPC   C1B20791  22.393  32.875   8.550
 5833POPC   C2B20792  22.339  32.917   8.250
 5833POPC   C3B20793  22.344  32.847   7.950
 5833POPC   C4B20794  22.380  32.921   7.650
 5834POPC   NC320795  24.522  28.355   9.450
 5834POPC   PO420796  24.538  28.334   9.150
 5834POPC   GL120797  24.517  28.398   8.850
 5834POPC   GL220798  24.561  28.310   8.850
 5834POPC   C1A20799  24.532  28.384   8.550
 5834POPC   D2A20800  24.449  28.345   8.250
 5834POPC   C3A20801  24.521  28.409   7.950
 5834POPC   C4A20802  24.470  28.394   7.650
 5834POPC   C1B20803  24.579  28.172   8.550
 5834POPC   C2B20804  24.604  28.192   8.250
 5834POPC   C3B20805  24.577  28.160   7.950
 5834POPC   C4B20806  24.581  28.156   7.650
 5835POPC   NC320807  37.725  32.216   9.450
 5835POPC   PO420808  37.660  32.243   9.150
 5835POPC   GL120809  37.644  32.241   8.850
 5835POPC   GL220810  37.750  32.101   8.850
 5835POPC   C1A20811  37.668  32.266   8.550
 5835POPC   D2A20812  37.700  32.216   8.250
 5835POPC   C3A20813  37.635  32.238   7.950
 5835POPC   C4A20814  37.698  32.277   7.650
 5835POPC   C1B20815  37.826  32.061   8.550
 5835POPC   C2B20816  37.841  32.046   8.250
 5835POPC   C3B20817  37.782  32.030   7.950
 5835POPC   C4B20818  37.799  32.015   7.650
 5836POPC   NC320819   6.622   5.141   9.450
 5836POPC   PO420820   6.648   5.140   9.150
 5836POPC   GL120821   6.600   5.045   8.850
 5836POPC   GL220822   6.585   5.146   8.850
 5836POPC   C1A20823   6.658   5.066   8.550
 5836POPC   D2A20824   6.629   5.052   8.250
 5836POPC   C3A20825   6.623   5.096   7.950
 5836POPC   C4A20826   6.636   5.045   7.650
 5836POPC   C1B20827   6.400   5.227   8.550
 5836POPC   C2B20828   6.475   5.265   8.250
 5836POPC   C3B20829   6.404   5.248   7.950
 5836POPC   C4B20830   6.461   5.265   7.650
 5837POPC   NC320831  36.869  36.888   9.450
 5837POPC   PO420832  36.882  36.918   9.150
 5837POPC   GL120833  36.893  36.949   8.850
 5837POPC   GL220834  36.838  37.002   8.850
 5837POPC   C1A20835  36.904  36.940   8.550
 5837POPC   D2A20836  36.880  36.923   8.250
 5837POPC   C3A20837  36.867  36.906   7.950
 5837POPC   C4A20838  36.883  36.947   7.650
 5837POPC   C1B20839  36.739  37.089   8.550
 5837POPC   C2B20840  36.741  37.050   8.250
 5837POPC   C3B20841  36.692  37.070   7.950
 5837POPC   C4B20842  36.753  37.038   7.650
 5838POPC   NC320843  36.174   1.993   9.450
 5838POPC   PO420844  36.155   2.004   9.150
 5838POPC   GL120845  36.096   2.003   8.850
 5838POPC   GL220846  36.037   2.099   8.850
 5838POPC   C1A20847  36.121   1.998   8.550
 5838POPC   D2A20848  36.129   2.013   8.250
 5838POPC   C3A20849  36.157   1.956   7.950
 5838POPC   C4A20850  36.170   1.960   7.650
 5838POPC   C1B20851  35.887   2.172   8.550
 5838POPC   C2B20852  35.965   2.127   8.250
 5838POPC   C3B20853  35.950   2.109   7.950
 5838POPC   C4B20854  35.885   2.188   7.650
 5839POPC   NC320855  14.413  29.907   9.450
 5839POPC   PO420856  14.381  29.946   9.150
 5839POPC   GL120857  14.451  29.938   8.850
 5839POPC   GL220858  14.452  29.829   8.850
 5839POPC   C1A20859  14.380  29.910   8.550
 5839POPC   D2A20860  14.428  29.917   8.250
 5839POPC   C3A20861  14.397  29.899   7.950
 5839POPC   C4A20862  14.410  29.895   7.650
 5839POPC   C1B20863  14.432  29.651   8.550
 5839POPC   C2B20864  14.440  29.703   8.250
 5839POPC   C3B20865  14.459  29.638   7.950
 5839POPC   C4B20866  14.486  29.725   7.650
 5840POPC   NC320867  13.609  43.141   9.450
 5840POPC   PO420868  13.644  43.078   9.150
 5840POPC   GL120869  13.675  43.092   8.850
 5840POPC   GL220870  13.532  43.224   8.850
 5840POPC   C1A20871  13.669  43.147   8.550
 5840POPC   D2A20872  13.581  43.075   8.250
 5840POPC   C3A20873  13.641  43.109   7.950
 5840POPC   C4A20874  13.613  43.138   7.650
 5840POPC   C1B20875  13.495  43.249   8.550
 5840POPC   C2B20876  13.428  43.284   8.250
 5840POPC   C3B20877  13.496  43.314   7.950
 5840POPC   C4B20878  13.501  43.282   7.650
 5841POPC   NC320879  39.223  12.814   9.450
 5841POPC   PO420880  39.195  12.847   9.150
 5841POPC   GL120881  39.227  12.883   8.850
 5841POPC   GL220882  39.169  12.985   8.850
 5841POPC   C1A20883  39.235  12.822   8.550
 5841POPC   D2A20884  39.201  12.880   8.250
 5841POPC   C3A20885  39.241  12.865   7.950
 5841POPC   C4A20886  39.277  12.900   7.650
 5841POPC   C1B20887  39.135  13.053   8.550
 5841POPC   C2B20888  39.127  13.042   8.250
 5841POPC   C3B20889  39.086  13.065   7.950
 5841POPC   C4B20890  39.112  13.105   7.650
 5842POPC   NC320891  24.524  31.446   9.450
 5842POPC   PO420892  24.513  31.423   9.150
 5842POPC   GL120893  24.473  31.433   8.850
 5842POPC   GL220894  24.402  31.345   8.850
 5842POPC   C1A20895  24.518  31.499   8.550
 5842POPC   D2A20896  24.471  31.459   8.250
 5842POPC   C3A20897  24.523  31.456   7.950
 5842POPC   C4A20898  24.485  31.471   7.650
 5842POPC   C1B20899  24.401  31.263   8.550
 5842POPC   C2B20900  24.431  31.292   8.250
 5842POPC   C3B20901  24.431  31.267   7.950
 5842POPC   C4B20902  24.372  31.195   7.650
 5843POPC   NC320903   9.764  26.006   9.450
 5843POPC   PO420904   9.731  26.056   9.150
 5843POPC   GL120905   9.793  26.045   8.850
 5843POPC   GL220906   9.841  26.039   8.850
 5843POPC   C1A20907   9.763  26.028   8.550
 5843POPC   D2A20908   9.740  25.994   8.250
 5843POPC   C3A20909   9.768  26.015   7.950
 5843POPC   C4A20910   9.781  25.992   7.650
 5843POPC   C1B20911  10.000  26.141   8.550
 5843POPC   C2B20912   9.995  26.077   8.250
 5843POPC   C3B20913  10.016  26.144   7.950
 5843POPC   C4B20914  10.015  26.109   7.650
 5844POPC   NC320915   4.358  12.109   9.450
 5844POPC   PO420916   4.347  12.055   9.150
 5844POPC   GL120917   4.269  12.108   8.850
 5844POPC   GL220918   4.286  12.175   8.850
 5844POPC   C1A20919   4.321  12.029   8.550
 5844POPC   D2A20920   4.326  12.052   8.250
 5844POPC   C3A20921   4.355  12.028   7.950
 5844POPC   C4A20922   4.337  12.044   7.650
 5844POPC   C1B20923   4.255  12.338   8.550
 5844POPC   C2B20924   4.277  12.317   8.250
 5844POPC   C3B20925   4.294  12.312   7.950
 5844POPC   C4B20926   4.266  12.302   7.650
 5845POPC   NC320927   2.779  27.588   9.450
 5845POPC   PO420928   2.810  27.577   9.150
 5845POPC   GL120929   2.732  27.560   8.850
 5845POPC   GL220930   2.750  27.426   8.850
 5845POPC   C1A20931   2.793  27.553   8.550
 5845POPC   D2A20932   2.813  27.595   8.250
 5845POPC   C3A20933   2.759  27.590   7.950
 5845POPC   C4A20934   2.811  27.579   7.650
 5845POPC   C1B20935   2.810  27.374   8.550
 5845POPC   C2B20936   2.824  27.300   8.250
 5845POPC   C3B20937   2.858  27.312   7.950
 5845POPC   C4B20938   2.828  27.337   7.650
 5846POPC   NC320939  20.641  33.057   9.450
 5846POPC   PO420940  20.565  33.020   9.150
 5846POPC   GL120941  20.610  33.015   8.850
 5846POPC   GL220942  20.749  33.071   8.850
 5846POPC   C1A20943  20.608  33.071   8.550
 5846POPC   D2A20944  20.610  33.049   8.250
 5846POPC   C3A20945  20.565  33.030   7.950
 5846POPC   C4A20946  20.563  33.017   7.650
 5846POPC   C1B20947  20.811  33.083   8.550
 5846POPC   C2B20948  20.874  33.034   8.250
 5846POPC   C3B20949  20.890  33.079   7.950
 5846POPC   C4B20950  20.898  33.086   7.650
 5847POPC   NC320951  31.423  10.532   9.450
 5847POPC   PO420952  31.515  10.555   9.150
 5847POPC   GL120953  31.445  10.519   8.850
 5847POPC   GL220954  31.398  10.545   8.850
 5847POPC   C1A20955  31.436  10.573   8.550
 5847POPC   D2A20956  31.449  10.544   8.250
 5847POPC   C3A20957  31.467  10.488   7.950
 5847POPC   C4A20958  31.476  10.551   7.650
 5847POPC   C1B20959  31.247  10.603   8.550
 5847POPC   C2B20960  31.255  10.574   8.250
 5847POPC   C3B20961  31.235  10.589   7.950
 5847POPC   C4B20962  31.220  10.563   7.650
 5848POPC   NC320963  11.267  35.353   9.450
 5848POPC   PO420964  11.326  35.346   9.150
 5848POPC   GL120965  11.309  35.367   8.850
 5848POPC   GL220966  11.170  35.331   8.850
 5848POPC   C1A20967  11.299  35.328   8.550
 5848POPC   D2A20968  11.267  35.370   8.250
 5848POPC   C3A20969  11.344  35.309   7.950
 5848POPC   C4A20970  11.257  35.319   7.650
 5848POPC   C1B20971  11.101  35.425   8.550
 5848POPC   C2B20972  11.097  35.401   8.250
 5848POPC   C3B20973  11.070  35.387   7.950
 5848POPC   C4B20974  11.033  35.421   7.650
 5849POPC   NC320975  15.972  39.960   9.450
 5849POPC   PO420976  15.965  39.986   9.150
 5849POPC   GL120977  15.928  40.048   8.850
 5849POPC   GL220978  16.049  40.036   8.850
 5849POPC   C1A20979  15.986  40.039   8.550
 5849POPC   D2A20980  15.965  40.022   8.250
 5849POPC   C3A20981  15.907  40.057   7.950
 5849POPC   C4A20982  15.945  40.001   7.650
 5849POPC   C1B20983  16.155  39.996   8.550
 5849POPC   C2B20984  16.157  40.066   8.250
 5849POPC   C3B20985  16.185  40.014   7.950
 5849POPC   C4B20986  16.215  40.038   7.650
 5850POPC   NC320987   3.544  39.203   9.450
 5850POPC   PO420988   3.534  39.257   9.150
 5850POPC   GL120989   3.540  39.250   8.850
 5850POPC   GL220990   3.501  39.113   8.850
 5850POPC   C1A20991   3.540  39.184   8.550
 5850POPC   D2A20992   3.572  39.248   8.250
 5850POPC   C3A20993   3.500  39.243   7.950
 5850POPC   C4A20994   3.537  39.222   7.650
 5850POPC   C1B20995   3.460  38.995   8.550
 5850POPC   C2B20996   3.469  38.962   8.250
 5850POPC   C3B20997   3.419  38.958   7.950
 5850POPC   C4B20998   3.498  39.046   7.650
 5851POPC   NC320999  40.795  36.085   9.450
 5851POPC   PO421000  40.752  36.150   9.150
 5851POPC   GL121001  40.816  36.153   8.850
 5851POPC   GL221002  40.910  36.188   8.850
 5851POPC   C1A21003  40.784  36.168   8.550
 5851POPC   D2A21004  40.743  36.140   8.250
 5851POPC   C3A21005  40.828  36.129   7.950
 5851POPC   C4A21006  40.811  36.112   7.650
 5851POPC   C1B21007  40.969  36.264   8.550
 5851POPC   C2B21008  40.935  36.272   8.250
 5851POPC   C3B21009  40.994  36.290   7.950
 5851POPC   C4B21010  40.954  36.267   7.650
 5852POPC   NC321011   2.033  34.581   9.450
 5852POPC   PO421012   1.976  34.619   9.150
 5852POPC   GL121013   1.991  34.554   8.850
 5852POPC   GL221014   1.949  34.684   8.850
 5852POPC   C1A21015   1.956  34.600   8.550
 5852POPC   D2A21016   2.023  34.562   8.250
 5852POPC   C3A21017   1.947  34.532   7.950
 5852POPC   C4A21018   2.002  34.607   7.650
 5852POPC   C1B21019   1.818  34.806   8.550
 5852POPC   C2B21020   1.833  34.782   8.250
 5852POPC   C3B21021   1.843  34.773   7.950
 5852POPC   C4B21022   1.790  34.739   7.650
 5853POPC   NC321023  36.905  12.081   9.450
 5853POPC   PO421024  36.910  12.048   9.150
 5853POPC   GL121025  36.878  12.091   8.850
 5853POPC   GL221026  36.862  11.970   8.850
 5853POPC   C1A21027  36.876  12.123   8.550
 5853POPC   D2A21028  36.922  12.090   8.250
 5853POPC   C3A21029  36.941  12.026   7.950
 5853POPC   C4A21030  36.877  12.053   7.650
 5853POPC   C1B21031  36.694  11.902   8.550
 5853POPC   C2B21032  36.724  11.946   8.250
 5853POPC   C3B21033  36.730  11.873   7.950
 5853POPC   C4B21034  36.676  11.906   7.650
 5854POPC   NC321035  28.393  34.542   9.450
 5854POPC   PO421036  28.391  34.619   9.150
 5854POPC   GL121037  28.334  34.620   8.850
 5854POPC   GL221038  28.230  34.610   8.850
 5854POPC   C1A21039  28.390  34.553   8.550
 5854POPC   D2A21040  28.389  34.577   8.250
 5854POPC   C3A21041  28.352  34.580   7.950
 5854POPC   C4A21042  28.388  34.558   7.650
 5854POPC   C1B21043  28.154  34.677   8.550
 5854POPC   C2B21044  28.120  34.611   8.250
 5854POPC   C3B21045  28.126  34.648   7.950
 5854POPC   C4B21046  28.124  34.652   7.650
 5855POPC   NC321047   2.720  41.533   9.450
 5855POPC   PO421048   2.718  41.518   9.150
 5855POPC   GL121049   2.735  41.532   8.850
 5855POPC   GL221050   2.861  41.622   8.850
 5855POPC   C1A21051   2.784  41.565   8.550
 5855POPC   D2A21052   2.733  41.566   8.250
 5855POPC   C3A21053   2.724  41.531   7.950
 5855POPC   C4A21054   2.733  41.570   7.650
 5855POPC   C1B21055   3.032  41.660   8.550
 5855POPC   C2B21056   3.048  41.597   8.250
 5855POPC   C3B21057   2.968  41.617   7.950
 5855POPC   C4B21058   2.995  41.620   7.650
 5856POPC   NC321059  20.602  33.765   9.450
 5856POPC   PO421060  20.563  33.849   9.150
 5856POPC   GL121061  20.632  33.838   8.850
 5856POPC   GL221062  20.533  33.874   8.850
 5856POPC   C1A21063  20.578  33.774   8.550
 5856POPC   D2A21064  20.653  33.777   8.250
 5856POPC   C3A21065  20.591  33.817   7.950
 5856POPC   C4A21066  20.567  33.782   7.650
 5856POPC   C1B21067  20.391  33.932   8.550
 5856POPC   C2B21068  20.461  33.934   8.250
 5856POPC   C3B21069  20.408  33.961   7.950
 5856POPC   C4B21070  20.423  33.977   7.650
 5857POPC   NC321071   3.515  29.889   9.450
 5857POPC   PO421072   3.540  29.922   9.150
 5857POPC   GL121073   3.509  29.936   8.850
 5857POPC   GL221074   3.613  29.964   8.850
 5857POPC   C1A21075   3.491  29.905   8.550
 5857POPC   D2A21076   3.530  29.954   8.250
 5857POPC   C3A21077   3.512  29.912   7.950
 5857POPC   C4A21078   3.577  29.964   7.650
 5857POPC   C1B21079   3.751  30.011   8.550
 5857POPC   C2B21080   3.821  30.040   8.250
 5857POPC   C3B21081   3.820  30.049   7.950
 5857POPC   C4B21082   3.808  30.024   7.650
 5858POPC   NC321083  22.905  26.855   9.450
 5858POPC   PO421084  22.899  26.832   9.150
 5858POPC   GL121085  22.973  26.771   8.850
 5858POPC   GL221086  23.016  26.689   8.850
 5858POPC   C1A21087  22.933  26.850   8.550
 5858POPC   D2A21088  22.935  26.848   8.250
 5858POPC   C3A21089  22.917  26.792   7.950
 5858POPC   C4A21090  22.970  26.862   7.650
 5858POPC   C1B21091  23.104  26.608   8.550
 5858POPC   C2B21092  23.141  26.641   8.250
 5858POPC   C3B21093  23.117  26.660   7.950
 5858POPC   C4B21094  23.115  26.640   7.650
 5859POPC   NC321095  39.966  15.215   9.450
 5859POPC   PO421096  39.977  15.224   9.150
 5859POPC   GL121097  40.026  15.143   8.850
 5859POPC   GL221098  40.024  15.325   8.850
 5859POPC   C1A21099  39.960  15.166   8.550
 5859POPC   D2A21100  40.028  15.199   8.250
 5859POPC   C3A21101  40.041  15.193   7.950
 5859POPC   C4A21102  40.002  15.132   7.650
 5859POPC   C1B21103  40.143  15.418   8.550
 5859POPC   C2B21104  40.152  15.407   8.250
 5859POPC   C3B21105  40.107  15.421   7.950
 5859POPC   C4B21106  40.121  15.430   7.650
 5860POPC   NC321107  25.314   3.586   9.450
 5860POPC   PO421108  25.233   3.525   9.150
 5860POPC   GL121109  25.275   3.534   8.850
 5860POPC   GL221110  25.231   3.479   8.850
 5860POPC   C1A21111  25.250   3.586   8.550
 5860POPC   D2A21112  25.280   3.504   8.250
 5860POPC   C3A21113  25.267   3.548   7.950
 5860POPC   C4A21114  25.253   3.545   7.650
 5860POPC   C1B21115  25.168   3.366   8.550
 5860POPC   C2B21116  25.158   3.293   8.250
 5860POPC   C3B21117  25.106   3.284   7.950
 5860POPC   C4B21118  25.119   3.278   7.650
 5861POPC   NC321119   8.923  12.091   9.450
 5861POPC   PO421120   8.998  12.035   9.150
 5861POPC   GL121121   8.924  12.036   8.850
 5861POPC   GL221122   8.913  12.142   8.850
 5861POPC   C1A21123   8.942  12.034   8.550
 5861POPC   D2A21124   8.967  12.111   8.250
 5861POPC   C3A21125   8.946  12.078   7.950
 5861POPC   C4A21126   9.015  12.121   7.650
 5861POPC   C1B21127   8.794  12.189   8.550
 5861POPC   C2B21128   8.791  12.258   8.250
 5861POPC   C3B21129   8.726  12.215   7.950
 5861POPC   C4B21130   8.742  12.220   7.650
 5862POPC   NC321131   1.209   4.267   9.450
 5862POPC   PO421132   1.216   4.297   9.150
 5862POPC   GL121133   1.260   4.347   8.850
 5862POPC   GL221134   1.211   4.458   8.850
 5862POPC   C1A21135   1.243   4.270   8.550
 5862POPC   D2A21136   1.225   4.348   8.250
 5862POPC   C3A21137   1.172   4.327   7.950
 5862POPC   C4A21138   1.237   4.328   7.650
 5862POPC   C1B21139   1.168   4.595   8.550
 5862POPC   C2B21140   1.155   4.536   8.250
 5862POPC   C3B21141   1.164   4.576   7.950
 5862POPC   C4B21142   1.168   4.609   7.650
 5863POPC   NC321143  33.837   6.627   9.450
 5863POPC   PO421144  33.836   6.684   9.150
 5863POPC   GL121145  33.829   6.682   8.850
 5863POPC   GL221146  33.716   6.531   8.850
 5863POPC   C1A21147  33.761   6.602   8.550
 5863POPC   D2A21148  33.781   6.605   8.250
 5863POPC   C3A21149  33.826   6.627   7.950
 5863POPC   C4A21150  33.753   6.641   7.650
 5863POPC   C1B21151  33.710   6.397   8.550
 5863POPC   C2B21152  33.706   6.420   8.250
 5863POPC   C3B21153  33.728   6.411   7.950
 5863POPC   C4B21154  33.666   6.424   7.650
 5864POPC   NC321155  39.260  39.212   9.450
 5864POPC   PO421156  39.187  39.216   9.150
 5864POPC   GL121157  39.276  39.244   8.850
 5864POPC   GL221158  39.143  39.224   8.850
 5864POPC   C1A21159  39.263  39.218   8.550
 5864POPC   D2A21160  39.184  39.197   8.250
 5864POPC   C3A21161  39.209  39.205   7.950
 5864POPC   C4A21162  39.228  39.217   7.650
 5864POPC   C1B21163  39.000  39.088   8.550
 5864POPC   C2B21164  39.045  39.140   8.250
 5864POPC   C3B21165  38.968  39.096   7.950
 5864POPC   C4B21166  39.048  39.088   7.650
 5865POPC   NC321167  35.378  27.633   9.450
 5865POPC   PO421168  35.322  27.636   9.150
 5865POPC   GL121169  35.386  27.580   8.850
 5865POPC   GL221170  35.243  27.568   8.850
 5865POPC   C1A21171  35.311  27.600   8.550
 5865POPC   D2A21172  35.389  27.641   8.250
 5865POPC   C3A21173  35.332  27.549   7.950
 5865POPC   C4A21174  35.353  27.587   7.650
 5865POPC   C1B21175  35.102  27.614   8.550
 5865POPC   C2B21176  35.087  27.688   8.250
 5865POPC   C3B21177  35.131  27.604   7.950
 5865POPC   C4B21178  35.148  27.590   7.650
 5866POPC   NC321179  25.224  36.918   9.450
 5866POPC   PO421180  25.250  36.896   9.150
 5866POPC   GL121181  25.223  36.911   8.850
 5866POPC   GL221182  25.421  36.889   8.850
 5866POPC   C1A21183  25.239  36.942   8.550
 5866POPC   D2A21184  25.229  36.874   8.250
 5866POPC   C3A21185  25.279  36.877   7.950
 5866POPC   C4A21186  25.284  36.901   7.650
 5866POPC   C1B21187  25.482  36.899   8.550
 5866POPC   C2B21188  25.541  36.862   8.250
 5866POPC   C3B21189  25.498  36.861   7.950
 5866POPC   C4B21190  25.467  36.871   7.650
 5867POPC   NC321191  34.580  12.037   9.450
 5867POPC   PO421192  34.580  12.081   9.150
 5867POPC   GL121193  34.592  12.059   8.850
 5867POPC   GL221194  34.639  12.027   8.850
 5867POPC   C1A21195  34.615  12.048   8.550
 5867POPC   D2A21196  34.588  12.087   8.250
 5867POPC   C3A21197  34.598  12.115   7.950
 5867POPC   C4A21198  34.568  12.121   7.650
 5867POPC   C1B21199  34.736  11.938   8.550
 5867POPC   C2B21200  34.801  11.900   8.250
 5867POPC   C3B21201  34.791  11.927   7.950
 5867POPC   C4B21202  34.739  11.891   7.650
 5868POPC   NC321203  14.442  12.847   9.450
 5868POPC   PO421204  14.372  12.867   9.150
 5868POPC   GL121205  14.358  12.893   8.850
 5868POPC   GL221206  14.363  12.762   8.850
 5868POPC   C1A21207  14.381  12.883   8.550
 5868POPC   D2A21208  14.371  12.807   8.250
 5868POPC   C3A21209  14.374  12.867   7.950
 5868POPC   C4A21210  14.426  12.833   7.650
 5868POPC   C1B21211  14.266  12.651   8.550
 5868POPC   C2B21212  14.294  12.601   8.250
 5868POPC   C3B21213  14.342  12.577   7.950
 5868POPC   C4B21214  14.292  12.626   7.650
 5869POPC   NC321215  38.422  12.093   9.450
 5869POPC   PO421216  38.464  12.111   9.150
 5869POPC   GL121217  38.429  12.104   8.850
 5869POPC   GL221218  38.476  12.186   8.850
 5869POPC   C1A21219  38.436  12.040   8.550
 5869POPC   D2A21220  38.429  12.077   8.250
 5869POPC   C3A21221  38.454  12.047   7.950
 5869POPC   C4A21222  38.429  12.086   7.650
 5869POPC   C1B21223  38.434  12.330   8.550
 5869POPC   C2B21224  38.499  12.280   8.250
 5869POPC   C3B21225  38.452  12.315   7.950
 5869POPC   C4B21226  38.471  12.324   7.650
 5870POPC   NC321227   1.994  36.117   9.450
 5870POPC   PO421228   2.031  36.162   9.150
 5870POPC   GL121229   1.943  36.175   8.850
 5870POPC   GL221230   2.075  36.105   8.850
 5870POPC   C1A21231   1.951  36.090   8.550
 5870POPC   D2A21232   2.037  36.141   8.250
 5870POPC   C3A21233   1.949  36.138   7.950
 5870POPC   C4A21234   1.964  36.105   7.650
 5870POPC   C1B21235   2.248  36.185   8.550
 5870POPC   C2B21236   2.215  36.132   8.250
 5870POPC   C3B21237   2.225  36.165   7.950
 5870POPC   C4B21238   2.196  36.172   7.650
 5871POPC   NC321239  36.123  35.326   9.450
 5871POPC   PO421240  36.144  35.372   9.150
 5871POPC   GL121241  36.176  35.390   8.850
 5871POPC   GL221242  36.274  35.381   8.850
 5871POPC   C1A21243  36.096  35.333   8.550
 5871POPC   D2A21244  36.154  35.370   8.250
 5871POPC   C3A21245  36.129  35.306   7.950
 5871POPC   C4A21246  36.101  35.368   7.650
 5871POPC   C1B21247  36.385  35.420   8.550
 5871POPC   C2B21248  36.318  35.454   8.250
 5871POPC   C3B21249  36.394  35.407   7.950
 5871POPC   C4B21250  36.339  35.455   7.650
 5872POPC   NC321251  24.479  23.726   9.450
 5872POPC   PO421252  24.463  23.734   9.150
 5872POPC   GL121253  24.508  23.681   8.850
 5872POPC   GL221254  24.322  23.637   8.850
 5872POPC   C1A21255  24.456  23.713   8.550
 5872POPC   D2A21256  24.472  23.708   8.250
 5872POPC   C3A21257  24.491  23.705   7.950
 5872POPC   C4A21258  24.535  23.755   7.650
 5872POPC   C1B21259  24.214  23.621   8.550
 5872POPC   C2B21260  24.225  23.686   8.250
 5872POPC   C3B21261  24.202  23.631   7.950
 5872POPC   C4B21262  24.230  23.648   7.650
 5873POPC   NC321263  39.280  14.436   9.450
 5873POPC   PO421264  39.232  14.357   9.150
 5873POPC   GL121265  39.262  14.400   8.850
 5873POPC   GL221266  39.174  14.560   8.850
 5873POPC   C1A21267  39.249  14.449   8.550
 5873POPC   D2A21268  39.191  14.420   8.250
 5873POPC   C3A21269  39.184  14.373   7.950
 5873POPC   C4A21270  39.279  14.452   7.650
 5873POPC   C1B21271  39.097  14.654   8.550
 5873POPC   C2B21272  39.114  14.682   8.250
 5873POPC   C3B21273  39.171  14.680   7.950
 5873POPC   C4B21274  39.152  14.673   7.650
 5874POPC   NC321275  37.654  19.880   9.450
 5874POPC   PO421276  37.661  19.805   9.150
 5874POPC   GL121277  37.650  19.883   8.850
 5874POPC   GL221278  37.727  19.930   8.850
 5874POPC   C1A21279  37.643  19.835   8.550
 5874POPC   D2A21280  37.680  19.870   8.250
 5874POPC   C3A21281  37.638  19.802   7.950
 5874POPC   C4A21282  37.720  19.828   7.650
 5874POPC   C1B21283  37.771  20.094   8.550
 5874POPC   C2B21284  37.762  20.015   8.250
 5874POPC   C3B21285  37.772  20.052   7.950
 5874POPC   C4B21286  37.806  20.039   7.650
 5875POPC   NC321287  21.408  29.969   9.450
 5875POPC   PO421288  21.417  29.931   9.150
 5875POPC   GL121289  21.382  29.965   8.850
 5875POPC   GL221290  21.531  29.813   8.850
 5875POPC   C1A21291  21.337  29.896   8.550
 5875POPC   D2A21292  21.359  29.931   8.250
 5875POPC   C3A21293  21.381  29.928   7.950
 5875POPC   C4A21294  21.362  29.883   7.650
 5875POPC   C1B21295  21.571  29.820   8.550
 5875POPC   C2B21296  21.622  29.765   8.250
 5875POPC   C3B21297  21.619  29.805   7.950
 5875POPC   C4B21298  21.636  29.786   7.650
 5876POPC   NC321299  21.408  40.823   9.450
 5876POPC   PO421300  21.368  40.801   9.150
 5876POPC   GL121301  21.350  40.783   8.850
 5876POPC   GL221302  21.419  40.734   8.850
 5876POPC   C1A21303  21.344  40.813   8.550
 5876POPC   D2A21304  21.422  40.772   8.250
 5876POPC   C3A21305  21.346  40.831   7.950
 5876POPC   C4A21306  21.407  40.754   7.650
 5876POPC   C1B21307  21.602  40.611   8.550
 5876POPC   C2B21308  21.580  40.619   8.250
 5876POPC   C3B21309  21.568  40.583   7.950
 5876POPC   C4B21310  21.530  40.593   7.650
 5877POPC   NC321311  22.172   2.769   9.450
 5877POPC   PO421312  22.128   2.726   9.150
 5877POPC   GL121313  22.181   2.728   8.850
 5877POPC   GL221314  22.057   2.851   8.850
 5877POPC   C1A21315  22.167   2.784   8.550
 5877POPC   D2A21316  22.197   2.746   8.250
 5877POPC   C3A21317  22.142   2.813   7.950
 5877POPC   C4A21318  22.185   2.755   7.650
 5877POPC   C1B21319  21.959   2.888   8.550
 5877POPC   C2B21320  21.900   2.817   8.250
 5877POPC   C3B21321  21.962   2.895   7.950
 5877POPC   C4B21322  21.970   2.882   7.650
 5878POPC   NC321323  24.499  19.051   9.450
 5878POPC   PO421324  24.531  19.106   9.150
 5878POPC   GL121325  24.472  19.020   8.850
 5878POPC   GL221326  24.427  19.148   8.850
 5878POPC   C1A21327  24.452  19.037   8.550
 5878POPC   D2A21328  24.452  19.092   8.250
 5878POPC   C3A21329  24.471  19.051   7.950
 5878POPC   C4A21330  24.471  19.050   7.650
 5878POPC   C1B21331  24.353  19.250   8.550
 5878POPC   C2B21332  24.418  19.264   8.250
 5878POPC   C3B21333  24.376  19.250   7.950
 5878POPC   C4B21334  24.369  19.328   7.650
 5879POPC   NC321335  32.228  12.891   9.450
 5879POPC   PO421336  32.215  12.818   9.150
 5879POPC   GL121337  32.268  12.819   8.850
 5879POPC   GL221338  32.345  12.885   8.850
 5879POPC   C1A21339  32.289  12.885   8.550
 5879POPC   D2A21340  32.234  12.885   8.250
 5879POPC   C3A21341  32.208  12.836   7.950
 5879POPC   C4A21342  32.262  12.838   7.650
 5879POPC   C1B21343  32.461  12.937   8.550
 5879POPC   C2B21344  32.503  12.927   8.250
 5879POPC   C3B21345  32.489  12.881   7.950
 5879POPC   C4B21346  32.515  12.880   7.650
 5880POPC   NC321347  32.246  33.024   9.450
 5880POPC   PO421348  32.223  33.052   9.150
 5880POPC   GL121349  32.214  33.051   8.850
 5880POPC   GL221350  32.180  33.125   8.850
 5880POPC   C1A21351  32.273  33.006   8.550
 5880POPC   D2A21352  32.200  33.022   8.250
 5880POPC   C3A21353  32.288  33.072   7.950
 5880POPC   C4A21354  32.274  33.015   7.650
 5880POPC   C1B21355  32.009  33.178   8.550
 5880POPC   C2B21356  31.986  33.153   8.250
 5880POPC   C3B21357  31.984  33.175   7.950
 5880POPC   C4B21358  32.029  33.110   7.650
 5881POPC   NC321359   2.720  15.203   9.450
 5881POPC   PO421360   2.785  15.223   9.150
 5881POPC   GL121361   2.730  15.141   8.850
 5881POPC   GL221362   2.819  15.049   8.850
 5881POPC   C1A21363   2.796  15.228   8.550
 5881POPC   D2A21364   2.736  15.133   8.250
 5881POPC   C3A21365   2.736  15.149   7.950
 5881POPC   C4A21366   2.796  15.186   7.650
 5881POPC   C1B21367   2.931  14.944   8.550
 5881POPC   C2B21368   2.876  14.941   8.250
 5881POPC   C3B21369   2.862  14.986   7.950
 5881POPC   C4B21370   2.885  14.982   7.650
 5882POPC   NC321371  21.430  36.862   9.450
 5882POPC   PO421372  21.404  36.901   9.150
 5882POPC   GL121373  21.380  36.902   8.850
 5882POPC   GL221374  21.298  36.904   8.850
 5882POPC   C1A21375  21.374  36.931   8.550
 5882POPC   D2A21376  21.377  36.864   8.250
 5882POPC   C3A21377  21.348  36.945   7.950
 5882POPC   C4A21378  21.361  36.893   7.650
 5882POPC   C1B21379  21.100  36.932   8.550
 5882POPC   C2B21380  21.174  36.941   8.250
 5882POPC   C3B21381  21.184  36.886   7.950
 5882POPC   C4B21382  21.124  36.961   7.650
 5883POPC   NC321383  39.969  29.156   9.450
 5883POPC   PO421384  39.994  29.155   9.150
 5883POPC   GL121385  39.982  29.115   8.850
 5883POPC   GL221386  40.088  29.071   8.850
 5883POPC   C1A21387  40.031  29.120   8.550
 5883POPC   D2A21388  39.985  29.107   8.250
 5883POPC   C3A21389  39.958  29.117   7.950
 5883POPC   C4A21390  39.985  29.158   7.650
 5883POPC   C1B21391  40.213  28.982   8.550
 5883POPC   C2B21392  40.156  28.960   8.250
 5883POPC   C3B21393  40.142  28.934   7.950
 5883POPC   C4B21394  40.186  29.008   7.650
 5884POPC   NC321395  11.265  26.776   9.450
 5884POPC   PO421396  11.295  26.855   9.150
 5884POPC   GL121397  11.285  26.829   8.850
 5884POPC   GL221398  11.300  26.730   8.850
 5884POPC   C1A21399  11.270  26.837   8.550
 5884POPC   D2A21400  11.265  26.840   8.250
 5884POPC   C3A21401  11.293  26.832   7.950
 5884POPC   C4A21402  11.331  26.828   7.650
 5884POPC   C1B21403  11.268  26.570   8.550
 5884POPC   C2B21404  11.286  26.575   8.250
 5884POPC   C3B21405  11.261  26.565   7.950
 5884POPC   C4B21406  11.256  26.526   7.650
 5885POPC   NC321407  25.995  17.509   9.450
 5885POPC   PO421408  26.075  17.513   9.150
 5885POPC   GL121409  26.078  17.515   8.850
 5885POPC   GL221410  26.138  17.571   8.850
 5885POPC   C1A21411  26.085  17.520   8.550
 5885POPC   D2A21412  26.038  17.507   8.250
 5885POPC   C3A21413  25.998  17.488   7.950
 5885POPC   C4A21414  26.005  17.544   7.650
 5885POPC   C1B21415  26.142  17.711   8.550
 5885POPC   C2B21416  26.140  17.746   8.250
 5885POPC   C3B21417  26.118  17.722   7.950
 5885POPC   C4B21418  26.151  17.770   7.650
 5886POPC   NC321419  43.838   7.380   9.450
 5886POPC   PO421420  43.935   7.454   9.150
 5886POPC   GL121421  43.891   7.428   8.850
 5886POPC   GL221422  43.842   7.506   8.850
 5886POPC   C1A21423  43.897   7.453   8.550
 5886POPC   D2A21424  43.840   7.429   8.250
 5886POPC   C3A21425  43.893   7.398   7.950
 5886POPC   C4A21426  43.930   7.464   7.650
 5886POPC   C1B21427  43.828   7.689   8.550
 5886POPC   C2B21428  43.832   7.639   8.250
 5886POPC   C3B21429  43.878   7.647   7.950
 5886POPC   C4B21430  43.912   7.715   7.650
 5887POPC   NC321431  11.311   6.652   9.450
 5887POPC   PO421432  11.295   6.627   9.150
 5887POPC   GL121433  11.253   6.679   8.850
 5887POPC   GL221434  11.434   6.536   8.850
 5887POPC   C1A21435  11.319   6.638   8.550
 5887POPC   D2A21436  11.299   6.620   8.250
 5887POPC   C3A21437  11.300   6.674   7.950
 5887POPC   C4A21438  11.287   6.604   7.650
 5887POPC   C1B21439  11.463   6.457   8.550
 5887POPC   C2B21440  11.536   6.444   8.250
 5887POPC   C3B21441  11.495   6.514   7.950
 5887POPC   C4B21442  11.527   6.533   7.650
 5888POPC   NC321443  35.397   2.754   9.450
 5888POPC   PO421444  35.369   2.755   9.150
 5888POPC   GL121445  35.368   2.754   8.850
 5888POPC   GL221446  35.257   2.726   8.850
 5888POPC   C1A21447  35.311   2.781   8.550
 5888POPC   D2A21448  35.372   2.742   8.250
 5888POPC   C3A21449  35.357   2.721   7.950
 5888POPC   C4A21450  35.341   2.727   7.650
 5888POPC   C1B21451  35.101   2.774   8.550
 5888POPC   C2B21452  35.128   2.711   8.250
 5888POPC   C3B21453  35.153   2.786   7.950
 5888POPC   C4B21454  35.055   2.742   7.650
 5889POPC   NC321455  18.271  40.787   9.450
 5889POPC   PO421456  18.250  40.774   9.150
 5889POPC   GL121457  18.299  40.777   8.850
 5889POPC   GL221458  18.131  40.797   8.850
 5889POPC   C1A21459  18.252  40.733   8.550
 5889POPC   D2A21460  18.310  40.801   8.250
 5889POPC   C3A21461  18.277  40.779   7.950
 5889POPC   C4A21462  18.272  40.806   7.650
 5889POPC   C1B21463  18.050  40.873   8.550
 5889POPC   C2B21464  18.103  40.877   8.250
 5889POPC   C3B21465  18.039  40.930   7.950
 5889POPC   C4B21466  18.025  40.860   7.650
 5890POPC   NC321467  35.312  14.416   9.450
 5890POPC   PO421468  35.325  14.421   9.150
 5890POPC   GL121469  35.356  14.397   8.850
 5890POPC   GL221470  35.271  14.378   8.850
 5890POPC   C1A21471  35.343  14.398   8.550
 5890POPC   D2A21472  35.325  14.375   8.250
 5890POPC   C3A21473  35.375  14.434   7.950
 5890POPC   C4A21474  35.366  14.412   7.650
 5890POPC   C1B21475  35.110  14.288   8.550
 5890POPC   C2B21476  35.084  14.265   8.250
 5890POPC   C3B21477  35.086  14.340   7.950
 5890POPC   C4B21478  35.106  14.290   7.650
 5891POPC   NC321479  42.314  18.327   9.450
 5891POPC   PO421480  42.384  18.261   9.150
 5891POPC   GL121481  42.287  18.271   8.850
 5891POPC   GL221482  42.415  18.234   8.850
 5891POPC   C1A21483  42.372  18.293   8.550
 5891POPC   D2A21484  42.335  18.263   8.250
 5891POPC   C3A21485  42.326  18.236   7.950
 5891POPC   C4A21486  42.348  18.317   7.650
 5891POPC   C1B21487  42.610  18.259   8.550
 5891POPC   C2B21488  42.547  18.301   8.250
 5891POPC   C3B21489  42.601  18.289   7.950
 5891POPC   C4B21490  42.544  18.234   7.650
 5892POPC   NC321491  21.378  19.810   9.450
 5892POPC   PO421492  21.409  19.812   9.150
 5892POPC   GL121493  21.403  19.798   8.850
 5892POPC   GL221494  21.520  19.882   8.850
 5892POPC   C1A21495  21.395  19.790   8.550
 5892POPC   D2A21496  21.435  19.791   8.250
 5892POPC   C3A21497  21.419  19.819   7.950
 5892POPC   C4A21498  21.380  19.879   7.650
 5892POPC   C1B21499  21.547  19.940   8.550
 5892POPC   C2B21500  21.556  20.006   8.250
 5892POPC   C3B21501  21.583  20.012   7.950
 5892POPC   C4B21502  21.563  19.939   7.650
 5893POPC   NC321503   5.052  38.428   9.450
 5893POPC   PO421504   5.076  38.478   9.150
 5893POPC   GL121505   5.142  38.466   8.850
 5893POPC   GL221506   5.126  38.595   8.850
 5893POPC   C1A21507   5.077  38.492   8.550
 5893POPC   D2A21508   5.048  38.406   8.250
 5893POPC   C3A21509   5.115  38.485   7.950
 5893POPC   C4A21510   5.083  38.453   7.650
 5893POPC   C1B21511   5.154  38.657   8.550
 5893POPC   C2B21512   5.183  38.691   8.250
 5893POPC   C3B21513   5.149  38.670   7.950
 5893POPC   C4B21514   5.184  38.675   7.650
 5894POPC   NC321515   4.337  28.328   9.450
 5894POPC   PO421516   4.274  28.322   9.150
 5894POPC   GL121517   4.330  28.347   8.850
 5894POPC   GL221518   4.305  28.237   8.850
 5894POPC   C1A21519   4.296  28.347   8.550
 5894POPC   D2A21520   4.302  28.372   8.250
 5894POPC   C3A21521   4.271  28.387   7.950
 5894POPC   C4A21522   4.321  28.321   7.650
 5894POPC   C1B21523   4.306  28.138   8.550
 5894POPC   C2B21524   4.334  28.072   8.250
 5894POPC   C3B21525   4.322  28.141   7.950
 5894POPC   C4B21526   4.331  28.114   7.650
 5895POPC   NC321527  23.750  15.960   9.450
 5895POPC   PO421528  23.736  15.933   9.150
 5895POPC   GL121529  23.731  15.982   8.850
 5895POPC   GL221530  23.643  15.931   8.850
 5895POPC   C1A21531  23.675  15.922   8.550
 5895POPC   D2A21532  23.749  15.978   8.250
 5895POPC   C3A21533  23.753  15.969   7.950
 5895POPC   C4A21534  23.671  15.907   7.650
 5895POPC   C1B21535  23.442  15.851   8.550
 5895POPC   C2B21536  23.425  15.933   8.250
 5895POPC   C3B21537  23.490  15.894   7.950
 5895POPC   C4B21538  23.497  15.923   7.650
 5896POPC   NC321539  44.649  35.339   9.450
 5896POPC   PO421540  44.668  35.320   9.150
 5896POPC   GL121541  44.699  35.399   8.850
 5896POPC   GL221542  44.580  35.437   8.850
 5896POPC   C1A21543  44.637  35.306   8.550
 5896POPC   D2A21544  44.631  35.368   8.250
 5896POPC   C3A21545  44.704  35.393   7.950
 5896POPC   C4A21546  44.655  35.353   7.650
 5896POPC   C1B21547  44.481  35.548   8.550
 5896POPC   C2B21548  44.456  35.510   8.250
 5896POPC   C3B21549  44.427  35.503   7.950
 5896POPC   C4B21550  44.463  35.494   7.650
 5897POPC   NC321551  10.479  12.827   9.450
 5897POPC   PO421552  10.491  12.819   9.150
 5897POPC   GL121553  10.503  12.847   8.850
 5897POPC   GL221554  10.625  12.903   8.850
 5897POPC   C1A21555  10.496  12.892   8.550
 5897POPC   D2A21556  10.508  12.866   8.250
 5897POPC   C3A21557  10.475  12.890   7.950
 5897POPC   C4A21558  10.496  12.891   7.650
 5897POPC   C1B21559  10.699  12.958   8.550
 5897POPC   C2B21560  10.758  13.009   8.250
 5897POPC   C3B21561  10.793  12.960   7.950
 5897POPC   C4B21562  10.773  12.923   7.650
 5898POPC   NC321563  31.424  25.289   9.450
 5898POPC   PO421564  31.455  25.244   9.150
 5898POPC   GL121565  31.488  25.293   8.850
 5898POPC   GL221566  31.597  25.360   8.850
 5898POPC   C1A21567  31.489  25.297   8.550
 5898POPC   D2A21568  31.444  25.224   8.250
 5898POPC   C3A21569  31.424  25.245   7.950
 5898POPC   C4A21570  31.447  25.255   7.650
 5898POPC   C1B21571  31.659  25.385   8.550
 5898POPC   C2B21572  31.653  25.426   8.250
 5898POPC   C3B21573  31.699  25.367   7.950
 5898POPC   C4B21574  31.720  25.411   7.650
 5899POPC   NC321575  26.775   0.469   9.450
 5899POPC   PO421576  26.849   0.472   9.150
 5899POPC   GL121577  26.803   0.444   8.850
 5899POPC   GL221578  26.685   0.397   8.850
 5899POPC   C1A21579  26.806   0.468   8.550
 5899POPC   D2A21580  26.815   0.391   8.250
 5899POPC   C3A21581  26.813   0.404   7.950
 5899POPC   C4A21582  26.819   0.479   7.650
 5899POPC   C1B21583  26.598   0.376   8.550
 5899POPC   C2B21584  26.559   0.279   8.250
 5899POPC   C3B21585  26.558   0.279   7.950
 5899POPC   C4B21586  26.551   0.361   7.650
 5900POPC   NC321587  22.195  15.987   9.450
 5900POPC   PO421588  22.178  16.003   9.150
 5900POPC   GL121589  22.187  15.965   8.850
 5900POPC   GL221590  22.230  15.925   8.850
 5900POPC   C1A21591  22.169  15.917   8.550
 5900POPC   D2A21592  22.170  15.976   8.250
 5900POPC   C3A21593  22.193  15.957   7.950
 5900POPC   C4A21594  22.157  15.996   7.650
 5900POPC   C1B21595  22.440  15.861   8.550
 5900POPC   C2B21596  22.348  15.916   8.250
 5900POPC   C3B21597  22.403  15.913   7.950
 5900POPC   C4B21598  22.355  15.884   7.650
 5901POPC   NC321599   8.212   0.464   9.450
 5901POPC   PO421600   8.217   0.424   9.150
 5901POPC   GL121601   8.245   0.473   8.850
 5901POPC   GL221602   8.291   0.410   8.850
 5901POPC   C1A21603   8.226   0.400   8.550
 5901POPC   D2A21604   8.193   0.427   8.250
 5901POPC   C3A21605   8.235   0.414   7.950
 5901POPC   C4A21606   8.168   0.404   7.650
 5901POPC   C1B21607   8.447   0.357   8.550
 5901POPC   C2B21608   8.419   0.318   8.250
 5901POPC   C3B21609   8.446   0.282   7.950
 5901POPC   C4B21610   8.445   0.325   7.650
 5902POPC   NC321611  11.296  32.236   9.450
 5902POPC   PO421612  11.325  32.292   9.150
 5902POPC   GL121613  11.314  32.247   8.850
 5902POPC   GL221614  11.387  32.294   8.850
 5902POPC   C1A21615  11.311  32.274   8.550
 5902POPC   D2A21616  11.314  32.247   8.250
 5902POPC   C3A21617  11.273  32.243   7.950
 5902POPC   C4A21618  11.267  32.271   7.650
 5902POPC   C1B21619  11.503  32.341   8.550
 5902POPC   C2B21620  11.550  32.410   8.250
 5902POPC   C3B21621  11.558  32.402   7.950
 5902POPC   C4B21622  11.525  32.395   7.650
 5903POPC   NC321623  32.253  16.686   9.450
 5903POPC   PO421624  32.223  16.744   9.150
 5903POPC   GL121625  32.228  16.733   8.850
 5903POPC   GL221626  32.298  16.814   8.850
 5903POPC   C1A21627  32.222  16.704   8.550
 5903POPC   D2A21628  32.289  16.699   8.250
 5903POPC   C3A21629  32.234  16.697   7.950
 5903POPC   C4A21630  32.245  16.734   7.650
 5903POPC   C1B21631  32.420  16.916   8.550
 5903POPC   C2B21632  32.445  16.901   8.250
 5903POPC   C3B21633  32.484  16.914   7.950
 5903POPC   C4B21634  32.479  16.908   7.650
 5904POPC   NC321635  28.323  35.367   9.450
 5904POPC   PO421636  28.375  35.358   9.150
 5904POPC   GL121637  28.344  35.348   8.850
 5904POPC   GL221638  28.423  35.200   8.850
 5904POPC   C1A21639  28.393  35.304   8.550
 5904POPC   D2A21640  28.365  35.367   8.250
 5904POPC   C3A21641  28.348  35.325   7.950
 5904POPC   C4A21642  28.393  35.356   7.650
 5904POPC   C1B21643  28.417  35.151   8.550
 5904POPC   C2B21644  28.407  35.141   8.250
 5904POPC   C3B21645  28.411  35.100   7.950
 5904POPC   C4B21646  28.438  35.095   7.650
 5905POPC   NC321647  18.314  28.407   9.450
 5905POPC   PO421648  18.269  28.374   9.150
 5905POPC   GL121649  18.317  28.356   8.850
 5905POPC   GL221650  18.120  28.384   8.850
 5905POPC   C1A21651  18.266  28.346   8.550
 5905POPC   D2A21652  18.254  28.369   8.250
 5905POPC   C3A21653  18.274  28.360   7.950
 5905POPC   C4A21654  18.310  28.408   7.650
 5905POPC   C1B21655  18.085  28.475   8.550
 5905POPC   C2B21656  18.002  28.431   8.250
 5905POPC   C3B21657  18.066  28.468   7.950
 5905POPC   C4B21658  18.037  28.428   7.650
 5906POPC   NC321659  43.151  34.605   9.450
 5906POPC   PO421660  43.123  34.610   9.150
 5906POPC   GL121661  43.067  34.601   8.850
 5906POPC   GL221662  43.129  34.466   8.850
 5906POPC   C1A21663  43.093  34.541   8.550
 5906POPC   D2A21664  43.067  34.569   8.250
 5906POPC   C3A21665  43.135  34.616   7.950
 5906POPC   C4A21666  43.067  34.580   7.650
 5906POPC   C1B21667  43.014  34.344   8.550
 5906POPC   C2B21668  43.027  34.362   8.250
 5906POPC   C3B21669  43.046  34.357   7.950
 5906POPC   C4B21670  43.012  34.330   7.650
 5907POPC   NC321671  25.240  32.204   9.450
 5907POPC   PO421672  25.258  32.201   9.150
 5907POPC   GL121673  25.289  32.212   8.850
 5907POPC   GL221674  25.190  32.370   8.850
 5907POPC   C1A21675  25.229  32.286   8.550
 5907POPC   D2A21676  25.230  32.214   8.250
 5907POPC   C3A21677  25.272  32.221   7.950
 5907POPC   C4A21678  25.217  32.266   7.650
 5907POPC   C1B21679  25.167  32.503   8.550
 5907POPC   C2B21680  25.112  32.460   8.250
 5907POPC   C3B21681  25.160  32.466   7.950
 5907POPC   C4B21682  25.135  32.501   7.650
 5908POPC   NC321683  24.536  12.839   9.450
 5908POPC   PO421684  24.527  12.847   9.150
 5908POPC   GL121685  24.489  12.838   8.850
 5908POPC   GL221686  24.507  12.788   8.850
 5908POPC   C1A21687  24.445  12.860   8.550
 5908POPC   D2A21688  24.446  12.893   8.250
 5908POPC   C3A21689  24.465  12.853   7.950
 5908POPC   C4A21690  24.459  12.890   7.650
 5908POPC   C1B21691  24.615  12.626   8.550
 5908POPC   C2B21692  24.588  12.603   8.250
 5908POPC   C3B21693  24.629  12.662   7.950
 5908POPC   C4B21694  24.639  12.608   7.650
 5909POPC   NC321695  22.205  22.118   9.450
 5909POPC   PO421696  22.175  22.159   9.150
 5909POPC   GL121697  22.161  22.113   8.850
 5909POPC   GL221698  22.185  22.034   8.850
 5909POPC   C1A21699  22.208  22.128   8.550
 5909POPC   D2A21700  22.166  22.160   8.250
 5909POPC   C3A21701  22.163  22.131   7.950
 5909POPC   C4A21702  22.171  22.211   7.650
 5909POPC   C1B21703  22.253  21.910   8.550
 5909POPC   C2B21704  22.315  21.915   8.250
 5909POPC   C3B21705  22.322  21.931   7.950
 5909POPC   C4B21706  22.311  21.927   7.650
 5910POPC   NC321707  40.009  19.038   9.450
 5910POPC   PO421708  39.994  19.089   9.150
 5910POPC   GL121709  40.047  19.023   8.850
 5910POPC   GL221710  40.116  19.111   8.850
 5910POPC   C1A21711  40.049  19.019   8.550
 5910POPC   D2A21712  39.961  19.025   8.250
 5910POPC   C3A21713  39.976  19.094   7.950
 5910POPC   C4A21714  40.028  19.010   7.650
 5910POPC   C1B21715  40.278  19.127   8.550
 5910POPC   C2B21716  40.217  19.073   8.250
 5910POPC   C3B21717  40.228  19.067   7.950
 5910POPC   C4B21718  40.249  19.135   7.650
 5911POPC   NC321719  25.998  12.115   9.450
 5911POPC   PO421720  26.080  12.067   9.150
 5911POPC   GL121721  26.078  12.084   8.850
 5911POPC   GL221722  26.100  11.995   8.850
 5911POPC   C1A21723  26.010  12.123   8.550
 5911POPC   D2A21724  26.082  12.040   8.250
 5911POPC   C3A21725  25.992  12.098   7.950
 5911POPC   C4A21726  25.992  12.108   7.650
 5911POPC   C1B21727  26.199  11.844   8.550
 5911POPC   C2B21728  26.144  11.908   8.250
 5911POPC   C3B21729  26.213  11.878   7.950
 5911POPC   C4B21730  26.174  11.863   7.650
 5912POPC   NC321731  20.616  39.277   9.450
 5912POPC   PO421732  20.636  39.267   9.150
 5912POPC   GL121733  20.589  39.200   8.850
 5912POPC   GL221734  20.655  39.307   8.850
 5912POPC   C1A21735  20.561  39.213   8.550
 5912POPC   D2A21736  20.619  39.279   8.250
 5912POPC   C3A21737  20.595  39.190   7.950
 5912POPC   C4A21738  20.645  39.260   7.650
 5912POPC   C1B21739  20.636  39.484   8.550
 5912POPC   C2B21740  20.674  39.486   8.250
 5912POPC   C3B21741  20.722  39.469   7.950
 5912POPC   C4B21742  20.626  39.475   7.650
 5913POPC   NC321743  20.616  44.690   9.450
 5913POPC   PO421744  20.602  44.696   9.150
 5913POPC   GL121745  20.577  44.707   8.850
 5913POPC   GL221746  20.636  44.525   8.850
 5913POPC   C1A21747  20.581  44.653   8.550
 5913POPC   D2A21748  20.583  44.662   8.250
 5913POPC   C3A21749  20.634  44.625   7.950
 5913POPC   C4A21750  20.640  44.642   7.650
 5913POPC   C1B21751  20.771  44.419   8.550
 5913POPC   C2B21752  20.769  44.499   8.250
 5913POPC   C3B21753  20.773  44.427   7.950
 5913POPC   C4B21754  20.711  44.488   7.650
 5914POPC   NC321755  25.268  15.145   9.450
 5914POPC   PO421756  25.309  15.157   9.150
 5914POPC   GL121757  25.267  15.142   8.850
 5914POPC   GL221758  25.278  15.286   8.850
 5914POPC   C1A21759  25.270  15.220   8.550
 5914POPC   D2A21760  25.219  15.141   8.250
 5914POPC   C3A21761  25.265  15.143   7.950
 5914POPC   C4A21762  25.219  15.207   7.650
 5914POPC   C1B21763  25.285  15.417   8.550
 5914POPC   C2B21764  25.343  15.379   8.250
 5914POPC   C3B21765  25.313  15.459   7.950
 5914POPC   C4B21766  25.322  15.476   7.650
 5915POPC   NC321767   7.414  25.262   9.450
 5915POPC   PO421768   7.381  25.286   9.150
 5915POPC   GL121769   7.392  25.315   8.850
 5915POPC   GL221770   7.276  25.297   8.850
 5915POPC   C1A21771   7.431  25.293   8.550
 5915POPC   D2A21772   7.417  25.270   8.250
 5915POPC   C3A21773   7.371  25.224   7.950
 5915POPC   C4A21774   7.385  25.222   7.650
 5915POPC   C1B21775   7.206  25.354   8.550
 5915POPC   C2B21776   7.164  25.360   8.250
 5915POPC   C3B21777   7.169  25.296   7.950
 5915POPC   C4B21778   7.224  25.283   7.650
 5916POPC   NC321779  22.903   7.407   9.450
 5916POPC   PO421780  22.959   7.386   9.150
 5916POPC   GL121781  22.979   7.468   8.850
 5916POPC   GL221782  22.765   7.374   8.850
 5916POPC   C1A21783  22.969   7.419   8.550
 5916POPC   D2A21784  22.944   7.383   8.250
 5916POPC   C3A21785  22.972   7.430   7.950
 5916POPC   C4A21786  22.987   7.416   7.650
 5916POPC   C1B21787  22.644   7.418   8.550
 5916POPC   C2B21788  22.639   7.452   8.250
 5916POPC   C3B21789  22.702   7.435   7.950
 5916POPC   C4B21790  22.731   7.429   7.650
 5917POPC   NC321791  39.989  35.368   9.450
 5917POPC   PO421792  39.967  35.346   9.150
 5917POPC   GL121793  40.055  35.347   8.850
 5917POPC   GL221794  40.011  35.510   8.850
 5917POPC   C1A21795  40.017  35.326   8.550
 5917POPC   D2A21796  40.014  35.350   8.250
 5917POPC   C3A21797  40.036  35.305   7.950
 5917POPC   C4A21798  40.020  35.360   7.650
 5917POPC   C1B21799  40.132  35.566   8.550
 5917POPC   C2B21800  40.072  35.630   8.250
 5917POPC   C3B21801  40.138  35.621   7.950
 5917POPC   C4B21802  40.123  35.585   7.650
 5918POPC   NC321803  19.009  33.847   9.450
 5918POPC   PO421804  19.058  33.828   9.150
 5918POPC   GL121805  19.082  33.800   8.850
 5918POPC   GL221806  18.967  33.777   8.850
 5918POPC   C1A21807  19.093  33.809   8.550
 5918POPC   D2A21808  19.099  33.788   8.250
 5918POPC   C3A21809  19.067  33.842   7.950
 5918POPC   C4A21810  19.081  33.780   7.650
 5918POPC   C1B21811  18.764  33.786   8.550
 5918POPC   C2B21812  18.841  33.766   8.250
 5918POPC   C3B21813  18.844  33.759   7.950
 5918POPC   C4B21814  18.856  33.748   7.650
 5919POPC   NC321815  24.499  17.494   9.450
 5919POPC   PO421816  24.510  17.486   9.150
 5919POPC   GL121817  24.442  17.518   8.850
 5919POPC   GL221818  24.621  17.480   8.850
 5919POPC   C1A21819  24.489  17.524   8.550
 5919POPC   D2A21820  24.493  17.474   8.250
 5919POPC   C3A21821  24.503  17.511   7.950
 5919POPC   C4A21822  24.498  17.542   7.650
 5919POPC   C1B21823  24.738  17.506   8.550
 5919POPC   C2B21824  24.733  17.449   8.250
 5919POPC   C3B21825  24.697  17.456   7.950
 5919POPC   C4B21826  24.696  17.502   7.650
 5920POPC   NC321827  28.371  44.621   9.450
 5920POPC   PO421828  28.349  44.642   9.150
 5920POPC   GL121829  28.364  44.627   8.850
 5920POPC   GL221830  28.260  44.573   8.850
 5920POPC   C1A21831  28.374  44.695   8.550
 5920POPC   D2A21832  28.364  44.702   8.250
 5920POPC   C3A21833  28.408  44.673   7.950
 5920POPC   C4A21834  28.408  44.698   7.650
 5920POPC   C1B21835  28.126  44.595   8.550
 5920POPC   C2B21836  28.107  44.559   8.250
 5920POPC   C3B21837  28.162  44.541   7.950
 5920POPC   C4B21838  28.175  44.590   7.650
 5921POPC   NC321839   8.149  38.454   9.450
 5921POPC   PO421840   8.216  38.460   9.150
 5921POPC   GL121841   8.180  38.413   8.850
 5921POPC   GL221842   8.174  38.283   8.850
 5921POPC   C1A21843   8.238  38.439   8.550
 5921POPC   D2A21844   8.230  38.448   8.250
 5921POPC   C3A21845   8.242  38.407   7.950
 5921POPC   C4A21846   8.205  38.443   7.650
 5921POPC   C1B21847   8.220  38.226   8.550
 5921POPC   C2B21848   8.165  38.241   8.250
 5921POPC   C3B21849   8.233  38.195   7.950
 5921POPC   C4B21850   8.212  38.167   7.650
 5922POPC   NC321851  35.383  26.810   9.450
 5922POPC   PO421852  35.394  26.850   9.150
 5922POPC   GL121853  35.401  26.813   8.850
 5922POPC   GL221854  35.310  26.707   8.850
 5922POPC   C1A21855  35.348  26.866   8.550
 5922POPC   D2A21856  35.346  26.783   8.250
 5922POPC   C3A21857  35.317  26.805   7.950
 5922POPC   C4A21858  35.356  26.782   7.650
 5922POPC   C1B21859  35.296  26.534   8.550
 5922POPC   C2B21860  35.339  26.570   8.250
 5922POPC   C3B21861  35.276  26.538   7.950
 5922POPC   C4B21862  35.287  26.608   7.650
 5923POPC   NC321863  26.797  12.822   9.450
 5923POPC   PO421864  26.810  12.822   9.150
 5923POPC   GL121865  26.829  12.895   8.850
 5923POPC   GL221866  26.784  12.908   8.850
 5923POPC   C1A21867  26.807  12.857   8.550
 5923POPC   D2A21868  26.805  12.831   8.250
 5923POPC   C3A21869  26.835  12.833   7.950
 5923POPC   C4A21870  26.849  12.878   7.650
 5923POPC   C1B21871  26.706  13.089   8.550
 5923POPC   C2B21872  26.709  13.025   8.250
 5923POPC   C3B21873  26.666  13.093   7.950
 5923POPC   C4B21874  26.659  13.015   7.650
 5924POPC   NC321875  14.419  36.882   9.450
 5924POPC   PO421876  14.403  36.947   9.150
 5924POPC   GL121877  14.417  36.877   8.850
 5924POPC   GL221878  14.340  37.010   8.850
 5924POPC   C1A21879  14.354  36.877   8.550
 5924POPC   D2A21880  14.364  36.864   8.250
 5924POPC   C3A21881  14.414  36.949   7.950
 5924POPC   C4A21882  14.366  36.886   7.650
 5924POPC   C1B21883  14.245  37.039   8.550
 5924POPC   C2B21884  14.240  37.094   8.250
 5924POPC   C3B21885  14.224  37.109   7.950
 5924POPC   C4B21886  14.185  37.081   7.650
 5925POPC   NC321887  43.155  30.675   9.450
 5925POPC   PO421888  43.076  30.719   9.150
 5925POPC   GL121889  43.150  30.661   8.850
 5925POPC   GL221890  43.203  30.764   8.850
 5925POPC   C1A21891  43.080  30.707   8.550
 5925POPC   D2A21892  43.114  30.651   8.250
 5925POPC   C3A21893  43.107  30.675   7.950
 5925POPC   C4A21894  43.066  30.704   7.650
 5925POPC   C1B21895  43.326  30.838   8.550
 5925POPC   C2B21896  43.278  30.891   8.250
 5925POPC   C3B21897  43.316  30.851   7.950
 5925POPC   C4B21898  43.256  30.849   7.650
 5926POPC   NC321899  36.886  20.612   9.450
 5926POPC   PO421900  36.883  20.653   9.150
 5926POPC   GL121901  36.897  20.644   8.850
 5926POPC   GL221902  36.809  20.549   8.850
 5926POPC   C1A21903  36.911  20.656   8.550
 5926POPC   D2A21904  36.864  20.581   8.250
 5926POPC   C3A21905  36.940  20.611   7.950
 5926POPC   C4A21906  36.915  20.645   7.650
 5926POPC   C1B21907  36.670  20.445   8.550
 5926POPC   C2B21908  36.748  20.428   8.250
 5926POPC   C3B21909  36.760  20.443   7.950
 5926POPC   C4B21910  36.693  20.471   7.650
 5927POPC   NC321911  27.600  33.775   9.450
 5927POPC   PO421912  27.599  33.769   9.150
 5927POPC   GL121913  27.618  33.782   8.850
 5927POPC   GL221914  27.563  33.909   8.850
 5927POPC   C1A21915  27.558  33.775   8.550
 5927POPC   D2A21916  27.547  33.813   8.250
 5927POPC   C3A21917  27.628  33.849   7.950
 5927POPC   C4A21918  27.566  33.778   7.650
 5927POPC   C1B21919  27.525  34.066   8.550
 5927POPC   C2B21920  27.523  33.995   8.250
 5927POPC   C3B21921  27.545  34.016   7.950
 5927POPC   C4B21922  27.497  34.021   7.650
 5928POPC   NC321923  26.038   6.607   9.450
 5928POPC   PO421924  26.004   6.606   9.150
 5928POPC   GL121925  26.075   6.640   8.850
 5928POPC   GL221926  26.031   6.554   8.850
 5928POPC   C1A21927  26.022   6.599   8.550
 5928POPC   D2A21928  26.090   6.654   8.250
 5928POPC   C3A21929  25.999   6.648   7.950
 5928POPC   C4A21930  26.038   6.645   7.650
 5928POPC   C1B21931  26.030   6.417   8.550
 5928POPC   C2B21932  26.034   6.362   8.250
 5928POPC   C3B21933  26.028   6.381   7.950
 5928POPC   C4B21934  26.026   6.435   7.650
 5929POPC   NC321935  39.195  33.017   9.450
 5929POPC   PO421936  39.184  33.031   9.150
 5929POPC   GL121937  39.248  32.975   8.850
 5929POPC   GL221938  39.128  33.095   8.850
 5929POPC   C1A21939  39.198  33.033   8.550
 5929POPC   D2A21940  39.202  32.994   8.250
 5929POPC   C3A21941  39.275  33.042   7.950
 5929POPC   C4A21942  39.216  33.046   7.650
 5929POPC   C1B21943  39.091  33.209   8.550
 5929POPC   C2B21944  39.076  33.274   8.250
 5929POPC   C3B21945  39.145  33.232   7.950
 5929POPC   C4B21946  39.133  33.263   7.650
 5930POPC   NC321947  35.384  39.184   9.450
 5930POPC   PO421948  35.363  39.195   9.150
 5930POPC   GL121949  35.387  39.258   8.850
 5930POPC   GL221950  35.228  39.152   8.850
 5930POPC   C1A21951  35.379  39.215   8.550
 5930POPC   D2A21952  35.336  39.196   8.250
 5930POPC   C3A21953  35.364  39.239   7.950
 5930POPC   C4A21954  35.352  39.184   7.650
 5930POPC   C1B21955  35.182  39.016   8.550
 5930POPC   C2B21956  35.142  39.022   8.250
 5930POPC   C3B21957  35.134  39.050   7.950
 5930POPC   C4B21958  35.177  39.059   7.650
 5931POPC   NC321959  13.646  41.580   9.450
 5931POPC   PO421960  13.627  41.535   9.150
 5931POPC   GL121961  13.662  41.549   8.850
 5931POPC   GL221962  13.604  41.727   8.850
 5931POPC   C1A21963  13.641  41.573   8.550
 5931POPC   D2A21964  13.672  41.582   8.250
 5931POPC   C3A21965  13.582  41.547   7.950
 5931POPC   C4A21966  13.632  41.525   7.650
 5931POPC   C1B21967  13.549  41.768   8.550
 5931POPC   C2B21968  13.528  41.848   8.250
 5931POPC   C3B21969  13.617  41.777   7.950
 5931POPC   C4B21970  13.557  41.835   7.650
 5932POPC   NC321971  32.203  38.463   9.450
 5932POPC   PO421972  32.223  38.430   9.150
 5932POPC   GL121973  32.290  38.427   8.850
 5932POPC   GL221974  32.177  38.582   8.850
 5932POPC   C1A21975  32.259  38.448   8.550
 5932POPC   D2A21976  32.264  38.422   8.250
 5932POPC   C3A21977  32.251  38.410   7.950
 5932POPC   C4A21978  32.213  38.428   7.650
 5932POPC   C1B21979  32.126  38.698   8.550
 5932POPC   C2B21980  32.177  38.635   8.250
 5932POPC   C3B21981  32.181  38.696   7.950
 5932POPC   C4B21982  32.112  38.708   7.650
 5933POPC   NC321983  20.602  12.033   9.450
 5933POPC   PO421984  20.652  12.103   9.150
 5933POPC   GL121985  20.605  12.117   8.850
 5933POPC   GL221986  20.613  12.181   8.850
 5933POPC   C1A21987  20.631  12.078   8.550
 5933POPC   D2A21988  20.572  12.037   8.250
 5933POPC   C3A21989  20.644  12.027   7.950
 5933POPC   C4A21990  20.576  12.037   7.650
 5933POPC   C1B21991  20.656  12.281   8.550
 5933POPC   C2B21992  20.617  12.303   8.250
 5933POPC   C3B21993  20.594  12.366   7.950
 5933POPC   C4B21994  20.654  12.282   7.650
 5934POPC   NC321995  34.568  38.463   9.450
 5934POPC   PO421996  34.535  38.451   9.150
 5934POPC   GL121997  34.552  38.459   8.850
 5934POPC   GL221998  34.576  38.339   8.850
 5934POPC   C1A21999  34.590  38.485   8.550
 5934POPC   D2A22000  34.563  38.482   8.250
 5934POPC   C3A22001  34.589  38.447   7.950
 5934POPC   C4A22002  34.582  38.428   7.650
 5934POPC   C1B22003  34.553  38.182   8.550
 5934POPC   C2B22004  34.604  38.207   8.250
 5934POPC   C3B22005  34.538  38.207   7.950
 5934POPC   C4B22006  34.592  38.171   7.650
 5935POPC   NC322007  22.205  44.661   9.450
 5935POPC   PO422008  22.158  44.650   9.150
 5935POPC   GL122009  22.143  44.638   8.850
 5935POPC   GL222010  22.133  44.770   8.850
 5935POPC   C1A22011  22.126  44.626   8.550
 5935POPC   D2A22012  22.143  44.688   8.250
 5935POPC   C3A22013  22.183  44.707   7.950
 5935POPC   C4A22014  22.173  44.634   7.650
 5935POPC   C1B22015  22.095  44.885   8.550
 5935POPC   C2B22016  22.072  44.889   8.250
 5935POPC   C3B22017  22.079  44.862   7.950
 5935POPC   C4B22018  22.053  44.910   7.650
 5936POPC   NC322019   1.967  30.739   9.450
 5936POPC   PO422020   2.022  30.736   9.150
 5936POPC   GL122021   2.015  30.664   8.850
 5936POPC   GL222022   1.971  30.527   8.850
 5936POPC   C1A22023   1.985  30.726   8.550
 5936POPC   D2A22024   1.996  30.660   8.250
 5936POPC   C3A22025   2.029  30.689   7.950
 5936POPC   C4A22026   2.020  30.731   7.650
 5936POPC   C1B22027   2.062  30.436   8.550
 5936POPC   C2B22028   2.005  30.447   8.250
 5936POPC   C3B22029   2.012  30.408   7.950
 5936POPC   C4B22030   2.069  30.486   7.650
 5937POPC   NC322031  22.902  26.045   9.450
 5937POPC   PO422032  22.903  26.028   9.150
 5937POPC   GL122033  22.915  26.038   8.850
 5937POPC   GL222034  22.945  25.935   8.850
 5937POPC   C1A22035  22.904  26.015   8.550
 5937POPC   D2A22036  22.895  26.032   8.250
 5937POPC   C3A22037  22.978  26.059   7.950
 5937POPC   C4A22038  22.931  26.042   7.650
 5937POPC   C1B22039  22.982  25.813   8.550
 5937POPC   C2B22040  22.907  25.757   8.250
 5937POPC   C3B22041  22.897  25.755   7.950
 5937POPC   C4B22042  22.929  25.771   7.650
 5938POPC   NC322043   2.729   1.204   9.450
 5938POPC   PO422044   2.808   1.213   9.150
 5938POPC   GL122045   2.815   1.228   8.850
 5938POPC   GL222046   2.603   1.245   8.850
 5938POPC   C1A22047   2.761   1.165   8.550
 5938POPC   D2A22048   2.766   1.251   8.250
 5938POPC   C3A22049   2.759   1.220   7.950
 5938POPC   C4A22050   2.801   1.236   7.650
 5938POPC   C1B22051   2.517   1.194   8.550
 5938POPC   C2B22052   2.498   1.209   8.250
 5938POPC   C3B22053   2.484   1.205   7.950
 5938POPC   C4B22054   2.540   1.215   7.650
 5939POPC   NC322055   5.849  13.654   9.450
 5939POPC   PO422056   5.916  13.589   9.150
 5939POPC   GL122057   5.912  13.635   8.850
 5939POPC   GL222058   5.913  13.515   8.850
 5939POPC   C1A22059   5.849  13.648   8.550
 5939POPC   D2A22060   5.878  13.654   8.250
 5939POPC   C3A22061   5.879  13.610   7.950
 5939POPC   C4A22062   5.843  13.583   7.650
 5939POPC   C1B22063   5.864  13.406   8.550
 5939POPC   C2B22064   5.844  13.394   8.250
 5939POPC   C3B22065   5.918  13.423   7.950
 5939POPC   C4B22066   5.891  13.352   7.650
 5940POPC   NC322067  38.476  39.229   9.450
 5940POPC   PO422068  38.479  39.232   9.150
 5940POPC   GL122069  38.433  39.260   8.850
 5940POPC   GL222070  38.414  39.091   8.850
 5940POPC   C1A22071  38.502  39.244   8.550
 5940POPC   D2A22072  38.454  39.189   8.250
 5940POPC   C3A22073  38.463  39.183   7.950
 5940POPC   C4A22074  38.488  39.195   7.650
 5940POPC   C1B22075  38.461  38.986   8.550
 5940POPC   C2B22076  38.497  38.992   8.250
 5940POPC   C3B22077  38.460  39.007   7.950
 5940POPC   C4B22078  38.402  39.022   7.650
 5941POPC   NC322079  34.566  17.484   9.450
 5941POPC   PO422080  34.594  17.511   9.150
 5941POPC   GL122081  34.563  17.551   8.850
 5941POPC   GL222082  34.664  17.514   8.850
 5941POPC   C1A22083  34.584  17.502   8.550
 5941POPC   D2A22084  34.603  17.550   8.250
 5941POPC   C3A22085  34.568  17.478   7.950
 5941POPC   C4A22086  34.560  17.540   7.650
 5941POPC   C1B22087  34.874  17.493   8.550
 5941POPC   C2B22088  34.847  17.554   8.250
 5941POPC   C3B22089  34.864  17.513   7.950
 5941POPC   C4B22090  34.812  17.557   7.650
 5942POPC   NC322091  21.354   8.173   9.450
 5942POPC   PO422092  21.337   8.231   9.150
 5942POPC   GL122093  21.422   8.230   8.850
 5942POPC   GL222094  21.259   8.095   8.850
 5942POPC   C1A22095  21.390   8.153   8.550
 5942POPC   D2A22096  21.374   8.244   8.250
 5942POPC   C3A22097  21.365   8.170   7.950
 5942POPC   C4A22098  21.431   8.234   7.650
 5942POPC   C1B22099  21.152   8.023   8.550
 5942POPC   C2B22100  21.181   8.068   8.250
 5942POPC   C3B22101  21.188   7.998   7.950
 5942POPC   C4B22102  21.194   7.998   7.650
 5943POPC   NC322103  26.834   3.572   9.450
 5943POPC   PO422104  26.797   3.552   9.150
 5943POPC   GL122105  26.830   3.513   8.850
 5943POPC   GL222106  26.887   3.607   8.850
 5943POPC   C1A22107  26.842   3.590   8.550
 5943POPC   D2A22108  26.826   3.528   8.250
 5943POPC   C3A22109  26.816   3.547   7.950
 5943POPC   C4A22110  26.804   3.576   7.650
 5943POPC   C1B22111  26.998   3.765   8.550
 5943POPC   C2B22112  26.995   3.700   8.250
 5943POPC   C3B22113  27.022   3.703   7.950
 5943POPC   C4B22114  26.963   3.691   7.650
 5944POPC   NC322115  31.424  25.997   9.450
 5944POPC   PO422116  31.436  26.057   9.150
 5944POPC   GL122117  31.503  26.064   8.850
 5944POPC   GL222118  31.400  25.998   8.850
 5944POPC   C1A22119  31.502  26.038   8.550
 5944POPC   D2A22120  31.429  26.075   8.250
 5944POPC   C3A22121  31.505  26.026   7.950
 5944POPC   C4A22122  31.506  26.057   7.650
 5944POPC   C1B22123  31.273  25.903   8.550
 5944POPC   C2B22124  31.266  25.899   8.250
 5944POPC   C3B22125  31.268  25.897   7.950
 5944POPC   C4B22126  31.317  25.907   7.650
 5945POPC   NC322127  35.335  22.932   9.450
 5945POPC   PO422128  35.338  22.905   9.150
 5945POPC   GL122129  35.372  22.900   8.850
 5945POPC   GL222130  35.234  23.012   8.850
 5945POPC   C1A22131  35.319  22.972   8.550
 5945POPC   D2A22132  35.341  22.967   8.250
 5945POPC   C3A22133  35.355  22.927   7.950
 5945POPC   C4A22134  35.366  22.929   7.650
 5945POPC   C1B22135  35.085  23.034   8.550
 5945POPC   C2B22136  35.163  23.067   8.250
 5945POPC   C3B22137  35.151  23.033   7.950
 5945POPC   C4B22138  35.156  23.030   7.650
 5946POPC   NC322139  44.641  33.836   9.450
 5946POPC   PO422140  44.672  33.759   9.150
 5946POPC   GL122141  44.678  33.792   8.850
 5946POPC   GL222142  44.539  33.829   8.850
 5946POPC   C1A22143  44.682  33.812   8.550
 5946POPC   D2A22144  44.645  33.825   8.250
 5946POPC   C3A22145  44.666  33.846   7.950
 5946POPC   C4A22146  44.708  33.796   7.650
 5946POPC   C1B22147  44.442  33.731   8.550
 5946POPC   C2B22148  44.458  33.791   8.250
 5946POPC   C3B22149  44.416  33.724   7.950
 5946POPC   C4B22150  44.451  33.735   7.650
 5947POPC   NC322151  12.084  18.245   9.450
 5947POPC   PO422152  12.061  18.332   9.150
 5947POPC   GL122153  12.113  18.317   8.850
 5947POPC   GL222154  11.994  18.245   8.850
 5947POPC   C1A22155  12.121  18.279   8.550
 5947POPC   D2A22156  12.071  18.256   8.250
 5947POPC   C3A22157  12.119  18.301   7.950
 5947POPC   C4A22158  12.122  18.241   7.650
 5947POPC   C1B22159  11.850  18.241   8.550
 5947POPC   C2B22160  11.871  18.250   8.250
 5947POPC   C3B22161  11.873  18.211   7.950
 5947POPC   C4B22162  11.845  18.222   7.650
 5948POPC   NC322163   5.089  17.492   9.450
 5948POPC   PO422164   5.121  17.485   9.150
 5948POPC   GL122165   5.108  17.501   8.850
 5948POPC   GL222166   4.988  17.357   8.850
 5948POPC   C1A22167   5.044  17.555   8.550
 5948POPC   D2A22168   5.078  17.510   8.250
 5948POPC   C3A22169   5.130  17.509   7.950
 5948POPC   C4A22170   5.135  17.461   7.650
 5948POPC   C1B22171   4.953  17.302   8.550
 5948POPC   C2B22172   4.935  17.317   8.250
 5948POPC   C3B22173   4.975  17.322   7.950
 5948POPC   C4B22174   4.987  17.265   7.650
 5949POPC   NC322175   1.259  26.045   9.450
 5949POPC   PO422176   1.231  25.997   9.150
 5949POPC   GL122177   1.182  26.055   8.850
 5949POPC   GL222178   1.209  25.906   8.850
 5949POPC   C1A22179   1.203  26.015   8.550
 5949POPC   D2A22180   1.186  26.061   8.250
 5949POPC   C3A22181   1.197  26.004   7.950
 5949POPC   C4A22182   1.170  26.090   7.650
 5949POPC   C1B22183   1.200  25.761   8.550
 5949POPC   C2B22184   1.205  25.807   8.250
 5949POPC   C3B22185   1.171  25.832   7.950
 5949POPC   C4B22186   1.185  25.816   7.650
 5950POPC   NC322187  42.318  21.363   9.450
 5950POPC   PO422188  42.351  21.345   9.150
 5950POPC   GL122189  42.315  21.349   8.850
 5950POPC   GL222190  42.412  21.480   8.850
 5950POPC   C1A22191  42.338  21.363   8.550
 5950POPC   D2A22192  42.322  21.425   8.250
 5950POPC   C3A22193  42.340  21.410   7.950
 5950POPC   C4A22194  42.323  21.383   7.650
 5950POPC   C1B22195  42.602  21.522   8.550
 5950POPC   C2B22196  42.518  21.451   8.250
 5950POPC   C3B22197  42.533  21.485   7.950
 5950POPC   C4B22198  42.547  21.478   7.650
 5951POPC   NC322199  33.759  19.790   9.450
 5951POPC   PO422200  33.847  19.816   9.150
 5951POPC   GL122201  33.849  19.795   8.850
 5951POPC   GL222202  33.738  19.775   8.850
 5951POPC   C1A22203  33.786  19.856   8.550
 5951POPC   D2A22204  33.766  19.842   8.250
 5951POPC   C3A22205  33.847  19.878   7.950
 5951POPC   C4A22206  33.764  19.843   7.650
 5951POPC   C1B22207  33.636  19.663   8.550
 5951POPC   C2B22208  33.614  19.645   8.250
 5951POPC   C3B22209  33.571  19.682   7.950
 5951POPC   C4B22210  33.617  19.687   7.650
 5952POPC   NC322211  43.930  28.402   9.450
 5952POPC   PO422212  43.881  28.371   9.150
 5952POPC   GL122213  43.852  28.373   8.850
 5952POPC   GL222214  43.832  28.505   8.850
 5952POPC   C1A22215  43.896  28.351   8.550
 5952POPC   D2A22216  43.893  28.409   8.250
 5952POPC   C3A22217  43.880  28.419   7.950
 5952POPC   C4A22218  43.898  28.376   7.650
 5952POPC   C1B22219  43.800  28.650   8.550
 5952POPC   C2B22220  43.846  28.664   8.250
 5952POPC   C3B22221  43.821  28.655   7.950
 5952POPC   C4B22222  43.825  28.570   7.650
 5953POPC   NC322223   4.273  20.577   9.450
 5953POPC   PO422224   4.327  20.629   9.150
 5953POPC   GL122225   4.287  20.562   8.850
 5953POPC   GL222226   4.375  20.745   8.850
 5953POPC   C1A22227   4.313  20.585   8.550
 5953POPC   D2A22228   4.302  20.623   8.250
 5953POPC   C3A22229   4.295  20.571   7.950
 5953POPC   C4A22230   4.323  20.587   7.650
 5953POPC   C1B22231   4.412  20.793   8.550
 5953POPC   C2B22232   4.407  20.812   8.250
 5953POPC   C3B22233   4.394  20.869   7.950
 5953POPC   C4B22234   4.450  20.817   7.650
 5954POPC   NC322235   8.154   9.716   9.450
 5954POPC   PO422236   8.238   9.710   9.150
 5954POPC   GL122237   8.190   9.757   8.850
 5954POPC   GL222238   8.148   9.583   8.850
 5954POPC   C1A22239   8.162   9.756   8.550
 5954POPC   D2A22240   8.159   9.748   8.250
 5954POPC   C3A22241   8.239   9.762   7.950
 5954POPC   C4A22242   8.161   9.748   7.650
 5954POPC   C1B22243   8.186   9.520   8.550
 5954POPC   C2B22244   8.165   9.462   8.250
 5954POPC   C3B22245   8.114   9.535   7.950
 5954POPC   C4B22246   8.129   9.551   7.650
 5955POPC   NC322247  14.374  29.168   9.450
 5955POPC   PO422248  14.402  29.128   9.150
 5955POPC   GL122249  14.438  29.158   8.850
 5955POPC   GL222250  14.411  29.222   8.850
 5955POPC   C1A22251  14.382  29.145   8.550
 5955POPC   D2A22252  14.449  29.192   8.250
 5955POPC   C3A22253  14.444  29.098   7.950
 5955POPC   C4A22254  14.370  29.162   7.650
 5955POPC   C1B22255  14.472  29.359   8.550
 5955POPC   C2B22256  14.473  29.359   8.250
 5955POPC   C3B22257  14.456  29.435   7.950
 5955POPC   C4B22258  14.401  29.392   7.650
 5956POPC   NC322259  43.854  34.594   9.450
 5956POPC   PO422260  43.845  34.567   9.150
 5956POPC   GL122261  43.838  34.625   8.850
 5956POPC   GL222262  43.791  34.543   8.850
 5956POPC   C1A22263  43.929  34.596   8.550
 5956POPC   D2A22264  43.860  34.608   8.250
 5956POPC   C3A22265  43.878  34.599   7.950
 5956POPC   C4A22266  43.915  34.572   7.650
 5956POPC   C1B22267  43.620  34.463   8.550
 5956POPC   C2B22268  43.682  34.416   8.250
 5956POPC   C3B22269  43.625  34.426   7.950
 5956POPC   C4B22270  43.674  34.419   7.650
 5957POPC   NC322271  12.817  36.862   9.450
 5957POPC   PO422272  12.860  36.899   9.150
 5957POPC   GL122273  12.882  36.898   8.850
 5957POPC   GL222274  12.956  36.802   8.850
 5957POPC   C1A22275  12.889  36.919   8.550
 5957POPC   D2A22276  12.886  36.946   8.250
 5957POPC   C3A22277  12.862  36.874   7.950
 5957POPC   C4A22278  12.848  36.933   7.650
 5957POPC   C1B22279  13.026  36.722   8.550
 5957POPC   C2B22280  13.030  36.681   8.250
 5957POPC   C3B22281  13.065  36.729   7.950
 5957POPC   C4B22282  12.984  36.747   7.650
 5958POPC   NC322283   3.530  41.597   9.450
 5958POPC   PO422284   3.504  41.597   9.150
 5958POPC   GL122285   3.504  41.551   8.850
 5958POPC   GL222286   3.643  41.681   8.850
 5958POPC   C1A22287   3.492  41.553   8.550
 5958POPC   D2A22288   3.542  41.555   8.250
 5958POPC   C3A22289   3.582  41.580   7.950
 5958POPC   C4A22290   3.538  41.579   7.650
 5958POPC   C1B22291   3.739  41.770   8.550
 5958POPC   C2B22292   3.684  41.764   8.250
 5958POPC   C3B22293   3.682  41.695   7.950
 5958POPC   C4B22294   3.713  41.730   7.650
 5959POPC   NC322295  32.204   5.823   9.450
 5959POPC   PO422296  32.294   5.917   9.150
 5959POPC   GL122297  32.254   5.915   8.850
 5959POPC   GL222298  32.303   5.800   8.850
 5959POPC   C1A22299  32.214   5.872   8.550
 5959POPC   D2A22300  32.291   5.823   8.250
 5959POPC   C3A22301  32.237   5.892   7.950
 5959POPC   C4A22302  32.267   5.876   7.650
 5959POPC   C1B22303  32.400   5.702   8.550
 5959POPC   C2B22304  32.477   5.669   8.250
 5959POPC   C3B22305  32.445   5.670   7.950
 5959POPC   C4B22306  32.480   5.720   7.650
 5960POPC   NC322307   2.772  18.292   9.450
 5960POPC   PO422308   2.747  18.271   9.150
 5960POPC   GL122309   2.745  18.245   8.850
 5960POPC   GL222310   2.818  18.222   8.850
 5960POPC   C1A22311   2.768  18.303   8.550
 5960POPC   D2A22312   2.722  18.327   8.250
 5960POPC   C3A22313   2.781  18.331   7.950
 5960POPC   C4A22314   2.771  18.299   7.650
 5960POPC   C1B22315   2.936  18.075   8.550
 5960POPC   C2B22316   2.939  18.119   8.250
 5960POPC   C3B22317   2.910  18.103   7.950
 5960POPC   C4B22318   2.937  18.144   7.650
 5961POPC   NC322319   7.456   1.949   9.450
 5961POPC   PO422320   7.425   1.979   9.150
 5961POPC   GL122321   7.393   1.961   8.850
 5961POPC   GL222322   7.535   1.962   8.850
 5961POPC   C1A22323   7.451   1.977   8.550
 5961POPC   D2A22324   7.444   2.009   8.250
 5961POPC   C3A22325   7.437   2.030   7.950
 5961POPC   C4A22326   7.433   1.979   7.650
 5961POPC   C1B22327   7.701   1.962   8.550
 5961POPC   C2B22328   7.659   1.965   8.250
 5961POPC   C3B22329   7.639   1.899   7.950
 5961POPC   C4B22330   7.642   1.943   7.650
 5962POPC   NC322331   8.934  11.337   9.450
 5962POPC   PO422332   8.943  11.339   9.150
 5962POPC   GL122333   8.970  11.309   8.850
 5962POPC   GL222334   8.993  11.207   8.850
 5962POPC   C1A22335   8.927  11.347   8.550
 5962POPC   D2A22336   8.995  11.318   8.250
 5962POPC   C3A22337   8.992  11.269   7.950
 5962POPC   C4A22338   8.980  11.296   7.650
 5962POPC   C1B22339   9.002  11.069   8.550
 5962POPC   C2B22340   8.998  11.009   8.250
 5962POPC   C3B22341   8.935  11.042   7.950
 5962POPC   C4B22342   8.947  11.056   7.650
 5963POPC   NC322343  43.062  10.559   9.450
 5963POPC   PO422344  43.155  10.543   9.150
 5963POPC   GL122345  43.153  10.523   8.850
 5963POPC   GL222346  43.004  10.544   8.850
 5963POPC   C1A22347  43.090  10.535   8.550
 5963POPC   D2A22348  43.068  10.565   8.250
 5963POPC   C3A22349  43.113  10.507   7.950
 5963POPC   C4A22350  43.085  10.543   7.650
 5963POPC   C1B22351  42.872  10.527   8.550
 5963POPC   C2B22352  42.819  10.510   8.250
 5963POPC   C3B22353  42.859  10.559   7.950
 5963POPC   C4B22354  42.858  10.563   7.650
 5964POPC   NC322355   9.021   3.533   9.450
 5964POPC   PO422356   8.974   3.538   9.150
 5964POPC   GL122357   8.938   3.526   8.850
 5964POPC   GL222358   8.846   3.629   8.850
 5964POPC   C1A22359   8.961   3.581   8.550
 5964POPC   D2A22360   8.944   3.509   8.250
 5964POPC   C3A22361   8.964   3.540   7.950
 5964POPC   C4A22362   8.992   3.511   7.650
 5964POPC   C1B22363   8.810   3.742   8.550
 5964POPC   C2B22364   8.860   3.691   8.250
 5964POPC   C3B22365   8.822   3.763   7.950
 5964POPC   C4B22366   8.844   3.733   7.650
 5965POPC   NC322367   3.503  13.648   9.450
 5965POPC   PO422368   3.570  13.616   9.150
 5965POPC   GL122369   3.560  13.626   8.850
 5965POPC   GL222370   3.679  13.589   8.850
 5965POPC   C1A22371   3.505  13.580   8.550
 5965POPC   D2A22372   3.508  13.586   8.250
 5965POPC   C3A22373   3.543  13.621   7.950
 5965POPC   C4A22374   3.575  13.607   7.650
 5965POPC   C1B22375   3.840  13.622   8.550
 5965POPC   C2B22376   3.770  13.655   8.250
 5965POPC   C3B22377   3.791  13.662   7.950
 5965POPC   C4B22378   3.811  13.681   7.650
 5966POPC   NC322379   2.782  39.256   9.450
 5966POPC   PO422380   2.813  39.185   9.150
 5966POPC   GL122381   2.790  39.217   8.850
 5966POPC   GL222382   2.838  39.076   8.850
 5966POPC   C1A22383   2.739  39.223   8.550
 5966POPC   D2A22384   2.773  39.190   8.250
 5966POPC   C3A22385   2.758  39.272   7.950
 5966POPC   C4A22386   2.758  39.220   7.650
 5966POPC   C1B22387   2.826  39.047   8.550
 5966POPC   C2B22388   2.865  38.965   8.250
 5966POPC   C3B22389   2.836  38.993   7.950
 5966POPC   C4B22390   2.837  39.008   7.650
 5967POPC   NC322391  19.050  16.771   9.450
 5967POPC   PO422392  19.060  16.690   9.150
 5967POPC   GL122393  19.107  16.772   8.850
 5967POPC   GL222394  19.174  16.850   8.850
 5967POPC   C1A22395  19.097  16.682   8.550
 5967POPC   D2A22396  19.073  16.704   8.250
 5967POPC   C3A22397  19.105  16.726   7.950
 5967POPC   C4A22398  19.033  16.692   7.650
 5967POPC   C1B22399  19.250  16.881   8.550
 5967POPC   C2B22400  19.224  16.933   8.250
 5967POPC   C3B22401  19.232  16.874   7.950
 5967POPC   C4B22402  19.268  16.966   7.650
 5968POPC   NC322403  38.472   0.416   9.450
 5968POPC   PO422404  38.488   0.446   9.150
 5968POPC   GL122405  38.412   0.481   8.850
 5968POPC   GL222406  38.311   0.342   8.850
 5968POPC   C1A22407  38.485   0.487   8.550
 5968POPC   D2A22408  38.426   0.423   8.250
 5968POPC   C3A22409  38.410   0.389   7.950
 5968POPC   C4A22410  38.408   0.398   7.650
 5968POPC   C1B22411  38.204   0.291   8.550
 5968POPC   C2B22412  38.238   0.343   8.250
 5968POPC   C3B22413  38.270   0.329   7.950
 5968POPC   C4B22414  38.274   0.362   7.650
 5969POPC   NC322415   1.179  19.045   9.450
 5969POPC   PO422416   1.166  19.052   9.150
 5969POPC   GL122417   1.223  19.019   8.850
 5969POPC   GL222418   1.344  19.076   8.850
 5969POPC   C1A22419   1.257  19.013   8.550
 5969POPC   D2A22420   1.238  19.022   8.250
 5969POPC   C3A22421   1.218  19.047   7.950
 5969POPC   C4A22422   1.215  19.024   7.650
 5969POPC   C1B22423   1.483  19.043   8.550
 5969POPC   C2B22424   1.492  19.065   8.250
 5969POPC   C3B22425   1.425  19.007   7.950
 5969POPC   C4B22426   1.443  19.086   7.650
 5970POPC   NC322427   9.739  20.625   9.450
 5970POPC   PO422428   9.766  20.578   9.150
 5970POPC   GL122429   9.759  20.606   8.850
 5970POPC   GL222430   9.672  20.567   8.850
 5970POPC   C1A22431   9.705  20.601   8.550
 5970POPC   D2A22432   9.791  20.578   8.250
 5970POPC   C3A22433   9.771  20.658   7.950
 5970POPC   C4A22434   9.792  20.635   7.650
 5970POPC   C1B22435   9.519  20.511   8.550
 5970POPC   C2B22436   9.532  20.542   8.250
 5970POPC   C3B22437   9.515  20.562   7.950
 5970POPC   C4B22438   9.471  20.589   7.650
 5971POPC   NC322439   7.427  37.717   9.450
 5971POPC   PO422440   7.459  37.636   9.150
 5971POPC   GL122441   7.414  37.683   8.850
 5971POPC   GL222442   7.491  37.660   8.850
 5971POPC   C1A22443   7.371  37.649   8.550
 5971POPC   D2A22444   7.445  37.632   8.250
 5971POPC   C3A22445   7.393  37.722   7.950
 5971POPC   C4A22446   7.390  37.668   7.650
 5971POPC   C1B22447   7.600  37.546   8.550
 5971POPC   C2B22448   7.691  37.535   8.250
 5971POPC   C3B22449   7.640  37.521   7.950
 5971POPC   C4B22450   7.685  37.524   7.650
 5972POPC   NC322451  15.198  42.364   9.450
 5972POPC   PO422452  15.140  42.369   9.150
 5972POPC   GL122453  15.197  42.339   8.850
 5972POPC   GL222454  15.236  42.243   8.850
 5972POPC   C1A22455  15.191  42.354   8.550
 5972POPC   D2A22456  15.138  42.348   8.250
 5972POPC   C3A22457  15.203  42.354   7.950
 5972POPC   C4A22458  15.129  42.328   7.650
 5972POPC   C1B22459  15.296  42.161   8.550
 5972POPC   C2B22460  15.338  42.121   8.250
 5972POPC   C3B22461  15.246  42.115   7.950
 5972POPC   C4B22462  15.291  42.072   7.650
 5973POPC   NC322463  12.849  23.666   9.450
 5973POPC   PO422464  12.864  23.692   9.150
 5973POPC   GL122465  12.886  23.758   8.850
 5973POPC   GL222466  12.906  23.558   8.850
 5973POPC   C1A22467  12.830  23.665   8.550
 5973POPC   D2A22468  12.818  23.723   8.250
 5973POPC   C3A22469  12.819  23.698   7.950
 5973POPC   C4A22470  12.849  23.740   7.650
 5973POPC   C1B22471  12.911  23.508   8.550
 5973POPC   C2B22472  12.909  23.489   8.250
 5973POPC   C3B22473  12.945  23.447   7.950
 5973POPC   C4B22474  12.948  23.456   7.650
 5974POPC   NC322475  23.679  31.450   9.450
 5974POPC   PO422476  23.752  31.444   9.150
 5974POPC   GL122477  23.743  31.476   8.850
 5974POPC   GL222478  23.802  31.542   8.850
 5974POPC   C1A22479  23.736  31.469   8.550
 5974POPC   D2A22480  23.733  31.455   8.250
 5974POPC   C3A22481  23.732  31.426   7.950
 5974POPC   C4A22482  23.739  31.449   7.650
 5974POPC   C1B22483  23.972  31.588   8.550
 5974POPC   C2B22484  23.930  31.546   8.250
 5974POPC   C3B22485  23.900  31.575   7.950
 5974POPC   C4B22486  23.923  31.545   7.650
 5975POPC   NC322487  15.997  19.102   9.450
 5975POPC   PO422488  15.943  19.032   9.150
 5975POPC   GL122489  15.996  19.031   8.850
 5975POPC   GL222490  16.091  19.100   8.850
 5975POPC   C1A22491  15.919  19.026   8.550
 5975POPC   D2A22492  15.986  19.029   8.250
 5975POPC   C3A22493  15.989  19.085   7.950
 5975POPC   C4A22494  15.949  19.053   7.650
 5975POPC   C1B22495  16.151  19.115   8.550
 5975POPC   C2B22496  16.194  19.095   8.250
 5975POPC   C3B22497  16.239  19.163   7.950
 5975POPC   C4B22498  16.190  19.155   7.650
 5976POPC   NC322499  11.339  37.656   9.450
 5976POPC   PO422500  11.259  37.703   9.150
 5976POPC   GL122501  11.288  37.684   8.850
 5976POPC   GL222502  11.326  37.740   8.850
 5976POPC   C1A22503  11.321  37.664   8.550
 5976POPC   D2A22504  11.271  37.631   8.250
 5976POPC   C3A22505  11.315  37.719   7.950
 5976POPC   C4A22506  11.325  37.675   7.650
 5976POPC   C1B22507  11.453  37.858   8.550
 5976POPC   C2B22508  11.450  37.860   8.250
 5976POPC   C3B22509  11.432  37.892   7.950
 5976POPC   C4B22510  11.491  37.851   7.650
 5977POPC   NC322511  23.725   7.434   9.450
 5977POPC   PO422512  23.700   7.415   9.150
 5977POPC   GL122513  23.734   7.470   8.850
 5977POPC   GL222514  23.791   7.365   8.850
 5977POPC   C1A22515  23.759   7.434   8.550
 5977POPC   D2A22516  23.691   7.417   8.250
 5977POPC   C3A22517  23.717   7.458   7.950
 5977POPC   C4A22518  23.687   7.450   7.650
 5977POPC   C1B22519  23.888   7.329   8.550
 5977POPC   C2B22520  23.914   7.334   8.250
 5977POPC   C3B22521  23.976   7.332   7.950
 5977POPC   C4B22522  23.890   7.315   7.650
 5978POPC   NC322523   5.856  12.097   9.450
 5978POPC   PO422524   5.879  12.116   9.150
 5978POPC   GL122525   5.825  12.094   8.850
 5978POPC   GL222526   5.894  12.194   8.850
 5978POPC   C1A22527   5.873  12.092   8.550
 5978POPC   D2A22528   5.879  12.106   8.250
 5978POPC   C3A22529   5.821  12.110   7.950
 5978POPC   C4A22530   5.859  12.081   7.650
 5978POPC   C1B22531   5.884  12.279   8.550
 5978POPC   C2B22532   5.951  12.353   8.250
 5978POPC   C3B22533   5.932  12.350   7.950
 5978POPC   C4B22534   5.947  12.366   7.650
 5979POPC   NC322535  26.778   2.736   9.450
 5979POPC   PO422536  26.787   2.800   9.150
 5979POPC   GL122537  26.848   2.788   8.850
 5979POPC   GL222538  26.794   2.891   8.850
 5979POPC   C1A22539  26.865   2.733   8.550
 5979POPC   D2A22540  26.858   2.757   8.250
 5979POPC   C3A22541  26.830   2.756   7.950
 5979POPC   C4A22542  26.818   2.792   7.650
 5979POPC   C1B22543  26.859   2.988   8.550
 5979POPC   C2B22544  26.877   2.997   8.250
 5979POPC   C3B22545  26.810   2.974   7.950
 5979POPC   C4B22546  26.822   3.022   7.650
 5980POPC   NC322547  11.301  38.436   9.450
 5980POPC   PO422548  11.347  38.457   9.150
 5980POPC   GL122549  11.269  38.489   8.850
 5980POPC   GL222550  11.444  38.391   8.850
 5980POPC   C1A22551  11.263  38.465   8.550
 5980POPC   D2A22552  11.300  38.443   8.250
 5980POPC   C3A22553  11.308  38.498   7.950
 5980POPC   C4A22554  11.331  38.488   7.650
 5980POPC   C1B22555  11.547  38.453   8.550
 5980POPC   C2B22556  11.544  38.373   8.250
 5980POPC   C3B22557  11.593  38.432   7.950
 5980POPC   C4B22558  11.509  38.442   7.650
 5981POPC   NC322559  42.354  31.466   9.450
 5981POPC   PO422560  42.307  31.489   9.150
 5981POPC   GL122561  42.349  31.514   8.850
 5981POPC   GL222562  42.407  31.475   8.850
 5981POPC   C1A22563  42.313  31.501   8.550
 5981POPC   D2A22564  42.310  31.460   8.250
 5981POPC   C3A22565  42.380  31.476   7.950
 5981POPC   C4A22566  42.373  31.449   7.650
 5981POPC   C1B22567  42.548  31.560   8.550
 5981POPC   C2B22568  42.590  31.612   8.250
 5981POPC   C3B22569  42.609  31.601   7.950
 5981POPC   C4B22570  42.525  31.613   7.650
 5982POPC   NC322571   5.093  29.186   9.450
 5982POPC   PO422572   5.092  29.182   9.150
 5982POPC   GL122573   5.072  29.126   8.850
 5982POPC   GL222574   5.123  29.317   8.850
 5982POPC   C1A22575   5.066  29.154   8.550
 5982POPC   D2A22576   5.113  29.186   8.250
 5982POPC   C3A22577   5.102  29.149   7.950
 5982POPC   C4A22578   5.128  29.152   7.650
 5982POPC   C1B22579   5.124  29.361   8.550
 5982POPC   C2B22580   5.104  29.439   8.250
 5982POPC   C3B22581   5.087  29.435   7.950
 5982POPC   C4B22582   5.092  29.405   7.650
 5983POPC   NC322583  36.151  25.299   9.450
 5983POPC   PO422584  36.102  25.304   9.150
 5983POPC   GL122585  36.128  25.315   8.850
 5983POPC   GL222586  36.000  25.202   8.850
 5983POPC   C1A22587  36.106  25.271   8.550
 5983POPC   D2A22588  36.143  25.249   8.250
 5983POPC   C3A22589  36.168  25.309   7.950
 5983POPC   C4A22590  36.168  25.302   7.650
 5983POPC   C1B22591  35.941  25.059   8.550
 5983POPC   C2B22592  35.917  25.128   8.250
 5983POPC   C3B22593  35.963  25.054   7.950
 5983POPC   C4B22594  35.947  25.082   7.650
 5984POPC   NC322595  41.605  32.250   9.450
 5984POPC   PO422596  41.547  32.280   9.150
 5984POPC   GL122597  41.567  32.217   8.850
 5984POPC   GL222598  41.510  32.385   8.850
 5984POPC   C1A22599  41.518  32.238   8.550
 5984POPC   D2A22600  41.531  32.252   8.250
 5984POPC   C3A22601  41.541  32.295   7.950
 5984POPC   C4A22602  41.584  32.256   7.650
 5984POPC   C1B22603  41.493  32.479   8.550
 5984POPC   C2B22604  41.566  32.544   8.250
 5984POPC   C3B22605  41.541  32.514   7.950
 5984POPC   C4B22606  41.549  32.497   7.650
 5985POPC   NC322607  31.494   5.129   9.450
 5985POPC   PO422608  31.451   5.079   9.150
 5985POPC   GL122609  31.467   5.113   8.850
 5985POPC   GL222610  31.386   5.038   8.850
 5985POPC   C1A22611  31.457   5.043   8.550
 5985POPC   D2A22612  31.453   5.126   8.250
 5985POPC   C3A22613  31.521   5.073   7.950
 5985POPC   C4A22614  31.482   5.064   7.650
 5985POPC   C1B22615  31.275   4.995   8.550
 5985POPC   C2B22616  31.245   4.908   8.250
 5985POPC   C3B22617  31.272   4.933   7.950
 5985POPC   C4B22618  31.272   4.962   7.650
 5986POPC   NC322619  33.070  12.872   9.450
 5986POPC   PO422620  33.033  12.867   9.150
 5986POPC   GL122621  33.028  12.870   8.850
 5986POPC   GL222622  33.006  12.766   8.850
 5986POPC   C1A22623  33.016  12.895   8.550
 5986POPC   D2A22624  32.989  12.815   8.250
 5986POPC   C3A22625  32.985  12.842   7.950
 5986POPC   C4A22626  33.063  12.836   7.650
 5986POPC   C1B22627  32.990  12.583   8.550
 5986POPC   C2B22628  32.941  12.650   8.250
 5986POPC   C3B22629  32.974  12.568   7.950
 5986POPC   C4B22630  32.977  12.606   7.650
 5987POPC   NC322631  35.394  24.539   9.450
 5987POPC   PO422632  35.306  24.522   9.150
 5987POPC   GL122633  35.362  24.505   8.850
 5987POPC   GL222634  35.243  24.515   8.850
 5987POPC   C1A22635  35.382  24.517   8.550
 5987POPC   D2A22636  35.330  24.515   8.250
 5987POPC   C3A22637  35.390  24.475   7.950
 5987POPC   C4A22638  35.336  24.499   7.650
 5987POPC   C1B22639  35.142  24.516   8.550
 5987POPC   C2B22640  35.066  24.507   8.250
 5987POPC   C3B22641  35.086  24.517   7.950
 5987POPC   C4B22642  35.151  24.518   7.650
 5988POPC   NC322643  21.392  12.120   9.450
 5988POPC   PO422644  21.400  12.075   9.150
 5988POPC   GL122645  21.389  12.104   8.850
 5988POPC   GL222646  21.508  11.991   8.850
 5988POPC   C1A22647  21.393  12.061   8.550
 5988POPC   D2A22648  21.338  12.057   8.250
 5988POPC   C3A22649  21.383  12.065   7.950
 5988POPC   C4A22650  21.386  12.091   7.650
 5988POPC   C1B22651  21.536  11.843   8.550
 5988POPC   C2B22652  21.519  11.903   8.250
 5988POPC   C3B22653  21.544  11.911   7.950
 5988POPC   C4B22654  21.565  11.885   7.650
 5989POPC   NC322655  33.066   7.444   9.450
 5989POPC   PO422656  32.982   7.386   9.150
 5989POPC   GL122657  33.017   7.458   8.850
 5989POPC   GL222658  32.865   7.482   8.850
 5989POPC   C1A22659  32.988   7.434   8.550
 5989POPC   D2A22660  33.074   7.451   8.250
 5989POPC   C3A22661  33.062   7.384   7.950
 5989POPC   C4A22662  33.022   7.408   7.650
 5989POPC   C1B22663  32.766   7.561   8.550
 5989POPC   C2B22664  32.767   7.552   8.250
 5989POPC   C3B22665  32.836   7.585   7.950
 5989POPC   C4B22666  32.826   7.547   7.650
 5990POPC   NC322667  17.485  40.830   9.450
 5990POPC   PO422668  17.484  40.747   9.150
 5990POPC   GL122669  17.489  40.751   8.850
 5990POPC   GL222670  17.337  40.768   8.850
 5990POPC   C1A22671  17.496  40.742   8.550
 5990POPC   D2A22672  17.505  40.776   8.250
 5990POPC   C3A22673  17.511  40.754   7.950
 5990POPC   C4A22674  17.493  40.740   7.650
 5990POPC   C1B22675  17.229  40.726   8.550
 5990POPC   C2B22676  17.273  40.714   8.250
 5990POPC   C3B22677  17.310  40.696   7.950
 5990POPC   C4B22678  17.225  40.736   7.650
 5991POPC   NC322679  23.680  24.540   9.450
 5991POPC   PO422680  23.719  24.449   9.150
 5991POPC   GL122681  23.712  24.485   8.850
 5991POPC   GL222682  23.612  24.454   8.850
 5991POPC   C1A22683  23.706  24.536   8.550
 5991POPC   D2A22684  23.759  24.481   8.250
 5991POPC   C3A22685  23.729  24.494   7.950
 5991POPC   C4A22686  23.742  24.524   7.650
 5991POPC   C1B22687  23.447  24.447   8.550
 5991POPC   C2B22688  23.475  24.471   8.250
 5991POPC   C3B22689  23.483  24.410   7.950
 5991POPC   C4B22690  23.483  24.477   7.650
 5992POPC   NC322691  15.972  29.872   9.450
 5992POPC   PO422692  15.918  29.919   9.150
 5992POPC   GL122693  15.992  29.874   8.850
 5992POPC   GL222694  16.059  29.932   8.850
 5992POPC   C1A22695  15.913  29.919   8.550
 5992POPC   D2A22696  15.919  29.970   8.250
 5992POPC   C3A22697  15.911  29.882   7.950
 5992POPC   C4A22698  15.994  29.874   7.650
 5992POPC   C1B22699  16.156  29.864   8.550
 5992POPC   C2B22700  16.216  29.852   8.250
 5992POPC   C3B22701  16.240  29.886   7.950
 5992POPC   C4B22702  16.221  29.860   7.650
 5993POPC   NC322703  24.489   9.788   9.450
 5993POPC   PO422704  24.524   9.714   9.150
 5993POPC   GL122705  24.515   9.760   8.850
 5993POPC   GL222706  24.440   9.884   8.850
 5993POPC   C1A22707  24.519   9.783   8.550
 5993POPC   D2A22708  24.521   9.792   8.250
 5993POPC   C3A22709  24.465   9.702   7.950
 5993POPC   C4A22710  24.477   9.785   7.650
 5993POPC   C1B22711  24.412   9.971   8.550
 5993POPC   C2B22712  24.355   9.937   8.250
 5993POPC   C3B22713  24.352   9.981   7.950
 5993POPC   C4B22714  24.362   9.923   7.650
 5994POPC   NC322715  12.866   7.420   9.450
 5994POPC   PO422716  12.850   7.458   9.150
 5994POPC   GL122717  12.876   7.451   8.850
 5994POPC   GL222718  12.957   7.290   8.850
 5994POPC   C1A22719  12.874   7.449   8.550
 5994POPC   D2A22720  12.844   7.387   8.250
 5994POPC   C3A22721  12.827   7.373   7.950
 5994POPC   C4A22722  12.852   7.446   7.650
 5994POPC   C1B22723  13.005   7.211   8.550
 5994POPC   C2B22724  13.011   7.199   8.250
 5994POPC   C3B22725  12.944   7.236   7.950
 5994POPC   C4B22726  12.941   7.194   7.650
 5995POPC   NC322727  40.745  14.452   9.450
 5995POPC   PO422728  40.787  14.426   9.150
 5995POPC   GL122729  40.748  14.376   8.850
 5995POPC   GL222730  40.671  14.312   8.850
 5995POPC   C1A22731  40.769  14.431   8.550
 5995POPC   D2A22732  40.810  14.401   8.250
 5995POPC   C3A22733  40.749  14.366   7.950
 5995POPC   C4A22734  40.746  14.437   7.650
 5995POPC   C1B22735  40.551  14.216   8.550
 5995POPC   C2B22736  40.575  14.280   8.250
 5995POPC   C3B22737  40.580  14.291   7.950
 5995POPC   C4B22738  40.548  14.237   7.650
 5996POPC   NC322739   1.225  43.087   9.450
 5996POPC   PO422740   1.184  43.094   9.150
 5996POPC   GL122741   1.231  43.156   8.850
 5996POPC   GL222742   1.288  43.227   8.850
 5996POPC   C1A22743   1.257  43.092   8.550
 5996POPC   D2A22744   1.168  43.101   8.250
 5996POPC   C3A22745   1.187  43.083   7.950
 5996POPC   C4A22746   1.251  43.074   7.650
 5996POPC   C1B22747   1.363  43.306   8.550
 5996POPC   C2B22748   1.362  43.304   8.250
 5996POPC   C3B22749   1.307  43.342   7.950
 5996POPC   C4B22750   1.308  43.301   7.650
 5997POPC   NC322751  20.601  36.944   9.450
 5997POPC   PO422752  20.562  36.924   9.150
 5997POPC   GL122753  20.563  36.905   8.850
 5997POPC   GL222754  20.634  37.052   8.850
 5997POPC   C1A22755  20.576  36.931   8.550
 5997POPC   D2A22756  20.579  36.889   8.250
 5997POPC   C3A22757  20.589  36.950   7.950
 5997POPC   C4A22758  20.631  36.919   7.650
 5997POPC   C1B22759  20.633  37.166   8.550
 5997POPC   C2B22760  20.618  37.105   8.250
 5997POPC   C3B22761  20.672  37.194   7.950
 5997POPC   C4B22762  20.635  37.195   7.650
 5998POPC   NC322763  15.184   5.080   9.450
 5998POPC   PO422764  15.162   5.126   9.150
 5998POPC   GL122765  15.191   5.109   8.850
 5998POPC   GL222766  15.092   5.000   8.850
 5998POPC   C1A22767  15.161   5.050   8.550
 5998POPC   D2A22768  15.135   5.133   8.250
 5998POPC   C3A22769  15.138   5.069   7.950
 5998POPC   C4A22770  15.153   5.099   7.650
 5998POPC   C1B22771  15.027   4.897   8.550
 5998POPC   C2B22772  15.036   4.946   8.250
 5998POPC   C3B22773  14.986   4.965   7.950
 5998POPC   C4B22774  15.030   4.969   7.650
 5999POPC   NC322775   3.582  16.715   9.450
 5999POPC   PO422776   3.539  16.687   9.150
 5999POPC   GL122777   3.536  16.739   8.850
 5999POPC   GL222778   3.553  16.802   8.850
 5999POPC   C1A22779   3.536  16.710   8.550
 5999POPC   D2A22780   3.549  16.741   8.250
 5999POPC   C3A22781   3.549  16.737   7.950
 5999POPC   C4A22782   3.548  16.693   7.650
 5999POPC   C1B22783   3.621  16.984   8.550
 5999POPC   C2B22784   3.594  16.931   8.250
 5999POPC   C3B22785   3.616  16.948   7.950
 5999POPC   C4B22786   3.650  16.972   7.650
 6000POPC   NC322787  43.866  40.753   9.450
 6000POPC   PO422788  43.935  40.756   9.150
 6000POPC   GL122789  43.919  40.763   8.850
 6000POPC   GL222790  43.956  40.803   8.850
 6000POPC   C1A22791  43.923  40.815   8.550
 6000POPC   D2A22792  43.876  40.777   8.250
 6000POPC   C3A22793  43.846  40.744   7.950
 6000POPC   C4A22794  43.888  40.749   7.650
 6000POPC   C1B22795  44.066  40.946   8.550
 6000POPC   C2B22796  44.092  40.918   8.250
 6000POPC   C3B22797  44.079  40.896   7.950
 6000POPC   C4B22798  44.099  40.908   7.650
 6001POPC   NC322799  12.106   4.327   9.450
 6001POPC   PO422800  12.098   4.347   9.150
 6001POPC   GL122801  12.120   4.301   8.850
 6001POPC   GL222802  11.967   4.361   8.850
 6001POPC   C1A22803  12.115   4.291   8.550
 6001POPC   D2A22804  12.101   4.313   8.250
 6001POPC   C3A22805  12.111   4.338   7.950
 6001POPC   C4A22806  12.055   4.295   7.650
 6001POPC   C1B22807  11.886   4.508   8.550
 6001POPC   C2B22808  11.885   4.464   8.250
 6001POPC   C3B22809  11.945   4.538   7.950
 6001POPC   C4B22810  11.937   4.455   7.650
 6002POPC   NC322811   5.825  42.360   9.450
 6002POPC   PO422812   5.909  42.343   9.150
 6002POPC   GL122813   5.876  42.362   8.850
 6002POPC   GL222814   5.839  42.172   8.850
 6002POPC   C1A22815   5.898  42.285   8.550
 6002POPC   D2A22816   5.854  42.384   8.250
 6002POPC   C3A22817   5.886  42.351   7.950
 6002POPC   C4A22818   5.881  42.373   7.650
 6002POPC   C1B22819   5.938  42.083   8.550
 6002POPC   C2B22820   5.903  42.116   8.250
 6002POPC   C3B22821   5.906  42.071   7.950
 6002POPC   C4B22822   5.865  42.113   7.650
 6003POPC   NC322823  32.224   0.439   9.450
 6003POPC   PO422824  32.234   0.475   9.150
 6003POPC   GL122825  32.208   0.474   8.850
 6003POPC   GL222826  32.099   0.497   8.850
 6003POPC   C1A22827  32.261   0.464   8.550
 6003POPC   D2A22828  32.276   0.437   8.250
 6003POPC   C3A22829  32.284   0.458   7.950
 6003POPC   C4A22830  32.238   0.451   7.650
 6003POPC   C1B22831  32.037   0.423   8.550
 6003POPC   C2B22832  31.970   0.428   8.250
 6003POPC   C3B22833  31.996   0.460   7.950
 6003POPC   C4B22834  31.995   0.439   7.650
 6004POPC   NC322835   6.633  40.778   9.450
 6004POPC   PO422836   6.610  40.751   9.150
 6004POPC   GL122837   6.638  40.787   8.850
 6004POPC   GL222838   6.579  40.652   8.850
 6004POPC   C1A22839   6.650  40.762   8.550
 6004POPC   D2A22840   6.671  40.826   8.250
 6004POPC   C3A22841   6.684  40.753   7.950
 6004POPC   C4A22842   6.667  40.796   7.650
 6004POPC   C1B22843   6.554  40.547   8.550
 6004POPC   C2B22844   6.489  40.614   8.250
 6004POPC   C3B22845   6.528  40.557   7.950
 6004POPC   C4B22846   6.540  40.581   7.650
 6005POPC   NC322847  35.322  26.046   9.450
 6005POPC   PO422848  35.308  26.072   9.150
 6005POPC   GL122849  35.337  25.999   8.850
 6005POPC   GL222850  35.489  26.059   8.850
 6005POPC   C1A22851  35.325  26.020   8.550
 6005POPC   D2A22852  35.366  26.017   8.250
 6005POPC   C3A22853  35.349  26.042   7.950
 6005POPC   C4A22854  35.368  26.027   7.650
 6005POPC   C1B22855  35.594  26.158   8.550
 6005POPC   C2B22856  35.549  26.138   8.250
 6005POPC   C3B22857  35.524  26.166   7.950
 6005POPC   C4B22858  35.577  26.163   7.650
 6006POPC   NC322859  29.108  43.878   9.450
 6006POPC   PO422860  29.098  43.887   9.150
 6006POPC   GL122861  29.138  43.908   8.850
 6006POPC   GL222862  29.190  43.766   8.850
 6006POPC   C1A22863  29.138  43.843   8.550
 6006POPC   D2A22864  29.157  43.915   8.250
 6006POPC   C3A22865  29.111  43.848   7.950
 6006POPC   C4A22866  29.141  43.845   7.650
 6006POPC   C1B22867  29.185  43.679   8.550
 6006POPC   C2B22868  29.180  43.656   8.250
 6006POPC   C3B22869  29.250  43.669   7.950
 6006POPC   C4B22870  29.176  43.624   7.650
 6007POPC   NC322871  36.127  32.229   9.450
 6007POPC   PO422872  36.159  32.207   9.150
 6007POPC   GL122873  36.094  32.235   8.850
 6007POPC   GL222874  36.179  32.109   8.850
 6007POPC   C1A22875  36.145  32.292   8.550
 6007POPC   D2A22876  36.128  32.275   8.250
 6007POPC   C3A22877  36.164  32.232   7.950
 6007POPC   C4A22878  36.160  32.230   7.650
 6007POPC   C1B22879  36.227  32.029   8.550
 6007POPC   C2B22880  36.255  31.972   8.250
 6007POPC   C3B22881  36.203  32.054   7.950
 6007POPC   C4B22882  36.174  31.995   7.650
 6008POPC   NC322883   5.054  15.921   9.450
 6008POPC   PO422884   5.100  15.941   9.150
 6008POPC   GL122885   5.115  15.983   8.850
 6008POPC   GL222886   4.978  15.944   8.850
 6008POPC   C1A22887   5.112  15.922   8.550
 6008POPC   D2A22888   5.107  15.982   8.250
 6008POPC   C3A22889   5.112  15.931   7.950
 6008POPC   C4A22890   5.114  15.976   7.650
 6008POPC   C1B22891   4.799  15.860   8.550
 6008POPC   C2B22892   4.815  15.927   8.250
 6008POPC   C3B22893   4.818  15.923   7.950
 6008POPC   C4B22894   4.884  15.914   7.650
 6009POPC   NC322895  42.355  17.468   9.450
 6009POPC   PO422896  42.351  17.525   9.150
 6009POPC   GL122897  42.321  17.538   8.850
 6009POPC   GL222898  42.462  17.549   8.850
 6009POPC   C1A22899  42.349  17.531   8.550
 6009POPC   D2A22900  42.351  17.533   8.250
 6009POPC   C3A22901  42.299  17.554   7.950
 6009POPC   C4A22902  42.298  17.543   7.650
 6009POPC   C1B22903  42.506  17.681   8.550
 6009POPC   C2B22904  42.586  17.659   8.250
 6009POPC   C3B22905  42.504  17.677   7.950
 6009POPC   C4B22906  42.533  17.654   7.650
 6010POPC   NC322907  36.134  12.808   9.450
 6010POPC   PO422908  36.160  12.836   9.150
 6010POPC   GL122909  36.081  12.882   8.850
 6010POPC   GL222910  35.998  12.879   8.850
 6010POPC   C1A22911  36.123  12.883   8.550
 6010POPC   D2A22912  36.154  12.872   8.250
 6010POPC   C3A22913  36.166  12.849   7.950
 6010POPC   C4A22914  36.109  12.889   7.650
 6010POPC   C1B22915  35.863  12.834   8.550
 6010POPC   C2B22916  35.884  12.803   8.250
 6010POPC   C3B22917  35.886  12.887   7.950
 6010POPC   C4B22918  35.842  12.831   7.650
 6011POPC   NC322919  39.267  39.995   9.450
 6011POPC   PO422920  39.256  39.984   9.150
 6011POPC   GL122921  39.223  39.989   8.850
 6011POPC   GL222922  39.257  40.106   8.850
 6011POPC   C1A22923  39.202  40.019   8.550
 6011POPC   D2A22924  39.206  40.038   8.250
 6011POPC   C3A22925  39.209  40.035   7.950
 6011POPC   C4A22926  39.244  40.003   7.650
 6011POPC   C1B22927  39.265  40.286   8.550
 6011POPC   C2B22928  39.208  40.265   8.250
 6011POPC   C3B22929  39.193  40.225   7.950
 6011POPC   C4B22930  39.233  40.277   7.650
 6012POPC   NC322931  13.655  28.369   9.450
 6012POPC   PO422932  13.625  28.385   9.150
 6012POPC   GL122933  13.650  28.395   8.850
 6012POPC   GL222934  13.696  28.441   8.850
 6012POPC   C1A22935  13.610  28.364   8.550
 6012POPC   D2A22936  13.621  28.352   8.250
 6012POPC   C3A22937  13.633  28.355   7.950
 6012POPC   C4A22938  13.650  28.376   7.650
 6012POPC   C1B22939  13.743  28.635   8.550
 6012POPC   C2B22940  13.737  28.600   8.250
 6012POPC   C3B22941  13.766  28.608   7.950
 6012POPC   C4B22942  13.762  28.631   7.650
 6013POPC   NC322943  41.545   1.955   9.450
 6013POPC   PO422944  41.608   2.023   9.150
 6013POPC   GL122945  41.532   2.023   8.850
 6013POPC   GL222946  41.420   1.925   8.850
 6013POPC   C1A22947  41.600   1.947   8.550
 6013POPC   D2A22948  41.570   2.020   8.250
 6013POPC   C3A22949  41.576   2.003   7.950
 6013POPC   C4A22950  41.531   2.023   7.650
 6013POPC   C1B22951  41.386   1.853   8.550
 6013POPC   C2B22952  41.420   1.863   8.250
 6013POPC   C3B22953  41.375   1.776   7.950
 6013POPC   C4B22954  41.399   1.774   7.650
 6014POPC   NC322955  26.835  34.617   9.450
 6014POPC   PO422956  26.847  34.545   9.150
 6014POPC   GL122957  26.857  34.623   8.850
 6014POPC   GL222958  26.712  34.628   8.850
 6014POPC   C1A22959  26.801  34.593   8.550
 6014POPC   D2A22960  26.830  34.578   8.250
 6014POPC   C3A22961  26.844  34.571   7.950
 6014POPC   C4A22962  26.848  34.591   7.650
 6014POPC   C1B22963  26.665  34.728   8.550
 6014POPC   C2B22964  26.639  34.704   8.250
 6014POPC   C3B22965  26.663  34.734   7.950
 6014POPC   C4B22966  26.616  34.731   7.650
 6015POPC   NC322967  25.273  30.735   9.450
 6015POPC   PO422968  25.221  30.684   9.150
 6015POPC   GL122969  25.312  30.689   8.850
 6015POPC   GL222970  25.186  30.749   8.850
 6015POPC   C1A22971  25.231  30.701   8.550
 6015POPC   D2A22972  25.289  30.688   8.250
 6015POPC   C3A22973  25.314  30.746   7.950
 6015POPC   C4A22974  25.274  30.732   7.650
 6015POPC   C1B22975  25.060  30.879   8.550
 6015POPC   C2B22976  25.084  30.876   8.250
 6015POPC   C3B22977  25.126  30.839   7.950
 6015POPC   C4B22978  25.093  30.865   7.650
 6016POPC   NC322979  37.634   1.183   9.450
 6016POPC   PO422980  37.684   1.211   9.150
 6016POPC   GL122981  37.704   1.210   8.850
 6016POPC   GL222982  37.721   1.339   8.850
 6016POPC   C1A22983  37.669   1.221   8.550
 6016POPC   D2A22984  37.681   1.217   8.250
 6016POPC   C3A22985  37.634   1.229   7.950
 6016POPC   C4A22986  37.701   1.230   7.650
 6016POPC   C1B22987  37.745   1.455   8.550
 6016POPC   C2B22988  37.713   1.424   8.250
 6016POPC   C3B22989  37.687   1.443   7.950
 6016POPC   C4B22990  37.729   1.473   7.650
 6017POPC   NC322991  36.085  13.593   9.450
 6017POPC   PO422992  36.082  13.583   9.150
 6017POPC   GL122993  36.136  13.620   8.850
 6017POPC   GL222994  36.208  13.593   8.850
 6017POPC   C1A22995  36.131  13.641   8.550
 6017POPC   D2A22996  36.099  13.612   8.250
 6017POPC   C3A22997  36.078  13.637   7.950
 6017POPC   C4A22998  36.153  13.647   7.650
 6017POPC   C1B22999  36.367  13.561   8.550
 6017POPC   C2B23000  36.350  13.639   8.250
 6017POPC   C3B23001  36.362  13.595   7.950
 6017POPC   C4B23002  36.425  13.562   7.650
 6018POPC   NC323003  32.234   9.705   9.450
 6018POPC   PO423004  32.257   9.787   9.150
 6018POPC   GL123005  32.247   9.784   8.850
 6018POPC   GL223006  32.366   9.845   8.850
 6018POPC   C1A23007  32.262   9.724   8.550
 6018POPC   D2A23008  32.199   9.745   8.250
 6018POPC   C3A23009  32.203   9.741   7.950
 6018POPC   C4A23010  32.297   9.767   7.650
 6018POPC   C1B23011  32.436   9.892   8.550
 6018POPC   C2B23012  32.397   9.890   8.250
 6018POPC   C3B23013  32.435   9.904   7.950
 6018POPC   C4B23014  32.490   9.878   7.650
 6019POPC   NC323015  23.674  29.191   9.450
 6019POPC   PO423016  23.706  29.157   9.150
 6019POPC   GL123017  23.682  29.146   8.850
 6019POPC   GL223018  23.801  29.191   8.850
 6019POPC   C1A23019  23.695  29.176   8.550
 6019POPC   D2A23020  23.710  29.103   8.250
 6019POPC   C3A23021  23.754  29.158   7.950
 6019POPC   C4A23022  23.753  29.168   7.650
 6019POPC   C1B23023  23.923  29.303   8.550
 6019POPC   C2B23024  23.869  29.303   8.250
 6019POPC   C3B23025  23.881  29.254   7.950
 6019POPC   C4B23026  23.944  29.324   7.650
 6020POPC   NC323027  43.855  15.171   9.450
 6020POPC   PO423028  43.911  15.162   9.150
 6020POPC   GL123029  43.869  15.177   8.850
 6020POPC   GL223030  43.950  15.065   8.850
 6020POPC   C1A23031  43.930  15.190   8.550
 6020POPC   D2A23032  43.856  15.137   8.250
 6020POPC   C3A23033  43.839  15.201   7.950
 6020POPC   C4A23034  43.915  15.188   7.650
 6020POPC   C1B23035  44.073  14.994   8.550
 6020POPC   C2B23036  44.119  15.027   8.250
 6020POPC   C3B23037  44.032  15.033   7.950
 6020POPC   C4B23038  44.032  15.003   7.650
 6021POPC   NC323039  20.567  17.552   9.450
 6021POPC   PO423040  20.567  17.552   9.150
 6021POPC   GL123041  20.605  17.514   8.850
 6021POPC   GL223042  20.659  17.397   8.850
 6021POPC   C1A23043  20.569  17.547   8.550
 6021POPC   D2A23044  20.567  17.488   8.250
 6021POPC   C3A23045  20.618  17.543   7.950
 6021POPC   C4A23046  20.575  17.464   7.650
 6021POPC   C1B23047  20.744  17.270   8.550
 6021POPC   C2B23048  20.680  17.330   8.250
 6021POPC   C3B23049  20.669  17.275   7.950
 6021POPC   C4B23050  20.717  17.238   7.650
 6022POPC   NC323051  35.389  20.582   9.450
 6022POPC   PO423052  35.357  20.575   9.150
 6022POPC   GL123053  35.378  20.656   8.850
 6022POPC   GL223054  35.501  20.577   8.850
 6022POPC   C1A23055  35.399  20.624   8.550
 6022POPC   D2A23056  35.337  20.600   8.250
 6022POPC   C3A23057  35.383  20.560   7.950
 6022POPC   C4A23058  35.396  20.602   7.650
 6022POPC   C1B23059  35.505  20.486   8.550
 6022POPC   C2B23060  35.523  20.459   8.250
 6022POPC   C3B23061  35.593  20.482   7.950
 6022POPC   C4B23062  35.584  20.458   7.650
 6023POPC   NC323063   1.956  41.515   9.450
 6023POPC   PO423064   1.941  41.585   9.150
 6023POPC   GL123065   1.972  41.568   8.850
 6023POPC   GL223066   2.077  41.459   8.850
 6023POPC   C1A23067   2.013  41.605   8.550
 6023POPC   D2A23068   1.949  41.560   8.250
 6023POPC   C3A23069   1.981  41.606   7.950
 6023POPC   C4A23070   1.946  41.574   7.650
 6023POPC   C1B23071   2.176  41.393   8.550
 6023POPC   C2B23072   2.208  41.447   8.250
 6023POPC   C3B23073   2.209  41.465   7.950
 6023POPC   C4B23074   2.209  41.391   7.650
 6024POPC   NC323075  30.660  33.787   9.450
 6024POPC   PO423076  30.719  33.776   9.150
 6024POPC   GL123077  30.648  33.753   8.850
 6024POPC   GL223078  30.762  33.943   8.850
 6024POPC   C1A23079  30.691  33.818   8.550
 6024POPC   D2A23080  30.738  33.826   8.250
 6024POPC   C3A23081  30.704  33.781   7.950
 6024POPC   C4A23082  30.660  33.762   7.650
 6024POPC   C1B23083  30.760  34.046   8.550
 6024POPC   C2B23084  30.755  34.082   8.250
 6024POPC   C3B23085  30.827  34.055   7.950
 6024POPC   C4B23086  30.748  34.010   7.650
 6025POPC   NC323087   4.353  43.116   9.450
 6025POPC   PO423088   4.289  43.139   9.150
 6025POPC   GL123089   4.324  43.153   8.850
 6025POPC   GL223090   4.408  43.055   8.850
 6025POPC   C1A23091   4.281  43.116   8.550
 6025POPC   D2A23092   4.330  43.113   8.250
 6025POPC   C3A23093   4.342  43.140   7.950
 6025POPC   C4A23094   4.367  43.158   7.650
 6025POPC   C1B23095   4.475  42.928   8.550
 6025POPC   C2B23096   4.424  42.862   8.250
 6025POPC   C3B23097   4.511  42.944   7.950
 6025POPC   C4B23098   4.484  42.889   7.650
 6026POPC   NC323099   8.236  19.868   9.450
 6026POPC   PO423100   8.237  19.822   9.150
 6026POPC   GL123101   8.216  19.797   8.850
 6026POPC   GL223102   8.115  19.805   8.850
 6026POPC   C1A23103   8.157  19.853   8.550
 6026POPC   D2A23104   8.244  19.827   8.250
 6026POPC   C3A23105   8.149  19.802   7.950
 6026POPC   C4A23106   8.172  19.797   7.650
 6026POPC   C1B23107   8.008  19.644   8.550
 6026POPC   C2B23108   7.976  19.665   8.250
 6026POPC   C3B23109   7.981  19.681   7.950
 6026POPC   C4B23110   7.996  19.722   7.650
 6027POPC   NC323111  28.387  23.682   9.450
 6027POPC   PO423112  28.369  23.709   9.150
 6027POPC   GL123113  28.359  23.761   8.850
 6027POPC   GL223114  28.238  23.685   8.850
 6027POPC   C1A23115  28.373  23.666   8.550
 6027POPC   D2A23116  28.342  23.736   8.250
 6027POPC   C3A23117  28.385  23.734   7.950
 6027POPC   C4A23118  28.387  23.688   7.650
 6027POPC   C1B23119  28.140  23.735   8.550
 6027POPC   C2B23120  28.113  23.732   8.250
 6027POPC   C3B23121  28.163  23.722   7.950
 6027POPC   C4B23122  28.089  23.741   7.650
 6028POPC   NC323123  24.477  27.630   9.450
 6028POPC   PO423124  24.450  27.642   9.150
 6028POPC   GL123125  24.465  27.630   8.850
 6028POPC   GL223126  24.375  27.512   8.850
 6028POPC   C1A23127  24.445  27.572   8.550
 6028POPC   D2A23128  24.485  27.609   8.250
 6028POPC   C3A23129  24.445  27.593   7.950
 6028POPC   C4A23130  24.456  27.610   7.650
 6028POPC   C1B23131  24.309  27.438   8.550
 6028POPC   C2B23132  24.314  27.496   8.250
 6028POPC   C3B23133  24.305  27.454   7.950
 6028POPC   C4B23134  24.237  27.476   7.650
 6029POPC   NC323135  19.102  40.746   9.450
 6029POPC   PO423136  19.019  40.746   9.150
 6029POPC   GL123137  19.040  40.767   8.850
 6029POPC   GL223138  19.100  40.689   8.850
 6029POPC   C1A23139  19.074  40.789   8.550
 6029POPC   D2A23140  19.029  40.767   8.250
 6029POPC   C3A23141  19.082  40.827   7.950
 6029POPC   C4A23142  19.079  40.784   7.650
 6029POPC   C1B23143  19.082  40.552   8.550
 6029POPC   C2B23144  19.067  40.546   8.250
 6029POPC   C3B23145  19.055  40.571   7.950
 6029POPC   C4B23146  19.037  40.512   7.650
 6030POPC   NC323147   1.249  17.557   9.450
 6030POPC   PO423148   1.256  17.520   9.150
 6030POPC   GL123149   1.205  17.495   8.850
 6030POPC   GL223150   1.111  17.611   8.850
 6030POPC   C1A23151   1.192  17.494   8.550
 6030POPC   D2A23152   1.187  17.539   8.250
 6030POPC   C3A23153   1.196  17.528   7.950
 6030POPC   C4A23154   1.183  17.463   7.650
 6030POPC   C1B23155   1.076  17.713   8.550
 6030POPC   C2B23156   1.043  17.685   8.250
 6030POPC   C3B23157   1.035  17.747   7.950
 6030POPC   C4B23158   1.116  17.666   7.650
 6031POPC   NC323159  14.443  22.141   9.450
 6031POPC   PO423160  14.371  22.189   9.150
 6031POPC   GL123161  14.441  22.190   8.850
 6031POPC   GL223162  14.261  22.119   8.850
 6031POPC   C1A23163  14.371  22.191   8.550
 6031POPC   D2A23164  14.448  22.167   8.250
 6031POPC   C3A23165  14.425  22.113   7.950
 6031POPC   C4A23166  14.402  22.189   7.650
 6031POPC   C1B23167  14.164  22.051   8.550
 6031POPC   C2B23168  14.193  22.043   8.250
 6031POPC   C3B23169  14.138  22.093   7.950
 6031POPC   C4B23170  14.181  22.045   7.650
 6032POPC   NC323171  38.450  38.433   9.450
 6032POPC   PO423172  38.409  38.427   9.150
 6032POPC   GL123173  38.495  38.434   8.850
 6032POPC   GL223174  38.567  38.503   8.850
 6032POPC   C1A23175  38.405  38.493   8.550
 6032POPC   D2A23176  38.494  38.419   8.250
 6032POPC   C3A23177  38.472  38.466   7.950
 6032POPC   C4A23178  38.478  38.422   7.650
 6032POPC   C1B23179  38.746  38.463   8.550
 6032POPC   C2B23180  38.659  38.459   8.250
 6032POPC   C3B23181  38.678  38.435   7.950
 6032POPC   C4B23182  38.733  38.515   7.650
 6033POPC   NC323183  22.123  13.672   9.450
 6033POPC   PO423184  22.121  13.598   9.150
 6033POPC   GL123185  22.189  13.620   8.850
 6033POPC   GL223186  22.258  13.765   8.850
 6033POPC   C1A23187  22.189  13.644   8.550
 6033POPC   D2A23188  22.149  13.616   8.250
 6033POPC   C3A23189  22.161  13.589   7.950
 6033POPC   C4A23190  22.129  13.624   7.650
 6033POPC   C1B23191  22.282  13.889   8.550
 6033POPC   C2B23192  22.301  13.806   8.250
 6033POPC   C3B23193  22.319  13.838   7.950
 6033POPC   C4B23194  22.334  13.807   7.650
 6034POPC   NC323195  19.092  28.376   9.450
 6034POPC   PO423196  19.039  28.367   9.150
 6034POPC   GL123197  19.029  28.397   8.850
 6034POPC   GL223198  18.914  28.389   8.850
 6034POPC   C1A23199  19.064  28.361   8.550
 6034POPC   D2A23200  19.048  28.365   8.250
 6034POPC   C3A23201  19.023  28.403   7.950
 6034POPC   C4A23202  19.092  28.417   7.650
 6034POPC   C1B23203  18.781  28.440   8.550
 6034POPC   C2B23204  18.845  28.386   8.250
 6034POPC   C3B23205  18.769  28.371   7.950
 6034POPC   C4B23206  18.799  28.349   7.650
 6035POPC   NC323207  34.546  20.602   9.450
 6035POPC   PO423208  34.574  20.574   9.150
 6035POPC   GL123209  34.585  20.575   8.850
 6035POPC   GL223210  34.545  20.523   8.850
 6035POPC   C1A23211  34.553  20.633   8.550
 6035POPC   D2A23212  34.621  20.562   8.250
 6035POPC   C3A23213  34.624  20.627   7.950
 6035POPC   C4A23214  34.591  20.586   7.650
 6035POPC   C1B23215  34.533  20.386   8.550
 6035POPC   C2B23216  34.520  20.324   8.250
 6035POPC   C3B23217  34.487  20.414   7.950
 6035POPC   C4B23218  34.536  20.404   7.650
 6036POPC   NC323219   8.169   3.501   9.450
 6036POPC   PO423220   8.156   3.513   9.150
 6036POPC   GL123221   8.195   3.556   8.850
 6036POPC   GL223222   8.093   3.546   8.850
 6036POPC   C1A23223   8.206   3.535   8.550
 6036POPC   D2A23224   8.163   3.505   8.250
 6036POPC   C3A23225   8.150   3.574   7.950
 6036POPC   C4A23226   8.202   3.521   7.650
 6036POPC   C1B23227   7.911   3.581   8.550
 6036POPC   C2B23228   7.995   3.629   8.250
 6036POPC   C3B23229   7.966   3.625   7.950
 6036POPC   C4B23230   7.978   3.571   7.650
 6037POPC   NC323231  42.290   3.502   9.450
 6037POPC   PO423232  42.328   3.527   9.150
 6037POPC   GL123233  42.381   3.537   8.850
 6037POPC   GL223234  42.380   3.668   8.850
 6037POPC   C1A23235  42.310   3.542   8.550
 6037POPC   D2A23236  42.377   3.493   8.250
 6037POPC   C3A23237  42.329   3.554   7.950
 6037POPC   C4A23238  42.332   3.496   7.650
 6037POPC   C1B23239  42.386   3.743   8.550
 6037POPC   C2B23240  42.469   3.805   8.250
 6037POPC   C3B23241  42.447   3.781   7.950
 6037POPC   C4B23242  42.428   3.823   7.650
 6038POPC   NC323243   0.485  37.722   9.450
 6038POPC   PO423244   0.445  37.645   9.150
 6038POPC   GL123245   0.467  37.718   8.850
 6038POPC   GL223246   0.522  37.658   8.850
 6038POPC   C1A23247   0.454  37.632   8.550
 6038POPC   D2A23248   0.478  37.700   8.250
 6038POPC   C3A23249   0.453  37.639   7.950
 6038POPC   C4A23250   0.483  37.635   7.650
 6038POPC   C1B23251   0.697  37.674   8.550
 6038POPC   C2B23252   0.668  37.659   8.250
 6038POPC   C3B23253   0.694  37.668   7.950
 6038POPC   C4B23254   0.685  37.641   7.650
 6039POPC   NC323255   2.743  10.490   9.450
 6039POPC   PO423256   2.788  10.489   9.150
 6039POPC   GL123257   2.762  10.543   8.850
 6039POPC   GL223258   2.818  10.646   8.850
 6039POPC   C1A23259   2.775  10.515   8.550
 6039POPC   D2A23260   2.789  10.539   8.250
 6039POPC   C3A23261   2.736  10.480   7.950
 6039POPC   C4A23262   2.745  10.535   7.650
 6039POPC   C1B23263   2.953  10.666   8.550
 6039POPC   C2B23264   2.922  10.644   8.250
 6039POPC   C3B23265   2.952  10.669   7.950
 6039POPC   C4B23266   2.918  10.721   7.650
 6040POPC   NC323267  26.011  33.769   9.450
 6040POPC   PO423268  26.063  33.841   9.150
 6040POPC   GL123269  26.026  33.788   8.850
 6040POPC   GL223270  26.121  33.708   8.850
 6040POPC   C1A23271  26.071  33.844   8.550
 6040POPC   D2A23272  26.010  33.797   8.250
 6040POPC   C3A23273  26.069  33.775   7.950
 6040POPC   C4A23274  26.065  33.753   7.650
 6040POPC   C1B23275  26.256  33.628   8.550
 6040POPC   C2B23276  26.233  33.700   8.250
 6040POPC   C3B23277  26.242  33.668   7.950
 6040POPC   C4B23278  26.246  33.718   7.650
 6041POPC   NC323279   2.799  44.682   9.450
 6041POPC   PO423280   2.757  44.623   9.150
 6041POPC   GL123281   2.789  44.695   8.850
 6041POPC   GL223282   2.876  44.594   8.850
 6041POPC   C1A23283   2.809  44.644   8.550
 6041POPC   D2A23284   2.773  44.655   8.250
 6041POPC   C3A23285   2.795  44.654   7.950
 6041POPC   C4A23286   2.737  44.656   7.650
 6041POPC   C1B23287   2.951  44.457   8.550
 6041POPC   C2B23288   2.969  44.464   8.250
 6041POPC   C3B23289   2.976  44.439   7.950
 6041POPC   C4B23290   2.959  44.508   7.650
 6042POPC   NC323291   2.728  40.789   9.450
 6042POPC   PO423292   2.777  40.820   9.150
 6042POPC   GL123293   2.794  40.807   8.850
 6042POPC   GL223294   2.724  40.692   8.850
 6042POPC   C1A23295   2.771  40.748   8.550
 6042POPC   D2A23296   2.794  40.819   8.250
 6042POPC   C3A23297   2.775  40.739   7.950
 6042POPC   C4A23298   2.757  40.741   7.650
 6042POPC   C1B23299   2.612  40.586   8.550
 6042POPC   C2B23300   2.645  40.529   8.250
 6042POPC   C3B23301   2.626  40.534   7.950
 6042POPC   C4B23302   2.612  40.533   7.650
 6043POPC   NC323303   5.120  22.176   9.450
 6043POPC   PO423304   5.080  22.130   9.150
 6043POPC   GL123305   5.053  22.162   8.850
 6043POPC   GL223306   5.194  22.243   8.850
 6043POPC   C1A23307   5.109  22.206   8.550
 6043POPC   D2A23308   5.090  22.139   8.250
 6043POPC   C3A23309   5.094  22.174   7.950
 6043POPC   C4A23310   5.137  22.184   7.650
 6043POPC   C1B23311   5.368  22.283   8.550
 6043POPC   C2B23312   5.334  22.225   8.250
 6043POPC   C3B23313   5.325  22.242   7.950
 6043POPC   C4B23314   5.292  22.239   7.650
 6044POPC   NC323315  27.563  10.518   9.450
 6044POPC   PO423316  27.591  10.535   9.150
 6044POPC   GL123317  27.570  10.497   8.850
 6044POPC   GL223318  27.619  10.424   8.850
 6044POPC   C1A23319  27.602  10.514   8.550
 6044POPC   D2A23320  27.640  10.489   8.250
 6044POPC   C3A23321  27.556  10.477   7.950
 6044POPC   C4A23322  27.561  10.512   7.650
 6044POPC   C1B23323  27.747  10.263   8.550
 6044POPC   C2B23324  27.714  10.326   8.250
 6044POPC   C3B23325  27.721  10.304   7.950
 6044POPC   C4B23326  27.659  10.284   7.650
 6045POPC   NC323327  39.216  40.776   9.450
 6045POPC   PO423328  39.237  40.749   9.150
 6045POPC   GL123329  39.244  40.770   8.850
 6045POPC   GL223330  39.265  40.891   8.850
 6045POPC   C1A23331  39.209  40.770   8.550
 6045POPC   D2A23332  39.228  40.740   8.250
 6045POPC   C3A23333  39.264  40.821   7.950
 6045POPC   C4A23334  39.195  40.769   7.650
 6045POPC   C1B23335  39.241  41.031   8.550
 6045POPC   C2B23336  39.247  41.035   8.250
 6045POPC   C3B23337  39.301  40.990   7.950
 6045POPC   C4B23338  39.211  41.003   7.650
 6046POPC   NC323339  21.345  34.542   9.450
 6046POPC   PO423340  21.348  34.591   9.150
 6046POPC   GL123341  21.341  34.544   8.850
 6046POPC   GL223342  21.338  34.482   8.850
 6046POPC   C1A23343  21.420  34.559   8.550
 6046POPC   D2A23344  21.376  34.536   8.250
 6046POPC   C3A23345  21.350  34.587   7.950
 6046POPC   C4A23346  21.357  34.624   7.650
 6046POPC   C1B23347  21.253  34.338   8.550
 6046POPC   C2B23348  21.326  34.321   8.250
 6046POPC   C3B23349  21.317  34.315   7.950
 6046POPC   C4B23350  21.300  34.324   7.650
 6047POPC   NC323351   2.722  36.875   9.450
 6047POPC   PO423352   2.751  36.936   9.150
 6047POPC   GL123353   2.758  36.951   8.850
 6047POPC   GL223354   2.679  36.932   8.850
 6047POPC   C1A23355   2.744  36.889   8.550
 6047POPC   D2A23356   2.726  36.882   8.250
 6047POPC   C3A23357   2.801  36.884   7.950
 6047POPC   C4A23358   2.808  36.906   7.650
 6047POPC   C1B23359   2.561  36.878   8.550
 6047POPC   C2B23360   2.508  36.956   8.250
 6047POPC   C3B23361   2.542  36.881   7.950
 6047POPC   C4B23362   2.475  36.906   7.650
 6048POPC   NC323363  20.564  15.167   9.450
 6048POPC   PO423364  20.612  15.221   9.150
 6048POPC   GL123365  20.611  15.213   8.850
 6048POPC   GL223366  20.497  15.165   8.850
 6048POPC   C1A23367  20.626  15.164   8.550
 6048POPC   D2A23368  20.632  15.142   8.250
 6048POPC   C3A23369  20.593  15.131   7.950
 6048POPC   C4A23370  20.635  15.159   7.650
 6048POPC   C1B23371  20.360  15.134   8.550
 6048POPC   C2B23372  20.356  15.132   8.250
 6048POPC   C3B23373  20.405  15.118   7.950
 6048POPC   C4B23374  20.375  15.149   7.650
 6049POPC   NC323375   5.120  44.705   9.450
 6049POPC   PO423376   5.128  44.687   9.150
 6049POPC   GL123377   5.076  44.695   8.850
 6049POPC   GL223378   5.232  44.717   8.850
 6049POPC   C1A23379   5.052  44.695   8.550
 6049POPC   D2A23380   5.081  44.617   8.250
 6049POPC   C3A23381   5.082  44.657   7.950
 6049POPC   C4A23382   5.054  44.680   7.650
 6049POPC   C1B23383   5.272  44.762   8.550
 6049POPC   C2B23384   5.311  44.832   8.250
 6049POPC   C3B23385   5.267  44.747   7.950
 6049POPC   C4B23386   5.269  44.784   7.650
 6050POPC   NC323387   8.941  40.765   9.450
 6050POPC   PO423388   9.016  40.754   9.150
 6050POPC   GL123389   8.933  40.747   8.850
 6050POPC   GL223390   9.132  40.788   8.850
 6050POPC   C1A23391   8.947  40.781   8.550
 6050POPC   D2A23392   8.928  40.793   8.250
 6050POPC   C3A23393   8.932  40.749   7.950
 6050POPC   C4A23394   8.961  40.753   7.650
 6050POPC   C1B23395   9.239  40.879   8.550
 6050POPC   C2B23396   9.175  40.932   8.250
 6050POPC   C3B23397   9.198  40.839   7.950
 6050POPC   C4B23398   9.221  40.902   7.650
 6051POPC   NC323399  43.079   1.983   9.450
 6051POPC   PO423400  43.156   2.029   9.150
 6051POPC   GL123401  43.098   2.000   8.850
 6051POPC   GL223402  42.955   1.904   8.850
 6051POPC   C1A23403  43.141   1.980   8.550
 6051POPC   D2A23404  43.120   2.005   8.250
 6051POPC   C3A23405  43.137   2.032   7.950
 6051POPC   C4A23406  43.120   1.956   7.650
 6051POPC   C1B23407  42.849   1.903   8.550
 6051POPC   C2B23408  42.871   1.827   8.250
 6051POPC   C3B23409  42.906   1.892   7.950
 6051POPC   C4B23410  42.888   1.861   7.650
 6052POPC   NC323411  31.518   4.367   9.450
 6052POPC   PO423412  31.516   4.326   9.150
 6052POPC   GL123413  31.521   4.271   8.850
 6052POPC   GL223414  31.341   4.281   8.850
 6052POPC   C1A23415  31.434   4.302   8.550
 6052POPC   D2A23416  31.494   4.358   8.250
 6052POPC   C3A23417  31.504   4.366   7.950
 6052POPC   C4A23418  31.476   4.365   7.650
 6052POPC   C1B23419  31.200   4.300   8.550
 6052POPC   C2B23420  31.233   4.263   8.250
 6052POPC   C3B23421  31.214   4.336   7.950
 6052POPC   C4B23422  31.270   4.310   7.650
 6053POPC   NC323423  42.320   8.204   9.450
 6053POPC   PO423424  42.363   8.161   9.150
 6053POPC   GL123425  42.361   8.179   8.850
 6053POPC   GL223426  42.253   8.248   8.850
 6053POPC   C1A23427  42.318   8.196   8.550
 6053POPC   D2A23428  42.299   8.223   8.250
 6053POPC   C3A23429  42.308   8.242   7.950
 6053POPC   C4A23430  42.352   8.167   7.650
 6053POPC   C1B23431  42.068   8.367   8.550
 6053POPC   C2B23432  42.167   8.286   8.250
 6053POPC   C3B23433  42.114   8.303   7.950
 6053POPC   C4B23434  42.089   8.311   7.650
 6054POPC   NC323435  12.875  26.822   9.450
 6054POPC   PO423436  12.831  26.782   9.150
 6054POPC   GL123437  12.830  26.819   8.850
 6054POPC   GL223438  12.700  26.798   8.850
 6054POPC   C1A23439  12.851  26.810   8.550
 6054POPC   D2A23440  12.823  26.780   8.250
 6054POPC   C3A23441  12.816  26.788   7.950
 6054POPC   C4A23442  12.871  26.848   7.650
 6054POPC   C1B23443  12.608  26.840   8.550
 6054POPC   C2B23444  12.576  26.871   8.250
 6054POPC   C3B23445  12.560  26.883   7.950
 6054POPC   C4B23446  12.601  26.879   7.650
 6055POPC   NC323447  30.706  11.315   9.450
 6055POPC   PO423448  30.677  11.290   9.150
 6055POPC   GL123449  30.746  11.293   8.850
 6055POPC   GL223450  30.775  11.345   8.850
 6055POPC   C1A23451  30.682  11.336   8.550
 6055POPC   D2A23452  30.698  11.340   8.250
 6055POPC   C3A23453  30.737  11.290   7.950
 6055POPC   C4A23454  30.653  11.261   7.650
 6055POPC   C1B23455  30.895  11.410   8.550
 6055POPC   C2B23456  30.971  11.362   8.250
 6055POPC   C3B23457  30.958  11.356   7.950
 6055POPC   C4B23458  30.887  11.431   7.650
 6056POPC   NC323459  32.221  22.170   9.450
 6056POPC   PO423460  32.272  22.193   9.150
 6056POPC   GL123461  32.204  22.114   8.850
 6056POPC   GL223462  32.337  22.112   8.850
 6056POPC   C1A23463  32.236  22.211   8.550
 6056POPC   D2A23464  32.206  22.148   8.250
 6056POPC   C3A23465  32.286  22.128   7.950
 6056POPC   C4A23466  32.272  22.129   7.650
 6056POPC   C1B23467  32.501  22.079   8.550
 6056POPC   C2B23468  32.469  22.012   8.250
 6056POPC   C3B23469  32.488  22.048   7.950
 6056POPC   C4B23470  32.498  22.010   7.650
 6057POPC   NC323471  43.132   5.122   9.450
 6057POPC   PO423472  43.140   5.124   9.150
 6057POPC   GL123473  43.151   5.093   8.850
 6057POPC   GL223474  43.161   5.212   8.850
 6057POPC   C1A23475  43.121   5.124   8.550
 6057POPC   D2A23476  43.118   5.093   8.250
 6057POPC   C3A23477  43.085   5.102   7.950
 6057POPC   C4A23478  43.137   5.136   7.650
 6057POPC   C1B23479  43.276   5.226   8.550
 6057POPC   C2B23480  43.292   5.216   8.250
 6057POPC   C3B23481  43.296   5.309   7.950
 6057POPC   C4B23482  43.342   5.245   7.650
 6058POPC   NC323483   9.782  14.442   9.450
 6058POPC   PO423484   9.703  14.427   9.150
 6058POPC   GL123485   9.776  14.424   8.850
 6058POPC   GL223486   9.741  14.255   8.850
 6058POPC   C1A23487   9.754  14.372   8.550
 6058POPC   D2A23488   9.757  14.372   8.250
 6058POPC   C3A23489   9.703  14.446   7.950
 6058POPC   C4A23490   9.798  14.385   7.650
 6058POPC   C1B23491   9.706  14.135   8.550
 6058POPC   C2B23492   9.687  14.118   8.250
 6058POPC   C3B23493   9.740  14.135   7.950
 6058POPC   C4B23494   9.697  14.179   7.650
 6059POPC   NC323495  26.772   6.625   9.450
 6059POPC   PO423496  26.851   6.619   9.150
 6059POPC   GL123497  26.812   6.626   8.850
 6059POPC   GL223498  26.772   6.479   8.850
 6059POPC   C1A23499  26.827   6.632   8.550
 6059POPC   D2A23500  26.836   6.673   8.250
 6059POPC   C3A23501  26.866   6.687   7.950
 6059POPC   C4A23502  26.831   6.631   7.650
 6059POPC   C1B23503  26.732   6.374   8.550
 6059POPC   C2B23504  26.711   6.380   8.250
 6059POPC   C3B23505  26.759   6.431   7.950
 6059POPC   C4B23506  26.736   6.367   7.650
 6060POPC   NC323507  31.431  35.318   9.450
 6060POPC   PO423508  31.467  35.375   9.150
 6060POPC   GL123509  31.506  35.399   8.850
 6060POPC   GL223510  31.298  35.312   8.850
 6060POPC   C1A23511  31.459  35.380   8.550
 6060POPC   D2A23512  31.490  35.332   8.250
 6060POPC   C3A23513  31.482  35.308   7.950
 6060POPC   C4A23514  31.513  35.344   7.650
 6060POPC   C1B23515  31.239  35.340   8.550
 6060POPC   C2B23516  31.187  35.323   8.250
 6060POPC   C3B23517  31.201  35.369   7.950
 6060POPC   C4B23518  31.247  35.391   7.650
 6061POPC   NC323519  32.278  23.695   9.450
 6061POPC   PO423520  32.251  23.695   9.150
 6061POPC   GL123521  32.236  23.736   8.850
 6061POPC   GL223522  32.140  23.688   8.850
 6061POPC   C1A23523  32.282  23.755   8.550
 6061POPC   D2A23524  32.248  23.742   8.250
 6061POPC   C3A23525  32.259  23.750   7.950
 6061POPC   C4A23526  32.208  23.678   7.650
 6061POPC   C1B23527  32.012  23.711   8.550
 6061POPC   C2B23528  31.999  23.689   8.250
 6061POPC   C3B23529  32.007  23.637   7.950
 6061POPC   C4B23530  32.025  23.699   7.650
 6062POPC   NC323531  17.552   1.232   9.450
 6062POPC   PO423532  17.516   1.181   9.150
 6062POPC   GL123533  17.517   1.175   8.850
 6062POPC   GL223534  17.616   1.105   8.850
 6062POPC   C1A23535  17.471   1.231   8.550
 6062POPC   D2A23536  17.527   1.246   8.250
 6062POPC   C3A23537  17.471   1.167   7.950
 6062POPC   C4A23538  17.482   1.173   7.650
 6062POPC   C1B23539  17.625   1.011   8.550
 6062POPC   C2B23540  17.621   0.976   8.250
 6062POPC   C3B23541  17.583   0.966   7.950
 6062POPC   C4B23542  17.635   1.018   7.650
 6063POPC   NC323543  27.565  27.552   9.450
 6063POPC   PO423544  27.600  27.572   9.150
 6063POPC   GL123545  27.556  27.586   8.850
 6063POPC   GL223546  27.444  27.514   8.850
 6063POPC   C1A23547  27.604  27.623   8.550
 6063POPC   D2A23548  27.592  27.635   8.250
 6063POPC   C3A23549  27.642  27.578   7.950
 6063POPC   C4A23550  27.623  27.626   7.650
 6063POPC   C1B23551  27.325  27.498   8.550
 6063POPC   C2B23552  27.367  27.488   8.250
 6063POPC   C3B23553  27.312  27.494   7.950
 6063POPC   C4B23554  27.393  27.537   7.650
 6064POPC   NC323555  10.531  13.651   9.450
 6064POPC   PO423556  10.488  13.627   9.150
 6064POPC   GL123557  10.539  13.581   8.850
 6064POPC   GL223558  10.403  13.559   8.850
 6064POPC   C1A23559  10.513  13.598   8.550
 6064POPC   D2A23560  10.484  13.655   8.250
 6064POPC   C3A23561  10.538  13.641   7.950
 6064POPC   C4A23562  10.474  13.665   7.650
 6064POPC   C1B23563  10.300  13.493   8.550
 6064POPC   C2B23564  10.358  13.487   8.250
 6064POPC   C3B23565  10.317  13.489   7.950
 6064POPC   C4B23566  10.307  13.443   7.650
 6065POPC   NC323567   5.907   8.151   9.450
 6065POPC   PO423568   5.905   8.193   9.150
 6065POPC   GL123569   5.852   8.242   8.850
 6065POPC   GL223570   5.793   8.357   8.850
 6065POPC   C1A23571   5.837   8.219   8.550
 6065POPC   D2A23572   5.825   8.211   8.250
 6065POPC   C3A23573   5.887   8.221   7.950
 6065POPC   C4A23574   5.889   8.243   7.650
 6065POPC   C1B23575   5.763   8.462   8.550
 6065POPC   C2B23576   5.757   8.466   8.250
 6065POPC   C3B23577   5.747   8.409   7.950
 6065POPC   C4B23578   5.726   8.382   7.650
 6066POPC   NC323579   0.414  19.078   9.450
 6066POPC   PO423580   0.478  19.027   9.150
 6066POPC   GL123581   0.439  19.078   8.850
 6066POPC   GL223582   0.299  19.112   8.850
 6066POPC   C1A23583   0.464  19.097   8.550
 6066POPC   D2A23584   0.436  19.016   8.250
 6066POPC   C3A23585   0.440  19.047   7.950
 6066POPC   C4A23586   0.455  19.016   7.650
 6066POPC   C1B23587   0.209  19.215   8.550
 6066POPC   C2B23588   0.224  19.280   8.250
 6066POPC   C3B23589   0.270  19.275   7.950
 6066POPC   C4B23590   0.264  19.223   7.650
 6067POPC   NC323591  36.111  31.441   9.450
 6067POPC   PO423592  36.087  31.433   9.150
 6067POPC   GL123593  36.085  31.465   8.850
 6067POPC   GL223594  36.243  31.493   8.850
 6067POPC   C1A23595  36.085  31.429   8.550
 6067POPC   D2A23596  36.136  31.462   8.250
 6067POPC   C3A23597  36.087  31.436   7.950
 6067POPC   C4A23598  36.093  31.487   7.650
 6067POPC   C1B23599  36.348  31.414   8.550
 6067POPC   C2B23600  36.338  31.427   8.250
 6067POPC   C3B23601  36.356  31.390   7.950
 6067POPC   C4B23602  36.365  31.413   7.650
 6068POPC   NC323603   5.096  18.236   9.450
 6068POPC   PO423604   5.135  18.295   9.150
 6068POPC   GL123605   5.094  18.298   8.850
 6068POPC   GL223606   5.188  18.336   8.850
 6068POPC   C1A23607   5.112  18.246   8.550
 6068POPC   D2A23608   5.059  18.253   8.250
 6068POPC   C3A23609   5.127  18.238   7.950
 6068POPC   C4A23610   5.047  18.268   7.650
 6068POPC   C1B23611   5.319  18.448   8.550
 6068POPC   C2B23612   5.356  18.443   8.250
 6068POPC   C3B23613   5.326  18.400   7.950
 6068POPC   C4B23614   5.298  18.430   7.650
 6069POPC   NC323615  20.654  26.043   9.450
 6069POPC   PO423616  20.574  26.015   9.150
 6069POPC   GL123617  20.570  25.994   8.850
 6069POPC   GL223618  20.505  25.998   8.850
 6069POPC   C1A23619  20.627  26.012   8.550
 6069POPC   D2A23620  20.562  26.025   8.250
 6069POPC   C3A23621  20.599  26.058   7.950
 6069POPC   C4A23622  20.605  26.029   7.650
 6069POPC   C1B23623  20.322  26.027   8.550
 6069POPC   C2B23624  20.344  26.062   8.250
 6069POPC   C3B23625  20.320  26.096   7.950
 6069POPC   C4B23626  20.331  26.057   7.650
 6070POPC   NC323627  11.277   5.863   9.450
 6070POPC   PO423628  11.264   5.899   9.150
 6070POPC   GL123629  11.349   5.831   8.850
 6070POPC   GL223630  11.279   5.959   8.850
 6070POPC   C1A23631  11.299   5.901   8.550
 6070POPC   D2A23632  11.317   5.826   8.250
 6070POPC   C3A23633  11.266   5.858   7.950
 6070POPC   C4A23634  11.304   5.900   7.650
 6070POPC   C1B23635  11.200   6.145   8.550
 6070POPC   C2B23636  11.236   6.053   8.250
 6070POPC   C3B23637  11.206   6.048   7.950
 6070POPC   C4B23638  11.180   6.060   7.650
 6071POPC   NC323639  17.501  18.325   9.450
 6071POPC   PO423640  17.551  18.311   9.150
 6071POPC   GL123641  17.491  18.268   8.850
 6071POPC   GL223642  17.617  18.249   8.850
 6071POPC   C1A23643  17.464  18.247   8.550
 6071POPC   D2A23644  17.493  18.299   8.250
 6071POPC   C3A23645  17.481  18.328   7.950
 6071POPC   C4A23646  17.522  18.316   7.650
 6071POPC   C1B23647  17.769  18.127   8.550
 6071POPC   C2B23648  17.759  18.204   8.250
 6071POPC   C3B23649  17.738  18.154   7.950
 6071POPC   C4B23650  17.723  18.161   7.650
 6072POPC   NC323651  31.503  33.030   9.450
 6072POPC   PO423652  31.448  32.996   9.150
 6072POPC   GL123653  31.430  33.012   8.850
 6072POPC   GL223654  31.400  33.126   8.850
 6072POPC   C1A23655  31.487  32.991   8.550
 6072POPC   D2A23656  31.514  33.011   8.250
 6072POPC   C3A23657  31.471  33.003   7.950
 6072POPC   C4A23658  31.516  33.033   7.650
 6072POPC   C1B23659  31.310  33.185   8.550
 6072POPC   C2B23660  31.289  33.259   8.250
 6072POPC   C3B23661  31.291  33.247   7.950
 6072POPC   C4B23662  31.356  33.219   7.650
 6073POPC   NC323663  13.644  40.739   9.450
 6073POPC   PO423664  13.672  40.796   9.150
 6073POPC   GL123665  13.621  40.792   8.850
 6073POPC   GL223666  13.548  40.818   8.850
 6073POPC   C1A23667  13.650  40.830   8.550
 6073POPC   D2A23668  13.644  40.738   8.250
 6073POPC   C3A23669  13.622  40.789   7.950
 6073POPC   C4A23670  13.642  40.800   7.650
 6073POPC   C1B23671  13.359  40.847   8.550
 6073POPC   C2B23672  13.349  40.809   8.250
 6073POPC   C3B23673  13.345  40.835   7.950
 6073POPC   C4B23674  13.373  40.840   7.650
 6074POPC   NC323675   1.233  26.799   9.450
 6074POPC   PO423676   1.248  26.816   9.150
 6074POPC   GL123677   1.215  26.841   8.850
 6074POPC   GL223678   1.187  26.739   8.850
 6074POPC   C1A23679   1.182  26.853   8.550
 6074POPC   D2A23680   1.199  26.775   8.250
 6074POPC   C3A23681   1.199  26.819   7.950
 6074POPC   C4A23682   1.246  26.826   7.650
 6074POPC   C1B23683   1.185  26.610   8.550
 6074POPC   C2B23684   1.086  26.550   8.250
 6074POPC   C3B23685   1.149  26.603   7.950
 6074POPC   C4B23686   1.125  26.533   7.650
 6075POPC   NC323687  29.893   7.441   9.450
 6075POPC   PO423688  29.936   7.432   9.150
 6075POPC   GL123689  29.889   7.441   8.850
 6075POPC   GL223690  30.071   7.384   8.850
 6075POPC   C1A23691  29.896   7.454   8.550
 6075POPC   D2A23692  29.929   7.445   8.250
 6075POPC   C3A23693  29.919   7.463   7.950
 6075POPC   C4A23694  29.959   7.459   7.650
 6075POPC   C1B23695  30.197   7.342   8.550
 6075POPC   C2B23696  30.164   7.337   8.250
 6075POPC   C3B23697  30.140   7.384   7.950
 6075POPC   C4B23698  30.141   7.330   7.650
 6076POPC   NC323699  28.342   9.712   9.450
 6076POPC   PO423700  28.417   9.766   9.150
 6076POPC   GL123701  28.347   9.763   8.850
 6076POPC   GL223702  28.520   9.649   8.850
 6076POPC   C1A23703  28.336   9.767   8.550
 6076POPC   D2A23704  28.402   9.703   8.250
 6076POPC   C3A23705  28.380   9.741   7.950
 6076POPC   C4A23706  28.399   9.759   7.650
 6076POPC   C1B23707  28.631   9.616   8.550
 6076POPC   C2B23708  28.550   9.571   8.250
 6076POPC   C3B23709  28.540   9.581   7.950
 6076POPC   C4B23710  28.624   9.575   7.650
 6077POPC   NC323711  18.295  43.884   9.450
 6077POPC   PO423712  18.300  43.930   9.150
 6077POPC   GL123713  18.287  43.868   8.850
 6077POPC   GL223714  18.261  44.044   8.850
 6077POPC   C1A23715  18.250  43.880   8.550
 6077POPC   D2A23716  18.242  43.872   8.250
 6077POPC   C3A23717  18.280  43.870   7.950
 6077POPC   C4A23718  18.303  43.892   7.650
 6077POPC   C1B23719  18.229  44.113   8.550
 6077POPC   C2B23720  18.208  44.176   8.250
 6077POPC   C3B23721  18.270  44.157   7.950
 6077POPC   C4B23722  18.235  44.081   7.650
 6078POPC   NC323723  25.290  14.448   9.450
 6078POPC   PO423724  25.310  14.355   9.150
 6078POPC   GL123725  25.262  14.396   8.850
 6078POPC   GL223726  25.109  14.400   8.850
 6078POPC   C1A23727  25.309  14.364   8.550
 6078POPC   D2A23728  25.309  14.370   8.250
 6078POPC   C3A23729  25.303  14.361   7.950
 6078POPC   C4A23730  25.294  14.408   7.650
 6078POPC   C1B23731  25.032  14.293   8.550
 6078POPC   C2B23732  25.001  14.306   8.250
 6078POPC   C3B23733  25.031  14.294   7.950
 6078POPC   C4B23734  24.982  14.284   7.650
 6079POPC   NC323735   6.678  16.761   9.450
 6079POPC   PO423736   6.605  16.703   9.150
 6079POPC   GL123737   6.664  16.706   8.850
 6079POPC   GL223738   6.773  16.855   8.850
 6079POPC   C1A23739   6.684  16.781   8.550
 6079POPC   D2A23740   6.636  16.688   8.250
 6079POPC   C3A23741   6.662  16.744   7.950
 6079POPC   C4A23742   6.596  16.710   7.650
 6079POPC   C1B23743   6.775  16.881   8.550
 6079POPC   C2B23744   6.783  16.950   8.250
 6079POPC   C3B23745   6.766  16.896   7.950
 6079POPC   C4B23746   6.854  16.961   7.650
 6080POPC   NC323747  40.018  32.977   9.450
 6080POPC   PO423748  39.983  33.066   9.150
 6080POPC   GL123749  40.025  33.033   8.850
 6080POPC   GL223750  40.107  32.960   8.850
 6080POPC   C1A23751  39.995  32.998   8.550
 6080POPC   D2A23752  40.055  32.999   8.250
 6080POPC   C3A23753  40.024  32.993   7.950
 6080POPC   C4A23754  40.046  32.988   7.650
 6080POPC   C1B23755  40.210  32.855   8.550
 6080POPC   C2B23756  40.173  32.850   8.250
 6080POPC   C3B23757  40.165  32.853   7.950
 6080POPC   C4B23758  40.134  32.810   7.650
 6081POPC   NC323759   5.902   5.833   9.450
 6081POPC   PO423760   5.909   5.858   9.150
 6081POPC   GL123761   5.865   5.838   8.850
 6081POPC   GL223762   5.702   5.867   8.850
 6081POPC   C1A23763   5.871   5.844   8.550
 6081POPC   D2A23764   5.882   5.878   8.250
 6081POPC   C3A23765   5.911   5.916   7.950
 6081POPC   C4A23766   5.852   5.822   7.650
 6081POPC   C1B23767   5.618   5.823   8.550
 6081POPC   C2B23768   5.601   5.799   8.250
 6081POPC   C3B23769   5.597   5.828   7.950
 6081POPC   C4B23770   5.646   5.838   7.650
 6082POPC   NC323771  36.111  43.102   9.450
 6082POPC   PO423772  36.097  43.130   9.150
 6082POPC   GL123773  36.168  43.076   8.850
 6082POPC   GL223774  36.285  43.156   8.850
 6082POPC   C1A23775  36.141  43.142   8.550
 6082POPC   D2A23776  36.136  43.064   8.250
 6082POPC   C3A23777  36.094  43.128   7.950
 6082POPC   C4A23778  36.166  43.108   7.650
 6082POPC   C1B23779  36.333  43.128   8.550
 6082POPC   C2B23780  36.398  43.212   8.250
 6082POPC   C3B23781  36.326  43.196   7.950
 6082POPC   C4B23782  36.411  43.188   7.650
 6083POPC   NC323783  22.208  23.747   9.450
 6083POPC   PO423784  22.208  23.753   9.150
 6083POPC   GL123785  22.204  23.733   8.850
 6083POPC   GL223786  22.123  23.870   8.850
 6083POPC   C1A23787  22.171  23.713   8.550
 6083POPC   D2A23788  22.150  23.750   8.250
 6083POPC   C3A23789  22.116  23.742   7.950
 6083POPC   C4A23790  22.129  23.746   7.650
 6083POPC   C1B23791  22.168  23.926   8.550
 6083POPC   C2B23792  22.165  24.007   8.250
 6083POPC   C3B23793  22.125  23.982   7.950
 6083POPC   C4B23794  22.141  23.924   7.650
 6084POPC   NC323795  29.879   4.346   9.450
 6084POPC   PO423796  29.928   4.339   9.150
 6084POPC   GL123797  29.962   4.290   8.850
 6084POPC   GL223798  29.837   4.181   8.850
 6084POPC   C1A23799  29.918   4.303   8.550
 6084POPC   D2A23800  29.926   4.331   8.250
 6084POPC   C3A23801  29.923   4.270   7.950
 6084POPC   C4A23802  29.874   4.337   7.650
 6084POPC   C1B23803  29.887   4.038   8.550
 6084POPC   C2B23804  29.869   4.103   8.250
 6084POPC   C3B23805  29.809   4.044   7.950
 6084POPC   C4B23806  29.815   4.059   7.650
 6085POPC   NC323807   9.748  23.697   9.450
 6085POPC   PO423808   9.714  23.703   9.150
 6085POPC   GL123809   9.751  23.694   8.850
 6085POPC   GL223810   9.760  23.622   8.850
 6085POPC   C1A23811   9.699  23.739   8.550
 6085POPC   D2A23812   9.709  23.664   8.250
 6085POPC   C3A23813   9.751  23.695   7.950
 6085POPC   C4A23814   9.724  23.713   7.650
 6085POPC   C1B23815   9.686  23.437   8.550
 6085POPC   C2B23816   9.727  23.474   8.250
 6085POPC   C3B23817   9.679  23.458   7.950
 6085POPC   C4B23818   9.760  23.431   7.650
 6086POPC   NC323819  13.647  15.215   9.450
 6086POPC   PO423820  13.593  15.153   9.150
 6086POPC   GL123821  13.586  15.147   8.850
 6086POPC   GL223822  13.619  15.071   8.850
 6086POPC   C1A23823  13.598  15.192   8.550
 6086POPC   D2A23824  13.672  15.192   8.250
 6086POPC   C3A23825  13.633  15.161   7.950
 6086POPC   C4A23826  13.676  15.183   7.650
 6086POPC   C1B23827  13.476  14.916   8.550
 6086POPC   C2B23828  13.568  14.964   8.250
 6086POPC   C3B23829  13.508  14.945   7.950
 6086POPC   C4B23830  13.484  14.971   7.650
 6087POPC   NC323831  36.130  14.370   9.450
 6087POPC   PO423832  36.112  14.452   9.150
 6087POPC   GL123833  36.111  14.387   8.850
 6087POPC   GL223834  36.226  14.304   8.850
 6087POPC   C1A23835  36.085  14.431   8.550
 6087POPC   D2A23836  36.144  14.418   8.250
 6087POPC   C3A23837  36.115  14.439   7.950
 6087POPC   C4A23838  36.162  14.443   7.650
 6087POPC   C1B23839  36.340  14.263   8.550
 6087POPC   C2B23840  36.300  14.201   8.250
 6087POPC   C3B23841  36.310  14.264   7.950
 6087POPC   C4B23842  36.352  14.270   7.650
 6088POPC   NC323843  11.272  29.190   9.450
 6088POPC   PO423844  11.338  29.102   9.150
 6088POPC   GL123845  11.336  29.152   8.850
 6088POPC   GL223846  11.420  29.092   8.850
 6088POPC   C1A23847  11.344  29.164   8.550
 6088POPC   D2A23848  11.332  29.161   8.250
 6088POPC   C3A23849  11.303  29.194   7.950
 6088POPC   C4A23850  11.265  29.158   7.650
 6088POPC   C1B23851  11.523  29.082   8.550
 6088POPC   C2B23852  11.531  29.093   8.250
 6088POPC   C3B23853  11.534  29.056   7.950
 6088POPC   C4B23854  11.538  29.126   7.650
 6089POPC   NC323855   8.233   2.014   9.450
 6089POPC   PO423856   8.159   2.013   9.150
 6089POPC   GL123857   8.170   2.016   8.850
 6089POPC   GL223858   8.232   2.138   8.850
 6089POPC   C1A23859   8.233   1.956   8.550
 6089POPC   D2A23860   8.147   1.951   8.250
 6089POPC   C3A23861   8.148   2.036   7.950
 6089POPC   C4A23862   8.243   1.964   7.650
 6089POPC   C1B23863   8.296   2.185   8.550
 6089POPC   C2B23864   8.334   2.190   8.250
 6089POPC   C3B23865   8.275   2.244   7.950
 6089POPC   C4B23866   8.345   2.253   7.650
 6090POPC   NC323867  33.811  42.384   9.450
 6090POPC   PO423868  33.801  42.312   9.150
 6090POPC   GL123869  33.835  42.316   8.850
 6090POPC   GL223870  33.808  42.398   8.850
 6090POPC   C1A23871  33.802  42.382   8.550
 6090POPC   D2A23872  33.802  42.382   8.250
 6090POPC   C3A23873  33.811  42.315   7.950
 6090POPC   C4A23874  33.758  42.346   7.650
 6090POPC   C1B23875  33.920  42.522   8.550
 6090POPC   C2B23876  33.927  42.539   8.250
 6090POPC   C3B23877  33.898  42.561   7.950
 6090POPC   C4B23878  33.868  42.568   7.650
 6091POPC   NC323879  19.823  43.888   9.450
 6091POPC   PO423880  19.798  43.897   9.150
 6091POPC   GL123881  19.812  43.896   8.850
 6091POPC   GL223882  19.885  43.980   8.850
 6091POPC   C1A23883  19.873  43.893   8.550
 6091POPC   D2A23884  19.879  43.930   8.250
 6091POPC   C3A23885  19.872  43.866   7.950
 6091POPC   C4A23886  19.840  43.930   7.650
 6091POPC   C1B23887  19.812  44.152   8.550
 6091POPC   C2B23888  19.877  44.093   8.250
 6091POPC   C3B23889  19.886  44.141   7.950
 6091POPC   C4B23890  19.875  44.098   7.650
 6092POPC   NC323891   1.254  33.027   9.450
 6092POPC   PO423892   1.195  32.976   9.150
 6092POPC   GL123893   1.200  33.005   8.850
 6092POPC   GL223894   1.161  32.877   8.850
 6092POPC   C1A23895   1.178  33.028   8.550
 6092POPC   D2A23896   1.194  33.041   8.250
 6092POPC   C3A23897   1.200  33.046   7.950
 6092POPC   C4A23898   1.223  33.069   7.650
 6092POPC   C1B23899   1.113  32.859   8.550
 6092POPC   C2B23900   1.076  32.812   8.250
 6092POPC   C3B23901   1.081  32.826   7.950
 6092POPC   C4B23902   1.119  32.821   7.650
 6093POPC   NC323903  19.808  14.383   9.450
 6093POPC   PO423904  19.856  14.376   9.150
 6093POPC   GL123905  19.857  14.398   8.850
 6093POPC   GL223906  19.932  14.341   8.850
 6093POPC   C1A23907  19.870  14.404   8.550
 6093POPC   D2A23908  19.847  14.409   8.250
 6093POPC   C3A23909  19.858  14.363   7.950
 6093POPC   C4A23910  19.855  14.430   7.650
 6093POPC   C1B23911  20.071  14.269   8.550
 6093POPC   C2B23912  20.021  14.293   8.250
 6093POPC   C3B23913  20.014  14.315   7.950
 6093POPC   C4B23914  20.020  14.322   7.650
 6094POPC   NC323915  33.818  12.120   9.450
 6094POPC   PO423916  33.828  12.084   9.150
 6094POPC   GL123917  33.828  12.104   8.850
 6094POPC   GL223918  33.900  12.163   8.850
 6094POPC   C1A23919  33.823  12.083   8.550
 6094POPC   D2A23920  33.772  12.031   8.250
 6094POPC   C3A23921  33.806  12.045   7.950
 6094POPC   C4A23922  33.842  12.069   7.650
 6094POPC   C1B23923  33.950  12.269   8.550
 6094POPC   C2B23924  33.897  12.306   8.250
 6094POPC   C3B23925  33.903  12.273   7.950
 6094POPC   C4B23926  33.979  12.302   7.650
 6095POPC   NC323927  19.807  12.877   9.450
 6095POPC   PO423928  19.841  12.810   9.150
 6095POPC   GL123929  19.857  12.871   8.850
 6095POPC   GL223930  19.949  12.976   8.850
 6095POPC   C1A23931  19.870  12.839   8.550
 6095POPC   D2A23932  19.826  12.892   8.250
 6095POPC   C3A23933  19.884  12.880   7.950
 6095POPC   C4A23934  19.840  12.876   7.650
 6095POPC   C1B23935  20.025  12.993   8.550
 6095POPC   C2B23936  20.044  13.029   8.250
 6095POPC   C3B23937  20.058  13.057   7.950
 6095POPC   C4B23938  20.031  13.017   7.650
 6096POPC   NC323939  21.367   1.258   9.450
 6096POPC   PO423940  21.365   1.195   9.150
 6096POPC   GL123941  21.368   1.165   8.850
 6096POPC   GL223942  21.373   1.078   8.850
 6096POPC   C1A23943  21.434   1.180   8.550
 6096POPC   D2A23944  21.413   1.202   8.250
 6096POPC   C3A23945  21.341   1.235   7.950
 6096POPC   C4A23946  21.411   1.165   7.650
 6096POPC   C1B23947  21.496   1.016   8.550
 6096POPC   C2B23948  21.499   0.981   8.250
 6096POPC   C3B23949  21.488   0.960   7.950
 6096POPC   C4B23950  21.490   0.960   7.650
 6097POPC   NC323951   5.901  30.683   9.450
 6097POPC   PO423952   5.861  30.718   9.150
 6097POPC   GL123953   5.852  30.654   8.850
 6097POPC   GL223954   6.001  30.676   8.850
 6097POPC   C1A23955   5.885  30.663   8.550
 6097POPC   D2A23956   5.870  30.660   8.250
 6097POPC   C3A23957   5.906  30.702   7.950
 6097POPC   C4A23958   5.902  30.687   7.650
 6097POPC   C1B23959   6.088  30.648   8.550
 6097POPC   C2B23960   6.129  30.602   8.250
 6097POPC   C3B23961   6.096  30.570   7.950
 6097POPC   C4B23962   6.106  30.638   7.650
 6098POPC   NC323963  22.164  22.940   9.450
 6098POPC   PO423964  22.193  22.939   9.150
 6098POPC   GL123965  22.208  22.922   8.850
 6098POPC   GL223966  22.227  22.887   8.850
 6098POPC   C1A23967  22.206  22.898   8.550
 6098POPC   D2A23968  22.204  22.941   8.250
 6098POPC   C3A23969  22.126  22.902   7.950
 6098POPC   C4A23970  22.195  22.915   7.650
 6098POPC   C1B23971  22.375  22.807   8.550
 6098POPC   C2B23972  22.340  22.855   8.250
 6098POPC   C3B23973  22.386  22.795   7.950
 6098POPC   C4B23974  22.404  22.807   7.650
 6099POPC   NC323975   5.066  16.711   9.450
 6099POPC   PO423976   5.097  16.713   9.150
 6099POPC   GL123977   5.055  16.716   8.850
 6099POPC   GL223978   5.191  16.641   8.850
 6099POPC   C1A23979   5.062  16.780   8.550
 6099POPC   D2A23980   5.120  16.780   8.250
 6099POPC   C3A23981   5.109  16.685   7.950
 6099POPC   C4A23982   5.058  16.744   7.650
 6099POPC   C1B23983   5.202  16.532   8.550
 6099POPC   C2B23984   5.250  16.548   8.250
 6099POPC   C3B23985   5.271  16.505   7.950
 6099POPC   C4B23986   5.190  16.489   7.650
 6100POPC   NC323987  23.703  29.944   9.450
 6100POPC   PO423988  23.700  29.936   9.150
 6100POPC   GL123989  23.683  29.954   8.850
 6100POPC   GL223990  23.627  29.820   8.850
 6100POPC   C1A23991  23.690  29.956   8.550
 6100POPC   D2A23992  23.715  29.917   8.250
 6100POPC   C3A23993  23.735  29.947   7.950
 6100POPC   C4A23994  23.677  29.956   7.650
 6100POPC   C1B23995  23.658  29.703   8.550
 6100POPC   C2B23996  23.644  29.671   8.250
 6100POPC   C3B23997  23.581  29.646   7.950
 6100POPC   C4B23998  23.592  29.728   7.650
 6101POPC   NC323999  32.248   8.224   9.450
 6101POPC   PO424000  32.282   8.195   9.150
 6101POPC   GL124001  32.271   8.218   8.850
 6101POPC   GL224002  32.303   8.345   8.850
 6101POPC   C1A24003  32.274   8.211   8.550
 6101POPC   D2A24004  32.211   8.214   8.250
 6101POPC   C3A24005  32.204   8.172   7.950
 6101POPC   C4A24006  32.223   8.211   7.650
 6101POPC   C1B24007  32.314   8.463   8.550
 6101POPC   C2B24008  32.276   8.484   8.250
 6101POPC   C3B24009  32.232   8.427   7.950
 6101POPC   C4B24010  32.286   8.456   7.650
 6102POPC   NC324011  43.146  19.045   9.450
 6102POPC   PO424012  43.106  19.048   9.150
 6102POPC   GL124013  43.139  19.056   8.850
 6102POPC   GL224014  42.996  19.096   8.850
 6102POPC   C1A24015  43.089  19.010   8.550
 6102POPC   D2A24016  43.103  19.020   8.250
 6102POPC   C3A24017  43.065  19.093   7.950
 6102POPC   C4A24018  43.135  19.046   7.650
 6102POPC   C1B24019  42.859  19.126   8.550
 6102POPC   C2B24020  42.889  19.163   8.250
 6102POPC   C3B24021  42.824  19.134   7.950
 6102POPC   C4B24022  42.842  19.160   7.650
 6103POPC   NC324023  40.004  14.424   9.450
 6103POPC   PO424024  39.993  14.372   9.150
 6103POPC   GL124025  39.963  14.356   8.850
 6103POPC   GL224026  39.976  14.288   8.850
 6103POPC   C1A24027  39.965  14.407   8.550
 6103POPC   D2A24028  39.991  14.385   8.250
 6103POPC   C3A24029  40.019  14.425   7.950
 6103POPC   C4A24030  40.020  14.365   7.650
 6103POPC   C1B24031  40.063  14.153   8.550
 6103POPC   C2B24032  40.029  14.157   8.250
 6103POPC   C3B24033  39.991  14.197   7.950
 6103POPC   C4B24034  40.005  14.173   7.650
 6104POPC   NC324035  33.819  43.134   9.450
 6104POPC   PO424036  33.820  43.118   9.150
 6104POPC   GL124037  33.761  43.095   8.850
 6104POPC   GL224038  33.802  43.281   8.850
 6104POPC   C1A24039  33.815  43.151   8.550
 6104POPC   D2A24040  33.793  43.113   8.250
 6104POPC   C3A24041  33.832  43.080   7.950
 6104POPC   C4A24042  33.776  43.103   7.650
 6104POPC   C1B24043  33.849  43.401   8.550
 6104POPC   C2B24044  33.781  43.319   8.250
 6104POPC   C3B24045  33.778  43.378   7.950
 6104POPC   C4B24046  33.839  43.386   7.650
 6105POPC   NC324047  25.231  26.828   9.450
 6105POPC   PO424048  25.217  26.792   9.150
 6105POPC   GL124049  25.303  26.776   8.850
 6105POPC   GL224050  25.238  26.946   8.850
 6105POPC   C1A24051  25.310  26.825   8.550
 6105POPC   D2A24052  25.258  26.784   8.250
 6105POPC   C3A24053  25.308  26.866   7.950
 6105POPC   C4A24054  25.233  26.792   7.650
 6105POPC   C1B24055  25.215  27.055   8.550
 6105POPC   C2B24056  25.212  27.081   8.250
 6105POPC   C3B24057  25.235  27.112   7.950
 6105POPC   C4B24058  25.269  27.093   7.650
 6106POPC   NC324059  40.018  10.554   9.450
 6106POPC   PO424060  40.016  10.552   9.150
 6106POPC   GL124061  39.971  10.522   8.850
 6106POPC   GL224062  39.856  10.555   8.850
 6106POPC   C1A24063  40.013  10.571   8.550
 6106POPC   D2A24064  39.991  10.522   8.250
 6106POPC   C3A24065  40.031  10.573   7.950
 6106POPC   C4A24066  39.965  10.567   7.650
 6106POPC   C1B24067  39.719  10.519   8.550
 6106POPC   C2B24068  39.807  10.559   8.250
 6106POPC   C3B24069  39.797  10.541   7.950
 6106POPC   C4B24070  39.750  10.523   7.650
 6107POPC   NC324071  33.027   2.039   9.450
 6107POPC   PO424072  33.015   1.941   9.150
 6107POPC   GL124073  33.032   1.995   8.850
 6107POPC   GL224074  33.129   2.049   8.850
 6107POPC   C1A24075  32.976   1.990   8.550
 6107POPC   D2A24076  33.000   1.993   8.250
 6107POPC   C3A24077  33.064   1.969   7.950
 6107POPC   C4A24078  33.011   2.028   7.650
 6107POPC   C1B24079  33.236   2.178   8.550
 6107POPC   C2B24080  33.200   2.199   8.250
 6107POPC   C3B24081  33.228   2.181   7.950
 6107POPC   C4B24082  33.223   2.206   7.650
 6108POPC   NC324083   5.056  19.820   9.450
 6108POPC   PO424084   5.053  19.795   9.150
 6108POPC   GL124085   5.084  19.864   8.850
 6108POPC   GL224086   5.031  19.969   8.850
 6108POPC   C1A24087   5.102  19.850   8.550
 6108POPC   D2A24088   5.140  19.863   8.250
 6108POPC   C3A24089   5.131  19.820   7.950
 6108POPC   C4A24090   5.122  19.857   7.650
 6108POPC   C1B24091   5.018  20.079   8.550
 6108POPC   C2B24092   4.939  20.078   8.250
 6108POPC   C3B24093   4.941  20.030   7.950
 6108POPC   C4B24094   4.980  20.012   7.650
 6109POPC   NC324095  34.598   1.990   9.450
 6109POPC   PO424096  34.551   1.985   9.150
 6109POPC   GL124097  34.584   2.010   8.850
 6109POPC   GL224098  34.434   2.088   8.850
 6109POPC   C1A24099  34.547   1.982   8.550
 6109POPC   D2A24100  34.564   2.002   8.250
 6109POPC   C3A24101  34.529   2.039   7.950
 6109POPC   C4A24102  34.618   2.020   7.650
 6109POPC   C1B24103  34.360   2.160   8.550
 6109POPC   C2B24104  34.417   2.188   8.250
 6109POPC   C3B24105  34.371   2.151   7.950
 6109POPC   C4B24106  34.325   2.134   7.650
 6110POPC   NC324107  43.920  12.041   9.450
 6110POPC   PO424108  43.862  12.048   9.150
 6110POPC   GL124109  43.872  12.113   8.850
 6110POPC   GL224110  43.889  11.991   8.850
 6110POPC   C1A24111  43.900  12.107   8.550
 6110POPC   D2A24112  43.907  12.048   8.250
 6110POPC   C3A24113  43.844  12.050   7.950
 6110POPC   C4A24114  43.856  12.051   7.650
 6110POPC   C1B24115  43.878  11.841   8.550
 6110POPC   C2B24116  43.834  11.813   8.250
 6110POPC   C3B24117  43.907  11.832   7.950
 6110POPC   C4B24118  43.845  11.820   7.650
 6111POPC   NC324119  39.992  37.709   9.450
 6111POPC   PO424120  40.022  37.658   9.150
 6111POPC   GL124121  39.965  37.676   8.850
 6111POPC   GL224122  39.904  37.634   8.850
 6111POPC   C1A24123  40.053  37.673   8.550
 6111POPC   D2A24124  40.002  37.721   8.250
 6111POPC   C3A24125  39.958  37.699   7.950
 6111POPC   C4A24126  39.985  37.651   7.650
 6111POPC   C1B24127  39.864  37.500   8.550
 6111POPC   C2B24128  39.809  37.528   8.250
 6111POPC   C3B24129  39.832  37.478   7.950
 6111POPC   C4B24130  39.774  37.499   7.650
 6112POPC   NC324131  30.743   2.743   9.450
 6112POPC   PO424132  30.709   2.740   9.150
 6112POPC   GL124133  30.672   2.775   8.850
 6112POPC   GL224134  30.669   2.644   8.850
 6112POPC   C1A24135  30.657   2.808   8.550
 6112POPC   D2A24136  30.688   2.768   8.250
 6112POPC   C3A24137  30.737   2.716   7.950
 6112POPC   C4A24138  30.718   2.776   7.650
 6112POPC   C1B24139  30.652   2.522   8.550
 6112POPC   C2B24140  30.669   2.517   8.250
 6112POPC   C3B24141  30.595   2.542   7.950
 6112POPC   C4B24142  30.608   2.542   7.650
 6113POPC   NC324143  15.991  13.609   9.450
 6113POPC   PO424144  15.968  13.605   9.150
 6113POPC   GL124145  15.964  13.630   8.850
 6113POPC   GL224146  15.889  13.791   8.850
 6113POPC   C1A24147  15.932  13.640   8.550
 6113POPC   D2A24148  15.914  13.595   8.250
 6113POPC   C3A24149  15.947  13.581   7.950
 6113POPC   C4A24150  15.996  13.628   7.650
 6113POPC   C1B24151  15.863  13.895   8.550
 6113POPC   C2B24152  15.933  13.919   8.250
 6113POPC   C3B24153  15.873  13.892   7.950
 6113POPC   C4B24154  15.940  13.875   7.650
 6114POPC   NC324155   7.402  26.788   9.450
 6114POPC   PO424156   7.383  26.853   9.150
 6114POPC   GL124157   7.403  26.855   8.850
 6114POPC   GL224158   7.551  26.739   8.850
 6114POPC   C1A24159   7.417  26.860   8.550
 6114POPC   D2A24160   7.420  26.830   8.250
 6114POPC   C3A24161   7.470  26.848   7.950
 6114POPC   C4A24162   7.415  26.842   7.650
 6114POPC   C1B24163   7.671  26.788   8.550
 6114POPC   C2B24164   7.710  26.779   8.250
 6114POPC   C3B24165   7.676  26.807   7.950
 6114POPC   C4B24166   7.658  26.729   7.650
 6115POPC   NC324167  32.227  20.632   9.450
 6115POPC   PO424168  32.216  20.572   9.150
 6115POPC   GL124169  32.270  20.609   8.850
 6115POPC   GL224170  32.160  20.699   8.850
 6115POPC   C1A24171  32.220  20.592   8.550
 6115POPC   D2A24172  32.269  20.608   8.250
 6115POPC   C3A24173  32.246  20.569   7.950
 6115POPC   C4A24174  32.270  20.644   7.650
 6115POPC   C1B24175  32.011  20.696   8.550
 6115POPC   C2B24176  32.038  20.745   8.250
 6115POPC   C3B24177  31.990  20.755   7.950
 6115POPC   C4B24178  32.023  20.676   7.650
 6116POPC   NC324179  24.488  43.892   9.450
 6116POPC   PO424180  24.509  43.906   9.150
 6116POPC   GL124181  24.497  43.877   8.850
 6116POPC   GL224182  24.546  43.967   8.850
 6116POPC   C1A24183  24.490  43.923   8.550
 6116POPC   D2A24184  24.514  43.841   8.250
 6116POPC   C3A24185  24.458  43.930   7.950
 6116POPC   C4A24186  24.528  43.865   7.650
 6116POPC   C1B24187  24.667  44.078   8.550
 6116POPC   C2B24188  24.671  44.013   8.250
 6116POPC   C3B24189  24.712  44.046   7.950
 6116POPC   C4B24190  24.709  44.002   7.650
 6117POPC   NC324191  40.788  24.485   9.450
 6117POPC   PO424192  40.810  24.498   9.150
 6117POPC   GL124193  40.820  24.518   8.850
 6117POPC   GL224194  40.836  24.586   8.850
 6117POPC   C1A24195  40.782  24.538   8.550
 6117POPC   D2A24196  40.736  24.466   8.250
 6117POPC   C3A24197  40.802  24.451   7.950
 6117POPC   C4A24198  40.793  24.490   7.650
 6117POPC   C1B24199  40.971  24.680   8.550
 6117POPC   C2B24200  40.966  24.655   8.250
 6117POPC   C3B24201  40.928  24.724   7.950
 6117POPC   C4B24202  40.952  24.661   7.650
 6118POPC   NC324203  15.139  13.610   9.450
 6118POPC   PO424204  15.191  13.626   9.150
 6118POPC   GL124205  15.170  13.617   8.850
 6118POPC   GL224206  15.232  13.547   8.850
 6118POPC   C1A24207  15.166  13.637   8.550
 6118POPC   D2A24208  15.133  13.618   8.250
 6118POPC   C3A24209  15.202  13.643   7.950
 6118POPC   C4A24210  15.183  13.669   7.650
 6118POPC   C1B24211  15.219  13.343   8.550
 6118POPC   C2B24212  15.251  13.384   8.250
 6118POPC   C3B24213  15.245  13.353   7.950
 6118POPC   C4B24214  15.285  13.396   7.650
 6119POPC   NC324215  39.245  16.747   9.450
 6119POPC   PO424216  39.199  16.740   9.150
 6119POPC   GL124217  39.264  16.761   8.850
 6119POPC   GL224218  39.350  16.708   8.850
 6119POPC   C1A24219  39.259  16.688   8.550
 6119POPC   D2A24220  39.188  16.749   8.250
 6119POPC   C3A24221  39.250  16.682   7.950
 6119POPC   C4A24222  39.264  16.694   7.650
 6119POPC   C1B24223  39.444  16.679   8.550
 6119POPC   C2B24224  39.437  16.637   8.250
 6119POPC   C3B24225  39.458  16.596   7.950
 6119POPC   C4B24226  39.453  16.603   7.650
 6120POPC   NC324227  21.416  37.639   9.450
 6120POPC   PO424228  21.411  37.669   9.150
 6120POPC   GL124229  21.385  37.646   8.850
 6120POPC   GL224230  21.237  37.677   8.850
 6120POPC   C1A24231  21.369  37.645   8.550
 6120POPC   D2A24232  21.347  37.656   8.250
 6120POPC   C3A24233  21.435  37.662   7.950
 6120POPC   C4A24234  21.361  37.726   7.650
 6120POPC   C1B24235  21.117  37.578   8.550
 6120POPC   C2B24236  21.124  37.593   8.250
 6120POPC   C3B24237  21.186  37.653   7.950
 6120POPC   C4B24238  21.134  37.600   7.650
 6121POPC   NC324239  35.394  37.658   9.450
 6121POPC   PO424240  35.306  37.675   9.150
 6121POPC   GL124241  35.356  37.691   8.850
 6121POPC   GL224242  35.279  37.735   8.850
 6121POPC   C1A24243  35.324  37.701   8.550
 6121POPC   D2A24244  35.387  37.718   8.250
 6121POPC   C3A24245  35.326  37.660   7.950
 6121POPC   C4A24246  35.316  37.648   7.650
 6121POPC   C1B24247  35.118  37.759   8.550
 6121POPC   C2B24248  35.108  37.785   8.250
 6121POPC   C3B24249  35.080  37.775   7.950
 6121POPC   C4B24250  35.158  37.806   7.650
 6122POPC   NC324251  42.306  12.105   9.450
 6122POPC   PO424252  42.288  12.028   9.150
 6122POPC   GL124253  42.341  12.027   8.850
 6122POPC   GL224254  42.222  11.946   8.850
 6122POPC   C1A24255  42.377  12.095   8.550
 6122POPC   D2A24256  42.377  12.086   8.250
 6122POPC   C3A24257  42.303  12.065   7.950
 6122POPC   C4A24258  42.355  12.028   7.650
 6122POPC   C1B24259  42.158  11.874   8.550
 6122POPC   C2B24260  42.193  11.945   8.250
 6122POPC   C3B24261  42.146  11.874   7.950
 6122POPC   C4B24262  42.113  11.954   7.650
 6123POPC   NC324263   1.945  43.110   9.450
 6123POPC   PO424264   1.983  43.111   9.150
 6123POPC   GL124265   2.017  43.123   8.850
 6123POPC   GL224266   1.958  43.000   8.850
 6123POPC   C1A24267   1.981  43.141   8.550
 6123POPC   D2A24268   2.003  43.070   8.250
 6123POPC   C3A24269   1.976  43.154   7.950
 6123POPC   C4A24270   2.003  43.127   7.650
 6123POPC   C1B24271   1.974  42.837   8.550
 6123POPC   C2B24272   1.907  42.901   8.250
 6123POPC   C3B24273   1.984  42.826   7.950
 6123POPC   C4B24274   1.942  42.845   7.650
 6124POPC   NC324275  24.495  38.504   9.450
 6124POPC   PO424276  24.494  38.470   9.150
 6124POPC   GL124277  24.447  38.482   8.850
 6124POPC   GL224278  24.537  38.526   8.850
 6124POPC   C1A24279  24.458  38.421   8.550
 6124POPC   D2A24280  24.467  38.454   8.250
 6124POPC   C3A24281  24.521  38.408   7.950
 6124POPC   C4A24282  24.461  38.432   7.650
 6124POPC   C1B24283  24.599  38.696   8.550
 6124POPC   C2B24284  24.567  38.667   8.250
 6124POPC   C3B24285  24.550  38.697   7.950
 6124POPC   C4B24286  24.580  38.729   7.650
 6125POPC   NC324287  33.023  11.307   9.450
 6125POPC   PO424288  33.054  11.326   9.150
 6125POPC   GL124289  33.055  11.285   8.850
 6125POPC   GL224290  32.963  11.224   8.850
 6125POPC   C1A24291  33.061  11.305   8.550
 6125POPC   D2A24292  32.998  11.307   8.250
 6125POPC   C3A24293  33.070  11.306   7.950
 6125POPC   C4A24294  33.017  11.340   7.650
 6125POPC   C1B24295  32.832  11.119   8.550
 6125POPC   C2B24296  32.842  11.119   8.250
 6125POPC   C3B24297  32.846  11.155   7.950
 6125POPC   C4B24298  32.801  11.111   7.650
 6126POPC   NC324299  29.106   3.544   9.450
 6126POPC   PO424300  29.165   3.550   9.150
 6126POPC   GL124301  29.104   3.543   8.850
 6126POPC   GL224302  29.000   3.521   8.850
 6126POPC   C1A24303  29.106   3.573   8.550
 6126POPC   D2A24304  29.162   3.548   8.250
 6126POPC   C3A24305  29.167   3.543   7.950
 6126POPC   C4A24306  29.185   3.585   7.650
 6126POPC   C1B24307  28.878   3.548   8.550
 6126POPC   C2B24308  28.919   3.482   8.250
 6126POPC   C3B24309  28.904   3.465   7.950
 6126POPC   C4B24310  28.851   3.517   7.650
 6127POPC   NC324311  41.553  19.047   9.450
 6127POPC   PO424312  41.518  19.062   9.150
 6127POPC   GL124313  41.545  19.034   8.850
 6127POPC   GL224314  41.641  19.093   8.850
 6127POPC   C1A24315  41.545  19.091   8.550
 6127POPC   D2A24316  41.516  19.058   8.250
 6127POPC   C3A24317  41.608  19.023   7.950
 6127POPC   C4A24318  41.509  19.096   7.650
 6127POPC   C1B24319  41.781  19.076   8.550
 6127POPC   C2B24320  41.825  19.054   8.250
 6127POPC   C3B24321  41.850  19.090   7.950
 6127POPC   C4B24322  41.760  19.137   7.650
 6128POPC   NC324323  29.930  32.242   9.450
 6128POPC   PO424324  29.902  32.255   9.150
 6128POPC   GL124325  29.959  32.229   8.850
 6128POPC   GL224326  29.789  32.149   8.850
 6128POPC   C1A24327  29.911  32.202   8.550
 6128POPC   D2A24328  29.912  32.268   8.250
 6128POPC   C3A24329  29.908  32.220   7.950
 6128POPC   C4A24330  29.887  32.239   7.650
 6128POPC   C1B24331  29.752  32.073   8.550
 6128POPC   C2B24332  29.761  32.057   8.250
 6128POPC   C3B24333  29.694  32.055   7.950
 6128POPC   C4B24334  29.693  32.123   7.650
 6129POPC   NC324335  40.039  28.388   9.450
 6129POPC   PO424336  40.002  28.329   9.150
 6129POPC   GL124337  40.049  28.418   8.850
 6129POPC   GL224338  40.005  28.245   8.850
 6129POPC   C1A24339  39.963  28.386   8.550
 6129POPC   D2A24340  39.989  28.382   8.250
 6129POPC   C3A24341  39.986  28.363   7.950
 6129POPC   C4A24342  39.993  28.327   7.650
 6129POPC   C1B24343  40.069  28.134   8.550
 6129POPC   C2B24344  40.096  28.088   8.250
 6129POPC   C3B24345  40.092  28.119   7.950
 6129POPC   C4B24346  40.100  28.076   7.650
 6130POPC   NC324347  38.423   9.005   9.450
 6130POPC   PO424348  38.418   8.964   9.150
 6130POPC   GL124349  38.414   8.979   8.850
 6130POPC   GL224350  38.368   9.033   8.850
 6130POPC   C1A24351  38.461   8.926   8.550
 6130POPC   D2A24352  38.495   9.018   8.250
 6130POPC   C3A24353  38.438   8.944   7.950
 6130POPC   C4A24354  38.484   8.931   7.650
 6130POPC   C1B24355  38.193   9.082   8.550
 6130POPC   C2B24356  38.244   9.125   8.250
 6130POPC   C3B24357  38.179   9.100   7.950
 6130POPC   C4B24358  38.227   9.041   7.650
 6131POPC   NC324359  10.573   6.633   9.450
 6131POPC   PO424360  10.530   6.634   9.150
 6131POPC   GL124361  10.565   6.682   8.850
 6131POPC   GL224362  10.566   6.520   8.850
 6131POPC   C1A24363  10.543   6.602   8.550
 6131POPC   D2A24364  10.494   6.595   8.250
 6131POPC   C3A24365  10.491   6.652   7.950
 6131POPC   C4A24366  10.565   6.604   7.650
 6131POPC   C1B24367  10.588   6.393   8.550
 6131POPC   C2B24368  10.621   6.370   8.250
 6131POPC   C3B24369  10.622   6.373   7.950
 6131POPC   C4B24370  10.585   6.402   7.650
 6132POPC   NC324371  43.087  20.605   9.450
 6132POPC   PO424372  43.154  20.634   9.150
 6132POPC   GL124373  43.158  20.630   8.850
 6132POPC   GL224374  43.127  20.540   8.850
 6132POPC   C1A24375  43.092  20.581   8.550
 6132POPC   D2A24376  43.061  20.563   8.250
 6132POPC   C3A24377  43.137  20.599   7.950
 6132POPC   C4A24378  43.113  20.581   7.650
 6132POPC   C1B24379  43.229  20.401   8.550
 6132POPC   C2B24380  43.232  20.393   8.250
 6132POPC   C3B24381  43.215  20.367   7.950
 6132POPC   C4B24382  43.203  20.346   7.650
 6133POPC   NC324383  36.122  19.068   9.450
 6133POPC   PO424384  36.096  19.098   9.150
 6133POPC   GL124385  36.171  19.081   8.850
 6133POPC   GL224386  36.127  19.157   8.850
 6133POPC   C1A24387  36.130  19.076   8.550
 6133POPC   D2A24388  36.140  19.056   8.250
 6133POPC   C3A24389  36.120  19.095   7.950
 6133POPC   C4A24390  36.160  19.105   7.650
 6133POPC   C1B24391  36.041  19.291   8.550
 6133POPC   C2B24392  36.124  19.350   8.250
 6133POPC   C3B24393  36.043  19.324   7.950
 6133POPC   C4B24394  36.038  19.284   7.650
 6134POPC   NC324395  12.054  20.606   9.450
 6134POPC   PO424396  12.093  20.578   9.150
 6134POPC   GL124397  12.101  20.649   8.850
 6134POPC   GL224398  11.916  20.561   8.850
 6134POPC   C1A24399  12.062  20.582   8.550
 6134POPC   D2A24400  12.052  20.577   8.250
 6134POPC   C3A24401  12.037  20.659   7.950
 6134POPC   C4A24402  12.052  20.564   7.650
 6134POPC   C1B24403  11.859  20.454   8.550
 6134POPC   C2B24404  11.899  20.465   8.250
 6134POPC   C3B24405  11.821  20.513   7.950
 6134POPC   C4B24406  11.820  20.526   7.650
 6135POPC   NC324407  22.954  23.708   9.450
 6135POPC   PO424408  22.901  23.723   9.150
 6135POPC   GL124409  22.952  23.696   8.850
 6135POPC   GL224410  22.787  23.798   8.850
 6135POPC   C1A24411  22.975  23.740   8.550
 6135POPC   D2A24412  22.911  23.674   8.250
 6135POPC   C3A24413  22.912  23.699   7.950
 6135POPC   C4A24414  22.918  23.675   7.650
 6135POPC   C1B24415  22.770  23.863   8.550
 6135POPC   C2B24416  22.754  23.848   8.250
 6135POPC   C3B24417  22.687  23.861   7.950
 6135POPC   C4B24418  22.731  23.812   7.650
 6136POPC   NC324419  39.222  43.152   9.450
 6136POPC   PO424420  39.233  43.099   9.150
 6136POPC   GL124421  39.247  43.072   8.850
 6136POPC   GL224422  39.279  43.266   8.850
 6136POPC   C1A24423  39.225  43.156   8.550
 6136POPC   D2A24424  39.278  43.082   8.250
 6136POPC   C3A24425  39.185  43.093   7.950
 6136POPC   C4A24426  39.192  43.095   7.650
 6136POPC   C1B24427  39.257  43.349   8.550
 6136POPC   C2B24428  39.227  43.377   8.250
 6136POPC   C3B24429  39.295  43.354   7.950
 6136POPC   C4B24430  39.282  43.365   7.650
 6137POPC   NC324431  38.444  28.416   9.450
 6137POPC   PO424432  38.466  28.396   9.150
 6137POPC   GL124433  38.505  28.416   8.850
 6137POPC   GL224434  38.473  28.473   8.850
 6137POPC   C1A24435  38.428  28.341   8.550
 6137POPC   D2A24436  38.472  28.348   8.250
 6137POPC   C3A24437  38.473  28.354   7.950
 6137POPC   C4A24438  38.425  28.401   7.650
 6137POPC   C1B24439  38.585  28.613   8.550
 6137POPC   C2B24440  38.590  28.602   8.250
 6137POPC   C3B24441  38.628  28.550   7.950
 6137POPC   C4B24442  38.605  28.592   7.650
 6138POPC   NC324443  16.769  27.610   9.450
 6138POPC   PO424444  16.740  27.593   9.150
 6138POPC   GL124445  16.723  27.600   8.850
 6138POPC   GL224446  16.768  27.496   8.850
 6138POPC   C1A24447  16.740  27.626   8.550
 6138POPC   D2A24448  16.713  27.582   8.250
 6138POPC   C3A24449  16.712  27.590   7.950
 6138POPC   C4A24450  16.759  27.611   7.650
 6138POPC   C1B24451  16.889  27.443   8.550
 6138POPC   C2B24452  16.925  27.379   8.250
 6138POPC   C3B24453  16.904  27.391   7.950
 6138POPC   C4B24454  16.872  27.430   7.650
 6139POPC   NC324455  36.098  12.100   9.450
 6139POPC   PO424456  36.116  12.055   9.150
 6139POPC   GL124457  36.167  12.117   8.850
 6139POPC   GL224458  36.036  12.190   8.850
 6139POPC   C1A24459  36.143  12.106   8.550
 6139POPC   D2A24460  36.088  12.037   8.250
 6139POPC   C3A24461  36.140  12.101   7.950
 6139POPC   C4A24462  36.172  12.030   7.650
 6139POPC   C1B24463  35.980  12.267   8.550
 6139POPC   C2B24464  35.957  12.267   8.250
 6139POPC   C3B24465  35.961  12.243   7.950
 6139POPC   C4B24466  35.896  12.245   7.650
 6140POPC   NC324467  44.705  28.392   9.450
 6140POPC   PO424468  44.709  28.321   9.150
 6140POPC   GL124469  44.704  28.397   8.850
 6140POPC   GL224470  44.764  28.238   8.850
 6140POPC   C1A24471  44.620  28.383   8.550
 6140POPC   D2A24472  44.660  28.411   8.250
 6140POPC   C3A24473  44.623  28.393   7.950
 6140POPC   C4A24474  44.639  28.334   7.650
 6140POPC   C1B24475  44.883  28.169   8.550
 6140POPC   C2B24476  44.834  28.175   8.250
 6140POPC   C3B24477  44.878  28.145   7.950
 6140POPC   C4B24478  44.844  28.187   7.650
 6141POPC   NC324479   2.008  10.568   9.450
 6141POPC   PO424480   1.967  10.511   9.150
 6141POPC   GL124481   1.970  10.573   8.850
 6141POPC   GL224482   2.103  10.395   8.850
 6141POPC   C1A24483   1.959  10.531   8.550
 6141POPC   D2A24484   1.952  10.496   8.250
 6141POPC   C3A24485   1.949  10.558   7.950
 6141POPC   C4A24486   1.993  10.570   7.650
 6141POPC   C1B24487   2.138  10.340   8.550
 6141POPC   C2B24488   2.119  10.336   8.250
 6141POPC   C3B24489   2.169  10.353   7.950
 6141POPC   C4B24490   2.116  10.286   7.650
 6142POPC   NC324491  42.307  40.793   9.450
 6142POPC   PO424492  42.361  40.808   9.150
 6142POPC   GL124493  42.321  40.792   8.850
 6142POPC   GL224494  42.398  40.873   8.850
 6142POPC   C1A24495  42.341  40.816   8.550
 6142POPC   D2A24496  42.325  40.798   8.250
 6142POPC   C3A24497  42.332  40.783   7.950
 6142POPC   C4A24498  42.309  40.758   7.650
 6142POPC   C1B24499  42.460  40.986   8.550
 6142POPC   C2B24500  42.457  40.969   8.250
 6142POPC   C3B24501  42.431  41.041   7.950
 6142POPC   C4B24502  42.391  41.024   7.650
 6143POPC   NC324503  14.402   4.348   9.450
 6143POPC   PO424504  14.444   4.344   9.150
 6143POPC   GL124505  14.403   4.353   8.850
 6143POPC   GL224506  14.266   4.298   8.850
 6143POPC   C1A24507  14.425   4.302   8.550
 6143POPC   D2A24508  14.453   4.315   8.250
 6143POPC   C3A24509  14.362   4.314   7.950
 6143POPC   C4A24510  14.408   4.276   7.650
 6143POPC   C1B24511  14.206   4.281   8.550
 6143POPC   C2B24512  14.161   4.275   8.250
 6143POPC   C3B24513  14.163   4.285   7.950
 6143POPC   C4B24514  14.179   4.268   7.650
 6144POPC   NC324515  40.760  27.559   9.450
 6144POPC   PO424516  40.799  27.546   9.150
 6144POPC   GL124517  40.792  27.553   8.850
 6144POPC   GL224518  40.881  27.640   8.850
 6144POPC   C1A24519  40.767  27.552   8.550
 6144POPC   D2A24520  40.832  27.608   8.250
 6144POPC   C3A24521  40.769  27.616   7.950
 6144POPC   C4A24522  40.806  27.628   7.650
 6144POPC   C1B24523  40.998  27.685   8.550
 6144POPC   C2B24524  41.040  27.673   8.250
 6144POPC   C3B24525  40.993  27.712   7.950
 6144POPC   C4B24526  41.023  27.700   7.650
 6145POPC   NC324527  31.483  36.874   9.450
 6145POPC   PO424528  31.521  36.953   9.150
 6145POPC   GL124529  31.475  36.922   8.850
 6145POPC   GL224530  31.550  37.042   8.850
 6145POPC   C1A24531  31.453  36.926   8.550
 6145POPC   D2A24532  31.445  36.877   8.250
 6145POPC   C3A24533  31.514  36.865   7.950
 6145POPC   C4A24534  31.454  36.895   7.650
 6145POPC   C1B24535  31.665  37.074   8.550
 6145POPC   C2B24536  31.591  37.046   8.250
 6145POPC   C3B24537  31.653  37.060   7.950
 6145POPC   C4B24538  31.610  37.080   7.650
 6146POPC   NC324539   2.727   1.984   9.450
 6146POPC   PO424540   2.745   1.941   9.150
 6146POPC   GL124541   2.785   2.015   8.850
 6146POPC   GL224542   2.658   2.041   8.850
 6146POPC   C1A24543   2.779   1.999   8.550
 6146POPC   D2A24544   2.765   1.971   8.250
 6146POPC   C3A24545   2.757   1.957   7.950
 6146POPC   C4A24546   2.743   2.030   7.650
 6146POPC   C1B24547   2.588   2.192   8.550
 6146POPC   C2B24548   2.608   2.151   8.250
 6146POPC   C3B24549   2.576   2.207   7.950
 6146POPC   C4B24550   2.581   2.222   7.650
 6147POPC   NC324551   8.981  22.948   9.450
 6147POPC   PO424552   8.923  22.934   9.150
 6147POPC   GL124553   8.980  22.915   8.850
 6147POPC   GL224554   8.979  22.819   8.850
 6147POPC   C1A24555   8.939  22.926   8.550
 6147POPC   D2A24556   8.929  22.925   8.250
 6147POPC   C3A24557   9.000  22.960   7.950
 6147POPC   C4A24558   9.020  22.931   7.650
 6147POPC   C1B24559   9.036  22.732   8.550
 6147POPC   C2B24560   9.064  22.710   8.250
 6147POPC   C3B24561   9.010  22.731   7.950
 6147POPC   C4B24562   9.036  22.704   7.650
 6148POPC   NC324563  32.241  41.529   9.450
 6148POPC   PO424564  32.288  41.553   9.150
 6148POPC   GL124565  32.273  41.556   8.850
 6148POPC   GL224566  32.171  41.575   8.850
 6148POPC   C1A24567  32.207  41.511   8.550
 6148POPC   D2A24568  32.242  41.509   8.250
 6148POPC   C3A24569  32.203  41.518   7.950
 6148POPC   C4A24570  32.292  41.522   7.650
 6148POPC   C1B24571  32.029  41.500   8.550
 6148POPC   C2B24572  31.992  41.479   8.250
 6148POPC   C3B24573  31.995  41.523   7.950
 6148POPC   C4B24574  32.038  41.506   7.650
 6149POPC   NC324575  24.465   8.206   9.450
 6149POPC   PO424576  24.521   8.221   9.150
 6149POPC   GL124577  24.527   8.187   8.850
 6149POPC   GL224578  24.462   8.083   8.850
 6149POPC   C1A24579  24.486   8.193   8.550
 6149POPC   D2A24580  24.454   8.165   8.250
 6149POPC   C3A24581  24.486   8.241   7.950
 6149POPC   C4A24582  24.523   8.200   7.650
 6149POPC   C1B24583  24.436   7.978   8.550
 6149POPC   C2B24584  24.397   7.927   8.250
 6149POPC   C3B24585  24.385   7.991   7.950
 6149POPC   C4B24586  24.462   7.995   7.650
 6150POPC   NC324587  42.362  36.872   9.450
 6150POPC   PO424588  42.361  36.950   9.150
 6150POPC   GL124589  42.358  36.915   8.850
 6150POPC   GL224590  42.457  36.819   8.850
 6150POPC   C1A24591  42.304  36.854   8.550
 6150POPC   D2A24592  42.382  36.901   8.250
 6150POPC   C3A24593  42.286  36.939   7.950
 6150POPC   C4A24594  42.372  36.864   7.650
 6150POPC   C1B24595  42.492  36.766   8.550
 6150POPC   C2B24596  42.513  36.691   8.250
 6150POPC   C3B24597  42.476  36.699   7.950
 6150POPC   C4B24598  42.551  36.682   7.650
 6151POPC   NC324599   4.354  36.145   9.450
 6151POPC   PO424600   4.280  36.155   9.150
 6151POPC   GL124601   4.366  36.106   8.850
 6151POPC   GL224602   4.430  36.161   8.850
 6151POPC   C1A24603   4.324  36.128   8.550
 6151POPC   D2A24604   4.290  36.090   8.250
 6151POPC   C3A24605   4.273  36.131   7.950
 6151POPC   C4A24606   4.309  36.160   7.650
 6151POPC   C1B24607   4.521  36.237   8.550
 6151POPC   C2B24608   4.543  36.207   8.250
 6151POPC   C3B24609   4.531  36.177   7.950
 6151POPC   C4B24610   4.536  36.171   7.650
 6152POPC   NC324611  21.432  12.809   9.450
 6152POPC   PO424612  21.366  12.896   9.150
 6152POPC   GL124613  21.413  12.833   8.850
 6152POPC   GL224614  21.292  12.827   8.850
 6152POPC   C1A24615  21.376  12.816   8.550
 6152POPC   D2A24616  21.394  12.837   8.250
 6152POPC   C3A24617  21.420  12.810   7.950
 6152POPC   C4A24618  21.376  12.835   7.650
 6152POPC   C1B24619  21.156  12.810   8.550
 6152POPC   C2B24620  21.182  12.827   8.250
 6152POPC   C3B24621  21.090  12.879   7.950
 6152POPC   C4B24622  21.090  12.894   7.650
 6153POPC   NC324623  31.444  38.500   9.450
 6153POPC   PO424624  31.507  38.492   9.150
 6153POPC   GL124625  31.465  38.441   8.850
 6153POPC   GL224626  31.497  38.376   8.850
 6153POPC   C1A24627  31.521  38.463   8.550
 6153POPC   D2A24628  31.436  38.414   8.250
 6153POPC   C3A24629  31.495  38.450   7.950
 6153POPC   C4A24630  31.486  38.447   7.650
 6153POPC   C1B24631  31.420  38.169   8.550
 6153POPC   C2B24632  31.455  38.214   8.250
 6153POPC   C3B24633  31.408  38.199   7.950
 6153POPC   C4B24634  31.463  38.236   7.650
 6154POPC   NC324635   2.799  19.054   9.450
 6154POPC   PO424636   2.718  19.078   9.150
 6154POPC   GL124637   2.748  19.100   8.850
 6154POPC   GL224638   2.660  19.059   8.850
 6154POPC   C1A24639   2.778  19.022   8.550
 6154POPC   D2A24640   2.739  19.012   8.250
 6154POPC   C3A24641   2.742  19.009   7.950
 6154POPC   C4A24642   2.743  19.074   7.650
 6154POPC   C1B24643   2.547  18.971   8.550
 6154POPC   C2B24644   2.552  18.959   8.250
 6154POPC   C3B24645   2.546  18.947   7.950
 6154POPC   C4B24646   2.515  19.036   7.650
 6155POPC   NC324647  20.580  27.571   9.450
 6155POPC   PO424648  20.586  27.582   9.150
 6155POPC   GL124649  20.655  27.559   8.850
 6155POPC   GL224650  20.462  27.613   8.850
 6155POPC   C1A24651  20.628  27.552   8.550
 6155POPC   D2A24652  20.618  27.566   8.250
 6155POPC   C3A24653  20.613  27.551   7.950
 6155POPC   C4A24654  20.588  27.643   7.650
 6155POPC   C1B24655  20.394  27.590   8.550
 6155POPC   C2B24656  20.328  27.587   8.250
 6155POPC   C3B24657  20.331  27.658   7.950
 6155POPC   C4B24658  20.409  27.578   7.650
 6156POPC   NC324659  18.252   0.405   9.450
 6156POPC   PO424660  18.266   0.477   9.150
 6156POPC   GL124661  18.269   0.452   8.850
 6156POPC   GL224662  18.124   0.437   8.850
 6156POPC   C1A24663  18.293   0.475   8.550
 6156POPC   D2A24664  18.254   0.406   8.250
 6156POPC   C3A24665  18.319   0.464   7.950
 6156POPC   C4A24666  18.273   0.480   7.650
 6156POPC   C1B24667  17.985   0.452   8.550
 6156POPC   C2B24668  18.020   0.412   8.250
 6156POPC   C3B24669  17.999   0.431   7.950
 6156POPC   C4B24670  18.050   0.488   7.650
 6157POPC   NC324671  27.601   4.283   9.450
 6157POPC   PO424672  27.556   4.352   9.150
 6157POPC   GL124673  27.640   4.344   8.850
 6157POPC   GL224674  27.727   4.367   8.850
 6157POPC   C1A24675  27.594   4.327   8.550
 6157POPC   D2A24676  27.604   4.273   8.250
 6157POPC   C3A24677  27.640   4.336   7.950
 6157POPC   C4A24678  27.590   4.279   7.650
 6157POPC   C1B24679  27.776   4.435   8.550
 6157POPC   C2B24680  27.861   4.450   8.250
 6157POPC   C3B24681  27.787   4.419   7.950
 6157POPC   C4B24682  27.789   4.429   7.650
 6158POPC   NC324683   4.288  11.261   9.450
 6158POPC   PO424684   4.275  11.288   9.150
 6158POPC   GL124685   4.355  11.280   8.850
 6158POPC   GL224686   4.307  11.398   8.850
 6158POPC   C1A24687   4.316  11.283   8.550
 6158POPC   D2A24688   4.303  11.341   8.250
 6158POPC   C3A24689   4.313  11.322   7.950
 6158POPC   C4A24690   4.290  11.313   7.650
 6158POPC   C1B24691   4.214  11.562   8.550
 6158POPC   C2B24692   4.193  11.504   8.250
 6158POPC   C3B24693   4.223  11.530   7.950
 6158POPC   C4B24694   4.164  11.526   7.650
 6159POPC   NC324695  32.288  31.475   9.450
 6159POPC   PO424696  32.209  31.436   9.150
 6159POPC   GL124697  32.210  31.464   8.850
 6159POPC   GL224698  32.228  31.385   8.850
 6159POPC   C1A24699  32.252  31.488   8.550
 6159POPC   D2A24700  32.268  31.471   8.250
 6159POPC   C3A24701  32.222  31.473   7.950
 6159POPC   C4A24702  32.274  31.458   7.650
 6159POPC   C1B24703  32.196  31.201   8.550
 6159POPC   C2B24704  32.262  31.204   8.250
 6159POPC   C3B24705  32.244  31.208   7.950
 6159POPC   C4B24706  32.167  31.193   7.650
 6160POPC   NC324707  43.092  28.344   9.450
 6160POPC   PO424708  43.160  28.394   9.150
 6160POPC   GL124709  43.105  28.323   8.850
 6160POPC   GL224710  43.147  28.257   8.850
 6160POPC   C1A24711  43.074  28.351   8.550
 6160POPC   D2A24712  43.066  28.319   8.250
 6160POPC   C3A24713  43.114  28.365   7.950
 6160POPC   C4A24714  43.110  28.345   7.650
 6160POPC   C1B24715  43.158  28.120   8.550
 6160POPC   C2B24716  43.103  28.152   8.250
 6160POPC   C3B24717  43.093  28.096   7.950
 6160POPC   C4B24718  43.082  28.164   7.650
 6161POPC   NC324719   5.051  36.935   9.450
 6161POPC   PO424720   5.122  36.868   9.150
 6161POPC   GL124721   5.103  36.946   8.850
 6161POPC   GL224722   5.047  36.796   8.850
 6161POPC   C1A24723   5.047  36.929   8.550
 6161POPC   D2A24724   5.047  36.916   8.250
 6161POPC   C3A24725   5.126  36.878   7.950
 6161POPC   C4A24726   5.110  36.866   7.650
 6161POPC   C1B24727   5.014  36.650   8.550
 6161POPC   C2B24728   5.046  36.663   8.250
 6161POPC   C3B24729   4.974  36.656   7.950
 6161POPC   C4B24730   5.040  36.678   7.650
 6162POPC   NC324731  12.843  37.633   9.450
 6162POPC   PO424732  12.828  37.712   9.150
 6162POPC   GL124733  12.842  37.719   8.850
 6162POPC   GL224734  12.816  37.822   8.850
 6162POPC   C1A24735  12.892  37.687   8.550
 6162POPC   D2A24736  12.837  37.675   8.250
 6162POPC   C3A24737  12.869  37.689   7.950
 6162POPC   C4A24738  12.843  37.654   7.650
 6162POPC   C1B24739  12.847  37.897   8.550
 6162POPC   C2B24740  12.877  37.891   8.250
 6162POPC   C3B24741  12.894  37.957   7.950
 6162POPC   C4B24742  12.896  37.893   7.650
 6163POPC   NC324743  41.577  26.776   9.450
 6163POPC   PO424744  41.544  26.780   9.150
 6163POPC   GL124745  41.565  26.847   8.850
 6163POPC   GL224746  41.456  26.848   8.850
 6163POPC   C1A24747  41.594  26.787   8.550
 6163POPC   D2A24748  41.597  26.804   8.250
 6163POPC   C3A24749  41.570  26.775   7.950
 6163POPC   C4A24750  41.532  26.817   7.650
 6163POPC   C1B24751  41.386  26.946   8.550
 6163POPC   C2B24752  41.343  26.949   8.250
 6163POPC   C3B24753  41.303  26.949   7.950
 6163POPC   C4B24754  41.356  26.930   7.650
 6164POPC   NC324755  14.430  19.059   9.450
 6164POPC   PO424756  14.398  19.076   9.150
 6164POPC   GL124757  14.441  19.028   8.850
 6164POPC   GL224758  14.357  19.148   8.850
 6164POPC   C1A24759  14.423  19.077   8.550
 6164POPC   D2A24760  14.387  19.100   8.250
 6164POPC   C3A24761  14.382  19.098   7.950
 6164POPC   C4A24762  14.356  19.081   7.650
 6164POPC   C1B24763  14.264  19.239   8.550
 6164POPC   C2B24764  14.311  19.257   8.250
 6164POPC   C3B24765  14.252  19.247   7.950
 6164POPC   C4B24766  14.321  19.291   7.650
 6165POPC   NC324767  20.626   2.010   9.450
 6165POPC   PO424768  20.633   1.967   9.150
 6165POPC   GL124769  20.581   1.963   8.850
 6165POPC   GL224770  20.688   1.911   8.850
 6165POPC   C1A24771  20.588   1.968   8.550
 6165POPC   D2A24772  20.562   1.987   8.250
 6165POPC   C3A24773  20.653   1.943   7.950
 6165POPC   C4A24774  20.609   1.943   7.650
 6165POPC   C1B24775  20.743   1.850   8.550
 6165POPC   C2B24776  20.804   1.800   8.250
 6165POPC   C3B24777  20.755   1.795   7.950
 6165POPC   C4B24778  20.799   1.816   7.650
 6166POPC   NC324779   1.257   3.562   9.450
 6166POPC   PO424780   1.212   3.496   9.150
 6166POPC   GL124781   1.186   3.496   8.850
 6166POPC   GL224782   1.314   3.640   8.850
 6166POPC   C1A24783   1.249   3.542   8.550
 6166POPC   D2A24784   1.236   3.504   8.250
 6166POPC   C3A24785   1.251   3.563   7.950
 6166POPC   C4A24786   1.202   3.570   7.650
 6166POPC   C1B24787   1.313   3.806   8.550
 6166POPC   C2B24788   1.345   3.751   8.250
 6166POPC   C3B24789   1.319   3.751   7.950
 6166POPC   C4B24790   1.311   3.773   7.650
 6167POPC   NC324791  44.711  44.704   9.450
 6167POPC   PO424792  44.662  44.627   9.150
 6167POPC   GL124793  44.624  44.670   8.850
 6167POPC   GL224794  44.632  44.582   8.850
 6167POPC   C1A24795  44.631  44.648   8.550
 6167POPC   D2A24796  44.657  44.642   8.250
 6167POPC   C3A24797  44.612  44.664   7.950
 6167POPC   C4A24798  44.627  44.651   7.650
 6167POPC   C1B24799  44.566  44.372   8.550
 6167POPC   C2B24800  44.612  44.390   8.250
 6167POPC   C3B24801  44.600  44.441   7.950
 6167POPC   C4B24802  44.574  44.438   7.650
 6168POPC   NC324803   4.311  16.001   9.450
 6168POPC   PO424804   4.313  15.982   9.150
 6168POPC   GL124805   4.344  15.988   8.850
 6168POPC   GL224806   4.430  16.010   8.850
 6168POPC   C1A24807   4.337  15.965   8.550
 6168POPC   D2A24808   4.344  15.927   8.250
 6168POPC   C3A24809   4.360  15.971   7.950
 6168POPC   C4A24810   4.340  15.990   7.650
 6168POPC   C1B24811   4.494  16.102   8.550
 6168POPC   C2B24812   4.479  16.099   8.250
 6168POPC   C3B24813   4.520  16.127   7.950
 6168POPC   C4B24814   4.491  16.167   7.650
 6169POPC   NC324815  40.733  43.159   9.450
 6169POPC   PO424816  40.737  43.097   9.150
 6169POPC   GL124817  40.790  43.124   8.850
 6169POPC   GL224818  40.706  43.206   8.850
 6169POPC   C1A24819  40.785  43.070   8.550
 6169POPC   D2A24820  40.774  43.098   8.250
 6169POPC   C3A24821  40.791  43.066   7.950
 6169POPC   C4A24822  40.810  43.110   7.650
 6169POPC   C1B24823  40.567  43.226   8.550
 6169POPC   C2B24824  40.547  43.233   8.250
 6169POPC   C3B24825  40.607  43.249   7.950
 6169POPC   C4B24826  40.602  43.201   7.650
 6170POPC   NC324827  22.195  26.849   9.450
 6170POPC   PO424828  22.178  26.783   9.150
 6170POPC   GL124829  22.125  26.847   8.850
 6170POPC   GL224830  22.262  26.918   8.850
 6170POPC   C1A24831  22.164  26.771   8.550
 6170POPC   D2A24832  22.160  26.841   8.250
 6170POPC   C3A24833  22.140  26.817   7.950
 6170POPC   C4A24834  22.139  26.794   7.650
 6170POPC   C1B24835  22.331  27.071   8.550
 6170POPC   C2B24836  22.255  26.993   8.250
 6170POPC   C3B24837  22.269  27.051   7.950
 6170POPC   C4B24838  22.332  26.985   7.650
 6171POPC   NC324839   6.616  19.839   9.450
 6171POPC   PO424840   6.674  19.846   9.150
 6171POPC   GL124841   6.609  19.852   8.850
 6171POPC   GL224842   6.536  19.886   8.850
 6171POPC   C1A24843   6.627  19.823   8.550
 6171POPC   D2A24844   6.619  19.825   8.250
 6171POPC   C3A24845   6.634  19.817   7.950
 6171POPC   C4A24846   6.634  19.863   7.650
 6171POPC   C1B24847   6.421  19.980   8.550
 6171POPC   C2B24848   6.438  20.011   8.250
 6171POPC   C3B24849   6.484  19.950   7.950
 6171POPC   C4B24850   6.391  20.021   7.650
 6172POPC   NC324851  21.338  41.509   9.450
 6172POPC   PO424852  21.382  41.513   9.150
 6172POPC   GL124853  21.340  41.539   8.850
 6172POPC   GL224854  21.297  41.483   8.850
 6172POPC   C1A24855  21.340  41.518   8.550
 6172POPC   D2A24856  21.351  41.556   8.250
 6172POPC   C3A24857  21.391  41.601   7.950
 6172POPC   C4A24858  21.388  41.534   7.650
 6172POPC   C1B24859  21.273  41.313   8.550
 6172POPC   C2B24860  21.196  41.317   8.250
 6172POPC   C3B24861  21.220  41.379   7.950
 6172POPC   C4B24862  21.196  41.385   7.650
 6173POPC   NC324863   9.788   9.766   9.450
 6173POPC   PO424864   9.785   9.724   9.150
 6173POPC   GL124865   9.723   9.774   8.850
 6173POPC   GL224866   9.747   9.916   8.850
 6173POPC   C1A24867   9.736   9.749   8.550
 6173POPC   D2A24868   9.710   9.735   8.250
 6173POPC   C3A24869   9.736   9.706   7.950
 6173POPC   C4A24870   9.707   9.751   7.650
 6173POPC   C1B24871   9.790  10.011   8.550
 6173POPC   C2B24872   9.785   9.967   8.250
 6173POPC   C3B24873   9.807   9.966   7.950
 6173POPC   C4B24874   9.807  10.014   7.650
 6174POPC   NC324875  19.828  20.575   9.450
 6174POPC   PO424876  19.862  20.641   9.150
 6174POPC   GL124877  19.790  20.638   8.850
 6174POPC   GL224878  19.975  20.737   8.850
 6174POPC   C1A24879  19.884  20.614   8.550
 6174POPC   D2A24880  19.862  20.657   8.250
 6174POPC   C3A24881  19.787  20.626   7.950
 6174POPC   C4A24882  19.791  20.617   7.650
 6174POPC   C1B24883  19.991  20.757   8.550
 6174POPC   C2B24884  20.065  20.786   8.250
 6174POPC   C3B24885  19.989  20.786   7.950
 6174POPC   C4B24886  19.985  20.743   7.650
 6175POPC   NC324887  39.961  30.674   9.450
 6175POPC   PO424888  39.984  30.670   9.150
 6175POPC   GL124889  40.001  30.695   8.850
 6175POPC   GL224890  40.012  30.810   8.850
 6175POPC   C1A24891  40.054  30.655   8.550
 6175POPC   D2A24892  39.984  30.697   8.250
 6175POPC   C3A24893  40.027  30.666   7.950
 6175POPC   C4A24894  39.986  30.744   7.650
 6175POPC   C1B24895  40.011  30.984   8.550
 6175POPC   C2B24896  40.029  30.908   8.250
 6175POPC   C3B24897  40.029  30.928   7.950
 6175POPC   C4B24898  40.100  30.923   7.650
 6176POPC   NC324899   3.517  12.059   9.450
 6176POPC   PO424900   3.583  12.081   9.150
 6176POPC   GL124901   3.499  12.108   8.850
 6176POPC   GL224902   3.662  12.009   8.850
 6176POPC   C1A24903   3.519  12.064   8.550
 6176POPC   D2A24904   3.567  12.081   8.250
 6176POPC   C3A24905   3.571  12.117   7.950
 6176POPC   C4A24906   3.584  12.085   7.650
 6176POPC   C1B24907   3.743  11.907   8.550
 6176POPC   C2B24908   3.778  11.964   8.250
 6176POPC   C3B24909   3.749  11.969   7.950
 6176POPC   C4B24910   3.733  11.946   7.650
 6177POPC   NC324911   1.206  24.498   9.450
 6177POPC   PO424912   1.211  24.526   9.150
 6177POPC   GL124913   1.213  24.444   8.850
 6177POPC   GL224914   1.317  24.572   8.850
 6177POPC   C1A24915   1.210  24.462   8.550
 6177POPC   D2A24916   1.245  24.443   8.250
 6177POPC   C3A24917   1.219  24.538   7.950
 6177POPC   C4A24918   1.189  24.477   7.650
 6177POPC   C1B24919   1.346  24.680   8.550
 6177POPC   C2B24920   1.385  24.682   8.250
 6177POPC   C3B24921   1.353  24.719   7.950
 6177POPC   C4B24922   1.355  24.652   7.650
 6178POPC   NC324923  30.741  34.591   9.450
 6178POPC   PO424924  30.709  34.615   9.150
 6178POPC   GL124925  30.718  34.548   8.850
 6178POPC   GL224926  30.815  34.652   8.850
 6178POPC   C1A24927  30.696  34.538   8.550
 6178POPC   D2A24928  30.658  34.587   8.250
 6178POPC   C3A24929  30.725  34.549   7.950
 6178POPC   C4A24930  30.651  34.595   7.650
 6178POPC   C1B24931  30.920  34.765   8.550
 6178POPC   C2B24932  30.875  34.771   8.250
 6178POPC   C3B24933  30.944  34.687   7.950
 6178POPC   C4B24934  30.860  34.705   7.650
 6179POPC   NC324935  15.913  42.341   9.450
 6179POPC   PO424936  15.997  42.365   9.150
 6179POPC   GL124937  15.982  42.331   8.850
 6179POPC   GL224938  16.060  42.364   8.850
 6179POPC   C1A24939  15.997  42.355   8.550
 6179POPC   D2A24940  15.999  42.295   8.250
 6179POPC   C3A24941  15.952  42.370   7.950
 6179POPC   C4A24942  15.958  42.288   7.650
 6179POPC   C1B24943  16.190  42.280   8.550
 6179POPC   C2B24944  16.183  42.327   8.250
 6179POPC   C3B24945  16.206  42.335   7.950
 6179POPC   C4B24946  16.156  42.357   7.650
 6180POPC   NC324947   5.078   2.752   9.450
 6180POPC   PO424948   5.128   2.814   9.150
 6180POPC   GL124949   5.070   2.778   8.850
 6180POPC   GL224950   5.113   2.892   8.850
 6180POPC   C1A24951   5.074   2.752   8.550
 6180POPC   D2A24952   5.107   2.717   8.250
 6180POPC   C3A24953   5.139   2.769   7.950
 6180POPC   C4A24954   5.140   2.745   7.650
 6180POPC   C1B24955   5.194   2.998   8.550
 6180POPC   C2B24956   5.194   3.000   8.250
 6180POPC   C3B24957   5.166   3.021   7.950
 6180POPC   C4B24958   5.180   2.954   7.650
 6181POPC   NC324959  43.924   8.196   9.450
 6181POPC   PO424960  43.888   8.231   9.150
 6181POPC   GL124961  43.874   8.166   8.850
 6181POPC   GL224962  43.986   8.172   8.850
 6181POPC   C1A24963  43.901   8.238   8.550
 6181POPC   D2A24964  43.855   8.187   8.250
 6181POPC   C3A24965  43.849   8.148   7.950
 6181POPC   C4A24966  43.905   8.225   7.650
 6181POPC   C1B24967  44.111   8.251   8.550
 6181POPC   C2B24968  44.086   8.221   8.250
 6181POPC   C3B24969  44.137   8.247   7.950
 6181POPC   C4B24970  44.092   8.177   7.650
 6182POPC   NC324971   1.260  40.766   9.450
 6182POPC   PO424972   1.248  40.746   9.150
 6182POPC   GL124973   1.236  40.813   8.850
 6182POPC   GL224974   1.118  40.896   8.850
 6182POPC   C1A24975   1.204  40.816   8.550
 6182POPC   D2A24976   1.253  40.761   8.250
 6182POPC   C3A24977   1.190  40.756   7.950
 6182POPC   C4A24978   1.254  40.753   7.650
 6182POPC   C1B24979   1.034  40.927   8.550
 6182POPC   C2B24980   1.004  40.936   8.250
 6182POPC   C3B24981   0.985  40.903   7.950
 6182POPC   C4B24982   1.025  40.922   7.650
 6183POPC   NC324983  10.484  19.825   9.450
 6183POPC   PO424984  10.477  19.858   9.150
 6183POPC   GL124985  10.527  19.825   8.850
 6183POPC   GL224986  10.408  19.744   8.850
 6183POPC   C1A24987  10.512  19.826   8.550
 6183POPC   D2A24988  10.493  19.804   8.250
 6183POPC   C3A24989  10.519  19.817   7.950
 6183POPC   C4A24990  10.514  19.802   7.650
 6183POPC   C1B24991  10.344  19.626   8.550
 6183POPC   C2B24992  10.347  19.655   8.250
 6183POPC   C3B24993  10.350  19.634   7.950
 6183POPC   C4B24994  10.311  19.657   7.650
 6184POPC   NC324995  21.361  21.357   9.450
 6184POPC   PO424996  21.395  21.366   9.150
 6184POPC   GL124997  21.431  21.429   8.850
 6184POPC   GL224998  21.474  21.230   8.850
 6184POPC   C1A24999  21.426  21.353   8.550
 6184POPC   D2A25000  21.365  21.400   8.250
 6184POPC   C3A25001  21.433  21.429   7.950
 6184POPC   C4A25002  21.352  21.433   7.650
 6184POPC   C1B25003  21.522  21.146   8.550
 6184POPC   C2B25004  21.467  21.210   8.250
 6184POPC   C3B25005  21.534  21.213   7.950
 6184POPC   C4B25006  21.511  21.155   7.650
 6185POPC   NC325007  25.993  29.917   9.450
 6185POPC   PO425008  26.002  29.942   9.150
 6185POPC   GL125009  26.071  29.905   8.850
 6185POPC   GL225010  26.196  29.942   8.850
 6185POPC   C1A25011  26.058  29.928   8.550
 6185POPC   D2A25012  26.047  29.915   8.250
 6185POPC   C3A25013  26.085  29.894   7.950
 6185POPC   C4A25014  26.076  29.937   7.650
 6185POPC   C1B25015  26.297  29.928   8.550
 6185POPC   C2B25016  26.253  29.888   8.250
 6185POPC   C3B25017  26.336  29.878   7.950
 6185POPC   C4B25018  26.246  29.882   7.650
 6186POPC   NC325019  40.013  41.584   9.450
 6186POPC   PO425020  39.981  41.563   9.150
 6186POPC   GL125021  40.025  41.605   8.850
 6186POPC   GL225022  40.029  41.692   8.850
 6186POPC   C1A25023  40.044  41.592   8.550
 6186POPC   D2A25024  40.036  41.557   8.250
 6186POPC   C3A25025  39.976  41.523   7.950
 6186POPC   C4A25026  39.985  41.565   7.650
 6186POPC   C1B25027  40.068  41.831   8.550
 6186POPC   C2B25028  40.068  41.819   8.250
 6186POPC   C3B25029  40.129  41.829   7.950
 6186POPC   C4B25030  40.072  41.788   7.650
 6187POPC   NC325031  37.668  15.994   9.450
 6187POPC   PO425032  37.649  15.915   9.150
 6187POPC   GL125033  37.632  15.996   8.850
 6187POPC   GL225034  37.561  15.883   8.850
 6187POPC   C1A25035  37.668  15.938   8.550
 6187POPC   D2A25036  37.716  15.918   8.250
 6187POPC   C3A25037  37.632  15.967   7.950
 6187POPC   C4A25038  37.661  15.963   7.650
 6187POPC   C1B25039  37.417  15.871   8.550
 6187POPC   C2B25040  37.433  15.876   8.250
 6187POPC   C3B25041  37.452  15.849   7.950
 6187POPC   C4B25042  37.476  15.863   7.650
 6188POPC   NC325043   5.142   3.527   9.450
 6188POPC   PO425044   5.087   3.516   9.150
 6188POPC   GL125045   5.095   3.542   8.850
 6188POPC   GL225046   5.192   3.505   8.850
 6188POPC   C1A25047   5.064   3.502   8.550
 6188POPC   D2A25048   5.070   3.542   8.250
 6188POPC   C3A25049   5.092   3.589   7.950
 6188POPC   C4A25050   5.067   3.570   7.650
 6188POPC   C1B25051   5.333   3.445   8.550
 6188POPC   C2B25052   5.373   3.489   8.250
 6188POPC   C3B25053   5.276   3.439   7.950
 6188POPC   C4B25054   5.331   3.481   7.650
 6189POPC   NC325055  23.687  39.998   9.450
 6189POPC   PO425056  23.741  39.980   9.150
 6189POPC   GL125057  23.702  39.989   8.850
 6189POPC   GL225058  23.647  40.090   8.850
 6189POPC   C1A25059  23.724  40.046   8.550
 6189POPC   D2A25060  23.745  39.965   8.250
 6189POPC   C3A25061  23.741  40.038   7.950
 6189POPC   C4A25062  23.712  40.049   7.650
 6189POPC   C1B25063  23.563  40.231   8.550
 6189POPC   C2B25064  23.496  40.171   8.250
 6189POPC   C3B25065  23.588  40.173   7.950
 6189POPC   C4B25066  23.512  40.199   7.650
 6190POPC   NC325067  10.570  35.322   9.450
 6190POPC   PO425068  10.510  35.358   9.150
 6190POPC   GL125069  10.529  35.340   8.850
 6190POPC   GL225070  10.594  35.506   8.850
 6190POPC   C1A25071  10.569  35.304   8.550
 6190POPC   D2A25072  10.556  35.342   8.250
 6190POPC   C3A25073  10.528  35.348   7.950
 6190POPC   C4A25074  10.477  35.332   7.650
 6190POPC   C1B25075  10.564  35.618   8.550
 6190POPC   C2B25076  10.558  35.562   8.250
 6190POPC   C3B25077  10.577  35.589   7.950
 6190POPC   C4B25078  10.548  35.594   7.650
 6191POPC   NC325079  15.196  23.763   9.450
 6191POPC   PO425080  15.168  23.761   9.150
 6191POPC   GL125081  15.146  23.706   8.850
 6191POPC   GL225082  15.337  23.720   8.850
 6191POPC   C1A25083  15.158  23.667   8.550
 6191POPC   D2A25084  15.193  23.738   8.250
 6191POPC   C3A25085  15.186  23.668   7.950
 6191POPC   C4A25086  15.206  23.690   7.650
 6191POPC   C1B25087  15.386  23.748   8.550
 6191POPC   C2B25088  15.401  23.748   8.250
 6191POPC   C3B25089  15.413  23.805   7.950
 6191POPC   C4B25090  15.441  23.758   7.650
 6192POPC   NC325091  26.840   4.267   9.450
 6192POPC   PO425092  26.786   4.316   9.150
 6192POPC   GL125093  26.778   4.289   8.850
 6192POPC   GL225094  26.950   4.318   8.850
 6192POPC   C1A25095  26.821   4.302   8.550
 6192POPC   D2A25096  26.773   4.331   8.250
 6192POPC   C3A25097  26.793   4.367   7.950
 6192POPC   C4A25098  26.854   4.323   7.650
 6192POPC   C1B25099  27.060   4.388   8.550
 6192POPC   C2B25100  27.099   4.322   8.250
 6192POPC   C3B25101  27.109   4.345   7.950
 6192POPC   C4B25102  27.022   4.404   7.650
 6193POPC   NC325103   5.870  19.016   9.450
 6193POPC   PO425104   5.869  19.015   9.150
 6193POPC   GL125105   5.853  19.040   8.850
 6193POPC   GL225106   5.714  19.072   8.850
 6193POPC   C1A25107   5.910  19.046   8.550
 6193POPC   D2A25108   5.853  19.086   8.250
 6193POPC   C3A25109   5.837  19.016   7.950
 6193POPC   C4A25110   5.883  19.029   7.650
 6193POPC   C1B25111   5.669  19.155   8.550
 6193POPC   C2B25112   5.582  19.099   8.250
 6193POPC   C3B25113   5.613  19.137   7.950
 6193POPC   C4B25114   5.675  19.097   7.650
 6194POPC   NC325115  29.969   1.955   9.450
 6194POPC   PO425116  29.930   2.033   9.150
 6194POPC   GL125117  29.919   1.961   8.850
 6194POPC   GL225118  30.043   2.050   8.850
 6194POPC   C1A25119  29.932   1.971   8.550
 6194POPC   D2A25120  29.921   1.972   8.250
 6194POPC   C3A25121  29.883   2.020   7.950
 6194POPC   C4A25122  29.921   1.991   7.650
 6194POPC   C1B25123  30.178   2.031   8.550
 6194POPC   C2B25124  30.128   2.021   8.250
 6194POPC   C3B25125  30.125   2.077   7.950
 6194POPC   C4B25126  30.199   2.031   7.650
 6195POPC   NC325127  44.703  30.653   9.450
 6195POPC   PO425128  44.681  30.724   9.150
 6195POPC   GL125129  44.644  30.732   8.850
 6195POPC   GL225130  44.599  30.608   8.850
 6195POPC   C1A25131  44.687  30.649   8.550
 6195POPC   D2A25132  44.684  30.707   8.250
 6195POPC   C3A25133  44.708  30.731   7.950
 6195POPC   C4A25134  44.693  30.677   7.650
 6195POPC   C1B25135  44.462  30.519   8.550
 6195POPC   C2B25136  44.496  30.486   8.250
 6195POPC   C3B25137  44.516  30.570   7.950
 6195POPC   C4B25138  44.503  30.569   7.650
 6196POPC   NC325139   4.363  40.816   9.450
 6196POPC   PO425140   4.351  40.754   9.150
 6196POPC   GL125141   4.309  40.765   8.850
 6196POPC   GL225142   4.391  40.880   8.850
 6196POPC   C1A25143   4.295  40.831   8.550
 6196POPC   D2A25144   4.333  40.793   8.250
 6196POPC   C3A25145   4.309  40.781   7.950
 6196POPC   C4A25146   4.300  40.761   7.650
 6196POPC   C1B25147   4.525  40.981   8.550
 6196POPC   C2B25148   4.467  40.906   8.250
 6196POPC   C3B25149   4.478  40.938   7.950
 6196POPC   C4B25150   4.527  40.931   7.650
 6197POPC   NC325151  29.174  22.210   9.450
 6197POPC   PO425152  29.102  22.178   9.150
 6197POPC   GL125153  29.144  22.137   8.850
 6197POPC   GL225154  28.981  22.134   8.850
 6197POPC   C1A25155  29.102  22.151   8.550
 6197POPC   D2A25156  29.106  22.113   8.250
 6197POPC   C3A25157  29.170  22.207   7.950
 6197POPC   C4A25158  29.182  22.177   7.650
 6197POPC   C1B25159  28.948  22.089   8.550
 6197POPC   C2B25160  28.944  22.120   8.250
 6197POPC   C3B25161  28.898  22.027   7.950
 6197POPC   C4B25162  28.884  22.078   7.650
 6198POPC   NC325163  12.855  40.769   9.450
 6198POPC   PO425164  12.864  40.747   9.150
 6198POPC   GL125165  12.899  40.749   8.850
 6198POPC   GL225166  12.717  40.814   8.850
 6198POPC   C1A25167  12.869  40.783   8.550
 6198POPC   D2A25168  12.842  40.768   8.250
 6198POPC   C3A25169  12.806  40.800   7.950
 6198POPC   C4A25170  12.898  40.828   7.650
 6198POPC   C1B25171  12.661  40.861   8.550
 6198POPC   C2B25172  12.614  40.943   8.250
 6198POPC   C3B25173  12.613  40.910   7.950
 6198POPC   C4B25174  12.682  40.854   7.650
 6199POPC   NC325175  43.916   5.052   9.450
 6199POPC   PO425176  43.846   5.140   9.150
 6199POPC   GL125177  43.887   5.132   8.850
 6199POPC   GL225178  44.019   5.037   8.850
 6199POPC   C1A25179  43.887   5.076   8.550
 6199POPC   D2A25180  43.849   5.131   8.250
 6199POPC   C3A25181  43.846   5.082   7.950
 6199POPC   C4A25182  43.855   5.111   7.650
 6199POPC   C1B25183  44.082   5.071   8.550
 6199POPC   C2B25184  44.109   5.068   8.250
 6199POPC   C3B25185  44.116   5.094   7.950
 6199POPC   C4B25186  44.158   5.003   7.650
 6200POPC   NC325187   8.991   7.409   9.450
 6200POPC   PO425188   9.000   7.462   9.150
 6200POPC   GL125189   8.992   7.468   8.850
 6200POPC   GL225190   8.920   7.329   8.850
 6200POPC   C1A25191   8.982   7.456   8.550
 6200POPC   D2A25192   8.968   7.405   8.250
 6200POPC   C3A25193   9.017   7.378   7.950
 6200POPC   C4A25194   8.959   7.375   7.650
 6200POPC   C1B25195   8.774   7.275   8.550
 6200POPC   C2B25196   8.759   7.205   8.250
 6200POPC   C3B25197   8.752   7.274   7.950
 6200POPC   C4B25198   8.769   7.289   7.650
 6201POPC   NC325199   2.792  12.896   9.450
 6201POPC   PO425200   2.785  12.818   9.150
 6201POPC   GL125201   2.784  12.811   8.850
 6201POPC   GL225202   2.661  12.908   8.850
 6201POPC   C1A25203   2.758  12.865   8.550
 6201POPC   D2A25204   2.799  12.812   8.250
 6201POPC   C3A25205   2.719  12.885   7.950
 6201POPC   C4A25206   2.814  12.821   7.650
 6201POPC   C1B25207   2.498  12.961   8.550
 6201POPC   C2B25208   2.501  12.876   8.250
 6201POPC   C3B25209   2.476  12.878   7.950
 6201POPC   C4B25210   2.554  12.887   7.650
 6202POPC   NC325211  30.666  21.386   9.450
 6202POPC   PO425212  30.709  21.352   9.150
 6202POPC   GL125213  30.663  21.391   8.850
 6202POPC   GL225214  30.548  21.406   8.850
 6202POPC   C1A25215  30.671  21.423   8.550
 6202POPC   D2A25216  30.666  21.350   8.250
 6202POPC   C3A25217  30.653  21.349   7.950
 6202POPC   C4A25218  30.700  21.380   7.650
 6202POPC   C1B25219  30.398  21.353   8.550
 6202POPC   C2B25220  30.470  21.325   8.250
 6202POPC   C3B25221  30.404  21.419   7.950
 6202POPC   C4B25222  30.488  21.395   7.650
 6203POPC   NC325223  43.878  36.857   9.450
 6203POPC   PO425224  43.879  36.859   9.150
 6203POPC   GL125225  43.844  36.901   8.850
 6203POPC   GL225226  43.935  36.965   8.850
 6203POPC   C1A25227  43.899  36.901   8.550
 6203POPC   D2A25228  43.869  36.937   8.250
 6203POPC   C3A25229  43.879  36.920   7.950
 6203POPC   C4A25230  43.906  36.941   7.650
 6203POPC   C1B25231  44.076  37.082   8.550
 6203POPC   C2B25232  44.115  37.119   8.250
 6203POPC   C3B25233  44.118  37.045   7.950
 6203POPC   C4B25234  44.088  37.081   7.650
 6204POPC   NC325235  26.806  36.103   9.450
 6204POPC   PO425236  26.828  36.108   9.150
 6204POPC   GL125237  26.850  36.080   8.850
 6204POPC   GL225238  26.732  36.237   8.850
 6204POPC   C1A25239  26.793  36.093   8.550
 6204POPC   D2A25240  26.845  36.170   8.250
 6204POPC   C3A25241  26.835  36.106   7.950
 6204POPC   C4A25242  26.812  36.156   7.650
 6204POPC   C1B25243  26.594  36.258   8.550
 6204POPC   C2B25244  26.662  36.269   8.250
 6204POPC   C3B25245  26.600  36.311   7.950
 6204POPC   C4B25246  26.635  36.289   7.650
 6205POPC   NC325247  24.521  19.880   9.450
 6205POPC   PO425248  24.443  19.873   9.150
 6205POPC   GL125249  24.476  19.806   8.850
 6205POPC   GL225250  24.585  19.758   8.850
 6205POPC   C1A25251  24.478  19.877   8.550
 6205POPC   D2A25252  24.524  19.880   8.250
 6205POPC   C3A25253  24.460  19.833   7.950
 6205POPC   C4A25254  24.520  19.880   7.650
 6205POPC   C1B25255  24.680  19.611   8.550
 6205POPC   C2B25256  24.674  19.598   8.250
 6205POPC   C3B25257  24.626  19.593   7.950
 6205POPC   C4B25258  24.625  19.632   7.650
 6206POPC   NC325259  19.881  34.625   9.450
 6206POPC   PO425260  19.880  34.557   9.150
 6206POPC   GL125261  19.814  34.624   8.850
 6206POPC   GL225262  19.962  34.594   8.850
 6206POPC   C1A25263  19.855  34.576   8.550
 6206POPC   D2A25264  19.849  34.593   8.250
 6206POPC   C3A25265  19.791  34.626   7.950
 6206POPC   C4A25266  19.869  34.528   7.650
 6206POPC   C1B25267  20.085  34.619   8.550
 6206POPC   C2B25268  20.125  34.677   8.250
 6206POPC   C3B25269  20.032  34.579   7.950
 6206POPC   C4B25270  20.078  34.610   7.650
 6207POPC   NC325271   9.733   8.997   9.450
 6207POPC   PO425272   9.792   8.960   9.150
 6207POPC   GL125273   9.792   8.988   8.850
 6207POPC   GL225274   9.652   8.924   8.850
 6207POPC   C1A25275   9.752   8.998   8.550
 6207POPC   D2A25276   9.716   8.984   8.250
 6207POPC   C3A25277   9.714   8.961   7.950
 6207POPC   C4A25278   9.777   9.017   7.650
 6207POPC   C1B25279   9.596   8.790   8.550
 6207POPC   C2B25280   9.610   8.742   8.250
 6207POPC   C3B25281   9.531   8.752   7.950
 6207POPC   C4B25282   9.602   8.745   7.650
 6208POPC   NC325283  38.408  33.769   9.450
 6208POPC   PO425284  38.452  33.792   9.150
 6208POPC   GL125285  38.452  33.817   8.850
 6208POPC   GL225286  38.370  33.646   8.850
 6208POPC   C1A25287  38.498  33.818   8.550
 6208POPC   D2A25288  38.447  33.774   8.250
 6208POPC   C3A25289  38.470  33.828   7.950
 6208POPC   C4A25290  38.473  33.803   7.650
 6208POPC   C1B25291  38.362  33.575   8.550
 6208POPC   C2B25292  38.302  33.622   8.250
 6208POPC   C3B25293  38.364  33.557   7.950
 6208POPC   C4B25294  38.359  33.585   7.650
 6209POPC   NC325295  33.014   8.188   9.450
 6209POPC   PO425296  33.021   8.244   9.150
 6209POPC   GL125297  32.980   8.189   8.850
 6209POPC   GL225298  32.987   8.334   8.850
 6209POPC   C1A25299  33.006   8.176   8.550
 6209POPC   D2A25300  33.054   8.157   8.250
 6209POPC   C3A25301  32.975   8.176   7.950
 6209POPC   C4A25302  33.003   8.180   7.650
 6209POPC   C1B25303  32.886   8.396   8.550
 6209POPC   C2B25304  32.927   8.374   8.250
 6209POPC   C3B25305  32.890   8.387   7.950
 6209POPC   C4B25306  32.890   8.371   7.650
 6210POPC   NC325307  19.872  15.149   9.450
 6210POPC   PO425308  19.863  15.223   9.150
 6210POPC   GL125309  19.853  15.160   8.850
 6210POPC   GL225310  19.681  15.186   8.850
 6210POPC   C1A25311  19.843  15.146   8.550
 6210POPC   D2A25312  19.785  15.198   8.250
 6210POPC   C3A25313  19.864  15.146   7.950
 6210POPC   C4A25314  19.797  15.176   7.650
 6210POPC   C1B25315  19.560  15.168   8.550
 6210POPC   C2B25316  19.612  15.100   8.250
 6210POPC   C3B25317  19.570  15.137   7.950
 6210POPC   C4B25318  19.603  15.100   7.650
 6211POPC   NC325319   7.418  24.490   9.450
 6211POPC   PO425320   7.447  24.498   9.150
 6211POPC   GL125321   7.465  24.528   8.850
 6211POPC   GL225322   7.538  24.429   8.850
 6211POPC   C1A25323   7.459  24.538   8.550
 6211POPC   D2A25324   7.417  24.534   8.250
 6211POPC   C3A25325   7.401  24.444   7.950
 6211POPC   C4A25326   7.438  24.449   7.650
 6211POPC   C1B25327   7.583  24.358   8.550
 6211POPC   C2B25328   7.596  24.295   8.250
 6211POPC   C3B25329   7.626  24.301   7.950
 6211POPC   C4B25330   7.635  24.353   7.650
 6212POPC   NC325331  39.258  29.886   9.450
 6212POPC   PO425332  39.265  29.894   9.150
 6212POPC   GL125333  39.249  29.909   8.850
 6212POPC   GL225334  39.348  30.007   8.850
 6212POPC   C1A25335  39.273  29.961   8.550
 6212POPC   D2A25336  39.275  29.917   8.250
 6212POPC   C3A25337  39.223  29.921   7.950
 6212POPC   C4A25338  39.258  29.947   7.650
 6212POPC   C1B25339  39.411  30.085   8.550
 6212POPC   C2B25340  39.380  30.092   8.250
 6212POPC   C3B25341  39.350  30.110   7.950
 6212POPC   C4B25342  39.367  30.125   7.650
 6213POPC   NC325343  22.184  37.647   9.450
 6213POPC   PO425344  22.148  37.665   9.150
 6213POPC   GL125345  22.189  37.675   8.850
 6213POPC   GL225346  22.273  37.714   8.850
 6213POPC   C1A25347  22.169  37.656   8.550
 6213POPC   D2A25348  22.124  37.699   8.250
 6213POPC   C3A25349  22.193  37.691   7.950
 6213POPC   C4A25350  22.128  37.696   7.650
 6213POPC   C1B25351  22.371  37.679   8.550
 6213POPC   C2B25352  22.436  37.642   8.250
 6213POPC   C3B25353  22.460  37.670   7.950
 6213POPC   C4B25354  22.426  37.683   7.650
 6214POPC   NC325355   9.732   7.401   9.450
 6214POPC   PO425356   9.715   7.389   9.150
 6214POPC   GL125357   9.795   7.392   8.850
 6214POPC   GL225358   9.807   7.301   8.850
 6214POPC   C1A25359   9.717   7.445   8.550
 6214POPC   D2A25360   9.731   7.460   8.250
 6214POPC   C3A25361   9.763   7.467   7.950
 6214POPC   C4A25362   9.755   7.423   7.650
 6214POPC   C1B25363   9.834   7.211   8.550
 6214POPC   C2B25364   9.843   7.167   8.250
 6214POPC   C3B25365   9.868   7.218   7.950
 6214POPC   C4B25366   9.851   7.196   7.650
 6215POPC   NC325367  28.322  28.342   9.450
 6215POPC   PO425368  28.358  28.418   9.150
 6215POPC   GL125369  28.349  28.341   8.850
 6215POPC   GL225370  28.383  28.506   8.850
 6215POPC   C1A25371  28.371  28.379   8.550
 6215POPC   D2A25372  28.390  28.367   8.250
 6215POPC   C3A25373  28.320  28.382   7.950
 6215POPC   C4A25374  28.372  28.351   7.650
 6215POPC   C1B25375  28.512  28.605   8.550
 6215POPC   C2B25376  28.477  28.597   8.250
 6215POPC   C3B25377  28.528  28.613   7.950
 6215POPC   C4B25378  28.473  28.564   7.650
 6216POPC   NC325379  12.036  14.429   9.450
 6216POPC   PO425380  12.058  14.443   9.150
 6216POPC   GL125381  12.030  14.383   8.850
 6216POPC   GL225382  12.223  14.375   8.850
 6216POPC   C1A25383  12.096  14.439   8.550
 6216POPC   D2A25384  12.062  14.364   8.250
 6216POPC   C3A25385  12.060  14.396   7.950
 6216POPC   C4A25386  12.026  14.406   7.650
 6216POPC   C1B25387  12.302  14.225   8.550
 6216POPC   C2B25388  12.252  14.280   8.250
 6216POPC   C3B25389  12.274  14.214   7.950
 6216POPC   C4B25390  12.297  14.288   7.650
 6217POPC   NC325391  26.006  40.780   9.450
 6217POPC   PO425392  25.993  40.757   9.150
 6217POPC   GL125393  26.070  40.772   8.850
 6217POPC   GL225394  26.168  40.702   8.850
 6217POPC   C1A25395  26.024  40.786   8.550
 6217POPC   D2A25396  26.087  40.804   8.250
 6217POPC   C3A25397  26.050  40.818   7.950
 6217POPC   C4A25398  26.001  40.740   7.650
 6217POPC   C1B25399  26.243  40.582   8.550
 6217POPC   C2B25400  26.229  40.653   8.250
 6217POPC   C3B25401  26.232  40.658   7.950
 6217POPC   C4B25402  26.190  40.632   7.650
 6218POPC   NC325403  38.459  35.390   9.450
 6218POPC   PO425404  38.441  35.363   9.150
 6218POPC   GL125405  38.416  35.360   8.850
 6218POPC   GL225406  38.323  35.300   8.850
 6218POPC   C1A25407  38.429  35.369   8.550
 6218POPC   D2A25408  38.438  35.351   8.250
 6218POPC   C3A25409  38.459  35.370   7.950
 6218POPC   C4A25410  38.420  35.367   7.650
 6218POPC   C1B25411  38.258  35.331   8.550
 6218POPC   C2B25412  38.196  35.306   8.250
 6218POPC   C3B25413  38.197  35.303   7.950
 6218POPC   C4B25414  38.168  35.327   7.650
 6219POPC   NC325415  23.735  42.377   9.450
 6219POPC   PO425416  23.679  42.364   9.150
 6219POPC   GL125417  23.688  42.318   8.850
 6219POPC   GL225418  23.803  42.400   8.850
 6219POPC   C1A25419  23.686  42.341   8.550
 6219POPC   D2A25420  23.673  42.359   8.250
 6219POPC   C3A25421  23.742  42.299   7.950
 6219POPC   C4A25422  23.713  42.305   7.650
 6219POPC   C1B25423  23.971  42.481   8.550
 6219POPC   C2B25424  23.916  42.499   8.250
 6219POPC   C3B25425  23.882  42.503   7.950
 6219POPC   C4B25426  23.919  42.440   7.650
 6220POPC   NC325427   5.142   1.243   9.450
 6220POPC   PO425428   5.139   1.250   9.150
 6220POPC   GL125429   5.138   1.219   8.850
 6220POPC   GL225430   4.932   1.170   8.850
 6220POPC   C1A25431   5.109   1.180   8.550
 6220POPC   D2A25432   5.127   1.230   8.250
 6220POPC   C3A25433   5.071   1.220   7.950
 6220POPC   C4A25434   5.073   1.263   7.650
 6220POPC   C1B25435   4.863   1.232   8.550
 6220POPC   C2B25436   4.816   1.212   8.250
 6220POPC   C3B25437   4.892   1.202   7.950
 6220POPC   C4B25438   4.868   1.193   7.650
 6221POPC   NC325439  12.060   9.726   9.450
 6221POPC   PO425440  12.053   9.754   9.150
 6221POPC   GL125441  12.070   9.742   8.850
 6221POPC   GL225442  11.954   9.772   8.850
 6221POPC   C1A25443  12.113   9.733   8.550
 6221POPC   D2A25444  12.045   9.746   8.250
 6221POPC   C3A25445  12.057   9.790   7.950
 6221POPC   C4A25446  12.093   9.787   7.650
 6221POPC   C1B25447  11.813   9.832   8.550
 6221POPC   C2B25448  11.874   9.797   8.250
 6221POPC   C3B25449  11.839   9.847   7.950
 6221POPC   C4B25450  11.836   9.818   7.650
 6222POPC   NC325451  30.661  25.245   9.450
 6222POPC   PO425452  30.684  25.269   9.150
 6222POPC   GL125453  30.666  25.250   8.850
 6222POPC   GL225454  30.589  25.327   8.850
 6222POPC   C1A25455  30.694  25.267   8.550
 6222POPC   D2A25456  30.728  25.284   8.250
 6222POPC   C3A25457  30.687  25.292   7.950
 6222POPC   C4A25458  30.700  25.313   7.650
 6222POPC   C1B25459  30.470  25.427   8.550
 6222POPC   C2B25460  30.525  25.438   8.250
 6222POPC   C3B25461  30.530  25.410   7.950
 6222POPC   C4B25462  30.469  25.451   7.650
 6223POPC   NC325463  36.879  38.496   9.450
 6223POPC   PO425464  36.935  38.483   9.150
 6223POPC   GL125465  36.882  38.439   8.850
 6223POPC   GL225466  36.853  38.585   8.850
 6223POPC   C1A25467  36.926  38.483   8.550
 6223POPC   D2A25468  36.925  38.434   8.250
 6223POPC   C3A25469  36.923  38.438   7.950
 6223POPC   C4A25470  36.886  38.461   7.650
 6223POPC   C1B25471  36.763  38.630   8.550
 6223POPC   C2B25472  36.763  38.616   8.250
 6223POPC   C3B25473  36.762  38.698   7.950
 6223POPC   C4B25474  36.712  38.681   7.650
 6224POPC   NC325475  37.646   6.613   9.450
 6224POPC   PO425476  37.694   6.615   9.150
 6224POPC   GL125477  37.705   6.690   8.850
 6224POPC   GL225478  37.758   6.635   8.850
 6224POPC   C1A25479  37.722   6.669   8.550
 6224POPC   D2A25480  37.720   6.600   8.250
 6224POPC   C3A25481  37.663   6.677   7.950
 6224POPC   C4A25482  37.713   6.622   7.650
 6224POPC   C1B25483  37.871   6.521   8.550
 6224POPC   C2B25484  37.927   6.515   8.250
 6224POPC   C3B25485  37.917   6.554   7.950
 6224POPC   C4B25486  37.944   6.564   7.650
 6225POPC   NC325487   1.240  18.316   9.450
 6225POPC   PO425488   1.250  18.320   9.150
 6225POPC   GL125489   1.250  18.292   8.850
 6225POPC   GL225490   1.049  18.244   8.850
 6225POPC   C1A25491   1.221  18.328   8.550
 6225POPC   D2A25492   1.170  18.283   8.250
 6225POPC   C3A25493   1.188  18.286   7.950
 6225POPC   C4A25494   1.254  18.262   7.650
 6225POPC   C1B25495   0.957  18.223   8.550
 6225POPC   C2B25496   0.935  18.292   8.250
 6225POPC   C3B25497   0.947  18.292   7.950
 6225POPC   C4B25498   1.005  18.289   7.650
 6226POPC   NC325499  27.575   8.997   9.450
 6226POPC   PO425500  27.595   9.008   9.150
 6226POPC   GL125501  27.573   8.942   8.850
 6226POPC   GL225502  27.680   9.082   8.850
 6226POPC   C1A25503  27.591   9.020   8.550
 6226POPC   D2A25504  27.603   8.940   8.250
 6226POPC   C3A25505  27.629   8.935   7.950
 6226POPC   C4A25506  27.561   8.934   7.650
 6226POPC   C1B25507  27.688   9.227   8.550
 6226POPC   C2B25508  27.749   9.131   8.250
 6226POPC   C3B25509  27.697   9.152   7.950
 6226POPC   C4B25510  27.727   9.141   7.650
 6227POPC   NC325511  36.105  11.277   9.450
 6227POPC   PO425512  36.112  11.301   9.150
 6227POPC   GL125513  36.159  11.251   8.850
 6227POPC   GL225514  36.111  11.421   8.850
 6227POPC   C1A25515  36.169  11.298   8.550
 6227POPC   D2A25516  36.118  11.322   8.250
 6227POPC   C3A25517  36.162  11.278   7.950
 6227POPC   C4A25518  36.122  11.313   7.650
 6227POPC   C1B25519  36.101  11.557   8.550
 6227POPC   C2B25520  36.149  11.597   8.250
 6227POPC   C3B25521  36.132  11.521   7.950
 6227POPC   C4B25522  36.099  11.532   7.650
 6228POPC   NC325523  25.307   7.438   9.450
 6228POPC   PO425524  25.282   7.396   9.150
 6228POPC   GL125525  25.291   7.395   8.850
 6228POPC   GL225526  25.356   7.441   8.850
 6228POPC   C1A25527  25.314   7.458   8.550
 6228POPC   D2A25528  25.226   7.395   8.250
 6228POPC   C3A25529  25.303   7.373   7.950
 6228POPC   C4A25530  25.268   7.469   7.650
 6228POPC   C1B25531  25.523   7.514   8.550
 6228POPC   C2B25532  25.462   7.484   8.250
 6228POPC   C3B25533  25.490   7.482   7.950
 6228POPC   C4B25534  25.547   7.545   7.650
 6229POPC   NC325535   6.625  36.950   9.450
 6229POPC   PO425536   6.694  36.855   9.150
 6229POPC   GL125537   6.595  36.947   8.850
 6229POPC   GL225538   6.736  36.845   8.850
 6229POPC   C1A25539   6.679  36.925   8.550
 6229POPC   D2A25540   6.675  36.914   8.250
 6229POPC   C3A25541   6.619  36.872   7.950
 6229POPC   C4A25542   6.694  36.891   7.650
 6229POPC   C1B25543   6.848  36.734   8.550
 6229POPC   C2B25544   6.903  36.759   8.250
 6229POPC   C3B25545   6.841  36.757   7.950
 6229POPC   C4B25546   6.894  36.755   7.650
 6230POPC   NC325547  43.085   2.778   9.450
 6230POPC   PO425548  43.110   2.791   9.150
 6230POPC   GL125549  43.136   2.795   8.850
 6230POPC   GL225550  43.162   2.838   8.850
 6230POPC   C1A25551  43.155   2.740   8.550
 6230POPC   D2A25552  43.155   2.765   8.250
 6230POPC   C3A25553  43.074   2.774   7.950
 6230POPC   C4A25554  43.082   2.716   7.650
 6230POPC   C1B25555  43.154   2.975   8.550
 6230POPC   C2B25556  43.141   3.045   8.250
 6230POPC   C3B25557  43.211   3.016   7.950
 6230POPC   C4B25558  43.156   2.965   7.650
 6231POPC   NC325559   3.543   0.463   9.450
 6231POPC   PO425560   3.525   0.443   9.150
 6231POPC   GL125561   3.580   0.422   8.850
 6231POPC   GL225562   3.428   0.583   8.850
 6231POPC   C1A25563   3.589   0.458   8.550
 6231POPC   D2A25564   3.495   0.428   8.250
 6231POPC   C3A25565   3.526   0.413   7.950
 6231POPC   C4A25566   3.567   0.421   7.650
 6231POPC   C1B25567   3.399   0.599   8.550
 6231POPC   C2B25568   3.361   0.662   8.250
 6231POPC   C3B25569   3.441   0.671   7.950
 6231POPC   C4B25570   3.393   0.618   7.650
 6232POPC   NC325571   3.530  22.967   9.450
 6232POPC   PO425572   3.572  22.897   9.150
 6232POPC   GL125573   3.499  22.907   8.850
 6232POPC   GL225574   3.442  23.040   8.850
 6232POPC   C1A25575   3.494  22.966   8.550
 6232POPC   D2A25576   3.515  22.973   8.250
 6232POPC   C3A25577   3.492  22.981   7.950
 6232POPC   C4A25578   3.513  22.967   7.650
 6232POPC   C1B25579   3.347  23.111   8.550
 6232POPC   C2B25580   3.345  23.120   8.250
 6232POPC   C3B25581   3.419  23.079   7.950
 6232POPC   C4B25582   3.382  23.145   7.650
 6233POPC   NC325583  33.831  44.641   9.450
 6233POPC   PO425584  33.804  44.618   9.150
 6233POPC   GL125585  33.842  44.690   8.850
 6233POPC   GL225586  33.778  44.810   8.850
 6233POPC   C1A25587  33.826  44.668   8.550
 6233POPC   D2A25588  33.782  44.636   8.250
 6233POPC   C3A25589  33.837  44.629   7.950
 6233POPC   C4A25590  33.822  44.613   7.650
 6233POPC   C1B25591  33.661  44.896   8.550
 6233POPC   C2B25592  33.665  44.881   8.250
 6233POPC   C3B25593  33.634  44.900   7.950
 6233POPC   C4B25594  33.654  44.856   7.650
 6234POPC   NC325595  23.688  28.356   9.450
 6234POPC   PO425596  23.740  28.383   9.150
 6234POPC   GL125597  23.668  28.340   8.850
 6234POPC   GL225598  23.695  28.293   8.850
 6234POPC   C1A25599  23.728  28.358   8.550
 6234POPC   D2A25600  23.717  28.325   8.250
 6234POPC   C3A25601  23.733  28.360   7.950
 6234POPC   C4A25602  23.677  28.340   7.650
 6234POPC   C1B25603  23.623  28.123   8.550
 6234POPC   C2B25604  23.702  28.080   8.250
 6234POPC   C3B25605  23.661  28.088   7.950
 6234POPC   C4B25606  23.630  28.160   7.650
 6235POPC   NC325607  22.946  22.141   9.450
 6235POPC   PO425608  22.913  22.139   9.150
 6235POPC   GL125609  22.985  22.157   8.850
 6235POPC   GL225610  23.024  22.230   8.850
 6235POPC   C1A25611  22.948  22.203   8.550
 6235POPC   D2A25612  22.987  22.125   8.250
 6235POPC   C3A25613  22.889  22.114   7.950
 6235POPC   C4A25614  22.894  22.116   7.650
 6235POPC   C1B25615  23.092  22.309   8.550
 6235POPC   C2B25616  23.081  22.316   8.250
 6235POPC   C3B25617  23.088  22.341   7.950
 6235POPC   C4B25618  23.078  22.303   7.650
 6236POPC   NC325619   7.442  40.032   9.450
 6236POPC   PO425620   7.403  40.032   9.150
 6236POPC   GL125621   7.449  39.982   8.850
 6236POPC   GL225622   7.314  39.977   8.850
 6236POPC   C1A25623   7.424  40.041   8.550
 6236POPC   D2A25624   7.404  40.032   8.250
 6236POPC   C3A25625   7.469  40.003   7.950
 6236POPC   C4A25626   7.431  40.026   7.650
 6236POPC   C1B25627   7.179  40.079   8.550
 6236POPC   C2B25628   7.140  40.078   8.250
 6236POPC   C3B25629   7.160  40.029   7.950
 6236POPC   C4B25630   7.161  40.002   7.650
 6237POPC   NC325631   0.471  26.044   9.450
 6237POPC   PO425632   0.457  26.021   9.150
 6237POPC   GL125633   0.465  25.996   8.850
 6237POPC   GL225634   0.440  26.154   8.850
 6237POPC   C1A25635   0.471  26.059   8.550
 6237POPC   D2A25636   0.475  26.091   8.250
 6237POPC   C3A25637   0.448  26.029   7.950
 6237POPC   C4A25638   0.469  26.068   7.650
 6237POPC   C1B25639   0.462  26.283   8.550
 6237POPC   C2B25640   0.477  26.245   8.250
 6237POPC   C3B25641   0.456  26.248   7.950
 6237POPC   C4B25642   0.442  26.283   7.650
 6238POPC   NC325643  17.521  44.655   9.450
 6238POPC   PO425644  17.483  44.626   9.150
 6238POPC   GL125645  17.483  44.712   8.850
 6238POPC   GL225646  17.536  44.568   8.850
 6238POPC   C1A25647  17.463  44.639   8.550
 6238POPC   D2A25648  17.531  44.635   8.250
 6238POPC   C3A25649  17.460  44.700   7.950
 6238POPC   C4A25650  17.490  44.675   7.650
 6238POPC   C1B25651  17.625  44.397   8.550
 6238POPC   C2B25652  17.593  44.462   8.250
 6238POPC   C3B25653  17.545  44.386   7.950
 6238POPC   C4B25654  17.590  44.384   7.650
 6239POPC   NC325655  15.987  41.538   9.450
 6239POPC   PO425656  15.982  41.554   9.150
 6239POPC   GL125657  15.952  41.595   8.850
 6239POPC   GL225658  16.058  41.415   8.850
 6239POPC   C1A25659  15.946  41.524   8.550
 6239POPC   D2A25660  15.940  41.516   8.250
 6239POPC   C3A25661  15.968  41.521   7.950
 6239POPC   C4A25662  15.974  41.567   7.650
 6239POPC   C1B25663  16.079  41.364   8.550
 6239POPC   C2B25664  16.073  41.363   8.250
 6239POPC   C3B25665  16.065  41.334   7.950
 6239POPC   C4B25666  16.145  41.366   7.650
 6240POPC   NC325667  16.700  37.637   9.450
 6240POPC   PO425668  16.698  37.728   9.150
 6240POPC   GL125669  16.722  37.703   8.850
 6240POPC   GL225670  16.714  37.548   8.850
 6240POPC   C1A25671  16.763  37.690   8.550
 6240POPC   D2A25672  16.732  37.720   8.250
 6240POPC   C3A25673  16.682  37.674   7.950
 6240POPC   C4A25674  16.781  37.703   7.650
 6240POPC   C1B25675  16.806  37.429   8.550
 6240POPC   C2B25676  16.761  37.403   8.250
 6240POPC   C3B25677  16.746  37.448   7.950
 6240POPC   C4B25678  16.791  37.446   7.650
 6241POPC   NC325679  20.653   0.436   9.450
 6241POPC   PO425680  20.565   0.421   9.150
 6241POPC   GL125681  20.613   0.427   8.850
 6241POPC   GL225682  20.569   0.307   8.850
 6241POPC   C1A25683  20.648   0.445   8.550
 6241POPC   D2A25684  20.567   0.415   8.250
 6241POPC   C3A25685  20.608   0.447   7.950
 6241POPC   C4A25686  20.563   0.480   7.650
 6241POPC   C1B25687  20.604   0.178   8.550
 6241POPC   C2B25688  20.554   0.190   8.250
 6241POPC   C3B25689  20.618   0.213   7.950
 6241POPC   C4B25690  20.610   0.236   7.650
 6242POPC   NC325691  43.159  23.702   9.450
 6242POPC   PO425692  43.076  23.664   9.150
 6242POPC   GL125693  43.079  23.743   8.850
 6242POPC   GL225694  43.099  23.866   8.850
 6242POPC   C1A25695  43.126  23.761   8.550
 6242POPC   D2A25696  43.124  23.690   8.250
 6242POPC   C3A25697  43.157  23.708   7.950
 6242POPC   C4A25698  43.129  23.708   7.650
 6242POPC   C1B25699  43.004  23.916   8.550
 6242POPC   C2B25700  43.046  23.949   8.250
 6242POPC   C3B25701  43.056  23.929   7.950
 6242POPC   C4B25702  43.080  23.967   7.650
 6243POPC   NC325703  40.767  31.519   9.450
 6243POPC   PO425704  40.776  31.440   9.150
 6243POPC   GL125705  40.756  31.466   8.850
 6243POPC   GL225706  40.928  31.474   8.850
 6243POPC   C1A25707  40.735  31.438   8.550
 6243POPC   D2A25708  40.773  31.455   8.250
 6243POPC   C3A25709  40.748  31.437   7.950
 6243POPC   C4A25710  40.814  31.458   7.650
 6243POPC   C1B25711  41.064  31.409   8.550
 6243POPC   C2B25712  40.983  31.428   8.250
 6243POPC   C3B25713  40.990  31.429   7.950
 6243POPC   C4B25714  40.982  31.345   7.650
 6244POPC   NC325715  30.684  35.334   9.450
 6244POPC   PO425716  30.654  35.320   9.150
 6244POPC   GL125717  30.686  35.306   8.850
 6244POPC   GL225718  30.633  35.273   8.850
 6244POPC   C1A25719  30.649  35.322   8.550
 6244POPC   D2A25720  30.664  35.341   8.250
 6244POPC   C3A25721  30.688  35.381   7.950
 6244POPC   C4A25722  30.718  35.319   7.650
 6244POPC   C1B25723  30.590  35.065   8.550
 6244POPC   C2B25724  30.604  35.072   8.250
 6244POPC   C3B25725  30.633  35.087   7.950
 6244POPC   C4B25726  30.619  35.080   7.650
 6245POPC   NC325727   3.509  40.792   9.450
 6245POPC   PO425728   3.557  40.821   9.150
 6245POPC   GL125729   3.505  40.759   8.850
 6245POPC   GL225730   3.586  40.865   8.850
 6245POPC   C1A25731   3.505  40.826   8.550
 6245POPC   D2A25732   3.556  40.777   8.250
 6245POPC   C3A25733   3.558  40.759   7.950
 6245POPC   C4A25734   3.508  40.776   7.650
 6245POPC   C1B25735   3.635  41.016   8.550
 6245POPC   C2B25736   3.644  40.959   8.250
 6245POPC   C3B25737   3.678  41.053   7.950
 6245POPC   C4B25738   3.630  41.033   7.650
 6246POPC   NC325739  28.406   0.461   9.450
 6246POPC   PO425740  28.362   0.388   9.150
 6246POPC   GL125741  28.365   0.426   8.850
 6246POPC   GL225742  28.329   0.281   8.850
 6246POPC   C1A25743  28.391   0.412   8.550
 6246POPC   D2A25744  28.418   0.426   8.250
 6246POPC   C3A25745  28.334   0.449   7.950
 6246POPC   C4A25746  28.376   0.484   7.650
 6246POPC   C1B25747  28.305   0.209   8.550
 6246POPC   C2B25748  28.314   0.210   8.250
 6246POPC   C3B25749  28.334   0.219   7.950
 6246POPC   C4B25750  28.308   0.187   7.650
 6247POPC   NC325751  13.640  29.184   9.450
 6247POPC   PO425752  13.676  29.180   9.150
 6247POPC   GL125753  13.607  29.137   8.850
 6247POPC   GL225754  13.527  29.052   8.850
 6247POPC   C1A25755  13.626  29.104   8.550
 6247POPC   D2A25756  13.647  29.114   8.250
 6247POPC   C3A25757  13.666  29.141   7.950
 6247POPC   C4A25758  13.644  29.122   7.650
 6247POPC   C1B25759  13.441  28.956   8.550
 6247POPC   C2B25760  13.401  28.978   8.250
 6247POPC   C3B25761  13.446  28.979   7.950
 6247POPC   C4B25762  13.472  28.993   7.650
 6248POPC   NC325763  41.527  13.662   9.450
 6248POPC   PO425764  41.532  13.580   9.150
 6248POPC   GL125765  41.550  13.648   8.850
 6248POPC   GL225766  41.679  13.619   8.850
 6248POPC   C1A25767  41.564  13.589   8.550
 6248POPC   D2A25768  41.555  13.650   8.250
 6248POPC   C3A25769  41.524  13.627   7.950
 6248POPC   C4A25770  41.591  13.608   7.650
 6248POPC   C1B25771  41.781  13.681   8.550
 6248POPC   C2B25772  41.788  13.619   8.250
 6248POPC   C3B25773  41.758  13.614   7.950
 6248POPC   C4B25774  41.844  13.685   7.650
 6249POPC   NC325775  18.242   5.131   9.450
 6249POPC   PO425776  18.280   5.044   9.150
 6249POPC   GL125777  18.276   5.125   8.850
 6249POPC   GL225778  18.406   5.142   8.850
 6249POPC   C1A25779  18.319   5.098   8.550
 6249POPC   D2A25780  18.245   5.107   8.250
 6249POPC   C3A25781  18.251   5.049   7.950
 6249POPC   C4A25782  18.285   5.087   7.650
 6249POPC   C1B25783  18.535   5.081   8.550
 6249POPC   C2B25784  18.507   5.067   8.250
 6249POPC   C3B25785  18.518   5.071   7.950
 6249POPC   C4B25786  18.526   5.088   7.650
 6250POPC   NC325787   1.987   0.398   9.450
 6250POPC   PO425788   2.010   0.429   9.150
 6250POPC   GL125789   1.955   0.398   8.850
 6250POPC   GL225790   2.101   0.393   8.850
 6250POPC   C1A25791   2.038   0.460   8.550
 6250POPC   D2A25792   2.003   0.441   8.250
 6250POPC   C3A25793   1.991   0.437   7.950
 6250POPC   C4A25794   1.952   0.434   7.650
 6250POPC   C1B25795   2.189   0.424   8.550
 6250POPC   C2B25796   2.263   0.417   8.250
 6250POPC   C3B25797   2.275   0.417   7.950
 6250POPC   C4B25798   2.206   0.383   7.650
 6251POPC   NC325799  23.710  43.851   9.450
 6251POPC   PO425800  23.665  43.848   9.150
 6251POPC   GL125801  23.743  43.919   8.850
 6251POPC   GL225802  23.849  43.888   8.850
 6251POPC   C1A25803  23.669  43.912   8.550
 6251POPC   D2A25804  23.693  43.863   8.250
 6251POPC   C3A25805  23.699  43.919   7.950
 6251POPC   C4A25806  23.666  43.923   7.650
 6251POPC   C1B25807  23.913  43.988   8.550
 6251POPC   C2B25808  23.909  43.924   8.250
 6251POPC   C3B25809  23.922  43.925   7.950
 6251POPC   C4B25810  23.935  43.947   7.650
 6252POPC   NC325811  41.544   8.214   9.450
 6252POPC   PO425812  41.537   8.147   9.150
 6252POPC   GL125813  41.570   8.156   8.850
 6252POPC   GL225814  41.452   8.162   8.850
 6252POPC   C1A25815  41.572   8.230   8.550
 6252POPC   D2A25816  41.511   8.177   8.250
 6252POPC   C3A25817  41.546   8.242   7.950
 6252POPC   C4A25818  41.527   8.180   7.650
 6252POPC   C1B25819  41.359   8.148   8.550
 6252POPC   C2B25820  41.329   8.097   8.250
 6252POPC   C3B25821  41.341   8.106   7.950
 6252POPC   C4B25822  41.301   8.141   7.650
 6253POPC   NC325823  42.377  44.653   9.450
 6253POPC   PO425824  42.301  44.636   9.150
 6253POPC   GL125825  42.361  44.618   8.850
 6253POPC   GL225826  42.224  44.615   8.850
 6253POPC   C1A25827  42.333  44.686   8.550
 6253POPC   D2A25828  42.316  44.661   8.250
 6253POPC   C3A25829  42.305  44.696   7.950
 6253POPC   C4A25830  42.297  44.680   7.650
 6253POPC   C1B25831  42.075  44.654   8.550
 6253POPC   C2B25832  42.042  44.633   8.250
 6253POPC   C3B25833  42.057  44.580   7.950
 6253POPC   C4B25834  42.125  44.590   7.650
 6254POPC   NC325835  11.299  42.354   9.450
 6254POPC   PO425836  11.258  42.290   9.150
 6254POPC   GL125837  11.291  42.345   8.850
 6254POPC   GL225838  11.358  42.278   8.850
 6254POPC   C1A25839  11.341  42.307   8.550
 6254POPC   D2A25840  11.254  42.373   8.250
 6254POPC   C3A25841  11.299  42.329   7.950
 6254POPC   C4A25842  11.311  42.340   7.650
 6254POPC   C1B25843  11.503  42.186   8.550
 6254POPC   C2B25844  11.534  42.137   8.250
 6254POPC   C3B25845  11.489  42.169   7.950
 6254POPC   C4B25846  11.531  42.157   7.650
 6255POPC   NC325847   7.468  44.663   9.450
 6255POPC   PO425848   7.447  44.687   9.150
 6255POPC   GL125849   7.396  44.652   8.850
 6255POPC   GL225850   7.447  44.783   8.850
 6255POPC   C1A25851   7.462  44.643   8.550
 6255POPC   D2A25852   7.379  44.661   8.250
 6255POPC   C3A25853   7.434  44.692   7.950
 6255POPC   C4A25854   7.381  44.654   7.650
 6255POPC   C1B25855   7.456  44.873   8.550
 6255POPC   C2B25856   7.512  44.941   8.250
 6255POPC   C3B25857   7.473  44.941   7.950
 6255POPC   C4B25858   7.442  44.928   7.650
 6256POPC   NC325859  22.921  42.363   9.450
 6256POPC   PO425860  22.977  42.360   9.150
 6256POPC   GL125861  22.963  42.359   8.850
 6256POPC   GL225862  22.994  42.187   8.850
 6256POPC   C1A25863  22.909  42.382   8.550
 6256POPC   D2A25864  22.976  42.356   8.250
 6256POPC   C3A25865  22.961  42.294   7.950
 6256POPC   C4A25866  22.920  42.290   7.650
 6256POPC   C1B25867  22.974  42.057   8.550
 6256POPC   C2B25868  22.955  42.101   8.250
 6256POPC   C3B25869  22.950  42.075   7.950
 6256POPC   C4B25870  22.918  42.048   7.650
 6257POPC   NC325871   8.944   4.351   9.450
 6257POPC   PO425872   8.930   4.361   9.150
 6257POPC   GL125873   8.941   4.320   8.850
 6257POPC   GL225874   8.883   4.266   8.850
 6257POPC   C1A25875   9.006   4.313   8.550
 6257POPC   D2A25876   8.950   4.288   8.250
 6257POPC   C3A25877   8.990   4.293   7.950
 6257POPC   C4A25878   8.999   4.339   7.650
 6257POPC   C1B25879   8.808   4.138   8.550
 6257POPC   C2B25880   8.858   4.098   8.250
 6257POPC   C3B25881   8.776   4.124   7.950
 6257POPC   C4B25882   8.787   4.165   7.650
 6258POPC   NC325883   7.426  33.008   9.450
 6258POPC   PO425884   7.375  33.061   9.150
 6258POPC   GL125885   7.451  32.983   8.850
 6258POPC   GL225886   7.317  33.126   8.850
 6258POPC   C1A25887   7.412  33.049   8.550
 6258POPC   D2A25888   7.448  33.018   8.250
 6258POPC   C3A25889   7.395  33.024   7.950
 6258POPC   C4A25890   7.429  33.040   7.650
 6258POPC   C1B25891   7.315  33.193   8.550
 6258POPC   C2B25892   7.328  33.207   8.250
 6258POPC   C3B25893   7.298  33.195   7.950
 6258POPC   C4B25894   7.323  33.283   7.650
 6259POPC   NC325895  27.547  36.895   9.450
 6259POPC   PO425896  27.637  36.951   9.150
 6259POPC   GL125897  27.565  36.892   8.850
 6259POPC   GL225898  27.461  36.955   8.850
 6259POPC   C1A25899  27.605  36.863   8.550
 6259POPC   D2A25900  27.624  36.939   8.250
 6259POPC   C3A25901  27.602  36.860   7.950
 6259POPC   C4A25902  27.545  36.932   7.650
 6259POPC   C1B25903  27.374  36.916   8.550
 6259POPC   C2B25904  27.360  36.905   8.250
 6259POPC   C3B25905  27.324  36.874   7.950
 6259POPC   C4B25906  27.376  36.934   7.650
 6260POPC   NC325907  41.511  43.121   9.450
 6260POPC   PO425908  41.535  43.087   9.150
 6260POPC   GL125909  41.531  43.065   8.850
 6260POPC   GL225910  41.636  43.254   8.850
 6260POPC   C1A25911  41.524  43.107   8.550
 6260POPC   D2A25912  41.585  43.142   8.250
 6260POPC   C3A25913  41.587  43.119   7.950
 6260POPC   C4A25914  41.569  43.120   7.650
 6260POPC   C1B25915  41.648  43.323   8.550
 6260POPC   C2B25916  41.609  43.374   8.250
 6260POPC   C3B25917  41.666  43.345   7.950
 6260POPC   C4B25918  41.631  43.347   7.650
 6261POPC   NC325919  26.821  14.416   9.450
 6261POPC   PO425920  26.850  14.379   9.150
 6261POPC   GL125921  26.813  14.437   8.850
 6261POPC   GL225922  26.889  14.308   8.850
 6261POPC   C1A25923  26.768  14.419   8.550
 6261POPC   D2A25924  26.800  14.436   8.250
 6261POPC   C3A25925  26.772  14.354   7.950
 6261POPC   C4A25926  26.863  14.368   7.650
 6261POPC   C1B25927  27.044  14.193   8.550
 6261POPC   C2B25928  27.005  14.283   8.250
 6261POPC   C3B25929  27.048  14.235   7.950
 6261POPC   C4B25930  27.018  14.202   7.650
 6262POPC   NC325931   3.561  33.845   9.450
 6262POPC   PO425932   3.527  33.850   9.150
 6262POPC   GL125933   3.553  33.809   8.850
 6262POPC   GL225934   3.702  33.852   8.850
 6262POPC   C1A25935   3.586  33.793   8.550
 6262POPC   D2A25936   3.526  33.848   8.250
 6262POPC   C3A25937   3.566  33.769   7.950
 6262POPC   C4A25938   3.518  33.835   7.650
 6262POPC   C1B25939   3.774  33.806   8.550
 6262POPC   C2B25940   3.776  33.795   8.250
 6262POPC   C3B25941   3.775  33.766   7.950
 6262POPC   C4B25942   3.773  33.797   7.650
 6263POPC   NC325943  23.754  41.527   9.450
 6263POPC   PO425944  23.748  41.522   9.150
 6263POPC   GL125945  23.734  41.584   8.850
 6263POPC   GL225946  23.806  41.691   8.850
 6263POPC   C1A25947  23.741  41.595   8.550
 6263POPC   D2A25948  23.674  41.532   8.250
 6263POPC   C3A25949  23.691  41.510   7.950
 6263POPC   C4A25950  23.675  41.548   7.650
 6263POPC   C1B25951  23.890  41.771   8.550
 6263POPC   C2B25952  23.902  41.703   8.250
 6263POPC   C3B25953  23.827  41.728   7.950
 6263POPC   C4B25954  23.886  41.768   7.650
 6264POPC   NC325955  21.420  17.477   9.450
 6264POPC   PO425956  21.392  17.470   9.150
 6264POPC   GL125957  21.387  17.467   8.850
 6264POPC   GL225958  21.332  17.379   8.850
 6264POPC   C1A25959  21.384  17.508   8.550
 6264POPC   D2A25960  21.408  17.540   8.250
 6264POPC   C3A25961  21.416  17.497   7.950
 6264POPC   C4A25962  21.399  17.501   7.650
 6264POPC   C1B25963  21.366  17.295   8.550
 6264POPC   C2B25964  21.340  17.210   8.250
 6264POPC   C3B25965  21.362  17.259   7.950
 6264POPC   C4B25966  21.331  17.251   7.650
 6265POPC   NC325967  26.029   8.217   9.450
 6265POPC   PO425968  26.048   8.209   9.150
 6265POPC   GL125969  26.059   8.244   8.850
 6265POPC   GL225970  26.029   8.051   8.850
 6265POPC   C1A25971  25.997   8.156   8.550
 6265POPC   D2A25972  25.995   8.245   8.250
 6265POPC   C3A25973  25.993   8.242   7.950
 6265POPC   C4A25974  26.012   8.215   7.650
 6265POPC   C1B25975  26.067   7.992   8.550
 6265POPC   C2B25976  26.142   7.987   8.250
 6265POPC   C3B25977  26.054   7.984   7.950
 6265POPC   C4B25978  26.053   7.965   7.650
 6266POPC   NC325979  42.305   5.097   9.450
 6266POPC   PO425980  42.359   5.096   9.150
 6266POPC   GL125981  42.351   5.120   8.850
 6266POPC   GL225982  42.281   5.219   8.850
 6266POPC   C1A25983  42.347   5.055   8.550
 6266POPC   D2A25984  42.376   5.051   8.250
 6266POPC   C3A25985  42.312   5.127   7.950
 6266POPC   C4A25986  42.360   5.108   7.650
 6266POPC   C1B25987  42.185   5.250   8.550
 6266POPC   C2B25988  42.222   5.334   8.250
 6266POPC   C3B25989  42.193   5.267   7.950
 6266POPC   C4B25990  42.190   5.240   7.650
 6267POPC   NC325991  19.856  26.808   9.450
 6267POPC   PO425992  19.813  26.864   9.150
 6267POPC   GL125993  19.810  26.781   8.850
 6267POPC   GL225994  19.715  26.703   8.850
 6267POPC   C1A25995  19.868  26.854   8.550
 6267POPC   D2A25996  19.823  26.771   8.250
 6267POPC   C3A25997  19.844  26.804   7.950
 6267POPC   C4A25998  19.884  26.804   7.650
 6267POPC   C1B25999  19.650  26.679   8.550
 6267POPC   C2B26000  19.677  26.650   8.250
 6267POPC   C3B26001  19.619  26.669   7.950
 6267POPC   C4B26002  19.595  26.689   7.650
 6268POPC   NC326003  36.151  24.456   9.450
 6268POPC   PO426004  36.097  24.444   9.150
 6268POPC   GL126005  36.147  24.539   8.850
 6268POPC   GL226006  36.042  24.567   8.850
 6268POPC   C1A26007  36.171  24.457   8.550
 6268POPC   D2A26008  36.110  24.498   8.250
 6268POPC   C3A26009  36.145  24.445   7.950
 6268POPC   C4A26010  36.110  24.501   7.650
 6268POPC   C1B26011  36.078  24.760   8.550
 6268POPC   C2B26012  36.057  24.721   8.250
 6268POPC   C3B26013  36.030  24.713   7.950
 6268POPC   C4B26014  36.033  24.717   7.650
 6269POPC   NC326015   8.179  41.547   9.450
 6269POPC   PO426016   8.202  41.522   9.150
 6269POPC   GL126017   8.148  41.513   8.850
 6269POPC   GL226018   8.298  41.511   8.850
 6269POPC   C1A26019   8.227  41.512   8.550
 6269POPC   D2A26020   8.195  41.514   8.250
 6269POPC   C3A26021   8.163  41.576   7.950
 6269POPC   C4A26022   8.229  41.579   7.650
 6269POPC   C1B26023   8.381  41.348   8.550
 6269POPC   C2B26024   8.378  41.395   8.250
 6269POPC   C3B26025   8.395  41.360   7.950
 6269POPC   C4B26026   8.330  41.407   7.650
 6270POPC   NC326027  25.310  19.084   9.450
 6270POPC   PO426028  25.280  19.108   9.150
 6270POPC   GL126029  25.246  19.052   8.850
 6270POPC   GL226030  25.186  19.027   8.850
 6270POPC   C1A26031  25.307  19.037   8.550
 6270POPC   D2A26032  25.219  19.012   8.250
 6270POPC   C3A26033  25.254  19.098   7.950
 6270POPC   C4A26034  25.308  19.047   7.650
 6270POPC   C1B26035  25.066  18.958   8.550
 6270POPC   C2B26036  24.994  19.005   8.250
 6270POPC   C3B26037  25.012  18.946   7.950
 6270POPC   C4B26038  24.990  18.958   7.650
 6271POPC   NC326039  11.319  34.605   9.450
 6271POPC   PO426040  11.251  34.586   9.150
 6271POPC   GL126041  11.317  34.531   8.850
 6271POPC   GL226042  11.408  34.639   8.850
 6271POPC   C1A26043  11.328  34.615   8.550
 6271POPC   D2A26044  11.257  34.543   8.250
 6271POPC   C3A26045  11.309  34.538   7.950
 6271POPC   C4A26046  11.296  34.622   7.650
 6271POPC   C1B26047  11.386  34.806   8.550
 6271POPC   C2B26048  11.393  34.832   8.250
 6271POPC   C3B26049  11.443  34.785   7.950
 6271POPC   C4B26050  11.426  34.774   7.650
 6272POPC   NC326051  15.139  16.753   9.450
 6272POPC   PO426052  15.166  16.767   9.150
 6272POPC   GL126053  15.168  16.771   8.850
 6272POPC   GL226054  15.220  16.588   8.850
 6272POPC   C1A26055  15.213  16.773   8.550
 6272POPC   D2A26056  15.158  16.713   8.250
 6272POPC   C3A26057  15.172  16.756   7.950
 6272POPC   C4A26058  15.155  16.748   7.650
 6272POPC   C1B26059  15.234  16.492   8.550
 6272POPC   C2B26060  15.277  16.541   8.250
 6272POPC   C3B26061  15.287  16.508   7.950
 6272POPC   C4B26062  15.265  16.536   7.650
 6273POPC   NC326063   9.774  19.873   9.450
 6273POPC   PO426064   9.749  19.788   9.150
 6273POPC   GL126065   9.715  19.857   8.850
 6273POPC   GL226066   9.703  19.753   8.850
 6273POPC   C1A26067   9.760  19.789   8.550
 6273POPC   D2A26068   9.745  19.862   8.250
 6273POPC   C3A26069   9.777  19.884   7.950
 6273POPC   C4A26070   9.728  19.813   7.650
 6273POPC   C1B26071   9.631  19.664   8.550
 6273POPC   C2B26072   9.582  19.593   8.250
 6273POPC   C3B26073   9.632  19.607   7.950
 6273POPC   C4B26074   9.614  19.612   7.650
 6274POPC   NC326075  22.945   5.898   9.450
 6274POPC   PO426076  22.937   5.885   9.150
 6274POPC   GL126077  22.986   5.839   8.850
 6274POPC   GL226078  22.863   5.928   8.850
 6274POPC   C1A26079  22.905   5.869   8.550
 6274POPC   D2A26080  22.982   5.825   8.250
 6274POPC   C3A26081  22.928   5.904   7.950
 6274POPC   C4A26082  22.918   5.847   7.650
 6274POPC   C1B26083  22.788   6.044   8.550
 6274POPC   C2B26084  22.723   6.027   8.250
 6274POPC   C3B26085  22.775   6.009   7.950
 6274POPC   C4B26086  22.728   5.996   7.650
 6275POPC   NC326087  33.754   1.186   9.450
 6275POPC   PO426088  33.769   1.185   9.150
 6275POPC   GL126089  33.806   1.176   8.850
 6275POPC   GL226090  33.867   1.334   8.850
 6275POPC   C1A26091  33.823   1.166   8.550
 6275POPC   D2A26092  33.815   1.217   8.250
 6275POPC   C3A26093  33.842   1.174   7.950
 6275POPC   C4A26094  33.778   1.214   7.650
 6275POPC   C1B26095  34.015   1.387   8.550
 6275POPC   C2B26096  33.976   1.373   8.250
 6275POPC   C3B26097  34.028   1.383   7.950
 6275POPC   C4B26098  34.006   1.336   7.650
 6276POPC   NC326099  40.746  39.963   9.450
 6276POPC   PO426100  40.810  40.034   9.150
 6276POPC   GL126101  40.815  39.963   8.850
 6276POPC   GL226102  40.673  40.069   8.850
 6276POPC   C1A26103  40.748  40.036   8.550
 6276POPC   D2A26104  40.825  39.986   8.250
 6276POPC   C3A26105  40.749  40.004   7.950
 6276POPC   C4A26106  40.824  40.007   7.650
 6276POPC   C1B26107  40.608  40.171   8.550
 6276POPC   C2B26108  40.617  40.166   8.250
 6276POPC   C3B26109  40.645  40.172   7.950
 6276POPC   C4B26110  40.632  40.210   7.650
 6277POPC   NC326111  33.042  36.950   9.450
 6277POPC   PO426112  33.019  36.865   9.150
 6277POPC   GL126113  33.040  36.862   8.850
 6277POPC   GL226114  33.029  36.793   8.850
 6277POPC   C1A26115  33.070  36.863   8.550
 6277POPC   D2A26116  33.018  36.876   8.250
 6277POPC   C3A26117  33.039  36.943   7.950
 6277POPC   C4A26118  33.030  36.909   7.650
 6277POPC   C1B26119  33.037  36.687   8.550
 6277POPC   C2B26120  32.996  36.651   8.250
 6277POPC   C3B26121  33.060  36.676   7.950
 6277POPC   C4B26122  33.061  36.665   7.650
 6278POPC   NC326123   5.128  12.102   9.450
 6278POPC   PO426124   5.059  12.058   9.150
 6278POPC   GL126125   5.048  12.083   8.850
 6278POPC   GL226126   4.999  12.205   8.850
 6278POPC   C1A26127   5.134  12.030   8.550
 6278POPC   D2A26128   5.142  12.125   8.250
 6278POPC   C3A26129   5.067  12.027   7.950
 6278POPC   C4A26130   5.080  12.100   7.650
 6278POPC   C1B26131   4.866  12.242   8.550
 6278POPC   C2B26132   4.905  12.195   8.250
 6278POPC   C3B26133   4.873  12.261   7.950
 6278POPC   C4B26134   4.903  12.292   7.650
 6279POPC   NC326135  12.867  29.186   9.450
 6279POPC   PO426136  12.881  29.168   9.150
 6279POPC   GL126137  12.901  29.187   8.850
 6279POPC   GL226138  12.847  29.055   8.850
 6279POPC   C1A26139  12.813  29.105   8.550
 6279POPC   D2A26140  12.828  29.168   8.250
 6279POPC   C3A26141  12.820  29.188   7.950
 6279POPC   C4A26142  12.887  29.161   7.650
 6279POPC   C1B26143  12.803  28.905   8.550
 6279POPC   C2B26144  12.752  28.932   8.250
 6279POPC   C3B26145  12.768  28.891   7.950
 6279POPC   C4B26146  12.783  28.920   7.650
 6280POPC   NC326147  22.952  25.282   9.450
 6280POPC   PO426148  22.975  25.282   9.150
 6280POPC   GL126149  22.910  25.282   8.850
 6280POPC   GL226150  22.916  25.363   8.850
 6280POPC   C1A26151  22.898  25.223   8.550
 6280POPC   D2A26152  22.967  25.226   8.250
 6280POPC   C3A26153  22.916  25.315   7.950
 6280POPC   C4A26154  22.951  25.226   7.650
 6280POPC   C1B26155  22.787  25.472   8.550
 6280POPC   C2B26156  22.778  25.504   8.250
 6280POPC   C3B26157  22.807  25.457   7.950
 6280POPC   C4B26158  22.824  25.538   7.650
 6281POPC   NC326159  15.212  17.552   9.450
 6281POPC   PO426160  15.162  17.556   9.150
 6281POPC   GL126161  15.174  17.491   8.850
 6281POPC   GL226162  15.276  17.640   8.850
 6281POPC   C1A26163  15.217  17.492   8.550
 6281POPC   D2A26164  15.161  17.527   8.250
 6281POPC   C3A26165  15.198  17.511   7.950
 6281POPC   C4A26166  15.189  17.541   7.650
 6281POPC   C1B26167  15.331  17.709   8.550
 6281POPC   C2B26168  15.296  17.694   8.250
 6281POPC   C3B26169  15.342  17.697   7.950
 6281POPC   C4B26170  15.249  17.733   7.650
 6282POPC   NC326171  23.703   2.020   9.450
 6282POPC   PO426172  23.746   2.014   9.150
 6282POPC   GL126173  23.727   1.991   8.850
 6282POPC   GL226174  23.615   2.076   8.850
 6282POPC   C1A26175  23.686   1.943   8.550
 6282POPC   D2A26176  23.722   1.947   8.250
 6282POPC   C3A26177  23.694   1.962   7.950
 6282POPC   C4A26178  23.702   1.990   7.650
 6282POPC   C1B26179  23.506   2.097   8.550
 6282POPC   C2B26180  23.519   2.068   8.250
 6282POPC   C3B26181  23.461   2.095   7.950
 6282POPC   C4B26182  23.515   2.099   7.650
 6283POPC   NC326183  14.409  10.488   9.450
 6283POPC   PO426184  14.396  10.570   9.150
 6283POPC   GL126185  14.414  10.547   8.850
 6283POPC   GL226186  14.462  10.648   8.850
 6283POPC   C1A26187  14.446  10.484   8.550
 6283POPC   D2A26188  14.445  10.484   8.250
 6283POPC   C3A26189  14.437  10.552   7.950
 6283POPC   C4A26190  14.426  10.500   7.650
 6283POPC   C1B26191  14.463  10.722   8.550
 6283POPC   C2B26192  14.540  10.752   8.250
 6283POPC   C3B26193  14.524  10.749   7.950
 6283POPC   C4B26194  14.540  10.773   7.650
 6284POPC   NC326195   0.389  13.603   9.450
 6284POPC   PO426196   0.462  13.582   9.150
 6284POPC   GL126197   0.421  13.614   8.850
 6284POPC   GL226198   0.402  13.765   8.850
 6284POPC   C1A26199   0.439  13.651   8.550
 6284POPC   D2A26200   0.447  13.659   8.250
 6284POPC   C3A26201   0.488  13.601   7.950
 6284POPC   C4A26202   0.466  13.660   7.650
 6284POPC   C1B26203   0.392  13.892   8.550
 6284POPC   C2B26204   0.330  13.902   8.250
 6284POPC   C3B26205   0.317  13.877   7.950
 6284POPC   C4B26206   0.332  13.870   7.650
 6285POPC   NC326207   1.999  43.848   9.450
 6285POPC   PO426208   1.941  43.872   9.150
 6285POPC   GL126209   2.029  43.856   8.850
 6285POPC   GL226210   2.157  43.917   8.850
 6285POPC   C1A26211   1.949  43.861   8.550
 6285POPC   D2A26212   1.999  43.889   8.250
 6285POPC   C3A26213   1.974  43.897   7.950
 6285POPC   C4A26214   1.974  43.873   7.650
 6285POPC   C1B26215   2.190  43.947   8.550
 6285POPC   C2B26216   2.181  43.981   8.250
 6285POPC   C3B26217   2.258  43.962   7.950
 6285POPC   C4B26218   2.209  43.981   7.650
 6286POPC   NC326219  25.309  19.877   9.450
 6286POPC   PO426220  25.218  19.869   9.150
 6286POPC   GL126221  25.260  19.842   8.850
 6286POPC   GL226222  25.216  19.724   8.850
 6286POPC   C1A26223  25.264  19.840   8.550
 6286POPC   D2A26224  25.280  19.867   8.250
 6286POPC   C3A26225  25.231  19.883   7.950
 6286POPC   C4A26226  25.219  19.796   7.650
 6286POPC   C1B26227  25.204  19.558   8.550
 6286POPC   C2B26228  25.259  19.560   8.250
 6286POPC   C3B26229  25.202  19.593   7.950
 6286POPC   C4B26230  25.209  19.566   7.650
 6287POPC   NC326231  25.274  29.960   9.450
 6287POPC   PO426232  25.257  29.936   9.150
 6287POPC   GL126233  25.261  29.942   8.850
 6287POPC   GL226234  25.367  29.800   8.850
 6287POPC   C1A26235  25.262  29.970   8.550
 6287POPC   D2A26236  25.261  29.950   8.250
 6287POPC   C3A26237  25.265  29.916   7.950
 6287POPC   C4A26238  25.309  29.919   7.650
 6287POPC   C1B26239  25.399  29.737   8.550
 6287POPC   C2B26240  25.419  29.756   8.250
 6287POPC   C3B26241  25.416  29.704   7.950
 6287POPC   C4B26242  25.399  29.706   7.650
 6288POPC   NC326243  11.313  13.587   9.450
 6288POPC   PO426244  11.304  13.666   9.150
 6288POPC   GL126245  11.289  13.639   8.850
 6288POPC   GL226246  11.207  13.681   8.850
 6288POPC   C1A26247  11.265  13.671   8.550
 6288POPC   D2A26248  11.276  13.591   8.250
 6288POPC   C3A26249  11.254  13.650   7.950
 6288POPC   C4A26250  11.303  13.641   7.650
 6288POPC   C1B26251  11.089  13.715   8.550
 6288POPC   C2B26252  11.052  13.626   8.250
 6288POPC   C3B26253  11.014  13.632   7.950
 6288POPC   C4B26254  11.062  13.651   7.650
 6289POPC   NC326255   2.763  40.008   9.450
 6289POPC   PO426256   2.813  40.011   9.150
 6289POPC   GL126257   2.733  39.974   8.850
 6289POPC   GL226258   2.709  39.902   8.850
 6289POPC   C1A26259   2.769  39.977   8.550
 6289POPC   D2A26260   2.741  39.970   8.250
 6289POPC   C3A26261   2.815  40.045   7.950
 6289POPC   C4A26262   2.725  40.037   7.650
 6289POPC   C1B26263   2.535  39.864   8.550
 6289POPC   C2B26264   2.540  39.848   8.250
 6289POPC   C3B26265   2.578  39.826   7.950
 6289POPC   C4B26266   2.553  39.881   7.650
 6290POPC   NC326267  42.322  26.837   9.450
 6290POPC   PO426268  42.329  26.841   9.150
 6290POPC   GL126269  42.337  26.814   8.850
 6290POPC   GL226270  42.236  26.833   8.850
 6290POPC   C1A26271  42.360  26.778   8.550
 6290POPC   D2A26272  42.326  26.806   8.250
 6290POPC   C3A26273  42.369  26.788   7.950
 6290POPC   C4A26274  42.302  26.824   7.650
 6290POPC   C1B26275  42.099  26.800   8.550
 6290POPC   C2B26276  42.067  26.773   8.250
 6290POPC   C3B26277  42.072  26.754   7.950
 6290POPC   C4B26278  42.046  26.811   7.650
 6291POPC   NC326279  32.216  29.155   9.450
 6291POPC   PO426280  32.205  29.097   9.150
 6291POPC   GL126281  32.237  29.180   8.850
 6291POPC   GL226282  32.363  29.170   8.850
 6291POPC   C1A26283  32.248  29.185   8.550
 6291POPC   D2A26284  32.277  29.119   8.250
 6291POPC   C3A26285  32.203  29.133   7.950
 6291POPC   C4A26286  32.267  29.187   7.650
 6291POPC   C1B26287  32.527  29.263   8.550
 6291POPC   C2B26288  32.451  29.229   8.250
 6291POPC   C3B26289  32.438  29.268   7.950
 6291POPC   C4B26290  32.491  29.231   7.650
 6292POPC   NC326291  22.122  36.889   9.450
 6292POPC   PO426292  22.160  36.904   9.150
 6292POPC   GL126293  22.114  36.897   8.850
 6292POPC   GL226294  22.248  36.914   8.850
 6292POPC   C1A26295  22.123  36.872   8.550
 6292POPC   D2A26296  22.128  36.857   8.250
 6292POPC   C3A26297  22.138  36.938   7.950
 6292POPC   C4A26298  22.118  36.892   7.650
 6292POPC   C1B26299  22.411  36.838   8.550
 6292POPC   C2B26300  22.373  36.910   8.250
 6292POPC   C3B26301  22.390  36.888   7.950
 6292POPC   C4B26302  22.415  36.849   7.650
 6293POPC   NC326303   1.173   9.748   9.450
 6293POPC   PO426304   1.231   9.701   9.150
 6293POPC   GL126305   1.197   9.756   8.850
 6293POPC   GL226306   1.345   9.715   8.850
 6293POPC   C1A26307   1.261   9.738   8.550
 6293POPC   D2A26308   1.243   9.701   8.250
 6293POPC   C3A26309   1.235   9.786   7.950
 6293POPC   C4A26310   1.194   9.789   7.650
 6293POPC   C1B26311   1.483   9.703   8.550
 6293POPC   C2B26312   1.432   9.634   8.250
 6293POPC   C3B26313   1.496   9.629   7.950
 6293POPC   C4B26314   1.454   9.672   7.650
 6294POPC   NC326315  43.894  10.538   9.450
 6294POPC   PO426316  43.931  10.529   9.150
 6294POPC   GL126317  43.866  10.488   8.850
 6294POPC   GL226318  43.809  10.621   8.850
 6294POPC   C1A26319  43.882  10.487   8.550
 6294POPC   D2A26320  43.913  10.562   8.250
 6294POPC   C3A26321  43.883  10.480   7.950
 6294POPC   C4A26322  43.918  10.562   7.650
 6294POPC   C1B26323  43.622  10.626   8.550
 6294POPC   C2B26324  43.639  10.631   8.250
 6294POPC   C3B26325  43.675  10.666   7.950
 6294POPC   C4B26326  43.694  10.602   7.650
 6295POPC   NC326327  21.350  16.698   9.450
 6295POPC   PO426328  21.397  16.761   9.150
 6295POPC   GL126329  21.389  16.747   8.850
 6295POPC   GL226330  21.382  16.652   8.850
 6295POPC   C1A26331  21.376  16.702   8.550
 6295POPC   D2A26332  21.418  16.756   8.250
 6295POPC   C3A26333  21.411  16.713   7.950
 6295POPC   C4A26334  21.367  16.748   7.650
 6295POPC   C1B26335  21.384  16.506   8.550
 6295POPC   C2B26336  21.376  16.504   8.250
 6295POPC   C3B26337  21.431  16.503   7.950
 6295POPC   C4B26338  21.415  16.486   7.650
 6296POPC   NC326339   9.726   4.344   9.450
 6296POPC   PO426340   9.727   4.353   9.150
 6296POPC   GL126341   9.702   4.354   8.850
 6296POPC   GL226342   9.885   4.296   8.850
 6296POPC   C1A26343   9.706   4.359   8.550
 6296POPC   D2A26344   9.737   4.333   8.250
 6296POPC   C3A26345   9.745   4.312   7.950
 6296POPC   C4A26346   9.748   4.367   7.650
 6296POPC   C1B26347  10.003   4.325   8.550
 6296POPC   C2B26348  10.009   4.247   8.250
 6296POPC   C3B26349  10.007   4.297   7.950
 6296POPC   C4B26350  10.016   4.272   7.650
 6297POPC   NC326351  34.624  14.416   9.450
 6297POPC   PO426352  34.540  14.423   9.150
 6297POPC   GL126353  34.552  14.366   8.850
 6297POPC   GL226354  34.495  14.326   8.850
 6297POPC   C1A26355  34.540  14.445   8.550
 6297POPC   D2A26356  34.622  14.372   8.250
 6297POPC   C3A26357  34.621  14.402   7.950
 6297POPC   C4A26358  34.575  14.452   7.650
 6297POPC   C1B26359  34.453  14.190   8.550
 6297POPC   C2B26360  34.464  14.192   8.250
 6297POPC   C3B26361  34.475  14.214   7.950
 6297POPC   C4B26362  34.514  14.194   7.650
 6298POPC   NC326363  12.810  11.309   9.450
 6298POPC   PO426364  12.886  11.288   9.150
 6298POPC   GL126365  12.880  11.296   8.850
 6298POPC   GL226366  12.967  11.221   8.850
 6298POPC   C1A26367  12.871  11.305   8.550
 6298POPC   D2A26368  12.802  11.269   8.250
 6298POPC   C3A26369  12.802  11.296   7.950
 6298POPC   C4A26370  12.888  11.253   7.650
 6298POPC   C1B26371  13.124  11.179   8.550
 6298POPC   C2B26372  13.069  11.240   8.250
 6298POPC   C3B26373  13.128  11.224   7.950
 6298POPC   C4B26374  13.117  11.184   7.650
 6299POPC   NC326375  31.459   7.418   9.450
 6299POPC   PO426376  31.477   7.429   9.150
 6299POPC   GL126377  31.509   7.441   8.850
 6299POPC   GL226378  31.398   7.576   8.850
 6299POPC   C1A26379  31.442   7.416   8.550
 6299POPC   D2A26380  31.503   7.426   8.250
 6299POPC   C3A26381  31.505   7.462   7.950
 6299POPC   C4A26382  31.485   7.454   7.650
 6299POPC   C1B26383  31.350   7.620   8.550
 6299POPC   C2B26384  31.381   7.633   8.250
 6299POPC   C3B26385  31.412   7.638   7.950
 6299POPC   C4B26386  31.438   7.703   7.650
 6300POPC   NC326387   9.706  36.903   9.450
 6300POPC   PO426388   9.774  36.942   9.150
 6300POPC   GL126389   9.742  36.887   8.850
 6300POPC   GL226390   9.665  36.877   8.850
 6300POPC   C1A26391   9.773  36.875   8.550
 6300POPC   D2A26392   9.770  36.876   8.250
 6300POPC   C3A26393   9.748  36.922   7.950
 6300POPC   C4A26394   9.790  36.866   7.650
 6300POPC   C1B26395   9.500  36.923   8.550
 6300POPC   C2B26396   9.545  36.950   8.250
 6300POPC   C3B26397   9.521  36.858   7.950
 6300POPC   C4B26398   9.495  36.925   7.650
 6301POPC   NC326399   9.742  24.527   9.450
 6301POPC   PO426400   9.730  24.463   9.150
 6301POPC   GL126401   9.723  24.441   8.850
 6301POPC   GL226402   9.752  24.570   8.850
 6301POPC   C1A26403   9.748  24.454   8.550
 6301POPC   D2A26404   9.721  24.517   8.250
 6301POPC   C3A26405   9.700  24.505   7.950
 6301POPC   C4A26406   9.742  24.447   7.650
 6301POPC   C1B26407   9.837  24.719   8.550
 6301POPC   C2B26408   9.779  24.760   8.250
 6301POPC   C3B26409   9.741  24.747   7.950
 6301POPC   C4B26410   9.818  24.717   7.650
 6302POPC   NC326411  19.832   5.076   9.450
 6302POPC   PO426412  19.808   5.136   9.150
 6302POPC   GL126413  19.785   5.070   8.850
 6302POPC   GL226414  19.926   5.015   8.850
 6302POPC   C1A26415  19.858   5.124   8.550
 6302POPC   D2A26416  19.813   5.067   8.250
 6302POPC   C3A26417  19.793   5.067   7.950
 6302POPC   C4A26418  19.832   5.129   7.650
 6302POPC   C1B26419  20.004   4.903   8.550
 6302POPC   C2B26420  20.011   4.949   8.250
 6302POPC   C3B26421  20.051   4.952   7.950
 6302POPC   C4B26422  20.018   4.915   7.650
 6303POPC   NC326423   9.019  33.796   9.450
 6303POPC   PO426424   8.930  33.808   9.150
 6303POPC   GL126425   8.938  33.781   8.850
 6303POPC   GL226426   9.061  33.874   8.850
 6303POPC   C1A26427   8.950  33.826   8.550
 6303POPC   D2A26428   9.017  33.820   8.250
 6303POPC   C3A26429   8.996  33.842   7.950
 6303POPC   C4A26430   8.955  33.792   7.650
 6303POPC   C1B26431   9.139  33.938   8.550
 6303POPC   C2B26432   9.152  33.932   8.250
 6303POPC   C3B26433   9.157  33.986   7.950
 6303POPC   C4B26434   9.178  33.946   7.650
 6304POPC   NC326435  20.605  29.169   9.450
 6304POPC   PO426436  20.610  29.179   9.150
 6304POPC   GL126437  20.627  29.099   8.850
 6304POPC   GL226438  20.510  29.205   8.850
 6304POPC   C1A26439  20.569  29.123   8.550
 6304POPC   D2A26440  20.565  29.164   8.250
 6304POPC   C3A26441  20.652  29.122   7.950
 6304POPC   C4A26442  20.637  29.097   7.650
 6304POPC   C1B26443  20.391  29.159   8.550
 6304POPC   C2B26444  20.373  29.123   8.250
 6304POPC   C3B26445  20.368  29.208   7.950
 6304POPC   C4B26446  20.355  29.139   7.650
 6305POPC   NC326447  23.715   0.398   9.450
 6305POPC   PO426448  23.714   0.400   9.150
 6305POPC   GL126449  23.667   0.460   8.850
 6305POPC   GL226450  23.825   0.317   8.850
 6305POPC   C1A26451  23.762   0.393   8.550
 6305POPC   D2A26452  23.751   0.486   8.250
 6305POPC   C3A26453  23.753   0.435   7.950
 6305POPC   C4A26454  23.680   0.478   7.650
 6305POPC   C1B26455  23.929   0.286   8.550
 6305POPC   C2B26456  23.874   0.279   8.250
 6305POPC   C3B26457  23.914   0.312   7.950
 6305POPC   C4B26458  23.961   0.342   7.650
 6306POPC   NC326459  32.280   8.941   9.450
 6306POPC   PO426460  32.268   9.010   9.150
 6306POPC   GL126461  32.278   8.975   8.850
 6306POPC   GL226462  32.235   8.819   8.850
 6306POPC   C1A26463  32.265   9.011   8.550
 6306POPC   D2A26464  32.271   8.966   8.250
 6306POPC   C3A26465  32.240   8.970   7.950
 6306POPC   C4A26466  32.274   8.954   7.650
 6306POPC   C1B26467  32.286   8.693   8.550
 6306POPC   C2B26468  32.265   8.679   8.250
 6306POPC   C3B26469  32.260   8.694   7.950
 6306POPC   C4B26470  32.299   8.770   7.650
 6307POPC   NC326471  29.960  12.106   9.450
 6307POPC   PO426472  29.916  12.063   9.150
 6307POPC   GL126473  29.910  12.069   8.850
 6307POPC   GL226474  29.976  12.004   8.850
 6307POPC   C1A26475  29.889  12.069   8.550
 6307POPC   D2A26476  29.871  12.110   8.250
 6307POPC   C3A26477  29.928  12.057   7.950
 6307POPC   C4A26478  29.927  12.108   7.650
 6307POPC   C1B26479  30.052  11.840   8.550
 6307POPC   C2B26480  30.078  11.888   8.250
 6307POPC   C3B26481  30.087  11.860   7.950
 6307POPC   C4B26482  30.005  11.877   7.650
 6308POPC   NC326483  37.648  31.499   9.450
 6308POPC   PO426484  37.646  31.462   9.150
 6308POPC   GL126485  37.690  31.442   8.850
 6308POPC   GL226486  37.833  31.548   8.850
 6308POPC   C1A26487  37.634  31.461   8.550
 6308POPC   D2A26488  37.717  31.447   8.250
 6308POPC   C3A26489  37.702  31.501   7.950
 6308POPC   C4A26490  37.672  31.473   7.650
 6308POPC   C1B26491  37.881  31.574   8.550
 6308POPC   C2B26492  37.936  31.602   8.250
 6308POPC   C3B26493  37.871  31.547   7.950
 6308POPC   C4B26494  37.909  31.530   7.650
 6309POPC   NC326495  36.883   7.411   9.450
 6309POPC   PO426496  36.944   7.399   9.150
 6309POPC   GL126497  36.945   7.464   8.850
 6309POPC   GL226498  37.003   7.511   8.850
 6309POPC   C1A26499  36.892   7.424   8.550
 6309POPC   D2A26500  36.898   7.447   8.250
 6309POPC   C3A26501  36.897   7.401   7.950
 6309POPC   C4A26502  36.932   7.447   7.650
 6309POPC   C1B26503  37.095   7.584   8.550
 6309POPC   C2B26504  37.120   7.559   8.250
 6309POPC   C3B26505  37.160   7.547   7.950
 6309POPC   C4B26506  37.117   7.522   7.650
 6310POPC   NC326507   2.805  31.474   9.450
 6310POPC   PO426508   2.755  31.514   9.150
 6310POPC   GL126509   2.742  31.477   8.850
 6310POPC   GL226510   2.614  31.429   8.850
 6310POPC   C1A26511   2.761  31.482   8.550
 6310POPC   D2A26512   2.793  31.461   8.250
 6310POPC   C3A26513   2.728  31.487   7.950
 6310POPC   C4A26514   2.752  31.486   7.650
 6310POPC   C1B26515   2.529  31.452   8.550
 6310POPC   C2B26516   2.557  31.423   8.250
 6310POPC   C3B26517   2.514  31.402   7.950
 6310POPC   C4B26518   2.533  31.472   7.650
 6311POPC   NC326519  23.752  44.679   9.450
 6311POPC   PO426520  23.678  44.702   9.150
 6311POPC   GL126521  23.697  44.661   8.850
 6311POPC   GL226522  23.866  44.599   8.850
 6311POPC   C1A26523  23.744  44.638   8.550
 6311POPC   D2A26524  23.740  44.622   8.250
 6311POPC   C3A26525  23.716  44.694   7.950
 6311POPC   C4A26526  23.738  44.696   7.650
 6311POPC   C1B26527  23.953  44.592   8.550
 6311POPC   C2B26528  23.980  44.624   8.250
 6311POPC   C3B26529  23.958  44.591   7.950
 6311POPC   C4B26530  23.972  44.561   7.650
 6312POPC   NC326531  30.666   1.963   9.450
 6312POPC   PO426532  30.706   1.999   9.150
 6312POPC   GL126533  30.699   1.991   8.850
 6312POPC   GL226534  30.849   1.972   8.850
 6312POPC   C1A26535  30.727   1.990   8.550
 6312POPC   D2A26536  30.674   1.954   8.250
 6312POPC   C3A26537  30.739   1.970   7.950
 6312POPC   C4A26538  30.710   1.973   7.650
 6312POPC   C1B26539  30.959   2.004   8.550
 6312POPC   C2B26540  30.917   2.054   8.250
 6312POPC   C3B26541  30.939   2.060   7.950
 6312POPC   C4B26542  30.929   2.029   7.650
 6313POPC   NC326543  15.220  26.806   9.450
 6313POPC   PO426544  15.187  26.802   9.150
 6313POPC   GL126545  15.188  26.856   8.850
 6313POPC   GL226546  15.293  26.731   8.850
 6313POPC   C1A26547  15.137  26.781   8.550
 6313POPC   D2A26548  15.135  26.842   8.250
 6313POPC   C3A26549  15.156  26.788   7.950
 6313POPC   C4A26550  15.204  26.812   7.650
 6313POPC   C1B26551  15.371  26.692   8.550
 6313POPC   C2B26552  15.400  26.684   8.250
 6313POPC   C3B26553  15.372  26.683   7.950
 6313POPC   C4B26554  15.433  26.694   7.650
 6314POPC   NC326555  18.234   3.538   9.450
 6314POPC   PO426556  18.331   3.548   9.150
 6314POPC   GL126557  18.327   3.515   8.850
 6314POPC   GL226558  18.129   3.621   8.850
 6314POPC   C1A26559  18.265   3.585   8.550
 6314POPC   D2A26560  18.288   3.517   8.250
 6314POPC   C3A26561  18.255   3.586   7.950
 6314POPC   C4A26562  18.263   3.549   7.650
 6314POPC   C1B26563  18.004   3.659   8.550
 6314POPC   C2B26564  18.085   3.625   8.250
 6314POPC   C3B26565  18.063   3.641   7.950
 6314POPC   C4B26566  18.063   3.606   7.650
 6315POPC   NC326567  15.141  44.618   9.450
 6315POPC   PO426568  15.184  44.620   9.150
 6315POPC   GL126569  15.211  44.645   8.850
 6315POPC   GL226570  15.069  44.661   8.850
 6315POPC   C1A26571  15.163  44.677   8.550
 6315POPC   D2A26572  15.211  44.707   8.250
 6315POPC   C3A26573  15.201  44.660   7.950
 6315POPC   C4A26574  15.216  44.693   7.650
 6315POPC   C1B26575  14.901  44.678   8.550
 6315POPC   C2B26576  14.974  44.670   8.250
 6315POPC   C3B26577  14.909  44.639   7.950
 6315POPC   C4B26578  14.923  44.618   7.650
 6316POPC   NC326579  34.580  26.842   9.450
 6316POPC   PO426580  34.619  26.772   9.150
 6316POPC   GL126581  34.533  26.849   8.850
 6316POPC   GL226582  34.655  26.665   8.850
 6316POPC   C1A26583  34.625  26.819   8.550
 6316POPC   D2A26584  34.565  26.770   8.250
 6316POPC   C3A26585  34.537  26.771   7.950
 6316POPC   C4A26586  34.615  26.845   7.650
 6316POPC   C1B26587  34.662  26.543   8.550
 6316POPC   C2B26588  34.676  26.590   8.250
 6316POPC   C3B26589  34.664  26.628   7.950
 6316POPC   C4B26590  34.703  26.572   7.650
 6317POPC   NC326591  19.787  42.309   9.450
 6317POPC   PO426592  19.860  42.300   9.150
 6317POPC   GL126593  19.809  42.357   8.850
 6317POPC   GL226594  19.942  42.256   8.850
 6317POPC   C1A26595  19.848  42.369   8.550
 6317POPC   D2A26596  19.801  42.374   8.250
 6317POPC   C3A26597  19.840  42.341   7.950
 6317POPC   C4A26598  19.870  42.293   7.650
 6317POPC   C1B26599  19.959  42.076   8.550
 6317POPC   C2B26600  19.955  42.152   8.250
 6317POPC   C3B26601  19.935  42.126   7.950
 6317POPC   C4B26602  19.928  42.077   7.650
 6318POPC   NC326603  24.521   5.075   9.450
 6318POPC   PO426604  24.504   5.086   9.150
 6318POPC   GL126605  24.475   5.092   8.850
 6318POPC   GL226606  24.643   5.057   8.850
 6318POPC   C1A26607  24.449   5.088   8.550
 6318POPC   D2A26608  24.492   5.050   8.250
 6318POPC   C3A26609  24.483   5.078   7.950
 6318POPC   C4A26610  24.454   5.123   7.650
 6318POPC   C1B26611  24.701   5.141   8.550
 6318POPC   C2B26612  24.699   5.089   8.250
 6318POPC   C3B26613  24.694   5.099   7.950
 6318POPC   C4B26614  24.768   5.124   7.650
 6319POPC   NC326615  19.812   1.196   9.450
 6319POPC   PO426616  19.805   1.237   9.150
 6319POPC   GL126617  19.855   1.183   8.850
 6319POPC   GL226618  19.810   1.136   8.850
 6319POPC   C1A26619  19.800   1.196   8.550
 6319POPC   D2A26620  19.853   1.232   8.250
 6319POPC   C3A26621  19.865   1.225   7.950
 6319POPC   C4A26622  19.804   1.249   7.650
 6319POPC   C1B26623  19.801   0.922   8.550
 6319POPC   C2B26624  19.781   0.921   8.250
 6319POPC   C3B26625  19.850   0.983   7.950
 6319POPC   C4B26626  19.787   0.983   7.650
 6320POPC   NC326627   5.896  34.541   9.450
 6320POPC   PO426628   5.824  34.559   9.150
 6320POPC   GL126629   5.871  34.621   8.850
 6320POPC   GL226630   5.945  34.505   8.850
 6320POPC   C1A26631   5.889  34.611   8.550
 6320POPC   D2A26632   5.878  34.559   8.250
 6320POPC   C3A26633   5.872  34.616   7.950
 6320POPC   C4A26634   5.826  34.600   7.650
 6320POPC   C1B26635   5.935  34.318   8.550
 6320POPC   C2B26636   5.912  34.305   8.250
 6320POPC   C3B26637   5.989  34.334   7.950
 6320POPC   C4B26638   5.962  34.288   7.650
 6321POPC   NC326639  32.996  28.382   9.450
 6321POPC   PO426640  33.026  28.360   9.150
 6321POPC   GL126641  32.999  28.346   8.850
 6321POPC   GL226642  32.906  28.277   8.850
 6321POPC   C1A26643  33.022  28.398   8.550
 6321POPC   D2A26644  33.052  28.377   8.250
 6321POPC   C3A26645  32.988  28.331   7.950
 6321POPC   C4A26646  33.040  28.342   7.650
 6321POPC   C1B26647  32.827  28.188   8.550
 6321POPC   C2B26648  32.815  28.216   8.250
 6321POPC   C3B26649  32.859  28.207   7.950
 6321POPC   C4B26650  32.810  28.272   7.650
 6322POPC   NC326651   0.463   1.991   9.450
 6322POPC   PO426652   0.459   1.954   9.150
 6322POPC   GL126653   0.423   1.975   8.850
 6322POPC   GL226654   0.341   1.859   8.850
 6322POPC   C1A26655   0.428   1.983   8.550
 6322POPC   D2A26656   0.487   2.039   8.250
 6322POPC   C3A26657   0.475   1.947   7.950
 6322POPC   C4A26658   0.438   1.943   7.650
 6322POPC   C1B26659   0.276   1.792   8.550
 6322POPC   C2B26660   0.305   1.798   8.250
 6322POPC   C3B26661   0.294   1.737   7.950
 6322POPC   C4B26662   0.300   1.792   7.650
 6323POPC   NC326663  27.593  23.705   9.450
 6323POPC   PO426664  27.558  23.707   9.150
 6323POPC   GL126665  27.548  23.742   8.850
 6323POPC   GL226666  27.630  23.639   8.850
 6323POPC   C1A26667  27.638  23.741   8.550
 6323POPC   D2A26668  27.564  23.729   8.250
 6323POPC   C3A26669  27.564  23.672   7.950
 6323POPC   C4A26670  27.611  23.717   7.650
 6323POPC   C1B26671  27.793  23.469   8.550
 6323POPC   C2B26672  27.744  23.538   8.250
 6323POPC   C3B26673  27.777  23.511   7.950
 6323POPC   C4B26674  27.785  23.465   7.650
 6324POPC   NC326675  31.501  14.445   9.450
 6324POPC   PO426676  31.445  14.357   9.150
 6324POPC   GL126677  31.427  14.367   8.850
 6324POPC   GL226678  31.544  14.289   8.850
 6324POPC   C1A26679  31.426  14.356   8.550
 6324POPC   D2A26680  31.482  14.396   8.250
 6324POPC   C3A26681  31.484  14.366   7.950
 6324POPC   C4A26682  31.458  14.422   7.650
 6324POPC   C1B26683  31.592  14.200   8.550
 6324POPC   C2B26684  31.550  14.151   8.250
 6324POPC   C3B26685  31.633  14.150   7.950
 6324POPC   C4B26686  31.557  14.191   7.650
 6325POPC   NC326687   4.340  32.254   9.450
 6325POPC   PO426688   4.268  32.230   9.150
 6325POPC   GL126689   4.278  32.271   8.850
 6325POPC   GL226690   4.222  32.159   8.850
 6325POPC   C1A26691   4.315  32.276   8.550
 6325POPC   D2A26692   4.304  32.237   8.250
 6325POPC   C3A26693   4.277  32.293   7.950
 6325POPC   C4A26694   4.359  32.257   7.650
 6325POPC   C1B26695   4.045  32.114   8.550
 6325POPC   C2B26696   4.047  32.181   8.250
 6325POPC   C3B26697   4.107  32.177   7.950
 6325POPC   C4B26698   4.064  32.145   7.650
 6326POPC   NC326699  37.682  37.714   9.450
 6326POPC   PO426700  37.686  37.675   9.150
 6326POPC   GL126701  37.692  37.690   8.850
 6326POPC   GL226702  37.739  37.510   8.850
 6326POPC   C1A26703  37.673  37.705   8.550
 6326POPC   D2A26704  37.715  37.675   8.250
 6326POPC   C3A26705  37.672  37.689   7.950
 6326POPC   C4A26706  37.649  37.709   7.650
 6326POPC   C1B26707  37.690  37.420   8.550
 6326POPC   C2B26708  37.701  37.411   8.250
 6326POPC   C3B26709  37.750  37.478   7.950
 6326POPC   C4B26710  37.737  37.479   7.650
 6327POPC   NC326711  36.907  32.279   9.450
 6327POPC   PO426712  36.893  32.236   9.150
 6327POPC   GL126713  36.921  32.246   8.850
 6327POPC   GL226714  36.970  32.267   8.850
 6327POPC   C1A26715  36.943  32.285   8.550
 6327POPC   D2A26716  36.905  32.286   8.250
 6327POPC   C3A26717  36.891  32.280   7.950
 6327POPC   C4A26718  36.953  32.204   7.650
 6327POPC   C1B26719  37.135  32.345   8.550
 6327POPC   C2B26720  37.132  32.397   8.250
 6327POPC   C3B26721  37.144  32.354   7.950
 6327POPC   C4B26722  37.075  32.357   7.650
 6328POPC   NC326723  42.307  35.396   9.450
 6328POPC   PO426724  42.324  35.384   9.150
 6328POPC   GL126725  42.300  35.365   8.850
 6328POPC   GL226726  42.439  35.490   8.850
 6328POPC   C1A26727  42.378  35.341   8.550
 6328POPC   D2A26728  42.359  35.319   8.250
 6328POPC   C3A26729  42.323  35.322   7.950
 6328POPC   C4A26730  42.376  35.368   7.650
 6328POPC   C1B26731  42.506  35.610   8.550
 6328POPC   C2B26732  42.495  35.581   8.250
 6328POPC   C3B26733  42.433  35.524   7.950
 6328POPC   C4B26734  42.477  35.603   7.650
 6329POPC   NC326735  27.548   1.217   9.450
 6329POPC   PO426736  27.556   1.208   9.150
 6329POPC   GL126737  27.546   1.197   8.850
 6329POPC   GL226738  27.558   1.315   8.850
 6329POPC   C1A26739  27.621   1.207   8.550
 6329POPC   D2A26740  27.634   1.193   8.250
 6329POPC   C3A26741  27.601   1.239   7.950
 6329POPC   C4A26742  27.589   1.235   7.650
 6329POPC   C1B26743  27.584   1.420   8.550
 6329POPC   C2B26744  27.519   1.444   8.250
 6329POPC   C3B26745  27.598   1.509   7.950
 6329POPC   C4B26746  27.594   1.442   7.650
 6330POPC   NC326747  41.512  28.382   9.450
 6330POPC   PO426748  41.608  28.354   9.150
 6330POPC   GL126749  41.527  28.349   8.850
 6330POPC   GL226750  41.633  28.341   8.850
 6330POPC   C1A26751  41.554  28.322   8.550
 6330POPC   D2A26752  41.576  28.343   8.250
 6330POPC   C3A26753  41.558  28.414   7.950
 6330POPC   C4A26754  41.574  28.334   7.650
 6330POPC   C1B26755  41.841  28.271   8.550
 6330POPC   C2B26756  41.768  28.267   8.250
 6330POPC   C3B26757  41.774  28.276   7.950
 6330POPC   C4B26758  41.825  28.349   7.650
 6331POPC   NC326759  20.612  38.425   9.450
 6331POPC   PO426760  20.598  38.409   9.150
 6331POPC   GL126761  20.600  38.441   8.850
 6331POPC   GL226762  20.725  38.492   8.850
 6331POPC   C1A26763  20.602  38.496   8.550
 6331POPC   D2A26764  20.657  38.434   8.250
 6331POPC   C3A26765  20.639  38.450   7.950
 6331POPC   C4A26766  20.635  38.505   7.650
 6331POPC   C1B26767  20.827  38.480   8.550
 6331POPC   C2B26768  20.833  38.503   8.250
 6331POPC   C3B26769  20.895  38.481   7.950
 6331POPC   C4B26770  20.851  38.429   7.650
 6332POPC   NC326771  24.470  36.907   9.450
 6332POPC   PO426772  24.493  36.896   9.150
 6332POPC   GL126773  24.458  36.855   8.850
 6332POPC   GL226774  24.578  37.003   8.850
 6332POPC   C1A26775  24.517  36.910   8.550
 6332POPC   D2A26776  24.511  36.942   8.250
 6332POPC   C3A26777  24.518  36.937   7.950
 6332POPC   C4A26778  24.495  36.905   7.650
 6332POPC   C1B26779  24.566  37.153   8.550
 6332POPC   C2B26780  24.573  37.163   8.250
 6332POPC   C3B26781  24.594  37.121   7.950
 6332POPC   C4B26782  24.596  37.117   7.650
 6333POPC   NC326783  34.534   1.170   9.450
 6333POPC   PO426784  34.623   1.167   9.150
 6333POPC   GL126785  34.580   1.176   8.850
 6333POPC   GL226786  34.524   1.151   8.850
 6333POPC   C1A26787  34.621   1.220   8.550
 6333POPC   D2A26788  34.615   1.255   8.250
 6333POPC   C3A26789  34.602   1.246   7.950
 6333POPC   C4A26790  34.554   1.248   7.650
 6333POPC   C1B26791  34.470   1.058   8.550
 6333POPC   C2B26792  34.393   1.005   8.250
 6333POPC   C3B26793  34.403   0.975   7.950
 6333POPC   C4B26794  34.392   1.053   7.650
 6334POPC   NC326795   6.677  35.321   9.450
 6334POPC   PO426796   6.613  35.306   9.150
 6334POPC   GL126797   6.691  35.379   8.850
 6334POPC   GL226798   6.587  35.452   8.850
 6334POPC   C1A26799   6.674  35.313   8.550
 6334POPC   D2A26800   6.595  35.376   8.250
 6334POPC   C3A26801   6.666  35.325   7.950
 6334POPC   C4A26802   6.596  35.303   7.650
 6334POPC   C1B26803   6.422  35.562   8.550
 6334POPC   C2B26804   6.498  35.539   8.250
 6334POPC   C3B26805   6.462  35.493   7.950
 6334POPC   C4B26806   6.479  35.525   7.650
 6335POPC   NC326807  35.303  29.919   9.450
 6335POPC   PO426808  35.396  29.962   9.150
 6335POPC   GL126809  35.358  29.879   8.850
 6335POPC   GL226810  35.481  29.971   8.850
 6335POPC   C1A26811  35.348  29.928   8.550
 6335POPC   D2A26812  35.364  29.875   8.250
 6335POPC   C3A26813  35.401  29.924   7.950
 6335POPC   C4A26814  35.381  29.945   7.650
 6335POPC   C1B26815  35.557  29.910   8.550
 6335POPC   C2B26816  35.575  29.972   8.250
 6335POPC   C3B26817  35.627  29.964   7.950
 6335POPC   C4B26818  35.637  29.992   7.650
 6336POPC   NC326819  39.231  10.561   9.450
 6336POPC   PO426820  39.185  10.520   9.150
 6336POPC   GL126821  39.273  10.553   8.850
 6336POPC   GL226822  39.206  10.392   8.850
 6336POPC   C1A26823  39.221  10.483   8.550
 6336POPC   D2A26824  39.224  10.547   8.250
 6336POPC   C3A26825  39.256  10.564   7.950
 6336POPC   C4A26826  39.241  10.540   7.650
 6336POPC   C1B26827  39.123  10.352   8.550
 6336POPC   C2B26828  39.101  10.348   8.250
 6336POPC   C3B26829  39.116  10.322   7.950
 6336POPC   C4B26830  39.125  10.322   7.650
 6337POPC   NC326831  21.422   9.742   9.450
 6337POPC   PO426832  21.368   9.769   9.150
 6337POPC   GL126833  21.414   9.699   8.850
 6337POPC   GL226834  21.475   9.860   8.850
 6337POPC   C1A26835  21.366   9.742   8.550
 6337POPC   D2A26836  21.342   9.779   8.250
 6337POPC   C3A26837  21.420   9.711   7.950
 6337POPC   C4A26838  21.341   9.778   7.650
 6337POPC   C1B26839  21.584   9.904   8.550
 6337POPC   C2B26840  21.573   9.917   8.250
 6337POPC   C3B26841  21.567   9.920   7.950
 6337POPC   C4B26842  21.510   9.901   7.650
 6338POPC   NC326843  26.083  13.627   9.450
 6338POPC   PO426844  26.036  13.618   9.150
 6338POPC   GL126845  26.072  13.654   8.850
 6338POPC   GL226846  26.036  13.728   8.850
 6338POPC   C1A26847  26.033  13.621   8.550
 6338POPC   D2A26848  26.032  13.673   8.250
 6338POPC   C3A26849  26.088  13.590   7.950
 6338POPC   C4A26850  26.076  13.613   7.650
 6338POPC   C1B26851  26.000  13.842   8.550
 6338POPC   C2B26852  26.029  13.900   8.250
 6338POPC   C3B26853  25.996  13.832   7.950
 6338POPC   C4B26854  26.046  13.883   7.650
 6339POPC   NC326855  15.226  18.287   9.450
 6339POPC   PO426856  15.177  18.287   9.150
 6339POPC   GL126857  15.152  18.300   8.850
 6339POPC   GL226858  15.267  18.218   8.850
 6339POPC   C1A26859  15.162  18.274   8.550
 6339POPC   D2A26860  15.194  18.263   8.250
 6339POPC   C3A26861  15.139  18.322   7.950
 6339POPC   C4A26862  15.137  18.330   7.650
 6339POPC   C1B26863  15.442  18.167   8.550
 6339POPC   C2B26864  15.392  18.155   8.250
 6339POPC   C3B26865  15.420  18.202   7.950
 6339POPC   C4B26866  15.418  18.167   7.650
 6340POPC   NC326867  17.549  29.161   9.450
 6340POPC   PO426868  17.505  29.194   9.150
 6340POPC   GL126869  17.513  29.191   8.850
 6340POPC   GL226870  17.505  29.056   8.850
 6340POPC   C1A26871  17.532  29.150   8.550
 6340POPC   D2A26872  17.468  29.098   8.250
 6340POPC   C3A26873  17.471  29.174   7.950
 6340POPC   C4A26874  17.495  29.137   7.650
 6340POPC   C1B26875  17.483  28.918   8.550
 6340POPC   C2B26876  17.452  28.934   8.250
 6340POPC   C3B26877  17.519  28.886   7.950
 6340POPC   C4B26878  17.432  28.911   7.650
 6341POPC   NC326879  34.567  19.017   9.450
 6341POPC   PO426880  34.575  19.101   9.150
 6341POPC   GL126881  34.572  19.019   8.850
 6341POPC   GL226882  34.433  19.018   8.850
 6341POPC   C1A26883  34.559  19.038   8.550
 6341POPC   D2A26884  34.599  19.061   8.250
 6341POPC   C3A26885  34.526  19.063   7.950
 6341POPC   C4A26886  34.544  19.023   7.650
 6341POPC   C1B26887  34.327  18.956   8.550
 6341POPC   C2B26888  34.290  18.975   8.250
 6341POPC   C3B26889  34.326  18.945   7.950
 6341POPC   C4B26890  34.312  18.943   7.650
 6342POPC   NC326891  25.998  11.315   9.450
 6342POPC   PO426892  26.016  11.285   9.150
 6342POPC   GL126893  26.017  11.279   8.850
 6342POPC   GL226894  25.946  11.432   8.850
 6342POPC   C1A26895  26.078  11.291   8.550
 6342POPC   D2A26896  26.061  11.322   8.250
 6342POPC   C3A26897  25.994  11.289   7.950
 6342POPC   C4A26898  26.082  11.343   7.650
 6342POPC   C1B26899  25.882  11.470   8.550
 6342POPC   C2B26900  25.924  11.566   8.250
 6342POPC   C3B26901  25.874  11.468   7.950
 6342POPC   C4B26902  25.963  11.509   7.650
 6343POPC   NC326903  36.944  17.533   9.450
 6343POPC   PO426904  36.918  17.542   9.150
 6343POPC   GL126905  36.896  17.478   8.850
 6343POPC   GL226906  36.916  17.594   8.850
 6343POPC   C1A26907  36.857  17.527   8.550
 6343POPC   D2A26908  36.877  17.532   8.250
 6343POPC   C3A26909  36.932  17.555   7.950
 6343POPC   C4A26910  36.906  17.479   7.650
 6343POPC   C1B26911  36.991  17.763   8.550
 6343POPC   C2B26912  36.960  17.716   8.250
 6343POPC   C3B26913  37.031  17.739   7.950
 6343POPC   C4B26914  37.039  17.775   7.650
 6344POPC   NC326915  31.485   8.978   9.450
 6344POPC   PO426916  31.433   8.988   9.150
 6344POPC   GL126917  31.491   9.020   8.850
 6344POPC   GL226918  31.468   9.060   8.850
 6344POPC   C1A26919  31.434   9.016   8.550
 6344POPC   D2A26920  31.460   8.983   8.250
 6344POPC   C3A26921  31.452   8.961   7.950
 6344POPC   C4A26922  31.490   8.982   7.650
 6344POPC   C1B26923  31.444   9.262   8.550
 6344POPC   C2B26924  31.446   9.186   8.250
 6344POPC   C3B26925  31.435   9.237   7.950
 6344POPC   C4B26926  31.423   9.196   7.650
 6345POPC   NC326927  43.101  44.668   9.450
 6345POPC   PO426928  43.083  44.671   9.150
 6345POPC   GL126929  43.109  44.691   8.850
 6345POPC   GL226930  43.022  44.706   8.850
 6345POPC   C1A26931  43.137  44.670   8.550
 6345POPC   D2A26932  43.080  44.706   8.250
 6345POPC   C3A26933  43.114  44.654   7.950
 6345POPC   C4A26934  43.139  44.665   7.650
 6345POPC   C1B26935  42.911  44.789   8.550
 6345POPC   C2B26936  42.893  44.781   8.250
 6345POPC   C3B26937  42.908  44.773   7.950
 6345POPC   C4B26938  42.901  44.752   7.650
 6346POPC   NC326939  25.259  28.412   9.450
 6346POPC   PO426940  25.259  28.397   9.150
 6346POPC   GL126941  25.295  28.324   8.850
 6346POPC   GL226942  25.151  28.475   8.850
 6346POPC   C1A26943  25.280  28.347   8.550
 6346POPC   D2A26944  25.305  28.345   8.250
 6346POPC   C3A26945  25.254  28.345   7.950
 6346POPC   C4A26946  25.262  28.377   7.650
 6346POPC   C1B26947  25.005  28.488   8.550
 6346POPC   C2B26948  25.042  28.442   8.250
 6346POPC   C3B26949  25.042  28.516   7.950
 6346POPC   C4B26950  25.090  28.474   7.650
 6347POPC   NC326951  34.605   9.766   9.450
 6347POPC   PO426952  34.570   9.718   9.150
 6347POPC   GL126953  34.526   9.732   8.850
 6347POPC   GL226954  34.473   9.626   8.850
 6347POPC   C1A26955  34.532   9.700   8.550
 6347POPC   D2A26956  34.536   9.762   8.250
 6347POPC   C3A26957  34.610   9.730   7.950
 6347POPC   C4A26958  34.545   9.739   7.650
 6347POPC   C1B26959  34.381   9.593   8.550
 6347POPC   C2B26960  34.394   9.565   8.250
 6347POPC   C3B26961  34.477   9.552   7.950
 6347POPC   C4B26962  34.404   9.587   7.650
 6348POPC   NC326963  28.366   5.908   9.450
 6348POPC   PO426964  28.348   5.884   9.150
 6348POPC   GL126965  28.375   5.846   8.850
 6348POPC   GL226966  28.247   5.855   8.850
 6348POPC   C1A26967  28.343   5.870   8.550
 6348POPC   D2A26968  28.387   5.857   8.250
 6348POPC   C3A26969  28.383   5.867   7.950
 6348POPC   C4A26970  28.398   5.905   7.650
 6348POPC   C1B26971  28.154   5.814   8.550
 6348POPC   C2B26972  28.118   5.827   8.250
 6348POPC   C3B26973  28.155   5.835   7.950
 6348POPC   C4B26974  28.146   5.862   7.650
 6349POPC   NC326975  41.530   0.417   9.450
 6349POPC   PO426976  41.549   0.391   9.150
 6349POPC   GL126977  41.574   0.435   8.850
 6349POPC   GL226978  41.462   0.406   8.850
 6349POPC   C1A26979  41.571   0.440   8.550
 6349POPC   D2A26980  41.577   0.485   8.250
 6349POPC   C3A26981  41.522   0.407   7.950
 6349POPC   C4A26982  41.527   0.420   7.650
 6349POPC   C1B26983  41.351   0.346   8.550
 6349POPC   C2B26984  41.314   0.365   8.250
 6349POPC   C3B26985  41.380   0.285   7.950
 6349POPC   C4B26986  41.296   0.294   7.650
 6350POPC   NC326987  39.980  25.249   9.450
 6350POPC   PO426988  40.043  25.301   9.150
 6350POPC   GL126989  40.036  25.283   8.850
 6350POPC   GL226990  40.163  25.270   8.850
 6350POPC   C1A26991  40.056  25.282   8.550
 6350POPC   D2A26992  40.000  25.288   8.250
 6350POPC   C3A26993  40.016  25.285   7.950
 6350POPC   C4A26994  40.007  25.221   7.650
 6350POPC   C1B26995  40.257  25.128   8.550
 6350POPC   C2B26996  40.192  25.210   8.250
 6350POPC   C3B26997  40.217  25.162   7.950
 6350POPC   C4B26998  40.276  25.171   7.650
 6351POPC   NC326999  25.233  43.155   9.450
 6351POPC   PO427000  25.307  43.071   9.150
 6351POPC   GL127001  25.245  43.104   8.850
 6351POPC   GL227002  25.268  43.259   8.850
 6351POPC   C1A27003  25.307  43.120   8.550
 6351POPC   D2A27004  25.300  43.110   8.250
 6351POPC   C3A27005  25.232  43.074   7.950
 6351POPC   C4A27006  25.253  43.098   7.650
 6351POPC   C1B27007  25.163  43.383   8.550
 6351POPC   C2B27008  25.143  43.308   8.250
 6351POPC   C3B27009  25.186  43.379   7.950
 6351POPC   C4B27010  25.157  43.376   7.650
 6352POPC   NC327011  16.741  19.099   9.450
 6352POPC   PO427012  16.705  19.053   9.150
 6352POPC   GL127013  16.737  19.097   8.850
 6352POPC   GL227014  16.817  18.933   8.850
 6352POPC   C1A27015  16.753  19.035   8.550
 6352POPC   D2A27016  16.780  19.098   8.250
 6352POPC   C3A27017  16.713  19.046   7.950
 6352POPC   C4A27018  16.718  19.022   7.650
 6352POPC   C1B27019  16.867  18.871   8.550
 6352POPC   C2B27020  16.928  18.825   8.250
 6352POPC   C3B27021  16.875  18.831   7.950
 6352POPC   C4B27022  16.892  18.894   7.650
 6353POPC   NC327023  26.014  20.577   9.450
 6353POPC   PO427024  26.026  20.611   9.150
 6353POPC   GL127025  26.021  20.565   8.850
 6353POPC   GL227026  25.914  20.652   8.850
 6353POPC   C1A27027  26.091  20.654   8.550
 6353POPC   D2A27028  26.070  20.563   8.250
 6353POPC   C3A27029  26.041  20.612   7.950
 6353POPC   C4A27030  26.087  20.627   7.650
 6353POPC   C1B27031  25.880  20.760   8.550
 6353POPC   C2B27032  25.885  20.798   8.250
 6353POPC   C3B27033  25.813  20.734   7.950
 6353POPC   C4B27034  25.873  20.739   7.650
 6354POPC   NC327035   5.140  34.546   9.450
 6354POPC   PO427036   5.062  34.613   9.150
 6354POPC   GL127037   5.097  34.554   8.850
 6354POPC   GL227038   4.989  34.514   8.850
 6354POPC   C1A27039   5.066  34.615   8.550
 6354POPC   D2A27040   5.099  34.619   8.250
 6354POPC   C3A27041   5.142  34.565   7.950
 6354POPC   C4A27042   5.082  34.598   7.650
 6354POPC   C1B27043   4.885  34.483   8.550
 6354POPC   C2B27044   4.870  34.527   8.250
 6354POPC   C3B27045   4.808  34.500   7.950
 6354POPC   C4B27046   4.855  34.479   7.650
 6355POPC   NC327047  16.002  26.063   9.450
 6355POPC   PO427048  15.914  26.032   9.150
 6355POPC   GL127049  15.973  26.017   8.850
 6355POPC   GL227050  16.110  25.983   8.850
 6355POPC   C1A27051  15.922  26.087   8.550
 6355POPC   D2A27052  15.969  25.993   8.250
 6355POPC   C3A27053  15.932  26.046   7.950
 6355POPC   C4A27054  15.914  26.056   7.650
 6355POPC   C1B27055  16.232  26.037   8.550
 6355POPC   C2B27056  16.160  25.983   8.250
 6355POPC   C3B27057  16.243  25.969   7.950
 6355POPC   C4B27058  16.184  26.059   7.650
 6356POPC   NC327059  16.777  40.788   9.450
 6356POPC   PO427060  16.686  40.759   9.150
 6356POPC   GL127061  16.750  40.800   8.850
 6356POPC   GL227062  16.639  40.809   8.850
 6356POPC   C1A27063  16.772  40.820   8.550
 6356POPC   D2A27064  16.724  40.737   8.250
 6356POPC   C3A27065  16.693  40.790   7.950
 6356POPC   C4A27066  16.738  40.743   7.650
 6356POPC   C1B27067  16.494  40.804   8.550
 6356POPC   C2B27068  16.443  40.799   8.250
 6356POPC   C3B27069  16.502  40.789   7.950
 6356POPC   C4B27070  16.504  40.741   7.650
 6357POPC   NC327071  36.888  25.307   9.450
 6357POPC   PO427072  36.952  25.310   9.150
 6357POPC   GL127073  36.925  25.239   8.850
 6357POPC   GL227074  36.999  25.336   8.850
 6357POPC   C1A27075  36.908  25.241   8.550
 6357POPC   D2A27076  36.950  25.232   8.250
 6357POPC   C3A27077  36.910  25.295   7.950
 6357POPC   C4A27078  36.886  25.310   7.650
 6357POPC   C1B27079  37.079  25.487   8.550
 6357POPC   C2B27080  37.042  25.495   8.250
 6357POPC   C3B27081  37.090  25.470   7.950
 6357POPC   C4B27082  37.045  25.461   7.650
 6358POPC   NC327083  18.315  29.920   9.450
 6358POPC   PO427084  18.307  29.913   9.150
 6358POPC   GL127085  18.246  29.925   8.850
 6358POPC   GL227086  18.171  29.853   8.850
 6358POPC   C1A27087  18.327  29.884   8.550
 6358POPC   D2A27088  18.315  29.967   8.250
 6358POPC   C3A27089  18.288  29.929   7.950
 6358POPC   C4A27090  18.266  29.955   7.650
 6358POPC   C1B27091  18.180  29.732   8.550
 6358POPC   C2B27092  18.157  29.689   8.250
 6358POPC   C3B27093  18.135  29.709   7.950
 6358POPC   C4B27094  18.117  29.748   7.650
 6359POPC   NC327095  12.120  33.046   9.450
 6359POPC   PO427096  12.047  33.034   9.150
 6359POPC   GL127097  12.029  33.007   8.850
 6359POPC   GL227098  12.014  32.901   8.850
 6359POPC   C1A27099  12.030  33.047   8.550
 6359POPC   D2A27100  12.047  32.978   8.250
 6359POPC   C3A27101  12.041  32.994   7.950
 6359POPC   C4A27102  12.111  33.034   7.650
 6359POPC   C1B27103  11.996  32.768   8.550
 6359POPC   C2B27104  11.991  32.748   8.250
 6359POPC   C3B27105  11.987  32.776   7.950
 6359POPC   C4B27106  12.003  32.760   7.650
 6360POPC   NC327107  28.375  24.474   9.450
 6360POPC   PO427108  28.348  24.487   9.150
 6360POPC   GL127109  28.328  24.501   8.850
 6360POPC   GL227110  28.309  24.645   8.850
 6360POPC   C1A27111  28.339  24.482   8.550
 6360POPC   D2A27112  28.342  24.503   8.250
 6360POPC   C3A27113  28.329  24.511   7.950
 6360POPC   C4A27114  28.345  24.497   7.650
 6360POPC   C1B27115  28.314  24.752   8.550
 6360POPC   C2B27116  28.324  24.746   8.250
 6360POPC   C3B27117  28.320  24.775   7.950
 6360POPC   C4B27118  28.328  24.729   7.650
 6361POPC   NC327119  18.285  39.972   9.450
 6361POPC   PO427120  18.263  39.989   9.150
 6361POPC   GL127121  18.298  40.034   8.850
 6361POPC   GL227122  18.179  40.091   8.850
 6361POPC   C1A27123  18.295  39.993   8.550
 6361POPC   D2A27124  18.308  40.036   8.250
 6361POPC   C3A27125  18.313  40.009   7.950
 6361POPC   C4A27126  18.312  40.014   7.650
 6361POPC   C1B27127  18.099  40.184   8.550
 6361POPC   C2B27128  18.104  40.141   8.250
 6361POPC   C3B27129  18.126  40.159   7.950
 6361POPC   C4B27130  18.151  40.234   7.650
 6362POPC   NC327131  20.612  18.273   9.450
 6362POPC   PO427132  20.575  18.266   9.150
 6362POPC   GL127133  20.586  18.244   8.850
 6362POPC   GL227134  20.545  18.215   8.850
 6362POPC   C1A27135  20.633  18.328   8.550
 6362POPC   D2A27136  20.617  18.264   8.250
 6362POPC   C3A27137  20.654  18.309   7.950
 6362POPC   C4A27138  20.593  18.325   7.650
 6362POPC   C1B27139  20.387  18.106   8.550
 6362POPC   C2B27140  20.448  18.160   8.250
 6362POPC   C3B27141  20.423  18.104   7.950
 6362POPC   C4B27142  20.359  18.138   7.650
 6363POPC   NC327143   4.275  29.158   9.450
 6363POPC   PO427144   4.317  29.111   9.150
 6363POPC   GL127145   4.289  29.104   8.850
 6363POPC   GL227146   4.358  29.004   8.850
 6363POPC   C1A27147   4.316  29.159   8.550
 6363POPC   D2A27148   4.271  29.147   8.250
 6363POPC   C3A27149   4.283  29.119   7.950
 6363POPC   C4A27150   4.359  29.174   7.650
 6363POPC   C1B27151   4.404  28.902   8.550
 6363POPC   C2B27152   4.424  28.864   8.250
 6363POPC   C3B27153   4.410  28.882   7.950
 6363POPC   C4B27154   4.408  28.887   7.650
 6364POPC   NC327155  29.174   6.684   9.450
 6364POPC   PO427156  29.137   6.629   9.150
 6364POPC   GL127157  29.129   6.642   8.850
 6364POPC   GL227158  29.053   6.712   8.850
 6364POPC   C1A27159  29.120   6.613   8.550
 6364POPC   D2A27160  29.146   6.622   8.250
 6364POPC   C3A27161  29.160   6.640   7.950
 6364POPC   C4A27162  29.139   6.649   7.650
 6364POPC   C1B27163  28.906   6.733   8.550
 6364POPC   C2B27164  28.892   6.731   8.250
 6364POPC   C3B27165  28.912   6.757   7.950
 6364POPC   C4B27166  28.913   6.742   7.650
 6365POPC   NC327167  43.842  13.595   9.450
 6365POPC   PO427168  43.906  13.586   9.150
 6365POPC   GL127169  43.877  13.585   8.850
 6365POPC   GL227170  43.967  13.553   8.850
 6365POPC   C1A27171  43.893  13.612   8.550
 6365POPC   D2A27172  43.841  13.628   8.250
 6365POPC   C3A27173  43.870  13.662   7.950
 6365POPC   C4A27174  43.841  13.628   7.650
 6365POPC   C1B27175  44.096  13.433   8.550
 6365POPC   C2B27176  44.083  13.425   8.250
 6365POPC   C3B27177  44.050  13.488   7.950
 6365POPC   C4B27178  44.105  13.488   7.650
 6366POPC   NC327179   7.447   6.595   9.450
 6366POPC   PO427180   7.399   6.647   9.150
 6366POPC   GL127181   7.424   6.608   8.850
 6366POPC   GL227182   7.480   6.722   8.850
 6366POPC   C1A27183   7.376   6.644   8.550
 6366POPC   D2A27184   7.455   6.672   8.250
 6366POPC   C3A27185   7.412   6.657   7.950
 6366POPC   C4A27186   7.437   6.650   7.650
 6366POPC   C1B27187   7.554   6.796   8.550
 6366POPC   C2B27188   7.650   6.774   8.250
 6366POPC   C3B27189   7.584   6.838   7.950
 6366POPC   C4B27190   7.593   6.834   7.650
 6367POPC   NC327191  16.734  36.874   9.450
 6367POPC   PO427192  16.734  36.902   9.150
 6367POPC   GL127193  16.734  36.894   8.850
 6367POPC   GL227194  16.885  36.965   8.850
 6367POPC   C1A27195  16.720  36.863   8.550
 6367POPC   D2A27196  16.740  36.896   8.250
 6367POPC   C3A27197  16.710  36.877   7.950
 6367POPC   C4A27198  16.723  36.902   7.650
 6367POPC   C1B27199  16.909  36.996   8.550
 6367POPC   C2B27200  16.944  36.995   8.250
 6367POPC   C3B27201  16.913  37.014   7.950
 6367POPC   C4B27202  16.986  37.035   7.650
 6368POPC   NC327203  35.345  43.841   9.450
 6368POPC   PO427204  35.357  43.867   9.150
 6368POPC   GL127205  35.339  43.840   8.850
 6368POPC   GL227206  35.235  43.912   8.850
 6368POPC   C1A27207  35.374  43.904   8.550
 6368POPC   D2A27208  35.401  43.839   8.250
 6368POPC   C3A27209  35.311  43.929   7.950
 6368POPC   C4A27210  35.309  43.935   7.650
 6368POPC   C1B27211  35.133  43.915   8.550
 6368POPC   C2B27212  35.097  43.939   8.250
 6368POPC   C3B27213  35.142  43.922   7.950
 6368POPC   C4B27214  35.103  43.891   7.650
 6369POPC   NC327215  12.036  25.303   9.450
 6369POPC   PO427216  12.080  25.229   9.150
 6369POPC   GL127217  12.040  25.269   8.850
 6369POPC   GL227218  12.136  25.401   8.850
 6369POPC   C1A27219  12.041  25.311   8.550
 6369POPC   D2A27220  12.088  25.229   8.250
 6369POPC   C3A27221  12.124  25.253   7.950
 6369POPC   C4A27222  12.118  25.303   7.650
 6369POPC   C1B27223  12.276  25.503   8.550
 6369POPC   C2B27224  12.207  25.450   8.250
 6369POPC   C3B27225  12.267  25.452   7.950
 6369POPC   C4B27226  12.263  25.427   7.650
 6370POPC   NC327227  11.302  12.844   9.450
 6370POPC   PO427228  11.340  12.857   9.150
 6370POPC   GL127229  11.283  12.897   8.850
 6370POPC   GL227230  11.195  12.924   8.850
 6370POPC   C1A27231  11.252  12.886   8.550
 6370POPC   D2A27232  11.333  12.869   8.250
 6370POPC   C3A27233  11.285  12.852   7.950
 6370POPC   C4A27234  11.321  12.840   7.650
 6370POPC   C1B27235  11.100  13.027   8.550
 6370POPC   C2B27236  11.064  12.964   8.250
 6370POPC   C3B27237  11.121  13.020   7.950
 6370POPC   C4B27238  11.122  13.028   7.650
 6371POPC   NC327239  26.798  22.180   9.450
 6371POPC   PO427240  26.851  22.161   9.150
 6371POPC   GL127241  26.801  22.188   8.850
 6371POPC   GL227242  26.729  22.044   8.850
 6371POPC   C1A27243  26.857  22.204   8.550
 6371POPC   D2A27244  26.779  22.183   8.250
 6371POPC   C3A27245  26.819  22.152   7.950
 6371POPC   C4A27246  26.808  22.202   7.650
 6371POPC   C1B27247  26.695  21.972   8.550
 6371POPC   C2B27248  26.672  21.956   8.250
 6371POPC   C3B27249  26.741  21.956   7.950
 6371POPC   C4B27250  26.690  21.925   7.650
 6372POPC   NC327251   5.108  11.329   9.450
 6372POPC   PO427252   5.048  11.303   9.150
 6372POPC   GL127253   5.093  11.314   8.850
 6372POPC   GL227254   5.223  11.240   8.850
 6372POPC   C1A27255   5.132  11.254   8.550
 6372POPC   D2A27256   5.117  11.261   8.250
 6372POPC   C3A27257   5.105  11.336   7.950
 6372POPC   C4A27258   5.061  11.258   7.650
 6372POPC   C1B27259   5.284  11.128   8.550
 6372POPC   C2B27260   5.235  11.108   8.250
 6372POPC   C3B27261   5.287  11.141   7.950
 6372POPC   C4B27262   5.271  11.102   7.650
 6373POPC   NC327263  11.334  20.566   9.450
 6373POPC   PO427264  11.285  20.643   9.150
 6373POPC   GL127265  11.276  20.645   8.850
 6373POPC   GL227266  11.245  20.716   8.850
 6373POPC   C1A27267  11.332  20.656   8.550
 6373POPC   D2A27268  11.279  20.625   8.250
 6373POPC   C3A27269  11.271  20.621   7.950
 6373POPC   C4A27270  11.346  20.593   7.650
 6373POPC   C1B27271  11.182  20.816   8.550
 6373POPC   C2B27272  11.203  20.832   8.250
 6373POPC   C3B27273  11.200  20.877   7.950
 6373POPC   C4B27274  11.231  20.882   7.650
 6374POPC   NC327275  33.812  31.500   9.450
 6374POPC   PO427276  33.785  31.456   9.150
 6374POPC   GL127277  33.842  31.442   8.850
 6374POPC   GL227278  33.734  31.396   8.850
 6374POPC   C1A27279  33.815  31.459   8.550
 6374POPC   D2A27280  33.776  31.452   8.250
 6374POPC   C3A27281  33.796  31.502   7.950
 6374POPC   C4A27282  33.766  31.453   7.650
 6374POPC   C1B27283  33.557  31.415   8.550
 6374POPC   C2B27284  33.566  31.380   8.250
 6374POPC   C3B27285  33.534  31.404   7.950
 6374POPC   C4B27286  33.578  31.360   7.650
 6375POPC   NC327287   7.443  34.624   9.450
 6375POPC   PO427288   7.437  34.608   9.150
 6375POPC   GL127289   7.464  34.534   8.850
 6375POPC   GL227290   7.460  34.448   8.850
 6375POPC   C1A27291   7.412  34.601   8.550
 6375POPC   D2A27292   7.439  34.533   8.250
 6375POPC   C3A27293   7.430  34.586   7.950
 6375POPC   C4A27294   7.414  34.603   7.650
 6375POPC   C1B27295   7.624  34.409   8.550
 6375POPC   C2B27296   7.578  34.372   8.250
 6375POPC   C3B27297   7.564  34.368   7.950
 6375POPC   C4B27298   7.550  34.376   7.650
 6376POPC   NC327299   0.474  36.159   9.450
 6376POPC   PO427300   0.421  36.157   9.150
 6376POPC   GL127301   0.480  36.109   8.850
 6376POPC   GL227302   0.470  35.999   8.850
 6376POPC   C1A27303   0.398  36.148   8.550
 6376POPC   D2A27304   0.484  36.154   8.250
 6376POPC   C3A27305   0.447  36.112   7.950
 6376POPC   C4A27306   0.438  36.124   7.650
 6376POPC   C1B27307   0.519  35.885   8.550
 6376POPC   C2B27308   0.536  35.851   8.250
 6376POPC   C3B27309   0.533  35.925   7.950
 6376POPC   C4B27310   0.561  35.909   7.650
 6377POPC   NC327311   3.566  43.075   9.450
 6377POPC   PO427312   3.500  43.138   9.150
 6377POPC   GL127313   3.527  43.144   8.850
 6377POPC   GL227314   3.447  42.967   8.850
 6377POPC   C1A27315   3.555  43.126   8.550
 6377POPC   D2A27316   3.565  43.092   8.250
 6377POPC   C3A27317   3.584  43.115   7.950
 6377POPC   C4A27318   3.521  43.073   7.650
 6377POPC   C1B27319   3.393  42.916   8.550
 6377POPC   C2B27320   3.403  42.864   8.250
 6377POPC   C3B27321   3.475  42.868   7.950
 6377POPC   C4B27322   3.428  42.900   7.650
 6378POPC   NC327323  22.153  25.222   9.450
 6378POPC   PO427324  22.131  25.220   9.150
 6378POPC   GL127325  22.147  25.245   8.850
 6378POPC   GL227326  22.143  25.151   8.850
 6378POPC   C1A27327  22.181  25.311   8.550
 6378POPC   D2A27328  22.205  25.218   8.250
 6378POPC   C3A27329  22.157  25.306   7.950
 6378POPC   C4A27330  22.128  25.242   7.650
 6378POPC   C1B27331  22.138  25.030   8.550
 6378POPC   C2B27332  22.125  25.065   8.250
 6378POPC   C3B27333  22.129  25.070   7.950
 6378POPC   C4B27334  22.065  25.027   7.650
 6379POPC   NC327335  40.037  43.093   9.450
 6379POPC   PO427336  39.999  43.137   9.150
 6379POPC   GL127337  39.987  43.084   8.850
 6379POPC   GL227338  40.005  43.214   8.850
 6379POPC   C1A27339  40.033  43.066   8.550
 6379POPC   D2A27340  39.992  43.062   8.250
 6379POPC   C3A27341  39.982  43.072   7.950
 6379POPC   C4A27342  40.000  43.128   7.650
 6379POPC   C1B27343  40.090  43.320   8.550
 6379POPC   C2B27344  40.042  43.358   8.250
 6379POPC   C3B27345  40.085  43.375   7.950
 6379POPC   C4B27346  40.053  43.392   7.650
 6380POPC   NC327347  37.721  36.915   9.450
 6380POPC   PO427348  37.729  36.902   9.150
 6380POPC   GL127349  37.690  36.934   8.850
 6380POPC   GL227350  37.643  36.968   8.850
 6380POPC   C1A27351  37.664  36.911   8.550
 6380POPC   D2A27352  37.643  36.942   8.250
 6380POPC   C3A27353  37.637  36.874   7.950
 6380POPC   C4A27354  37.692  36.928   7.650
 6380POPC   C1B27355  37.505  37.076   8.550
 6380POPC   C2B27356  37.571  37.157   8.250
 6380POPC   C3B27357  37.554  37.121   7.950
 6380POPC   C4B27358  37.558  37.141   7.650
 6381POPC   NC327359  13.652  18.327   9.450
 6381POPC   PO427360  13.672  18.259   9.150
 6381POPC   GL127361  13.605  18.234   8.850
 6381POPC   GL227362  13.690  18.371   8.850
 6381POPC   C1A27363  13.598  18.236   8.550
 6381POPC   D2A27364  13.654  18.252   8.250
 6381POPC   C3A27365  13.649  18.241   7.950
 6381POPC   C4A27366  13.633  18.328   7.650
 6381POPC   C1B27367  13.862  18.394   8.550
 6381POPC   C2B27368  13.799  18.445   8.250
 6381POPC   C3B27369  13.806  18.467   7.950
 6381POPC   C4B27370  13.793  18.462   7.650
 6382POPC   NC327371   5.877   2.774   9.450
 6382POPC   PO427372   5.869   2.811   9.150
 6382POPC   GL127373   5.897   2.787   8.850
 6382POPC   GL227374   5.868   2.612   8.850
 6382POPC   C1A27375   5.828   2.809   8.550
 6382POPC   D2A27376   5.824   2.772   8.250
 6382POPC   C3A27377   5.860   2.813   7.950
 6382POPC   C4A27378   5.862   2.813   7.650
 6382POPC   C1B27379   5.878   2.514   8.550
 6382POPC   C2B27380   5.898   2.554   8.250
 6382POPC   C3B27381   5.862   2.538   7.950
 6382POPC   C4B27382   5.877   2.560   7.650
 6383POPC   NC327383   5.885  26.067   9.450
 6383POPC   PO427384   5.846  26.049   9.150
 6383POPC   GL127385   5.901  26.034   8.850
 6383POPC   GL227386   5.804  26.104   8.850
 6383POPC   C1A27387   5.858  26.060   8.550
 6383POPC   D2A27388   5.861  26.018   8.250
 6383POPC   C3A27389   5.881  26.005   7.950
 6383POPC   C4A27390   5.905  26.075   7.650
 6383POPC   C1B27391   5.709  26.279   8.550
 6383POPC   C2B27392   5.727  26.262   8.250
 6383POPC   C3B27393   5.674  26.188   7.950
 6383POPC   C4B27394   5.698  26.255   7.650
 6384POPC   NC327395  40.774  16.778   9.450
 6384POPC   PO427396  40.803  16.700   9.150
 6384POPC   GL127397  40.776  16.710   8.850
 6384POPC   GL227398  40.886  16.646   8.850
 6384POPC   C1A27399  40.792  16.692   8.550
 6384POPC   D2A27400  40.807  16.769   8.250
 6384POPC   C3A27401  40.776  16.766   7.950
 6384POPC   C4A27402  40.778  16.712   7.650
 6384POPC   C1B27403  40.896  16.566   8.550
 6384POPC   C2B27404  40.879  16.515   8.250
 6384POPC   C3B27405  40.904  16.479   7.950
 6384POPC   C4B27406  40.925  16.544   7.650
 6385POPC   NC327407   9.727  38.430   9.450
 6385POPC   PO427408   9.783  38.500   9.150
 6385POPC   GL127409   9.741  38.501   8.850
 6385POPC   GL227410   9.642  38.606   8.850
 6385POPC   C1A27411   9.723  38.482   8.550
 6385POPC   D2A27412   9.742  38.477   8.250
 6385POPC   C3A27413   9.732  38.409   7.950
 6385POPC   C4A27414   9.753  38.458   7.650
 6385POPC   C1B27415   9.631  38.701   8.550
 6385POPC   C2B27416   9.636  38.675   8.250
 6385POPC   C3B27417   9.603  38.631   7.950
 6385POPC   C4B27418   9.612  38.631   7.650
 6386POPC   NC327419  44.629  36.928   9.450
 6386POPC   PO427420  44.652  36.871   9.150
 6386POPC   GL127421  44.690  36.884   8.850
 6386POPC   GL227422  44.602  36.791   8.850
 6386POPC   C1A27423  44.655  36.917   8.550
 6386POPC   D2A27424  44.676  36.878   8.250
 6386POPC   C3A27425  44.656  36.908   7.950
 6386POPC   C4A27426  44.660  36.939   7.650
 6386POPC   C1B27427  44.571  36.635   8.550
 6386POPC   C2B27428  44.619  36.667   8.250
 6386POPC   C3B27429  44.605  36.672   7.950
 6386POPC   C4B27430  44.595  36.670   7.650
 6387POPC   NC327431  19.082  44.642   9.450
 6387POPC   PO427432  19.078  44.656   9.150
 6387POPC   GL127433  19.050  44.675   8.850
 6387POPC   GL227434  19.062  44.775   8.850
 6387POPC   C1A27435  19.049  44.613   8.550
 6387POPC   D2A27436  19.030  44.669   8.250
 6387POPC   C3A27437  19.024  44.626   7.950
 6387POPC   C4A27438  19.034  44.696   7.650
 6387POPC   C1B27439  19.067  44.905   8.550
 6387POPC   C2B27440  19.074  44.957   8.250
 6387POPC   C3B27441  19.074  44.955   7.950
 6387POPC   C4B27442  18.995  44.882   7.650
 6388POPC   NC327443  14.431  42.373   9.450
 6388POPC   PO427444  14.389  42.353   9.150
 6388POPC   GL127445  14.376  42.303   8.850
 6388POPC   GL227446  14.311  42.218   8.850
 6388POPC   C1A27447  14.409  42.357   8.550
 6388POPC   D2A27448  14.376  42.339   8.250
 6388POPC   C3A27449  14.442  42.376   7.950
 6388POPC   C4A27450  14.411  42.360   7.650
 6388POPC   C1B27451  14.239  42.107   8.550
 6388POPC   C2B27452  14.307  42.172   8.250
 6388POPC   C3B27453  14.241  42.149   7.950
 6388POPC   C4B27454  14.285  42.146   7.650
 6389POPC   NC327455  22.153   1.952   9.450
 6389POPC   PO427456  22.128   2.013   9.150
 6389POPC   GL127457  22.193   1.977   8.850
 6389POPC   GL227458  22.258   2.039   8.850
 6389POPC   C1A27459  22.175   1.966   8.550
 6389POPC   D2A27460  22.144   1.987   8.250
 6389POPC   C3A27461  22.184   1.985   7.950
 6389POPC   C4A27462  22.154   1.957   7.650
 6389POPC   C1B27463  22.375   2.217   8.550
 6389POPC   C2B27464  22.312   2.208   8.250
 6389POPC   C3B27465  22.329   2.219   7.950
 6389POPC   C4B27466  22.302   2.183   7.650
 6390POPC   NC327467  28.390  20.587   9.450
 6390POPC   PO427468  28.331  20.648   9.150
 6390POPC   GL127469  28.413  20.613   8.850
 6390POPC   GL227470  28.290  20.721   8.850
 6390POPC   C1A27471  28.418  20.562   8.550
 6390POPC   D2A27472  28.410  20.651   8.250
 6390POPC   C3A27473  28.356  20.589   7.950
 6390POPC   C4A27474  28.398  20.614   7.650
 6390POPC   C1B27475  28.116  20.744   8.550
 6390POPC   C2B27476  28.135  20.748   8.250
 6390POPC   C3B27477  28.166  20.732   7.950
 6390POPC   C4B27478  28.147  20.745   7.650
 6391POPC   NC327479   5.123  43.921   9.450
 6391POPC   PO427480   5.063  43.849   9.150
 6391POPC   GL127481   5.083  43.840   8.850
 6391POPC   GL227482   5.190  43.744   8.850
 6391POPC   C1A27483   5.066  43.896   8.550
 6391POPC   D2A27484   5.126  43.902   8.250
 6391POPC   C3A27485   5.141  43.919   7.950
 6391POPC   C4A27486   5.101  43.881   7.650
 6391POPC   C1B27487   5.181  43.688   8.550
 6391POPC   C2B27488   5.252  43.680   8.250
 6391POPC   C3B27489   5.177  43.671   7.950
 6391POPC   C4B27490   5.197  43.717   7.650
 6392POPC   NC327491  27.586  13.627   9.450
 6392POPC   PO427492  27.624  13.668   9.150
 6392POPC   GL127493  27.570  13.659   8.850
 6392POPC   GL227494  27.478  13.658   8.850
 6392POPC   C1A27495  27.630  13.637   8.550
 6392POPC   D2A27496  27.630  13.622   8.250
 6392POPC   C3A27497  27.551  13.677   7.950
 6392POPC   C4A27498  27.573  13.586   7.650
 6392POPC   C1B27499  27.356  13.738   8.550
 6392POPC   C2B27500  27.392  13.792   8.250
 6392POPC   C3B27501  27.416  13.734   7.950
 6392POPC   C4B27502  27.369  13.768   7.650
 6393POPC   NC327503  22.201   9.734   9.450
 6393POPC   PO427504  22.196   9.761   9.150
 6393POPC   GL127505  22.142   9.753   8.850
 6393POPC   GL227506  22.283   9.614   8.850
 6393POPC   C1A27507  22.122   9.791   8.550
 6393POPC   D2A27508  22.130   9.737   8.250
 6393POPC   C3A27509  22.144   9.787   7.950
 6393POPC   C4A27510  22.157   9.757   7.650
 6393POPC   C1B27511  22.365   9.544   8.550
 6393POPC   C2B27512  22.356   9.554   8.250
 6393POPC   C3B27513  22.371   9.553   7.950
 6393POPC   C4B27514  22.309   9.556   7.650
 6394POPC   NC327515   1.978  22.168   9.450
 6394POPC   PO427516   2.025  22.175   9.150
 6394POPC   GL127517   1.968  22.121   8.850
 6394POPC   GL227518   2.028  22.261   8.850
 6394POPC   C1A27519   1.989  22.130   8.550
 6394POPC   D2A27520   1.951  22.152   8.250
 6394POPC   C3A27521   1.961  22.165   7.950
 6394POPC   C4A27522   1.966  22.160   7.650
 6394POPC   C1B27523   2.046  22.423   8.550
 6394POPC   C2B27524   1.967  22.447   8.250
 6394POPC   C3B27525   2.025  22.376   7.950
 6394POPC   C4B27526   2.007  22.370   7.650
 6395POPC   NC327527  36.910  19.077   9.450
 6395POPC   PO427528  36.922  19.106   9.150
 6395POPC   GL127529  36.926  19.081   8.850
 6395POPC   GL227530  36.765  19.098   8.850
 6395POPC   C1A27531  36.951  19.024   8.550
 6395POPC   D2A27532  36.878  19.019   8.250
 6395POPC   C3A27533  36.907  19.019   7.950
 6395POPC   C4A27534  36.917  19.042   7.650
 6395POPC   C1B27535  36.721  19.192   8.550
 6395POPC   C2B27536  36.682  19.117   8.250
 6395POPC   C3B27537  36.678  19.142   7.950
 6395POPC   C4B27538  36.688  19.198   7.650
 6396POPC   NC327539  36.856  29.110   9.450
 6396POPC   PO427540  36.894  29.126   9.150
 6396POPC   GL127541  36.950  29.177   8.850
 6396POPC   GL227542  36.741  29.134   8.850
 6396POPC   C1A27543  36.854  29.103   8.550
 6396POPC   D2A27544  36.945  29.165   8.250
 6396POPC   C3A27545  36.865  29.172   7.950
 6396POPC   C4A27546  36.948  29.178   7.650
 6396POPC   C1B27547  36.659  29.199   8.550
 6396POPC   C2B27548  36.652  29.183   8.250
 6396POPC   C3B27549  36.676  29.125   7.950
 6396POPC   C4B27550  36.659  29.160   7.650
 6397POPC   NC327551  43.882  38.425   9.450
 6397POPC   PO427552  43.869  38.470   9.150
 6397POPC   GL127553  43.855  38.464   8.850
 6397POPC   GL227554  43.801  38.508   8.850
 6397POPC   C1A27555  43.888  38.424   8.550
 6397POPC   D2A27556  43.852  38.432   8.250
 6397POPC   C3A27557  43.902  38.433   7.950
 6397POPC   C4A27558  43.877  38.450   7.650
 6397POPC   C1B27559  43.696  38.612   8.550
 6397POPC   C2B27560  43.655  38.593   8.250
 6397POPC   C3B27561  43.700  38.640   7.950
 6397POPC   C4B27562  43.740  38.655   7.650
 6398POPC   NC327563  21.408  28.384   9.450
 6398POPC   PO427564  21.419  28.335   9.150
 6398POPC   GL127565  21.348  28.408   8.850
 6398POPC   GL227566  21.477  28.341   8.850
 6398POPC   C1A27567  21.363  28.378   8.550
 6398POPC   D2A27568  21.366  28.416   8.250
 6398POPC   C3A27569  21.396  28.414   7.950
 6398POPC   C4A27570  21.404  28.344   7.650
 6398POPC   C1B27571  21.682  28.329   8.550
 6398POPC   C2B27572  21.589  28.401   8.250
 6398POPC   C3B27573  21.661  28.403   7.950
 6398POPC   C4B27574  21.588  28.323   7.650
 6399POPC   NC327575  26.834  11.290   9.450
 6399POPC   PO427576  26.787  11.259   9.150
 6399POPC   GL127577  26.775  11.312   8.850
 6399POPC   GL227578  26.966  11.257   8.850
 6399POPC   C1A27579  26.827  11.260   8.550
 6399POPC   D2A27580  26.846  11.327   8.250
 6399POPC   C3A27581  26.775  11.333   7.950
 6399POPC   C4A27582  26.813  11.251   7.650
 6399POPC   C1B27583  27.104  11.316   8.550
 6399POPC   C2B27584  27.099  11.248   8.250
 6399POPC   C3B27585  27.104  11.305   7.950
 6399POPC   C4B27586  27.112  11.340   7.650
 6400POPC   NC327587   7.459  12.842   9.450
 6400POPC   PO427588   7.389  12.828   9.150
 6400POPC   GL127589   7.378  12.830   8.850
 6400POPC   GL227590   7.366  12.936   8.850
 6400POPC   C1A27591   7.457  12.899   8.550
 6400POPC   D2A27592   7.450  12.808   8.250
 6400POPC   C3A27593   7.464  12.873   7.950
 6400POPC   C4A27594   7.436  12.876   7.650
 6400POPC   C1B27595   7.418  13.095   8.550
 6400POPC   C2B27596   7.434  13.055   8.250
 6400POPC   C3B27597   7.392  13.054   7.950
 6400POPC   C4B27598   7.431  13.090   7.650
 6401POPC   NC327599  28.397  31.520   9.450
 6401POPC   PO427600  28.379  31.445   9.150
 6401POPC   GL127601  28.344  31.470   8.850
 6401POPC   GL227602  28.357  31.383   8.850
 6401POPC   C1A27603  28.367  31.443   8.550
 6401POPC   D2A27604  28.338  31.461   8.250
 6401POPC   C3A27605  28.360  31.424   7.950
 6401POPC   C4A27606  28.377  31.508   7.650
 6401POPC   C1B27607  28.257  31.224   8.550
 6401POPC   C2B27608  28.249  31.233   8.250
 6401POPC   C3B27609  28.283  31.273   7.950
 6401POPC   C4B27610  28.295  31.294   7.650
 6402POPC   NC327611  29.962  43.837   9.450
 6402POPC   PO427612  29.887  43.867   9.150
 6402POPC   GL127613  29.908  43.905   8.850
 6402POPC   GL227614  29.970  44.045   8.850
 6402POPC   C1A27615  29.910  43.917   8.550
 6402POPC   D2A27616  29.871  43.866   8.250
 6402POPC   C3A27617  29.934  43.908   7.950
 6402POPC   C4A27618  29.897  43.880   7.650
 6402POPC   C1B27619  30.034  44.142   8.550
 6402POPC   C2B27620  30.046  44.097   8.250
 6402POPC   C3B27621  30.037  44.073   7.950
 6402POPC   C4B27622  30.004  44.129   7.650
 6403POPC   NC327623   9.741   3.567   9.450
 6403POPC   PO427624   9.760   3.526   9.150
 6403POPC   GL127625   9.763   3.493   8.850
 6403POPC   GL227626   9.616   3.603   8.850
 6403POPC   C1A27627   9.729   3.537   8.550
 6403POPC   D2A27628   9.775   3.517   8.250
 6403POPC   C3A27629   9.749   3.573   7.950
 6403POPC   C4A27630   9.754   3.571   7.650
 6403POPC   C1B27631   9.573   3.656   8.550
 6403POPC   C2B27632   9.497   3.684   8.250
 6403POPC   C3B27633   9.529   3.720   7.950
 6403POPC   C4B27634   9.568   3.722   7.650
 6404POPC   NC327635  40.007  29.878   9.450
 6404POPC   PO427636  40.013  29.906   9.150
 6404POPC   GL127637  39.963  29.965   8.850
 6404POPC   GL227638  40.130  29.860   8.850
 6404POPC   C1A27639  39.962  29.944   8.550
 6404POPC   D2A27640  39.994  29.928   8.250
 6404POPC   C3A27641  40.015  29.932   7.950
 6404POPC   C4A27642  39.984  29.938   7.650
 6404POPC   C1B27643  40.268  29.893   8.550
 6404POPC   C2B27644  40.294  29.939   8.250
 6404POPC   C3B27645  40.246  29.882   7.950
 6404POPC   C4B27646  40.252  29.841   7.650
 6405POPC   NC327647  29.100  21.353   9.450
 6405POPC   PO427648  29.140  21.399   9.150
 6405POPC   GL127649  29.129  21.374   8.850
 6405POPC   GL227650  29.049  21.281   8.850
 6405POPC   C1A27651  29.116  21.432   8.550
 6405POPC   D2A27652  29.127  21.435   8.250
 6405POPC   C3A27653  29.133  21.385   7.950
 6405POPC   C4A27654  29.160  21.429   7.650
 6405POPC   C1B27655  29.055  21.132   8.550
 6405POPC   C2B27656  29.035  21.192   8.250
 6405POPC   C3B27657  28.971  21.163   7.950
 6405POPC   C4B27658  28.978  21.146   7.650
 6406POPC   NC327659   1.943  18.322   9.450
 6406POPC   PO427660   1.951  18.321   9.150
 6406POPC   GL127661   1.960  18.324   8.850
 6406POPC   GL227662   1.954  18.193   8.850
 6406POPC   C1A27663   2.009  18.316   8.550
 6406POPC   D2A27664   2.010  18.274   8.250
 6406POPC   C3A27665   1.995  18.233   7.950
 6406POPC   C4A27666   1.958  18.246   7.650
 6406POPC   C1B27667   1.892  17.994   8.550
 6406POPC   C2B27668   1.923  18.078   8.250
 6406POPC   C3B27669   1.955  18.070   7.950
 6406POPC   C4B27670   1.885  18.045   7.650
 6407POPC   NC327671  30.733   4.286   9.450
 6407POPC   PO427672  30.660   4.334   9.150
 6407POPC   GL127673  30.677   4.306   8.850
 6407POPC   GL227674  30.687   4.481   8.850
 6407POPC   C1A27675  30.698   4.355   8.550
 6407POPC   D2A27676  30.726   4.277   8.250
 6407POPC   C3A27677  30.701   4.290   7.950
 6407POPC   C4A27678  30.659   4.284   7.650
 6407POPC   C1B27679  30.588   4.535   8.550
 6407POPC   C2B27680  30.605   4.554   8.250
 6407POPC   C3B27681  30.569   4.521   7.950
 6407POPC   C4B27682  30.595   4.524   7.650
 6408POPC   NC327683  22.961  13.611   9.450
 6408POPC   PO427684  22.972  13.663   9.150
 6408POPC   GL127685  22.918  13.653   8.850
 6408POPC   GL227686  23.045  13.701   8.850
 6408POPC   C1A27687  22.942  13.675   8.550
 6408POPC   D2A27688  22.936  13.581   8.250
 6408POPC   C3A27689  22.898  13.647   7.950
 6408POPC   C4A27690  22.888  13.616   7.650
 6408POPC   C1B27691  23.084  13.785   8.550
 6408POPC   C2B27692  23.111  13.782   8.250
 6408POPC   C3B27693  23.114  13.801   7.950
 6408POPC   C4B27694  23.066  13.808   7.650
 6409POPC   NC327695  31.521  28.328   9.450
 6409POPC   PO427696  31.508  28.360   9.150
 6409POPC   GL127697  31.494  28.394   8.850
 6409POPC   GL227698  31.590  28.350   8.850
 6409POPC   C1A27699  31.456  28.377   8.550
 6409POPC   D2A27700  31.428  28.407   8.250
 6409POPC   C3A27701  31.457  28.353   7.950
 6409POPC   C4A27702  31.464  28.405   7.650
 6409POPC   C1B27703  31.703  28.299   8.550
 6409POPC   C2B27704  31.671  28.303   8.250
 6409POPC   C3B27705  31.737  28.261   7.950
 6409POPC   C4B27706  31.706  28.325   7.650
 6410POPC   NC327707  37.709  26.865   9.450
 6410POPC   PO427708  37.729  26.811   9.150
 6410POPC   GL127709  37.649  26.770   8.850
 6410POPC   GL227710  37.594  26.732   8.850
 6410POPC   C1A27711  37.684  26.788   8.550
 6410POPC   D2A27712  37.633  26.854   8.250
 6410POPC   C3A27713  37.666  26.862   7.950
 6410POPC   C4A27714  37.641  26.793   7.650
 6410POPC   C1B27715  37.437  26.688   8.550
 6410POPC   C2B27716  37.428  26.730   8.250
 6410POPC   C3B27717  37.485  26.677   7.950
 6410POPC   C4B27718  37.447  26.760   7.650
 6411POPC   NC327719   1.960   2.776   9.450
 6411POPC   PO427720   1.975   2.742   9.150
 6411POPC   GL127721   1.944   2.785   8.850
 6411POPC   GL227722   1.995   2.642   8.850
 6411POPC   C1A27723   1.988   2.799   8.550
 6411POPC   D2A27724   1.970   2.805   8.250
 6411POPC   C3A27725   1.949   2.808   7.950
 6411POPC   C4A27726   1.961   2.756   7.650
 6411POPC   C1B27727   1.931   2.540   8.550
 6411POPC   C2B27728   1.999   2.519   8.250
 6411POPC   C3B27729   1.981   2.484   7.950
 6411POPC   C4B27730   1.952   2.550   7.650
 6412POPC   NC327731  20.644  36.105   9.450
 6412POPC   PO427732  20.597  36.122   9.150
 6412POPC   GL127733  20.610  36.103   8.850
 6412POPC   GL227734  20.702  35.992   8.850
 6412POPC   C1A27735  20.602  36.132   8.550
 6412POPC   D2A27736  20.628  36.157   8.250
 6412POPC   C3A27737  20.572  36.082   7.950
 6412POPC   C4A27738  20.631  36.152   7.650
 6412POPC   C1B27739  20.822  35.982   8.550
 6412POPC   C2B27740  20.824  35.956   8.250
 6412POPC   C3B27741  20.754  35.896   7.950
 6412POPC   C4B27742  20.759  35.965   7.650
 6413POPC   NC327743   2.764  15.994   9.450
 6413POPC   PO427744   2.768  15.994   9.150
 6413POPC   GL127745   2.739  15.955   8.850
 6413POPC   GL227746   2.819  16.034   8.850
 6413POPC   C1A27747   2.791  15.974   8.550
 6413POPC   D2A27748   2.813  15.909   8.250
 6413POPC   C3A27749   2.805  15.933   7.950
 6413POPC   C4A27750   2.772  15.958   7.650
 6413POPC   C1B27751   2.898  16.148   8.550
 6413POPC   C2B27752   2.982  16.093   8.250
 6413POPC   C3B27753   2.980  16.181   7.950
 6413POPC   C4B27754   2.951  16.125   7.650
 6414POPC   NC327755  15.972  39.281   9.450
 6414POPC   PO427756  15.979  39.260   9.150
 6414POPC   GL127757  15.920  39.245   8.850
 6414POPC   GL227758  16.084  39.350   8.850
 6414POPC   C1A27759  15.966  39.232   8.550
 6414POPC   D2A27760  15.954  39.187   8.250
 6414POPC   C3A27761  15.934  39.193   7.950
 6414POPC   C4A27762  15.925  39.269   7.650
 6414POPC   C1B27763  16.111  39.399   8.550
 6414POPC   C2B27764  16.139  39.338   8.250
 6414POPC   C3B27765  16.115  39.425   7.950
 6414POPC   C4B27766  16.154  39.339   7.650
 6415POPC   NC327767  21.400   7.467   9.450
 6415POPC   PO427768  21.372   7.383   9.150
 6415POPC   GL127769  21.401   7.431   8.850
 6415POPC   GL227770  21.379   7.567   8.850
 6415POPC   C1A27771  21.404   7.463   8.550
 6415POPC   D2A27772  21.433   7.458   8.250
 6415POPC   C3A27773  21.355   7.468   7.950
 6415POPC   C4A27774  21.409   7.376   7.650
 6415POPC   C1B27775  21.379   7.656   8.550
 6415POPC   C2B27776  21.438   7.683   8.250
 6415POPC   C3B27777  21.354   7.659   7.950
 6415POPC   C4B27778  21.368   7.661   7.650
 6416POPC   NC327779  31.492  19.802   9.450
 6416POPC   PO427780  31.481  19.865   9.150
 6416POPC   GL127781  31.465  19.879   8.850
 6416POPC   GL227782  31.507  19.730   8.850
 6416POPC   C1A27783  31.482  19.834   8.550
 6416POPC   D2A27784  31.472  19.851   8.250
 6416POPC   C3A27785  31.486  19.788   7.950
 6416POPC   C4A27786  31.485  19.861   7.650
 6416POPC   C1B27787  31.579  19.657   8.550
 6416POPC   C2B27788  31.584  19.600   8.250
 6416POPC   C3B27789  31.586  19.600   7.950
 6416POPC   C4B27790  31.575  19.674   7.650
 6417POPC   NC327791  10.474   5.102   9.450
 6417POPC   PO427792  10.486   5.047   9.150
 6417POPC   GL127793  10.498   5.050   8.850
 6417POPC   GL227794  10.452   5.100   8.850
 6417POPC   C1A27795  10.506   5.096   8.550
 6417POPC   D2A27796  10.553   5.074   8.250
 6417POPC   C3A27797  10.496   5.132   7.950
 6417POPC   C4A27798  10.526   5.129   7.650
 6417POPC   C1B27799  10.330   5.030   8.550
 6417POPC   C2B27800  10.337   5.006   8.250
 6417POPC   C3B27801  10.252   5.001   7.950
 6417POPC   C4B27802  10.324   5.021   7.650
 6418POPC   NC327803  40.764  42.381   9.450
 6418POPC   PO427804  40.831  42.303   9.150
 6418POPC   GL127805  40.772  42.295   8.850
 6418POPC   GL227806  40.870  42.452   8.850
 6418POPC   C1A27807  40.804  42.301   8.550
 6418POPC   D2A27808  40.761  42.318   8.250
 6418POPC   C3A27809  40.737  42.366   7.950
 6418POPC   C4A27810  40.735  42.350   7.650
 6418POPC   C1B27811  40.848  42.591   8.550
 6418POPC   C2B27812  40.838  42.566   8.250
 6418POPC   C3B27813  40.852  42.519   7.950
 6418POPC   C4B27814  40.890  42.520   7.650
 6419POPC   NC327815  16.775  12.109   9.450
 6419POPC   PO427816  16.752  12.120   9.150
 6419POPC   GL127817  16.732  12.043   8.850
 6419POPC   GL227818  16.785  12.014   8.850
 6419POPC   C1A27819  16.710  12.039   8.550
 6419POPC   D2A27820  16.743  12.121   8.250
 6419POPC   C3A27821  16.743  12.077   7.950
 6419POPC   C4A27822  16.685  12.077   7.650
 6419POPC   C1B27823  16.933  11.948   8.550
 6419POPC   C2B27824  16.913  11.948   8.250
 6419POPC   C3B27825  16.960  11.952   7.950
 6419POPC   C4B27826  16.940  11.872   7.650
 6420POPC   NC327827  22.113   4.304   9.450
 6420POPC   PO427828  22.145   4.284   9.150
 6420POPC   GL127829  22.150   4.323   8.850
 6420POPC   GL227830  22.280   4.336   8.850
 6420POPC   C1A27831  22.145   4.312   8.550
 6420POPC   D2A27832  22.135   4.359   8.250
 6420POPC   C3A27833  22.116   4.269   7.950
 6420POPC   C4A27834  22.127   4.324   7.650
 6420POPC   C1B27835  22.434   4.286   8.550
 6420POPC   C2B27836  22.453   4.336   8.250
 6420POPC   C3B27837  22.364   4.298   7.950
 6420POPC   C4B27838  22.389   4.276   7.650
 6421POPC   NC327839   2.738  17.544   9.450
 6421POPC   PO427840   2.812  17.465   9.150
 6421POPC   GL127841   2.781  17.483   8.850
 6421POPC   GL227842   2.766  17.584   8.850
 6421POPC   C1A27843   2.746  17.462   8.550
 6421POPC   D2A27844   2.798  17.492   8.250
 6421POPC   C3A27845   2.774  17.529   7.950
 6421POPC   C4A27846   2.725  17.543   7.650
 6421POPC   C1B27847   2.813  17.786   8.550
 6421POPC   C2B27848   2.764  17.787   8.250
 6421POPC   C3B27849   2.753  17.756   7.950
 6421POPC   C4B27850   2.764  17.716   7.650
 6422POPC   NC327851  37.657  43.918   9.450
 6422POPC   PO427852  37.716  43.896   9.150
 6422POPC   GL127853  37.708  43.853   8.850
 6422POPC   GL227854  37.617  43.985   8.850
 6422POPC   C1A27855  37.688  43.848   8.550
 6422POPC   D2A27856  37.721  43.928   8.250
 6422POPC   C3A27857  37.687  43.901   7.950
 6422POPC   C4A27858  37.632  43.902   7.650
 6422POPC   C1B27859  37.664  44.116   8.550
 6422POPC   C2B27860  37.660  44.129   8.250
 6422POPC   C3B27861  37.668  44.141   7.950
 6422POPC   C4B27862  37.602  44.120   7.650
 6423POPC   NC327863  34.550  29.921   9.450
 6423POPC   PO427864  34.623  29.953   9.150
 6423POPC   GL127865  34.580  29.890   8.850
 6423POPC   GL227866  34.674  29.807   8.850
 6423POPC   C1A27867  34.540  29.958   8.550
 6423POPC   D2A27868  34.555  29.953   8.250
 6423POPC   C3A27869  34.602  29.888   7.950
 6423POPC   C4A27870  34.531  29.911   7.650
 6423POPC   C1B27871  34.776  29.740   8.550
 6423POPC   C2B27872  34.737  29.749   8.250
 6423POPC   C3B27873  34.812  29.783   7.950
 6423POPC   C4B27874  34.754  29.748   7.650
 6424POPC   NC327875   5.125   0.414   9.450
 6424POPC   PO427876   5.115   0.406   9.150
 6424POPC   GL127877   5.116   0.420   8.850
 6424POPC   GL227878   5.007   0.506   8.850
 6424POPC   C1A27879   5.105   0.482   8.550
 6424POPC   D2A27880   5.065   0.441   8.250
 6424POPC   C3A27881   5.078   0.433   7.950
 6424POPC   C4A27882   5.126   0.474   7.650
 6424POPC   C1B27883   4.825   0.513   8.550
 6424POPC   C2B27884   4.883   0.508   8.250
 6424POPC   C3B27885   4.888   0.453   7.950
 6424POPC   C4B27886   4.846   0.498   7.650
 6425POPC   NC327887   4.357   2.736   9.450
 6425POPC   PO427888   4.283   2.752   9.150
 6425POPC   GL127889   4.353   2.731   8.850
 6425POPC   GL227890   4.211   2.688   8.850
 6425POPC   C1A27891   4.301   2.787   8.550
 6425POPC   D2A27892   4.303   2.786   8.250
 6425POPC   C3A27893   4.276   2.784   7.950
 6425POPC   C4A27894   4.316   2.730   7.650
 6425POPC   C1B27895   4.049   2.653   8.550
 6425POPC   C2B27896   4.066   2.656   8.250
 6425POPC   C3B27897   4.108   2.690   7.950
 6425POPC   C4B27898   4.061   2.711   7.650
 6426POPC   NC327899  36.901  43.136   9.450
 6426POPC   PO427900  36.900  43.150   9.150
 6426POPC   GL127901  36.937  43.096   8.850
 6426POPC   GL227902  36.976  42.949   8.850
 6426POPC   C1A27903  36.866  43.114   8.550
 6426POPC   D2A27904  36.930  43.111   8.250
 6426POPC   C3A27905  36.923  43.083   7.950
 6426POPC   C4A27906  36.927  43.073   7.650
 6426POPC   C1B27907  37.020  42.835   8.550
 6426POPC   C2B27908  36.994  42.922   8.250
 6426POPC   C3B27909  36.958  42.871   7.950
 6426POPC   C4B27910  36.968  42.901   7.650
 6427POPC   NC327911  14.368  39.974   9.450
 6427POPC   PO427912  14.394  40.031   9.150
 6427POPC   GL127913  14.412  39.978   8.850
 6427POPC   GL227914  14.479  39.868   8.850
 6427POPC   C1A27915  14.401  39.992   8.550
 6427POPC   D2A27916  14.411  40.003   8.250
 6427POPC   C3A27917  14.431  40.057   7.950
 6427POPC   C4A27918  14.451  39.982   7.650
 6427POPC   C1B27919  14.512  39.797   8.550
 6427POPC   C2B27920  14.483  39.799   8.250
 6427POPC   C3B27921  14.507  39.784   7.950
 6427POPC   C4B27922  14.525  39.787   7.650
 6428POPC   NC327923  11.320  33.029   9.450
 6428POPC   PO427924  11.341  33.061   9.150
 6428POPC   GL127925  11.274  33.003   8.850
 6428POPC   GL227926  11.278  33.159   8.850
 6428POPC   C1A27927  11.286  33.011   8.550
 6428POPC   D2A27928  11.341  33.049   8.250
 6428POPC   C3A27929  11.344  32.978   7.950
 6428POPC   C4A27930  11.256  33.038   7.650
 6428POPC   C1B27931  11.323  33.240   8.550
 6428POPC   C2B27932  11.355  33.262   8.250
 6428POPC   C3B27933  11.316  33.271   7.950
 6428POPC   C4B27934  11.349  33.292   7.650
 6429POPC   NC327935  43.086  43.118   9.450
 6429POPC   PO427936  43.094  43.115   9.150
 6429POPC   GL127937  43.127  43.134   8.850
 6429POPC   GL227938  43.063  43.161   8.850
 6429POPC   C1A27939  43.097  43.083   8.550
 6429POPC   D2A27940  43.144  43.141   8.250
 6429POPC   C3A27941  43.102  43.121   7.950
 6429POPC   C4A27942  43.108  43.154   7.650
 6429POPC   C1B27943  42.960  43.265   8.550
 6429POPC   C2B27944  42.939  43.334   8.250
 6429POPC   C3B27945  42.987  43.262   7.950
 6429POPC   C4B27946  42.998  43.353   7.650
 6430POPC   NC327947  43.887  37.695   9.450
 6430POPC   PO427948  43.913  37.674   9.150
 6430POPC   GL127949  43.905  37.685   8.850
 6430POPC   GL227950  43.971  37.770   8.850
 6430POPC   C1A27951  43.837  37.670   8.550
 6430POPC   D2A27952  43.910  37.694   8.250
 6430POPC   C3A27953  43.890  37.636   7.950
 6430POPC   C4A27954  43.855  37.630   7.650
 6430POPC   C1B27955  44.083  37.763   8.550
 6430POPC   C2B27956  44.097  37.790   8.250
 6430POPC   C3B27957  44.148  37.810   7.950
 6430POPC   C4B27958  44.145  37.743   7.650
 6431POPC   NC327959  29.168   9.707   9.450
 6431POPC   PO427960  29.118   9.750   9.150
 6431POPC   GL127961  29.140   9.766   8.850
 6431POPC   GL227962  29.122   9.613   8.850
 6431POPC   C1A27963  29.097   9.784   8.550
 6431POPC   D2A27964  29.171   9.765   8.250
 6431POPC   C3A27965  29.193   9.760   7.950
 6431POPC   C4A27966  29.142   9.776   7.650
 6431POPC   C1B27967  29.222   9.538   8.550
 6431POPC   C2B27968  29.141   9.502   8.250
 6431POPC   C3B27969  29.185   9.525   7.950
 6431POPC   C4B27970  29.219   9.528   7.650
 6432POPC   NC327971  27.588  12.815   9.450
 6432POPC   PO427972  27.603  12.851   9.150
 6432POPC   GL127973  27.546  12.809   8.850
 6432POPC   GL227974  27.765  12.885   8.850
 6432POPC   C1A27975  27.551  12.872   8.550
 6432POPC   D2A27976  27.561  12.856   8.250
 6432POPC   C3A27977  27.564  12.817   7.950
 6432POPC   C4A27978  27.551  12.849   7.650
 6432POPC   C1B27979  27.875  12.923   8.550
 6432POPC   C2B27980  27.807  12.904   8.250
 6432POPC   C3B27981  27.848  12.856   7.950
 6432POPC   C4B27982  27.819  12.876   7.650
 6433POPC   NC327983   5.141  35.333   9.450
 6433POPC   PO427984   5.064  35.325   9.150
 6433POPC   GL127985   5.095  35.325   8.850
 6433POPC   GL227986   5.235  35.339   8.850
 6433POPC   C1A27987   5.054  35.400   8.550
 6433POPC   D2A27988   5.125  35.355   8.250
 6433POPC   C3A27989   5.047  35.339   7.950
 6433POPC   C4A27990   5.064  35.356   7.650
 6433POPC   C1B27991   5.334  35.271   8.550
 6433POPC   C2B27992   5.342  35.271   8.250
 6433POPC   C3B27993   5.306  35.335   7.950
 6433POPC   C4B27994   5.347  35.359   7.650
 6434POPC   NC327995  37.657  20.609   9.450
 6434POPC   PO427996  37.701  20.609   9.150
 6434POPC   GL127997  37.716  20.631   8.850
 6434POPC   GL227998  37.751  20.557   8.850
 6434POPC   C1A27999  37.633  20.585   8.550
 6434POPC   D2A28000  37.712  20.653   8.250
 6434POPC   C3A28001  37.725  20.659   7.950
 6434POPC   C4A28002  37.671  20.582   7.650
 6434POPC   C1B28003  37.797  20.429   8.550
 6434POPC   C2B28004  37.803  20.439   8.250
 6434POPC   C3B28005  37.866  20.370   7.950
 6434POPC   C4B28006  37.828  20.418   7.650
 6435POPC   NC328007  36.878  26.816   9.450
 6435POPC   PO428008  36.907  26.833   9.150
 6435POPC   GL128009  36.944  26.840   8.850
 6435POPC   GL228010  36.787  26.824   8.850
 6435POPC   C1A28011  36.930  26.838   8.550
 6435POPC   D2A28012  36.948  26.828   8.250
 6435POPC   C3A28013  36.890  26.847   7.950
 6435POPC   C4A28014  36.892  26.862   7.650
 6435POPC   C1B28015  36.696  26.832   8.550
 6435POPC   C2B28016  36.613  26.834   8.250
 6435POPC   C3B28017  36.622  26.858   7.950
 6435POPC   C4B28018  36.684  26.810   7.650
 6436POPC   NC328019  22.967  40.733   9.450
 6436POPC   PO428020  22.933  40.733   9.150
 6436POPC   GL128021  22.900  40.771   8.850
 6436POPC   GL228022  22.861  40.844   8.850
 6436POPC   C1A28023  22.935  40.775   8.550
 6436POPC   D2A28024  22.927  40.805   8.250
 6436POPC   C3A28025  22.966  40.795   7.950
 6436POPC   C4A28026  22.982  40.804   7.650
 6436POPC   C1B28027  22.735  40.914   8.550
 6436POPC   C2B28028  22.746  40.946   8.250
 6436POPC   C3B28029  22.715  40.981   7.950
 6436POPC   C4B28030  22.707  40.961   7.650
 6437POPC   NC328031   5.837  38.450   9.450
 6437POPC   PO428032   5.835  38.417   9.150
 6437POPC   GL128033   5.853  38.454   8.850
 6437POPC   GL228034   5.864  38.545   8.850
 6437POPC   C1A28035   5.829  38.466   8.550
 6437POPC   D2A28036   5.883  38.435   8.250
 6437POPC   C3A28037   5.825  38.487   7.950
 6437POPC   C4A28038   5.890  38.444   7.650
 6437POPC   C1B28039   5.937  38.708   8.550
 6437POPC   C2B28040   5.923  38.717   8.250
 6437POPC   C3B28041   5.852  38.665   7.950
 6437POPC   C4B28042   5.928  38.728   7.650
 6438POPC   NC328043  21.426   2.723   9.450
 6438POPC   PO428044  21.406   2.759   9.150
 6438POPC   GL128045  21.418   2.805   8.850
 6438POPC   GL228046  21.480   2.901   8.850
 6438POPC   C1A28047  21.381   2.750   8.550
 6438POPC   D2A28048  21.425   2.771   8.250
 6438POPC   C3A28049  21.357   2.724   7.950
 6438POPC   C4A28050  21.357   2.723   7.650
 6438POPC   C1B28051  21.506   2.945   8.550
 6438POPC   C2B28052  21.518   3.028   8.250
 6438POPC   C3B28053  21.473   2.973   7.950
 6438POPC   C4B28054  21.518   2.936   7.650
 6439POPC   NC328055  29.136   5.904   9.450
 6439POPC   PO428056  29.126   5.900   9.150
 6439POPC   GL128057  29.139   5.865   8.850
 6439POPC   GL228058  29.271   5.917   8.850
 6439POPC   C1A28059  29.105   5.872   8.550
 6439POPC   D2A28060  29.192   5.837   8.250
 6439POPC   C3A28061  29.187   5.834   7.950
 6439POPC   C4A28062  29.152   5.896   7.650
 6439POPC   C1B28063  29.338   5.992   8.550
 6439POPC   C2B28064  29.366   6.014   8.250
 6439POPC   C3B28065  29.377   5.992   7.950
 6439POPC   C4B28066  29.351   6.000   7.650
 6440POPC   NC328067   8.177  32.221   9.450
 6440POPC   PO428068   8.164  32.249   9.150
 6440POPC   GL128069   8.166  32.283   8.850
 6440POPC   GL228070   8.238  32.401   8.850
 6440POPC   C1A28071   8.168  32.287   8.550
 6440POPC   D2A28072   8.226  32.236   8.250
 6440POPC   C3A28073   8.216  32.284   7.950
 6440POPC   C4A28074   8.209  32.215   7.650
 6440POPC   C1B28075   8.296  32.475   8.550
 6440POPC   C2B28076   8.249  32.465   8.250
 6440POPC   C3B28077   8.307  32.504   7.950
 6440POPC   C4B28078   8.244  32.465   7.650
 6441POPC   NC328079  28.369  29.888   9.450
 6441POPC   PO428080  28.405  29.876   9.150
 6441POPC   GL128081  28.329  29.896   8.850
 6441POPC   GL228082  28.467  29.818   8.850
 6441POPC   C1A28083  28.360  29.897   8.550
 6441POPC   D2A28084  28.345  29.952   8.250
 6441POPC   C3A28085  28.414  29.961   7.950
 6441POPC   C4A28086  28.409  29.924   7.650
 6441POPC   C1B28087  28.561  29.739   8.550
 6441POPC   C2B28088  28.593  29.735   8.250
 6441POPC   C3B28089  28.594  29.795   7.950
 6441POPC   C4B28090  28.556  29.755   7.650
 6442POPC   NC328091   5.882  36.926   9.450
 6442POPC   PO428092   5.912  36.925   9.150
 6442POPC   GL128093   5.911  36.884   8.850
 6442POPC   GL228094   5.917  37.019   8.850
 6442POPC   C1A28095   5.859  36.897   8.550
 6442POPC   D2A28096   5.831  36.910   8.250
 6442POPC   C3A28097   5.852  36.858   7.950
 6442POPC   C4A28098   5.884  36.898   7.650
 6442POPC   C1B28099   5.995  37.116   8.550
 6442POPC   C2B28100   6.003  37.116   8.250
 6442POPC   C3B28101   5.967  37.117   7.950
 6442POPC   C4B28102   6.001  37.150   7.650
 6443POPC   NC328103  44.639  42.316   9.450
 6443POPC   PO428104  44.697  42.353   9.150
 6443POPC   GL128105  44.614  42.369   8.850
 6443POPC   GL228106  44.741  42.418   8.850
 6443POPC   C1A28107  44.710  42.292   8.550
 6443POPC   D2A28108  44.682  42.333   8.250
 6443POPC   C3A28109  44.658  42.366   7.950
 6443POPC   C4A28110  44.703  42.352   7.650
 6443POPC   C1B28111  44.903  42.456   8.550
 6443POPC   C2B28112  44.921  42.509   8.250
 6443POPC   C3B28113  44.867  42.432   7.950
 6443POPC   C4B28114  44.899  42.489   7.650
 6444POPC   NC328115  24.508  32.264   9.450
 6444POPC   PO428116  24.451  32.297   9.150
 6444POPC   GL128117  24.440  32.219   8.850
 6444POPC   GL228118  24.392  32.279   8.850
 6444POPC   C1A28119  24.440  32.230   8.550
 6444POPC   D2A28120  24.468  32.231   8.250
 6444POPC   C3A28121  24.441  32.267   7.950
 6444POPC   C4A28122  24.494  32.287   7.650
 6444POPC   C1B28123  24.269  32.358   8.550
 6444POPC   C2B28124  24.267  32.311   8.250
 6444POPC   C3B28125  24.238  32.351   7.950
 6444POPC   C4B28126  24.258  32.347   7.650
 6445POPC   NC328127  30.726  33.001   9.450
 6445POPC   PO428128  30.663  33.035   9.150
 6445POPC   GL128129  30.686  33.021   8.850
 6445POPC   GL228130  30.527  33.050   8.850
 6445POPC   C1A28131  30.704  33.028   8.550
 6445POPC   D2A28132  30.746  33.034   8.250
 6445POPC   C3A28133  30.685  33.028   7.950
 6445POPC   C4A28134  30.656  33.010   7.650
 6445POPC   C1B28135  30.473  33.076   8.550
 6445POPC   C2B28136  30.445  33.090   8.250
 6445POPC   C3B28137  30.443  33.033   7.950
 6445POPC   C4B28138  30.502  33.087   7.650
 6446POPC   NC328139  43.129  41.567   9.450
 6446POPC   PO428140  43.130  41.519   9.150
 6446POPC   GL128141  43.122  41.555   8.850
 6446POPC   GL228142  43.213  41.468   8.850
 6446POPC   C1A28143  43.141  41.581   8.550
 6446POPC   D2A28144  43.128  41.588   8.250
 6446POPC   C3A28145  43.074  41.555   7.950
 6446POPC   C4A28146  43.078  41.595   7.650
 6446POPC   C1B28147  43.247  41.329   8.550
 6446POPC   C2B28148  43.181  41.333   8.250
 6446POPC   C3B28149  43.211  41.315   7.950
 6446POPC   C4B28150  43.181  41.363   7.650
 6447POPC   NC328151  29.158  25.265   9.450
 6447POPC   PO428152  29.187  25.279   9.150
 6447POPC   GL128153  29.153  25.269   8.850
 6447POPC   GL228154  29.052  25.355   8.850
 6447POPC   C1A28155  29.189  25.231   8.550
 6447POPC   D2A28156  29.117  25.287   8.250
 6447POPC   C3A28157  29.109  25.279   7.950
 6447POPC   C4A28158  29.135  25.294   7.650
 6447POPC   C1B28159  28.892  25.402   8.550
 6447POPC   C2B28160  28.969  25.341   8.250
 6447POPC   C3B28161  28.955  25.361   7.950
 6447POPC   C4B28162  28.894  25.423   7.650
 6448POPC   NC328163  43.123  18.311   9.450
 6448POPC   PO428164  43.083  18.288   9.150
 6448POPC   GL128165  43.084  18.274   8.850
 6448POPC   GL228166  42.984  18.332   8.850
 6448POPC   C1A28167  43.065  18.263   8.550
 6448POPC   D2A28168  43.102  18.325   8.250
 6448POPC   C3A28169  43.112  18.272   7.950
 6448POPC   C4A28170  43.121  18.324   7.650
 6448POPC   C1B28171  42.947  18.480   8.550
 6448POPC   C2B28172  42.869  18.479   8.250
 6448POPC   C3B28173  42.953  18.410   7.950
 6448POPC   C4B28174  42.905  18.401   7.650
 6449POPC   NC328175  26.087  30.669   9.450
 6449POPC   PO428176  26.079  30.701   9.150
 6449POPC   GL128177  26.079  30.744   8.850
 6449POPC   GL228178  26.129  30.638   8.850
 6449POPC   C1A28179  26.031  30.669   8.550
 6449POPC   D2A28180  26.019  30.745   8.250
 6449POPC   C3A28181  25.995  30.729   7.950
 6449POPC   C4A28182  25.997  30.727   7.650
 6449POPC   C1B28183  26.207  30.468   8.550
 6449POPC   C2B28184  26.250  30.557   8.250
 6449POPC   C3B28185  26.209  30.528   7.950
 6449POPC   C4B28186  26.248  30.489   7.650
 6450POPC   NC328187   3.502  31.474   9.450
 6450POPC   PO428188   3.587  31.471   9.150
 6450POPC   GL128189   3.566  31.477   8.850
 6450POPC   GL228190   3.466  31.343   8.850
 6450POPC   C1A28191   3.514  31.434   8.550
 6450POPC   D2A28192   3.581  31.516   8.250
 6450POPC   C3A28193   3.579  31.478   7.950
 6450POPC   C4A28194   3.528  31.481   7.650
 6450POPC   C1B28195   3.393  31.303   8.550
 6450POPC   C2B28196   3.396  31.212   8.250
 6450POPC   C3B28197   3.443  31.294   7.950
 6450POPC   C4B28198   3.380  31.283   7.650
 6451POPC   NC328199  36.940  19.789   9.450
 6451POPC   PO428200  36.883  19.880   9.150
 6451POPC   GL128201  36.881  19.792   8.850
 6451POPC   GL228202  36.871  19.950   8.850
 6451POPC   C1A28203  36.919  19.832   8.550
 6451POPC   D2A28204  36.897  19.810   8.250
 6451POPC   C3A28205  36.856  19.855   7.950
 6451POPC   C4A28206  36.904  19.803   7.650
 6451POPC   C1B28207  36.799  20.040   8.550
 6451POPC   C2B28208  36.817  20.061   8.250
 6451POPC   C3B28209  36.848  20.031   7.950
 6451POPC   C4B28210  36.839  20.047   7.650
 6452POPC   NC328211   8.246  10.522   9.450
 6452POPC   PO428212   8.220  10.512   9.150
 6452POPC   GL128213   8.201  10.509   8.850
 6452POPC   GL228214   8.171  10.639   8.850
 6452POPC   C1A28215   8.209  10.563   8.550
 6452POPC   D2A28216   8.222  10.483   8.250
 6452POPC   C3A28217   8.221  10.555   7.950
 6452POPC   C4A28218   8.166  10.488   7.650
 6452POPC   C1B28219   8.144  10.706   8.550
 6452POPC   C2B28220   8.143  10.738   8.250
 6452POPC   C3B28221   8.122  10.784   7.950
 6452POPC   C4B28222   8.072  10.769   7.650
 6453POPC   NC328223  36.870  40.013   9.450
 6453POPC   PO428224  36.854  40.031   9.150
 6453POPC   GL128225  36.862  39.981   8.850
 6453POPC   GL228226  36.905  39.843   8.850
 6453POPC   C1A28227  36.929  40.034   8.550
 6453POPC   D2A28228  36.933  40.009   8.250
 6453POPC   C3A28229  36.854  40.048   7.950
 6453POPC   C4A28230  36.914  40.005   7.650
 6453POPC   C1B28231  37.004  39.773   8.550
 6453POPC   C2B28232  36.962  39.811   8.250
 6453POPC   C3B28233  37.016  39.778   7.950
 6453POPC   C4B28234  37.005  39.783   7.650
 6454POPC   NC328235  34.625  24.501   9.450
 6454POPC   PO428236  34.611  24.528   9.150
 6454POPC   GL128237  34.574  24.524   8.850
 6454POPC   GL228238  34.418  24.508   8.850
 6454POPC   C1A28239  34.577  24.486   8.550
 6454POPC   D2A28240  34.596  24.488   8.250
 6454POPC   C3A28241  34.575  24.461   7.950
 6454POPC   C4A28242  34.626  24.476   7.650
 6454POPC   C1B28243  34.311  24.601   8.550
 6454POPC   C2B28244  34.351  24.611   8.250
 6454POPC   C3B28245  34.337  24.573   7.950
 6454POPC   C4B28246  34.383  24.543   7.650
 6455POPC   NC328247  16.769  14.447   9.450
 6455POPC   PO428248  16.729  14.391   9.150
 6455POPC   GL128249  16.710  14.385   8.850
 6455POPC   GL228250  16.681  14.447   8.850
 6455POPC   C1A28251  16.731  14.397   8.550
 6455POPC   D2A28252  16.733  14.420   8.250
 6455POPC   C3A28253  16.767  14.410   7.950
 6455POPC   C4A28254  16.743  14.420   7.650
 6455POPC   C1B28255  16.562  14.580   8.550
 6455POPC   C2B28256  16.525  14.509   8.250
 6455POPC   C3B28257  16.501  14.586   7.950
 6455POPC   C4B28258  16.572  14.561   7.650
 6456POPC   NC328259  26.802  20.604   9.450
 6456POPC   PO428260  26.790  20.562   9.150
 6456POPC   GL128261  26.849  20.582   8.850
 6456POPC   GL228262  26.917  20.674   8.850
 6456POPC   C1A28263  26.805  20.650   8.550
 6456POPC   D2A28264  26.833  20.567   8.250
 6456POPC   C3A28265  26.786  20.594   7.950
 6456POPC   C4A28266  26.809  20.635   7.650
 6456POPC   C1B28267  26.976  20.828   8.550
 6456POPC   C2B28268  27.004  20.756   8.250
 6456POPC   C3B28269  27.009  20.815   7.950
 6456POPC   C4B28270  26.981  20.830   7.650
 6457POPC   NC328271  42.301   2.739   9.450
 6457POPC   PO428272  42.363   2.755   9.150
 6457POPC   GL128273  42.337   2.807   8.850
 6457POPC   GL228274  42.271   2.696   8.850
 6457POPC   C1A28275  42.372   2.793   8.550
 6457POPC   D2A28276  42.327   2.743   8.250
 6457POPC   C3A28277  42.288   2.739   7.950
 6457POPC   C4A28278  42.373   2.727   7.650
 6457POPC   C1B28279  42.215   2.511   8.550
 6457POPC   C2B28280  42.206   2.511   8.250
 6457POPC   C3B28281  42.221   2.512   7.950
 6457POPC   C4B28282  42.203   2.502   7.650
 6458POPC   NC328283  36.913  22.986   9.450
 6458POPC   PO428284  36.910  22.970   9.150
 6458POPC   GL128285  36.948  22.905   8.850
 6458POPC   GL228286  36.790  22.988   8.850
 6458POPC   C1A28287  36.856  22.940   8.550
 6458POPC   D2A28288  36.864  22.970   8.250
 6458POPC   C3A28289  36.871  22.976   7.950
 6458POPC   C4A28290  36.878  22.915   7.650
 6458POPC   C1B28291  36.646  23.055   8.550
 6458POPC   C2B28292  36.669  23.101   8.250
 6458POPC   C3B28293  36.645  23.049   7.950
 6458POPC   C4B28294  36.719  23.032   7.650
 6459POPC   NC328295  36.910  44.684   9.450
 6459POPC   PO428296  36.928  44.638   9.150
 6459POPC   GL128297  36.953  44.662   8.850
 6459POPC   GL228298  37.000  44.602   8.850
 6459POPC   C1A28299  36.872  44.689   8.550
 6459POPC   D2A28300  36.934  44.693   8.250
 6459POPC   C3A28301  36.901  44.704   7.950
 6459POPC   C4A28302  36.925  44.705   7.650
 6459POPC   C1B28303  37.111  44.543   8.550
 6459POPC   C2B28304  37.178  44.554   8.250
 6459POPC   C3B28305  37.155  44.527   7.950
 6459POPC   C4B28306  37.133  44.519   7.650
 6460POPC   NC328307  35.387   1.242   9.450
 6460POPC   PO428308  35.375   1.203   9.150
 6460POPC   GL128309  35.370   1.192   8.850
 6460POPC   GL228310  35.339   1.044   8.850
 6460POPC   C1A28311  35.368   1.252   8.550
 6460POPC   D2A28312  35.373   1.186   8.250
 6460POPC   C3A28313  35.325   1.186   7.950
 6460POPC   C4A28314  35.352   1.207   7.650
 6460POPC   C1B28315  35.419   0.964   8.550
 6460POPC   C2B28316  35.431   1.013   8.250
 6460POPC   C3B28317  35.412   0.948   7.950
 6460POPC   C4B28318  35.419   0.991   7.650
 6461POPC   NC328319  35.375  44.662   9.450
 6461POPC   PO428320  35.378  44.613   9.150
 6461POPC   GL128321  35.366  44.670   8.850
 6461POPC   GL228322  35.509  44.693   8.850
 6461POPC   C1A28323  35.368  44.635   8.550
 6461POPC   D2A28324  35.382  44.646   8.250
 6461POPC   C3A28325  35.342  44.637   7.950
 6461POPC   C4A28326  35.308  44.674   7.650
 6461POPC   C1B28327  35.527  44.784   8.550
 6461POPC   C2B28328  35.570  44.819   8.250
 6461POPC   C3B28329  35.562  44.778   7.950
 6461POPC   C4B28330  35.551  44.736   7.650
 6462POPC   NC328331  34.527  44.689   9.450
 6462POPC   PO428332  34.570  44.634   9.150
 6462POPC   GL128333  34.601  44.706   8.850
 6462POPC   GL228334  34.719  44.575   8.850
 6462POPC   C1A28335  34.543  44.668   8.550
 6462POPC   D2A28336  34.561  44.650   8.250
 6462POPC   C3A28337  34.559  44.629   7.950
 6462POPC   C4A28338  34.547  44.663   7.650
 6462POPC   C1B28339  34.765  44.523   8.550
 6462POPC   C2B28340  34.849  44.564   8.250
 6462POPC   C3B28341  34.812  44.563   7.950
 6462POPC   C4B28342  34.817  44.594   7.650
 6463POPC   NC328343  43.108  38.436   9.450
 6463POPC   PO428344  43.112  38.461   9.150
 6463POPC   GL128345  43.114  38.504   8.850
 6463POPC   GL228346  43.237  38.563   8.850
 6463POPC   C1A28347  43.151  38.426   8.550
 6463POPC   D2A28348  43.098  38.435   8.250
 6463POPC   C3A28349  43.158  38.469   7.950
 6463POPC   C4A28350  43.138  38.455   7.650
 6463POPC   C1B28351  43.367  38.574   8.550
 6463POPC   C2B28352  43.298  38.546   8.250
 6463POPC   C3B28353  43.333  38.622   7.950
 6463POPC   C4B28354  43.313  38.607   7.650
 6464POPC   NC328355  19.880  39.966   9.450
 6464POPC   PO428356  19.868  39.981   9.150
 6464POPC   GL128357  19.793  40.032   8.850
 6464POPC   GL228358  19.979  40.012   8.850
 6464POPC   C1A28359  19.838  39.977   8.550
 6464POPC   D2A28360  19.806  40.033   8.250
 6464POPC   C3A28361  19.883  40.001   7.950
 6464POPC   C4A28362  19.848  39.968   7.650
 6464POPC   C1B28363  20.044  40.110   8.550
 6464POPC   C2B28364  20.113  40.066   8.250
 6464POPC   C3B28365  20.063  40.056   7.950
 6464POPC   C4B28366  20.094  40.080   7.650
 6465POPC   NC328367  37.692  25.307   9.450
 6465POPC   PO428368  37.682  25.277   9.150
 6465POPC   GL128369  37.724  25.296   8.850
 6465POPC   GL228370  37.602  25.283   8.850
 6465POPC   C1A28371  37.698  25.233   8.550
 6465POPC   D2A28372  37.678  25.224   8.250
 6465POPC   C3A28373  37.700  25.272   7.950
 6465POPC   C4A28374  37.716  25.300   7.650
 6465POPC   C1B28375  37.401  25.317   8.550
 6465POPC   C2B28376  37.446  25.348   8.250
 6465POPC   C3B28377  37.479  25.384   7.950
 6465POPC   C4B28378  37.474  25.396   7.650
 6466POPC   NC328379  21.436  24.467   9.450
 6466POPC   PO428380  21.376  24.502   9.150
 6466POPC   GL128381  21.358  24.469   8.850
 6466POPC   GL228382  21.456  24.409   8.850
 6466POPC   C1A28383  21.371  24.538   8.550
 6466POPC   D2A28384  21.432  24.445   8.250
 6466POPC   C3A28385  21.397  24.495   7.950
 6466POPC   C4A28386  21.344  24.518   7.650
 6466POPC   C1B28387  21.634  24.389   8.550
 6466POPC   C2B28388  21.566  24.379   8.250
 6466POPC   C3B28389  21.587  24.391   7.950
 6466POPC   C4B28390  21.580  24.393   7.650
 6467POPC   NC328391   1.978  42.322   9.450
 6467POPC   PO428392   1.997  42.333   9.150
 6467POPC   GL128393   1.984  42.351   8.850
 6467POPC   GL228394   2.071  42.364   8.850
 6467POPC   C1A28395   2.024  42.285   8.550
 6467POPC   D2A28396   1.966  42.319   8.250
 6467POPC   C3A28397   2.020  42.331   7.950
 6467POPC   C4A28398   2.021  42.350   7.650
 6467POPC   C1B28399   2.224  42.299   8.550
 6467POPC   C2B28400   2.202  42.280   8.250
 6467POPC   C3B28401   2.249  42.365   7.950
 6467POPC   C4B28402   2.202  42.291   7.650
 6468POPC   NC328403   0.469   4.325   9.450
 6468POPC   PO428404   0.446   4.275   9.150
 6468POPC   GL128405   0.405   4.340   8.850
 6468POPC   GL228406   0.425   4.183   8.850
 6468POPC   C1A28407   0.458   4.346   8.550
 6468POPC   D2A28408   0.417   4.273   8.250
 6468POPC   C3A28409   0.454   4.279   7.950
 6468POPC   C4A28410   0.391   4.276   7.650
 6468POPC   C1B28411   0.369   4.078   8.550
 6468POPC   C2B28412   0.368   4.073   8.250
 6468POPC   C3B28413   0.332   4.123   7.950
 6468POPC   C4B28414   0.391   4.077   7.650
 6469POPC   NC328415  33.798  33.819   9.450
 6469POPC   PO428416  33.753  33.841   9.150
 6469POPC   GL128417  33.846  33.760   8.850
 6469POPC   GL228418  33.769  33.712   8.850
 6469POPC   C1A28419  33.824  33.817   8.550
 6469POPC   D2A28420  33.759  33.777   8.250
 6469POPC   C3A28421  33.764  33.774   7.950
 6469POPC   C4A28422  33.797  33.825   7.650
 6469POPC   C1B28423  33.653  33.565   8.550
 6469POPC   C2B28424  33.712  33.564   8.250
 6469POPC   C3B28425  33.719  33.622   7.950
 6469POPC   C4B28426  33.659  33.567   7.650
 6470POPC   NC328427  32.227  17.482   9.450
 6470POPC   PO428428  32.224  17.512   9.150
 6470POPC   GL128429  32.270  17.500   8.850
 6470POPC   GL228430  32.268  17.615   8.850
 6470POPC   C1A28431  32.209  17.527   8.550
 6470POPC   D2A28432  32.292  17.532   8.250
 6470POPC   C3A28433  32.269  17.536   7.950
 6470POPC   C4A28434  32.294  17.465   7.650
 6470POPC   C1B28435  32.258  17.741   8.550
 6470POPC   C2B28436  32.244  17.743   8.250
 6470POPC   C3B28437  32.221  17.773   7.950
 6470POPC   C4B28438  32.288  17.744   7.650
 6471POPC   NC328439  12.870   8.187   9.450
 6471POPC   PO428440  12.856   8.246   9.150
 6471POPC   GL128441  12.803   8.242   8.850
 6471POPC   GL228442  12.752   8.264   8.850
 6471POPC   C1A28443  12.870   8.163   8.550
 6471POPC   D2A28444  12.883   8.172   8.250
 6471POPC   C3A28445  12.866   8.232   7.950
 6471POPC   C4A28446  12.875   8.156   7.650
 6471POPC   C1B28447  12.669   8.453   8.550
 6471POPC   C2B28448  12.682   8.418   8.250
 6471POPC   C3B28449  12.758   8.400   7.950
 6471POPC   C4B28450  12.754   8.451   7.650
 6472POPC   NC328451  15.912  21.408   9.450
 6472POPC   PO428452  15.936  21.409   9.150
 6472POPC   GL128453  15.943  21.402   8.850
 6472POPC   GL228454  15.952  21.459   8.850
 6472POPC   C1A28455  15.917  21.371   8.550
 6472POPC   D2A28456  15.922  21.403   8.250
 6472POPC   C3A28457  15.998  21.416   7.950
 6472POPC   C4A28458  15.930  21.380   7.650
 6472POPC   C1B28459  15.920  21.625   8.550
 6472POPC   C2B28460  15.872  21.669   8.250
 6472POPC   C3B28461  15.915  21.673   7.950
 6472POPC   C4B28462  15.903  21.589   7.650
 6473POPC   NC328463  17.499  11.336   9.450
 6473POPC   PO428464  17.551  11.349   9.150
 6473POPC   GL128465  17.473  11.295   8.850
 6473POPC   GL228466  17.410  11.317   8.850
 6473POPC   C1A28467  17.524  11.262   8.550
 6473POPC   D2A28468  17.491  11.280   8.250
 6473POPC   C3A28469  17.501  11.254   7.950
 6473POPC   C4A28470  17.525  11.348   7.650
 6473POPC   C1B28471  17.273  11.313   8.550
 6473POPC   C2B28472  17.271  11.346   8.250
 6473POPC   C3B28473  17.282  11.306   7.950
 6473POPC   C4B28474  17.274  11.267   7.650
 6474POPC   NC328475  32.297  43.854   9.450
 6474POPC   PO428476  32.234  43.923   9.150
 6474POPC   GL128477  32.289  43.843   8.850
 6474POPC   GL228478  32.115  43.877   8.850
 6474POPC   C1A28479  32.275  43.840   8.550
 6474POPC   D2A28480  32.268  43.878   8.250
 6474POPC   C3A28481  32.258  43.889   7.950
 6474POPC   C4A28482  32.254  43.879   7.650
 6474POPC   C1B28483  31.974  43.848   8.550
 6474POPC   C2B28484  32.044  43.877   8.250
 6474POPC   C3B28485  32.048  43.860   7.950
 6474POPC   C4B28486  31.997  43.844   7.650
 6475POPC   NC328487  32.248  44.647   9.450
 6475POPC   PO428488  32.200  44.689   9.150
 6475POPC   GL128489  32.241  44.701   8.850
 6475POPC   GL228490  32.139  44.782   8.850
 6475POPC   C1A28491  32.248  44.669   8.550
 6475POPC   D2A28492  32.252  44.704   8.250
 6475POPC   C3A28493  32.208  44.684   7.950
 6475POPC   C4A28494  32.283  44.642   7.650
 6475POPC   C1B28495  32.102  44.821   8.550
 6475POPC   C2B28496  32.145  44.832   8.250
 6475POPC   C3B28497  32.154  44.821   7.950
 6475POPC   C4B28498  32.134  44.853   7.650
 6476POPC   NC328499  12.805  42.286   9.450
 6476POPC   PO428500  12.872  42.358   9.150
 6476POPC   GL128501  12.809  42.324   8.850
 6476POPC   GL228502  12.948  42.295   8.850
 6476POPC   C1A28503  12.865  42.367   8.550
 6476POPC   D2A28504  12.852  42.335   8.250
 6476POPC   C3A28505  12.860  42.338   7.950
 6476POPC   C4A28506  12.890  42.323   7.650
 6476POPC   C1B28507  13.041  42.196   8.550
 6476POPC   C2B28508  13.061  42.180   8.250
 6476POPC   C3B28509  13.024  42.255   7.950
 6476POPC   C4B28510  13.026  42.183   7.650
 6477POPC   NC328511   1.193  25.295   9.450
 6477POPC   PO428512   1.213  25.270   9.150
 6477POPC   GL128513   1.250  25.305   8.850
 6477POPC   GL228514   1.195  25.115   8.850
 6477POPC   C1A28515   1.218  25.239   8.550
 6477POPC   D2A28516   1.261  25.311   8.250
 6477POPC   C3A28517   1.219  25.290   7.950
 6477POPC   C4A28518   1.234  25.256   7.650
 6477POPC   C1B28519   1.220  24.968   8.550
 6477POPC   C2B28520   1.234  25.003   8.250
 6477POPC   C3B28521   1.180  25.007   7.950
 6477POPC   C4B28522   1.158  25.013   7.650
 6478POPC   NC328523  35.392  36.145   9.450
 6478POPC   PO428524  35.385  36.158   9.150
 6478POPC   GL128525  35.400  36.159   8.850
 6478POPC   GL228526  35.308  36.280   8.850
 6478POPC   C1A28527  35.308  36.154   8.550
 6478POPC   D2A28528  35.360  36.107   8.250
 6478POPC   C3A28529  35.370  36.102   7.950
 6478POPC   C4A28530  35.382  36.092   7.650
 6478POPC   C1B28531  35.317  36.406   8.550
 6478POPC   C2B28532  35.356  36.374   8.250
 6478POPC   C3B28533  35.292  36.372   7.950
 6478POPC   C4B28534  35.363  36.395   7.650
 6479POPC   NC328535  39.988   9.763   9.450
 6479POPC   PO428536  39.960   9.717   9.150
 6479POPC   GL128537  40.045   9.788   8.850
 6479POPC   GL228538  39.888   9.707   8.850
 6479POPC   C1A28539  40.023   9.761   8.550
 6479POPC   D2A28540  39.984   9.706   8.250
 6479POPC   C3A28541  40.029   9.732   7.950
 6479POPC   C4A28542  40.010   9.766   7.650
 6479POPC   C1B28543  39.752   9.745   8.550
 6479POPC   C2B28544  39.727   9.717   8.250
 6479POPC   C3B28545  39.807   9.721   7.950
 6479POPC   C4B28546  39.780   9.724   7.650
 6480POPC   NC328547  13.633  12.096   9.450
 6480POPC   PO428548  13.600  12.033   9.150
 6480POPC   GL128549  13.600  12.121   8.850
 6480POPC   GL228550  13.569  11.977   8.850
 6480POPC   C1A28551  13.587  12.118   8.550
 6480POPC   D2A28552  13.632  12.112   8.250
 6480POPC   C3A28553  13.674  12.088   7.950
 6480POPC   C4A28554  13.590  12.123   7.650
 6480POPC   C1B28555  13.515  11.841   8.550
 6480POPC   C2B28556  13.461  11.871   8.250
 6480POPC   C3B28557  13.482  11.900   7.950
 6480POPC   C4B28558  13.485  11.849   7.650
 6481POPC   NC328559  32.271  14.402   9.450
 6481POPC   PO428560  32.288  14.386   9.150
 6481POPC   GL128561  32.287  14.450   8.850
 6481POPC   GL228562  32.139  14.254   8.850
 6481POPC   C1A28563  32.227  14.375   8.550
 6481POPC   D2A28564  32.201  14.366   8.250
 6481POPC   C3A28565  32.254  14.394   7.950
 6481POPC   C4A28566  32.231  14.369   7.650
 6481POPC   C1B28567  32.080  14.159   8.550
 6481POPC   C2B28568  32.060  14.178   8.250
 6481POPC   C3B28569  32.132  14.190   7.950
 6481POPC   C4B28570  32.143  14.216   7.650
 6482POPC   NC328571  24.537   1.198   9.450
 6482POPC   PO428572  24.525   1.246   9.150
 6482POPC   GL128573  24.530   1.249   8.850
 6482POPC   GL228574  24.583   1.103   8.850
 6482POPC   C1A28575  24.448   1.228   8.550
 6482POPC   D2A28576  24.529   1.249   8.250
 6482POPC   C3A28577  24.453   1.244   7.950
 6482POPC   C4A28578  24.528   1.196   7.650
 6482POPC   C1B28579  24.648   1.020   8.550
 6482POPC   C2B28580  24.608   0.967   8.250
 6482POPC   C3B28581  24.582   0.964   7.950
 6482POPC   C4B28582  24.586   0.978   7.650
 6483POPC   NC328583  33.040  35.382   9.450
 6483POPC   PO428584  32.987  35.378   9.150
 6483POPC   GL128585  33.041  35.322   8.850
 6483POPC   GL228586  33.078  35.438   8.850
 6483POPC   C1A28587  33.047  35.397   8.550
 6483POPC   D2A28588  33.029  35.315   8.250
 6483POPC   C3A28589  33.004  35.382   7.950
 6483POPC   C4A28590  33.017  35.302   7.650
 6483POPC   C1B28591  33.190  35.568   8.550
 6483POPC   C2B28592  33.198  35.546   8.250
 6483POPC   C3B28593  33.157  35.554   7.950
 6483POPC   C4B28594  33.160  35.542   7.650
 6484POPC   NC328595   6.634   3.549   9.450
 6484POPC   PO428596   6.636   3.500   9.150
 6484POPC   GL128597   6.676   3.539   8.850
 6484POPC   GL228598   6.558   3.650   8.850
 6484POPC   C1A28599   6.612   3.498   8.550
 6484POPC   D2A28600   6.666   3.564   8.250
 6484POPC   C3A28601   6.684   3.536   7.950
 6484POPC   C4A28602   6.660   3.567   7.650
 6484POPC   C1B28603   6.524   3.762   8.550
 6484POPC   C2B28604   6.522   3.719   8.250
 6484POPC   C3B28605   6.553   3.719   7.950
 6484POPC   C4B28606   6.564   3.741   7.650
 6485POPC   NC328607  40.042   1.254   9.450
 6485POPC   PO428608  39.959   1.231   9.150
 6485POPC   GL128609  40.025   1.260   8.850
 6485POPC   GL228610  39.968   1.068   8.850
 6485POPC   C1A28611  40.038   1.212   8.550
 6485POPC   D2A28612  40.030   1.232   8.250
 6485POPC   C3A28613  39.980   1.251   7.950
 6485POPC   C4A28614  39.970   1.241   7.650
 6485POPC   C1B28615  39.849   0.956   8.550
 6485POPC   C2B28616  39.917   1.022   8.250
 6485POPC   C3B28617  39.845   0.985   7.950
 6485POPC   C4B28618  39.895   0.945   7.650
 6486POPC   NC328619  17.474   4.364   9.450
 6486POPC   PO428620  17.466   4.321   9.150
 6486POPC   GL128621  17.478   4.303   8.850
 6486POPC   GL228622  17.511   4.240   8.850
 6486POPC   C1A28623  17.541   4.359   8.550
 6486POPC   D2A28624  17.496   4.366   8.250
 6486POPC   C3A28625  17.491   4.353   7.950
 6486POPC   C4A28626  17.486   4.339   7.650
 6486POPC   C1B28627  17.481   4.084   8.550
 6486POPC   C2B28628  17.541   4.038   8.250
 6486POPC   C3B28629  17.464   4.019   7.950
 6486POPC   C4B28630  17.538   4.077   7.650
 6487POPC   NC328631  12.871  34.614   9.450
 6487POPC   PO428632  12.804  34.596   9.150
 6487POPC   GL128633  12.855  34.591   8.850
 6487POPC   GL228634  12.879  34.730   8.850
 6487POPC   C1A28635  12.867  34.532   8.550
 6487POPC   D2A28636  12.878  34.593   8.250
 6487POPC   C3A28637  12.889  34.612   7.950
 6487POPC   C4A28638  12.833  34.615   7.650
 6487POPC   C1B28639  12.798  34.829   8.550
 6487POPC   C2B28640  12.815  34.822   8.250
 6487POPC   C3B28641  12.871  34.871   7.950
 6487POPC   C4B28642  12.826  34.873   7.650
 6488POPC   NC328643  22.973  44.625   9.450
 6488POPC   PO428644  22.960  44.656   9.150
 6488POPC   GL128645  22.916  44.691   8.850
 6488POPC   GL228646  22.820  44.642   8.850
 6488POPC   C1A28647  22.982  44.703   8.550
 6488POPC   D2A28648  22.908  44.618   8.250
 6488POPC   C3A28649  22.926  44.669   7.950
 6488POPC   C4A28650  22.987  44.697   7.650
 6488POPC   C1B28651  22.698  44.737   8.550
 6488POPC   C2B28652  22.705  44.704   8.250
 6488POPC   C3B28653  22.717  44.722   7.950
 6488POPC   C4B28654  22.643  44.662   7.650
 6489POPC   NC328655   8.200  23.762   9.450
 6489POPC   PO428656   8.180  23.673   9.150
 6489POPC   GL128657   8.188  23.706   8.850
 6489POPC   GL228658   8.363  23.643   8.850
 6489POPC   C1A28659   8.240  23.688   8.550
 6489POPC   D2A28660   8.213  23.714   8.250
 6489POPC   C3A28661   8.224  23.733   7.950
 6489POPC   C4A28662   8.215  23.758   7.650
 6489POPC   C1B28663   8.415  23.650   8.550
 6489POPC   C2B28664   8.438  23.589   8.250
 6489POPC   C3B28665   8.444  23.658   7.950
 6489POPC   C4B28666   8.386  23.668   7.650
 6490POPC   NC328667  40.799  29.903   9.450
 6490POPC   PO428668  40.830  29.913   9.150
 6490POPC   GL128669  40.776  29.948   8.850
 6490POPC   GL228670  40.870  29.854   8.850
 6490POPC   C1A28671  40.817  29.932   8.550
 6490POPC   D2A28672  40.780  29.891   8.250
 6490POPC   C3A28673  40.763  29.923   7.950
 6490POPC   C4A28674  40.733  29.916   7.650
 6490POPC   C1B28675  40.962  29.764   8.550
 6490POPC   C2B28676  41.007  29.766   8.250
 6490POPC   C3B28677  40.998  29.772   7.950
 6490POPC   C4B28678  40.967  29.735   7.650
 6491POPC   NC328679  26.047   0.400   9.450
 6491POPC   PO428680  26.022   0.430   9.150
 6491POPC   GL128681  26.061   0.390   8.850
 6491POPC   GL228682  25.973   0.398   8.850
 6491POPC   C1A28683  26.066   0.487   8.550
 6491POPC   D2A28684  26.050   0.464   8.250
 6491POPC   C3A28685  26.070   0.472   7.950
 6491POPC   C4A28686  25.996   0.479   7.650
 6491POPC   C1B28687  25.764   0.314   8.550
 6491POPC   C2B28688  25.763   0.339   8.250
 6491POPC   C3B28689  25.837   0.341   7.950
 6491POPC   C4B28690  25.764   0.366   7.650
 6492POPC   NC328691  37.670  19.105   9.450
 6492POPC   PO428692  37.715  19.092   9.150
 6492POPC   GL128693  37.699  19.063   8.850
 6492POPC   GL228694  37.704  19.168   8.850
 6492POPC   C1A28695  37.655  19.086   8.550
 6492POPC   D2A28696  37.703  19.056   8.250
 6492POPC   C3A28697  37.688  19.011   7.950
 6492POPC   C4A28698  37.696  19.094   7.650
 6492POPC   C1B28699  37.654  19.262   8.550
 6492POPC   C2B28700  37.659  19.277   8.250
 6492POPC   C3B28701  37.712  19.259   7.950
 6492POPC   C4B28702  37.674  19.325   7.650
 6493POPC   NC328703  29.108  36.159   9.450
 6493POPC   PO428704  29.153  36.121   9.150
 6493POPC   GL128705  29.154  36.147   8.850
 6493POPC   GL228706  29.068  36.165   8.850
 6493POPC   C1A28707  29.185  36.154   8.550
 6493POPC   D2A28708  29.170  36.150   8.250
 6493POPC   C3A28709  29.162  36.129   7.950
 6493POPC   C4A28710  29.189  36.105   7.650
 6493POPC   C1B28711  28.880  36.193   8.550
 6493POPC   C2B28712  28.889  36.194   8.250
 6493POPC   C3B28713  28.927  36.161   7.950
 6493POPC   C4B28714  28.861  36.161   7.650
 6494POPC   NC328715  43.129  27.603   9.450
 6494POPC   PO428716  43.159  27.545   9.150
 6494POPC   GL128717  43.126  27.594   8.850
 6494POPC   GL228718  43.022  27.539   8.850
 6494POPC   C1A28719  43.092  27.626   8.550
 6494POPC   D2A28720  43.103  27.589   8.250
 6494POPC   C3A28721  43.102  27.626   7.950
 6494POPC   C4A28722  43.104  27.556   7.650
 6494POPC   C1B28723  42.876  27.487   8.550
 6494POPC   C2B28724  42.912  27.542   8.250
 6494POPC   C3B28725  42.840  27.501   7.950
 6494POPC   C4B28726  42.886  27.466   7.650
 6495POPC   NC328727  22.941  37.725   9.450
 6495POPC   PO428728  22.980  37.648   9.150
 6495POPC   GL128729  22.945  37.644   8.850
 6495POPC   GL228730  22.845  37.727   8.850
 6495POPC   C1A28731  22.976  37.673   8.550
 6495POPC   D2A28732  22.963  37.657   8.250
 6495POPC   C3A28733  22.898  37.665   7.950
 6495POPC   C4A28734  22.963  37.688   7.650
 6495POPC   C1B28735  22.718  37.784   8.550
 6495POPC   C2B28736  22.700  37.753   8.250
 6495POPC   C3B28737  22.738  37.718   7.950
 6495POPC   C4B28738  22.668  37.752   7.650
 6496POPC   NC328739   3.523  29.104   9.450
 6496POPC   PO428740   3.559  29.133   9.150
 6496POPC   GL128741   3.584  29.172   8.850
 6496POPC   GL228742   3.705  29.116   8.850
 6496POPC   C1A28743   3.589  29.119   8.550
 6496POPC   D2A28744   3.529  29.145   8.250
 6496POPC   C3A28745   3.515  29.099   7.950
 6496POPC   C4A28746   3.554  29.114   7.650
 6496POPC   C1B28747   3.766  29.101   8.550
 6496POPC   C2B28748   3.796  29.059   8.250
 6496POPC   C3B28749   3.820  29.074   7.950
 6496POPC   C4B28750   3.762  29.103   7.650
 6497POPC   NC328751  26.044   4.336   9.450
 6497POPC   PO428752  26.030   4.342   9.150
 6497POPC   GL128753  26.026   4.358   8.850
 6497POPC   GL228754  26.066   4.438   8.850
 6497POPC   C1A28755  25.992   4.349   8.550
 6497POPC   D2A28756  26.049   4.363   8.250
 6497POPC   C3A28757  26.077   4.271   7.950
 6497POPC   C4A28758  26.069   4.329   7.650
 6497POPC   C1B28759  26.209   4.549   8.550
 6497POPC   C2B28760  26.116   4.565   8.250
 6497POPC   C3B28761  26.129   4.510   7.950
 6497POPC   C4B28762  26.133   4.502   7.650
 6498POPC   NC328763  24.505   2.752   9.450
 6498POPC   PO428764  24.471   2.800   9.150
 6498POPC   GL128765  24.499   2.814   8.850
 6498POPC   GL228766  24.601   2.677   8.850
 6498POPC   C1A28767  24.504   2.740   8.550
 6498POPC   D2A28768  24.522   2.771   8.250
 6498POPC   C3A28769  24.481   2.729   7.950
 6498POPC   C4A28770  24.442   2.758   7.650
 6498POPC   C1B28771  24.657   2.560   8.550
 6498POPC   C2B28772  24.611   2.581   8.250
 6498POPC   C3B28773  24.603   2.623   7.950
 6498POPC   C4B28774  24.620   2.588   7.650
 6499POPC   NC328775  19.845  32.242   9.450
 6499POPC   PO428776  19.830  32.235   9.150
 6499POPC   GL128777  19.828  32.228   8.850
 6499POPC   GL228778  19.922  32.249   8.850
 6499POPC   C1A28779  19.814  32.263   8.550
 6499POPC   D2A28780  19.860  32.250   8.250
 6499POPC   C3A28781  19.830  32.248   7.950
 6499POPC   C4A28782  19.804  32.240   7.650
 6499POPC   C1B28783  20.064  32.268   8.550
 6499POPC   C2B28784  20.035  32.171   8.250
 6499POPC   C3B28785  20.077  32.201   7.950
 6499POPC   C4B28786  20.096  32.241   7.650
 6500POPC   NC328787   5.105  20.622   9.450
 6500POPC   PO428788   5.095  20.580   9.150
 6500POPC   GL128789   5.107  20.583   8.850
 6500POPC   GL228790   5.181  20.660   8.850
 6500POPC   C1A28791   5.066  20.561   8.550
 6500POPC   D2A28792   5.143  20.629   8.250
 6500POPC   C3A28793   5.049  20.591   7.950
 6500POPC   C4A28794   5.113  20.638   7.650
 6500POPC   C1B28795   5.296  20.707   8.550
 6500POPC   C2B28796   5.318  20.796   8.250
 6500POPC   C3B28797   5.319  20.734   7.950
 6500POPC   C4B28798   5.297  20.792   7.650
 6501POPC   NC328799  18.319  16.708   9.450
 6501POPC   PO428800  18.323  16.696   9.150
 6501POPC   GL128801  18.301  16.685   8.850
 6501POPC   GL228802  18.199  16.748   8.850
 6501POPC   C1A28803  18.307  16.693   8.550
 6501POPC   D2A28804  18.272  16.731   8.250
 6501POPC   C3A28805  18.234  16.707   7.950
 6501POPC   C4A28806  18.252  16.775   7.650
 6501POPC   C1B28807  18.026  16.721   8.550
 6501POPC   C2B28808  18.055  16.745   8.250
 6501POPC   C3B28809  18.067  16.713   7.950
 6501POPC   C4B28810  18.062  16.768   7.650
 6502POPC   NC328811  15.217  16.004   9.450
 6502POPC   PO428812  15.181  15.909   9.150
 6502POPC   GL128813  15.219  15.931   8.850
 6502POPC   GL228814  15.083  15.887   8.850
 6502POPC   C1A28815  15.219  15.968   8.550
 6502POPC   D2A28816  15.133  15.971   8.250
 6502POPC   C3A28817  15.146  15.937   7.950
 6502POPC   C4A28818  15.159  16.004   7.650
 6502POPC   C1B28819  14.935  15.883   8.550
 6502POPC   C2B28820  14.949  15.887   8.250
 6502POPC   C3B28821  14.926  15.827   7.950
 6502POPC   C4B28822  14.964  15.821   7.650
 6503POPC   NC328823  37.718  30.679   9.450
 6503POPC   PO428824  37.679  30.682   9.150
 6503POPC   GL128825  37.706  30.665   8.850
 6503POPC   GL228826  37.579  30.644   8.850
 6503POPC   C1A28827  37.714  30.659   8.550
 6503POPC   D2A28828  37.716  30.663   8.250
 6503POPC   C3A28829  37.681  30.722   7.950
 6503POPC   C4A28830  37.695  30.730   7.650
 6503POPC   C1B28831  37.489  30.546   8.550
 6503POPC   C2B28832  37.533  30.490   8.250
 6503POPC   C3B28833  37.455  30.553   7.950
 6503POPC   C4B28834  37.542  30.522   7.650
 6504POPC   NC328835  19.857   8.201   9.450
 6504POPC   PO428836  19.837   8.147   9.150
 6504POPC   GL128837  19.883   8.241   8.850
 6504POPC   GL228838  19.931   8.166   8.850
 6504POPC   C1A28839  19.874   8.203   8.550
 6504POPC   D2A28840  19.805   8.201   8.250
 6504POPC   C3A28841  19.811   8.162   7.950
 6504POPC   C4A28842  19.844   8.155   7.650
 6504POPC   C1B28843  20.132   8.200   8.550
 6504POPC   C2B28844  20.052   8.225   8.250
 6504POPC   C3B28845  20.040   8.231   7.950
 6504POPC   C4B28846  20.038   8.190   7.650
 6505POPC   NC328847  19.058  40.011   9.450
 6505POPC   PO428848  19.050  40.015   9.150
 6505POPC   GL128849  19.015  40.011   8.850
 6505POPC   GL228850  18.921  40.073   8.850
 6505POPC   C1A28851  19.079  39.967   8.550
 6505POPC   D2A28852  19.011  40.055   8.250
 6505POPC   C3A28853  19.067  39.965   7.950
 6505POPC   C4A28854  19.021  39.990   7.650
 6505POPC   C1B28855  18.890  40.095   8.550
 6505POPC   C2B28856  18.883  40.110   8.250
 6505POPC   C3B28857  18.830  40.133   7.950
 6505POPC   C4B28858  18.796  40.089   7.650
 6506POPC   NC328859  22.888  35.333   9.450
 6506POPC   PO428860  22.949  35.306   9.150
 6506POPC   GL128861  22.963  35.340   8.850
 6506POPC   GL228862  22.806  35.232   8.850
 6506POPC   C1A28863  22.916  35.320   8.550
 6506POPC   D2A28864  22.919  35.311   8.250
 6506POPC   C3A28865  22.943  35.335   7.950
 6506POPC   C4A28866  22.924  35.367   7.650
 6506POPC   C1B28867  22.759  35.196   8.550
 6506POPC   C2B28868  22.775  35.206   8.250
 6506POPC   C3B28869  22.713  35.177   7.950
 6506POPC   C4B28870  22.696  35.241   7.650
 6507POPC   NC328871  29.873  20.590   9.450
 6507POPC   PO428872  29.925  20.599   9.150
 6507POPC   GL128873  29.890  20.580   8.850
 6507POPC   GL228874  29.871  20.692   8.850
 6507POPC   C1A28875  29.969  20.603   8.550
 6507POPC   D2A28876  29.922  20.635   8.250
 6507POPC   C3A28877  29.915  20.635   7.950
 6507POPC   C4A28878  29.948  20.598   7.650
 6507POPC   C1B28879  29.771  20.720   8.550
 6507POPC   C2B28880  29.721  20.797   8.250
 6507POPC   C3B28881  29.694  20.729   7.950
 6507POPC   C4B28882  29.682  20.753   7.650
 6508POPC   NC328883  10.479  22.144   9.450
 6508POPC   PO428884  10.503  22.150   9.150
 6508POPC   GL128885  10.537  22.137   8.850
 6508POPC   GL228886  10.452  22.295   8.850
 6508POPC   C1A28887  10.527  22.132   8.550
 6508POPC   D2A28888  10.494  22.145   8.250
 6508POPC   C3A28889  10.493  22.171   7.950
 6508POPC   C4A28890  10.552  22.174   7.650
 6508POPC   C1B28891  10.420  22.426   8.550
 6508POPC   C2B28892  10.428  22.361   8.250
 6508POPC   C3B28893  10.415  22.339   7.950
 6508POPC   C4B28894  10.413  22.362   7.650
 6509POPC   NC328895  39.245  15.966   9.450
 6509POPC   PO428896  39.239  15.990   9.150
 6509POPC   GL128897  39.259  15.951   8.850
 6509POPC   GL228898  39.144  15.813   8.850
 6509POPC   C1A28899  39.258  15.953   8.550
 6509POPC   D2A28900  39.202  15.919   8.250
 6509POPC   C3A28901  39.189  15.968   7.950
 6509POPC   C4A28902  39.267  15.938   7.650
 6509POPC   C1B28903  39.119  15.750   8.550
 6509POPC   C2B28904  39.153  15.768   8.250
 6509POPC   C3B28905  39.174  15.737   7.950
 6509POPC   C4B28906  39.181  15.732   7.650
 6510POPC   NC328907  17.537  26.034   9.450
 6510POPC   PO428908  17.467  26.070   9.150
 6510POPC   GL128909  17.477  26.070   8.850
 6510POPC   GL228910  17.506  26.196   8.850
 6510POPC   C1A28911  17.553  26.005   8.550
 6510POPC   D2A28912  17.493  26.074   8.250
 6510POPC   C3A28913  17.475  26.000   7.950
 6510POPC   C4A28914  17.547  26.050   7.650
 6510POPC   C1B28915  17.515  26.305   8.550
 6510POPC   C2B28916  17.515  26.256   8.250
 6510POPC   C3B28917  17.533  26.271   7.950
 6510POPC   C4B28918  17.561  26.329   7.650
 6511POPC   NC328919  40.775  12.085   9.450
 6511POPC   PO428920  40.825  12.044   9.150
 6511POPC   GL128921  40.734  12.108   8.850
 6511POPC   GL228922  40.660  12.162   8.850
 6511POPC   C1A28923  40.758  12.111   8.550
 6511POPC   D2A28924  40.801  12.029   8.250
 6511POPC   C3A28925  40.782  12.082   7.950
 6511POPC   C4A28926  40.805  12.032   7.650
 6511POPC   C1B28927  40.585  12.188   8.550
 6511POPC   C2B28928  40.522  12.224   8.250
 6511POPC   C3B28929  40.562  12.155   7.950
 6511POPC   C4B28930  40.577  12.161   7.650
 6512POPC   NC328931  22.176  33.844   9.450
 6512POPC   PO428932  22.183  33.809   9.150
 6512POPC   GL128933  22.174  33.824   8.850
 6512POPC   GL228934  22.151  33.939   8.850
 6512POPC   C1A28935  22.211  33.819   8.550
 6512POPC   D2A28936  22.155  33.817   8.250
 6512POPC   C3A28937  22.169  33.805   7.950
 6512POPC   C4A28938  22.203  33.794   7.650
 6512POPC   C1B28939  22.158  34.005   8.550
 6512POPC   C2B28940  22.225  34.063   8.250
 6512POPC   C3B28941  22.143  34.027   7.950
 6512POPC   C4B28942  22.216  34.093   7.650
 6513POPC   NC328943   7.403  21.428   9.450
 6513POPC   PO428944   7.441  21.364   9.150
 6513POPC   GL128945   7.375  21.390   8.850
 6513POPC   GL228946   7.306  21.469   8.850
 6513POPC   C1A28947   7.409  21.356   8.550
 6513POPC   D2A28948   7.387  21.367   8.250
 6513POPC   C3A28949   7.404  21.426   7.950
 6513POPC   C4A28950   7.469  21.414   7.650
 6513POPC   C1B28951   7.248  21.544   8.550
 6513POPC   C2B28952   7.227  21.501   8.250
 6513POPC   C3B28953   7.192  21.508   7.950
 6513POPC   C4B28954   7.192  21.573   7.650
 6514POPC   NC328955  22.982  36.160   9.450
 6514POPC   PO428956  22.957  36.080   9.150
 6514POPC   GL128957  22.978  36.083   8.850
 6514POPC   GL228958  22.938  36.013   8.850
 6514POPC   C1A28959  22.930  36.110   8.550
 6514POPC   D2A28960  22.971  36.089   8.250
 6514POPC   C3A28961  22.943  36.126   7.950
 6514POPC   C4A28962  22.929  36.175   7.650
 6514POPC   C1B28963  22.959  35.859   8.550
 6514POPC   C2B28964  23.015  35.889   8.250
 6514POPC   C3B28965  22.998  35.919   7.950
 6514POPC   C4B28966  22.949  35.888   7.650
 6515POPC   NC328967  19.038  14.373   9.450
 6515POPC   PO428968  19.095  14.420   9.150
 6515POPC   GL128969  19.062  14.385   8.850
 6515POPC   GL228970  18.973  14.371   8.850
 6515POPC   C1A28971  19.017  14.428   8.550
 6515POPC   D2A28972  19.091  14.402   8.250
 6515POPC   C3A28973  19.071  14.358   7.950
 6515POPC   C4A28974  19.053  14.420   7.650
 6515POPC   C1B28975  18.774  14.349   8.550
 6515POPC   C2B28976  18.778  14.364   8.250
 6515POPC   C3B28977  18.833  14.366   7.950
 6515POPC   C4B28978  18.845  14.333   7.650
 6516POPC   NC328979  38.470  36.135   9.450
 6516POPC   PO428980  38.484  36.142   9.150
 6516POPC   GL128981  38.428  36.167   8.850
 6516POPC   GL228982  38.435  36.296   8.850
 6516POPC   C1A28983  38.428  36.106   8.550
 6516POPC   D2A28984  38.503  36.115   8.250
 6516POPC   C3A28985  38.449  36.124   7.950
 6516POPC   C4A28986  38.487  36.094   7.650
 6516POPC   C1B28987  38.532  36.337   8.550
 6516POPC   C2B28988  38.510  36.362   8.250
 6516POPC   C3B28989  38.494  36.384   7.950
 6516POPC   C4B28990  38.445  36.344   7.650
 6517POPC   NC328991  23.745   5.071   9.450
 6517POPC   PO428992  23.728   5.132   9.150
 6517POPC   GL128993  23.667   5.047   8.850
 6517POPC   GL228994  23.850   5.079   8.850
 6517POPC   C1A28995  23.711   5.115   8.550
 6517POPC   D2A28996  23.713   5.106   8.250
 6517POPC   C3A28997  23.681   5.065   7.950
 6517POPC   C4A28998  23.693   5.078   7.650
 6517POPC   C1B28999  23.922   5.097   8.550
 6517POPC   C2B29000  24.011   5.117   8.250
 6517POPC   C3B29001  23.949   5.110   7.950
 6517POPC   C4B29002  24.010   5.134   7.650
 6518POPC   NC329003  13.644  29.887   9.450
 6518POPC   PO429004  13.604  29.967   9.150
 6518POPC   GL129005  13.640  29.942   8.850
 6518POPC   GL229006  13.582  29.852   8.850
 6518POPC   C1A29007  13.592  29.881   8.550
 6518POPC   D2A29008  13.653  29.881   8.250
 6518POPC   C3A29009  13.673  29.879   7.950
 6518POPC   C4A29010  13.664  29.902   7.650
 6518POPC   C1B29011  13.479  29.716   8.550
 6518POPC   C2B29012  13.488  29.690   8.250
 6518POPC   C3B29013  13.547  29.736   7.950
 6518POPC   C4B29014  13.557  29.749   7.650
 6519POPC   NC329015  22.177  32.289   9.450
 6519POPC   PO429016  22.140  32.251   9.150
 6519POPC   GL129017  22.194  32.271   8.850
 6519POPC   GL229018  22.306  32.305   8.850
 6519POPC   C1A29019  22.200  32.295   8.550
 6519POPC   D2A29020  22.168  32.257   8.250
 6519POPC   C3A29021  22.115  32.274   7.950
 6519POPC   C4A29022  22.197  32.206   7.650
 6519POPC   C1B29023  22.370  32.355   8.550
 6519POPC   C2B29024  22.379  32.389   8.250
 6519POPC   C3B29025  22.383  32.366   7.950
 6519POPC   C4B29026  22.338  32.419   7.650
 6520POPC   NC329027  24.459  40.795   9.450
 6520POPC   PO429028  24.519  40.767   9.150
 6520POPC   GL129029  24.460  40.765   8.850
 6520POPC   GL229030  24.465  40.891   8.850
 6520POPC   C1A29031  24.468  40.737   8.550
 6520POPC   D2A29032  24.470  40.786   8.250
 6520POPC   C3A29033  24.467  40.830   7.950
 6520POPC   C4A29034  24.525  40.788   7.650
 6520POPC   C1B29035  24.378  41.056   8.550
 6520POPC   C2B29036  24.416  41.033   8.250
 6520POPC   C3B29037  24.412  40.979   7.950
 6520POPC   C4B29038  24.418  41.056   7.650
 6521POPC   NC329039  15.131  10.487   9.450
 6521POPC   PO429040  15.156  10.490   9.150
 6521POPC   GL129041  15.159  10.489   8.850
 6521POPC   GL229042  15.249  10.642   8.850
 6521POPC   C1A29043  15.161  10.556   8.550
 6521POPC   D2A29044  15.197  10.569   8.250
 6521POPC   C3A29045  15.148  10.540   7.950
 6521POPC   C4A29046  15.132  10.535   7.650
 6521POPC   C1B29047  15.397  10.756   8.550
 6521POPC   C2B29048  15.380  10.747   8.250
 6521POPC   C3B29049  15.361  10.703   7.950
 6521POPC   C4B29050  15.305  10.672   7.650
 6522POPC   NC329051  42.322  29.957   9.450
 6522POPC   PO429052  42.322  29.873   9.150
 6522POPC   GL129053  42.312  29.961   8.850
 6522POPC   GL229054  42.235  30.003   8.850
 6522POPC   C1A29055  42.340  29.956   8.550
 6522POPC   D2A29056  42.384  29.871   8.250
 6522POPC   C3A29057  42.309  29.946   7.950
 6522POPC   C4A29058  42.330  29.924   7.650
 6522POPC   C1B29059  42.162  30.087   8.550
 6522POPC   C2B29060  42.133  30.019   8.250
 6522POPC   C3B29061  42.154  30.073   7.950
 6522POPC   C4B29062  42.102  30.056   7.650
 6523POPC   NC329063  28.414  21.408   9.450
 6523POPC   PO429064  28.391  21.387   9.150
 6523POPC   GL129065  28.357  21.398   8.850
 6523POPC   GL229066  28.399  21.459   8.850
 6523POPC   C1A29067  28.397  21.337   8.550
 6523POPC   D2A29068  28.362  21.369   8.250
 6523POPC   C3A29069  28.346  21.419   7.950
 6523POPC   C4A29070  28.383  21.398   7.650
 6523POPC   C1B29071  28.435  21.673   8.550
 6523POPC   C2B29072  28.402  21.622   8.250
 6523POPC   C3B29073  28.403  21.591   7.950
 6523POPC   C4B29074  28.488  21.644   7.650
 6524POPC   NC329075  34.564  40.767   9.450
 6524POPC   PO429076  34.583  40.735   9.150
 6524POPC   GL129077  34.617  40.827   8.850
 6524POPC   GL229078  34.407  40.766   8.850
 6524POPC   C1A29079  34.565  40.762   8.550
 6524POPC   D2A29080  34.616  40.810   8.250
 6524POPC   C3A29081  34.571  40.830   7.950
 6524POPC   C4A29082  34.592  40.812   7.650
 6524POPC   C1B29083  34.353  40.716   8.550
 6524POPC   C2B29084  34.310  40.721   8.250
 6524POPC   C3B29085  34.372  40.780   7.950
 6524POPC   C4B29086  34.313  40.793   7.650
 6525POPC   NC329087  16.714  44.688   9.450
 6525POPC   PO429088  16.703  44.629   9.150
 6525POPC   GL129089  16.682  44.671   8.850
 6525POPC   GL229090  16.684  44.540   8.850
 6525POPC   C1A29091  16.698  44.673   8.550
 6525POPC   D2A29092  16.726  44.679   8.250
 6525POPC   C3A29093  16.701  44.680   7.950
 6525POPC   C4A29094  16.775  44.676   7.650
 6525POPC   C1B29095  16.620  44.469   8.550
 6525POPC   C2B29096  16.552  44.457   8.250
 6525POPC   C3B29097  16.550  44.435   7.950
 6525POPC   C4B29098  16.598  44.436   7.650
 6526POPC   NC329099   7.378  22.934   9.450
 6526POPC   PO429100   7.407  22.951   9.150
 6526POPC   GL129101   7.442  22.968   8.850
 6526POPC   GL229102   7.555  22.915   8.850
 6526POPC   C1A29103   7.423  22.901   8.550
 6526POPC   D2A29104   7.382  22.932   8.250
 6526POPC   C3A29105   7.411  22.974   7.950
 6526POPC   C4A29106   7.459  22.983   7.650
 6526POPC   C1B29107   7.696  22.899   8.550
 6526POPC   C2B29108   7.631  22.879   8.250
 6526POPC   C3B29109   7.690  22.892   7.950
 6526POPC   C4B29110   7.647  22.839   7.650
 6527POPC   NC329111   8.172  25.237   9.450
 6527POPC   PO429112   8.149  25.315   9.150
 6527POPC   GL129113   8.217  25.261   8.850
 6527POPC   GL229114   8.360  25.245   8.850
 6527POPC   C1A29115   8.245  25.261   8.550
 6527POPC   D2A29116   8.195  25.287   8.250
 6527POPC   C3A29117   8.236  25.305   7.950
 6527POPC   C4A29118   8.201  25.273   7.650
 6527POPC   C1B29119   8.464  25.302   8.550
 6527POPC   C2B29120   8.430  25.282   8.250
 6527POPC   C3B29121   8.418  25.246   7.950
 6527POPC   C4B29122   8.474  25.297   7.650
 6528POPC   NC329123  42.288  14.385   9.450
 6528POPC   PO429124  42.296  14.440   9.150
 6528POPC   GL129125  42.383  14.367   8.850
 6528POPC   GL229126  42.396  14.305   8.850
 6528POPC   C1A29127  42.307  14.373   8.550
 6528POPC   D2A29128  42.340  14.440   8.250
 6528POPC   C3A29129  42.371  14.402   7.950
 6528POPC   C4A29130  42.332  14.372   7.650
 6528POPC   C1B29131  42.442  14.154   8.550
 6528POPC   C2B29132  42.458  14.171   8.250
 6528POPC   C3B29133  42.448  14.168   7.950
 6528POPC   C4B29134  42.462  14.236   7.650
 6529POPC   NC329135  14.387  28.393   9.450
 6529POPC   PO429136  14.366  28.412   9.150
 6529POPC   GL129137  14.416  28.358   8.850
 6529POPC   GL229138  14.480  28.375   8.850
 6529POPC   C1A29139  14.358  28.382   8.550
 6529POPC   D2A29140  14.377  28.394   8.250
 6529POPC   C3A29141  14.379  28.409   7.950
 6529POPC   C4A29142  14.416  28.382   7.650
 6529POPC   C1B29143  14.685  28.281   8.550
 6529POPC   C2B29144  14.655  28.338   8.250
 6529POPC   C3B29145  14.650  28.300   7.950
 6529POPC   C4B29146  14.607  28.284   7.650
 6530POPC   NC329147  32.282  25.264   9.450
 6530POPC   PO429148  32.253  25.279   9.150
 6530POPC   GL129149  32.201  25.218   8.850
 6530POPC   GL229150  32.393  25.377   8.850
 6530POPC   C1A29151  32.226  25.284   8.550
 6530POPC   D2A29152  32.223  25.230   8.250
 6530POPC   C3A29153  32.215  25.273   7.950
 6530POPC   C4A29154  32.215  25.260   7.650
 6530POPC   C1B29155  32.497  25.418   8.550
 6530POPC   C2B29156  32.477  25.396   8.250
 6530POPC   C3B29157  32.482  25.365   7.950
 6530POPC   C4B29158  32.497  25.407   7.650
 6531POPC   NC329159  30.654  13.675   9.450
 6531POPC   PO429160  30.722  13.607   9.150
 6531POPC   GL129161  30.668  13.597   8.850
 6531POPC   GL229162  30.840  13.732   8.850
 6531POPC   C1A29163  30.746  13.614   8.550
 6531POPC   D2A29164  30.691  13.652   8.250
 6531POPC   C3A29165  30.695  13.633   7.950
 6531POPC   C4A29166  30.729  13.659   7.650
 6531POPC   C1B29167  30.852  13.759   8.550
 6531POPC   C2B29168  30.927  13.821   8.250
 6531POPC   C3B29169  30.911  13.796   7.950
 6531POPC   C4B29170  30.847  13.811   7.650
 6532POPC   NC329171   4.275   1.254   9.450
 6532POPC   PO429172   4.345   1.221   9.150
 6532POPC   GL129173   4.288   1.238   8.850
 6532POPC   GL229174   4.208   1.298   8.850
 6532POPC   C1A29175   4.287   1.217   8.550
 6532POPC   D2A29176   4.352   1.176   8.250
 6532POPC   C3A29177   4.285   1.217   7.950
 6532POPC   C4A29178   4.347   1.199   7.650
 6532POPC   C1B29179   4.182   1.433   8.550
 6532POPC   C2B29180   4.177   1.459   8.250
 6532POPC   C3B29181   4.185   1.470   7.950
 6532POPC   C4B29182   4.192   1.395   7.650
 6533POPC   NC329183   5.886   2.017   9.450
 6533POPC   PO429184   5.872   1.989   9.150
 6533POPC   GL129185   5.867   2.014   8.850
 6533POPC   GL229186   6.018   1.997   8.850
 6533POPC   C1A29187   5.905   1.949   8.550
 6533POPC   D2A29188   5.876   1.959   8.250
 6533POPC   C3A29189   5.828   1.967   7.950
 6533POPC   C4A29190   5.864   1.985   7.650
 6533POPC   C1B29191   6.137   1.950   8.550
 6533POPC   C2B29192   6.067   1.936   8.250
 6533POPC   C3B29193   6.149   1.953   7.950
 6533POPC   C4B29194   6.078   1.869   7.650
 6534POPC   NC329195  39.189  42.381   9.450
 6534POPC   PO429196  39.234  42.376   9.150
 6534POPC   GL129197  39.257  42.301   8.850
 6534POPC   GL229198  39.244  42.191   8.850
 6534POPC   C1A29199  39.197  42.325   8.550
 6534POPC   D2A29200  39.268  42.350   8.250
 6534POPC   C3A29201  39.229  42.377   7.950
 6534POPC   C4A29202  39.239  42.371   7.650
 6534POPC   C1B29203  39.225  42.061   8.550
 6534POPC   C2B29204  39.216  42.130   8.250
 6534POPC   C3B29205  39.279  42.122   7.950
 6534POPC   C4B29206  39.269  42.089   7.650
 6535POPC   NC329207  10.555  36.873   9.450
 6535POPC   PO429208  10.572  36.881   9.150
 6535POPC   GL129209  10.545  36.903   8.850
 6535POPC   GL229210  10.681  36.928   8.850
 6535POPC   C1A29211  10.525  36.912   8.550
 6535POPC   D2A29212  10.542  36.946   8.250
 6535POPC   C3A29213  10.543  36.947   7.950
 6535POPC   C4A29214  10.510  36.943   7.650
 6535POPC   C1B29215  10.770  36.953   8.550
 6535POPC   C2B29216  10.807  36.975   8.250
 6535POPC   C3B29217  10.746  36.960   7.950
 6535POPC   C4B29218  10.745  36.887   7.650
 6536POPC   NC329219  42.345  33.031   9.450
 6536POPC   PO429220  42.379  33.054   9.150
 6536POPC   GL129221  42.343  33.040   8.850
 6536POPC   GL229222  42.420  32.880   8.850
 6536POPC   C1A29223  42.324  32.989   8.550
 6536POPC   D2A29224  42.369  32.983   8.250
 6536POPC   C3A29225  42.383  33.012   7.950
 6536POPC   C4A29226  42.311  33.025   7.650
 6536POPC   C1B29227  42.432  32.845   8.550
 6536POPC   C2B29228  42.496  32.795   8.250
 6536POPC   C3B29229  42.479  32.825   7.950
 6536POPC   C4B29230  42.516  32.795   7.650
 6537POPC   NC329231  34.604  43.848   9.450
 6537POPC   PO429232  34.610  43.868   9.150
 6537POPC   GL129233  34.550  43.884   8.850
 6537POPC   GL229234  34.467  43.865   8.850
 6537POPC   C1A29235  34.539  43.919   8.550
 6537POPC   D2A29236  34.595  43.928   8.250
 6537POPC   C3A29237  34.556  43.857   7.950
 6537POPC   C4A29238  34.550  43.846   7.650
 6537POPC   C1B29239  34.302  43.751   8.550
 6537POPC   C2B29240  34.356  43.751   8.250
 6537POPC   C3B29241  34.363  43.762   7.950
 6537POPC   C4B29242  34.315  43.832   7.650
 6538POPC   NC329243  36.174  21.399   9.450
 6538POPC   PO429244  36.177  21.344   9.150
 6538POPC   GL129245  36.138  21.384   8.850
 6538POPC   GL229246  36.031  21.366   8.850
 6538POPC   C1A29247  36.170  21.368   8.550
 6538POPC   D2A29248  36.111  21.337   8.250
 6538POPC   C3A29249  36.173  21.428   7.950
 6538POPC   C4A29250  36.175  21.388   7.650
 6538POPC   C1B29251  35.924  21.338   8.550
 6538POPC   C2B29252  35.862  21.372   8.250
 6538POPC   C3B29253  35.868  21.314   7.950
 6538POPC   C4B29254  35.917  21.358   7.650
 6539POPC   NC329255  42.366   2.000   9.450
 6539POPC   PO429256  42.359   1.969   9.150
 6539POPC   GL129257  42.310   2.033   8.850
 6539POPC   GL229258  42.297   2.101   8.850
 6539POPC   C1A29259  42.354   1.983   8.550
 6539POPC   D2A29260  42.294   2.018   8.250
 6539POPC   C3A29261  42.371   1.955   7.950
 6539POPC   C4A29262  42.362   2.001   7.650
 6539POPC   C1B29263  42.167   2.238   8.550
 6539POPC   C2B29264  42.169   2.240   8.250
 6539POPC   C3B29265  42.234   2.199   7.950
 6539POPC   C4B29266  42.190   2.231   7.650
 6540POPC   NC329267   0.408  24.464   9.450
 6540POPC   PO429268   0.479  24.535   9.150
 6540POPC   GL129269   0.453  24.509   8.850
 6540POPC   GL229270   0.510  24.356   8.850
 6540POPC   C1A29271   0.425  24.483   8.550
 6540POPC   D2A29272   0.459  24.502   8.250
 6540POPC   C3A29273   0.414  24.473   7.950
 6540POPC   C4A29274   0.426  24.530   7.650
 6540POPC   C1B29275   0.609  24.298   8.550
 6540POPC   C2B29276   0.560  24.313   8.250
 6540POPC   C3B29277   0.593  24.277   7.950
 6540POPC   C4B29278   0.533  24.292   7.650
 6541POPC   NC329279  22.962  36.898   9.450
 6541POPC   PO429280  22.917  36.920   9.150
 6541POPC   GL129281  22.959  36.935   8.850
 6541POPC   GL229282  23.083  36.954   8.850
 6541POPC   C1A29283  22.980  36.902   8.550
 6541POPC   D2A29284  22.927  36.953   8.250
 6541POPC   C3A29285  22.891  36.935   7.950
 6541POPC   C4A29286  22.924  36.872   7.650
 6541POPC   C1B29287  23.232  36.956   8.550
 6541POPC   C2B29288  23.175  36.969   8.250
 6541POPC   C3B29289  23.234  36.934   7.950
 6541POPC   C4B29290  23.163  36.906   7.650
 6542POPC   NC329291  26.009  10.507   9.450
 6542POPC   PO429292  26.041  10.520   9.150
 6542POPC   GL129293  26.057  10.531   8.850
 6542POPC   GL229294  25.971  10.496   8.850
 6542POPC   C1A29295  26.073  10.532   8.550
 6542POPC   D2A29296  26.020  10.552   8.250
 6542POPC   C3A29297  26.026  10.517   7.950
 6542POPC   C4A29298  26.020  10.503   7.650
 6542POPC   C1B29299  25.838  10.448   8.550
 6542POPC   C2B29300  25.797  10.420   8.250
 6542POPC   C3B29301  25.793  10.391   7.950
 6542POPC   C4B29302  25.793  10.449   7.650
 6543POPC   NC329303  44.672  43.135   9.450
 6543POPC   PO429304  44.646  43.091   9.150
 6543POPC   GL129305  44.700  43.081   8.850
 6543POPC   GL229306  44.699  43.257   8.850
 6543POPC   C1A29307  44.660  43.067   8.550
 6543POPC   D2A29308  44.631  43.104   8.250
 6543POPC   C3A29309  44.654  43.107   7.950
 6543POPC   C4A29310  44.677  43.098   7.650
 6543POPC   C1B29311  44.678  43.380   8.550
 6543POPC   C2B29312  44.761  43.319   8.250
 6543POPC   C3B29313  44.751  43.392   7.950
 6543POPC   C4B29314  44.757  43.309   7.650
 6544POPC   NC329315   3.551  28.403   9.450
 6544POPC   PO429316   3.577  28.385   9.150
 6544POPC   GL129317   3.578  28.382   8.850
 6544POPC   GL229318   3.584  28.466   8.850
 6544POPC   C1A29319   3.526  28.397   8.550
 6544POPC   D2A29320   3.492  28.415   8.250
 6544POPC   C3A29321   3.528  28.346   7.950
 6544POPC   C4A29322   3.535  28.321   7.650
 6544POPC   C1B29323   3.560  28.571   8.550
 6544POPC   C2B29324   3.531  28.593   8.250
 6544POPC   C3B29325   3.546  28.648   7.950
 6544POPC   C4B29326   3.566  28.623   7.650
 6545POPC   NC329327  22.940  19.874   9.450
 6545POPC   PO429328  22.969  19.834   9.150
 6545POPC   GL129329  22.980  19.849   8.850
 6545POPC   GL229330  22.837  19.806   8.850
 6545POPC   C1A29331  22.974  19.827   8.550
 6545POPC   D2A29332  22.928  19.860   8.250
 6545POPC   C3A29333  22.972  19.789   7.950
 6545POPC   C4A29334  22.958  19.814   7.650
 6545POPC   C1B29335  22.711  19.872   8.550
 6545POPC   C2B29336  22.717  19.883   8.250
 6545POPC   C3B29337  22.662  19.800   7.950
 6545POPC   C4B29338  22.701  19.799   7.650
 6546POPC   NC329339  35.386  34.572   9.450
 6546POPC   PO429340  35.335  34.607   9.150
 6546POPC   GL129341  35.302  34.610   8.850
 6546POPC   GL229342  35.447  34.512   8.850
 6546POPC   C1A29343  35.308  34.583   8.550
 6546POPC   D2A29344  35.391  34.597   8.250
 6546POPC   C3A29345  35.353  34.546   7.950
 6546POPC   C4A29346  35.338  34.559   7.650
 6546POPC   C1B29347  35.577  34.454   8.550
 6546POPC   C2B29348  35.626  34.472   8.250
 6546POPC   C3B29349  35.603  34.526   7.950
 6546POPC   C4B29350  35.625  34.513   7.650
 6547POPC   NC329351  17.513  38.407   9.450
 6547POPC   PO429352  17.458  38.437   9.150
 6547POPC   GL129353  17.504  38.458   8.850
 6547POPC   GL229354  17.632  38.414   8.850
 6547POPC   C1A29355  17.549  38.499   8.550
 6547POPC   D2A29356  17.504  38.460   8.250
 6547POPC   C3A29357  17.484  38.481   7.950
 6547POPC   C4A29358  17.489  38.455   7.650
 6547POPC   C1B29359  17.707  38.503   8.550
 6547POPC   C2B29360  17.769  38.501   8.250
 6547POPC   C3B29361  17.741  38.434   7.950
 6547POPC   C4B29362  17.749  38.462   7.650
 6548POPC   NC329363   1.240  36.138   9.450
 6548POPC   PO429364   1.164  36.168   9.150
 6548POPC   GL129365   1.259  36.148   8.850
 6548POPC   GL229366   1.287  36.004   8.850
 6548POPC   C1A29367   1.175  36.123   8.550
 6548POPC   D2A29368   1.244  36.154   8.250
 6548POPC   C3A29369   1.257  36.096   7.950
 6548POPC   C4A29370   1.259  36.164   7.650
 6548POPC   C1B29371   1.293  35.858   8.550
 6548POPC   C2B29372   1.273  35.898   8.250
 6548POPC   C3B29373   1.258  35.932   7.950
 6548POPC   C4B29374   1.259  35.898   7.650
 6549POPC   NC329375   8.938   5.845   9.450
 6549POPC   PO429376   8.942   5.841   9.150
 6549POPC   GL129377   8.928   5.860   8.850
 6549POPC   GL229378   8.907   5.763   8.850
 6549POPC   C1A29379   9.019   5.911   8.550
 6549POPC   D2A29380   8.975   5.912   8.250
 6549POPC   C3A29381   9.014   5.898   7.950
 6549POPC   C4A29382   8.940   5.856   7.650
 6549POPC   C1B29383   8.793   5.746   8.550
 6549POPC   C2B29384   8.814   5.717   8.250
 6549POPC   C3B29385   8.731   5.685   7.950
 6549POPC   C4B29386   8.759   5.753   7.650
 6550POPC   NC329387  22.946   8.976   9.450
 6550POPC   PO429388  22.957   8.989   9.150
 6550POPC   GL129389  22.935   9.012   8.850
 6550POPC   GL229390  22.904   8.915   8.850
 6550POPC   C1A29391  22.916   9.021   8.550
 6550POPC   D2A29392  22.929   8.936   8.250
 6550POPC   C3A29393  22.945   9.015   7.950
 6550POPC   C4A29394  22.987   8.923   7.650
 6550POPC   C1B29395  22.776   8.794   8.550
 6550POPC   C2B29396  22.821   8.767   8.250
 6550POPC   C3B29397  22.798   8.735   7.950
 6550POPC   C4B29398  22.787   8.795   7.650
 6551POPC   NC329399   8.165   1.178   9.450
 6551POPC   PO429400   8.147   1.175   9.150
 6551POPC   GL129401   8.171   1.230   8.850
 6551POPC   GL229402   8.177   1.336   8.850
 6551POPC   C1A29403   8.239   1.225   8.550
 6551POPC   D2A29404   8.165   1.196   8.250
 6551POPC   C3A29405   8.243   1.214   7.950
 6551POPC   C4A29406   8.178   1.228   7.650
 6551POPC   C1B29407   8.120   1.413   8.550
 6551POPC   C2B29408   8.048   1.424   8.250
 6551POPC   C3B29409   8.075   1.402   7.950
 6551POPC   C4B29410   8.058   1.449   7.650
 6552POPC   NC329411  40.001  23.746   9.450
 6552POPC   PO429412  40.047  23.752   9.150
 6552POPC   GL129413  40.020  23.703   8.850
 6552POPC   GL229414  39.877  23.842   8.850
 6552POPC   C1A29415  40.053  23.674   8.550
 6552POPC   D2A29416  40.016  23.725   8.250
 6552POPC   C3A29417  39.988  23.679   7.950
 6552POPC   C4A29418  40.028  23.740   7.650
 6552POPC   C1B29419  39.776  23.913   8.550
 6552POPC   C2B29420  39.851  23.884   8.250
 6552POPC   C3B29421  39.769  23.873   7.950
 6552POPC   C4B29422  39.826  23.868   7.650
 6553POPC   NC329423  33.807   5.072   9.450
 6553POPC   PO429424  33.761   5.102   9.150
 6553POPC   GL129425  33.826   5.133   8.850
 6553POPC   GL229426  33.969   5.091   8.850
 6553POPC   C1A29427  33.793   5.104   8.550
 6553POPC   D2A29428  33.782   5.133   8.250
 6553POPC   C3A29429  33.764   5.064   7.950
 6553POPC   C4A29430  33.814   5.071   7.650
 6553POPC   C1B29431  34.050   5.172   8.550
 6553POPC   C2B29432  34.025   5.117   8.250
 6553POPC   C3B29433  34.090   5.200   7.950
 6553POPC   C4B29434  34.036   5.111   7.650
 6554POPC   NC329435  38.441  36.863   9.450
 6554POPC   PO429436  38.446  36.929   9.150
 6554POPC   GL129437  38.463  36.869   8.850
 6554POPC   GL229438  38.596  36.842   8.850
 6554POPC   C1A29439  38.463  36.908   8.550
 6554POPC   D2A29440  38.413  36.936   8.250
 6554POPC   C3A29441  38.500  36.864   7.950
 6554POPC   C4A29442  38.444  36.931   7.650
 6554POPC   C1B29443  38.679  36.903   8.550
 6554POPC   C2B29444  38.669  36.876   8.250
 6554POPC   C3B29445  38.734  36.858   7.950
 6554POPC   C4B29446  38.721  36.844   7.650
 6555POPC   NC329447  44.621   9.751   9.450
 6555POPC   PO429448  44.665   9.763   9.150
 6555POPC   GL129449  44.679   9.755   8.850
 6555POPC   GL229450  44.691   9.584   8.850
 6555POPC   C1A29451  44.661   9.756   8.550
 6555POPC   D2A29452  44.640   9.756   8.250
 6555POPC   C3A29453  44.696   9.744   7.950
 6555POPC   C4A29454  44.663   9.759   7.650
 6555POPC   C1B29455  44.757   9.483   8.550
 6555POPC   C2B29456  44.712   9.492   8.250
 6555POPC   C3B29457  44.691   9.459   7.950
 6555POPC   C4B29458  44.719   9.543   7.650
 6556POPC   NC329459  37.641  12.877   9.450
 6556POPC   PO429460  37.666  12.880   9.150
 6556POPC   GL129461  37.679  12.877   8.850
 6556POPC   GL229462  37.535  12.752   8.850
 6556POPC   C1A29463  37.710  12.880   8.550
 6556POPC   D2A29464  37.634  12.836   8.250
 6556POPC   C3A29465  37.642  12.901   7.950
 6556POPC   C4A29466  37.719  12.819   7.650
 6556POPC   C1B29467  37.465  12.717   8.550
 6556POPC   C2B29468  37.458  12.651   8.250
 6556POPC   C3B29469  37.470  12.731   7.950
 6556POPC   C4B29470  37.452  12.724   7.650
 6557POPC   NC329471  29.101   2.731   9.450
 6557POPC   PO429472  29.104   2.752   9.150
 6557POPC   GL129473  29.131   2.812   8.850
 6557POPC   GL229474  29.295   2.720   8.850
 6557POPC   C1A29475  29.167   2.744   8.550
 6557POPC   D2A29476  29.108   2.781   8.250
 6557POPC   C3A29477  29.105   2.718   7.950
 6557POPC   C4A29478  29.128   2.790   7.650
 6557POPC   C1B29479  29.368   2.711   8.550
 6557POPC   C2B29480  29.363   2.732   8.250
 6557POPC   C3B29481  29.381   2.737   7.950
 6557POPC   C4B29482  29.393   2.727   7.650
 6558POPC   NC329483  22.902  22.911   9.450
 6558POPC   PO429484  22.897  22.976   9.150
 6558POPC   GL129485  22.901  22.901   8.850
 6558POPC   GL229486  22.933  23.074   8.850
 6558POPC   C1A29487  22.907  22.965   8.550
 6558POPC   D2A29488  22.931  22.934   8.250
 6558POPC   C3A29489  22.917  22.948   7.950
 6558POPC   C4A29490  22.986  22.947   7.650
 6558POPC   C1B29491  22.873  23.201   8.550
 6558POPC   C2B29492  22.888  23.158   8.250
 6558POPC   C3B29493  22.843  23.168   7.950
 6558POPC   C4B29494  22.893  23.187   7.650
 6559POPC   NC329495   4.303  35.364   9.450
 6559POPC   PO429496   4.347  35.381   9.150
 6559POPC   GL129497   4.340  35.388   8.850
 6559POPC   GL229498   4.325  35.470   8.850
 6559POPC   C1A29499   4.284  35.365   8.550
 6559POPC   D2A29500   4.327  35.321   8.250
 6559POPC   C3A29501   4.352  35.321   7.950
 6559POPC   C4A29502   4.341  35.303   7.650
 6559POPC   C1B29503   4.215  35.630   8.550
 6559POPC   C2B29504   4.230  35.563   8.250
 6559POPC   C3B29505   4.238  35.594   7.950
 6559POPC   C4B29506   4.267  35.557   7.650
 6560POPC   NC329507  39.977  17.553   9.450
 6560POPC   PO429508  39.972  17.499   9.150
 6560POPC   GL129509  40.025  17.532   8.850
 6560POPC   GL229510  40.149  17.555   8.850
 6560POPC   C1A29511  40.018  17.509   8.550
 6560POPC   D2A29512  40.029  17.470   8.250
 6560POPC   C3A29513  39.973  17.472   7.950
 6560POPC   C4A29514  39.966  17.483   7.650
 6560POPC   C1B29515  40.290  17.522   8.550
 6560POPC   C2B29516  40.296  17.611   8.250
 6560POPC   C3B29517  40.279  17.559   7.950
 6560POPC   C4B29518  40.203  17.529   7.650
 6561POPC   NC329519  44.709  24.458   9.450
 6561POPC   PO429520  44.640  24.503   9.150
 6561POPC   GL129521  44.658  24.459   8.850
 6561POPC   GL229522  44.686  24.602   8.850
 6561POPC   C1A29523  44.705  24.440   8.550
 6561POPC   D2A29524  44.649  24.473   8.250
 6561POPC   C3A29525  44.641  24.464   7.950
 6561POPC   C4A29526  44.712  24.532   7.650
 6561POPC   C1B29527  44.763  24.690   8.550
 6561POPC   C2B29528  44.742  24.695   8.250
 6561POPC   C3B29529  44.732  24.761   7.950
 6561POPC   C4B29530  44.766  24.688   7.650
 6562POPC   NC329531  12.901  29.876   9.450
 6562POPC   PO429532  12.833  29.960   9.150
 6562POPC   GL129533  12.879  29.893   8.850
 6562POPC   GL229534  12.809  29.839   8.850
 6562POPC   C1A29535  12.829  29.936   8.550
 6562POPC   D2A29536  12.897  29.970   8.250
 6562POPC   C3A29537  12.882  29.918   7.950
 6562POPC   C4A29538  12.883  29.964   7.650
 6562POPC   C1B29539  12.841  29.638   8.550
 6562POPC   C2B29540  12.857  29.678   8.250
 6562POPC   C3B29541  12.850  29.678   7.950
 6562POPC   C4B29542  12.783  29.675   7.650
 6563POPC   NC329543   2.002  44.649   9.450
 6563POPC   PO429544   2.017  44.649   9.150
 6563POPC   GL129545   1.943  44.707   8.850
 6563POPC   GL229546   2.076  44.703   8.850
 6563POPC   C1A29547   1.977  44.620   8.550
 6563POPC   D2A29548   1.992  44.699   8.250
 6563POPC   C3A29549   1.998  44.676   7.950
 6563POPC   C4A29550   2.024  44.701   7.650
 6563POPC   C1B29551   2.196  44.635   8.550
 6563POPC   C2B29552   2.240  44.726   8.250
 6563POPC   C3B29553   2.257  44.672   7.950
 6563POPC   C4B29554   2.264  44.714   7.650
 6564POPC   NC329555   2.786  28.381   9.450
 6564POPC   PO429556   2.797  28.404   9.150
 6564POPC   GL129557   2.806  28.321   8.850
 6564POPC   GL229558   2.806  28.301   8.850
 6564POPC   C1A29559   2.733  28.370   8.550
 6564POPC   D2A29560   2.747  28.380   8.250
 6564POPC   C3A29561   2.803  28.352   7.950
 6564POPC   C4A29562   2.758  28.348   7.650
 6564POPC   C1B29563   2.892  28.177   8.550
 6564POPC   C2B29564   2.871  28.135   8.250
 6564POPC   C3B29565   2.849  28.145   7.950
 6564POPC   C4B29566   2.914  28.103   7.650
 6565POPC   NC329567  15.204  26.017   9.450
 6565POPC   PO429568  15.222  26.045   9.150
 6565POPC   GL129569  15.228  26.009   8.850
 6565POPC   GL229570  15.188  25.905   8.850
 6565POPC   C1A29571  15.168  26.013   8.550
 6565POPC   D2A29572  15.130  26.008   8.250
 6565POPC   C3A29573  15.150  26.088   7.950
 6565POPC   C4A29574  15.225  26.061   7.650
 6565POPC   C1B29575  15.134  25.818   8.550
 6565POPC   C2B29576  15.166  25.794   8.250
 6565POPC   C3B29577  15.110  25.793   7.950
 6565POPC   C4B29578  15.160  25.785   7.650
 6566POPC   NC329579   8.202  12.882   9.450
 6566POPC   PO429580   8.153  12.890   9.150
 6566POPC   GL129581   8.247  12.901   8.850
 6566POPC   GL229582   8.110  12.866   8.850
 6566POPC   C1A29583   8.153  12.891   8.550
 6566POPC   D2A29584   8.153  12.855   8.250
 6566POPC   C3A29585   8.228  12.813   7.950
 6566POPC   C4A29586   8.184  12.815   7.650
 6566POPC   C1B29587   7.926  12.954   8.550
 6566POPC   C2B29588   7.993  12.979   8.250
 6566POPC   C3B29589   7.934  12.985   7.950
 6566POPC   C4B29590   7.942  12.919   7.650
 6567POPC   NC329591  40.055  19.884   9.450
 6567POPC   PO429592  39.997  19.829   9.150
 6567POPC   GL129593  40.023  19.870   8.850
 6567POPC   GL229594  39.914  19.765   8.850
 6567POPC   C1A29595  40.051  19.820   8.550
 6567POPC   D2A29596  39.994  19.884   8.250
 6567POPC   C3A29597  40.052  19.860   7.950
 6567POPC   C4A29598  39.982  19.880   7.650
 6567POPC   C1B29599  39.780  19.724   8.550
 6567POPC   C2B29600  39.771  19.739   8.250
 6567POPC   C3B29601  39.774  19.684   7.950
 6567POPC   C4B29602  39.830  19.723   7.650
 6568POPC   NC329603  26.042  21.341   9.450
 6568POPC   PO429604  26.075  21.371   9.150
 6568POPC   GL129605  26.064  21.422   8.850
 6568POPC   GL229606  25.926  21.442   8.850
 6568POPC   C1A29607  26.031  21.422   8.550
 6568POPC   D2A29608  26.049  21.368   8.250
 6568POPC   C3A29609  26.032  21.379   7.950
 6568POPC   C4A29610  26.047  21.349   7.650
 6568POPC   C1B29611  25.812  21.512   8.550
 6568POPC   C2B29612  25.868  21.576   8.250
 6568POPC   C3B29613  25.813  21.553   7.950
 6568POPC   C4B29614  25.847  21.572   7.650
 6569POPC   NC329615  34.556  23.758   9.450
 6569POPC   PO429616  34.610  23.667   9.150
 6569POPC   GL129617  34.564  23.684   8.850
 6569POPC   GL229618  34.660  23.703   8.850
 6569POPC   C1A29619  34.624  23.665   8.550
 6569POPC   D2A29620  34.562  23.762   8.250
 6569POPC   C3A29621  34.542  23.670   7.950
 6569POPC   C4A29622  34.586  23.664   7.650
 6569POPC   C1B29623  34.842  23.655   8.550
 6569POPC   C2B29624  34.862  23.726   8.250
 6569POPC   C3B29625  34.827  23.686   7.950
 6569POPC   C4B29626  34.835  23.681   7.650
 6570POPC   NC329627  34.529  28.347   9.450
 6570POPC   PO429628  34.561  28.340   9.150
 6570POPC   GL129629  34.591  28.350   8.850
 6570POPC   GL229630  34.500  28.275   8.850
 6570POPC   C1A29631  34.600  28.391   8.550
 6570POPC   D2A29632  34.558  28.388   8.250
 6570POPC   C3A29633  34.539  28.337   7.950
 6570POPC   C4A29634  34.583  28.381   7.650
 6570POPC   C1B29635  34.530  28.158   8.550
 6570POPC   C2B29636  34.485  28.119   8.250
 6570POPC   C3B29637  34.537  28.102   7.950
 6570POPC   C4B29638  34.502  28.172   7.650
 6571POPC   NC329639  15.933  15.133   9.450
 6571POPC   PO429640  15.927  15.180   9.150
 6571POPC   GL129641  15.919  15.194   8.850
 6571POPC   GL229642  15.942  15.058   8.850
 6571POPC   C1A29643  15.970  15.141   8.550
 6571POPC   D2A29644  15.996  15.167   8.250
 6571POPC   C3A29645  15.925  15.185   7.950
 6571POPC   C4A29646  15.931  15.170   7.650
 6571POPC   C1B29647  15.833  14.968   8.550
 6571POPC   C2B29648  15.804  14.909   8.250
 6571POPC   C3B29649  15.890  14.998   7.950
 6571POPC   C4B29650  15.799  14.931   7.650
 6572POPC   NC329651   5.822  20.659   9.450
 6572POPC   PO429652   5.918  20.565   9.150
 6572POPC   GL129653   5.863  20.630   8.850
 6572POPC   GL229654   6.020  20.675   8.850
 6572POPC   C1A29655   5.870  20.615   8.550
 6572POPC   D2A29656   5.891  20.636   8.250
 6572POPC   C3A29657   5.843  20.604   7.950
 6572POPC   C4A29658   5.868  20.593   7.650
 6572POPC   C1B29659   6.032  20.757   8.550
 6572POPC   C2B29660   6.077  20.764   8.250
 6572POPC   C3B29661   6.044  20.799   7.950
 6572POPC   C4B29662   6.052  20.769   7.650
 6573POPC   NC329663  19.854  11.297   9.450
 6573POPC   PO429664  19.865  11.286   9.150
 6573POPC   GL129665  19.816  11.345   8.850
 6573POPC   GL229666  19.937  11.293   8.850
 6573POPC   C1A29667  19.870  11.313   8.550
 6573POPC   D2A29668  19.864  11.259   8.250
 6573POPC   C3A29669  19.847  11.321   7.950
 6573POPC   C4A29670  19.871  11.262   7.650
 6573POPC   C1B29671  20.064  11.340   8.550
 6573POPC   C2B29672  20.082  11.301   8.250
 6573POPC   C3B29673  20.097  11.330   7.950
 6573POPC   C4B29674  20.074  11.338   7.650
 6574POPC   NC329675  28.361  33.061   9.450
 6574POPC   PO429676  28.405  33.033   9.150
 6574POPC   GL129677  28.368  33.074   8.850
 6574POPC   GL229678  28.480  32.887   8.850
 6574POPC   C1A29679  28.400  32.989   8.550
 6574POPC   D2A29680  28.408  32.982   8.250
 6574POPC   C3A29681  28.353  32.981   7.950
 6574POPC   C4A29682  28.332  33.040   7.650
 6574POPC   C1B29683  28.515  32.817   8.550
 6574POPC   C2B29684  28.478  32.814   8.250
 6574POPC   C3B29685  28.522  32.780   7.950
 6574POPC   C4B29686  28.522  32.789   7.650
 6575POPC   NC329687  15.180  22.185   9.450
 6575POPC   PO429688  15.152  22.209   9.150
 6575POPC   GL129689  15.199  22.184   8.850
 6575POPC   GL229690  15.095  22.094   8.850
 6575POPC   C1A29691  15.213  22.121   8.550
 6575POPC   D2A29692  15.148  22.112   8.250
 6575POPC   C3A29693  15.152  22.193   7.950
 6575POPC   C4A29694  15.184  22.184   7.650
 6575POPC   C1B29695  15.020  21.987   8.550
 6575POPC   C2B29696  15.032  21.895   8.250
 6575POPC   C3B29697  15.022  21.935   7.950
 6575POPC   C4B29698  15.091  21.963   7.650
 6576POPC   NC329699  29.872  37.699   9.450
 6576POPC   PO429700  29.966  37.723   9.150
 6576POPC   GL129701  29.938  37.653   8.850
 6576POPC   GL229702  29.918  37.836   8.850
 6576POPC   C1A29703  29.902  37.726   8.550
 6576POPC   D2A29704  29.920  37.729   8.250
 6576POPC   C3A29705  29.890  37.633   7.950
 6576POPC   C4A29706  29.895  37.728   7.650
 6576POPC   C1B29707  29.852  37.918   8.550
 6576POPC   C2B29708  29.883  37.973   8.250
 6576POPC   C3B29709  29.839  37.899   7.950
 6576POPC   C4B29710  29.922  37.966   7.650
 6577POPC   NC329711  27.580  26.832   9.450
 6577POPC   PO429712  27.599  26.787   9.150
 6577POPC   GL129713  27.602  26.814   8.850
 6577POPC   GL229714  27.560  26.727   8.850
 6577POPC   C1A29715  27.635  26.782   8.550
 6577POPC   D2A29716  27.575  26.768   8.250
 6577POPC   C3A29717  27.559  26.854   7.950
 6577POPC   C4A29718  27.554  26.807   7.650
 6577POPC   C1B29719  27.521  26.609   8.550
 6577POPC   C2B29720  27.506  26.572   8.250
 6577POPC   C3B29721  27.562  26.542   7.950
 6577POPC   C4B29722  27.530  26.604   7.650
 6578POPC   NC329723  31.465  12.861   9.450
 6578POPC   PO429724  31.437  12.824   9.150
 6578POPC   GL129725  31.491  12.838   8.850
 6578POPC   GL229726  31.474  12.946   8.850
 6578POPC   C1A29727  31.452  12.890   8.550
 6578POPC   D2A29728  31.452  12.829   8.250
 6578POPC   C3A29729  31.472  12.832   7.950
 6578POPC   C4A29730  31.512  12.891   7.650
 6578POPC   C1B29731  31.481  13.108   8.550
 6578POPC   C2B29732  31.490  13.100   8.250
 6578POPC   C3B29733  31.504  13.074   7.950
 6578POPC   C4B29734  31.569  13.114   7.650
 6579POPC   NC329735  15.148  38.445   9.450
 6579POPC   PO429736  15.203  38.490   9.150
 6579POPC   GL129737  15.209  38.423   8.850
 6579POPC   GL229738  15.088  38.418   8.850
 6579POPC   C1A29739  15.184  38.429   8.550
 6579POPC   D2A29740  15.164  38.476   8.250
 6579POPC   C3A29741  15.194  38.502   7.950
 6579POPC   C4A29742  15.226  38.500   7.650
 6579POPC   C1B29743  14.951  38.439   8.550
 6579POPC   C2B29744  14.962  38.365   8.250
 6579POPC   C3B29745  14.953  38.359   7.950
 6579POPC   C4B29746  14.913  38.347   7.650
 6580POPC   NC329747   5.108  30.674   9.450
 6580POPC   PO429748   5.053  30.657   9.150
 6580POPC   GL129749   5.112  30.713   8.850
 6580POPC   GL229750   4.946  30.687   8.850
 6580POPC   C1A29751   5.057  30.677   8.550
 6580POPC   D2A29752   5.086  30.681   8.250
 6580POPC   C3A29753   5.107  30.679   7.950
 6580POPC   C4A29754   5.090  30.738   7.650
 6580POPC   C1B29755   4.888  30.751   8.550
 6580POPC   C2B29756   4.856  30.738   8.250
 6580POPC   C3B29757   4.876  30.729   7.950
 6580POPC   C4B29758   4.879  30.708   7.650
 6581POPC   NC329759  24.494  14.370   9.450
 6581POPC   PO429760  24.471  14.424   9.150
 6581POPC   GL129761  24.486  14.451   8.850
 6581POPC   GL229762  24.435  14.264   8.850
 6581POPC   C1A29763  24.476  14.379   8.550
 6581POPC   D2A29764  24.530  14.428   8.250
 6581POPC   C3A29765  24.518  14.443   7.950
 6581POPC   C4A29766  24.502  14.448   7.650
 6581POPC   C1B29767  24.327  14.180   8.550
 6581POPC   C2B29768  24.357  14.137   8.250
 6581POPC   C3B29769  24.372  14.159   7.950
 6581POPC   C4B29770  24.366  14.160   7.650
 6582POPC   NC329771  36.085   8.967   9.450
 6582POPC   PO429772  36.144   9.017   9.150
 6582POPC   GL129773  36.100   8.925   8.850
 6582POPC   GL229774  36.072   8.905   8.850
 6582POPC   C1A29775  36.143   9.007   8.550
 6582POPC   D2A29776  36.104   8.940   8.250
 6582POPC   C3A29777  36.128   9.008   7.950
 6582POPC   C4A29778  36.084   9.018   7.650
 6582POPC   C1B29779  35.987   8.785   8.550
 6582POPC   C2B29780  36.031   8.729   8.250
 6582POPC   C3B29781  36.036   8.719   7.950
 6582POPC   C4B29782  35.996   8.740   7.650
 6583POPC   NC329783  44.639  14.440   9.450
 6583POPC   PO429784  44.682  14.431   9.150
 6583POPC   GL129785  44.634  14.446   8.850
 6583POPC   GL229786  44.514  14.414   8.850
 6583POPC   C1A29787  44.695  14.416   8.550
 6583POPC   D2A29788  44.683  14.449   8.250
 6583POPC   C3A29789  44.681  14.396   7.950
 6583POPC   C4A29790  44.695  14.414   7.650
 6583POPC   C1B29791  44.422  14.418   8.550
 6583POPC   C2B29792  44.450  14.406   8.250
 6583POPC   C3B29793  44.368  14.420   7.950
 6583POPC   C4B29794  44.390  14.488   7.650
 6584POPC   NC329795  14.436  12.119   9.450
 6584POPC   PO429796  14.379  12.082   9.150
 6584POPC   GL129797  14.443  12.027   8.850
 6584POPC   GL229798  14.355  12.223   8.850
 6584POPC   C1A29799  14.437  12.038   8.550
 6584POPC   D2A29800  14.374  12.062   8.250
 6584POPC   C3A29801  14.372  12.123   7.950
 6584POPC   C4A29802  14.449  12.086   7.650
 6584POPC   C1B29803  14.321  12.344   8.550
 6584POPC   C2B29804  14.308  12.338   8.250
 6584POPC   C3B29805  14.283  12.318   7.950
 6584POPC   C4B29806  14.278  12.299   7.650
 6585POPC   NC329807  22.181   7.459   9.450
 6585POPC   PO429808  22.140   7.424   9.150
 6585POPC   GL129809  22.131   7.449   8.850
 6585POPC   GL229810  22.260   7.411   8.850
 6585POPC   C1A29811  22.156   7.381   8.550
 6585POPC   D2A29812  22.183   7.461   8.250
 6585POPC   C3A29813  22.151   7.439   7.950
 6585POPC   C4A29814  22.199   7.392   7.650
 6585POPC   C1B29815  22.402   7.465   8.550
 6585POPC   C2B29816  22.450   7.456   8.250
 6585POPC   C3B29817  22.381   7.449   7.950
 6585POPC   C4B29818  22.429   7.515   7.650
 6586POPC   NC329819  19.033  36.174   9.450
 6586POPC   PO429820  19.088  36.096   9.150
 6586POPC   GL129821  19.035  36.146   8.850
 6586POPC   GL229822  19.193  36.195   8.850
 6586POPC   C1A29823  19.023  36.090   8.550
 6586POPC   D2A29824  19.086  36.164   8.250
 6586POPC   C3A29825  19.055  36.157   7.950
 6586POPC   C4A29826  19.034  36.100   7.650
 6586POPC   C1B29827  19.269  36.176   8.550
 6586POPC   C2B29828  19.269  36.192   8.250
 6586POPC   C3B29829  19.338  36.230   7.950
 6586POPC   C4B29830  19.247  36.215   7.650
 6587POPC   NC329831  12.853  24.441   9.450
 6587POPC   PO429832  12.860  24.538   9.150
 6587POPC   GL129833  12.857  24.472   8.850
 6587POPC   GL229834  12.922  24.622   8.850
 6587POPC   C1A29835  12.832  24.471   8.550
 6587POPC   D2A29836  12.805  24.531   8.250
 6587POPC   C3A29837  12.877  24.518   7.950
 6587POPC   C4A29838  12.879  24.519   7.650
 6587POPC   C1B29839  13.045  24.726   8.550
 6587POPC   C2B29840  13.020  24.661   8.250
 6587POPC   C3B29841  12.961  24.672   7.950
 6587POPC   C4B29842  13.027  24.654   7.650
 6588POPC   NC329843  29.138  28.418   9.450
 6588POPC   PO429844  29.166  28.327   9.150
 6588POPC   GL129845  29.121  28.323   8.850
 6588POPC   GL229846  29.220  28.491   8.850
 6588POPC   C1A29847  29.160  28.368   8.550
 6588POPC   D2A29848  29.120  28.340   8.250
 6588POPC   C3A29849  29.182  28.353   7.950
 6588POPC   C4A29850  29.138  28.403   7.650
 6588POPC   C1B29851  29.183  28.612   8.550
 6588POPC   C2B29852  29.186  28.616   8.250
 6588POPC   C3B29853  29.244  28.649   7.950
 6588POPC   C4B29854  29.177  28.637   7.650
 6589POPC   NC329855  28.334  22.891   9.450
 6589POPC   PO429856  28.343  22.901   9.150
 6589POPC   GL129857  28.417  22.985   8.850
 6589POPC   GL229858  28.514  22.912   8.850
 6589POPC   C1A29859  28.400  22.911   8.550
 6589POPC   D2A29860  28.333  22.934   8.250
 6589POPC   C3A29861  28.327  22.898   7.950
 6589POPC   C4A29862  28.414  22.940   7.650
 6589POPC   C1B29863  28.658  22.993   8.550
 6589POPC   C2B29864  28.618  22.990   8.250
 6589POPC   C3B29865  28.657  22.988   7.950
 6589POPC   C4B29866  28.664  22.958   7.650
 6590POPC   NC329867  43.088  14.391   9.450
 6590POPC   PO429868  43.100  14.373   9.150
 6590POPC   GL129869  43.095  14.356   8.850
 6590POPC   GL229870  43.241  14.428   8.850
 6590POPC   C1A29871  43.144  14.390   8.550
 6590POPC   D2A29872  43.140  14.368   8.250
 6590POPC   C3A29873  43.127  14.429   7.950
 6590POPC   C4A29874  43.086  14.442   7.650
 6590POPC   C1B29875  43.368  14.441   8.550
 6590POPC   C2B29876  43.368  14.492   8.250
 6590POPC   C3B29877  43.352  14.421   7.950
 6590POPC   C4B29878  43.362  14.418   7.650
 6591POPC   NC329879   2.754  26.013   9.450
 6591POPC   PO429880   2.747  26.072   9.150
 6591POPC   GL129881   2.725  26.003   8.850
 6591POPC   GL229882   2.853  26.037   8.850
 6591POPC   C1A29883   2.767  26.002   8.550
 6591POPC   D2A29884   2.770  26.032   8.250
 6591POPC   C3A29885   2.766  26.038   7.950
 6591POPC   C4A29886   2.797  26.066   7.650
 6591POPC   C1B29887   3.031  25.949   8.550
 6591POPC   C2B29888   2.998  25.952   8.250
 6591POPC   C3B29889   2.954  25.895   7.950
 6591POPC   C4B29890   2.993  25.965   7.650
 6592POPC   NC329891  29.911  29.102   9.450
 6592POPC   PO429892  29.893  29.113   9.150
 6592POPC   GL129893  29.953  29.156   8.850
 6592POPC   GL229894  29.808  29.122   8.850
 6592POPC   C1A29895  29.919  29.122   8.550
 6592POPC   D2A29896  29.967  29.144   8.250
 6592POPC   C3A29897  29.933  29.137   7.950
 6592POPC   C4A29898  29.874  29.117   7.650
 6592POPC   C1B29899  29.655  29.222   8.550
 6592POPC   C2B29900  29.662  29.180   8.250
 6592POPC   C3B29901  29.718  29.224   7.950
 6592POPC   C4B29902  29.627  29.193   7.650
 6593POPC   NC329903  22.979   3.552   9.450
 6593POPC   PO429904  22.952   3.567   9.150
 6593POPC   GL129905  22.978   3.492   8.850
 6593POPC   GL229906  22.975   3.669   8.850
 6593POPC   C1A29907  22.956   3.583   8.550
 6593POPC   D2A29908  22.965   3.580   8.250
 6593POPC   C3A29909  22.943   3.496   7.950
 6593POPC   C4A29910  22.898   3.505   7.650
 6593POPC   C1B29911  23.036   3.745   8.550
 6593POPC   C2B29912  23.054   3.797   8.250
 6593POPC   C3B29913  23.017   3.734   7.950
 6593POPC   C4B29914  23.048   3.751   7.650
 6594POPC   NC329915   8.188  39.237   9.450
 6594POPC   PO429916   8.217  39.198   9.150
 6594POPC   GL129917   8.224  39.221   8.850
 6594POPC   GL229918   8.316  39.229   8.850
 6594POPC   C1A29919   8.169  39.235   8.550
 6594POPC   D2A29920   8.231  39.238   8.250
 6594POPC   C3A29921   8.207  39.188   7.950
 6594POPC   C4A29922   8.226  39.209   7.650
 6594POPC   C1B29923   8.438  39.277   8.550
 6594POPC   C2B29924   8.426  39.273   8.250
 6594POPC   C3B29925   8.460  39.297   7.950
 6594POPC   C4B29926   8.394  39.241   7.650
 6595POPC   NC329927  35.344   8.926   9.450
 6595POPC   PO429928  35.312   8.928   9.150
 6595POPC   GL129929  35.350   8.926   8.850
 6595POPC   GL229930  35.371   8.854   8.850
 6595POPC   C1A29931  35.392   9.020   8.550
 6595POPC   D2A29932  35.395   9.019   8.250
 6595POPC   C3A29933  35.345   8.928   7.950
 6595POPC   C4A29934  35.371   8.991   7.650
 6595POPC   C1B29935  35.395   8.731   8.550
 6595POPC   C2B29936  35.407   8.723   8.250
 6595POPC   C3B29937  35.437   8.721   7.950
 6595POPC   C4B29938  35.420   8.684   7.650
 6596POPC   NC329939   5.102  40.792   9.450
 6596POPC   PO429940   5.097  40.736   9.150
 6596POPC   GL129941   5.132  40.786   8.850
 6596POPC   GL229942   4.939  40.697   8.850
 6596POPC   C1A29943   5.084  40.812   8.550
 6596POPC   D2A29944   5.087  40.805   8.250
 6596POPC   C3A29945   5.063  40.750   7.950
 6596POPC   C4A29946   5.128  40.802   7.650
 6596POPC   C1B29947   4.863  40.721   8.550
 6596POPC   C2B29948   4.818  40.706   8.250
 6596POPC   C3B29949   4.863  40.707   7.950
 6596POPC   C4B29950   4.862  40.682   7.650
 6597POPC   NC329951  16.728  28.396   9.450
 6597POPC   PO429952  16.748  28.365   9.150
 6597POPC   GL129953  16.736  28.389   8.850
 6597POPC   GL229954  16.667  28.386   8.850
 6597POPC   C1A29955  16.764  28.331   8.550
 6597POPC   D2A29956  16.754  28.356   8.250
 6597POPC   C3A29957  16.739  28.384   7.950
 6597POPC   C4A29958  16.711  28.343   7.650
 6597POPC   C1B29959  16.553  28.456   8.550
 6597POPC   C2B29960  16.461  28.492   8.250
 6597POPC   C3B29961  16.526  28.522   7.950
 6597POPC   C4B29962  16.484  28.489   7.650
 6598POPC   NC329963  39.184  22.126   9.450
 6598POPC   PO429964  39.240  22.145   9.150
 6598POPC   GL129965  39.276  22.138   8.850
 6598POPC   GL229966  39.271  22.086   8.850
 6598POPC   C1A29967  39.189  22.128   8.550
 6598POPC   D2A29968  39.189  22.200   8.250
 6598POPC   C3A29969  39.211  22.205   7.950
 6598POPC   C4A29970  39.200  22.202   7.650
 6598POPC   C1B29971  39.373  21.891   8.550
 6598POPC   C2B29972  39.331  21.982   8.250
 6598POPC   C3B29973  39.352  21.940   7.950
 6598POPC   C4B29974  39.314  21.907   7.650
 6599POPC   NC329975   6.613  37.640   9.450
 6599POPC   PO429976   6.647  37.660   9.150
 6599POPC   GL129977   6.693  37.724   8.850
 6599POPC   GL229978   6.778  37.695   8.850
 6599POPC   C1A29979   6.604  37.686   8.550
 6599POPC   D2A29980   6.603  37.657   8.250
 6599POPC   C3A29981   6.694  37.707   7.950
 6599POPC   C4A29982   6.667  37.697   7.650
 6599POPC   C1B29983   6.874  37.851   8.550
 6599POPC   C2B29984   6.883  37.817   8.250
 6599POPC   C3B29985   6.845  37.840   7.950
 6599POPC   C4B29986   6.876  37.823   7.650
 6600POPC   NC329987  29.140  24.539   9.450
 6600POPC   PO429988  29.101  24.480   9.150
 6600POPC   GL129989  29.113  24.483   8.850
 6600POPC   GL229990  29.228  24.509   8.850
 6600POPC   C1A29991  29.111  24.486   8.550
 6600POPC   D2A29992  29.182  24.524   8.250
 6600POPC   C3A29993  29.123  24.462   7.950
 6600POPC   C4A29994  29.166  24.504   7.650
 6600POPC   C1B29995  29.367  24.524   8.550
 6600POPC   C2B29996  29.379  24.564   8.250
 6600POPC   C3B29997  29.369  24.550   7.950
 6600POPC   C4B29998  29.375  24.557   7.650
 6601POPC   NC329999  39.193  27.561   9.450
 6601POPC   PO430000  39.265  27.559   9.150
 6601POPC   GL130001  39.277  27.552   8.850
 6601POPC   GL230002  39.166  27.440   8.850
 6601POPC   C1A30003  39.246  27.619   8.550
 6601POPC   D2A30004  39.231  27.620   8.250
 6601POPC   C3A30005  39.186  27.567   7.950
 6601POPC   C4A30006  39.248  27.556   7.650
 6601POPC   C1B30007  39.173  27.297   8.550
 6601POPC   C2B30008  39.233  27.347   8.250
 6601POPC   C3B30009  39.164  27.377   7.950
 6601POPC   C4B30010  39.190  27.308   7.650
 6602POPC   NC330011   5.895  23.695   9.450
 6602POPC   PO430012   5.912  23.723   9.150
 6602POPC   GL130013   5.916  23.668   8.850
 6602POPC   GL230014   5.872  23.880   8.850
 6602POPC   C1A30015   5.869  23.712   8.550
 6602POPC   D2A30016   5.877  23.727   8.250
 6602POPC   C3A30017   5.917  23.724   7.950
 6602POPC   C4A30018   5.906  23.746   7.650
 6602POPC   C1B30019   5.907  23.981   8.550
 6602POPC   C2B30020   5.967  23.925   8.250
 6602POPC   C3B30021   5.948  23.945   7.950
 6602POPC   C4B30022   5.901  23.974   7.650
 6603POPC   NC330023  26.799  29.908   9.450
 6603POPC   PO430024  26.843  29.872   9.150
 6603POPC   GL130025  26.846  29.965   8.850
 6603POPC   GL230026  26.959  29.900   8.850
 6603POPC   C1A30027  26.864  29.940   8.550
 6603POPC   D2A30028  26.771  29.955   8.250
 6603POPC   C3A30029  26.781  29.917   7.950
 6603POPC   C4A30030  26.855  29.882   7.650
 6603POPC   C1B30031  27.065  29.797   8.550
 6603POPC   C2B30032  27.068  29.796   8.250
 6603POPC   C3B30033  27.068  29.850   7.950
 6603POPC   C4B30034  27.007  29.795   7.650
 6604POPC   NC330035  13.669   9.012   9.450
 6604POPC   PO430036  13.638   8.999   9.150
 6604POPC   GL130037  13.640   9.001   8.850
 6604POPC   GL230038  13.535   9.117   8.850
 6604POPC   C1A30039  13.634   8.979   8.550
 6604POPC   D2A30040  13.604   8.956   8.250
 6604POPC   C3A30041  13.596   9.013   7.950
 6604POPC   C4A30042  13.610   8.981   7.650
 6604POPC   C1B30043  13.524   9.141   8.550
 6604POPC   C2B30044  13.486   9.136   8.250
 6604POPC   C3B30045  13.526   9.214   7.950
 6604POPC   C4B30046  13.529   9.183   7.650
 6605POPC   NC330047   5.857  27.618   9.450
 6605POPC   PO430048   5.877  27.565   9.150
 6605POPC   GL130049   5.851  27.642   8.850
 6605POPC   GL230050   6.012  27.537   8.850
 6605POPC   C1A30051   5.881  27.565   8.550
 6605POPC   D2A30052   5.836  27.615   8.250
 6605POPC   C3A30053   5.864  27.557   7.950
 6605POPC   C4A30054   5.913  27.577   7.650
 6605POPC   C1B30055   6.101  27.543   8.550
 6605POPC   C2B30056   6.145  27.481   8.250
 6605POPC   C3B30057   6.111  27.494   7.950
 6605POPC   C4B30058   6.112  27.488   7.650
 6606POPC   NC330059  26.815  28.334   9.450
 6606POPC   PO430060  26.864  28.357   9.150
 6606POPC   GL130061  26.852  28.403   8.850
 6606POPC   GL230062  26.729  28.293   8.850
 6606POPC   C1A30063  26.850  28.375   8.550
 6606POPC   D2A30064  26.831  28.353   8.250
 6606POPC   C3A30065  26.783  28.388   7.950
 6606POPC   C4A30066  26.782  28.367   7.650
 6606POPC   C1B30067  26.720  28.148   8.550
 6606POPC   C2B30068  26.654  28.135   8.250
 6606POPC   C3B30069  26.666  28.118   7.950
 6606POPC   C4B30070  26.715  28.167   7.650
 6607POPC   NC330071   4.279  38.472   9.450
 6607POPC   PO430072   4.275  38.502   9.150
 6607POPC   GL130073   4.350  38.452   8.850
 6607POPC   GL230074   4.283  38.542   8.850
 6607POPC   C1A30075   4.301  38.411   8.550
 6607POPC   D2A30076   4.312  38.407   8.250
 6607POPC   C3A30077   4.291  38.428   7.950
 6607POPC   C4A30078   4.295  38.497   7.650
 6607POPC   C1B30079   4.149  38.661   8.550
 6607POPC   C2B30080   4.121  38.613   8.250
 6607POPC   C3B30081   4.205  38.629   7.950
 6607POPC   C4B30082   4.179  38.679   7.650
 6608POPC   NC330083  32.975  39.199   9.450
 6608POPC   PO430084  33.002  39.227   9.150
 6608POPC   GL130085  33.061  39.203   8.850
 6608POPC   GL230086  33.169  39.147   8.850
 6608POPC   C1A30087  33.036  39.192   8.550
 6608POPC   D2A30088  32.996  39.275   8.250
 6608POPC   C3A30089  33.071  39.223   7.950
 6608POPC   C4A30090  33.033  39.243   7.650
 6608POPC   C1B30091  33.238  39.119   8.550
 6608POPC   C2B30092  33.292  39.172   8.250
 6608POPC   C3B30093  33.275  39.145   7.950
 6608POPC   C4B30094  33.236  39.125   7.650
 6609POPC   NC330095  38.435   8.160   9.450
 6609POPC   PO430096  38.472   8.239   9.150
 6609POPC   GL130097  38.420   8.236   8.850
 6609POPC   GL230098  38.548   8.138   8.850
 6609POPC   C1A30099  38.416   8.178   8.550
 6609POPC   D2A30100  38.441   8.219   8.250
 6609POPC   C3A30101  38.443   8.214   7.950
 6609POPC   C4A30102  38.474   8.245   7.650
 6609POPC   C1B30103  38.565   7.973   8.550
 6609POPC   C2B30104  38.631   8.037   8.250
 6609POPC   C3B30105  38.629   8.002   7.950
 6609POPC   C4B30106  38.601   7.945   7.650
 6610POPC   NC330107  11.296  36.114   9.450
 6610POPC   PO430108  11.267  36.085   9.150
 6610POPC   GL130109  11.294  36.161   8.850
 6610POPC   GL230110  11.190  36.112   8.850
 6610POPC   C1A30111  11.296  36.157   8.550
 6610POPC   D2A30112  11.277  36.122   8.250
 6610POPC   C3A30113  11.323  36.162   7.950
 6610POPC   C4A30114  11.349  36.091   7.650
 6610POPC   C1B30115  11.008  36.121   8.550
 6610POPC   C2B30116  11.073  36.104   8.250
 6610POPC   C3B30117  11.075  36.125   7.950
 6610POPC   C4B30118  11.074  36.078   7.650
 6611POPC   NC330119  39.281  36.177   9.450
 6611POPC   PO430120  39.264  36.129   9.150
 6611POPC   GL130121  39.259  36.156   8.850
 6611POPC   GL230122  39.120  36.251   8.850
 6611POPC   C1A30123  39.211  36.166   8.550
 6611POPC   D2A30124  39.182  36.131   8.250
 6611POPC   C3A30125  39.244  36.093   7.950
 6611POPC   C4A30126  39.246  36.095   7.650
 6611POPC   C1B30127  39.064  36.369   8.550
 6611POPC   C2B30128  39.044  36.378   8.250
 6611POPC   C3B30129  39.131  36.346   7.950
 6611POPC   C4B30130  39.061  36.371   7.650
 6612POPC   NC330131  36.115  16.757   9.450
 6612POPC   PO430132  36.112  16.732   9.150
 6612POPC   GL130133  36.112  16.767   8.850
 6612POPC   GL230134  36.257  16.812   8.850
 6612POPC   C1A30135  36.132  16.752   8.550
 6612POPC   D2A30136  36.108  16.692   8.250
 6612POPC   C3A30137  36.169  16.693   7.950
 6612POPC   C4A30138  36.084  16.734   7.650
 6612POPC   C1B30139  36.342  16.884   8.550
 6612POPC   C2B30140  36.364  16.888   8.250
 6612POPC   C3B30141  36.354  16.848   7.950
 6612POPC   C4B30142  36.331  16.824   7.650
 6613POPC   NC330143   8.943   1.194   9.450
 6613POPC   PO430144   8.931   1.205   9.150
 6613POPC   GL130145   8.955   1.168   8.850
 6613POPC   GL230146   9.027   1.111   8.850
 6613POPC   C1A30147   8.942   1.262   8.550
 6613POPC   D2A30148   9.021   1.233   8.250
 6613POPC   C3A30149   9.014   1.189   7.950
 6613POPC   C4A30150   8.979   1.237   7.650
 6613POPC   C1B30151   9.147   1.085   8.550
 6613POPC   C2B30152   9.175   0.998   8.250
 6613POPC   C3B30153   9.116   1.044   7.950
 6613POPC   C4B30154   9.139   1.010   7.650
 6614POPC   NC330155  25.284  38.493   9.450
 6614POPC   PO430156  25.231  38.439   9.150
 6614POPC   GL130157  25.272  38.462   8.850
 6614POPC   GL230158  25.286  38.549   8.850
 6614POPC   C1A30159  25.243  38.415   8.550
 6614POPC   D2A30160  25.222  38.421   8.250
 6614POPC   C3A30161  25.267  38.487   7.950
 6614POPC   C4A30162  25.310  38.462   7.650
 6614POPC   C1B30163  25.302  38.662   8.550
 6614POPC   C2B30164  25.245  38.713   8.250
 6614POPC   C3B30165  25.243  38.670   7.950
 6614POPC   C4B30166  25.304  38.733   7.650
 6615POPC   NC330167  36.167  10.533   9.450
 6615POPC   PO430168  36.155  10.476   9.150
 6615POPC   GL130169  36.158  10.499   8.850
 6615POPC   GL230170  36.134  10.376   8.850
 6615POPC   C1A30171  36.126  10.551   8.550
 6615POPC   D2A30172  36.083  10.568   8.250
 6615POPC   C3A30173  36.089  10.513   7.950
 6615POPC   C4A30174  36.151  10.488   7.650
 6615POPC   C1B30175  36.098  10.302   8.550
 6615POPC   C2B30176  36.061  10.302   8.250
 6615POPC   C3B30177  36.061  10.243   7.950
 6615POPC   C4B30178  36.040  10.287   7.650
 6616POPC   NC330179  40.043  21.380   9.450
 6616POPC   PO430180  40.013  21.359   9.150
 6616POPC   GL130181  39.985  21.432   8.850
 6616POPC   GL230182  40.147  21.375   8.850
 6616POPC   C1A30183  39.958  21.364   8.550
 6616POPC   D2A30184  40.002  21.369   8.250
 6616POPC   C3A30185  40.019  21.392   7.950
 6616POPC   C4A30186  40.052  21.418   7.650
 6616POPC   C1B30187  40.217  21.278   8.550
 6616POPC   C2B30188  40.231  21.370   8.250
 6616POPC   C3B30189  40.217  21.361   7.950
 6616POPC   C4B30190  40.252  21.350   7.650
 6617POPC   NC330191  12.804  22.164   9.450
 6617POPC   PO430192  12.881  22.193   9.150
 6617POPC   GL130193  12.811  22.128   8.850
 6617POPC   GL230194  12.891  22.047   8.850
 6617POPC   C1A30195  12.892  22.165   8.550
 6617POPC   D2A30196  12.861  22.165   8.250
 6617POPC   C3A30197  12.896  22.146   7.950
 6617POPC   C4A30198  12.829  22.152   7.650
 6617POPC   C1B30199  12.927  21.889   8.550
 6617POPC   C2B30200  12.939  21.949   8.250
 6617POPC   C3B30201  12.912  21.963   7.950
 6617POPC   C4B30202  12.889  21.918   7.650
 6618POPC   NC330203  36.144  17.459   9.450
 6618POPC   PO430204  36.145  17.465   9.150
 6618POPC   GL130205  36.098  17.509   8.850
 6618POPC   GL230206  36.025  17.531   8.850
 6618POPC   C1A30207  36.120  17.473   8.550
 6618POPC   D2A30208  36.081  17.534   8.250
 6618POPC   C3A30209  36.099  17.470   7.950
 6618POPC   C4A30210  36.083  17.546   7.650
 6618POPC   C1B30211  35.892  17.470   8.550
 6618POPC   C2B30212  35.885  17.536   8.250
 6618POPC   C3B30213  35.855  17.476   7.950
 6618POPC   C4B30214  35.857  17.493   7.650
 6619POPC   NC330215   1.996  15.162   9.450
 6619POPC   PO430216   2.006  15.150   9.150
 6619POPC   GL130217   2.011  15.186   8.850
 6619POPC   GL230218   2.068  15.094   8.850
 6619POPC   C1A30219   1.968  15.184   8.550
 6619POPC   D2A30220   2.029  15.138   8.250
 6619POPC   C3A30221   2.006  15.184   7.950
 6619POPC   C4A30222   1.960  15.175   7.650
 6619POPC   C1B30223   2.066  14.985   8.550
 6619POPC   C2B30224   2.114  15.007   8.250
 6619POPC   C3B30225   2.148  14.931   7.950
 6619POPC   C4B30226   2.151  14.919   7.650
 6620POPC   NC330227  29.144  10.573   9.450
 6620POPC   PO430228  29.123  10.556   9.150
 6620POPC   GL130229  29.149  10.492   8.850
 6620POPC   GL230230  29.066  10.602   8.850
 6620POPC   C1A30231  29.191  10.536   8.550
 6620POPC   D2A30232  29.167  10.482   8.250
 6620POPC   C3A30233  29.188  10.494   7.950
 6620POPC   C4A30234  29.180  10.545   7.650
 6620POPC   C1B30235  28.965  10.684   8.550
 6620POPC   C2B30236  28.990  10.682   8.250
 6620POPC   C3B30237  28.912  10.682   7.950
 6620POPC   C4B30238  28.947  10.628   7.650
 6621POPC   NC330239  22.150  11.312   9.450
 6621POPC   PO430240  22.210  11.259   9.150
 6621POPC   GL130241  22.142  11.281   8.850
 6621POPC   GL230242  22.219  11.154   8.850
 6621POPC   C1A30243  22.149  11.325   8.550
 6621POPC   D2A30244  22.116  11.344   8.250
 6621POPC   C3A30245  22.197  11.278   7.950
 6621POPC   C4A30246  22.119  11.314   7.650
 6621POPC   C1B30247  22.247  11.065   8.550
 6621POPC   C2B30248  22.211  11.099   8.250
 6621POPC   C3B30249  22.213  11.023   7.950
 6621POPC   C4B30250  22.175  11.009   7.650
 6622POPC   NC330251  36.152  20.599   9.450
 6622POPC   PO430252  36.141  20.646   9.150
 6622POPC   GL130253  36.097  20.629   8.850
 6622POPC   GL230254  36.055  20.464   8.850
 6622POPC   C1A30255  36.138  20.652   8.550
 6622POPC   D2A30256  36.143  20.647   8.250
 6622POPC   C3A30257  36.091  20.640   7.950
 6622POPC   C4A30258  36.147  20.630   7.650
 6622POPC   C1B30259  36.027  20.372   8.550
 6622POPC   C2B30260  36.073  20.408   8.250
 6622POPC   C3B30261  36.061  20.376   7.950
 6622POPC   C4B30262  35.993  20.412   7.650
 6623POPC   NC330263  36.132  19.829   9.450
 6623POPC   PO430264  36.089  19.813   9.150
 6623POPC   GL130265  36.097  19.880   8.850
 6623POPC   GL230266  35.974  19.891   8.850
 6623POPC   C1A30267  36.155  19.791   8.550
 6623POPC   D2A30268  36.172  19.816   8.250
 6623POPC   C3A30269  36.155  19.852   7.950
 6623POPC   C4A30270  36.143  19.837   7.650
 6623POPC   C1B30271  35.889  19.876   8.550
 6623POPC   C2B30272  35.844  19.870   8.250
 6623POPC   C3B30273  35.849  19.823   7.950
 6623POPC   C4B30274  35.886  19.854   7.650
 6624POPC   NC330275  40.056  39.254   9.450
 6624POPC   PO430276  40.020  39.249   9.150
 6624POPC   GL130277  39.997  39.197   8.850
 6624POPC   GL230278  40.175  39.238   8.850
 6624POPC   C1A30279  40.052  39.206   8.550
 6624POPC   D2A30280  40.002  39.239   8.250
 6624POPC   C3A30281  40.011  39.204   7.950
 6624POPC   C4A30282  40.000  39.258   7.650
 6624POPC   C1B30283  40.305  39.162   8.550
 6624POPC   C2B30284  40.265  39.248   8.250
 6624POPC   C3B30285  40.208  39.187   7.950
 6624POPC   C4B30286  40.288  39.226   7.650
 6625POPC   NC330287  44.678  38.464   9.450
 6625POPC   PO430288  44.653  38.443   9.150
 6625POPC   GL130289  44.619  38.469   8.850
 6625POPC   GL230290  44.659  38.333   8.850
 6625POPC   C1A30291  44.680  38.430   8.550
 6625POPC   D2A30292  44.702  38.421   8.250
 6625POPC   C3A30293  44.712  38.488   7.950
 6625POPC   C4A30294  44.697  38.437   7.650
 6625POPC   C1B30295  44.658  38.239   8.550
 6625POPC   C2B30296  44.634  38.180   8.250
 6625POPC   C3B30297  44.666  38.235   7.950
 6625POPC   C4B30298  44.624  38.161   7.650
 6626POPC   NC330299  26.856  24.457   9.450
 6626POPC   PO430300  26.803  24.516   9.150
 6626POPC   GL130301  26.844  24.539   8.850
 6626POPC   GL230302  26.658  24.531   8.850
 6626POPC   C1A30303  26.840  24.458   8.550
 6626POPC   D2A30304  26.844  24.477   8.250
 6626POPC   C3A30305  26.793  24.469   7.950
 6626POPC   C4A30306  26.844  24.512   7.650
 6626POPC   C1B30307  26.625  24.607   8.550
 6626POPC   C2B30308  26.627  24.565   8.250
 6626POPC   C3B30309  26.566  24.630   7.950
 6626POPC   C4B30310  26.635  24.639   7.650
 6627POPC   NC330311  32.263  28.413   9.450
 6627POPC   PO430312  32.219  28.380   9.150
 6627POPC   GL130313  32.212  28.354   8.850
 6627POPC   GL230314  32.403  28.328   8.850
 6627POPC   C1A30315  32.249  28.320   8.550
 6627POPC   D2A30316  32.227  28.380   8.250
 6627POPC   C3A30317  32.223  28.343   7.950
 6627POPC   C4A30318  32.208  28.349   7.650
 6627POPC   C1B30319  32.453  28.349   8.550
 6627POPC   C2B30320  32.472  28.397   8.250
 6627POPC   C3B30321  32.496  28.343   7.950
 6627POPC   C4B30322  32.523  28.392   7.650
 6628POPC   NC330323  19.858  16.708   9.450
 6628POPC   PO430324  19.872  16.681   9.150
 6628POPC   GL130325  19.835  16.737   8.850
 6628POPC   GL230326  19.727  16.671   8.850
 6628POPC   C1A30327  19.806  16.770   8.550
 6628POPC   D2A30328  19.842  16.777   8.250
 6628POPC   C3A30329  19.854  16.747   7.950
 6628POPC   C4A30330  19.864  16.758   7.650
 6628POPC   C1B30331  19.634  16.539   8.550
 6628POPC   C2B30332  19.682  16.583   8.250
 6628POPC   C3B30333  19.629  16.605   7.950
 6628POPC   C4B30334  19.679  16.604   7.650
 6629POPC   NC330335  43.855  43.081   9.450
 6629POPC   PO430336  43.851  43.101   9.150
 6629POPC   GL130337  43.861  43.128   8.850
 6629POPC   GL230338  43.926  43.025   8.850
 6629POPC   C1A30339  43.886  43.128   8.550
 6629POPC   D2A30340  43.845  43.098   8.250
 6629POPC   C3A30341  43.848  43.075   7.950
 6629POPC   C4A30342  43.922  43.152   7.650
 6629POPC   C1B30343  43.941  42.883   8.550
 6629POPC   C2B30344  43.991  42.911   8.250
 6629POPC   C3B30345  43.950  42.835   7.950
 6629POPC   C4B30346  43.969  42.860   7.650
 6630POPC   NC330347  26.042  14.452   9.450
 6630POPC   PO430348  26.044  14.364   9.150
 6630POPC   GL130349  26.000  14.386   8.850
 6630POPC   GL230350  25.887  14.396   8.850
 6630POPC   C1A30351  25.994  14.404   8.550
 6630POPC   D2A30352  26.063  14.409   8.250
 6630POPC   C3A30353  26.057  14.421   7.950
 6630POPC   C4A30354  26.008  14.393   7.650
 6630POPC   C1B30355  25.827  14.437   8.550
 6630POPC   C2B30356  25.797  14.395   8.250
 6630POPC   C3B30357  25.835  14.429   7.950
 6630POPC   C4B30358  25.815  14.380   7.650
 6631POPC   NC330359  42.376  12.842   9.450
 6631POPC   PO430360  42.296  12.859   9.150
 6631POPC   GL130361  42.288  12.877   8.850
 6631POPC   GL230362  42.313  12.990   8.850
 6631POPC   C1A30363  42.285  12.896   8.550
 6631POPC   D2A30364  42.314  12.812   8.250
 6631POPC   C3A30365  42.299  12.816   7.950
 6631POPC   C4A30366  42.337  12.844   7.650
 6631POPC   C1B30367  42.350  13.127   8.550
 6631POPC   C2B30368  42.335  13.140   8.250
 6631POPC   C3B30369  42.420  13.076   7.950
 6631POPC   C4B30370  42.416  13.103   7.650
 6632POPC   NC330371  23.679  32.996   9.450
 6632POPC   PO430372  23.740  33.025   9.150
 6632POPC   GL130373  23.679  33.038   8.850
 6632POPC   GL230374  23.733  33.139   8.850
 6632POPC   C1A30375  23.730  32.996   8.550
 6632POPC   D2A30376  23.682  32.991   8.250
 6632POPC   C3A30377  23.708  33.018   7.950
 6632POPC   C4A30378  23.715  33.022   7.650
 6632POPC   C1B30379  23.829  33.284   8.550
 6632POPC   C2B30380  23.855  33.255   8.250
 6632POPC   C3B30381  23.791  33.271   7.950
 6632POPC   C4B30382  23.881  33.229   7.650
 6633POPC   NC330383  24.449  25.231   9.450
 6633POPC   PO430384  24.455  25.265   9.150
 6633POPC   GL130385  24.495  25.282   8.850
 6633POPC   GL230386  24.520  25.118   8.850
 6633POPC   C1A30387  24.474  25.242   8.550
 6633POPC   D2A30388  24.461  25.306   8.250
 6633POPC   C3A30389  24.457  25.308   7.950
 6633POPC   C4A30390  24.488  25.248   7.650
 6633POPC   C1B30391  24.465  25.044   8.550
 6633POPC   C2B30392  24.487  25.061   8.250
 6633POPC   C3B30393  24.495  24.990   7.950
 6633POPC   C4B30394  24.497  25.017   7.650
 6634POPC   NC330395  25.999  26.009   9.450
 6634POPC   PO430396  26.066  26.046   9.150
 6634POPC   GL130397  26.040  26.086   8.850
 6634POPC   GL230398  25.944  25.963   8.850
 6634POPC   C1A30399  26.060  26.081   8.550
 6634POPC   D2A30400  26.014  25.999   8.250
 6634POPC   C3A30401  26.074  26.063   7.950
 6634POPC   C4A30402  26.028  25.992   7.650
 6634POPC   C1B30403  25.871  25.807   8.550
 6634POPC   C2B30404  25.864  25.876   8.250
 6634POPC   C3B30405  25.856  25.849   7.950
 6634POPC   C4B30406  25.866  25.895   7.650
 6635POPC   NC330407  20.655  13.581   9.450
 6635POPC   PO430408  20.646  13.666   9.150
 6635POPC   GL130409  20.622  13.648   8.850
 6635POPC   GL230410  20.621  13.704   8.850
 6635POPC   C1A30411  20.562  13.656   8.550
 6635POPC   D2A30412  20.641  13.608   8.250
 6635POPC   C3A30413  20.621  13.594   7.950
 6635POPC   C4A30414  20.633  13.612   7.650
 6635POPC   C1B30415  20.610  13.882   8.550
 6635POPC   C2B30416  20.587  13.898   8.250
 6635POPC   C3B30417  20.596  13.842   7.950
 6635POPC   C4B30418  20.654  13.877   7.650
 6636POPC   NC330419   3.584   1.976   9.450
 6636POPC   PO430420   3.544   2.032   9.150
 6636POPC   GL130421   3.572   1.965   8.850
 6636POPC   GL230422   3.432   2.072   8.850
 6636POPC   C1A30423   3.508   2.003   8.550
 6636POPC   D2A30424   3.585   1.979   8.250
 6636POPC   C3A30425   3.579   2.034   7.950
 6636POPC   C4A30426   3.497   1.998   7.650
 6636POPC   C1B30427   3.354   2.132   8.550
 6636POPC   C2B30428   3.338   2.165   8.250
 6636POPC   C3B30429   3.325   2.199   7.950
 6636POPC   C4B30430   3.343   2.188   7.650
 6637POPC   NC330431  15.142  14.416   9.450
 6637POPC   PO430432  15.172  14.365   9.150
 6637POPC   GL130433  15.221  14.429   8.850
 6637POPC   GL230434  15.300  14.521   8.850
 6637POPC   C1A30435  15.209  14.367   8.550
 6637POPC   D2A30436  15.132  14.424   8.250
 6637POPC   C3A30437  15.160  14.440   7.950
 6637POPC   C4A30438  15.198  14.433   7.650
 6637POPC   C1B30439  15.385  14.572   8.550
 6637POPC   C2B30440  15.343  14.543   8.250
 6637POPC   C3B30441  15.374  14.511   7.950
 6637POPC   C4B30442  15.419  14.559   7.650
 6638POPC   NC330443  33.052   5.068   9.450
 6638POPC   PO430444  33.058   5.089   9.150
 6638POPC   GL130445  33.042   5.077   8.850
 6638POPC   GL230446  33.072   5.226   8.850
 6638POPC   C1A30447  32.974   5.050   8.550
 6638POPC   D2A30448  33.052   5.065   8.250
 6638POPC   C3A30449  32.979   5.059   7.950
 6638POPC   C4A30450  33.065   5.071   7.650
 6638POPC   C1B30451  33.106   5.346   8.550
 6638POPC   C2B30452  33.131   5.348   8.250
 6638POPC   C3B30453  33.121   5.296   7.950
 6638POPC   C4B30454  33.157   5.325   7.650
 6639POPC   NC330455  27.560   7.409   9.450
 6639POPC   PO430456  27.631   7.395   9.150
 6639POPC   GL130457  27.576   7.392   8.850
 6639POPC   GL230458  27.620   7.498   8.850
 6639POPC   C1A30459  27.566   7.425   8.550
 6639POPC   D2A30460  27.616   7.381   8.250
 6639POPC   C3A30461  27.551   7.376   7.950
 6639POPC   C4A30462  27.607   7.465   7.650
 6639POPC   C1B30463  27.502   7.659   8.550
 6639POPC   C2B30464  27.577   7.632   8.250
 6639POPC   C3B30465  27.549   7.622   7.950
 6639POPC   C4B30466  27.574   7.680   7.650
 6640POPC   NC330467  33.842  21.424   9.450
 6640POPC   PO430468  33.759  21.365   9.150
 6640POPC   GL130469  33.753  21.339   8.850
 6640POPC   GL230470  33.894  21.395   8.850
 6640POPC   C1A30471  33.820  21.343   8.550
 6640POPC   D2A30472  33.750  21.405   8.250
 6640POPC   C3A30473  33.839  21.429   7.950
 6640POPC   C4A30474  33.831  21.415   7.650
 6640POPC   C1B30475  34.018  21.367   8.550
 6640POPC   C2B30476  34.048  21.359   8.250
 6640POPC   C3B30477  34.052  21.312   7.950
 6640POPC   C4B30478  34.052  21.290   7.650
 6641POPC   NC330479   8.149  21.398   9.450
 6641POPC   PO430480   8.177  21.362   9.150
 6641POPC   GL130481   8.176  21.385   8.850
 6641POPC   GL230482   8.108  21.429   8.850
 6641POPC   C1A30483   8.149  21.369   8.550
 6641POPC   D2A30484   8.160  21.422   8.250
 6641POPC   C3A30485   8.234  21.376   7.950
 6641POPC   C4A30486   8.238  21.393   7.650
 6641POPC   C1B30487   7.947  21.444   8.550
 6641POPC   C2B30488   7.976  21.491   8.250
 6641POPC   C3B30489   7.967  21.510   7.950
 6641POPC   C4B30490   7.993  21.508   7.650
 6642POPC   NC330491  41.583  30.680   9.450
 6642POPC   PO430492  41.600  30.735   9.150
 6642POPC   GL130493  41.550  30.657   8.850
 6642POPC   GL230494  41.511  30.610   8.850
 6642POPC   C1A30495  41.579  30.696   8.550
 6642POPC   D2A30496  41.555  30.745   8.250
 6642POPC   C3A30497  41.599  30.710   7.950
 6642POPC   C4A30498  41.512  30.686   7.650
 6642POPC   C1B30499  41.351  30.503   8.550
 6642POPC   C2B30500  41.351  30.513   8.250
 6642POPC   C3B30501  41.382  30.526   7.950
 6642POPC   C4B30502  41.380  30.563   7.650
 6643POPC   NC330503  14.384   5.824   9.450
 6643POPC   PO430504  14.416   5.915   9.150
 6643POPC   GL130505  14.409   5.833   8.850
 6643POPC   GL230506  14.235   5.922   8.850
 6643POPC   C1A30507  14.389   5.893   8.550
 6643POPC   D2A30508  14.402   5.892   8.250
 6643POPC   C3A30509  14.356   5.891   7.950
 6643POPC   C4A30510  14.449   5.849   7.650
 6643POPC   C1B30511  14.187   5.948   8.550
 6643POPC   C2B30512  14.184   5.929   8.250
 6643POPC   C3B30513  14.171   5.951   7.950
 6643POPC   C4B30514  14.140   5.943   7.650
 6644POPC   NC330515   0.468  38.459   9.450
 6644POPC   PO430516   0.472  38.421   9.150
 6644POPC   GL130517   0.474  38.428   8.850
 6644POPC   GL230518   0.292  38.472   8.850
 6644POPC   C1A30519   0.467  38.485   8.550
 6644POPC   D2A30520   0.436  38.475   8.250
 6644POPC   C3A30521   0.441  38.446   7.950
 6644POPC   C4A30522   0.398  38.505   7.650
 6644POPC   C1B30523   0.194  38.463   8.550
 6644POPC   C2B30524   0.191  38.441   8.250
 6644POPC   C3B30525   0.223  38.414   7.950
 6644POPC   C4B30526   0.185  38.383   7.650
 6645POPC   NC330527   4.311   3.561   9.450
 6645POPC   PO430528   4.322   3.512   9.150
 6645POPC   GL130529   4.342   3.568   8.850
 6645POPC   GL230530   4.475   3.529   8.850
 6645POPC   C1A30531   4.362   3.505   8.550
 6645POPC   D2A30532   4.282   3.586   8.250
 6645POPC   C3A30533   4.318   3.549   7.950
 6645POPC   C4A30534   4.355   3.543   7.650
 6645POPC   C1B30535   4.556   3.536   8.550
 6645POPC   C2B30536   4.592   3.477   8.250
 6645POPC   C3B30537   4.602   3.456   7.950
 6645POPC   C4B30538   4.596   3.526   7.650
 6646POPC   NC330539  34.542   0.412   9.450
 6646POPC   PO430540  34.548   0.407   9.150
 6646POPC   GL130541  34.573   0.426   8.850
 6646POPC   GL230542  34.530   0.601   8.850
 6646POPC   C1A30543  34.577   0.450   8.550
 6646POPC   D2A30544  34.619   0.392   8.250
 6646POPC   C3A30545  34.566   0.419   7.950
 6646POPC   C4A30546  34.590   0.463   7.650
 6646POPC   C1B30547  34.536   0.634   8.550
 6646POPC   C2B30548  34.462   0.677   8.250
 6646POPC   C3B30549  34.475   0.724   7.950
 6646POPC   C4B30550  34.471   0.652   7.650
 6647POPC   NC330551  20.653   3.530   9.450
 6647POPC   PO430552  20.563   3.520   9.150
 6647POPC   GL130553  20.583   3.495   8.850
 6647POPC   GL230554  20.675   3.647   8.850
 6647POPC   C1A30555  20.598   3.563   8.550
 6647POPC   D2A30556  20.619   3.562   8.250
 6647POPC   C3A30557  20.585   3.567   7.950
 6647POPC   C4A30558  20.632   3.532   7.650
 6647POPC   C1B30559  20.851   3.672   8.550
 6647POPC   C2B30560  20.826   3.696   8.250
 6647POPC   C3B30561  20.807   3.672   7.950
 6647POPC   C4B30562  20.819   3.697   7.650
 6648POPC   NC330563  18.320  44.660   9.450
 6648POPC   PO430564  18.291  44.670   9.150
 6648POPC   GL130565  18.315  44.636   8.850
 6648POPC   GL230566  18.355  44.781   8.850
 6648POPC   C1A30567  18.287  44.701   8.550
 6648POPC   D2A30568  18.281  44.650   8.250
 6648POPC   C3A30569  18.281  44.620   7.950
 6648POPC   C4A30570  18.329  44.665   7.650
 6648POPC   C1B30571  18.433  44.789   8.550
 6648POPC   C2B30572  18.457  44.845   8.250
 6648POPC   C3B30573  18.527  44.818   7.950
 6648POPC   C4B30574  18.433  44.783   7.650
 6649POPC   NC330575  16.684  15.907   9.450
 6649POPC   PO430576  16.765  15.993   9.150
 6649POPC   GL130577  16.717  15.956   8.850
 6649POPC   GL230578  16.714  16.036   8.850
 6649POPC   C1A30579  16.689  15.977   8.550
 6649POPC   D2A30580  16.716  16.003   8.250
 6649POPC   C3A30581  16.742  15.966   7.950
 6649POPC   C4A30582  16.689  15.965   7.650
 6649POPC   C1B30583  16.676  16.248   8.550
 6649POPC   C2B30584  16.713  16.203   8.250
 6649POPC   C3B30585  16.653  16.160   7.950
 6649POPC   C4B30586  16.679  16.206   7.650
 6650POPC   NC330587  31.521  44.673   9.450
 6650POPC   PO430588  31.512  44.627   9.150
 6650POPC   GL130589  31.494  44.704   8.850
 6650POPC   GL230590  31.601  44.780   8.850
 6650POPC   C1A30591  31.502  44.658   8.550
 6650POPC   D2A30592  31.514  44.657   8.250
 6650POPC   C3A30593  31.521  44.695   7.950
 6650POPC   C4A30594  31.483  44.682   7.650
 6650POPC   C1B30595  31.614  44.815   8.550
 6650POPC   C2B30596  31.658  44.849   8.250
 6650POPC   C3B30597  31.629  44.807   7.950
 6650POPC   C4B30598  31.687  44.835   7.650
 6651POPC   NC330599  25.996  22.179   9.450
 6651POPC   PO430600  26.012  22.147   9.150
 6651POPC   GL130601  26.048  22.148   8.850
 6651POPC   GL230602  26.115  22.258   8.850
 6651POPC   C1A30603  26.036  22.137   8.550
 6651POPC   D2A30604  26.029  22.131   8.250
 6651POPC   C3A30605  26.006  22.203   7.950
 6651POPC   C4A30606  25.992  22.145   7.650
 6651POPC   C1B30607  26.090  22.394   8.550
 6651POPC   C2B30608  26.133  22.398   8.250
 6651POPC   C3B30609  26.106  22.407   7.950
 6651POPC   C4B30610  26.177  22.351   7.650
 6652POPC   NC330611   0.449  31.492   9.450
 6652POPC   PO430612   0.465  31.522   9.150
 6652POPC   GL130613   0.399  31.520   8.850
 6652POPC   GL230614   0.269  31.425   8.850
 6652POPC   C1A30615   0.420  31.508   8.550
 6652POPC   D2A30616   0.391  31.515   8.250
 6652POPC   C3A30617   0.429  31.488   7.950
 6652POPC   C4A30618   0.452  31.468   7.650
 6652POPC   C1B30619   0.180  31.404   8.550
 6652POPC   C2B30620   0.148  31.440   8.250
 6652POPC   C3B30621   0.207  31.473   7.950
 6652POPC   C4B30622   0.220  31.418   7.650
 6653POPC   NC330623  18.245  41.551   9.450
 6653POPC   PO430624  18.282  41.605   9.150
 6653POPC   GL130625  18.320  41.578   8.850
 6653POPC   GL230626  18.365  41.715   8.850
 6653POPC   C1A30627  18.245  41.607   8.550
 6653POPC   D2A30628  18.275  41.578   8.250
 6653POPC   C3A30629  18.260  41.560   7.950
 6653POPC   C4A30630  18.317  41.593   7.650
 6653POPC   C1B30631  18.449  41.757   8.550
 6653POPC   C2B30632  18.422  41.777   8.250
 6653POPC   C3B30633  18.376  41.811   7.950
 6653POPC   C4B30634  18.414  41.808   7.650
 6654POPC   NC330635  29.135  38.431   9.450
 6654POPC   PO430636  29.099  38.486   9.150
 6654POPC   GL130637  29.145  38.474   8.850
 6654POPC   GL230638  29.204  38.304   8.850
 6654POPC   C1A30639  29.101  38.477   8.550
 6654POPC   D2A30640  29.162  38.461   8.250
 6654POPC   C3A30641  29.138  38.439   7.950
 6654POPC   C4A30642  29.166  38.497   7.650
 6654POPC   C1B30643  29.329  38.218   8.550
 6654POPC   C2B30644  29.273  38.287   8.250
 6654POPC   C3B30645  29.249  38.265   7.950
 6654POPC   C4B30646  29.273  38.207   7.650
 6655POPC   NC330647  24.512  18.256   9.450
 6655POPC   PO430648  24.474  18.281   9.150
 6655POPC   GL130649  24.526  18.297   8.850
 6655POPC   GL230650  24.349  18.302   8.850
 6655POPC   C1A30651  24.478  18.238   8.550
 6655POPC   D2A30652  24.504  18.329   8.250
 6655POPC   C3A30653  24.477  18.241   7.950
 6655POPC   C4A30654  24.533  18.248   7.650
 6655POPC   C1B30655  24.240  18.214   8.550
 6655POPC   C2B30656  24.251  18.233   8.250
 6655POPC   C3B30657  24.199  18.298   7.950
 6655POPC   C4B30658  24.286  18.248   7.650
 6656POPC   NC330659   1.166  32.246   9.450
 6656POPC   PO430660   1.186  32.293   9.150
 6656POPC   GL130661   1.263  32.264   8.850
 6656POPC   GL230662   1.182  32.135   8.850
 6656POPC   C1A30663   1.184  32.227   8.550
 6656POPC   D2A30664   1.260  32.202   8.250
 6656POPC   C3A30665   1.235  32.203   7.950
 6656POPC   C4A30666   1.176  32.229   7.650
 6656POPC   C1B30667   1.035  32.019   8.550
 6656POPC   C2B30668   1.059  32.045   8.250
 6656POPC   C3B30669   1.111  32.004   7.950
 6656POPC   C4B30670   1.119  32.052   7.650
 6657POPC   NC330671   5.861  16.686   9.450
 6657POPC   PO430672   5.895  16.759   9.150
 6657POPC   GL130673   5.909  16.747   8.850
 6657POPC   GL230674   6.041  16.672   8.850
 6657POPC   C1A30675   5.914  16.689   8.550
 6657POPC   D2A30676   5.912  16.740   8.250
 6657POPC   C3A30677   5.861  16.758   7.950
 6657POPC   C4A30678   5.902  16.754   7.650
 6657POPC   C1B30679   6.122  16.648   8.550
 6657POPC   C2B30680   6.132  16.680   8.250
 6657POPC   C3B30681   6.166  16.683   7.950
 6657POPC   C4B30682   6.136  16.689   7.650
 6658POPC   NC330683  14.445  41.535   9.450
 6658POPC   PO430684  14.392  41.556   9.150
 6658POPC   GL130685  14.431  41.600   8.850
 6658POPC   GL230686  14.544  41.544   8.850
 6658POPC   C1A30687  14.439  41.538   8.550
 6658POPC   D2A30688  14.407  41.543   8.250
 6658POPC   C3A30689  14.362  41.533   7.950
 6658POPC   C4A30690  14.378  41.608   7.650
 6658POPC   C1B30691  14.629  41.651   8.550
 6658POPC   C2B30692  14.623  41.583   8.250
 6658POPC   C3B30693  14.616  41.575   7.950
 6658POPC   C4B30694  14.604  41.630   7.650
 6659POPC   NC330695  23.676  22.898   9.450
 6659POPC   PO430696  23.721  22.925   9.150
 6659POPC   GL130697  23.700  22.952   8.850
 6659POPC   GL230698  23.659  23.081   8.850
 6659POPC   C1A30699  23.683  22.912   8.550
 6659POPC   D2A30700  23.741  22.930   8.250
 6659POPC   C3A30701  23.694  22.961   7.950
 6659POPC   C4A30702  23.728  22.942   7.650
 6659POPC   C1B30703  23.718  23.140   8.550
 6659POPC   C2B30704  23.690  23.181   8.250
 6659POPC   C3B30705  23.658  23.235   7.950
 6659POPC   C4B30706  23.731  23.228   7.650
 6660POPC   NC330707  18.299  38.425   9.450
 6660POPC   PO430708  18.322  38.443   9.150
 6660POPC   GL130709  18.290  38.453   8.850
 6660POPC   GL230710  18.275  38.302   8.850
 6660POPC   C1A30711  18.306  38.434   8.550
 6660POPC   D2A30712  18.272  38.474   8.250
 6660POPC   C3A30713  18.240  38.481   7.950
 6660POPC   C4A30714  18.300  38.474   7.650
 6660POPC   C1B30715  18.287  38.191   8.550
 6660POPC   C2B30716  18.267  38.190   8.250
 6660POPC   C3B30717  18.264  38.235   7.950
 6660POPC   C4B30718  18.318  38.225   7.650
 6661POPC   NC330719   4.282  39.206   9.450
 6661POPC   PO430720   4.345  39.269   9.150
 6661POPC   GL130721   4.318  39.237   8.850
 6661POPC   GL230722   4.394  39.347   8.850
 6661POPC   C1A30723   4.344  39.254   8.550
 6661POPC   D2A30724   4.365  39.181   8.250
 6661POPC   C3A30725   4.335  39.273   7.950
 6661POPC   C4A30726   4.312  39.187   7.650
 6661POPC   C1B30727   4.450  39.457   8.550
 6661POPC   C2B30728   4.415  39.504   8.250
 6661POPC   C3B30729   4.427  39.483   7.950
 6661POPC   C4B30730   4.376  39.458   7.650
 6662POPC   NC330731  36.111  36.882   9.450
 6662POPC   PO430732  36.166  36.875   9.150
 6662POPC   GL130733  36.110  36.907   8.850
 6662POPC   GL230734  35.984  36.902   8.850
 6662POPC   C1A30735  36.137  36.932   8.550
 6662POPC   D2A30736  36.089  36.884   8.250
 6662POPC   C3A30737  36.092  36.880   7.950
 6662POPC   C4A30738  36.163  36.859   7.650
 6662POPC   C1B30739  35.867  36.942   8.550
 6662POPC   C2B30740  35.903  36.884   8.250
 6662POPC   C3B30741  35.870  36.877   7.950
 6662POPC   C4B30742  35.888  36.933   7.650
 6663POPC   NC330743  11.337  26.083   9.450
 6663POPC   PO430744  11.272  26.041   9.150
 6663POPC   GL130745  11.346  26.056   8.850
 6663POPC   GL230746  11.331  26.141   8.850
 6663POPC   C1A30747  11.312  26.079   8.550
 6663POPC   D2A30748  11.348  26.043   8.250
 6663POPC   C3A30749  11.257  26.067   7.950
 6663POPC   C4A30750  11.261  26.045   7.650
 6663POPC   C1B30751  11.416  26.290   8.550
 6663POPC   C2B30752  11.390  26.280   8.250
 6663POPC   C3B30753  11.327  26.256   7.950
 6663POPC   C4B30754  11.369  26.305   7.650
 6664POPC   NC330755  36.158  29.883   9.450
 6664POPC   PO430756  36.117  29.943   9.150
 6664POPC   GL130757  36.167  29.939   8.850
 6664POPC   GL230758  36.222  29.783   8.850
 6664POPC   C1A30759  36.129  29.882   8.550
 6664POPC   D2A30760  36.163  29.887   8.250
 6664POPC   C3A30761  36.157  29.960   7.950
 6664POPC   C4A30762  36.102  29.941   7.650
 6664POPC   C1B30763  36.278  29.707   8.550
 6664POPC   C2B30764  36.267  29.656   8.250
 6664POPC   C3B30765  36.216  29.733   7.950
 6664POPC   C4B30766  36.246  29.703   7.650
 6665POPC   NC330767  44.659  19.020   9.450
 6665POPC   PO430768  44.706  19.022   9.150
 6665POPC   GL130769  44.702  19.095   8.850
 6665POPC   GL230770  44.607  18.993   8.850
 6665POPC   C1A30771  44.626  19.037   8.550
 6665POPC   D2A30772  44.684  19.090   8.250
 6665POPC   C3A30773  44.677  19.033   7.950
 6665POPC   C4A30774  44.645  19.010   7.650
 6665POPC   C1B30775  44.466  18.919   8.550
 6665POPC   C2B30776  44.433  18.855   8.250
 6665POPC   C3B30777  44.458  18.940   7.950
 6665POPC   C4B30778  44.484  18.864   7.650
 6666POPC   NC330779  10.548  32.258   9.450
 6666POPC   PO430780  10.478  32.208   9.150
 6666POPC   GL130781  10.566  32.240   8.850
 6666POPC   GL230782  10.574  32.102   8.850
 6666POPC   C1A30783  10.476  32.290   8.550
 6666POPC   D2A30784  10.517  32.239   8.250
 6666POPC   C3A30785  10.499  32.226   7.950
 6666POPC   C4A30786  10.501  32.287   7.650
 6666POPC   C1B30787  10.660  31.999   8.550
 6666POPC   C2B30788  10.598  32.004   8.250
 6666POPC   C3B30789  10.665  32.080   7.950
 6666POPC   C4B30790  10.634  31.984   7.650
 6667POPC   NC330791   1.257  41.592   9.450
 6667POPC   PO430792   1.226  41.557   9.150
 6667POPC   GL130793   1.260  41.512   8.850
 6667POPC   GL230794   1.160  41.397   8.850
 6667POPC   C1A30795   1.218  41.543   8.550
 6667POPC   D2A30796   1.225  41.585   8.250
 6667POPC   C3A30797   1.230  41.572   7.950
 6667POPC   C4A30798   1.172  41.578   7.650
 6667POPC   C1B30799   1.147  41.298   8.550
 6667POPC   C2B30800   1.129  41.361   8.250
 6667POPC   C3B30801   1.098  41.296   7.950
 6667POPC   C4B30802   1.154  41.307   7.650
 6668POPC   NC330803   1.999  26.087   9.450
 6668POPC   PO430804   1.940  26.068   9.150
 6668POPC   GL130805   2.006  26.058   8.850
 6668POPC   GL230806   2.068  25.893   8.850
 6668POPC   C1A30807   2.020  26.048   8.550
 6668POPC   D2A30808   1.962  26.015   8.250
 6668POPC   C3A30809   1.988  26.051   7.950
 6668POPC   C4A30810   1.993  25.997   7.650
 6668POPC   C1B30811   2.135  25.786   8.550
 6668POPC   C2B30812   2.114  25.812   8.250
 6668POPC   C3B30813   2.060  25.845   7.950
 6668POPC   C4B30814   2.066  25.777   7.650
 6669POPC   NC330815   1.976  36.854   9.450
 6669POPC   PO430816   1.986  36.869   9.150
 6669POPC   GL130817   1.983  36.904   8.850
 6669POPC   GL230818   2.027  36.984   8.850
 6669POPC   C1A30819   1.975  36.941   8.550
 6669POPC   D2A30820   1.998  36.889   8.250
 6669POPC   C3A30821   1.956  36.871   7.950
 6669POPC   C4A30822   1.997  36.953   7.650
 6669POPC   C1B30823   2.043  37.113   8.550
 6669POPC   C2B30824   2.017  37.186   8.250
 6669POPC   C3B30825   1.987  37.102   7.950
 6669POPC   C4B30826   2.034  37.139   7.650
 6670POPC   NC330827  33.005  44.623   9.450
 6670POPC   PO430828  32.998  44.703   9.150
 6670POPC   GL130829  33.068  44.667   8.850
 6670POPC   GL230830  32.895  44.568   8.850
 6670POPC   C1A30831  33.046  44.692   8.550
 6670POPC   D2A30832  32.976  44.681   8.250
 6670POPC   C3A30833  32.997  44.675   7.950
 6670POPC   C4A30834  33.073  44.663   7.650
 6670POPC   C1B30835  32.817  44.462   8.550
 6670POPC   C2B30836  32.860  44.441   8.250
 6670POPC   C3B30837  32.825  44.495   7.950
 6670POPC   C4B30838  32.892  44.509   7.650
 6671POPC   NC330839  41.561  12.849   9.450
 6671POPC   PO430840  41.550  12.848   9.150
 6671POPC   GL130841  41.543  12.856   8.850
 6671POPC   GL230842  41.663  12.940   8.850
 6671POPC   C1A30843  41.545  12.842   8.550
 6671POPC   D2A30844  41.590  12.830   8.250
 6671POPC   C3A30845  41.597  12.897   7.950
 6671POPC   C4A30846  41.559  12.888   7.650
 6671POPC   C1B30847  41.702  13.026   8.550
 6671POPC   C2B30848  41.692  13.087   8.250
 6671POPC   C3B30849  41.647  13.074   7.950
 6671POPC   C4B30850  41.736  13.062   7.650
 6672POPC   NC330851   4.348  17.491   9.450
 6672POPC   PO430852   4.271  17.535   9.150
 6672POPC   GL130853   4.362  17.554   8.850
 6672POPC   GL230854   4.475  17.516   8.850
 6672POPC   C1A30855   4.335  17.466   8.550
 6672POPC   D2A30856   4.269  17.533   8.250
 6672POPC   C3A30857   4.351  17.483   7.950
 6672POPC   C4A30858   4.341  17.502   7.650
 6672POPC   C1B30859   4.585  17.602   8.550
 6672POPC   C2B30860   4.535  17.531   8.250
 6672POPC   C3B30861   4.593  17.615   7.950
 6672POPC   C4B30862   4.573  17.554   7.650
 6673POPC   NC330863  22.198  34.595   9.450
 6673POPC   PO430864  22.204  34.544   9.150
 6673POPC   GL130865  22.112  34.569   8.850
 6673POPC   GL230866  22.019  34.664   8.850
 6673POPC   C1A30867  22.191  34.615   8.550
 6673POPC   D2A30868  22.163  34.611   8.250
 6673POPC   C3A30869  22.173  34.592   7.950
 6673POPC   C4A30870  22.205  34.591   7.650
 6673POPC   C1B30871  21.970  34.737   8.550
 6673POPC   C2B30872  21.927  34.718   8.250
 6673POPC   C3B30873  21.971  34.738   7.950
 6673POPC   C4B30874  21.928  34.754   7.650
 6674POPC   NC330875  29.909  21.380   9.450
 6674POPC   PO430876  29.924  21.378   9.150
 6674POPC   GL130877  29.968  21.420   8.850
 6674POPC   GL230878  29.918  21.466   8.850
 6674POPC   C1A30879  29.956  21.359   8.550
 6674POPC   D2A30880  29.917  21.386   8.250
 6674POPC   C3A30881  29.907  21.426   7.950
 6674POPC   C4A30882  29.914  21.375   7.650
 6674POPC   C1B30883  29.879  21.583   8.550
 6674POPC   C2B30884  29.838  21.671   8.250
 6674POPC   C3B30885  29.881  21.619   7.950
 6674POPC   C4B30886  29.862  21.590   7.650
 6675POPC   NC330887  43.931  27.604   9.450
 6675POPC   PO430888  43.859  27.623   9.150
 6675POPC   GL130889  43.837  27.566   8.850
 6675POPC   GL230890  43.871  27.689   8.850
 6675POPC   C1A30891  43.863  27.544   8.550
 6675POPC   D2A30892  43.848  27.620   8.250
 6675POPC   C3A30893  43.920  27.634   7.950
 6675POPC   C4A30894  43.846  27.558   7.650
 6675POPC   C1B30895  43.744  27.801   8.550
 6675POPC   C2B30896  43.789  27.860   8.250
 6675POPC   C3B30897  43.829  27.821   7.950
 6675POPC   C4B30898  43.784  27.840   7.650
 6676POPC   NC330899  22.137  29.109   9.450
 6676POPC   PO430900  22.167  29.099   9.150
 6676POPC   GL130901  22.209  29.136   8.850
 6676POPC   GL230902  22.080  29.229   8.850
 6676POPC   C1A30903  22.128  29.144   8.550
 6676POPC   D2A30904  22.117  29.119   8.250
 6676POPC   C3A30905  22.190  29.162   7.950
 6676POPC   C4A30906  22.118  29.141   7.650
 6676POPC   C1B30907  22.079  29.389   8.550
 6676POPC   C2B30908  22.105  29.382   8.250
 6676POPC   C3B30909  22.052  29.360   7.950
 6676POPC   C4B30910  22.052  29.348   7.650
 6677POPC   NC330911  43.909  29.157   9.450
 6677POPC   PO430912  43.924  29.155   9.150
 6677POPC   GL130913  43.915  29.180   8.850
 6677POPC   GL230914  44.034  29.201   8.850
 6677POPC   C1A30915  43.871  29.153   8.550
 6677POPC   D2A30916  43.925  29.151   8.250
 6677POPC   C3A30917  43.926  29.122   7.950
 6677POPC   C4A30918  43.893  29.160   7.650
 6677POPC   C1B30919  44.138  29.295   8.550
 6677POPC   C2B30920  44.121  29.248   8.250
 6677POPC   C3B30921  44.114  29.317   7.950
 6677POPC   C4B30922  44.053  29.255   7.650
 6678POPC   NC330923  20.630  10.534   9.450
 6678POPC   PO430924  20.658  10.558   9.150
 6678POPC   GL130925  20.576  10.570   8.850
 6678POPC   GL230926  20.753  10.600   8.850
 6678POPC   C1A30927  20.634  10.476   8.550
 6678POPC   D2A30928  20.584  10.478   8.250
 6678POPC   C3A30929  20.610  10.546   7.950
 6678POPC   C4A30930  20.618  10.567   7.650
 6678POPC   C1B30931  20.846  10.613   8.550
 6678POPC   C2B30932  20.858  10.585   8.250
 6678POPC   C3B30933  20.817  10.595   7.950
 6678POPC   C4B30934  20.831  10.563   7.650
 6679POPC   NC330935  41.573   1.164   9.450
 6679POPC   PO430936  41.573   1.207   9.150
 6679POPC   GL130937  41.587   1.256   8.850
 6679POPC   GL230938  41.700   1.204   8.850
 6679POPC   C1A30939  41.550   1.210   8.550
 6679POPC   D2A30940  41.573   1.184   8.250
 6679POPC   C3A30941  41.586   1.249   7.950
 6679POPC   C4A30942  41.513   1.177   7.650
 6679POPC   C1B30943  41.754   1.181   8.550
 6679POPC   C2B30944  41.835   1.152   8.250
 6679POPC   C3B30945  41.790   1.183   7.950
 6679POPC   C4B30946  41.798   1.134   7.650
 6680POPC   NC330947   6.631  20.620   9.450
 6680POPC   PO430948   6.665  20.584   9.150
 6680POPC   GL130949   6.644  20.579   8.850
 6680POPC   GL230950   6.501  20.595   8.850
 6680POPC   C1A30951   6.681  20.618   8.550
 6680POPC   D2A30952   6.625  20.633   8.250
 6680POPC   C3A30953   6.662  20.574   7.950
 6680POPC   C4A30954   6.596  20.570   7.650
 6680POPC   C1B30955   6.422  20.463   8.550
 6680POPC   C2B30956   6.451  20.517   8.250
 6680POPC   C3B30957   6.386  20.467   7.950
 6680POPC   C4B30958   6.409  20.451   7.650
 6681POPC   NC330959  29.956   6.640   9.450
 6681POPC   PO430960  29.891   6.671   9.150
 6681POPC   GL130961  29.924   6.663   8.850
 6681POPC   GL230962  29.956   6.801   8.850
 6681POPC   C1A30963  29.900   6.669   8.550
 6681POPC   D2A30964  29.953   6.595   8.250
 6681POPC   C3A30965  29.899   6.641   7.950
 6681POPC   C4A30966  29.953   6.668   7.650
 6681POPC   C1B30967  29.980   6.888   8.550
 6681POPC   C2B30968  29.902   6.871   8.250
 6681POPC   C3B30969  29.986   6.870   7.950
 6681POPC   C4B30970  29.957   6.907   7.650
 6682POPC   NC330971  26.011  12.891   9.450
 6682POPC   PO430972  26.020  12.805   9.150
 6682POPC   GL130973  26.063  12.836   8.850
 6682POPC   GL230974  25.992  12.707   8.850
 6682POPC   C1A30975  26.037  12.811   8.550
 6682POPC   D2A30976  26.030  12.897   8.250
 6682POPC   C3A30977  26.075  12.829   7.950
 6682POPC   C4A30978  26.010  12.863   7.650
 6682POPC   C1B30979  25.961  12.623   8.550
 6682POPC   C2B30980  25.935  12.636   8.250
 6682POPC   C3B30981  26.022  12.572   7.950
 6682POPC   C4B30982  25.992  12.579   7.650
 6683POPC   NC330983  44.657   3.580   9.450
 6683POPC   PO430984  44.652   3.565   9.150
 6683POPC   GL130985  44.683   3.523   8.850
 6683POPC   GL230986  44.802   3.467   8.850
 6683POPC   C1A30987  44.615   3.532   8.550
 6683POPC   D2A30988  44.704   3.586   8.250
 6683POPC   C3A30989  44.699   3.550   7.950
 6683POPC   C4A30990  44.680   3.516   7.650
 6683POPC   C1B30991  44.862   3.457   8.550
 6683POPC   C2B30992  44.929   3.404   8.250
 6683POPC   C3B30993  44.928   3.407   7.950
 6683POPC   C4B30994  44.849   3.479   7.650
 6684POPC   NC330995  20.568  16.759   9.450
 6684POPC   PO430996  20.604  16.709   9.150
 6684POPC   GL130997  20.566  16.776   8.850
 6684POPC   GL230998  20.712  16.828   8.850
 6684POPC   C1A30999  20.654  16.752   8.550
 6684POPC   D2A31000  20.602  16.740   8.250
 6684POPC   C3A31001  20.581  16.781   7.950
 6684POPC   C4A31002  20.645  16.710   7.650
 6684POPC   C1B31003  20.795  16.887   8.550
 6684POPC   C2B31004  20.754  16.882   8.250
 6684POPC   C3B31005  20.778  16.942   7.950
 6684POPC   C4B31006  20.762  16.945   7.650
 6685POPC   NC331007  35.327  19.827   9.450
 6685POPC   PO431008  35.321  19.857   9.150
 6685POPC   GL131009  35.384  19.834   8.850
 6685POPC   GL231010  35.506  19.865   8.850
 6685POPC   C1A31011  35.360  19.828   8.550
 6685POPC   D2A31012  35.365  19.809   8.250
 6685POPC   C3A31013  35.367  19.821   7.950
 6685POPC   C4A31014  35.313  19.866   7.650
 6685POPC   C1B31015  35.583  19.845   8.550
 6685POPC   C2B31016  35.616  19.810   8.250
 6685POPC   C3B31017  35.651  19.853   7.950
 6685POPC   C4B31018  35.648  19.784   7.650
 6686POPC   NC331019   1.994  29.165   9.450
 6686POPC   PO431020   1.969  29.141   9.150
 6686POPC   GL131021   1.982  29.123   8.850
 6686POPC   GL231022   1.959  29.029   8.850
 6686POPC   C1A31023   1.964  29.109   8.550
 6686POPC   D2A31024   1.976  29.175   8.250
 6686POPC   C3A31025   2.034  29.121   7.950
 6686POPC   C4A31026   1.965  29.120   7.650
 6686POPC   C1B31027   1.876  28.881   8.550
 6686POPC   C2B31028   1.868  28.947   8.250
 6686POPC   C3B31029   1.963  28.926   7.950
 6686POPC   C4B31030   1.955  28.936   7.650
 6687POPC   NC331031  18.319  15.964   9.450
 6687POPC   PO431032  18.247  15.954   9.150
 6687POPC   GL131033  18.266  15.915   8.850
 6687POPC   GL231034  18.349  15.868   8.850
 6687POPC   C1A31035  18.293  15.965   8.550
 6687POPC   D2A31036  18.248  15.926   8.250
 6687POPC   C3A31037  18.328  15.931   7.950
 6687POPC   C4A31038  18.311  15.924   7.650
 6687POPC   C1B31039  18.330  15.755   8.550
 6687POPC   C2B31040  18.338  15.698   8.250
 6687POPC   C3B31041  18.342  15.741   7.950
 6687POPC   C4B31042  18.293  15.745   7.650
 6688POPC   NC331043  13.601  19.854   9.450
 6688POPC   PO431044  13.601  19.847   9.150
 6688POPC   GL131045  13.594  19.807   8.850
 6688POPC   GL231046  13.472  19.798   8.850
 6688POPC   C1A31047  13.671  19.807   8.550
 6688POPC   D2A31048  13.626  19.815   8.250
 6688POPC   C3A31049  13.580  19.829   7.950
 6688POPC   C4A31050  13.666  19.800   7.650
 6688POPC   C1B31051  13.333  19.803   8.550
 6688POPC   C2B31052  13.377  19.872   8.250
 6688POPC   C3B31053  13.356  19.784   7.950
 6688POPC   C4B31054  13.333  19.797   7.650
 6689POPC   NC331055  37.630  29.880   9.450
 6689POPC   PO431056  37.637  29.939   9.150
 6689POPC   GL131057  37.699  29.966   8.850
 6689POPC   GL231058  37.687  29.765   8.850
 6689POPC   C1A31059  37.665  29.954   8.550
 6689POPC   D2A31060  37.664  29.963   8.250
 6689POPC   C3A31061  37.667  29.888   7.950
 6689POPC   C4A31062  37.673  29.910   7.650
 6689POPC   C1B31063  37.680  29.713   8.550
 6689POPC   C2B31064  37.666  29.625   8.250
 6689POPC   C3B31065  37.726  29.664   7.950
 6689POPC   C4B31066  37.669  29.700   7.650
 6690POPC   NC331067   0.465  28.359   9.450
 6690POPC   PO431068   0.477  28.360   9.150
 6690POPC   GL131069   0.480  28.375   8.850
 6690POPC   GL231070   0.450  28.454   8.850
 6690POPC   C1A31071   0.451  28.362   8.550
 6690POPC   D2A31072   0.407  28.419   8.250
 6690POPC   C3A31073   0.465  28.412   7.950
 6690POPC   C4A31074   0.471  28.415   7.650
 6690POPC   C1B31075   0.385  28.583   8.550
 6690POPC   C2B31076   0.372  28.607   8.250
 6690POPC   C3B31077   0.459  28.663   7.950
 6690POPC   C4B31078   0.390  28.639   7.650
 6691POPC   NC331079  20.628  35.342   9.450
 6691POPC   PO431080  20.563  35.330   9.150
 6691POPC   GL131081  20.579  35.389   8.850
 6691POPC   GL231082  20.690  35.387   8.850
 6691POPC   C1A31083  20.606  35.324   8.550
 6691POPC   D2A31084  20.636  35.328   8.250
 6691POPC   C3A31085  20.577  35.314   7.950
 6691POPC   C4A31086  20.569  35.305   7.650
 6691POPC   C1B31087  20.808  35.480   8.550
 6691POPC   C2B31088  20.770  35.506   8.250
 6691POPC   C3B31089  20.794  35.509   7.950
 6691POPC   C4B31090  20.818  35.551   7.650
 6692POPC   NC331091  11.309  41.577   9.450
 6692POPC   PO431092  11.275  41.591   9.150
 6692POPC   GL131093  11.280  41.534   8.850
 6692POPC   GL231094  11.136  41.525   8.850
 6692POPC   C1A31095  11.267  41.544   8.550
 6692POPC   D2A31096  11.342  41.528   8.250
 6692POPC   C3A31097  11.255  41.569   7.950
 6692POPC   C4A31098  11.333  41.544   7.650
 6692POPC   C1B31099  11.071  41.549   8.550
 6692POPC   C2B31100  11.060  41.486   8.250
 6692POPC   C3B31101  11.073  41.526   7.950
 6692POPC   C4B31102  11.050  41.537   7.650
 6693POPC   NC331103  39.257  21.403   9.450
 6693POPC   PO431104  39.187  21.353   9.150
 6693POPC   GL131105  39.247  21.363   8.850
 6693POPC   GL231106  39.143  21.530   8.850
 6693POPC   C1A31107  39.259  21.354   8.550
 6693POPC   D2A31108  39.218  21.421   8.250
 6693POPC   C3A31109  39.243  21.421   7.950
 6693POPC   C4A31110  39.272  21.431   7.650
 6693POPC   C1B31111  39.160  21.564   8.550
 6693POPC   C2B31112  39.084  21.640   8.250
 6693POPC   C3B31113  39.080  21.598   7.950
 6693POPC   C4B31114  39.153  21.598   7.650
 6694POPC   NC331115  10.556  44.625   9.450
 6694POPC   PO431116  10.513  44.668   9.150
 6694POPC   GL131117  10.484  44.665   8.850
 6694POPC   GL231118  10.649  44.641   8.850
 6694POPC   C1A31119  10.567  44.642   8.550
 6694POPC   D2A31120  10.503  44.697   8.250
 6694POPC   C3A31121  10.523  44.711   7.950
 6694POPC   C4A31122  10.541  44.682   7.650
 6694POPC   C1B31123  10.751  44.675   8.550
 6694POPC   C2B31124  10.809  44.631   8.250
 6694POPC   C3B31125  10.737  44.597   7.950
 6694POPC   C4B31126  10.741  44.657   7.650
 6695POPC   NC331127   8.999   8.927   9.450
 6695POPC   PO431128   8.950   9.022   9.150
 6695POPC   GL131129   8.996   8.958   8.850
 6695POPC   GL231130   8.845   9.004   8.850
 6695POPC   C1A31131   8.969   8.942   8.550
 6695POPC   D2A31132   9.003   8.933   8.250
 6695POPC   C3A31133   8.976   9.020   7.950
 6695POPC   C4A31134   8.960   9.005   7.650
 6695POPC   C1B31135   8.780   9.009   8.550
 6695POPC   C2B31136   8.731   9.056   8.250
 6695POPC   C3B31137   8.781   9.063   7.950
 6695POPC   C4B31138   8.781   9.004   7.650
 6696POPC   NC331139   7.377   1.227   9.450
 6696POPC   PO431140   7.420   1.174   9.150
 6696POPC   GL131141   7.451   1.259   8.850
 6696POPC   GL231142   7.357   1.180   8.850
 6696POPC   C1A31143   7.455   1.239   8.550
 6696POPC   D2A31144   7.379   1.264   8.250
 6696POPC   C3A31145   7.458   1.198   7.950
 6696POPC   C4A31146   7.440   1.211   7.650
 6696POPC   C1B31147   7.207   1.081   8.550
 6696POPC   C2B31148   7.198   1.091   8.250
 6696POPC   C3B31149   7.263   1.026   7.950
 6696POPC   C4B31150   7.191   1.118   7.650
 6697POPC   NC331151  33.812  32.236   9.450
 6697POPC   PO431152  33.838  32.261   9.150
 6697POPC   GL131153  33.842  32.206   8.850
 6697POPC   GL231154  33.888  32.216   8.850
 6697POPC   C1A31155  33.833  32.240   8.550
 6697POPC   D2A31156  33.804  32.221   8.250
 6697POPC   C3A31157  33.816  32.227   7.950
 6697POPC   C4A31158  33.756  32.292   7.650
 6697POPC   C1B31159  34.051  32.164   8.550
 6697POPC   C2B31160  34.034  32.170   8.250
 6697POPC   C3B31161  34.077  32.178   7.950
 6697POPC   C4B31162  34.076  32.128   7.650
 6698POPC   NC331163  15.222  19.822   9.450
 6698POPC   PO431164  15.149  19.842   9.150
 6698POPC   GL131165  15.163  19.823   8.850
 6698POPC   GL231166  15.057  19.894   8.850
 6698POPC   C1A31167  15.213  19.846   8.550
 6698POPC   D2A31168  15.170  19.796   8.250
 6698POPC   C3A31169  15.216  19.815   7.950
 6698POPC   C4A31170  15.183  19.878   7.650
 6698POPC   C1B31171  14.977  19.904   8.550
 6698POPC   C2B31172  14.961  19.906   8.250
 6698POPC   C3B31173  14.969  19.884   7.950
 6698POPC   C4B31174  14.969  19.912   7.650
 6699POPC   NC331175  32.287  39.275   9.450
 6699POPC   PO431176  32.227  39.274   9.150
 6699POPC   GL131177  32.270  39.208   8.850
 6699POPC   GL231178  32.211  39.080   8.850
 6699POPC   C1A31179  32.243  39.247   8.550
 6699POPC   D2A31180  32.268  39.186   8.250
 6699POPC   C3A31181  32.265  39.199   7.950
 6699POPC   C4A31182  32.264  39.278   7.650
 6699POPC   C1B31183  32.133  39.022   8.550
 6699POPC   C2B31184  32.124  38.993   8.250
 6699POPC   C3B31185  32.115  38.964   7.950
 6699POPC   C4B31186  32.140  38.957   7.650
 6700POPC   NC331187   1.248   2.768   9.450
 6700POPC   PO431188   1.169   2.754   9.150
 6700POPC   GL131189   1.165   2.814   8.850
 6700POPC   GL231190   1.266   2.893   8.850
 6700POPC   C1A31191   1.221   2.778   8.550
 6700POPC   D2A31192   1.190   2.794   8.250
 6700POPC   C3A31193   1.250   2.748   7.950
 6700POPC   C4A31194   1.166   2.792   7.650
 6700POPC   C1B31195   1.423   2.888   8.550
 6700POPC   C2B31196   1.380   2.932   8.250
 6700POPC   C3B31197   1.429   2.918   7.950
 6700POPC   C4B31198   1.455   2.914   7.650
 6701POPC   NC331199  25.294  12.804   9.450
 6701POPC   PO431200  25.239  12.847   9.150
 6701POPC   GL131201  25.258  12.893   8.850
 6701POPC   GL231202  25.206  12.781   8.850
 6701POPC   C1A31203  25.238  12.825   8.550
 6701POPC   D2A31204  25.257  12.849   8.250
 6701POPC   C3A31205  25.294  12.872   7.950
 6701POPC   C4A31206  25.272  12.835   7.650
 6701POPC   C1B31207  25.089  12.671   8.550
 6701POPC   C2B31208  25.087  12.679   8.250
 6701POPC   C3B31209  25.096  12.736   7.950
 6701POPC   C4B31210  25.101  12.677   7.650
 6702POPC   NC331211   9.745  42.343   9.450
 6702POPC   PO431212   9.717  42.357   9.150
 6702POPC   GL131213   9.736  42.379   8.850
 6702POPC   GL231214   9.734  42.172   8.850
 6702POPC   C1A31215   9.765  42.371   8.550
 6702POPC   D2A31216   9.738  42.324   8.250
 6702POPC   C3A31217   9.787  42.361   7.950
 6702POPC   C4A31218   9.726  42.383   7.650
 6702POPC   C1B31219   9.851  42.122   8.550
 6702POPC   C2B31220   9.838  42.114   8.250
 6702POPC   C3B31221   9.774  42.075   7.950
 6702POPC   C4B31222   9.758  42.116   7.650
 6703POPC   NC331223   9.791  36.119   9.450
 6703POPC   PO431224   9.722  36.165   9.150
 6703POPC   GL131225   9.754  36.085   8.850
 6703POPC   GL231226   9.686  36.059   8.850
 6703POPC   C1A31227   9.716  36.109   8.550
 6703POPC   D2A31228   9.743  36.121   8.250
 6703POPC   C3A31229   9.728  36.084   7.950
 6703POPC   C4A31230   9.730  36.141   7.650
 6703POPC   C1B31231   9.524  35.916   8.550
 6703POPC   C2B31232   9.555  35.986   8.250
 6703POPC   C3B31233   9.516  36.004   7.950
 6703POPC   C4B31234   9.533  35.931   7.650
 6704POPC   NC331235  42.347   7.378   9.450
 6704POPC   PO431236  42.350   7.401   9.150
 6704POPC   GL131237  42.311   7.455   8.850
 6704POPC   GL231238  42.319   7.309   8.850
 6704POPC   C1A31239  42.377   7.418   8.550
 6704POPC   D2A31240  42.295   7.389   8.250
 6704POPC   C3A31241  42.354   7.455   7.950
 6704POPC   C4A31242  42.300   7.402   7.650
 6704POPC   C1B31243  42.198   7.175   8.550
 6704POPC   C2B31244  42.206   7.210   8.250
 6704POPC   C3B31245  42.202   7.228   7.950
 6704POPC   C4B31246  42.269   7.162   7.650
 6705POPC   NC331247  12.828  43.120   9.450
 6705POPC   PO431248  12.891  43.143   9.150
 6705POPC   GL131249  12.813  43.107   8.850
 6705POPC   GL231250  12.696  43.080   8.850
 6705POPC   C1A31251  12.838  43.093   8.550
 6705POPC   D2A31252  12.896  43.064   8.250
 6705POPC   C3A31253  12.823  43.083   7.950
 6705POPC   C4A31254  12.856  43.105   7.650
 6705POPC   C1B31255  12.615  43.053   8.550
 6705POPC   C2B31256  12.589  42.996   8.250
 6705POPC   C3B31257  12.595  42.984   7.950
 6705POPC   C4B31258  12.641  42.982   7.650
 6706POPC   NC331259  21.429  15.926   9.450
 6706POPC   PO431260  21.361  15.929   9.150
 6706POPC   GL131261  21.416  15.922   8.850
 6706POPC   GL231262  21.468  16.008   8.850
 6706POPC   C1A31263  21.376  15.944   8.550
 6706POPC   D2A31264  21.413  15.982   8.250
 6706POPC   C3A31265  21.349  15.938   7.950
 6706POPC   C4A31266  21.399  15.972   7.650
 6706POPC   C1B31267  21.613  16.074   8.550
 6706POPC   C2B31268  21.617  16.089   8.250
 6706POPC   C3B31269  21.554  16.069   7.950
 6706POPC   C4B31270  21.611  16.077   7.650
 6707POPC   NC331271  40.813  10.570   9.450
 6707POPC   PO431272  40.736  10.495   9.150
 6707POPC   GL131273  40.812  10.537   8.850
 6707POPC   GL231274  40.624  10.518   8.850
 6707POPC   C1A31275  40.744  10.506   8.550
 6707POPC   D2A31276  40.807  10.479   8.250
 6707POPC   C3A31277  40.829  10.554   7.950
 6707POPC   C4A31278  40.826  10.563   7.650
 6707POPC   C1B31279  40.541  10.492   8.550
 6707POPC   C2B31280  40.508  10.502   8.250
 6707POPC   C3B31281  40.488  10.536   7.950
 6707POPC   C4B31282  40.506  10.470   7.650
 6708POPC   NC331283  22.972   6.643   9.450
 6708POPC   PO431284  22.942   6.601   9.150
 6708POPC   GL131285  22.952   6.628   8.850
 6708POPC   GL231286  22.983   6.519   8.850
 6708POPC   C1A31287  22.926   6.679   8.550
 6708POPC   D2A31288  22.912   6.609   8.250
 6708POPC   C3A31289  22.923   6.665   7.950
 6708POPC   C4A31290  22.906   6.680   7.650
 6708POPC   C1B31291  23.127   6.470   8.550
 6708POPC   C2B31292  23.113   6.411   8.250
 6708POPC   C3B31293  23.118   6.451   7.950
 6708POPC   C4B31294  23.080   6.414   7.650
 6709POPC   NC331295  41.525  12.066   9.450
 6709POPC   PO431296  41.595  12.126   9.150
 6709POPC   GL131297  41.571  12.093   8.850
 6709POPC   GL231298  41.519  12.159   8.850
 6709POPC   C1A31299  41.537  12.119   8.550
 6709POPC   D2A31300  41.519  12.044   8.250
 6709POPC   C3A31301  41.573  12.076   7.950
 6709POPC   C4A31302  41.557  12.099   7.650
 6709POPC   C1B31303  41.462  12.274   8.550
 6709POPC   C2B31304  41.399  12.333   8.250
 6709POPC   C3B31305  41.463  12.253   7.950
 6709POPC   C4B31306  41.413  12.270   7.650
 6710POPC   NC331307  26.773   8.222   9.450
 6710POPC   PO431308  26.802   8.219   9.150
 6710POPC   GL131309  26.859   8.203   8.850
 6710POPC   GL231310  26.828   8.280   8.850
 6710POPC   C1A31311  26.864   8.195   8.550
 6710POPC   D2A31312  26.820   8.164   8.250
 6710POPC   C3A31313  26.771   8.203   7.950
 6710POPC   C4A31314  26.828   8.223   7.650
 6710POPC   C1B31315  26.746   8.457   8.550
 6710POPC   C2B31316  26.781   8.436   8.250
 6710POPC   C3B31317  26.779   8.412   7.950
 6710POPC   C4B31318  26.766   8.460   7.650
 6711POPC   NC331319  29.165  12.099   9.450
 6711POPC   PO431320  29.110  12.074   9.150
 6711POPC   GL131321  29.165  12.125   8.850
 6711POPC   GL231322  29.010  11.992   8.850
 6711POPC   C1A31323  29.105  12.116   8.550
 6711POPC   D2A31324  29.145  12.119   8.250
 6711POPC   C3A31325  29.189  12.037   7.950
 6711POPC   C4A31326  29.134  12.097   7.650
 6711POPC   C1B31327  29.000  11.911   8.550
 6711POPC   C2B31328  28.969  11.855   8.250
 6711POPC   C3B31329  28.923  11.885   7.950
 6711POPC   C4B31330  28.987  11.876   7.650
 6712POPC   NC331331  39.986  20.585   9.450
 6712POPC   PO431332  40.023  20.647   9.150
 6712POPC   GL131333  40.051  20.660   8.850
 6712POPC   GL231334  39.904  20.544   8.850
 6712POPC   C1A31335  39.966  20.657   8.550
 6712POPC   D2A31336  40.038  20.610   8.250
 6712POPC   C3A31337  40.036  20.606   7.950
 6712POPC   C4A31338  39.982  20.657   7.650
 6712POPC   C1B31339  39.793  20.555   8.550
 6712POPC   C2B31340  39.726  20.578   8.250
 6712POPC   C3B31341  39.742  20.521   7.950
 6712POPC   C4B31342  39.751  20.505   7.650
 6713POPC   NC331343  11.341  21.398   9.450
 6713POPC   PO431344  11.313  21.420   9.150
 6713POPC   GL131345  11.253  21.423   8.850
 6713POPC   GL231346  11.263  21.551   8.850
 6713POPC   C1A31347  11.290  21.374   8.550
 6713POPC   D2A31348  11.346  21.388   8.250
 6713POPC   C3A31349  11.288  21.396   7.950
 6713POPC   C4A31350  11.334  21.369   7.650
 6713POPC   C1B31351  11.186  21.652   8.550
 6713POPC   C2B31352  11.251  21.646   8.250
 6713POPC   C3B31353  11.250  21.635   7.950
 6713POPC   C4B31354  11.217  21.587   7.650
 6714POPC   NC331355   5.085  24.449   9.450
 6714POPC   PO431356   5.095  24.520   9.150
 6714POPC   GL131357   5.073  24.522   8.850
 6714POPC   GL231358   5.139  24.568   8.850
 6714POPC   C1A31359   5.049  24.487   8.550
 6714POPC   D2A31360   5.080  24.503   8.250
 6714POPC   C3A31361   5.054  24.526   7.950
 6714POPC   C4A31362   5.118  24.521   7.650
 6714POPC   C1B31363   5.115  24.730   8.550
 6714POPC   C2B31364   5.166  24.751   8.250
 6714POPC   C3B31365   5.171  24.750   7.950
 6714POPC   C4B31366   5.144  24.691   7.650
 6715POPC   NC331367  12.114  26.035   9.450
 6715POPC   PO431368  12.088  26.001   9.150
 6715POPC   GL131369  12.114  26.007   8.850
 6715POPC   GL231370  12.237  25.984   8.850
 6715POPC   C1A31371  12.107  26.064   8.550
 6715POPC   D2A31372  12.120  26.011   8.250
 6715POPC   C3A31373  12.084  26.010   7.950
 6715POPC   C4A31374  12.091  26.047   7.650
 6715POPC   C1B31375  12.292  25.942   8.550
 6715POPC   C2B31376  12.331  25.965   8.250
 6715POPC   C3B31377  12.338  25.954   7.950
 6715POPC   C4B31378  12.268  25.886   7.650
 6716POPC   NC331379  40.017  11.307   9.450
 6716POPC   PO431380  39.982  11.335   9.150
 6716POPC   GL131381  40.053  11.288   8.850
 6716POPC   GL231382  39.948  11.348   8.850
 6716POPC   C1A31383  40.026  11.272   8.550
 6716POPC   D2A31384  39.994  11.335   8.250
 6716POPC   C3A31385  40.008  11.311   7.950
 6716POPC   C4A31386  40.035  11.295   7.650
 6716POPC   C1B31387  39.860  11.477   8.550
 6716POPC   C2B31388  39.835  11.499   8.250
 6716POPC   C3B31389  39.813  11.482   7.950
 6716POPC   C4B31390  39.776  11.483   7.650
 6717POPC   NC331391  40.768   0.414   9.450
 6717POPC   PO431392  40.736   0.454   9.150
 6717POPC   GL131393  40.817   0.450   8.850
 6717POPC   GL231394  40.775   0.572   8.850
 6717POPC   C1A31395  40.735   0.415   8.550
 6717POPC   D2A31396  40.803   0.400   8.250
 6717POPC   C3A31397  40.745   0.389   7.950
 6717POPC   C4A31398  40.802   0.418   7.650
 6717POPC   C1B31399  40.722   0.722   8.550
 6717POPC   C2B31400  40.772   0.645   8.250
 6717POPC   C3B31401  40.801   0.687   7.950
 6717POPC   C4B31402  40.761   0.705   7.650
 6718POPC   NC331403  10.560   7.428   9.450
 6718POPC   PO431404  10.476   7.378   9.150
 6718POPC   GL131405  10.558   7.431   8.850
 6718POPC   GL231406  10.532   7.506   8.850
 6718POPC   C1A31407  10.525   7.421   8.550
 6718POPC   D2A31408  10.506   7.448   8.250
 6718POPC   C3A31409  10.538   7.403   7.950
 6718POPC   C4A31410  10.563   7.373   7.650
 6718POPC   C1B31411  10.447   7.631   8.550
 6718POPC   C2B31412  10.493   7.617   8.250
 6718POPC   C3B31413  10.515   7.630   7.950
 6718POPC   C4B31414  10.481   7.644   7.650
 6719POPC   NC331415  25.255   4.296   9.450
 6719POPC   PO431416  25.259   4.341   9.150
 6719POPC   GL131417  25.225   4.310   8.850
 6719POPC   GL231418  25.376   4.357   8.850
 6719POPC   C1A31419  25.230   4.358   8.550
 6719POPC   D2A31420  25.247   4.289   8.250
 6719POPC   C3A31421  25.260   4.282   7.950
 6719POPC   C4A31422  25.239   4.330   7.650
 6719POPC   C1B31423  25.472   4.301   8.550
 6719POPC   C2B31424  25.534   4.361   8.250
 6719POPC   C3B31425  25.559   4.337   7.950
 6719POPC   C4B31426  25.536   4.334   7.650
 6720POPC   NC331427  38.483  43.900   9.450
 6720POPC   PO431428  38.446  43.908   9.150
 6720POPC   GL131429  38.493  43.867   8.850
 6720POPC   GL231430  38.320  43.793   8.850
 6720POPC   C1A31431  38.479  43.887   8.550
 6720POPC   D2A31432  38.474  43.836   8.250
 6720POPC   C3A31433  38.485  43.884   7.950
 6720POPC   C4A31434  38.406  43.879   7.650
 6720POPC   C1B31435  38.205  43.726   8.550
 6720POPC   C2B31436  38.271  43.810   8.250
 6720POPC   C3B31437  38.246  43.754   7.950
 6720POPC   C4B31438  38.196  43.749   7.650
 6721POPC   NC331439  44.648  22.144   9.450
 6721POPC   PO431440  44.648  22.210   9.150
 6721POPC   GL131441  44.634  22.164   8.850
 6721POPC   GL231442  44.635  22.084   8.850
 6721POPC   C1A31443  44.621  22.120   8.550
 6721POPC   D2A31444  44.631  22.194   8.250
 6721POPC   C3A31445  44.683  22.119   7.950
 6721POPC   C4A31446  44.670  22.140   7.650
 6721POPC   C1B31447  44.489  21.983   8.550
 6721POPC   C2B31448  44.546  22.008   8.250
 6721POPC   C3B31449  44.473  21.928   7.950
 6721POPC   C4B31450  44.526  21.929   7.650
 6722POPC   NC331451   9.790  40.019   9.450
 6722POPC   PO431452   9.738  40.008   9.150
 6722POPC   GL131453   9.702  39.981   8.850
 6722POPC   GL231454   9.626  40.111   8.850
 6722POPC   C1A31455   9.718  40.000   8.550
 6722POPC   D2A31456   9.742  39.962   8.250
 6722POPC   C3A31457   9.791  39.970   7.950
 6722POPC   C4A31458   9.708  39.995   7.650
 6722POPC   C1B31459   9.549  40.138   8.550
 6722POPC   C2B31460   9.494  40.170   8.250
 6722POPC   C3B31461   9.498  40.101   7.950
 6722POPC   C4B31462   9.480  40.144   7.650
 6723POPC   NC331463  23.694  23.715   9.450
 6723POPC   PO431464  23.674  23.734   9.150
 6723POPC   GL131465  23.669  23.699   8.850
 6723POPC   GL231466  23.801  23.711   8.850
 6723POPC   C1A31467  23.754  23.757   8.550
 6723POPC   D2A31468  23.686  23.678   8.250
 6723POPC   C3A31469  23.746  23.753   7.950
 6723POPC   C4A31470  23.693  23.727   7.650
 6723POPC   C1B31471  23.923  23.604   8.550
 6723POPC   C2B31472  23.950  23.676   8.250
 6723POPC   C3B31473  23.938  23.688   7.950
 6723POPC   C4B31474  24.002  23.667   7.650
 6724POPC   NC331475  40.755  23.740   9.450
 6724POPC   PO431476  40.743  23.685   9.150
 6724POPC   GL131477  40.828  23.698   8.850
 6724POPC   GL231478  40.914  23.704   8.850
 6724POPC   C1A31479  40.751  23.719   8.550
 6724POPC   D2A31480  40.734  23.754   8.250
 6724POPC   C3A31481  40.820  23.690   7.950
 6724POPC   C4A31482  40.733  23.706   7.650
 6724POPC   C1B31483  41.040  23.715   8.550
 6724POPC   C2B31484  41.051  23.725   8.250
 6724POPC   C3B31485  41.077  23.707   7.950
 6724POPC   C4B31486  40.992  23.715   7.650
 6725POPC   NC331487  17.513  12.893   9.450
 6725POPC   PO431488  17.512  12.868   9.150
 6725POPC   GL131489  17.521  12.815   8.850
 6725POPC   GL231490  17.495  12.949   8.850
 6725POPC   C1A31491  17.506  12.808   8.550
 6725POPC   D2A31492  17.471  12.806   8.250
 6725POPC   C3A31493  17.461  12.867   7.950
 6725POPC   C4A31494  17.490  12.817   7.650
 6725POPC   C1B31495  17.390  13.084   8.550
 6725POPC   C2B31496  17.368  13.095   8.250
 6725POPC   C3B31497  17.341  13.067   7.950
 6725POPC   C4B31498  17.407  13.078   7.650
 6726POPC   NC331499  21.396  10.526   9.450
 6726POPC   PO431500  21.391  10.478   9.150
 6726POPC   GL131501  21.356  10.553   8.850
 6726POPC   GL231502  21.298  10.448   8.850
 6726POPC   C1A31503  21.352  10.555   8.550
 6726POPC   D2A31504  21.337  10.558   8.250
 6726POPC   C3A31505  21.338  10.545   7.950
 6726POPC   C4A31506  21.347  10.513   7.650
 6726POPC   C1B31507  21.134  10.458   8.550
 6726POPC   C2B31508  21.150  10.382   8.250
 6726POPC   C3B31509  21.136  10.390   7.950
 6726POPC   C4B31510  21.202  10.371   7.650
 6727POPC   NC331511  42.287  40.012   9.450
 6727POPC   PO431512  42.311  39.982   9.150
 6727POPC   GL131513  42.369  39.967   8.850
 6727POPC   GL231514  42.286  39.841   8.850
 6727POPC   C1A31515  42.382  40.014   8.550
 6727POPC   D2A31516  42.302  40.015   8.250
 6727POPC   C3A31517  42.333  40.001   7.950
 6727POPC   C4A31518  42.367  40.013   7.650
 6727POPC   C1B31519  42.366  39.739   8.550
 6727POPC   C2B31520  42.367  39.787   8.250
 6727POPC   C3B31521  42.317  39.739   7.950
 6727POPC   C4B31522  42.313  39.804   7.650
 6728POPC   NC331523   6.675  31.453   9.450
 6728POPC   PO431524   6.671  31.468   9.150
 6728POPC   GL131525   6.620  31.520   8.850
 6728POPC   GL231526   6.736  31.410   8.850
 6728POPC   C1A31527   6.685  31.451   8.550
 6728POPC   D2A31528   6.668  31.442   8.250
 6728POPC   C3A31529   6.658  31.477   7.950
 6728POPC   C4A31530   6.670  31.512   7.650
 6728POPC   C1B31531   6.879  31.300   8.550
 6728POPC   C2B31532   6.843  31.334   8.250
 6728POPC   C3B31533   6.815  31.328   7.950
 6728POPC   C4B31534   6.825  31.332   7.650
 6729POPC   NC331535  34.541   4.287   9.450
 6729POPC   PO431536  34.541   4.337   9.150
 6729POPC   GL131537  34.552   4.296   8.850
 6729POPC   GL231538  34.512   4.234   8.850
 6729POPC   C1A31539  34.582   4.290   8.550
 6729POPC   D2A31540  34.591   4.326   8.250
 6729POPC   C3A31541  34.601   4.332   7.950
 6729POPC   C4A31542  34.568   4.336   7.650
 6729POPC   C1B31543  34.326   4.137   8.550
 6729POPC   C2B31544  34.339   4.212   8.250
 6729POPC   C3B31545  34.364   4.217   7.950
 6729POPC   C4B31546  34.354   4.207   7.650
 6730POPC   NC331547  23.758  32.248   9.450
 6730POPC   PO431548  23.728  32.201   9.150
 6730POPC   GL131549  23.672  32.236   8.850
 6730POPC   GL231550  23.581  32.299   8.850
 6730POPC   C1A31551  23.751  32.255   8.550
 6730POPC   D2A31552  23.734  32.247   8.250
 6730POPC   C3A31553  23.727  32.282   7.950
 6730POPC   C4A31554  23.688  32.240   7.650
 6730POPC   C1B31555  23.525  32.467   8.550
 6730POPC   C2B31556  23.498  32.467   8.250
 6730POPC   C3B31557  23.573  32.405   7.950
 6730POPC   C4B31558  23.490  32.447   7.650
 6731POPC   NC331559  42.376  43.148   9.450
 6731POPC   PO431560  42.332  43.093   9.150
 6731POPC   GL131561  42.341  43.091   8.850
 6731POPC   GL231562  42.235  42.964   8.850
 6731POPC   C1A31563  42.350  43.146   8.550
 6731POPC   D2A31564  42.302  43.106   8.250
 6731POPC   C3A31565  42.285  43.065   7.950
 6731POPC   C4A31566  42.367  43.063   7.650
 6731POPC   C1B31567  42.234  42.935   8.550
 6731POPC   C2B31568  42.227  42.848   8.250
 6731POPC   C3B31569  42.226  42.849   7.950
 6731POPC   C4B31570  42.225  42.895   7.650
 6732POPC   NC331571  21.379  26.818   9.450
 6732POPC   PO431572  21.356  26.850   9.150
 6732POPC   GL131573  21.377  26.822   8.850
 6732POPC   GL231574  21.503  26.746   8.850
 6732POPC   C1A31575  21.413  26.834   8.550
 6732POPC   D2A31576  21.418  26.822   8.250
 6732POPC   C3A31577  21.357  26.836   7.950
 6732POPC   C4A31578  21.366  26.778   7.650
 6732POPC   C1B31579  21.617  26.749   8.550
 6732POPC   C2B31580  21.664  26.742   8.250
 6732POPC   C3B31581  21.644  26.706   7.950
 6732POPC   C4B31582  21.589  26.765   7.650
 6733POPC   NC331583  31.428  34.569   9.450
 6733POPC   PO431584  31.475  34.584   9.150
 6733POPC   GL131585  31.494  34.600   8.850
 6733POPC   GL231586  31.352  34.669   8.850
 6733POPC   C1A31587  31.466  34.560   8.550
 6733POPC   D2A31588  31.483  34.563   8.250
 6733POPC   C3A31589  31.453  34.620   7.950
 6733POPC   C4A31590  31.437  34.547   7.650
 6733POPC   C1B31591  31.210  34.706   8.550
 6733POPC   C2B31592  31.221  34.667   8.250
 6733POPC   C3B31593  31.242  34.698   7.950
 6733POPC   C4B31594  31.263  34.679   7.650
 6734POPC   NC331595  26.830  43.127   9.450
 6734POPC   PO431596  26.777  43.101   9.150
 6734POPC   GL131597  26.810  43.137   8.850
 6734POPC   GL231598  26.890  43.178   8.850
 6734POPC   C1A31599  26.838  43.080   8.550
 6734POPC   D2A31600  26.857  43.108   8.250
 6734POPC   C3A31601  26.849  43.063   7.950
 6734POPC   C4A31602  26.850  43.107   7.650
 6734POPC   C1B31603  26.945  43.287   8.550
 6734POPC   C2B31604  26.994  43.274   8.250
 6734POPC   C3B31605  26.931  43.338   7.950
 6734POPC   C4B31606  26.924  43.319   7.650
 6735POPC   NC331607  22.159  14.392   9.450
 6735POPC   PO431608  22.161  14.453   9.150
 6735POPC   GL131609  22.170  14.378   8.850
 6735POPC   GL231610  22.027  14.432   8.850
 6735POPC   C1A31611  22.197  14.435   8.550
 6735POPC   D2A31612  22.131  14.440   8.250
 6735POPC   C3A31613  22.171  14.391   7.950
 6735POPC   C4A31614  22.179  14.386   7.650
 6735POPC   C1B31615  21.936  14.471   8.550
 6735POPC   C2B31616  21.956  14.402   8.250
 6735POPC   C3B31617  21.953  14.472   7.950
 6735POPC   C4B31618  21.933  14.405   7.650
 6736POPC   NC331619  32.200  21.421   9.450
 6736POPC   PO431620  32.295  21.337   9.150
 6736POPC   GL131621  32.293  21.398   8.850
 6736POPC   GL231622  32.281  21.222   8.850
 6736POPC   C1A31623  32.274  21.394   8.550
 6736POPC   D2A31624  32.261  21.395   8.250
 6736POPC   C3A31625  32.208  21.366   7.950
 6736POPC   C4A31626  32.252  21.424   7.650
 6736POPC   C1B31627  32.247  21.147   8.550
 6736POPC   C2B31628  32.222  21.094   8.250
 6736POPC   C3B31629  32.276  21.105   7.950
 6736POPC   C4B31630  32.283  21.155   7.650
 6737POPC   NC331631   8.223   5.045   9.450
 6737POPC   PO431632   8.219   5.065   9.150
 6737POPC   GL131633   8.195   5.093   8.850
 6737POPC   GL231634   8.125   5.191   8.850
 6737POPC   C1A31635   8.226   5.057   8.550
 6737POPC   D2A31636   8.161   5.046   8.250
 6737POPC   C3A31637   8.184   5.058   7.950
 6737POPC   C4A31638   8.186   5.068   7.650
 6737POPC   C1B31639   8.144   5.324   8.550
 6737POPC   C2B31640   8.056   5.312   8.250
 6737POPC   C3B31641   8.063   5.304   7.950
 6737POPC   C4B31642   8.084   5.274   7.650
 6738POPC   NC331643  24.495  13.664   9.450
 6738POPC   PO431644  24.521  13.643   9.150
 6738POPC   GL131645  24.453  13.589   8.850
 6738POPC   GL231646  24.477  13.537   8.850
 6738POPC   C1A31647  24.479  13.670   8.550
 6738POPC   D2A31648  24.454  13.586   8.250
 6738POPC   C3A31649  24.504  13.606   7.950
 6738POPC   C4A31650  24.476  13.665   7.650
 6738POPC   C1B31651  24.330  13.361   8.550
 6738POPC   C2B31652  24.408  13.421   8.250
 6738POPC   C3B31653  24.393  13.429   7.950
 6738POPC   C4B31654  24.350  13.400   7.650
 6739POPC   NC331655  24.446  16.696   9.450
 6739POPC   PO431656  24.526  16.725   9.150
 6739POPC   GL131657  24.452  16.704   8.850
 6739POPC   GL231658  24.375  16.814   8.850
 6739POPC   C1A31659  24.527  16.731   8.550
 6739POPC   D2A31660  24.519  16.699   8.250
 6739POPC   C3A31661  24.447  16.758   7.950
 6739POPC   C4A31662  24.462  16.773   7.650
 6739POPC   C1B31663  24.343  16.916   8.550
 6739POPC   C2B31664  24.378  16.983   8.250
 6739POPC   C3B31665  24.356  16.942   7.950
 6739POPC   C4B31666  24.323  16.979   7.650
 6740POPC   NC331667  32.280   3.563   9.450
 6740POPC   PO431668  32.249   3.518   9.150
 6740POPC   GL131669  32.243   3.583   8.850
 6740POPC   GL231670  32.125   3.478   8.850
 6740POPC   C1A31671  32.265   3.568   8.550
 6740POPC   D2A31672  32.221   3.535   8.250
 6740POPC   C3A31673  32.222   3.554   7.950
 6740POPC   C4A31674  32.294   3.561   7.650
 6740POPC   C1B31675  32.072   3.304   8.550
 6740POPC   C2B31676  32.061   3.367   8.250
 6740POPC   C3B31677  32.091   3.374   7.950
 6740POPC   C4B31678  32.066   3.368   7.650
 6741POPC   NC331679  37.711  43.072   9.450
 6741POPC   PO431680  37.660  43.116   9.150
 6741POPC   GL131681  37.655  43.158   8.850
 6741POPC   GL231682  37.805  43.172   8.850
 6741POPC   C1A31683  37.694  43.158   8.550
 6741POPC   D2A31684  37.631  43.100   8.250
 6741POPC   C3A31685  37.652  43.130   7.950
 6741POPC   C4A31686  37.717  43.079   7.650
 6741POPC   C1B31687  37.898  43.286   8.550
 6741POPC   C2B31688  37.929  43.266   8.250
 6741POPC   C3B31689  37.933  43.262   7.950
 6741POPC   C4B31690  37.871  43.237   7.650
 6742POPC   NC331691  41.607  36.088   9.450
 6742POPC   PO431692  41.588  36.122   9.150
 6742POPC   GL131693  41.581  36.093   8.850
 6742POPC   GL231694  41.531  36.263   8.850
 6742POPC   C1A31695  41.531  36.141   8.550
 6742POPC   D2A31696  41.533  36.091   8.250
 6742POPC   C3A31697  41.524  36.094   7.950
 6742POPC   C4A31698  41.604  36.085   7.650
 6742POPC   C1B31699  41.451  36.335   8.550
 6742POPC   C2B31700  41.504  36.345   8.250
 6742POPC   C3B31701  41.438  36.398   7.950
 6742POPC   C4B31702  41.446  36.317   7.650
 6743POPC   NC331703  12.112  13.674   9.450
 6743POPC   PO431704  12.077  13.603   9.150
 6743POPC   GL131705  12.077  13.670   8.850
 6743POPC   GL231706  11.979  13.620   8.850
 6743POPC   C1A31707  12.062  13.594   8.550
 6743POPC   D2A31708  12.117  13.608   8.250
 6743POPC   C3A31709  12.111  13.596   7.950
 6743POPC   C4A31710  12.039  13.641   7.650
 6743POPC   C1B31711  11.818  13.489   8.550
 6743POPC   C2B31712  11.852  13.489   8.250
 6743POPC   C3B31713  11.855  13.561   7.950
 6743POPC   C4B31714  11.808  13.552   7.650
 6744POPC   NC331715  37.721  15.161   9.450
 6744POPC   PO431716  37.711  15.195   9.150
 6744POPC   GL131717  37.704  15.132   8.850
 6744POPC   GL231718  37.840  15.090   8.850
 6744POPC   C1A31719  37.685  15.149   8.550
 6744POPC   D2A31720  37.709  15.157   8.250
 6744POPC   C3A31721  37.728  15.174   7.950
 6744POPC   C4A31722  37.710  15.217   7.650
 6744POPC   C1B31723  37.941  15.111   8.550
 6744POPC   C2B31724  37.863  15.038   8.250
 6744POPC   C3B31725  37.917  15.036   7.950
 6744POPC   C4B31726  37.877  15.103   7.650
 6745POPC   NC331727  19.094  19.044   9.450
 6745POPC   PO431728  19.104  19.050   9.150
 6745POPC   GL131729  19.067  19.074   8.850
 6745POPC   GL231730  19.124  19.020   8.850
 6745POPC   C1A31731  19.022  19.074   8.550
 6745POPC   D2A31732  19.102  19.104   8.250
 6745POPC   C3A31733  19.049  19.072   7.950
 6745POPC   C4A31734  19.047  19.103   7.650
 6745POPC   C1B31735  19.208  18.920   8.550
 6745POPC   C2B31736  19.222  18.941   8.250
 6745POPC   C3B31737  19.261  18.894   7.950
 6745POPC   C4B31738  19.259  18.856   7.650
 6746POPC   NC331739  36.089  18.242   9.450
 6746POPC   PO431740  36.162  18.311   9.150
 6746POPC   GL131741  36.110  18.237   8.850
 6746POPC   GL231742  36.153  18.400   8.850
 6746POPC   C1A31743  36.097  18.325   8.550
 6746POPC   D2A31744  36.111  18.248   8.250
 6746POPC   C3A31745  36.139  18.280   7.950
 6746POPC   C4A31746  36.122  18.266   7.650
 6746POPC   C1B31747  36.096  18.553   8.550
 6746POPC   C2B31748  36.062  18.542   8.250
 6746POPC   C3B31749  36.122  18.490   7.950
 6746POPC   C4B31750  36.080  18.566   7.650
 6747POPC   NC331751   7.470  20.601   9.450
 6747POPC   PO431752   7.404  20.653   9.150
 6747POPC   GL131753   7.434  20.630   8.850
 6747POPC   GL231754   7.476  20.757   8.850
 6747POPC   C1A31755   7.457  20.563   8.550
 6747POPC   D2A31756   7.434  20.654   8.250
 6747POPC   C3A31757   7.449  20.657   7.950
 6747POPC   C4A31758   7.451  20.603   7.650
 6747POPC   C1B31759   7.441  20.814   8.550
 6747POPC   C2B31760   7.411  20.844   8.250
 6747POPC   C3B31761   7.500  20.857   7.950
 6747POPC   C4B31762   7.430  20.825   7.650
 6748POPC   NC331763  39.258  26.008   9.450
 6748POPC   PO431764  39.249  26.075   9.150
 6748POPC   GL131765  39.269  26.055   8.850
 6748POPC   GL231766  39.171  25.944   8.850
 6748POPC   C1A31767  39.191  26.037   8.550
 6748POPC   D2A31768  39.255  26.021   8.250
 6748POPC   C3A31769  39.199  26.075   7.950
 6748POPC   C4A31770  39.280  26.043   7.650
 6748POPC   C1B31771  39.126  25.853   8.550
 6748POPC   C2B31772  39.164  25.850   8.250
 6748POPC   C3B31773  39.170  25.827   7.950
 6748POPC   C4B31774  39.150  25.849   7.650
 6749POPC   NC331775  34.620  43.145   9.450
 6749POPC   PO431776  34.582  43.100   9.150
 6749POPC   GL131777  34.614  43.125   8.850
 6749POPC   GL231778  34.577  42.962   8.850
 6749POPC   C1A31779  34.528  43.131   8.550
 6749POPC   D2A31780  34.538  43.063   8.250
 6749POPC   C3A31781  34.563  43.077   7.950
 6749POPC   C4A31782  34.554  43.125   7.650
 6749POPC   C1B31783  34.694  42.902   8.550
 6749POPC   C2B31784  34.632  42.838   8.250
 6749POPC   C3B31785  34.602  42.897   7.950
 6749POPC   C4B31786  34.692  42.852   7.650
 6750POPC   NC331787  37.712  16.774   9.450
 6750POPC   PO431788  37.634  16.766   9.150
 6750POPC   GL131789  37.662  16.694   8.850
 6750POPC   GL231790  37.770  16.786   8.850
 6750POPC   C1A31791  37.642  16.727   8.550
 6750POPC   D2A31792  37.729  16.736   8.250
 6750POPC   C3A31793  37.714  16.700   7.950
 6750POPC   C4A31794  37.682  16.751   7.650
 6750POPC   C1B31795  37.860  16.888   8.550
 6750POPC   C2B31796  37.851  16.885   8.250
 6750POPC   C3B31797  37.935  16.886   7.950
 6750POPC   C4B31798  37.879  16.905   7.650
 6751POPC   NC331799  13.661  37.634   9.450
 6751POPC   PO431800  13.650  37.713   9.150
 6751POPC   GL131801  13.592  37.688   8.850
 6751POPC   GL231802  13.528  37.647   8.850
 6751POPC   C1A31803  13.647  37.631   8.550
 6751POPC   D2A31804  13.644  37.658   8.250
 6751POPC   C3A31805  13.582  37.714   7.950
 6751POPC   C4A31806  13.622  37.719   7.650
 6751POPC   C1B31807  13.435  37.487   8.550
 6751POPC   C2B31808  13.424  37.529   8.250
 6751POPC   C3B31809  13.466  37.515   7.950
 6751POPC   C4B31810  13.403  37.542   7.650
 6752POPC   NC331811  36.886  33.014   9.450
 6752POPC   PO431812  36.951  33.024   9.150
 6752POPC   GL131813  36.915  33.001   8.850
 6752POPC   GL231814  36.883  33.122   8.850
 6752POPC   C1A31815  36.855  33.012   8.550
 6752POPC   D2A31816  36.876  33.032   8.250
 6752POPC   C3A31817  36.912  32.991   7.950
 6752POPC   C4A31818  36.883  33.003   7.650
 6752POPC   C1B31819  36.951  33.298   8.550
 6752POPC   C2B31820  36.920  33.293   8.250
 6752POPC   C3B31821  36.944  33.274   7.950
 6752POPC   C4B31822  36.861  33.298   7.650
 6753POPC   NC331823  42.321   1.206   9.450
 6753POPC   PO431824  42.381   1.242   9.150
 6753POPC   GL131825  42.296   1.180   8.850
 6753POPC   GL231826  42.323   1.323   8.850
 6753POPC   C1A31827  42.306   1.181   8.550
 6753POPC   D2A31828  42.336   1.236   8.250
 6753POPC   C3A31829  42.350   1.239   7.950
 6753POPC   C4A31830  42.374   1.253   7.650
 6753POPC   C1B31831  42.297   1.422   8.550
 6753POPC   C2B31832  42.310   1.453   8.250
 6753POPC   C3B31833  42.291   1.468   7.950
 6753POPC   C4B31834  42.298   1.423   7.650
 6754POPC   NC331835   4.295  12.803   9.450
 6754POPC   PO431836   4.298  12.807   9.150
 6754POPC   GL131837   4.323  12.879   8.850
 6754POPC   GL231838   4.321  12.949   8.850
 6754POPC   C1A31839   4.278  12.829   8.550
 6754POPC   D2A31840   4.350  12.802   8.250
 6754POPC   C3A31841   4.284  12.888   7.950
 6754POPC   C4A31842   4.312  12.851   7.650
 6754POPC   C1B31843   4.356  13.079   8.550
 6754POPC   C2B31844   4.426  13.056   8.250
 6754POPC   C3B31845   4.402  13.087   7.950
 6754POPC   C4B31846   4.405  13.132   7.650
 6755POPC   NC331847  44.634  19.853   9.450
 6755POPC   PO431848  44.679  19.785   9.150
 6755POPC   GL131849  44.649  19.864   8.850
 6755POPC   GL231850  44.729  19.729   8.850
 6755POPC   C1A31851  44.688  19.813   8.550
 6755POPC   D2A31852  44.614  19.817   8.250
 6755POPC   C3A31853  44.647  19.796   7.950
 6755POPC   C4A31854  44.665  19.819   7.650
 6755POPC   C1B31855  44.795  19.607   8.550
 6755POPC   C2B31856  44.813  19.613   8.250
 6755POPC   C3B31857  44.783  19.638   7.950
 6755POPC   C4B31858  44.819  19.569   7.650
 6756POPC   NC331859  22.945  19.090   9.450
 6756POPC   PO431860  22.937  19.032   9.150
 6756POPC   GL131861  22.979  19.086   8.850
 6756POPC   GL231862  23.003  19.002   8.850
 6756POPC   C1A31863  22.909  19.046   8.550
 6756POPC   D2A31864  22.906  19.028   8.250
 6756POPC   C3A31865  22.941  19.030   7.950
 6756POPC   C4A31866  22.964  19.017   7.650
 6756POPC   C1B31867  23.168  18.873   8.550
 6756POPC   C2B31868  23.180  18.877   8.250
 6756POPC   C3B31869  23.162  18.922   7.950
 6756POPC   C4B31870  23.096  18.878   7.650
 6757POPC   NC331871   3.504  15.180   9.450
 6757POPC   PO431872   3.512  15.182   9.150
 6757POPC   GL131873   3.544  15.175   8.850
 6757POPC   GL231874   3.649  15.243   8.850
 6757POPC   C1A31875   3.577  15.180   8.550
 6757POPC   D2A31876   3.587  15.176   8.250
 6757POPC   C3A31877   3.549  15.214   7.950
 6757POPC   C4A31878   3.569  15.130   7.650
 6757POPC   C1B31879   3.754  15.306   8.550
 6757POPC   C2B31880   3.744  15.285   8.250
 6757POPC   C3B31881   3.771  15.264   7.950
 6757POPC   C4B31882   3.757  15.233   7.650
 6758POPC   NC331883  11.294  12.115   9.450
 6758POPC   PO431884  11.348  12.031   9.150
 6758POPC   GL131885  11.257  12.054   8.850
 6758POPC   GL231886  11.444  12.012   8.850
 6758POPC   C1A31887  11.266  12.091   8.550
 6758POPC   D2A31888  11.298  12.073   8.250
 6758POPC   C3A31889  11.304  12.097   7.950
 6758POPC   C4A31890  11.270  12.115   7.650
 6758POPC   C1B31891  11.481  11.946   8.550
 6758POPC   C2B31892  11.543  11.923   8.250
 6758POPC   C3B31893  11.488  11.904   7.950
 6758POPC   C4B31894  11.518  11.988   7.650
 6759POPC   NC331895   5.103  41.597   9.450
 6759POPC   PO431896   5.063  41.553   9.150
 6759POPC   GL131897   5.104  41.568   8.850
 6759POPC   GL231898   5.193  41.578   8.850
 6759POPC   C1A31899   5.053  41.601   8.550
 6759POPC   D2A31900   5.103  41.602   8.250
 6759POPC   C3A31901   5.062  41.544   7.950
 6759POPC   C4A31902   5.127  41.519   7.650
 6759POPC   C1B31903   5.293  41.508   8.550
 6759POPC   C2B31904   5.324  41.512   8.250
 6759POPC   C3B31905   5.349  41.519   7.950
 6759POPC   C4B31906   5.300  41.524   7.650
 6760POPC   NC331907  30.733  26.835   9.450
 6760POPC   PO431908  30.657  26.772   9.150
 6760POPC   GL131909  30.709  26.818   8.850
 6760POPC   GL231910  30.612  26.717   8.850
 6760POPC   C1A31911  30.738  26.858   8.550
 6760POPC   D2A31912  30.674  26.863   8.250
 6760POPC   C3A31913  30.662  26.846   7.950
 6760POPC   C4A31914  30.720  26.826   7.650
 6760POPC   C1B31915  30.532  26.647   8.550
 6760POPC   C2B31916  30.590  26.574   8.250
 6760POPC   C3B31917  30.553  26.636   7.950
 6760POPC   C4B31918  30.532  26.634   7.650
 6761POPC   NC331919  43.157  33.843   9.450
 6761POPC   PO431920  43.087  33.764   9.150
 6761POPC   GL131921  43.123  33.772   8.850
 6761POPC   GL231922  43.050  33.888   8.850
 6761POPC   C1A31923  43.067  33.786   8.550
 6761POPC   D2A31924  43.093  33.755   8.250
 6761POPC   C3A31925  43.121  33.790   7.950
 6761POPC   C4A31926  43.095  33.753   7.650
 6761POPC   C1B31927  42.927  33.967   8.550
 6761POPC   C2B31928  42.889  33.943   8.250
 6761POPC   C3B31929  42.894  33.970   7.950
 6761POPC   C4B31930  42.986  33.946   7.650
 6762POPC   NC331931  24.490  21.362   9.450
 6762POPC   PO431932  24.536  21.358   9.150
 6762POPC   GL131933  24.450  21.430   8.850
 6762POPC   GL231934  24.491  21.295   8.850
 6762POPC   C1A31935  24.521  21.396   8.550
 6762POPC   D2A31936  24.526  21.377   8.250
 6762POPC   C3A31937  24.508  21.356   7.950
 6762POPC   C4A31938  24.441  21.377   7.650
 6762POPC   C1B31939  24.519  21.138   8.550
 6762POPC   C2B31940  24.540  21.117   8.250
 6762POPC   C3B31941  24.521  21.088   7.950
 6762POPC   C4B31942  24.549  21.127   7.650
 6763POPC   NC331943  16.698  41.605   9.450
 6763POPC   PO431944  16.729  41.569   9.150
 6763POPC   GL131945  16.774  41.532   8.850
 6763POPC   GL231946  16.560  41.568   8.850
 6763POPC   C1A31947  16.777  41.546   8.550
 6763POPC   D2A31948  16.744  41.591   8.250
 6763POPC   C3A31949  16.741  41.593   7.950
 6763POPC   C4A31950  16.696  41.570   7.650
 6763POPC   C1B31951  16.437  41.496   8.550
 6763POPC   C2B31952  16.436  41.499   8.250
 6763POPC   C3B31953  16.451  41.508   7.950
 6763POPC   C4B31954  16.476  41.481   7.650
 6764POPC   NC331955   2.798  32.996   9.450
 6764POPC   PO431956   2.719  33.061   9.150
 6764POPC   GL131957   2.739  33.060   8.850
 6764POPC   GL231958   2.891  33.131   8.850
 6764POPC   C1A31959   2.788  32.976   8.550
 6764POPC   D2A31960   2.729  33.005   8.250
 6764POPC   C3A31961   2.716  33.016   7.950
 6764POPC   C4A31962   2.772  32.989   7.650
 6764POPC   C1B31963   2.974  33.203   8.550
 6764POPC   C2B31964   2.935  33.181   8.250
 6764POPC   C3B31965   2.964  33.182   7.950
 6764POPC   C4B31966   2.962  33.220   7.650
 6765POPC   NC331967   5.848  18.330   9.450
 6765POPC   PO431968   5.837  18.240   9.150
 6765POPC   GL131969   5.839  18.270   8.850
 6765POPC   GL231970   5.856  18.123   8.850
 6765POPC   C1A31971   5.821  18.239   8.550
 6765POPC   D2A31972   5.859  18.243   8.250
 6765POPC   C3A31973   5.875  18.264   7.950
 6765POPC   C4A31974   5.837  18.238   7.650
 6765POPC   C1B31975   5.800  18.059   8.550
 6765POPC   C2B31976   5.728  18.005   8.250
 6765POPC   C3B31977   5.726  18.029   7.950
 6765POPC   C4B31978   5.777  18.020   7.650
 6766POPC   NC331979  30.742  14.442   9.450
 6766POPC   PO431980  30.660  14.432   9.150
 6766POPC   GL131981  30.700  14.389   8.850
 6766POPC   GL231982  30.632  14.452   8.850
 6766POPC   C1A31983  30.706  14.432   8.550
 6766POPC   D2A31984  30.741  14.400   8.250
 6766POPC   C3A31985  30.700  14.407   7.950
 6766POPC   C4A31986  30.699  14.399   7.650
 6766POPC   C1B31987  30.465  14.456   8.550
 6766POPC   C2B31988  30.517  14.534   8.250
 6766POPC   C3B31989  30.493  14.478   7.950
 6766POPC   C4B31990  30.478  14.542   7.650
 6767POPC   NC331991  22.908   1.976   9.450
 6767POPC   PO431992  22.890   1.977   9.150
 6767POPC   GL131993  22.954   2.029   8.850
 6767POPC   GL231994  22.854   1.989   8.850
 6767POPC   C1A31995  22.964   2.019   8.550
 6767POPC   D2A31996  22.965   1.941   8.250
 6767POPC   C3A31997  22.949   1.960   7.950
 6767POPC   C4A31998  22.902   2.022   7.650
 6767POPC   C1B31999  22.709   1.926   8.550
 6767POPC   C2B32000  22.676   1.985   8.250
 6767POPC   C3B32001  22.651   1.936   7.950
 6767POPC   C4B32002  22.674   1.925   7.650
 6768POPC   NC332003   2.722  14.438   9.450
 6768POPC   PO432004   2.761  14.422   9.150
 6768POPC   GL132005   2.803  14.416   8.850
 6768POPC   GL232006   2.672  14.471   8.850
 6768POPC   C1A32007   2.723  14.395   8.550
 6768POPC   D2A32008   2.779  14.374   8.250
 6768POPC   C3A32009   2.769  14.412   7.950
 6768POPC   C4A32010   2.751  14.417   7.650
 6768POPC   C1B32011   2.628  14.653   8.550
 6768POPC   C2B32012   2.600  14.588   8.250
 6768POPC   C3B32013   2.617  14.577   7.950
 6768POPC   C4B32014   2.679  14.605   7.650
 6769POPC   NC332015   8.928   6.671   9.450
 6769POPC   PO432016   8.943   6.596   9.150
 6769POPC   GL132017   8.938   6.644   8.850
 6769POPC   GL232018   8.949   6.729   8.850
 6769POPC   C1A32019   8.956   6.675   8.550
 6769POPC   D2A32020   8.935   6.658   8.250
 6769POPC   C3A32021   8.943   6.610   7.950
 6769POPC   C4A32022   8.981   6.683   7.650
 6769POPC   C1B32023   8.808   6.810   8.550
 6769POPC   C2B32024   8.828   6.833   8.250
 6769POPC   C3B32025   8.809   6.887   7.950
 6769POPC   C4B32026   8.839   6.862   7.650
 6770POPC   NC332027  36.865  23.697   9.450
 6770POPC   PO432028  36.915  23.668   9.150
 6770POPC   GL132029  36.911  23.685   8.850
 6770POPC   GL232030  36.991  23.793   8.850
 6770POPC   C1A32031  36.867  23.731   8.550
 6770POPC   D2A32032  36.859  23.754   8.250
 6770POPC   C3A32033  36.861  23.696   7.950
 6770POPC   C4A32034  36.915  23.679   7.650
 6770POPC   C1B32035  37.048  23.950   8.550
 6770POPC   C2B32036  37.062  23.900   8.250
 6770POPC   C3B32037  37.052  23.874   7.950
 6770POPC   C4B32038  37.080  23.934   7.650
 6771POPC   NC332039   1.981  33.042   9.450
 6771POPC   PO432040   2.036  32.981   9.150
 6771POPC   GL132041   2.001  33.033   8.850
 6771POPC   GL232042   2.008  33.156   8.850
 6771POPC   C1A32043   1.945  33.074   8.550
 6771POPC   D2A32044   1.973  33.070   8.250
 6771POPC   C3A32045   1.971  33.065   7.950
 6771POPC   C4A32046   1.952  32.986   7.650
 6771POPC   C1B32047   1.953  33.239   8.550
 6771POPC   C2B32048   1.910  33.242   8.250
 6771POPC   C3B32049   1.954  33.246   7.950
 6771POPC   C4B32050   1.959  33.240   7.650
 6772POPC   NC332051   5.904  39.254   9.450
 6772POPC   PO432052   5.885  39.220   9.150
 6772POPC   GL132053   5.840  39.195   8.850
 6772POPC   GL232054   5.737  39.265   8.850
 6772POPC   C1A32055   5.870  39.253   8.550
 6772POPC   D2A32056   5.853  39.266   8.250
 6772POPC   C3A32057   5.897  39.229   7.950
 6772POPC   C4A32058   5.861  39.276   7.650
 6772POPC   C1B32059   5.660  39.443   8.550
 6772POPC   C2B32060   5.685  39.389   8.250
 6772POPC   C3B32061   5.679  39.436   7.950
 6772POPC   C4B32062   5.721  39.353   7.650
 6773POPC   NC332063  29.155  29.940   9.450
 6773POPC   PO432064  29.192  29.880   9.150
 6773POPC   GL132065  29.157  29.954   8.850
 6773POPC   GL232066  29.130  29.844   8.850
 6773POPC   C1A32067  29.164  29.925   8.550
 6773POPC   D2A32068  29.100  29.881   8.250
 6773POPC   C3A32069  29.166  29.940   7.950
 6773POPC   C4A32070  29.122  29.893   7.650
 6773POPC   C1B32071  29.081  29.692   8.550
 6773POPC   C2B32072  28.996  29.687   8.250
 6773POPC   C3B32073  29.059  29.739   7.950
 6773POPC   C4B32074  29.072  29.656   7.650
 6774POPC   NC332075   1.225  30.713   9.450
 6774POPC   PO432076   1.197  30.728   9.150
 6774POPC   GL132077   1.263  30.647   8.850
 6774POPC   GL232078   1.190  30.845   8.850
 6774POPC   C1A32079   1.167  30.686   8.550
 6774POPC   D2A32080   1.205  30.649   8.250
 6774POPC   C3A32081   1.225  30.654   7.950
 6774POPC   C4A32082   1.194  30.731   7.650
 6774POPC   C1B32083   1.187  30.910   8.550
 6774POPC   C2B32084   1.237  30.990   8.250
 6774POPC   C3B32085   1.188  30.987   7.950
 6774POPC   C4B32086   1.218  30.905   7.650
 6775POPC   NC332087  38.418  21.346   9.450
 6775POPC   PO432088  38.469  21.337   9.150
 6775POPC   GL132089  38.442  21.389   8.850
 6775POPC   GL232090  38.438  21.283   8.850
 6775POPC   C1A32091  38.496  21.356   8.550
 6775POPC   D2A32092  38.474  21.414   8.250
 6775POPC   C3A32093  38.503  21.408   7.950
 6775POPC   C4A32094  38.474  21.368   7.650
 6775POPC   C1B32095  38.422  21.139   8.550
 6775POPC   C2B32096  38.425  21.105   8.250
 6775POPC   C3B32097  38.386  21.122   7.950
 6775POPC   C4B32098  38.403  21.187   7.650
 6776POPC   NC332099  10.500  22.904   9.450
 6776POPC   PO432100  10.496  22.926   9.150
 6776POPC   GL132101  10.546  22.903   8.850
 6776POPC   GL232102  10.443  22.945   8.850
 6776POPC   C1A32103  10.477  22.909   8.550
 6776POPC   D2A32104  10.539  22.966   8.250
 6776POPC   C3A32105  10.557  22.894   7.950
 6776POPC   C4A32106  10.482  22.965   7.650
 6776POPC   C1B32107  10.241  22.907   8.550
 6776POPC   C2B32108  10.245  22.890   8.250
 6776POPC   C3B32109  10.333  22.841   7.950
 6776POPC   C4B32110  10.334  22.833   7.650
 6777POPC   NC332111  40.054  39.983   9.450
 6777POPC   PO432112  39.987  40.016   9.150
 6777POPC   GL132113  40.024  39.983   8.850
 6777POPC   GL232114  40.045  39.849   8.850
 6777POPC   C1A32115  40.038  40.036   8.550
 6777POPC   D2A32116  39.968  39.980   8.250
 6777POPC   C3A32117  40.031  39.970   7.950
 6777POPC   C4A32118  39.963  39.992   7.650
 6777POPC   C1B32119  40.040  39.744   8.550
 6777POPC   C2B32120  40.071  39.748   8.250
 6777POPC   C3B32121  40.016  39.755   7.950
 6777POPC   C4B32122  40.014  39.764   7.650
 6778POPC   NC332123  23.666  14.398   9.450
 6778POPC   PO432124  23.757  14.444   9.150
 6778POPC   GL132125  23.726  14.415   8.850
 6778POPC   GL232126  23.848  14.461   8.850
 6778POPC   C1A32127  23.709  14.432   8.550
 6778POPC   D2A32128  23.764  14.414   8.250
 6778POPC   C3A32129  23.748  14.369   7.950
 6778POPC   C4A32130  23.701  14.376   7.650
 6778POPC   C1B32131  23.990  14.471   8.550
 6778POPC   C2B32132  23.980  14.481   8.250
 6778POPC   C3B32133  23.936  14.450   7.950
 6778POPC   C4B32134  23.988  14.473   7.650
 6779POPC   NC332135  43.891  21.393   9.450
 6779POPC   PO432136  43.933  21.427   9.150
 6779POPC   GL132137  43.847  21.432   8.850
 6779POPC   GL232138  43.983  21.386   8.850
 6779POPC   C1A32139  43.920  21.425   8.550
 6779POPC   D2A32140  43.897  21.399   8.250
 6779POPC   C3A32141  43.931  21.401   7.950
 6779POPC   C4A32142  43.854  21.419   7.650
 6779POPC   C1B32143  44.161  21.265   8.550
 6779POPC   C2B32144  44.166  21.280   8.250
 6779POPC   C3B32145  44.092  21.297   7.950
 6779POPC   C4B32146  44.147  21.276   7.650
 6780POPC   NC332147   0.483  21.401   9.450
 6780POPC   PO432148   0.465  21.339   9.150
 6780POPC   GL132149   0.409  21.382   8.850
 6780POPC   GL232150   0.509  21.308   8.850
 6780POPC   C1A32151   0.476  21.385   8.550
 6780POPC   D2A32152   0.466  21.343   8.250
 6780POPC   C3A32153   0.396  21.400   7.950
 6780POPC   C4A32154   0.428  21.426   7.650
 6780POPC   C1B32155   0.668  21.256   8.550
 6780POPC   C2B32156   0.678  21.227   8.250
 6780POPC   C3B32157   0.691  21.229   7.950
 6780POPC   C4B32158   0.623  21.197   7.650
 6781POPC   NC332159  28.330  36.860   9.450
 6781POPC   PO432160  28.341  36.921   9.150
 6781POPC   GL132161  28.370  36.891   8.850
 6781POPC   GL232162  28.247  36.783   8.850
 6781POPC   C1A32163  28.413  36.935   8.550
 6781POPC   D2A32164  28.380  36.917   8.250
 6781POPC   C3A32165  28.326  36.863   7.950
 6781POPC   C4A32166  28.406  36.897   7.650
 6781POPC   C1B32167  28.211  36.673   8.550
 6781POPC   C2B32168  28.207  36.694   8.250
 6781POPC   C3B32169  28.165  36.685   7.950
 6781POPC   C4B32170  28.197  36.745   7.650
 6782POPC   NC332171  40.799   8.148   9.450
 6782POPC   PO432172  40.793   8.164   9.150
 6782POPC   GL132173  40.761   8.168   8.850
 6782POPC   GL232174  40.882   8.278   8.850
 6782POPC   C1A32175  40.818   8.221   8.550
 6782POPC   D2A32176  40.785   8.176   8.250
 6782POPC   C3A32177  40.753   8.200   7.950
 6782POPC   C4A32178  40.742   8.244   7.650
 6782POPC   C1B32179  41.038   8.322   8.550
 6782POPC   C2B32180  40.979   8.270   8.250
 6782POPC   C3B32181  40.999   8.342   7.950
 6782POPC   C4B32182  41.036   8.299   7.650
 6783POPC   NC332183  23.762  21.429   9.450
 6783POPC   PO432184  23.701  21.364   9.150
 6783POPC   GL132185  23.729  21.384   8.850
 6783POPC   GL232186  23.675  21.270   8.850
 6783POPC   C1A32187  23.670  21.344   8.550
 6783POPC   D2A32188  23.671  21.337   8.250
 6783POPC   C3A32189  23.739  21.339   7.950
 6783POPC   C4A32190  23.743  21.435   7.650
 6783POPC   C1B32191  23.670  21.092   8.550
 6783POPC   C2B32192  23.685  21.162   8.250
 6783POPC   C3B32193  23.741  21.097   7.950
 6783POPC   C4B32194  23.729  21.178   7.650
 6784POPC   NC332195   2.015  22.940   9.450
 6784POPC   PO432196   1.971  22.911   9.150
 6784POPC   GL132197   1.940  22.927   8.850
 6784POPC   GL232198   1.892  22.840   8.850
 6784POPC   C1A32199   2.009  22.911   8.550
 6784POPC   D2A32200   1.946  22.918   8.250
 6784POPC   C3A32201   1.942  22.953   7.950
 6784POPC   C4A32202   1.957  22.944   7.650
 6784POPC   C1B32203   1.790  22.755   8.550
 6784POPC   C2B32204   1.760  22.838   8.250
 6784POPC   C3B32205   1.780  22.788   7.950
 6784POPC   C4B32206   1.791  22.780   7.650
 6785POPC   NC332207  31.428  20.604   9.450
 6785POPC   PO432208  31.456  20.658   9.150
 6785POPC   GL132209  31.516  20.570   8.850
 6785POPC   GL232210  31.337  20.503   8.850
 6785POPC   C1A32211  31.457  20.608   8.550
 6785POPC   D2A32212  31.455  20.605   8.250
 6785POPC   C3A32213  31.440  20.606   7.950
 6785POPC   C4A32214  31.477  20.609   7.650
 6785POPC   C1B32215  31.270  20.405   8.550
 6785POPC   C2B32216  31.337  20.463   8.250
 6785POPC   C3B32217  31.328  20.402   7.950
 6785POPC   C4B32218  31.324  20.405   7.650
 6786POPC   NC332219  37.682  33.769   9.450
 6786POPC   PO432220  37.668  33.845   9.150
 6786POPC   GL132221  37.666  33.779   8.850
 6786POPC   GL232222  37.668  33.928   8.850
 6786POPC   C1A32223  37.696  33.789   8.550
 6786POPC   D2A32224  37.669  33.806   8.250
 6786POPC   C3A32225  37.699  33.797   7.950
 6786POPC   C4A32226  37.681  33.780   7.650
 6786POPC   C1B32227  37.580  34.026   8.550
 6786POPC   C2B32228  37.557  34.079   8.250
 6786POPC   C3B32229  37.540  34.027   7.950
 6786POPC   C4B32230  37.600  34.071   7.650
 6787POPC   NC332231   8.976  38.475   9.450
 6787POPC   PO432232   8.954  38.414   9.150
 6787POPC   GL132233   8.999  38.469   8.850
 6787POPC   GL232234   9.061  38.516   8.850
 6787POPC   C1A32235   9.004  38.411   8.550
 6787POPC   D2A32236   8.934  38.420   8.250
 6787POPC   C3A32237   9.014  38.442   7.950
 6787POPC   C4A32238   8.999  38.450   7.650
 6787POPC   C1B32239   9.117  38.662   8.550
 6787POPC   C2B32240   9.100  38.658   8.250
 6787POPC   C3B32241   9.153  38.647   7.950
 6787POPC   C4B32242   9.160  38.599   7.650
 6788POPC   NC332243  26.086  43.120   9.450
 6788POPC   PO432244  26.025  43.158   9.150
 6788POPC   GL132245  26.073  43.147   8.850
 6788POPC   GL232246  26.194  43.012   8.850
 6788POPC   C1A32247  25.994  43.129   8.550
 6788POPC   D2A32248  26.008  43.067   8.250
 6788POPC   C3A32249  26.064  43.131   7.950
 6788POPC   C4A32250  26.068  43.095   7.650
 6788POPC   C1B32251  26.290  42.989   8.550
 6788POPC   C2B32252  26.277  42.978   8.250
 6788POPC   C3B32253  26.213  42.986   7.950
 6788POPC   C4B32254  26.216  42.976   7.650
 6789POPC   NC332255   2.753  12.046   9.450
 6789POPC   PO432256   2.773  12.029   9.150
 6789POPC   GL132257   2.742  12.073   8.850
 6789POPC   GL232258   2.665  12.075   8.850
 6789POPC   C1A32259   2.728  12.094   8.550
 6789POPC   D2A32260   2.772  12.084   8.250
 6789POPC   C3A32261   2.752  12.091   7.950
 6789POPC   C4A32262   2.774  12.059   7.650
 6789POPC   C1B32263   2.514  12.029   8.550
 6789POPC   C2B32264   2.489  11.998   8.250
 6789POPC   C3B32265   2.517  11.998   7.950
 6789POPC   C4B32266   2.519  12.039   7.650
 6790POPC   NC332267  43.114  26.033   9.450
 6790POPC   PO432268  43.156  26.054   9.150
 6790POPC   GL132269  43.092  26.036   8.850
 6790POPC   GL232270  43.248  26.000   8.850
 6790POPC   C1A32271  43.160  26.021   8.550
 6790POPC   D2A32272  43.153  25.993   8.250
 6790POPC   C3A32273  43.066  26.023   7.950
 6790POPC   C4A32274  43.114  26.064   7.650
 6790POPC   C1B32275  43.331  26.003   8.550
 6790POPC   C2B32276  43.315  26.025   8.250
 6790POPC   C3B32277  43.342  26.061   7.950
 6790POPC   C4B32278  43.331  26.090   7.650
 6791POPC   NC332279   2.765  21.418   9.450
 6791POPC   PO432280   2.723  21.360   9.150
 6791POPC   GL132281   2.731  21.400   8.850
 6791POPC   GL232282   2.668  21.269   8.850
 6791POPC   C1A32283   2.769  21.351   8.550
 6791POPC   D2A32284   2.716  21.435   8.250
 6791POPC   C3A32285   2.720  21.370   7.950
 6791POPC   C4A32286   2.781  21.401   7.650
 6791POPC   C1B32287   2.548  21.255   8.550
 6791POPC   C2B32288   2.515  21.212   8.250
 6791POPC   C3B32289   2.573  21.222   7.950
 6791POPC   C4B32290   2.566  21.231   7.650
 6792POPC   NC332291  42.365  30.736   9.450
 6792POPC   PO432292  42.384  30.679   9.150
 6792POPC   GL132293  42.347  30.703   8.850
 6792POPC   GL232294  42.433  30.818   8.850
 6792POPC   C1A32295  42.314  30.691   8.550
 6792POPC   D2A32296  42.310  30.661   8.250
 6792POPC   C3A32297  42.327  30.739   7.950
 6792POPC   C4A32298  42.339  30.738   7.650
 6792POPC   C1B32299  42.531  30.850   8.550
 6792POPC   C2B32300  42.540  30.842   8.250
 6792POPC   C3B32301  42.539  30.912   7.950
 6792POPC   C4B32302  42.521  30.893   7.650
 6793POPC   NC332303  40.745  19.866   9.450
 6793POPC   PO432304  40.817  19.849   9.150
 6793POPC   GL132305  40.789  19.868   8.850
 6793POPC   GL232306  40.861  19.779   8.850
 6793POPC   C1A32307  40.765  19.860   8.550
 6793POPC   D2A32308  40.798  19.858   8.250
 6793POPC   C3A32309  40.780  19.801   7.950
 6793POPC   C4A32310  40.802  19.792   7.650
 6793POPC   C1B32311  41.007  19.658   8.550
 6793POPC   C2B32312  40.967  19.702   8.250
 6793POPC   C3B32313  40.920  19.696   7.950
 6793POPC   C4B32314  40.936  19.613   7.650
 6794POPC   NC332315   9.022  25.255   9.450
 6794POPC   PO432316   8.965  25.218   9.150
 6794POPC   GL132317   9.012  25.305   8.850
 6794POPC   GL232318   8.799  25.283   8.850
 6794POPC   C1A32319   8.999  25.234   8.550
 6794POPC   D2A32320   9.008  25.247   8.250
 6794POPC   C3A32321   8.930  25.269   7.950
 6794POPC   C4A32322   8.942  25.264   7.650
 6794POPC   C1B32323   8.720  25.279   8.550
 6794POPC   C2B32324   8.696  25.240   8.250
 6794POPC   C3B32325   8.686  25.239   7.950
 6794POPC   C4B32326   8.744  25.325   7.650
 6795POPC   NC332327  15.219  25.312   9.450
 6795POPC   PO432328  15.210  25.236   9.150
 6795POPC   GL132329  15.156  25.272   8.850
 6795POPC   GL232330  15.078  25.143   8.850
 6795POPC   C1A32331  15.220  25.248   8.550
 6795POPC   D2A32332  15.203  25.291   8.250
 6795POPC   C3A32333  15.187  25.280   7.950
 6795POPC   C4A32334  15.164  25.267   7.650
 6795POPC   C1B32335  15.076  25.052   8.550
 6795POPC   C2B32336  15.066  25.074   8.250
 6795POPC   C3B32337  15.078  25.001   7.950
 6795POPC   C4B32338  15.069  25.052   7.650
 6796POPC   NC332339  18.239  18.283   9.450
 6796POPC   PO432340  18.278  18.264   9.150
 6796POPC   GL132341  18.234  18.268   8.850
 6796POPC   GL232342  18.354  18.170   8.850
 6796POPC   C1A32343  18.296  18.287   8.550
 6796POPC   D2A32344  18.285  18.270   8.250
 6796POPC   C3A32345  18.315  18.268   7.950
 6796POPC   C4A32346  18.264  18.293   7.650
 6796POPC   C1B32347  18.312  17.998   8.550
 6796POPC   C2B32348  18.355  18.036   8.250
 6796POPC   C3B32349  18.346  17.998   7.950
 6796POPC   C4B32350  18.312  18.051   7.650
 6797POPC   NC332351   4.301  22.193   9.450
 6797POPC   PO432352   4.314  22.182   9.150
 6797POPC   GL132353   4.354  22.140   8.850
 6797POPC   GL232354   4.181  22.243   8.850
 6797POPC   C1A32355   4.358  22.140   8.550
 6797POPC   D2A32356   4.268  22.144   8.250
 6797POPC   C3A32357   4.303  22.122   7.950
 6797POPC   C4A32358   4.293  22.202   7.650
 6797POPC   C1B32359   4.052  22.274   8.550
 6797POPC   C2B32360   4.039  22.248   8.250
 6797POPC   C3B32361   4.104  22.264   7.950
 6797POPC   C4B32362   4.126  22.247   7.650
 6798POPC   NC332363  29.909   9.708   9.450
 6798POPC   PO432364  29.941   9.715   9.150
 6798POPC   GL132365  29.937   9.773   8.850
 6798POPC   GL232366  29.905   9.650   8.850
 6798POPC   C1A32367  29.875   9.743   8.550
 6798POPC   D2A32368  29.936   9.776   8.250
 6798POPC   C3A32369  29.906   9.715   7.950
 6798POPC   C4A32370  29.937   9.708   7.650
 6798POPC   C1B32371  30.001   9.531   8.550
 6798POPC   C2B32372  29.975   9.506   8.250
 6798POPC   C3B32373  29.962   9.500   7.950
 6798POPC   C4B32374  29.917   9.474   7.650
 6799POPC   NC332375  40.793  25.290   9.450
 6799POPC   PO432376  40.766  25.236   9.150
 6799POPC   GL132377  40.813  25.312   8.850
 6799POPC   GL232378  40.787  25.391   8.850
 6799POPC   C1A32379  40.823  25.283   8.550
 6799POPC   D2A32380  40.777  25.233   8.250
 6799POPC   C3A32381  40.796  25.312   7.950
 6799POPC   C4A32382  40.738  25.260   7.650
 6799POPC   C1B32383  40.811  25.506   8.550
 6799POPC   C2B32384  40.794  25.501   8.250
 6799POPC   C3B32385  40.830  25.508   7.950
 6799POPC   C4B32386  40.829  25.522   7.650
 6800POPC   NC332387  23.698  11.260   9.450
 6800POPC   PO432388  23.691  11.341   9.150
 6800POPC   GL132389  23.735  11.279   8.850
 6800POPC   GL232390  23.813  11.190   8.850
 6800POPC   C1A32391  23.684  11.328   8.550
 6800POPC   D2A32392  23.709  11.280   8.250
 6800POPC   C3A32393  23.754  11.314   7.950
 6800POPC   C4A32394  23.752  11.326   7.650
 6800POPC   C1B32395  23.830  11.121   8.550
 6800POPC   C2B32396  23.867  11.119   8.250
 6800POPC   C3B32397  23.835  11.084   7.950
 6800POPC   C4B32398  23.845  11.110   7.650
 6801POPC   NC332399   3.561  24.511   9.450
 6801POPC   PO432400   3.518  24.498   9.150
 6801POPC   GL132401   3.518  24.453   8.850
 6801POPC   GL232402   3.381  24.447   8.850
 6801POPC   C1A32403   3.562  24.454   8.550
 6801POPC   D2A32404   3.562  24.466   8.250
 6801POPC   C3A32405   3.560  24.445   7.950
 6801POPC   C4A32406   3.496  24.509   7.650
 6801POPC   C1B32407   3.277  24.505   8.550
 6801POPC   C2B32408   3.296  24.503   8.250
 6801POPC   C3B32409   3.248  24.475   7.950
 6801POPC   C4B32410   3.307  24.516   7.650
 6802POPC   NC332411   0.406  35.302   9.450
 6802POPC   PO432412   0.424  35.328   9.150
 6802POPC   GL132413   0.407  35.353   8.850
 6802POPC   GL232414   0.546  35.446   8.850
 6802POPC   C1A32415   0.396  35.375   8.550
 6802POPC   D2A32416   0.442  35.309   8.250
 6802POPC   C3A32417   0.429  35.323   7.950
 6802POPC   C4A32418   0.389  35.370   7.650
 6802POPC   C1B32419   0.577  35.598   8.550
 6802POPC   C2B32420   0.575  35.520   8.250
 6802POPC   C3B32421   0.550  35.561   7.950
 6802POPC   C4B32422   0.609  35.598   7.650
 6803POPC   NC332423  26.790  43.873   9.450
 6803POPC   PO432424  26.842  43.890   9.150
 6803POPC   GL132425  26.778  43.898   8.850
 6803POPC   GL232426  26.755  44.006   8.850
 6803POPC   C1A32427  26.830  43.897   8.550
 6803POPC   D2A32428  26.787  43.836   8.250
 6803POPC   C3A32429  26.810  43.841   7.950
 6803POPC   C4A32430  26.769  43.862   7.650
 6803POPC   C1B32431  26.767  44.092   8.550
 6803POPC   C2B32432  26.696  44.096   8.250
 6803POPC   C3B32433  26.699  44.145   7.950
 6803POPC   C4B32434  26.702  44.126   7.650
 6804POPC   NC332435  20.564   8.151   9.450
 6804POPC   PO432436  20.593   8.193   9.150
 6804POPC   GL132437  20.626   8.246   8.850
 6804POPC   GL232438  20.766   8.253   8.850
 6804POPC   C1A32439  20.633   8.150   8.550
 6804POPC   D2A32440  20.583   8.224   8.250
 6804POPC   C3A32441  20.600   8.159   7.950
 6804POPC   C4A32442  20.615   8.180   7.650
 6804POPC   C1B32443  20.833   8.355   8.550
 6804POPC   C2B32444  20.835   8.336   8.250
 6804POPC   C3B32445  20.859   8.289   7.950
 6804POPC   C4B32446  20.799   8.321   7.650
 6805POPC   NC332447  33.832   2.775   9.450
 6805POPC   PO432448  33.826   2.737   9.150
 6805POPC   GL132449  33.826   2.808   8.850
 6805POPC   GL232450  33.679   2.848   8.850
 6805POPC   C1A32451  33.848   2.741   8.550
 6805POPC   D2A32452  33.781   2.779   8.250
 6805POPC   C3A32453  33.761   2.770   7.950
 6805POPC   C4A32454  33.757   2.755   7.650
 6805POPC   C1B32455  33.666   2.926   8.550
 6805POPC   C2B32456  33.599   2.997   8.250
 6805POPC   C3B32457  33.634   2.954   7.950
 6805POPC   C4B32458  33.621   2.979   7.650
 6806POPC   NC332459  32.241  34.625   9.450
 6806POPC   PO432460  32.286  34.611   9.150
 6806POPC   GL132461  32.242  34.527   8.850
 6806POPC   GL232462  32.084  34.625   8.850
 6806POPC   C1A32463  32.256  34.528   8.550
 6806POPC   D2A32464  32.291  34.624   8.250
 6806POPC   C3A32465  32.266  34.598   7.950
 6806POPC   C4A32466  32.237  34.551   7.650
 6806POPC   C1B32467  32.031  34.642   8.550
 6806POPC   C2B32468  32.018  34.702   8.250
 6806POPC   C3B32469  31.989  34.634   7.950
 6806POPC   C4B32470  32.029  34.700   7.650
 6807POPC   NC332471  41.567  26.054   9.450
 6807POPC   PO432472  41.513  26.057   9.150
 6807POPC   GL132473  41.571  26.059   8.850
 6807POPC   GL232474  41.505  26.104   8.850
 6807POPC   C1A32475  41.577  26.088   8.550
 6807POPC   D2A32476  41.560  26.033   8.250
 6807POPC   C3A32477  41.606  26.070   7.950
 6807POPC   C4A32478  41.544  25.999   7.650
 6807POPC   C1B32479  41.327  26.176   8.550
 6807POPC   C2B32480  41.347  26.189   8.250
 6807POPC   C3B32481  41.365  26.180   7.950
 6807POPC   C4B32482  41.321  26.180   7.650
 6808POPC   NC332483  14.424  17.519   9.450
 6808POPC   PO432484  14.402  17.534   9.150
 6808POPC   GL132485  14.407  17.504   8.850
 6808POPC   GL232486  14.532  17.599   8.850
 6808POPC   C1A32487  14.398  17.486   8.550
 6808POPC   D2A32488  14.445  17.531   8.250
 6808POPC   C3A32489  14.436  17.485   7.950
 6808POPC   C4A32490  14.426  17.478   7.650
 6808POPC   C1B32491  14.678  17.614   8.550
 6808POPC   C2B32492  14.614  17.561   8.250
 6808POPC   C3B32493  14.682  17.595   7.950
 6808POPC   C4B32494  14.674  17.605   7.650
 6809POPC   NC332495   2.719  34.568   9.450
 6809POPC   PO432496   2.757  34.538   9.150
 6809POPC   GL132497   2.742  34.564   8.850
 6809POPC   GL232498   2.773  34.499   8.850
 6809POPC   C1A32499   2.717  34.539   8.550
 6809POPC   D2A32500   2.808  34.610   8.250
 6809POPC   C3A32501   2.778  34.592   7.950
 6809POPC   C4A32502   2.752  34.552   7.650
 6809POPC   C1B32503   2.832  34.355   8.550
 6809POPC   C2B32504   2.864  34.376   8.250
 6809POPC   C3B32505   2.827  34.330   7.950
 6809POPC   C4B32506   2.874  34.378   7.650
 6810POPC   NC332507   6.613  34.578   9.450
 6810POPC   PO432508   6.692  34.626   9.150
 6810POPC   GL132509   6.610  34.601   8.850
 6810POPC   GL232510   6.613  34.510   8.850
 6810POPC   C1A32511   6.614  34.545   8.550
 6810POPC   D2A32512   6.618  34.602   8.250
 6810POPC   C3A32513   6.659  34.556   7.950
 6810POPC   C4A32514   6.644  34.595   7.650
 6810POPC   C1B32515   6.495  34.318   8.550
 6810POPC   C2B32516   6.486  34.315   8.250
 6810POPC   C3B32517   6.481  34.328   7.950
 6810POPC   C4B32518   6.514  34.380   7.650
 6811POPC   NC332519  22.198  12.829   9.450
 6811POPC   PO432520  22.115  12.811   9.150
 6811POPC   GL132521  22.121  12.866   8.850
 6811POPC   GL232522  22.294  12.829   8.850
 6811POPC   C1A32523  22.190  12.832   8.550
 6811POPC   D2A32524  22.198  12.830   8.250
 6811POPC   C3A32525  22.127  12.900   7.950
 6811POPC   C4A32526  22.193  12.809   7.650
 6811POPC   C1B32527  22.425  12.848   8.550
 6811POPC   C2B32528  22.363  12.814   8.250
 6811POPC   C3B32529  22.411  12.801   7.950
 6811POPC   C4B32530  22.405  12.840   7.650
 6812POPC   NC332531  25.217  12.034   9.450
 6812POPC   PO432532  25.242  12.029   9.150
 6812POPC   GL132533  25.251  12.120   8.850
 6812POPC   GL232534  25.360  11.999   8.850
 6812POPC   C1A32535  25.242  12.107   8.550
 6812POPC   D2A32536  25.241  12.051   8.250
 6812POPC   C3A32537  25.292  12.060   7.950
 6812POPC   C4A32538  25.309  12.090   7.650
 6812POPC   C1B32539  25.471  12.006   8.550
 6812POPC   C2B32540  25.544  11.998   8.250
 6812POPC   C3B32541  25.498  12.007   7.950
 6812POPC   C4B32542  25.547  11.973   7.650
 6813POPC   NC332543  12.119  39.276   9.450
 6813POPC   PO432544  12.071  39.224   9.150
 6813POPC   GL132545  12.096  39.187   8.850
 6813POPC   GL232546  12.145  39.107   8.850
 6813POPC   C1A32547  12.065  39.273   8.550
 6813POPC   D2A32548  12.077  39.233   8.250
 6813POPC   C3A32549  12.088  39.215   7.950
 6813POPC   C4A32550  12.110  39.199   7.650
 6813POPC   C1B32551  12.212  38.994   8.550
 6813POPC   C2B32552  12.183  38.978   8.250
 6813POPC   C3B32553  12.210  38.996   7.950
 6813POPC   C4B32554  12.203  38.970   7.650
 6814POPC   NC332555   2.777  20.658   9.450
 6814POPC   PO432556   2.730  20.601   9.150
 6814POPC   GL132557   2.802  20.562   8.850
 6814POPC   GL232558   2.931  20.613   8.850
 6814POPC   C1A32559   2.813  20.653   8.550
 6814POPC   D2A32560   2.722  20.590   8.250
 6814POPC   C3A32561   2.749  20.642   7.950
 6814POPC   C4A32562   2.761  20.594   7.650
 6814POPC   C1B32563   3.044  20.670   8.550
 6814POPC   C2B32564   3.011  20.665   8.250
 6814POPC   C3B32565   2.980  20.703   7.950
 6814POPC   C4B32566   2.987  20.671   7.650
 6815POPC   NC332567  32.992   9.797   9.450
 6815POPC   PO432568  33.014   9.727   9.150
 6815POPC   GL132569  33.067   9.793   8.850
 6815POPC   GL232570  33.118   9.684   8.850
 6815POPC   C1A32571  33.047   9.731   8.550
 6815POPC   D2A32572  33.049   9.795   8.250
 6815POPC   C3A32573  33.072   9.772   7.950
 6815POPC   C4A32574  32.980   9.749   7.650
 6815POPC   C1B32575  33.166   9.595   8.550
 6815POPC   C2B32576  33.159   9.574   8.250
 6815POPC   C3B32577  33.169   9.582   7.950
 6815POPC   C4B32578  33.229   9.590   7.650
 6816POPC   NC332579  43.875  31.482   9.450
 6816POPC   PO432580  43.844  31.440   9.150
 6816POPC   GL132581  43.920  31.493   8.850
 6816POPC   GL232582  43.726  31.531   8.850
 6816POPC   C1A32583  43.882  31.513   8.550
 6816POPC   D2A32584  43.862  31.424   8.250
 6816POPC   C3A32585  43.904  31.450   7.950
 6816POPC   C4A32586  43.867  31.507   7.650
 6816POPC   C1B32587  43.636  31.579   8.550
 6816POPC   C2B32588  43.641  31.561   8.250
 6816POPC   C3B32589  43.669  31.504   7.950
 6816POPC   C4B32590  43.652  31.515   7.650
 6817POPC   NC332591  44.709  27.593   9.450
 6817POPC   PO432592  44.614  27.602   9.150
 6817POPC   GL132593  44.666  27.567   8.850
 6817POPC   GL232594  44.670  27.746   8.850
 6817POPC   C1A32595  44.698  27.586   8.550
 6817POPC   D2A32596  44.666  27.563   8.250
 6817POPC   C3A32597  44.665  27.615   7.950
 6817POPC   C4A32598  44.624  27.615   7.650
 6817POPC   C1B32599  44.572  27.857   8.550
 6817POPC   C2B32600  44.586  27.787   8.250
 6817POPC   C3B32601  44.605  27.802   7.950
 6817POPC   C4B32602  44.556  27.878   7.650
 6818POPC   NC332603  24.470  22.914   9.450
 6818POPC   PO432604  24.463  22.943   9.150
 6818POPC   GL132605  24.493  22.962   8.850
 6818POPC   GL232606  24.591  23.035   8.850
 6818POPC   C1A32607  24.441  22.889   8.550
 6818POPC   D2A32608  24.538  22.891   8.250
 6818POPC   C3A32609  24.528  22.936   7.950
 6818POPC   C4A32610  24.531  22.911   7.650
 6818POPC   C1B32611  24.657  23.179   8.550
 6818POPC   C2B32612  24.640  23.107   8.250
 6818POPC   C3B32613  24.613  23.132   7.950
 6818POPC   C4B32614  24.604  23.133   7.650
 6819POPC   NC332615  19.865   3.518   9.450
 6819POPC   PO432616  19.793   3.537   9.150
 6819POPC   GL132617  19.869   3.559   8.850
 6819POPC   GL232618  19.925   3.522   8.850
 6819POPC   C1A32619  19.825   3.512   8.550
 6819POPC   D2A32620  19.858   3.513   8.250
 6819POPC   C3A32621  19.829   3.565   7.950
 6819POPC   C4A32622  19.834   3.574   7.650
 6819POPC   C1B32623  20.040   3.423   8.550
 6819POPC   C2B32624  20.095   3.425   8.250
 6819POPC   C3B32625  20.069   3.407   7.950
 6819POPC   C4B32626  20.008   3.371   7.650
 6820POPC   NC332627  11.307  33.795   9.450
 6820POPC   PO432628  11.289  33.850   9.150
 6820POPC   GL132629  11.297  33.754   8.850
 6820POPC   GL232630  11.266  33.900   8.850
 6820POPC   C1A32631  11.335  33.788   8.550
 6820POPC   D2A32632  11.344  33.831   8.250
 6820POPC   C3A32633  11.284  33.777   7.950
 6820POPC   C4A32634  11.350  33.830   7.650
 6820POPC   C1B32635  11.343  34.000   8.550
 6820POPC   C2B32636  11.259  34.068   8.250
 6820POPC   C3B32637  11.243  34.033   7.950
 6820POPC   C4B32638  11.309  34.064   7.650
 6821POPC   NC332639  22.982  32.999   9.450
 6821POPC   PO432640  22.940  32.976   9.150
 6821POPC   GL132641  22.933  33.003   8.850
 6821POPC   GL232642  22.843  32.998   8.850
 6821POPC   C1A32643  22.980  32.989   8.550
 6821POPC   D2A32644  22.891  33.042   8.250
 6821POPC   C3A32645  22.977  33.012   7.950
 6821POPC   C4A32646  22.957  33.041   7.650
 6821POPC   C1B32647  22.694  32.937   8.550
 6821POPC   C2B32648  22.711  32.877   8.250
 6821POPC   C3B32649  22.751  32.933   7.950
 6821POPC   C4B32650  22.697  32.893   7.650
 6822POPC   NC332651  22.197  42.374   9.450
 6822POPC   PO432652  22.115  42.373   9.150
 6822POPC   GL132653  22.162  42.347   8.850
 6822POPC   GL232654  22.118  42.470   8.850
 6822POPC   C1A32655  22.115  42.335   8.550
 6822POPC   D2A32656  22.181  42.292   8.250
 6822POPC   C3A32657  22.136  42.337   7.950
 6822POPC   C4A32658  22.128  42.286   7.650
 6822POPC   C1B32659  22.132  42.555   8.550
 6822POPC   C2B32660  22.044  42.548   8.250
 6822POPC   C3B32661  22.037  42.579   7.950
 6822POPC   C4B32662  22.087  42.604   7.650
 6823POPC   NC332663  29.107  26.008   9.450
 6823POPC   PO432664  29.120  26.004   9.150
 6823POPC   GL132665  29.141  26.038   8.850
 6823POPC   GL232666  29.008  26.099   8.850
 6823POPC   C1A32667  29.191  25.998   8.550
 6823POPC   D2A32668  29.180  26.063   8.250
 6823POPC   C3A32669  29.177  26.025   7.950
 6823POPC   C4A32670  29.148  26.069   7.650
 6823POPC   C1B32671  28.933  26.256   8.550
 6823POPC   C2B32672  28.997  26.242   8.250
 6823POPC   C3B32673  28.981  26.254   7.950
 6823POPC   C4B32674  28.953  26.245   7.650
 6824POPC   NC332675  40.041   6.653   9.450
 6824POPC   PO432676  40.042   6.613   9.150
 6824POPC   GL132677  39.962   6.605   8.850
 6824POPC   GL232678  40.142   6.653   8.850
 6824POPC   C1A32679  40.019   6.596   8.550
 6824POPC   D2A32680  40.008   6.687   8.250
 6824POPC   C3A32681  39.995   6.605   7.950
 6824POPC   C4A32682  40.012   6.676   7.650
 6824POPC   C1B32683  40.274   6.683   8.550
 6824POPC   C2B32684  40.249   6.647   8.250
 6824POPC   C3B32685  40.268   6.629   7.950
 6824POPC   C4B32686  40.281   6.646   7.650
 6825POPC   NC332687  38.418  15.194   9.450
 6825POPC   PO432688  38.436  15.154   9.150
 6825POPC   GL132689  38.439  15.229   8.850
 6825POPC   GL232690  38.533  15.135   8.850
 6825POPC   C1A32691  38.480  15.192   8.550
 6825POPC   D2A32692  38.416  15.152   8.250
 6825POPC   C3A32693  38.438  15.225   7.950
 6825POPC   C4A32694  38.464  15.140   7.650
 6825POPC   C1B32695  38.624  15.033   8.550
 6825POPC   C2B32696  38.669  14.998   8.250
 6825POPC   C3B32697  38.625  14.995   7.950
 6825POPC   C4B32698  38.601  14.992   7.650
 6826POPC   NC332699   5.143  23.714   9.450
 6826POPC   PO432700   5.058  23.677   9.150
 6826POPC   GL132701   5.053  23.698   8.850
 6826POPC   GL232702   4.927  23.659   8.850
 6826POPC   C1A32703   5.111  23.678   8.550
 6826POPC   D2A32704   5.084  23.747   8.250
 6826POPC   C3A32705   5.100  23.702   7.950
 6826POPC   C4A32706   5.128  23.668   7.650
 6826POPC   C1B32707   4.804  23.657   8.550
 6826POPC   C2B32708   4.867  23.726   8.250
 6826POPC   C3B32709   4.857  23.707   7.950
 6826POPC   C4B32710   4.886  23.705   7.650
 6827POPC   NC332711  23.683  43.117   9.450
 6827POPC   PO432712  23.733  43.073   9.150
 6827POPC   GL132713  23.688  43.139   8.850
 6827POPC   GL232714  23.755  42.959   8.850
 6827POPC   C1A32715  23.670  43.090   8.550
 6827POPC   D2A32716  23.724  43.067   8.250
 6827POPC   C3A32717  23.686  43.152   7.950
 6827POPC   C4A32718  23.707  43.091   7.650
 6827POPC   C1B32719  23.841  42.925   8.550
 6827POPC   C2B32720  23.829  42.881   8.250
 6827POPC   C3B32721  23.832  42.896   7.950
 6827POPC   C4B32722  23.852  42.908   7.650
 6828POPC   NC332723  25.279  23.682   9.450
 6828POPC   PO432724  25.300  23.699   9.150
 6828POPC   GL132725  25.310  23.700   8.850
 6828POPC   GL232726  25.315  23.636   8.850
 6828POPC   C1A32727  25.242  23.732   8.550
 6828POPC   D2A32728  25.224  23.747   8.250
 6828POPC   C3A32729  25.306  23.753   7.950
 6828POPC   C4A32730  25.267  23.670   7.650
 6828POPC   C1B32731  25.240  23.433   8.550
 6828POPC   C2B32732  25.287  23.514   8.250
 6828POPC   C3B32733  25.321  23.499   7.950
 6828POPC   C4B32734  25.242  23.429   7.650
 6829POPC   NC332735  34.552   9.002   9.450
 6829POPC   PO432736  34.530   9.020   9.150
 6829POPC   GL132737  34.529   8.976   8.850
 6829POPC   GL232738  34.498   8.872   8.850
 6829POPC   C1A32739  34.582   9.018   8.550
 6829POPC   D2A32740  34.611   8.966   8.250
 6829POPC   C3A32741  34.572   8.955   7.950
 6829POPC   C4A32742  34.592   8.997   7.650
 6829POPC   C1B32743  34.422   8.741   8.550
 6829POPC   C2B32744  34.458   8.718   8.250
 6829POPC   C3B32745  34.487   8.770   7.950
 6829POPC   C4B32746  34.490   8.797   7.650
 6830POPC   NC332747  44.695   4.332   9.450
 6830POPC   PO432748  44.687   4.292   9.150
 6830POPC   GL132749  44.672   4.330   8.850
 6830POPC   GL232750  44.591   4.399   8.850
 6830POPC   C1A32751  44.710   4.298   8.550
 6830POPC   D2A32752  44.616   4.300   8.250
 6830POPC   C3A32753  44.653   4.326   7.950
 6830POPC   C4A32754  44.656   4.303   7.650
 6830POPC   C1B32755  44.505   4.457   8.550
 6830POPC   C2B32756  44.443   4.460   8.250
 6830POPC   C3B32757  44.477   4.505   7.950
 6830POPC   C4B32758  44.461   4.441   7.650
 6831POPC   NC332759  12.055  40.752   9.450
 6831POPC   PO432760  12.087  40.772   9.150
 6831POPC   GL132761  12.056  40.791   8.850
 6831POPC   GL232762  11.994  40.670   8.850
 6831POPC   C1A32763  12.039  40.766   8.550
 6831POPC   D2A32764  12.108  40.743   8.250
 6831POPC   C3A32765  12.035  40.767   7.950
 6831POPC   C4A32766  12.085  40.809   7.650
 6831POPC   C1B32767  11.948  40.566   8.550
 6831POPC   C2B32768  11.910  40.603   8.250
 6831POPC   C3B32769  11.905  40.562   7.950
 6831POPC   C4B32770  11.916  40.566   7.650
 6832POPC   NC332771  21.338  33.793   9.450
 6832POPC   PO432772  21.385  33.829   9.150
 6832POPC   GL132773  21.418  33.818   8.850
 6832POPC   GL232774  21.488  33.802   8.850
 6832POPC   C1A32775  21.398  33.844   8.550
 6832POPC   D2A32776  21.381  33.756   8.250
 6832POPC   C3A32777  21.428  33.805   7.950
 6832POPC   C4A32778  21.422  33.763   7.650
 6832POPC   C1B32779  21.655  33.791   8.550
 6832POPC   C2B32780  21.681  33.813   8.250
 6832POPC   C3B32781  21.612  33.790   7.950
 6832POPC   C4B32782  21.623  33.780   7.650
 6833POPC   NC332783  43.089   9.772   9.450
 6833POPC   PO432784  43.125   9.791   9.150
 6833POPC   GL132785  43.069   9.723   8.850
 6833POPC   GL232786  43.119   9.616   8.850
 6833POPC   C1A32787  43.135   9.793   8.550
 6833POPC   D2A32788  43.093   9.773   8.250
 6833POPC   C3A32789  43.156   9.788   7.950
 6833POPC   C4A32790  43.137   9.748   7.650
 6833POPC   C1B32791  43.095   9.530   8.550
 6833POPC   C2B32792  43.122   9.547   8.250
 6833POPC   C3B32793  43.034   9.529   7.950
 6833POPC   C4B32794  43.050   9.460   7.650
 6834POPC   NC332795  39.983  24.502   9.450
 6834POPC   PO432796  40.011  24.462   9.150
 6834POPC   GL132797  39.983  24.492   8.850
 6834POPC   GL232798  39.914  24.513   8.850
 6834POPC   C1A32799  40.019  24.512   8.550
 6834POPC   D2A32800  39.980  24.493   8.250
 6834POPC   C3A32801  39.988  24.486   7.950
 6834POPC   C4A32802  40.002  24.504   7.650
 6834POPC   C1B32803  39.718  24.565   8.550
 6834POPC   C2B32804  39.727  24.515   8.250
 6834POPC   C3B32805  39.783  24.526   7.950
 6834POPC   C4B32806  39.727  24.565   7.650
 6835POPC   NC332807  34.583  12.870   9.450
 6835POPC   PO432808  34.558  12.823   9.150
 6835POPC   GL132809  34.585  12.899   8.850
 6835POPC   GL232810  34.443  12.935   8.850
 6835POPC   C1A32811  34.564  12.836   8.550
 6835POPC   D2A32812  34.526  12.862   8.250
 6835POPC   C3A32813  34.602  12.900   7.950
 6835POPC   C4A32814  34.558  12.846   7.650
 6835POPC   C1B32815  34.384  13.004   8.550
 6835POPC   C2B32816  34.338  13.006   8.250
 6835POPC   C3B32817  34.386  12.962   7.950
 6835POPC   C4B32818  34.365  13.019   7.650
 6836POPC   NC332819  33.040  16.773   9.450
 6836POPC   PO432820  33.062  16.721   9.150
 6836POPC   GL132821  33.055  16.750   8.850
 6836POPC   GL232822  33.181  16.736   8.850
 6836POPC   C1A32823  33.055  16.758   8.550
 6836POPC   D2A32824  33.016  16.744   8.250
 6836POPC   C3A32825  33.031  16.746   7.950
 6836POPC   C4A32826  33.038  16.686   7.650
 6836POPC   C1B32827  33.304  16.771   8.550
 6836POPC   C2B32828  33.242  16.821   8.250
 6836POPC   C3B32829  33.293  16.787   7.950
 6836POPC   C4B32830  33.222  16.763   7.650
 6837POPC   NC332831   7.424  38.473   9.450
 6837POPC   PO432832   7.444  38.468   9.150
 6837POPC   GL132833   7.391  38.503   8.850
 6837POPC   GL232834   7.286  38.473   8.850
 6837POPC   C1A32835   7.460  38.504   8.550
 6837POPC   D2A32836   7.444  38.477   8.250
 6837POPC   C3A32837   7.385  38.430   7.950
 6837POPC   C4A32838   7.456  38.442   7.650
 6837POPC   C1B32839   7.152  38.456   8.550
 6837POPC   C2B32840   7.158  38.444   8.250
 6837POPC   C3B32841   7.144  38.421   7.950
 6837POPC   C4B32842   7.142  38.491   7.650
 6838POPC   NC332843  22.944  21.414   9.450
 6838POPC   PO432844  22.904  21.358   9.150
 6838POPC   GL132845  22.919  21.396   8.850
 6838POPC   GL232846  23.058  21.359   8.850
 6838POPC   C1A32847  22.984  21.391   8.550
 6838POPC   D2A32848  22.932  21.382   8.250
 6838POPC   C3A32849  22.896  21.436   7.950
 6838POPC   C4A32850  22.903  21.346   7.650
 6838POPC   C1B32851  23.213  21.301   8.550
 6838POPC   C2B32852  23.166  21.288   8.250
 6838POPC   C3B32853  23.164  21.304   7.950
 6838POPC   C4B32854  23.186  21.293   7.650
 6839POPC   NC332855  42.309   8.926   9.450
 6839POPC   PO432856  42.296   8.930   9.150
 6839POPC   GL132857  42.351   9.008   8.850
 6839POPC   GL232858  42.357   8.843   8.850
 6839POPC   C1A32859  42.344   9.014   8.550
 6839POPC   D2A32860  42.340   8.978   8.250
 6839POPC   C3A32861  42.314   8.973   7.950
 6839POPC   C4A32862  42.358   8.997   7.650
 6839POPC   C1B32863  42.394   8.685   8.550
 6839POPC   C2B32864  42.403   8.755   8.250
 6839POPC   C3B32865  42.356   8.713   7.950
 6839POPC   C4B32866  42.358   8.690   7.650
 6840POPC   NC332867  38.430  18.305   9.450
 6840POPC   PO432868  38.432  18.290   9.150
 6840POPC   GL132869  38.447  18.284   8.850
 6840POPC   GL232870  38.556  18.341   8.850
 6840POPC   C1A32871  38.425  18.239   8.550
 6840POPC   D2A32872  38.435  18.274   8.250
 6840POPC   C3A32873  38.409  18.301   7.950
 6840POPC   C4A32874  38.456  18.257   7.650
 6840POPC   C1B32875  38.700  18.340   8.550
 6840POPC   C2B32876  38.674  18.383   8.250
 6840POPC   C3B32877  38.645  18.383   7.950
 6840POPC   C4B32878  38.683  18.349   7.650
 6841POPC   NC332879  40.750  22.205   9.450
 6841POPC   PO432880  40.734  22.207   9.150
 6841POPC   GL132881  40.765  22.149   8.850
 6841POPC   GL232882  40.914  22.219   8.850
 6841POPC   C1A32883  40.804  22.199   8.550
 6841POPC   D2A32884  40.784  22.118   8.250
 6841POPC   C3A32885  40.770  22.173   7.950
 6841POPC   C4A32886  40.765  22.197   7.650
 6841POPC   C1B32887  40.972  22.257   8.550
 6841POPC   C2B32888  41.037  22.298   8.250
 6841POPC   C3B32889  41.032  22.213   7.950
 6841POPC   C4B32890  40.979  22.223   7.650
 6842POPC   NC332891  38.434  39.987   9.450
 6842POPC   PO432892  38.496  40.042   9.150
 6842POPC   GL132893  38.434  40.032   8.850
 6842POPC   GL232894  38.590  40.075   8.850
 6842POPC   C1A32895  38.416  40.008   8.550
 6842POPC   D2A32896  38.444  40.004   8.250
 6842POPC   C3A32897  38.457  39.961   7.950
 6842POPC   C4A32898  38.482  40.018   7.650
 6842POPC   C1B32899  38.645  40.152   8.550
 6842POPC   C2B32900  38.637  40.203   8.250
 6842POPC   C3B32901  38.593  40.230   7.950
 6842POPC   C4B32902  38.664  40.192   7.650
 6843POPC   NC332903  34.610  39.203   9.450
 6843POPC   PO432904  34.531  39.279   9.150
 6843POPC   GL132905  34.581  39.256   8.850
 6843POPC   GL232906  34.411  39.232   8.850
 6843POPC   C1A32907  34.622  39.195   8.550
 6843POPC   D2A32908  34.595  39.240   8.250
 6843POPC   C3A32909  34.560  39.254   7.950
 6843POPC   C4A32910  34.561  39.238   7.650
 6843POPC   C1B32911  34.293  39.245   8.550
 6843POPC   C2B32912  34.316  39.231   8.250
 6843POPC   C3B32913  34.306  39.264   7.950
 6843POPC   C4B32914  34.371  39.258   7.650
 6844POPC   NC332915  41.574  22.897   9.450
 6844POPC   PO432916  41.586  22.975   9.150
 6844POPC   GL132917  41.554  22.935   8.850
 6844POPC   GL232918  41.628  22.823   8.850
 6844POPC   C1A32919  41.609  22.963   8.550
 6844POPC   D2A32920  41.606  22.902   8.250
 6844POPC   C3A32921  41.608  22.955   7.950
 6844POPC   C4A32922  41.515  22.950   7.650
 6844POPC   C1B32923  41.711  22.743   8.550
 6844POPC   C2B32924  41.638  22.756   8.250
 6844POPC   C3B32925  41.711  22.718   7.950
 6844POPC   C4B32926  41.648  22.702   7.650
 6845POPC   NC332927   6.657  26.822   9.450
 6845POPC   PO432928   6.679  26.786   9.150
 6845POPC   GL132929   6.680  26.815   8.850
 6845POPC   GL232930   6.763  26.849   8.850
 6845POPC   C1A32931   6.601  26.828   8.550
 6845POPC   D2A32932   6.602  26.808   8.250
 6845POPC   C3A32933   6.651  26.794   7.950
 6845POPC   C4A32934   6.601  26.856   7.650
 6845POPC   C1B32935   6.873  26.920   8.550
 6845POPC   C2B32936   6.845  26.992   8.250
 6845POPC   C3B32937   6.857  26.940   7.950
 6845POPC   C4B32938   6.861  26.943   7.650
 6846POPC   NC332939  39.199  44.686   9.450
 6846POPC   PO432940  39.185  44.632   9.150
 6846POPC   GL132941  39.182  44.634   8.850
 6846POPC   GL232942  39.073  44.659   8.850
 6846POPC   C1A32943  39.188  44.680   8.550
 6846POPC   D2A32944  39.214  44.685   8.250
 6846POPC   C3A32945  39.220  44.662   7.950
 6846POPC   C4A32946  39.218  44.635   7.650
 6846POPC   C1B32947  39.030  44.588   8.550
 6846POPC   C2B32948  39.044  44.571   8.250
 6846POPC   C3B32949  38.988  44.551   7.950
 6846POPC   C4B32950  39.008  44.588   7.650
 6847POPC   NC332951   6.657  39.235   9.450
 6847POPC   PO432952   6.646  39.225   9.150
 6847POPC   GL132953   6.677  39.280   8.850
 6847POPC   GL232954   6.585  39.151   8.850
 6847POPC   C1A32955   6.600  39.183   8.550
 6847POPC   D2A32956   6.605  39.245   8.250
 6847POPC   C3A32957   6.615  39.246   7.950
 6847POPC   C4A32958   6.610  39.259   7.650
 6847POPC   C1B32959   6.494  39.045   8.550
 6847POPC   C2B32960   6.459  38.989   8.250
 6847POPC   C3B32961   6.449  39.035   7.950
 6847POPC   C4B32962   6.487  39.026   7.650
 6848POPC   NC332963  29.143   4.354   9.450
 6848POPC   PO432964  29.161   4.331   9.150
 6848POPC   GL132965  29.131   4.320   8.850
 6848POPC   GL232966  29.288   4.354   8.850
 6848POPC   C1A32967  29.166   4.311   8.550
 6848POPC   D2A32968  29.133   4.338   8.250
 6848POPC   C3A32969  29.110   4.290   7.950
 6848POPC   C4A32970  29.110   4.350   7.650
 6848POPC   C1B32971  29.404   4.417   8.550
 6848POPC   C2B32972  29.373   4.402   8.250
 6848POPC   C3B32973  29.343   4.369   7.950
 6848POPC   C4B32974  29.427   4.329   7.650
 6849POPC   NC332975  22.953  15.960   9.450
 6849POPC   PO432976  22.902  15.914   9.150
 6849POPC   GL132977  22.963  15.945   8.850
 6849POPC   GL232978  23.053  15.890   8.850
 6849POPC   C1A32979  22.932  15.960   8.550
 6849POPC   D2A32980  22.912  15.994   8.250
 6849POPC   C3A32981  22.948  15.964   7.950
 6849POPC   C4A32982  22.986  15.925   7.650
 6849POPC   C1B32983  23.223  15.865   8.550
 6849POPC   C2B32984  23.216  15.929   8.250
 6849POPC   C3B32985  23.174  15.879   7.950
 6849POPC   C4B32986  23.189  15.896   7.650
 6850POPC   NC332987   3.514  37.700   9.450
 6850POPC   PO432988   3.531  37.685   9.150
 6850POPC   GL132989   3.527  37.647   8.850
 6850POPC   GL232990   3.702  37.705   8.850
 6850POPC   C1A32991   3.531  37.657   8.550
 6850POPC   D2A32992   3.509  37.712   8.250
 6850POPC   C3A32993   3.568  37.671   7.950
 6850POPC   C4A32994   3.496  37.709   7.650
 6850POPC   C1B32995   3.820  37.770   8.550
 6850POPC   C2B32996   3.790  37.747   8.250
 6850POPC   C3B32997   3.760  37.733   7.950
 6850POPC   C4B32998   3.831  37.761   7.650
 6851POPC   NC332999  22.200  18.324   9.450
 6851POPC   PO433000  22.132  18.256   9.150
 6851POPC   GL133001  22.143  18.266   8.850
 6851POPC   GL233002  22.040  18.231   8.850
 6851POPC   C1A33003  22.184  18.316   8.550
 6851POPC   D2A33004  22.116  18.287   8.250
 6851POPC   C3A33005  22.161  18.304   7.950
 6851POPC   C4A33006  22.121  18.287   7.650
 6851POPC   C1B33007  21.960  18.042   8.550
 6851POPC   C2B33008  21.983  18.123   8.250
 6851POPC   C3B33009  21.990  18.083   7.950
 6851POPC   C4B33010  22.002  18.128   7.650
 6852POPC   NC333011  30.743   7.381   9.450
 6852POPC   PO433012  30.668   7.394   9.150
 6852POPC   GL133013  30.668   7.410   8.850
 6852POPC   GL233014  30.766   7.347   8.850
 6852POPC   C1A33015  30.670   7.391   8.550
 6852POPC   D2A33016  30.658   7.392   8.250
 6852POPC   C3A33017  30.744   7.399   7.950
 6852POPC   C4A33018  30.695   7.381   7.650
 6852POPC   C1B33019  30.781   7.203   8.550
 6852POPC   C2B33020  30.804   7.183   8.250
 6852POPC   C3B33021  30.835   7.245   7.950
 6852POPC   C4B33022  30.854   7.235   7.650
 6853POPC   NC333023  40.781  28.409   9.450
 6853POPC   PO433024  40.755  28.343   9.150
 6853POPC   GL133025  40.734  28.369   8.850
 6853POPC   GL233026  40.676  28.471   8.850
 6853POPC   C1A33027  40.790  28.404   8.550
 6853POPC   D2A33028  40.795  28.361   8.250
 6853POPC   C3A33029  40.733  28.402   7.950
 6853POPC   C4A33030  40.741  28.404   7.650
 6853POPC   C1B33031  40.588  28.570   8.550
 6853POPC   C2B33032  40.642  28.539   8.250
 6853POPC   C3B33033  40.569  28.568   7.950
 6853POPC   C4B33034  40.642  28.581   7.650
 6854POPC   NC333035  23.676  20.586   9.450
 6854POPC   PO433036  23.740  20.633   9.150
 6854POPC   GL133037  23.738  20.595   8.850
 6854POPC   GL233038  23.617  20.570   8.850
 6854POPC   C1A33039  23.693  20.615   8.550
 6854POPC   D2A33040  23.750  20.660   8.250
 6854POPC   C3A33041  23.691  20.569   7.950
 6854POPC   C4A33042  23.673  20.620   7.650
 6854POPC   C1B33043  23.503  20.532   8.550
 6854POPC   C2B33044  23.454  20.608   8.250
 6854POPC   C3B33045  23.509  20.588   7.950
 6854POPC   C4B33046  23.507  20.546   7.650
 6855POPC   NC333047  43.898  44.688   9.450
 6855POPC   PO433048  43.923  44.681   9.150
 6855POPC   GL133049  43.896  44.711   8.850
 6855POPC   GL233050  43.715  44.675   8.850
 6855POPC   C1A33051  43.847  44.698   8.550
 6855POPC   D2A33052  43.907  44.700   8.250
 6855POPC   C3A33053  43.919  44.685   7.950
 6855POPC   C4A33054  43.841  44.625   7.650
 6855POPC   C1B33055  43.616  44.640   8.550
 6855POPC   C2B33056  43.605  44.659   8.250
 6855POPC   C3B33057  43.646  44.612   7.950
 6855POPC   C4B33058  43.593  44.659   7.650
 6856POPC   NC333059  22.928   0.423   9.450
 6856POPC   PO433060  22.974   0.475   9.150
 6856POPC   GL133061  22.962   0.465   8.850
 6856POPC   GL233062  23.058   0.334   8.850
 6856POPC   C1A33063  22.931   0.441   8.550
 6856POPC   D2A33064  22.937   0.487   8.250
 6856POPC   C3A33065  22.916   0.472   7.950
 6856POPC   C4A33066  22.930   0.441   7.650
 6856POPC   C1B33067  23.163   0.312   8.550
 6856POPC   C2B33068  23.090   0.255   8.250
 6856POPC   C3B33069  23.127   0.259   7.950
 6856POPC   C4B33070  23.070   0.295   7.650
 6857POPC   NC333071   8.195  44.661   9.450
 6857POPC   PO433072   8.158  44.624   9.150
 6857POPC   GL133073   8.170  44.637   8.850
 6857POPC   GL233074   8.320  44.721   8.850
 6857POPC   C1A33075   8.184  44.678   8.550
 6857POPC   D2A33076   8.243  44.640   8.250
 6857POPC   C3A33077   8.237  44.635   7.950
 6857POPC   C4A33078   8.201  44.703   7.650
 6857POPC   C1B33079   8.397  44.662   8.550
 6857POPC   C2B33080   8.399  44.712   8.250
 6857POPC   C3B33081   8.478  44.664   7.950
 6857POPC   C4B33082   8.453  44.645   7.650
 6858POPC   NC333083  35.350   4.333   9.450
 6858POPC   PO433084  35.318   4.345   9.150
 6858POPC   GL133085  35.314   4.285   8.850
 6858POPC   GL233086  35.233   4.344   8.850
 6858POPC   C1A33087  35.378   4.363   8.550
 6858POPC   D2A33088  35.356   4.320   8.250
 6858POPC   C3A33089  35.316   4.280   7.950
 6858POPC   C4A33090  35.328   4.342   7.650
 6858POPC   C1B33091  35.103   4.287   8.550
 6858POPC   C2B33092  35.057   4.273   8.250
 6858POPC   C3B33093  35.054   4.254   7.950
 6858POPC   C4B33094  35.112   4.323   7.650
 6859POPC   NC333095   5.101  32.244   9.450
 6859POPC   PO433096   5.130  32.256   9.150
 6859POPC   GL133097   5.135  32.208   8.850
 6859POPC   GL233098   4.993  32.248   8.850
 6859POPC   C1A33099   5.093  32.272   8.550
 6859POPC   D2A33100   5.085  32.237   8.250
 6859POPC   C3A33101   5.059  32.220   7.950
 6859POPC   C4A33102   5.073  32.230   7.650
 6859POPC   C1B33103   4.821  32.125   8.550
 6859POPC   C2B33104   4.895  32.208   8.250
 6859POPC   C3B33105   4.861  32.215   7.950
 6859POPC   C4B33106   4.896  32.184   7.650
 6860POPC   NC333107   5.136  29.933   9.450
 6860POPC   PO433108   5.139  29.908   9.150
 6860POPC   GL133109   5.056  29.898   8.850
 6860POPC   GL233110   5.154  30.022   8.850
 6860POPC   C1A33111   5.082  29.929   8.550
 6860POPC   D2A33112   5.108  29.933   8.250
 6860POPC   C3A33113   5.125  29.882   7.950
 6860POPC   C4A33114   5.097  29.956   7.650
 6860POPC   C1B33115   5.278  30.071   8.550
 6860POPC   C2B33116   5.235  30.038   8.250
 6860POPC   C3B33117   5.259  30.101   7.950
 6860POPC   C4B33118   5.284  30.042   7.650
 6861POPC   NC333119   6.678  42.381   9.450
 6861POPC   PO433120   6.665  42.357   9.150
 6861POPC   GL133121   6.676  42.292   8.850
 6861POPC   GL233122   6.573  42.205   8.850
 6861POPC   C1A33123   6.664  42.316   8.550
 6861POPC   D2A33124   6.685  42.299   8.250
 6861POPC   C3A33125   6.660  42.317   7.950
 6861POPC   C4A33126   6.646  42.365   7.650
 6861POPC   C1B33127   6.471  42.074   8.550
 6861POPC   C2B33128   6.503  42.076   8.250
 6861POPC   C3B33129   6.537  42.127   7.950
 6861POPC   C4B33130   6.533  42.112   7.650
 6862POPC   NC333131  19.854   5.909   9.450
 6862POPC   PO433132  19.808   5.876   9.150
 6862POPC   GL133133  19.824   5.836   8.850
 6862POPC   GL233134  19.679   5.955   8.850
 6862POPC   C1A33135  19.854   5.893   8.550
 6862POPC   D2A33136  19.883   5.895   8.250
 6862POPC   C3A33137  19.792   5.897   7.950
 6862POPC   C4A33138  19.853   5.915   7.650
 6862POPC   C1B33139  19.645   5.933   8.550
 6862POPC   C2B33140  19.643   5.987   8.250
 6862POPC   C3B33141  19.564   5.999   7.950
 6862POPC   C4B33142  19.598   5.956   7.650
 6863POPC   NC333143  13.605  15.946   9.450
 6863POPC   PO433144  13.619  15.934   9.150
 6863POPC   GL133145  13.610  15.998   8.850
 6863POPC   GL233146  13.638  16.078   8.850
 6863POPC   C1A33147  13.590  15.924   8.550
 6863POPC   D2A33148  13.582  15.967   8.250
 6863POPC   C3A33149  13.626  15.920   7.950
 6863POPC   C4A33150  13.615  15.954   7.650
 6863POPC   C1B33151  13.705  16.187   8.550
 6863POPC   C2B33152  13.658  16.182   8.250
 6863POPC   C3B33153  13.682  16.185   7.950
 6863POPC   C4B33154  13.624  16.219   7.650
 6864POPC   NC333155  12.108  19.842   9.450
 6864POPC   PO433156  12.045  19.844   9.150
 6864POPC   GL133157  12.101  19.831   8.850
 6864POPC   GL233158  12.128  19.902   8.850
 6864POPC   C1A33159  12.086  19.861   8.550
 6864POPC   D2A33160  12.074  19.827   8.250
 6864POPC   C3A33161  12.099  19.810   7.950
 6864POPC   C4A33162  12.124  19.849   7.650
 6864POPC   C1B33163  12.224  20.074   8.550
 6864POPC   C2B33164  12.248  20.045   8.250
 6864POPC   C3B33165  12.214  20.026   7.950
 6864POPC   C4B33166  12.237  20.042   7.650
 6865POPC   NC333167  41.514  21.410   9.450
 6865POPC   PO433168  41.596  21.416   9.150
 6865POPC   GL133169  41.602  21.343   8.850
 6865POPC   GL233170  41.543  21.256   8.850
 6865POPC   C1A33171  41.557  21.368   8.550
 6865POPC   D2A33172  41.604  21.371   8.250
 6865POPC   C3A33173  41.596  21.395   7.950
 6865POPC   C4A33174  41.584  21.338   7.650
 6865POPC   C1B33175  41.595  21.159   8.550
 6865POPC   C2B33176  41.593  21.095   8.250
 6865POPC   C3B33177  41.587  21.166   7.950
 6865POPC   C4B33178  41.532  21.121   7.650
 6866POPC   NC333179  43.883  25.289   9.450
 6866POPC   PO433180  43.911  25.309   9.150
 6866POPC   GL133181  43.890  25.282   8.850
 6866POPC   GL233182  43.749  25.294   8.850
 6866POPC   C1A33183  43.934  25.238   8.550
 6866POPC   D2A33184  43.839  25.307   8.250
 6866POPC   C3A33185  43.849  25.244   7.950
 6866POPC   C4A33186  43.858  25.308   7.650
 6866POPC   C1B33187  43.710  25.418   8.550
 6866POPC   C2B33188  43.668  25.392   8.250
 6866POPC   C3B33189  43.717  25.446   7.950
 6866POPC   C4B33190  43.718  25.399   7.650
 6867POPC   NC333191  10.479   5.882   9.450
 6867POPC   PO433192  10.504   5.871   9.150
 6867POPC   GL133193  10.538   5.858   8.850
 6867POPC   GL233194  10.647   5.830   8.850
 6867POPC   C1A33195  10.489   5.846   8.550
 6867POPC   D2A33196  10.505   5.901   8.250
 6867POPC   C3A33197  10.548   5.913   7.950
 6867POPC   C4A33198  10.474   5.913   7.650
 6867POPC   C1B33199  10.778   5.748   8.550
 6867POPC   C2B33200  10.796   5.731   8.250
 6867POPC   C3B33201  10.731   5.732   7.950
 6867POPC   C4B33202  10.735   5.772   7.650
 6868POPC   NC333203  17.471   2.776   9.450
 6868POPC   PO433204  17.479   2.736   9.150
 6868POPC   GL133205  17.557   2.770   8.850
 6868POPC   GL233206  17.352   2.715   8.850
 6868POPC   C1A33207  17.549   2.756   8.550
 6868POPC   D2A33208  17.521   2.726   8.250
 6868POPC   C3A33209  17.528   2.813   7.950
 6868POPC   C4A33210  17.458   2.722   7.650
 6868POPC   C1B33211  17.281   2.584   8.550
 6868POPC   C2B33212  17.320   2.631   8.250
 6868POPC   C3B33213  17.321   2.657   7.950
 6868POPC   C4B33214  17.287   2.631   7.650
 6869POPC   NC333215   4.274  36.917   9.450
 6869POPC   PO433216   4.341  36.951   9.150
 6869POPC   GL133217   4.351  36.899   8.850
 6869POPC   GL233218   4.420  36.950   8.850
 6869POPC   C1A33219   4.315  36.923   8.550
 6869POPC   D2A33220   4.337  36.856   8.250
 6869POPC   C3A33221   4.312  36.864   7.950
 6869POPC   C4A33222   4.295  36.872   7.650
 6869POPC   C1B33223   4.569  37.016   8.550
 6869POPC   C2B33224   4.576  37.046   8.250
 6869POPC   C3B33225   4.549  36.992   7.950
 6869POPC   C4B33226   4.580  37.031   7.650
 6870POPC   NC333227  12.100   5.093   9.450
 6870POPC   PO433228  12.031   5.074   9.150
 6870POPC   GL133229  12.101   5.072   8.850
 6870POPC   GL233230  12.193   5.120   8.850
 6870POPC   C1A33231  12.063   5.100   8.550
 6870POPC   D2A33232  12.057   5.097   8.250
 6870POPC   C3A33233  12.123   5.070   7.950
 6870POPC   C4A33234  12.124   5.081   7.650
 6870POPC   C1B33235  12.372   5.145   8.550
 6870POPC   C2B33236  12.279   5.093   8.250
 6870POPC   C3B33237  12.358   5.070   7.950
 6870POPC   C4B33238  12.306   5.116   7.650
 6871POPC   NC333239   1.962  25.250   9.450
 6871POPC   PO433240   1.941  25.291   9.150
 6871POPC   GL133241   2.038  25.272   8.850
 6871POPC   GL233242   1.989  25.379   8.850
 6871POPC   C1A33243   1.974  25.265   8.550
 6871POPC   D2A33244   1.956  25.255   8.250
 6871POPC   C3A33245   2.014  25.220   7.950
 6871POPC   C4A33246   2.023  25.224   7.650
 6871POPC   C1B33247   2.099  25.489   8.550
 6871POPC   C2B33248   2.097  25.464   8.250
 6871POPC   C3B33249   2.065  25.464   7.950
 6871POPC   C4B33250   2.022  25.513   7.650
 6872POPC   NC333251  25.251  22.976   9.450
 6872POPC   PO433252  25.274  22.929   9.150
 6872POPC   GL133253  25.243  22.921   8.850
 6872POPC   GL233254  25.409  22.997   8.850
 6872POPC   C1A33255  25.266  22.968   8.550
 6872POPC   D2A33256  25.231  22.978   8.250
 6872POPC   C3A33257  25.297  22.911   7.950
 6872POPC   C4A33258  25.307  22.975   7.650
 6872POPC   C1B33259  25.498  23.093   8.550
 6872POPC   C2B33260  25.514  23.066   8.250
 6872POPC   C3B33261  25.458  23.114   7.950
 6872POPC   C4B33262  25.437  23.110   7.650
 6873POPC   NC333263   5.838  10.478   9.450
 6873POPC   PO433264   5.911  10.536   9.150
 6873POPC   GL133265   5.868  10.491   8.850
 6873POPC   GL233266   5.937  10.439   8.850
 6873POPC   C1A33267   5.852  10.573   8.550
 6873POPC   D2A33268   5.832  10.517   8.250
 6873POPC   C3A33269   5.834  10.544   7.950
 6873POPC   C4A33270   5.846  10.489   7.650
 6873POPC   C1B33271   5.930  10.267   8.550
 6873POPC   C2B33272   5.962  10.266   8.250
 6873POPC   C3B33273   5.960  10.252   7.950
 6873POPC   C4B33274   5.936  10.278   7.650
 6874POPC   NC333275  43.075   3.500   9.450
 6874POPC   PO433276  43.100   3.497   9.150
 6874POPC   GL133277  43.075   3.584   8.850
 6874POPC   GL233278  43.169   3.417   8.850
 6874POPC   C1A33279  43.120   3.554   8.550
 6874POPC   D2A33280  43.093   3.526   8.250
 6874POPC   C3A33281  43.089   3.556   7.950
 6874POPC   C4A33282  43.154   3.506   7.650
 6874POPC   C1B33283  43.232   3.314   8.550
 6874POPC   C2B33284  43.227   3.373   8.250
 6874POPC   C3B33285  43.209   3.330   7.950
 6874POPC   C4B33286  43.262   3.340   7.650
 6875POPC   NC333287  10.506  37.673   9.450
 6875POPC   PO433288  10.564  37.659   9.150
 6875POPC   GL133289  10.514  37.706   8.850
 6875POPC   GL233290  10.359  37.733   8.850
 6875POPC   C1A33291  10.478  37.641   8.550
 6875POPC   D2A33292  10.547  37.715   8.250
 6875POPC   C3A33293  10.503  37.643   7.950
 6875POPC   C4A33294  10.499  37.639   7.650
 6875POPC   C1B33295  10.261  37.816   8.550
 6875POPC   C2B33296  10.268  37.797   8.250
 6875POPC   C3B33297  10.255  37.807   7.950
 6875POPC   C4B33298  10.271  37.729   7.650
 6876POPC   NC333299  35.332  32.210   9.450
 6876POPC   PO433300  35.304  32.256   9.150
 6876POPC   GL133301  35.397  32.245   8.850
 6876POPC   GL233302  35.254  32.215   8.850
 6876POPC   C1A33303  35.349  32.283   8.550
 6876POPC   D2A33304  35.342  32.230   8.250
 6876POPC   C3A33305  35.330  32.265   7.950
 6876POPC   C4A33306  35.349  32.263   7.650
 6876POPC   C1B33307  35.176  32.106   8.550
 6876POPC   C2B33308  35.120  32.121   8.250
 6876POPC   C3B33309  35.167  32.146   7.950
 6876POPC   C4B33310  35.109  32.139   7.650
 6877POPC   NC333311  22.192  27.585   9.450
 6877POPC   PO433312  22.168  27.554   9.150
 6877POPC   GL133313  22.194  27.629   8.850
 6877POPC   GL233314  22.159  27.723   8.850
 6877POPC   C1A33315  22.180  27.574   8.550
 6877POPC   D2A33316  22.122  27.547   8.250
 6877POPC   C3A33317  22.189  27.546   7.950
 6877POPC   C4A33318  22.205  27.584   7.650
 6877POPC   C1B33319  22.255  27.874   8.550
 6877POPC   C2B33320  22.245  27.827   8.250
 6877POPC   C3B33321  22.191  27.844   7.950
 6877POPC   C4B33322  22.191  27.865   7.650
 6878POPC   NC333323  19.080  33.061   9.450
 6878POPC   PO433324  19.107  33.006   9.150
 6878POPC   GL133325  19.107  33.068   8.850
 6878POPC   GL233326  18.902  32.960   8.850
 6878POPC   C1A33327  19.063  33.073   8.550
 6878POPC   D2A33328  19.015  33.012   8.250
 6878POPC   C3A33329  19.045  33.067   7.950
 6878POPC   C4A33330  19.099  33.000   7.650
 6878POPC   C1B33331  18.810  33.018   8.550
 6878POPC   C2B33332  18.787  33.032   8.250
 6878POPC   C3B33333  18.775  32.996   7.950
 6878POPC   C4B33334  18.790  32.985   7.650
 6879POPC   NC333335  38.449  43.069   9.450
 6879POPC   PO433336  38.428  43.109   9.150
 6879POPC   GL133337  38.412  43.140   8.850
 6879POPC   GL233338  38.315  43.054   8.850
 6879POPC   C1A33339  38.421  43.071   8.550
 6879POPC   D2A33340  38.477  43.157   8.250
 6879POPC   C3A33341  38.466  43.097   7.950
 6879POPC   C4A33342  38.486  43.149   7.650
 6879POPC   C1B33343  38.271  42.902   8.550
 6879POPC   C2B33344  38.248  42.983   8.250
 6879POPC   C3B33345  38.269  42.938   7.950
 6879POPC   C4B33346  38.287  42.938   7.650
 6880POPC   NC333347  24.483   3.530   9.450
 6880POPC   PO433348  24.441   3.562   9.150
 6880POPC   GL133349  24.454   3.540   8.850
 6880POPC   GL233350  24.320   3.487   8.850
 6880POPC   C1A33351  24.465   3.586   8.550
 6880POPC   D2A33352  24.529   3.553   8.250
 6880POPC   C3A33353  24.531   3.528   7.950
 6880POPC   C4A33354  24.512   3.493   7.650
 6880POPC   C1B33355  24.257   3.533   8.550
 6880POPC   C2B33356  24.226   3.447   8.250
 6880POPC   C3B33357  24.255   3.505   7.950
 6880POPC   C4B33358  24.216   3.513   7.650
 6881POPC   NC333359   3.506   1.261   9.450
 6881POPC   PO433360   3.537   1.199   9.150
 6881POPC   GL133361   3.588   1.246   8.850
 6881POPC   GL233362   3.663   1.171   8.850
 6881POPC   C1A33363   3.559   1.260   8.550
 6881POPC   D2A33364   3.584   1.227   8.250
 6881POPC   C3A33365   3.577   1.188   7.950
 6881POPC   C4A33366   3.537   1.247   7.650
 6881POPC   C1B33367   3.800   1.232   8.550
 6881POPC   C2B33368   3.763   1.179   8.250
 6881POPC   C3B33369   3.755   1.209   7.950
 6881POPC   C4B33370   3.820   1.197   7.650
 6882POPC   NC333371  18.295  12.884   9.450
 6882POPC   PO433372  18.325  12.838   9.150
 6882POPC   GL133373  18.283  12.889   8.850
 6882POPC   GL233374  18.396  12.842   8.850
 6882POPC   C1A33375  18.286  12.865   8.550
 6882POPC   D2A33376  18.326  12.882   8.250
 6882POPC   C3A33377  18.263  12.867   7.950
 6882POPC   C4A33378  18.275  12.808   7.650
 6882POPC   C1B33379  18.501  12.925   8.550
 6882POPC   C2B33380  18.567  12.930   8.250
 6882POPC   C3B33381  18.505  12.903   7.950
 6882POPC   C4B33382  18.554  12.889   7.650
 6883POPC   NC333383   4.354  19.802   9.450
 6883POPC   PO433384   4.362  19.788   9.150
 6883POPC   GL133385   4.291  19.851   8.850
 6883POPC   GL233386   4.225  19.705   8.850
 6883POPC   C1A33387   4.363  19.835   8.550
 6883POPC   D2A33388   4.326  19.824   8.250
 6883POPC   C3A33389   4.306  19.793   7.950
 6883POPC   C4A33390   4.280  19.858   7.650
 6883POPC   C1B33391   4.244  19.622   8.550
 6883POPC   C2B33392   4.199  19.653   8.250
 6883POPC   C3B33393   4.230  19.573   7.950
 6883POPC   C4B33394   4.237  19.564   7.650
 6884POPC   NC333395  31.510   6.679   9.450
 6884POPC   PO433396  31.496   6.605   9.150
 6884POPC   GL133397  31.494   6.650   8.850
 6884POPC   GL233398  31.630   6.663   8.850
 6884POPC   C1A33399  31.449   6.656   8.550
 6884POPC   D2A33400  31.495   6.601   8.250
 6884POPC   C3A33401  31.448   6.664   7.950
 6884POPC   C4A33402  31.451   6.683   7.650
 6884POPC   C1B33403  31.757   6.644   8.550
 6884POPC   C2B33404  31.683   6.652   8.250
 6884POPC   C3B33405  31.706   6.590   7.950
 6884POPC   C4B33406  31.728   6.579   7.650
 6885POPC   NC333407  16.741   2.036   9.450
 6885POPC   PO433408  16.719   2.033   9.150
 6885POPC   GL133409  16.726   2.026   8.850
 6885POPC   GL233410  16.640   1.894   8.850
 6885POPC   C1A33411  16.716   1.989   8.550
 6885POPC   D2A33412  16.694   2.008   8.250
 6885POPC   C3A33413  16.733   2.004   7.950
 6885POPC   C4A33414  16.779   2.007   7.650
 6885POPC   C1B33415  16.549   1.882   8.550
 6885POPC   C2B33416  16.518   1.875   8.250
 6885POPC   C3B33417  16.500   1.836   7.950
 6885POPC   C4B33418  16.550   1.814   7.650
 6886POPC   NC333419  19.849  36.149   9.450
 6886POPC   PO433420  19.791  36.080   9.150
 6886POPC   GL133421  19.864  36.099   8.850
 6886POPC   GL233422  19.729  36.277   8.850
 6886POPC   C1A33423  19.788  36.150   8.550
 6886POPC   D2A33424  19.862  36.089   8.250
 6886POPC   C3A33425  19.808  36.093   7.950
 6886POPC   C4A33426  19.866  36.133   7.650
 6886POPC   C1B33427  19.670  36.385   8.550
 6886POPC   C2B33428  19.712  36.336   8.250
 6886POPC   C3B33429  19.743  36.326   7.950
 6886POPC   C4B33430  19.682  36.374   7.650
 6887POPC   NC333431   5.844  37.728   9.450
 6887POPC   PO433432   5.861  37.656   9.150
 6887POPC   GL133433   5.820  37.663   8.850
 6887POPC   GL233434   5.796  37.757   8.850
 6887POPC   C1A33435   5.821  37.726   8.550
 6887POPC   D2A33436   5.904  37.665   8.250
 6887POPC   C3A33437   5.905  37.657   7.950
 6887POPC   C4A33438   5.891  37.642   7.650
 6887POPC   C1B33439   5.641  37.699   8.550
 6887POPC   C2B33440   5.629  37.772   8.250
 6887POPC   C3B33441   5.647  37.755   7.950
 6887POPC   C4B33442   5.631  37.741   7.650
 6888POPC   NC333443   5.840   7.424   9.450
 6888POPC   PO433444   5.890   7.406   9.150
 6888POPC   GL133445   5.909   7.402   8.850
 6888POPC   GL233446   5.993   7.327   8.850
 6888POPC   C1A33447   5.822   7.445   8.550
 6888POPC   D2A33448   5.879   7.396   8.250
 6888POPC   C3A33449   5.874   7.378   7.950
 6888POPC   C4A33450   5.855   7.431   7.650
 6888POPC   C1B33451   6.047   7.206   8.550
 6888POPC   C2B33452   5.991   7.214   8.250
 6888POPC   C3B33453   6.039   7.264   7.950
 6888POPC   C4B33454   6.077   7.204   7.650
 6889POPC   NC333455  14.440  30.686   9.450
 6889POPC   PO433456  14.395  30.744   9.150
 6889POPC   GL133457  14.377  30.664   8.850
 6889POPC   GL233458  14.291  30.623   8.850
 6889POPC   C1A33459  14.423  30.662   8.550
 6889POPC   D2A33460  14.443  30.737   8.250
 6889POPC   C3A33461  14.371  30.697   7.950
 6889POPC   C4A33462  14.414  30.695   7.650
 6889POPC   C1B33463  14.117  30.681   8.550
 6889POPC   C2B33464  14.125  30.670   8.250
 6889POPC   C3B33465  14.194  30.611   7.950
 6889POPC   C4B33466  14.126  30.674   7.650
 6890POPC   NC333467  34.538  41.562   9.450
 6890POPC   PO433468  34.563  41.543   9.150
 6890POPC   GL133469  34.576  41.595   8.850
 6890POPC   GL233470  34.673  41.576   8.850
 6890POPC   C1A33471  34.563  41.557   8.550
 6890POPC   D2A33472  34.606  41.552   8.250
 6890POPC   C3A33473  34.595  41.528   7.950
 6890POPC   C4A33474  34.563  41.593   7.650
 6890POPC   C1B33475  34.823  41.537   8.550
 6890POPC   C2B33476  34.777  41.564   8.250
 6890POPC   C3B33477  34.865  41.556   7.950
 6890POPC   C4B33478  34.791  41.512   7.650
 6891POPC   NC333479  14.372  25.285   9.450
 6891POPC   PO433480  14.425  25.246   9.150
 6891POPC   GL133481  14.414  25.217   8.850
 6891POPC   GL233482  14.284  25.397   8.850
 6891POPC   C1A33483  14.379  25.238   8.550
 6891POPC   D2A33484  14.395  25.312   8.250
 6891POPC   C3A33485  14.450  25.226   7.950
 6891POPC   C4A33486  14.366  25.244   7.650
 6891POPC   C1B33487  14.265  25.387   8.550
 6891POPC   C2B33488  14.176  25.385   8.250
 6891POPC   C3B33489  14.230  25.409   7.950
 6891POPC   C4B33490  14.196  25.392   7.650
 6892POPC   NC333491  31.430  29.192   9.450
 6892POPC   PO433492  31.498  29.132   9.150
 6892POPC   GL133493  31.430  29.189   8.850
 6892POPC   GL233494  31.576  29.114   8.850
 6892POPC   C1A33495  31.506  29.195   8.550
 6892POPC   D2A33496  31.491  29.171   8.250
 6892POPC   C3A33497  31.444  29.128   7.950
 6892POPC   C4A33498  31.496  29.113   7.650
 6892POPC   C1B33499  31.770  29.187   8.550
 6892POPC   C2B33500  31.744  29.125   8.250
 6892POPC   C3B33501  31.738  29.155   7.950
 6892POPC   C4B33502  31.677  29.157   7.650
 6893POPC   NC333503  28.338   2.014   9.450
 6893POPC   PO433504  28.372   1.956   9.150
 6893POPC   GL133505  28.410   2.013   8.850
 6893POPC   GL233506  28.510   1.869   8.850
 6893POPC   C1A33507  28.357   2.025   8.550
 6893POPC   D2A33508  28.348   1.947   8.250
 6893POPC   C3A33509  28.387   1.988   7.950
 6893POPC   C4A33510  28.322   1.967   7.650
 6893POPC   C1B33511  28.562   1.874   8.550
 6893POPC   C2B33512  28.516   1.860   8.250
 6893POPC   C3B33513  28.585   1.800   7.950
 6893POPC   C4B33514  28.584   1.799   7.650
 6894POPC   NC333515  40.797  18.235   9.450
 6894POPC   PO433516  40.780  18.272   9.150
 6894POPC   GL133517  40.766  18.297   8.850
 6894POPC   GL233518  40.710  18.394   8.850
 6894POPC   C1A33519  40.761  18.267   8.550
 6894POPC   D2A33520  40.810  18.332   8.250
 6894POPC   C3A33521  40.752  18.273   7.950
 6894POPC   C4A33522  40.735  18.319   7.650
 6894POPC   C1B33523  40.599  18.481   8.550
 6894POPC   C2B33524  40.598  18.440   8.250
 6894POPC   C3B33525  40.618  18.474   7.950
 6894POPC   C4B33526  40.560  18.415   7.650
 6895POPC   NC333527  19.014  31.490   9.450
 6895POPC   PO433528  19.079  31.493   9.150
 6895POPC   GL133529  19.041  31.499   8.850
 6895POPC   GL233530  19.039  31.570   8.850
 6895POPC   C1A33531  19.108  31.468   8.550
 6895POPC   D2A33532  19.020  31.450   8.250
 6895POPC   C3A33533  19.071  31.497   7.950
 6895POPC   C4A33534  19.056  31.425   7.650
 6895POPC   C1B33535  19.000  31.696   8.550
 6895POPC   C2B33536  19.022  31.765   8.250
 6895POPC   C3B33537  19.082  31.762   7.950
 6895POPC   C4B33538  19.025  31.728   7.650
 6896POPC   NC333539  17.549  28.364   9.450
 6896POPC   PO433540  17.512  28.372   9.150
 6896POPC   GL133541  17.461  28.345   8.850
 6896POPC   GL233542  17.379  28.353   8.850
 6896POPC   C1A33543  17.554  28.320   8.550
 6896POPC   D2A33544  17.462  28.368   8.250
 6896POPC   C3A33545  17.474  28.403   7.950
 6896POPC   C4A33546  17.477  28.373   7.650
 6896POPC   C1B33547  17.303  28.374   8.550
 6896POPC   C2B33548  17.279  28.372   8.250
 6896POPC   C3B33549  17.272  28.375   7.950
 6896POPC   C4B33550  17.238  28.430   7.650
 6897POPC   NC333551  33.019   2.756   9.450
 6897POPC   PO433552  33.028   2.735   9.150
 6897POPC   GL133553  33.004   2.776   8.850
 6897POPC   GL233554  33.140   2.721   8.850
 6897POPC   C1A33555  32.980   2.785   8.550
 6897POPC   D2A33556  33.005   2.767   8.250
 6897POPC   C3A33557  33.044   2.769   7.950
 6897POPC   C4A33558  33.053   2.759   7.650
 6897POPC   C1B33559  33.255   2.747   8.550
 6897POPC   C2B33560  33.311   2.783   8.250
 6897POPC   C3B33561  33.262   2.788   7.950
 6897POPC   C4B33562  33.224   2.758   7.650
 6898POPC   NC333563  15.932  43.904   9.450
 6898POPC   PO433564  15.931  43.928   9.150
 6898POPC   GL133565  15.999  43.928   8.850
 6898POPC   GL233566  15.813  43.800   8.850
 6898POPC   C1A33567  15.980  43.854   8.550
 6898POPC   D2A33568  15.950  43.885   8.250
 6898POPC   C3A33569  15.963  43.919   7.950
 6898POPC   C4A33570  15.934  43.935   7.650
 6898POPC   C1B33571  15.746  43.779   8.550
 6898POPC   C2B33572  15.720  43.726   8.250
 6898POPC   C3B33573  15.708  43.724   7.950
 6898POPC   C4B33574  15.757  43.718   7.650
 6899POPC   NC333575  32.279  10.477   9.450
 6899POPC   PO433576  32.295  10.554   9.150
 6899POPC   GL133577  32.215  10.574   8.850
 6899POPC   GL233578  32.285  10.685   8.850
 6899POPC   C1A33579  32.236  10.489   8.550
 6899POPC   D2A33580  32.269  10.559   8.250
 6899POPC   C3A33581  32.228  10.513   7.950
 6899POPC   C4A33582  32.207  10.537   7.650
 6899POPC   C1B33583  32.263  10.777   8.550
 6899POPC   C2B33584  32.268  10.728   8.250
 6899POPC   C3B33585  32.265  10.797   7.950
 6899POPC   C4B33586  32.276  10.750   7.650
 6900POPC   NC333587   0.396  33.051   9.450
 6900POPC   PO433588   0.396  33.067   9.150
 6900POPC   GL133589   0.418  33.050   8.850
 6900POPC   GL233590   0.609  32.983   8.850
 6900POPC   C1A33591   0.451  33.054   8.550
 6900POPC   D2A33592   0.450  33.034   8.250
 6900POPC   C3A33593   0.473  33.035   7.950
 6900POPC   C4A33594   0.391  33.038   7.650
 6900POPC   C1B33595   0.675  33.010   8.550
 6900POPC   C2B33596   0.731  33.006   8.250
 6900POPC   C3B33597   0.643  32.951   7.950
 6900POPC   C4B33598   0.664  32.941   7.650
 6901POPC   NC333599  39.190  11.345   9.450
 6901POPC   PO433600  39.269  11.262   9.150
 6901POPC   GL133601  39.262  11.289   8.850
 6901POPC   GL233602  39.381  11.367   8.850
 6901POPC   C1A33603  39.261  11.295   8.550
 6901POPC   D2A33604  39.236  11.341   8.250
 6901POPC   C3A33605  39.208  11.310   7.950
 6901POPC   C4A33606  39.246  11.332   7.650
 6901POPC   C1B33607  39.444  11.377   8.550
 6901POPC   C2B33608  39.482  11.409   8.250
 6901POPC   C3B33609  39.425  11.388   7.950
 6901POPC   C4B33610  39.507  11.414   7.650
 6902POPC   NC333611  27.555   5.850   9.450
 6902POPC   PO433612  27.557   5.834   9.150
 6902POPC   GL133613  27.637   5.862   8.850
 6902POPC   GL233614  27.736   5.939   8.850
 6902POPC   C1A33615  27.563   5.906   8.550
 6902POPC   D2A33616  27.561   5.884   8.250
 6902POPC   C3A33617  27.599   5.840   7.950
 6902POPC   C4A33618  27.551   5.857   7.650
 6902POPC   C1B33619  27.811   5.952   8.550
 6902POPC   C2B33620  27.812   5.968   8.250
 6902POPC   C3B33621  27.784   5.913   7.950
 6902POPC   C4B33622  27.822   5.987   7.650
 6903POPC   NC333623  43.103   1.174   9.450
 6903POPC   PO433624  43.099   1.250   9.150
 6903POPC   GL133625  43.160   1.188   8.850
 6903POPC   GL233626  43.046   1.137   8.850
 6903POPC   C1A33627  43.159   1.192   8.550
 6903POPC   D2A33628  43.123   1.179   8.250
 6903POPC   C3A33629  43.073   1.214   7.950
 6903POPC   C4A33630  43.087   1.221   7.650
 6903POPC   C1B33631  42.958   1.064   8.550
 6903POPC   C2B33632  42.935   1.060   8.250
 6903POPC   C3B33633  42.871   1.067   7.950
 6903POPC   C4B33634  42.931   1.030   7.650
 6904POPC   NC333635  36.903  18.276   9.450
 6904POPC   PO433636  36.884  18.293   9.150
 6904POPC   GL133637  36.883  18.291   8.850
 6904POPC   GL233638  36.947  18.216   8.850
 6904POPC   C1A33639  36.908  18.326   8.550
 6904POPC   D2A33640  36.872  18.240   8.250
 6904POPC   C3A33641  36.886  18.257   7.950
 6904POPC   C4A33642  36.948  18.330   7.650
 6904POPC   C1B33643  36.986  18.081   8.550
 6904POPC   C2B33644  37.044  18.036   8.250
 6904POPC   C3B33645  37.068  18.113   7.950
 6904POPC   C4B33646  37.064  18.021   7.650
 6905POPC   NC333647  36.140  34.559   9.450
 6905POPC   PO433648  36.149  34.535   9.150
 6905POPC   GL133649  36.099  34.573   8.850
 6905POPC   GL233650  36.009  34.545   8.850
 6905POPC   C1A33651  36.135  34.550   8.550
 6905POPC   D2A33652  36.082  34.555   8.250
 6905POPC   C3A33653  36.111  34.549   7.950
 6905POPC   C4A33654  36.160  34.538   7.650
 6905POPC   C1B33655  35.914  34.489   8.550
 6905POPC   C2B33656  35.866  34.511   8.250
 6905POPC   C3B33657  35.904  34.468   7.950
 6905POPC   C4B33658  35.929  34.455   7.650
 6906POPC   NC333659  14.400   6.630   9.450
 6906POPC   PO433660  14.369   6.664   9.150
 6906POPC   GL133661  14.447   6.620   8.850
 6906POPC   GL233662  14.538   6.578   8.850
 6906POPC   C1A33663  14.427   6.616   8.550
 6906POPC   D2A33664  14.357   6.626   8.250
 6906POPC   C3A33665  14.403   6.687   7.950
 6906POPC   C4A33666  14.424   6.623   7.650
 6906POPC   C1B33667  14.649   6.552   8.550
 6906POPC   C2B33668  14.646   6.521   8.250
 6906POPC   C3B33669  14.592   6.550   7.950
 6906POPC   C4B33670  14.622   6.489   7.650
 6907POPC   NC333671  13.600  24.513   9.450
 6907POPC   PO433672  13.669  24.498   9.150
 6907POPC   GL133673  13.612  24.448   8.850
 6907POPC   GL233674  13.528  24.426   8.850
 6907POPC   C1A33675  13.592  24.456   8.550
 6907POPC   D2A33676  13.596  24.538   8.250
 6907POPC   C3A33677  13.606  24.483   7.950
 6907POPC   C4A33678  13.677  24.472   7.650
 6907POPC   C1B33679  13.461  24.243   8.550
 6907POPC   C2B33680  13.436  24.258   8.250
 6907POPC   C3B33681  13.513  24.276   7.950
 6907POPC   C4B33682  13.535  24.334   7.650
 6908POPC   NC333683   1.193  31.466   9.450
 6908POPC   PO433684   1.228  31.505   9.150
 6908POPC   GL133685   1.252  31.513   8.850
 6908POPC   GL233686   1.179  31.386   8.850
 6908POPC   C1A33687   1.178  31.514   8.550
 6908POPC   D2A33688   1.170  31.489   8.250
 6908POPC   C3A33689   1.195  31.446   7.950
 6908POPC   C4A33690   1.205  31.454   7.650
 6908POPC   C1B33691   1.186  31.201   8.550
 6908POPC   C2B33692   1.156  31.188   8.250
 6908POPC   C3B33693   1.148  31.270   7.950
 6908POPC   C4B33694   1.203  31.213   7.650
 6909POPC   NC333695  11.329  25.281   9.450
 6909POPC   PO433696  11.348  25.274   9.150
 6909POPC   GL133697  11.276  25.271   8.850
 6909POPC   GL233698  11.443  25.215   8.850
 6909POPC   C1A33699  11.321  25.301   8.550
 6909POPC   D2A33700  11.306  25.258   8.250
 6909POPC   C3A33701  11.252  25.264   7.950
 6909POPC   C4A33702  11.336  25.264   7.650
 6909POPC   C1B33703  11.585  25.216   8.550
 6909POPC   C2B33704  11.556  25.271   8.250
 6909POPC   C3B33705  11.586  25.221   7.950
 6909POPC   C4B33706  11.531  25.273   7.650
 6910POPC   NC333707  20.655  40.787   9.450
 6910POPC   PO433708  20.639  40.809   9.150
 6910POPC   GL133709  20.637  40.825   8.850
 6910POPC   GL233710  20.579  40.897   8.850
 6910POPC   C1A33711  20.645  40.828   8.550
 6910POPC   D2A33712  20.599  40.812   8.250
 6910POPC   C3A33713  20.638  40.799   7.950
 6910POPC   C4A33714  20.645  40.804   7.650
 6910POPC   C1B33715  20.510  41.000   8.550
 6910POPC   C2B33716  20.524  40.987   8.250
 6910POPC   C3B33717  20.506  41.050   7.950
 6910POPC   C4B33718  20.462  41.035   7.650
 6911POPC   NC333719  10.477  21.389   9.450
 6911POPC   PO433720  10.475  21.419   9.150
 6911POPC   GL133721  10.501  21.421   8.850
 6911POPC   GL233722  10.515  21.272   8.850
 6911POPC   C1A33723  10.542  21.400   8.550
 6911POPC   D2A33724  10.520  21.425   8.250
 6911POPC   C3A33725  10.486  21.369   7.950
 6911POPC   C4A33726  10.545  21.385   7.650
 6911POPC   C1B33727  10.544  21.149   8.550
 6911POPC   C2B33728  10.520  21.179   8.250
 6911POPC   C3B33729  10.548  21.164   7.950
 6911POPC   C4B33730  10.523  21.117   7.650
 6912POPC   NC333731  15.981  12.805   9.450
 6912POPC   PO433732  15.913  12.826   9.150
 6912POPC   GL133733  15.939  12.805   8.850
 6912POPC   GL233734  16.069  12.912   8.850
 6912POPC   C1A33735  15.988  12.809   8.550
 6912POPC   D2A33736  15.995  12.865   8.250
 6912POPC   C3A33737  15.911  12.847   7.950
 6912POPC   C4A33738  15.939  12.829   7.650
 6912POPC   C1B33739  16.182  13.015   8.550
 6912POPC   C2B33740  16.115  13.031   8.250
 6912POPC   C3B33741  16.125  13.063   7.950
 6912POPC   C4B33742  16.151  12.967   7.650
 6913POPC   NC333743  33.823  23.704   9.450
 6913POPC   PO433744  33.818  23.715   9.150
 6913POPC   GL133745  33.809  23.701   8.850
 6913POPC   GL233746  33.855  23.850   8.850
 6913POPC   C1A33747  33.783  23.688   8.550
 6913POPC   D2A33748  33.775  23.746   8.250
 6913POPC   C3A33749  33.827  23.734   7.950
 6913POPC   C4A33750  33.757  23.762   7.650
 6913POPC   C1B33751  33.840  23.979   8.550
 6913POPC   C2B33752  33.803  23.990   8.250
 6913POPC   C3B33753  33.854  24.000   7.950
 6913POPC   C4B33754  33.798  23.938   7.650
 6914POPC   NC333755  39.988  16.723   9.450
 6914POPC   PO433756  40.018  16.733   9.150
 6914POPC   GL133757  40.034  16.742   8.850
 6914POPC   GL233758  40.010  16.838   8.850
 6914POPC   C1A33759  40.042  16.728   8.550
 6914POPC   D2A33760  40.040  16.715   8.250
 6914POPC   C3A33761  40.019  16.753   7.950
 6914POPC   C4A33762  40.046  16.767   7.650
 6914POPC   C1B33763  40.015  16.997   8.550
 6914POPC   C2B33764  39.990  16.957   8.250
 6914POPC   C3B33765  40.046  17.022   7.950
 6914POPC   C4B33766  39.977  17.009   7.650
 6915POPC   NC333767  20.603  14.382   9.450
 6915POPC   PO433768  20.582  14.355   9.150
 6915POPC   GL133769  20.645  14.440   8.850
 6915POPC   GL233770  20.566  14.517   8.850
 6915POPC   C1A33771  20.612  14.394   8.550
 6915POPC   D2A33772  20.608  14.423   8.250
 6915POPC   C3A33773  20.599  14.445   7.950
 6915POPC   C4A33774  20.583  14.432   7.650
 6915POPC   C1B33775  20.469  14.625   8.550
 6915POPC   C2B33776  20.496  14.661   8.250
 6915POPC   C3B33777  20.466  14.609   7.950
 6915POPC   C4B33778  20.518  14.605   7.650
 6916POPC   NC333779  32.204  19.832   9.450
 6916POPC   PO433780  32.230  19.787   9.150
 6916POPC   GL133781  32.291  19.802   8.850
 6916POPC   GL233782  32.097  19.828   8.850
 6916POPC   C1A33783  32.227  19.861   8.550
 6916POPC   D2A33784  32.292  19.848   8.250
 6916POPC   C3A33785  32.294  19.803   7.950
 6916POPC   C4A33786  32.234  19.871   7.650
 6916POPC   C1B33787  31.950  19.850   8.550
 6916POPC   C2B33788  32.048  19.802   8.250
 6916POPC   C3B33789  31.951  19.842   7.950
 6916POPC   C4B33790  31.977  19.774   7.650
 6917POPC   NC333791   3.558  27.585   9.450
 6917POPC   PO433792   3.538  27.550   9.150
 6917POPC   GL133793   3.577  27.588   8.850
 6917POPC   GL233794   3.453  27.642   8.850
 6917POPC   C1A33795   3.514  27.617   8.550
 6917POPC   D2A33796   3.510  27.586   8.250
 6917POPC   C3A33797   3.552  27.572   7.950
 6917POPC   C4A33798   3.590  27.586   7.650
 6917POPC   C1B33799   3.413  27.776   8.550
 6917POPC   C2B33800   3.376  27.789   8.250
 6917POPC   C3B33801   3.321  27.772   7.950
 6917POPC   C4B33802   3.395  27.725   7.650
 6918POPC   NC333803  16.770  43.848   9.450
 6918POPC   PO433804  16.752  43.838   9.150
 6918POPC   GL133805  16.765  43.875   8.850
 6918POPC   GL233806  16.653  43.783   8.850
 6918POPC   C1A33807  16.728  43.901   8.550
 6918POPC   D2A33808  16.687  43.923   8.250
 6918POPC   C3A33809  16.750  43.909   7.950
 6918POPC   C4A33810  16.772  43.931   7.650
 6918POPC   C1B33811  16.560  43.721   8.550
 6918POPC   C2B33812  16.555  43.680   8.250
 6918POPC   C3B33813  16.542  43.708   7.950
 6918POPC   C4B33814  16.628  43.701   7.650
 6919POPC   NC333815  40.043  15.969   9.450
 6919POPC   PO433816  39.990  15.992   9.150
 6919POPC   GL133817  40.010  15.907   8.850
 6919POPC   GL233818  40.146  15.906   8.850
 6919POPC   C1A33819  40.023  15.955   8.550
 6919POPC   D2A33820  40.022  15.963   8.250
 6919POPC   C3A33821  40.051  15.917   7.950
 6919POPC   C4A33822  40.038  16.001   7.650
 6919POPC   C1B33823  40.214  15.953   8.550
 6919POPC   C2B33824  40.279  15.945   8.250
 6919POPC   C3B33825  40.222  15.970   7.950
 6919POPC   C4B33826  40.302  15.905   7.650
 6920POPC   NC333827  29.925   1.263   9.450
 6920POPC   PO433828  29.891   1.262   9.150
 6920POPC   GL133829  29.881   1.239   8.850
 6920POPC   GL233830  29.868   1.052   8.850
 6920POPC   C1A33831  29.886   1.261   8.550
 6920POPC   D2A33832  29.950   1.214   8.250
 6920POPC   C3A33833  29.887   1.232   7.950
 6920POPC   C4A33834  29.950   1.176   7.650
 6920POPC   C1B33835  29.850   0.949   8.550
 6920POPC   C2B33836  29.834   1.009   8.250
 6920POPC   C3B33837  29.877   0.965   7.950
 6920POPC   C4B33838  29.836   0.957   7.650
 6921POPC   NC333839  28.405  22.196   9.450
 6921POPC   PO433840  28.320  22.141   9.150
 6921POPC   GL133841  28.343  22.211   8.850
 6921POPC   GL233842  28.445  22.305   8.850
 6921POPC   C1A33843  28.392  22.199   8.550
 6921POPC   D2A33844  28.358  22.208   8.250
 6921POPC   C3A33845  28.407  22.119   7.950
 6921POPC   C4A33846  28.409  22.210   7.650
 6921POPC   C1B33847  28.472  22.393   8.550
 6921POPC   C2B33848  28.553  22.374   8.250
 6921POPC   C3B33849  28.471  22.355   7.950
 6921POPC   C4B33850  28.513  22.343   7.650
 6922POPC   NC333851  15.971  23.693   9.450
 6922POPC   PO433852  15.972  23.701   9.150
 6922POPC   GL133853  15.913  23.718   8.850
 6922POPC   GL233854  15.853  23.784   8.850
 6922POPC   C1A33855  15.963  23.703   8.550
 6922POPC   D2A33856  15.998  23.679   8.250
 6922POPC   C3A33857  15.980  23.670   7.950
 6922POPC   C4A33858  15.987  23.704   7.650
 6922POPC   C1B33859  15.684  23.782   8.550
 6922POPC   C2B33860  15.759  23.813   8.250
 6922POPC   C3B33861  15.758  23.746   7.950
 6922POPC   C4B33862  15.744  23.761   7.650
 6923POPC   NC333863  18.324  39.267   9.450
 6923POPC   PO433864  18.326  39.220   9.150
 6923POPC   GL133865  18.323  39.270   8.850
 6923POPC   GL233866  18.352  39.153   8.850
 6923POPC   C1A33867  18.294  39.193   8.550
 6923POPC   D2A33868  18.332  39.239   8.250
 6923POPC   C3A33869  18.279  39.268   7.950
 6923POPC   C4A33870  18.314  39.255   7.650
 6923POPC   C1B33871  18.316  38.993   8.550
 6923POPC   C2B33872  18.373  38.966   8.250
 6923POPC   C3B33873  18.307  39.030   7.950
 6923POPC   C4B33874  18.296  38.950   7.650
 6924POPC   NC333875  25.266  35.347   9.450
 6924POPC   PO433876  25.255  35.361   9.150
 6924POPC   GL133877  25.290  35.370   8.850
 6924POPC   GL233878  25.264  35.514   8.850
 6924POPC   C1A33879  25.280  35.308   8.550
 6924POPC   D2A33880  25.236  35.384   8.250
 6924POPC   C3A33881  25.314  35.388   7.950
 6924POPC   C4A33882  25.299  35.315   7.650
 6924POPC   C1B33883  25.213  35.596   8.550
 6924POPC   C2B33884  25.233  35.636   8.250
 6924POPC   C3B33885  25.258  35.558   7.950
 6924POPC   C4B33886  25.274  35.624   7.650
 6925POPC   NC333887   6.677   1.950   9.450
 6925POPC   PO433888   6.604   1.969   9.150
 6925POPC   GL133889   6.597   1.999   8.850
 6925POPC   GL233890   6.571   1.871   8.850
 6925POPC   C1A33891   6.687   2.014   8.550
 6925POPC   D2A33892   6.663   1.990   8.250
 6925POPC   C3A33893   6.617   1.990   7.950
 6925POPC   C4A33894   6.687   2.028   7.650
 6925POPC   C1B33895   6.463   1.789   8.550
 6925POPC   C2B33896   6.492   1.785   8.250
 6925POPC   C3B33897   6.451   1.782   7.950
 6925POPC   C4B33898   6.423   1.792   7.650
 6926POPC   NC333899  33.762  40.050   9.450
 6926POPC   PO433900  33.815  39.965   9.150
 6926POPC   GL133901  33.803  40.002   8.850
 6926POPC   GL233902  33.830  39.938   8.850
 6926POPC   C1A33903  33.814  40.050   8.550
 6926POPC   D2A33904  33.783  40.044   8.250
 6926POPC   C3A33905  33.841  39.964   7.950
 6926POPC   C4A33906  33.833  40.055   7.650
 6926POPC   C1B33907  33.870  39.765   8.550
 6926POPC   C2B33908  33.943  39.762   8.250
 6926POPC   C3B33909  33.870  39.793   7.950
 6926POPC   C4B33910  33.939  39.822   7.650
 6927POPC   NC333911  10.526  38.473   9.450
 6927POPC   PO433912  10.558  38.473   9.150
 6927POPC   GL133913  10.541  38.413   8.850
 6927POPC   GL233914  10.506  38.562   8.850
 6927POPC   C1A33915  10.551  38.476   8.550
 6927POPC   D2A33916  10.510  38.426   8.250
 6927POPC   C3A33917  10.492  38.426   7.950
 6927POPC   C4A33918  10.474  38.461   7.650
 6927POPC   C1B33919  10.624  38.713   8.550
 6927POPC   C2B33920  10.543  38.661   8.250
 6927POPC   C3B33921  10.628  38.709   7.950
 6927POPC   C4B33922  10.629  38.721   7.650
 6928POPC   NC333923  19.851  44.707   9.450
 6928POPC   PO433924  19.815  44.712   9.150
 6928POPC   GL133925  19.864  44.710   8.850
 6928POPC   GL233926  19.760  44.622   8.850
 6928POPC   C1A33927  19.841  44.688   8.550
 6928POPC   D2A33928  19.817  44.656   8.250
 6928POPC   C3A33929  19.839  44.614   7.950
 6928POPC   C4A33930  19.805  44.706   7.650
 6928POPC   C1B33931  19.619  44.494   8.550
 6928POPC   C2B33932  19.657  44.527   8.250
 6928POPC   C3B33933  19.592  44.518   7.950
 6928POPC   C4B33934  19.636  44.463   7.650
 6929POPC   NC333935   3.508  14.368   9.450
 6929POPC   PO433936   3.545  14.383   9.150
 6929POPC   GL133937   3.526  14.430   8.850
 6929POPC   GL233938   3.677  14.425   8.850
 6929POPC   C1A33939   3.511  14.356   8.550
 6929POPC   D2A33940   3.513  14.363   8.250
 6929POPC   C3A33941   3.504  14.417   7.950
 6929POPC   C4A33942   3.495  14.448   7.650
 6929POPC   C1B33943   3.802  14.458   8.550
 6929POPC   C2B33944   3.805  14.514   8.250
 6929POPC   C3B33945   3.795  14.543   7.950
 6929POPC   C4B33946   3.729  14.502   7.650
 6930POPC   NC333947  43.146  24.477   9.450
 6930POPC   PO433948  43.115  24.497   9.150
 6930POPC   GL133949  43.109  24.526   8.850
 6930POPC   GL233950  43.152  24.659   8.850
 6930POPC   C1A33951  43.137  24.521   8.550
 6930POPC   D2A33952  43.092  24.522   8.250
 6930POPC   C3A33953  43.152  24.452   7.950
 6930POPC   C4A33954  43.153  24.511   7.650
 6930POPC   C1B33955  43.132  24.695   8.550
 6930POPC   C2B33956  43.148  24.769   8.250
 6930POPC   C3B33957  43.178  24.699   7.950
 6930POPC   C4B33958  43.162  24.754   7.650
 6931POPC   NC333959   1.260  22.194   9.450
 6931POPC   PO433960   1.225  22.193   9.150
 6931POPC   GL133961   1.243  22.134   8.850
 6931POPC   GL233962   1.127  22.061   8.850
 6931POPC   C1A33963   1.234  22.208   8.550
 6931POPC   D2A33964   1.243  22.140   8.250
 6931POPC   C3A33965   1.257  22.210   7.950
 6931POPC   C4A33966   1.209  22.164   7.650
 6931POPC   C1B33967   1.082  21.959   8.550
 6931POPC   C2B33968   1.069  21.919   8.250
 6931POPC   C3B33969   1.123  21.994   7.950
 6931POPC   C4B33970   1.078  21.995   7.650
 6932POPC   NC333971  12.083   5.890   9.450
 6932POPC   PO433972  12.048   5.878   9.150
 6932POPC   GL133973  12.043   5.873   8.850
 6932POPC   GL233974  12.167   5.865   8.850
 6932POPC   C1A33975  12.039   5.901   8.550
 6932POPC   D2A33976  12.092   5.912   8.250
 6932POPC   C3A33977  12.032   5.900   7.950
 6932POPC   C4A33978  12.062   5.865   7.650
 6932POPC   C1B33979  12.273   5.817   8.550
 6932POPC   C2B33980  12.295   5.805   8.250
 6932POPC   C3B33981  12.349   5.777   7.950
 6932POPC   C4B33982  12.339   5.859   7.650
 6933POPC   NC333983  29.954  26.769   9.450
 6933POPC   PO433984  29.879  26.801   9.150
 6933POPC   GL133985  29.886  26.849   8.850
 6933POPC   GL233986  29.789  26.893   8.850
 6933POPC   C1A33987  29.904  26.786   8.550
 6933POPC   D2A33988  29.887  26.821   8.250
 6933POPC   C3A33989  29.934  26.827   7.950
 6933POPC   C4A33990  29.903  26.856   7.650
 6933POPC   C1B33991  29.717  26.938   8.550
 6933POPC   C2B33992  29.673  26.913   8.250
 6933POPC   C3B33993  29.705  26.898   7.950
 6933POPC   C4B33994  29.750  26.954   7.650
 6934POPC   NC333995   0.477  41.514   9.450
 6934POPC   PO433996   0.440  41.568   9.150
 6934POPC   GL133997   0.419  41.542   8.850
 6934POPC   GL233998   0.366  41.448   8.850
 6934POPC   C1A33999   0.401  41.599   8.550
 6934POPC   D2A34000   0.428  41.548   8.250
 6934POPC   C3A34001   0.483  41.557   7.950
 6934POPC   C4A34002   0.458  41.570   7.650
 6934POPC   C1B34003   0.295  41.343   8.550
 6934POPC   C2B34004   0.281  41.351   8.250
 6934POPC   C3B34005   0.257  41.334   7.950
 6934POPC   C4B34006   0.319  41.388   7.650
 6935POPC   NC334007  38.420  20.590   9.450
 6935POPC   PO434008  38.464  20.632   9.150
 6935POPC   GL134009  38.448  20.603   8.850
 6935POPC   GL234010  38.376  20.575   8.850
 6935POPC   C1A34011  38.476  20.644   8.550
 6935POPC   D2A34012  38.471  20.596   8.250
 6935POPC   C3A34013  38.442  20.639   7.950
 6935POPC   C4A34014  38.503  20.590   7.650
 6935POPC   C1B34015  38.252  20.594   8.550
 6935POPC   C2B34016  38.178  20.550   8.250
 6935POPC   C3B34017  38.173  20.598   7.950
 6935POPC   C4B34018  38.193  20.583   7.650
 6936POPC   NC334019  15.229  43.106   9.450
 6936POPC   PO434020  15.141  43.155   9.150
 6936POPC   GL134021  15.148  43.079   8.850
 6936POPC   GL234022  15.236  43.233   8.850
 6936POPC   C1A34023  15.167  43.067   8.550
 6936POPC   D2A34024  15.150  43.116   8.250
 6936POPC   C3A34025  15.134  43.080   7.950
 6936POPC   C4A34026  15.202  43.090   7.650
 6936POPC   C1B34027  15.266  43.349   8.550
 6936POPC   C2B34028  15.235  43.348   8.250
 6936POPC   C3B34029  15.199  43.402   7.950
 6936POPC   C4B34030  15.197  43.382   7.650
 6937POPC   NC334031  13.658  26.061   9.450
 6937POPC   PO434032  13.601  26.063   9.150
 6937POPC   GL134033  13.593  26.030   8.850
 6937POPC   GL234034  13.622  26.144   8.850
 6937POPC   C1A34035  13.620  26.013   8.550
 6937POPC   D2A34036  13.666  26.047   8.250
 6937POPC   C3A34037  13.673  26.034   7.950
 6937POPC   C4A34038  13.675  26.015   7.650
 6937POPC   C1B34039  13.501  26.291   8.550
 6937POPC   C2B34040  13.541  26.311   8.250
 6937POPC   C3B34041  13.571  26.230   7.950
 6937POPC   C4B34042  13.574  26.247   7.650
 6938POPC   NC334043  13.605  36.099   9.450
 6938POPC   PO434044  13.666  36.151   9.150
 6938POPC   GL134045  13.665  36.154   8.850
 6938POPC   GL234046  13.563  36.064   8.850
 6938POPC   C1A34047  13.600  36.084   8.550
 6938POPC   D2A34048  13.649  36.111   8.250
 6938POPC   C3A34049  13.664  36.081   7.950
 6938POPC   C4A34050  13.608  36.121   7.650
 6938POPC   C1B34051  13.420  35.977   8.550
 6938POPC   C2B34052  13.473  35.955   8.250
 6938POPC   C3B34053  13.492  35.891   7.950
 6938POPC   C4B34054  13.482  35.901   7.650
 6939POPC   NC334055  36.114  29.135   9.450
 6939POPC   PO434056  36.111  29.107   9.150
 6939POPC   GL134057  36.089  29.180   8.850
 6939POPC   GL234058  36.238  29.232   8.850
 6939POPC   C1A34059  36.105  29.154   8.550
 6939POPC   D2A34060  36.157  29.136   8.250
 6939POPC   C3A34061  36.146  29.109   7.950
 6939POPC   C4A34062  36.170  29.186   7.650
 6939POPC   C1B34063  36.358  29.294   8.550
 6939POPC   C2B34064  36.372  29.229   8.250
 6939POPC   C3B34065  36.368  29.243   7.950
 6939POPC   C4B34066  36.394  29.305   7.650
 6940POPC   NC334067   1.955  26.796   9.450
 6940POPC   PO434068   1.966  26.780   9.150
 6940POPC   GL134069   2.021  26.818   8.850
 6940POPC   GL234070   2.082  26.711   8.850
 6940POPC   C1A34071   1.975  26.838   8.550
 6940POPC   D2A34072   2.030  26.864   8.250
 6940POPC   C3A34073   1.971  26.775   7.950
 6940POPC   C4A34074   2.019  26.842   7.650
 6940POPC   C1B34075   2.070  26.577   8.550
 6940POPC   C2B34076   2.049  26.614   8.250
 6940POPC   C3B34077   2.082  26.601   7.950
 6940POPC   C4B34078   2.117  26.564   7.650
 6941POPC   NC334079  28.414   8.241   9.450
 6941POPC   PO434080  28.363   8.210   9.150
 6941POPC   GL134081  28.392   8.164   8.850
 6941POPC   GL234082  28.260   8.190   8.850
 6941POPC   C1A34083  28.344   8.197   8.550
 6941POPC   D2A34084  28.378   8.190   8.250
 6941POPC   C3A34085  28.403   8.154   7.950
 6941POPC   C4A34086  28.380   8.151   7.650
 6941POPC   C1B34087  28.122   8.170   8.550
 6941POPC   C2B34088  28.109   8.140   8.250
 6941POPC   C3B34089  28.166   8.103   7.950
 6941POPC   C4B34090  28.094   8.138   7.650
 6942POPC   NC334091  19.062  12.090   9.450
 6942POPC   PO434092  19.109  12.045   9.150
 6942POPC   GL134093  19.009  12.121   8.850
 6942POPC   GL234094  18.974  12.059   8.850
 6942POPC   C1A34095  19.048  12.041   8.550
 6942POPC   D2A34096  19.063  12.076   8.250
 6942POPC   C3A34097  19.077  12.034   7.950
 6942POPC   C4A34098  19.023  12.086   7.650
 6942POPC   C1B34099  18.800  12.006   8.550
 6942POPC   C2B34100  18.810  12.017   8.250
 6942POPC   C3B34101  18.856  12.098   7.950
 6942POPC   C4B34102  18.859  12.093   7.650
 6943POPC   NC334103  38.412  29.919   9.450
 6943POPC   PO434104  38.417  29.874   9.150
 6943POPC   GL134105  38.473  29.926   8.850
 6943POPC   GL234106  38.591  30.000   8.850
 6943POPC   C1A34107  38.437  29.954   8.550
 6943POPC   D2A34108  38.489  29.961   8.250
 6943POPC   C3A34109  38.453  29.932   7.950
 6943POPC   C4A34110  38.408  29.928   7.650
 6943POPC   C1B34111  38.652  30.046   8.550
 6943POPC   C2B34112  38.655  30.085   8.250
 6943POPC   C3B34113  38.680  30.057   7.950
 6943POPC   C4B34114  38.661  30.045   7.650
 6944POPC   NC334115   9.757  22.935   9.450
 6944POPC   PO434116   9.708  22.952   9.150
 6944POPC   GL134117   9.727  22.914   8.850
 6944POPC   GL234118   9.637  23.017   8.850
 6944POPC   C1A34119   9.789  22.942   8.550
 6944POPC   D2A34120   9.719  22.899   8.250
 6944POPC   C3A34121   9.772  22.984   7.950
 6944POPC   C4A34122   9.710  22.913   7.650
 6944POPC   C1B34123   9.538  23.012   8.550
 6944POPC   C2B34124   9.573  23.088   8.250
 6944POPC   C3B34125   9.510  23.035   7.950
 6944POPC   C4B34126   9.552  23.022   7.650
 6945POPC   NC334127  19.842  37.640   9.450
 6945POPC   PO434128  19.882  37.677   9.150
 6945POPC   GL134129  19.849  37.690   8.850
 6945POPC   GL234130  19.803  37.840   8.850
 6945POPC   C1A34131  19.875  37.641   8.550
 6945POPC   D2A34132  19.799  37.658   8.250
 6945POPC   C3A34133  19.789  37.689   7.950
 6945POPC   C4A34134  19.882  37.676   7.650
 6945POPC   C1B34135  19.868  37.949   8.550
 6945POPC   C2B34136  19.859  37.970   8.250
 6945POPC   C3B34137  19.812  37.972   7.950
 6945POPC   C4B34138  19.817  37.932   7.650
 6946POPC   NC334139  15.921  44.635   9.450
 6946POPC   PO434140  15.945  44.631   9.150
 6946POPC   GL134141  16.004  44.650   8.850
 6946POPC   GL234142  15.918  44.825   8.850
 6946POPC   C1A34143  15.954  44.686   8.550
 6946POPC   D2A34144  15.909  44.702   8.250
 6946POPC   C3A34145  15.999  44.710   7.950
 6946POPC   C4A34146  15.991  44.694   7.650
 6946POPC   C1B34147  16.002  44.895   8.550
 6946POPC   C2B34148  15.979  44.927   8.250
 6946POPC   C3B34149  15.946  44.885   7.950
 6946POPC   C4B34150  15.930  44.956   7.650
 6947POPC   NC334151   9.746  12.110   9.450
 6947POPC   PO434152   9.777  12.069   9.150
 6947POPC   GL134153   9.761  12.119   8.850
 6947POPC   GL234154   9.661  12.141   8.850
 6947POPC   C1A34155   9.729  12.051   8.550
 6947POPC   D2A34156   9.739  12.124   8.250
 6947POPC   C3A34157   9.789  12.029   7.950
 6947POPC   C4A34158   9.706  12.050   7.650
 6947POPC   C1B34159   9.599  12.294   8.550
 6947POPC   C2B34160   9.680  12.323   8.250
 6947POPC   C3B34161   9.607  12.280   7.950
 6947POPC   C4B34162   9.601  12.296   7.650
 6948POPC   NC334163   3.509  32.984   9.450
 6948POPC   PO434164   3.502  33.003   9.150
 6948POPC   GL134165   3.576  32.982   8.850
 6948POPC   GL234166   3.468  33.098   8.850
 6948POPC   C1A34167   3.509  33.001   8.550
 6948POPC   D2A34168   3.571  33.012   8.250
 6948POPC   C3A34169   3.551  32.978   7.950
 6948POPC   C4A34170   3.535  32.985   7.650
 6948POPC   C1B34171   3.351  33.177   8.550
 6948POPC   C2B34172   3.384  33.223   8.250
 6948POPC   C3B34173   3.359  33.191   7.950
 6948POPC   C4B34174   3.439  33.255   7.650
 6949POPC   NC334175  29.893  23.698   9.450
 6949POPC   PO434176  29.964  23.702   9.150
 6949POPC   GL134177  29.954  23.701   8.850
 6949POPC   GL234178  29.875  23.646   8.850
 6949POPC   C1A34179  29.888  23.729   8.550
 6949POPC   D2A34180  29.932  23.701   8.250
 6949POPC   C3A34181  29.968  23.699   7.950
 6949POPC   C4A34182  29.896  23.733   7.650
 6949POPC   C1B34183  29.755  23.515   8.550
 6949POPC   C2B34184  29.792  23.562   8.250
 6949POPC   C3B34185  29.758  23.530   7.950
 6949POPC   C4B34186  29.748  23.544   7.650
 6950POPC   NC334187  33.817  15.137   9.450
 6950POPC   PO434188  33.838  15.142   9.150
 6950POPC   GL134189  33.844  15.178   8.850
 6950POPC   GL234190  33.664  15.282   8.850
 6950POPC   C1A34191  33.823  15.168   8.550
 6950POPC   D2A34192  33.821  15.131   8.250
 6950POPC   C3A34193  33.799  15.218   7.950
 6950POPC   C4A34194  33.802  15.192   7.650
 6950POPC   C1B34195  33.555  15.369   8.550
 6950POPC   C2B34196  33.608  15.372   8.250
 6950POPC   C3B34197  33.644  15.321   7.950
 6950POPC   C4B34198  33.570  15.341   7.650
 6951POPC   NC334199  10.482  24.469   9.450
 6951POPC   PO434200  10.505  24.470   9.150
 6951POPC   GL134201  10.482  24.471   8.850
 6951POPC   GL234202  10.572  24.353   8.850
 6951POPC   C1A34203  10.545  24.532   8.550
 6951POPC   D2A34204  10.534  24.470   8.250
 6951POPC   C3A34205  10.563  24.530   7.950
 6951POPC   C4A34206  10.497  24.474   7.650
 6951POPC   C1B34207  10.628  24.283   8.550
 6951POPC   C2B34208  10.692  24.298   8.250
 6951POPC   C3B34209  10.681  24.295   7.950
 6951POPC   C4B34210  10.685  24.256   7.650
 6952POPC   NC334211  10.503  34.610   9.450
 6952POPC   PO434212  10.479  34.611   9.150
 6952POPC   GL134213  10.531  34.569   8.850
 6952POPC   GL234214  10.602  34.496   8.850
 6952POPC   C1A34215  10.512  34.607   8.550
 6952POPC   D2A34216  10.494  34.617   8.250
 6952POPC   C3A34217  10.477  34.624   7.950
 6952POPC   C4A34218  10.552  34.564   7.650
 6952POPC   C1B34219  10.704  34.414   8.550
 6952POPC   C2B34220  10.719  34.395   8.250
 6952POPC   C3B34221  10.721  34.401   7.950
 6952POPC   C4B34222  10.684  34.347   7.650
 6953POPC   NC334223  37.702  29.147   9.450
 6953POPC   PO434224  37.725  29.183   9.150
 6953POPC   GL134225  37.716  29.104   8.850
 6953POPC   GL234226  37.776  29.189   8.850
 6953POPC   C1A34227  37.723  29.183   8.550
 6953POPC   D2A34228  37.645  29.131   8.250
 6953POPC   C3A34229  37.694  29.137   7.950
 6953POPC   C4A34230  37.703  29.141   7.650
 6953POPC   C1B34231  37.906  29.130   8.550
 6953POPC   C2B34232  37.910  29.204   8.250
 6953POPC   C3B34233  37.918  29.185   7.950
 6953POPC   C4B34234  37.930  29.165   7.650
 6954POPC   NC334235  16.703  40.050   9.450
 6954POPC   PO434236  16.747  40.006   9.150
 6954POPC   GL134237  16.689  40.033   8.850
 6954POPC   GL234238  16.588  40.014   8.850
 6954POPC   C1A34239  16.702  40.011   8.550
 6954POPC   D2A34240  16.781  40.009   8.250
 6954POPC   C3A34241  16.708  40.003   7.950
 6954POPC   C4A34242  16.730  40.054   7.650
 6954POPC   C1B34243  16.515  40.137   8.550
 6954POPC   C2B34244  16.526  40.104   8.250
 6954POPC   C3B34245  16.488  40.086   7.950
 6954POPC   C4B34246  16.535  40.134   7.650
 6955POPC   NC334247  33.831  15.932   9.450
 6955POPC   PO434248  33.795  15.973   9.150
 6955POPC   GL134249  33.819  15.917   8.850
 6955POPC   GL234250  33.640  15.953   8.850
 6955POPC   C1A34251  33.843  15.960   8.550
 6955POPC   D2A34252  33.836  15.925   8.250
 6955POPC   C3A34253  33.834  15.917   7.950
 6955POPC   C4A34254  33.806  15.983   7.650
 6955POPC   C1B34255  33.585  15.876   8.550
 6955POPC   C2B34256  33.519  15.876   8.250
 6955POPC   C3B34257  33.531  15.879   7.950
 6955POPC   C4B34258  33.516  15.935   7.650
 6956POPC   NC334259  24.476  40.020   9.450
 6956POPC   PO434260  24.466  40.037   9.150
 6956POPC   GL134261  24.515  40.054   8.850
 6956POPC   GL234262  24.636  40.091   8.850
 6956POPC   C1A34263  24.502  40.042   8.550
 6956POPC   D2A34264  24.462  39.981   8.250
 6956POPC   C3A34265  24.508  40.055   7.950
 6956POPC   C4A34266  24.486  39.958   7.650
 6956POPC   C1B34267  24.710  40.128   8.550
 6956POPC   C2B34268  24.691  40.173   8.250
 6956POPC   C3B34269  24.719  40.102   7.950
 6956POPC   C4B34270  24.734  40.169   7.650
 6957POPC   NC334271  42.309   9.774   9.450
 6957POPC   PO434272  42.296   9.699   9.150
 6957POPC   GL134273  42.287   9.775   8.850
 6957POPC   GL234274  42.235   9.862   8.850
 6957POPC   C1A34275  42.371   9.709   8.550
 6957POPC   D2A34276  42.299   9.779   8.250
 6957POPC   C3A34277  42.377   9.704   7.950
 6957POPC   C4A34278  42.294   9.781   7.650
 6957POPC   C1B34279  42.159   9.858   8.550
 6957POPC   C2B34280  42.140   9.909   8.250
 6957POPC   C3B34281  42.104   9.939   7.950
 6957POPC   C4B34282  42.169   9.931   7.650
 6958POPC   NC334283  34.593  13.656   9.450
 6958POPC   PO434284  34.582  13.592   9.150
 6958POPC   GL134285  34.549  13.658   8.850
 6958POPC   GL234286  34.687  13.645   8.850
 6958POPC   C1A34287  34.626  13.676   8.550
 6958POPC   D2A34288  34.552  13.666   8.250
 6958POPC   C3A34289  34.610  13.640   7.950
 6958POPC   C4A34290  34.607  13.607   7.650
 6958POPC   C1B34291  34.792  13.629   8.550
 6958POPC   C2B34292  34.841  13.597   8.250
 6958POPC   C3B34293  34.868  13.591   7.950
 6958POPC   C4B34294  34.831  13.645   7.650
 6959POPC   NC334295   4.333  15.161   9.450
 6959POPC   PO434296   4.290  15.158   9.150
 6959POPC   GL134297   4.291  15.133   8.850
 6959POPC   GL234298   4.180  15.111   8.850
 6959POPC   C1A34299   4.356  15.213   8.550
 6959POPC   D2A34300   4.362  15.216   8.250
 6959POPC   C3A34301   4.288  15.175   7.950
 6959POPC   C4A34302   4.354  15.204   7.650
 6959POPC   C1B34303   4.076  15.080   8.550
 6959POPC   C2B34304   4.057  15.036   8.250
 6959POPC   C3B34305   4.120  15.049   7.950
 6959POPC   C4B34306   4.047  15.088   7.650
 6960POPC   NC334307  42.295   4.327   9.450
 6960POPC   PO434308  42.359   4.331   9.150
 6960POPC   GL134309  42.334   4.345   8.850
 6960POPC   GL234310  42.344   4.461   8.850
 6960POPC   C1A34311  42.291   4.324   8.550
 6960POPC   D2A34312  42.370   4.306   8.250
 6960POPC   C3A34313  42.293   4.340   7.950
 6960POPC   C4A34314  42.357   4.334   7.650
 6960POPC   C1B34315  42.265   4.605   8.550
 6960POPC   C2B34316  42.298   4.573   8.250
 6960POPC   C3B34317  42.234   4.546   7.950
 6960POPC   C4B34318  42.251   4.583   7.650
 6961POPC   NC334319  43.134  22.136   9.450
 6961POPC   PO434320  43.134  22.139   9.150
 6961POPC   GL134321  43.118  22.118   8.850
 6961POPC   GL234322  43.224  22.120   8.850
 6961POPC   C1A34323  43.159  22.145   8.550
 6961POPC   D2A34324  43.147  22.154   8.250
 6961POPC   C3A34325  43.087  22.200   7.950
 6961POPC   C4A34326  43.098  22.146   7.650
 6961POPC   C1B34327  43.332  21.965   8.550
 6961POPC   C2B34328  43.259  21.987   8.250
 6961POPC   C3B34329  43.290  21.956   7.950
 6961POPC   C4B34330  43.276  22.012   7.650
 6962POPC   NC334331  36.939  35.317   9.450
 6962POPC   PO434332  36.928  35.317   9.150
 6962POPC   GL134333  36.916  35.373   8.850
 6962POPC   GL234334  36.813  35.274   8.850
 6962POPC   C1A34335  36.911  35.373   8.550
 6962POPC   D2A34336  36.872  35.368   8.250
 6962POPC   C3A34337  36.938  35.340   7.950
 6962POPC   C4A34338  36.909  35.381   7.650
 6962POPC   C1B34339  36.679  35.268   8.550
 6962POPC   C2B34340  36.704  35.270   8.250
 6962POPC   C3B34341  36.692  35.249   7.950
 6962POPC   C4B34342  36.646  35.307   7.650
 6963POPC   NC334343  44.697  26.839   9.450
 6963POPC   PO434344  44.693  26.815   9.150
 6963POPC   GL134345  44.624  26.817   8.850
 6963POPC   GL234346  44.780  26.714   8.850
 6963POPC   C1A34347  44.696  26.781   8.550
 6963POPC   D2A34348  44.709  26.859   8.250
 6963POPC   C3A34349  44.654  26.771   7.950
 6963POPC   C4A34350  44.659  26.795   7.650
 6963POPC   C1B34351  44.864  26.645   8.550
 6963POPC   C2B34352  44.886  26.666   8.250
 6963POPC   C3B34353  44.852  26.629   7.950
 6963POPC   C4B34354  44.843  26.689   7.650
 6964POPC   NC334355  22.136  36.121   9.450
 6964POPC   PO434356  22.116  36.168   9.150
 6964POPC   GL134357  22.114  36.088   8.850
 6964POPC   GL234358  22.198  36.272   8.850
 6964POPC   C1A34359  22.186  36.127   8.550
 6964POPC   D2A34360  22.155  36.139   8.250
 6964POPC   C3A34361  22.164  36.167   7.950
 6964POPC   C4A34362  22.142  36.111   7.650
 6964POPC   C1B34363  22.152  36.334   8.550
 6964POPC   C2B34364  22.120  36.404   8.250
 6964POPC   C3B34365  22.169  36.382   7.950
 6964POPC   C4B34366  22.174  36.368   7.650
 6965POPC   NC334367   7.411   2.815   9.450
 6965POPC   PO434368   7.377   2.768   9.150
 6965POPC   GL134369   7.425   2.730   8.850
 6965POPC   GL234370   7.355   2.601   8.850
 6965POPC   C1A34371   7.412   2.756   8.550
 6965POPC   D2A34372   7.453   2.806   8.250
 6965POPC   C3A34373   7.451   2.742   7.950
 6965POPC   C4A34374   7.396   2.743   7.650
 6965POPC   C1B34375   7.344   2.479   8.550
 6965POPC   C2B34376   7.420   2.476   8.250
 6965POPC   C3B34377   7.389   2.482   7.950
 6965POPC   C4B34378   7.376   2.547   7.650
 6966POPC   NC334379  24.463  41.564   9.450
 6966POPC   PO434380  24.519  41.566   9.150
 6966POPC   GL134381  24.448  41.522   8.850
 6966POPC   GL234382  24.543  41.682   8.850
 6966POPC   C1A34383  24.504  41.544   8.550
 6966POPC   D2A34384  24.518  41.573   8.250
 6966POPC   C3A34385  24.516  41.574   7.950
 6966POPC   C4A34386  24.449  41.584   7.650
 6966POPC   C1B34387  24.651  41.731   8.550
 6966POPC   C2B34388  24.654  41.680   8.250
 6966POPC   C3B34389  24.674  41.734   7.950
 6966POPC   C4B34390  24.657  41.695   7.650
 6967POPC   NC334391   2.039   2.028   9.450
 6967POPC   PO434392   1.955   2.013   9.150
 6967POPC   GL134393   2.009   1.958   8.850
 6967POPC   GL234394   1.976   2.127   8.850
 6967POPC   C1A34395   1.967   1.951   8.550
 6967POPC   D2A34396   2.002   1.955   8.250
 6967POPC   C3A34397   1.994   1.996   7.950
 6967POPC   C4A34398   2.035   2.013   7.650
 6967POPC   C1B34399   2.026   2.209   8.550
 6967POPC   C2B34400   2.014   2.255   8.250
 6967POPC   C3B34401   1.995   2.229   7.950
 6967POPC   C4B34402   2.058   2.239   7.650
 6968POPC   NC334403  27.571  36.124   9.450
 6968POPC   PO434404  27.545  36.113   9.150
 6968POPC   GL134405  27.583  36.128   8.850
 6968POPC   GL234406  27.660  36.183   8.850
 6968POPC   C1A34407  27.625  36.117   8.550
 6968POPC   D2A34408  27.610  36.079   8.250
 6968POPC   C3A34409  27.601  36.158   7.950
 6968POPC   C4A34410  27.548  36.118   7.650
 6968POPC   C1B34411  27.825  36.278   8.550
 6968POPC   C2B34412  27.757  36.305   8.250
 6968POPC   C3B34413  27.817  36.292   7.950
 6968POPC   C4B34414  27.819  36.236   7.650
 6969POPC   NC334415   3.542  44.651   9.450
 6969POPC   PO434416   3.512  44.707   9.150
 6969POPC   GL134417   3.568  44.648   8.850
 6969POPC   GL234418   3.640  44.592   8.850
 6969POPC   C1A34419   3.501  44.682   8.550
 6969POPC   D2A34420   3.532  44.653   8.250
 6969POPC   C3A34421   3.542  44.689   7.950
 6969POPC   C4A34422   3.511  44.616   7.650
 6969POPC   C1B34423   3.826  44.605   8.550
 6969POPC   C2B34424   3.775  44.626   8.250
 6969POPC   C3B34425   3.791  44.620   7.950
 6969POPC   C4B34426   3.771  44.636   7.650
 6970POPC   NC334427  22.130  39.209   9.450
 6970POPC   PO434428  22.154  39.251   9.150
 6970POPC   GL134429  22.149  39.271   8.850
 6970POPC   GL234430  22.090  39.183   8.850
 6970POPC   C1A34431  22.139  39.209   8.550
 6970POPC   D2A34432  22.169  39.245   8.250
 6970POPC   C3A34433  22.178  39.191   7.950
 6970POPC   C4A34434  22.192  39.243   7.650
 6970POPC   C1B34435  21.964  39.079   8.550
 6970POPC   C2B34436  21.972  39.042   8.250
 6970POPC   C3B34437  21.996  39.067   7.950
 6970POPC   C4B34438  21.957  39.065   7.650
 6971POPC   NC334439  22.125  43.119   9.450
 6971POPC   PO434440  22.162  43.069   9.150
 6971POPC   GL134441  22.183  43.098   8.850
 6971POPC   GL234442  22.290  43.204   8.850
 6971POPC   C1A34443  22.188  43.079   8.550
 6971POPC   D2A34444  22.164  43.132   8.250
 6971POPC   C3A34445  22.182  43.131   7.950
 6971POPC   C4A34446  22.152  43.096   7.650
 6971POPC   C1B34447  22.353  43.213   8.550
 6971POPC   C2B34448  22.356  43.199   8.250
 6971POPC   C3B34449  22.377  43.196   7.950
 6971POPC   C4B34450  22.380  43.217   7.650
 6972POPC   NC334451   1.941  12.103   9.450
 6972POPC   PO434452   2.038  12.088   9.150
 6972POPC   GL134453   1.984  12.112   8.850
 6972POPC   GL234454   2.014  11.989   8.850
 6972POPC   C1A34455   2.038  12.051   8.550
 6972POPC   D2A34456   1.964  12.030   8.250
 6972POPC   C3A34457   1.992  12.089   7.950
 6972POPC   C4A34458   1.969  12.082   7.650
 6972POPC   C1B34459   2.013  11.817   8.550
 6972POPC   C2B34460   2.066  11.827   8.250
 6972POPC   C3B34461   2.055  11.813   7.950
 6972POPC   C4B34462   2.021  11.873   7.650
 6973POPC   NC334463  27.603  43.130   9.450
 6973POPC   PO434464  27.551  43.134   9.150
 6973POPC   GL134465  27.636  43.155   8.850
 6973POPC   GL234466  27.542  43.210   8.850
 6973POPC   C1A34467  27.640  43.089   8.550
 6973POPC   D2A34468  27.551  43.078   8.250
 6973POPC   C3A34469  27.613  43.146   7.950
 6973POPC   C4A34470  27.549  43.140   7.650
 6973POPC   C1B34471  27.424  43.288   8.550
 6973POPC   C2B34472  27.478  43.279   8.250
 6973POPC   C3B34473  27.441  43.270   7.950
 6973POPC   C4B34474  27.434  43.319   7.650
 6974POPC   NC334475  30.729  15.214   9.450
 6974POPC   PO434476  30.678  15.216   9.150
 6974POPC   GL134477  30.678  15.163   8.850
 6974POPC   GL234478  30.816  15.219   8.850
 6974POPC   C1A34479  30.717  15.158   8.550
 6974POPC   D2A34480  30.686  15.180   8.250
 6974POPC   C3A34481  30.703  15.205   7.950
 6974POPC   C4A34482  30.667  15.205   7.650
 6974POPC   C1B34483  30.910  15.327   8.550
 6974POPC   C2B34484  30.903  15.341   8.250
 6974POPC   C3B34485  30.938  15.325   7.950
 6974POPC   C4B34486  30.913  15.309   7.650
 6975POPC   NC334487  43.112  31.480   9.450
 6975POPC   PO434488  43.135  31.425   9.150
 6975POPC   GL134489  43.067  31.442   8.850
 6975POPC   GL234490  43.239  31.391   8.850
 6975POPC   C1A34491  43.113  31.455   8.550
 6975POPC   D2A34492  43.147  31.432   8.250
 6975POPC   C3A34493  43.104  31.479   7.950
 6975POPC   C4A34494  43.112  31.449   7.650
 6975POPC   C1B34495  43.346  31.425   8.550
 6975POPC   C2B34496  43.329  31.390   8.250
 6975POPC   C3B34497  43.320  31.391   7.950
 6975POPC   C4B34498  43.344  31.411   7.650
 6976POPC   NC334499   4.330  33.788   9.450
 6976POPC   PO434500   4.296  33.776   9.150
 6976POPC   GL134501   4.350  33.765   8.850
 6976POPC   GL234502   4.376  33.727   8.850
 6976POPC   C1A34503   4.288  33.783   8.550
 6976POPC   D2A34504   4.317  33.752   8.250
 6976POPC   C3A34505   4.310  33.809   7.950
 6976POPC   C4A34506   4.288  33.775   7.650
 6976POPC   C1B34507   4.386  33.518   8.550
 6976POPC   C2B34508   4.405  33.603   8.250
 6976POPC   C3B34509   4.372  33.534   7.950
 6976POPC   C4B34510   4.369  33.574   7.650
 6977POPC   NC334511  28.389  10.527   9.450
 6977POPC   PO434512  28.399  10.547   9.150
 6977POPC   GL134513  28.374  10.553   8.850
 6977POPC   GL234514  28.332  10.642   8.850
 6977POPC   C1A34515  28.401  10.517   8.550
 6977POPC   D2A34516  28.327  10.507   8.250
 6977POPC   C3A34517  28.402  10.483   7.950
 6977POPC   C4A34518  28.396  10.515   7.650
 6977POPC   C1B34519  28.292  10.739   8.550
 6977POPC   C2B34520  28.283  10.798   8.250
 6977POPC   C3B34521  28.297  10.794   7.950
 6977POPC   C4B34522  28.314  10.751   7.650
 6978POPC   NC334523  12.080  31.489   9.450
 6978POPC   PO434524  12.084  31.438   9.150
 6978POPC   GL134525  12.123  31.437   8.850
 6978POPC   GL234526  12.244  31.479   8.850
 6978POPC   C1A34527  12.031  31.429   8.550
 6978POPC   D2A34528  12.037  31.430   8.250
 6978POPC   C3A34529  12.096  31.485   7.950
 6978POPC   C4A34530  12.086  31.465   7.650
 6978POPC   C1B34531  12.324  31.536   8.550
 6978POPC   C2B34532  12.359  31.553   8.250
 6978POPC   C3B34533  12.293  31.541   7.950
 6978POPC   C4B34534  12.330  31.543   7.650
 6979POPC   NC334535   7.428   5.901   9.450
 6979POPC   PO434536   7.376   5.859   9.150
 6979POPC   GL134537   7.409   5.842   8.850
 6979POPC   GL234538   7.371   6.010   8.850
 6979POPC   C1A34539   7.418   5.912   8.550
 6979POPC   D2A34540   7.466   5.842   8.250
 6979POPC   C3A34541   7.462   5.896   7.950
 6979POPC   C4A34542   7.392   5.860   7.650
 6979POPC   C1B34543   7.454   6.122   8.550
 6979POPC   C2B34544   7.385   6.143   8.250
 6979POPC   C3B34545   7.424   6.105   7.950
 6979POPC   C4B34546   7.376   6.089   7.650
 6980POPC   NC334547  40.022  22.144   9.450
 6980POPC   PO434548  40.045  22.196   9.150
 6980POPC   GL134549  39.983  22.166   8.850
 6980POPC   GL234550  39.993  22.251   8.850
 6980POPC   C1A34551  39.974  22.130   8.550
 6980POPC   D2A34552  39.971  22.182   8.250
 6980POPC   C3A34553  40.024  22.209   7.950
 6980POPC   C4A34554  39.961  22.123   7.650
 6980POPC   C1B34555  39.945  22.410   8.550
 6980POPC   C2B34556  39.926  22.383   8.250
 6980POPC   C3B34557  39.888  22.427   7.950
 6980POPC   C4B34558  39.864  22.395   7.650
 6981POPC   NC334559  33.003  23.759   9.450
 6981POPC   PO434560  33.021  23.684   9.150
 6981POPC   GL134561  33.000  23.747   8.850
 6981POPC   GL234562  32.906  23.712   8.850
 6981POPC   C1A34563  33.073  23.719   8.550
 6981POPC   D2A34564  32.994  23.682   8.250
 6981POPC   C3A34565  33.046  23.690   7.950
 6981POPC   C4A34566  32.978  23.700   7.650
 6981POPC   C1B34567  32.770  23.653   8.550
 6981POPC   C2B34568  32.819  23.580   8.250
 6981POPC   C3B34569  32.781  23.632   7.950
 6981POPC   C4B34570  32.787  23.667   7.650
 6982POPC   NC334571   9.797  10.498   9.450
 6982POPC   PO434572   9.781  10.476   9.150
 6982POPC   GL134573   9.756  10.572   8.850
 6982POPC   GL234574   9.652  10.625   8.850
 6982POPC   C1A34575   9.711  10.558   8.550
 6982POPC   D2A34576   9.766  10.505   8.250
 6982POPC   C3A34577   9.759  10.476   7.950
 6982POPC   C4A34578   9.737  10.516   7.650
 6982POPC   C1B34579   9.594  10.751   8.550
 6982POPC   C2B34580   9.550  10.724   8.250
 6982POPC   C3B34581   9.581  10.723   7.950
 6982POPC   C4B34582   9.584  10.709   7.650
 6983POPC   NC334583   3.526  43.861   9.450
 6983POPC   PO434584   3.553  43.846   9.150
 6983POPC   GL134585   3.542  43.850   8.850
 6983POPC   GL234586   3.642  44.044   8.850
 6983POPC   C1A34587   3.495  43.895   8.550
 6983POPC   D2A34588   3.531  43.931   8.250
 6983POPC   C3A34589   3.551  43.924   7.950
 6983POPC   C4A34590   3.549  43.862   7.650
 6983POPC   C1B34591   3.627  44.130   8.550
 6983POPC   C2B34592   3.699  44.076   8.250
 6983POPC   C3B34593   3.686  44.101   7.950
 6983POPC   C4B34594   3.643  44.134   7.650
 6984POPC   NC334595  35.320  12.031   9.450
 6984POPC   PO434596  35.394  12.087   9.150
 6984POPC   GL134597  35.322  12.101   8.850
 6984POPC   GL234598  35.353  12.222   8.850
 6984POPC   C1A34599  35.397  12.061   8.550
 6984POPC   D2A34600  35.383  12.030   8.250
 6984POPC   C3A34601  35.375  12.064   7.950
 6984POPC   C4A34602  35.374  12.115   7.650
 6984POPC   C1B34603  35.360  12.314   8.550
 6984POPC   C2B34604  35.317  12.276   8.250
 6984POPC   C3B34605  35.356  12.280   7.950
 6984POPC   C4B34606  35.308  12.299   7.650
 6985POPC   NC334607  10.493  10.501   9.450
 6985POPC   PO434608  10.490  10.490   9.150
 6985POPC   GL134609  10.564  10.552   8.850
 6985POPC   GL234610  10.522  10.424   8.850
 6985POPC   C1A34611  10.498  10.541   8.550
 6985POPC   D2A34612  10.489  10.539   8.250
 6985POPC   C3A34613  10.526  10.574   7.950
 6985POPC   C4A34614  10.545  10.549   7.650
 6985POPC   C1B34615  10.499  10.250   8.550
 6985POPC   C2B34616  10.489  10.275   8.250
 6985POPC   C3B34617  10.450  10.241   7.950
 6985POPC   C4B34618  10.524  10.299   7.650
 6986POPC   NC334619   6.646   9.784   9.450
 6986POPC   PO434620   6.678   9.757   9.150
 6986POPC   GL134621   6.626   9.780   8.850
 6986POPC   GL234622   6.615   9.629   8.850
 6986POPC   C1A34623   6.666   9.745   8.550
 6986POPC   D2A34624   6.650   9.792   8.250
 6986POPC   C3A34625   6.624   9.784   7.950
 6986POPC   C4A34626   6.630   9.755   7.650
 6986POPC   C1B34627   6.615   9.534   8.550
 6986POPC   C2B34628   6.616   9.498   8.250
 6986POPC   C3B34629   6.561   9.532   7.950
 6986POPC   C4B34630   6.635   9.542   7.650
 6987POPC   NC334631  19.815  30.669   9.450
 6987POPC   PO434632  19.786  30.742   9.150
 6987POPC   GL134633  19.811  30.735   8.850
 6987POPC   GL234634  19.971  30.619   8.850
 6987POPC   C1A34635  19.843  30.664   8.550
 6987POPC   D2A34636  19.802  30.704   8.250
 6987POPC   C3A34637  19.809  30.652   7.950
 6987POPC   C4A34638  19.798  30.651   7.650
 6987POPC   C1B34639  20.061  30.548   8.550
 6987POPC   C2B34640  20.069  30.538   8.250
 6987POPC   C3B34641  20.004  30.525   7.950
 6987POPC   C4B34642  20.070  30.537   7.650
 6988POPC   NC334643  41.510  22.167   9.450
 6988POPC   PO434644  41.587  22.131   9.150
 6988POPC   GL134645  41.570  22.136   8.850
 6988POPC   GL234646  41.637  22.207   8.850
 6988POPC   C1A34647  41.528  22.190   8.550
 6988POPC   D2A34648  41.575  22.164   8.250
 6988POPC   C3A34649  41.519  22.178   7.950
 6988POPC   C4A34650  41.519  22.125   7.650
 6988POPC   C1B34651  41.785  22.141   8.550
 6988POPC   C2B34652  41.839  22.175   8.250
 6988POPC   C3B34653  41.796  22.140   7.950
 6988POPC   C4B34654  41.844  22.147   7.650
 6989POPC   NC334655   2.735  11.265   9.450
 6989POPC   PO434656   2.803  11.334   9.150
 6989POPC   GL134657   2.748  11.348   8.850
 6989POPC   GL234658   2.777  11.149   8.850
 6989POPC   C1A34659   2.735  11.293   8.550
 6989POPC   D2A34660   2.730  11.320   8.250
 6989POPC   C3A34661   2.790  11.284   7.950
 6989POPC   C4A34662   2.754  11.265   7.650
 6989POPC   C1B34663   2.758  11.019   8.550
 6989POPC   C2B34664   2.770  11.079   8.250
 6989POPC   C3B34665   2.788  11.098   7.950
 6989POPC   C4B34666   2.788  11.056   7.650
 6990POPC   NC334667  33.810   4.295   9.450
 6990POPC   PO434668  33.816   4.324   9.150
 6990POPC   GL134669  33.807   4.345   8.850
 6990POPC   GL234670  33.687   4.274   8.850
 6990POPC   C1A34671  33.811   4.338   8.550
 6990POPC   D2A34672  33.778   4.304   8.250
 6990POPC   C3A34673  33.779   4.302   7.950
 6990POPC   C4A34674  33.801   4.365   7.650
 6990POPC   C1B34675  33.567   4.170   8.550
 6990POPC   C2B34676  33.562   4.179   8.250
 6990POPC   C3B34677  33.587   4.183   7.950
 6990POPC   C4B34678  33.594   4.169   7.650
 6991POPC   NC334679  21.389   4.332   9.450
 6991POPC   PO434680  21.356   4.309   9.150
 6991POPC   GL134681  21.407   4.269   8.850
 6991POPC   GL234682  21.421   4.153   8.850
 6991POPC   C1A34683  21.415   4.278   8.550
 6991POPC   D2A34684  21.419   4.288   8.250
 6991POPC   C3A34685  21.407   4.276   7.950
 6991POPC   C4A34686  21.421   4.308   7.650
 6991POPC   C1B34687  21.431   4.081   8.550
 6991POPC   C2B34688  21.352   4.018   8.250
 6991POPC   C3B34689  21.406   4.023   7.950
 6991POPC   C4B34690  21.364   4.045   7.650
 6992POPC   NC334691  42.354  25.304   9.450
 6992POPC   PO434692  42.327  25.219   9.150
 6992POPC   GL134693  42.348  25.304   8.850
 6992POPC   GL234694  42.408  25.395   8.850
 6992POPC   C1A34695  42.367  25.273   8.550
 6992POPC   D2A34696  42.314  25.255   8.250
 6992POPC   C3A34697  42.382  25.269   7.950
 6992POPC   C4A34698  42.338  25.250   7.650
 6992POPC   C1B34699  42.553  25.459   8.550
 6992POPC   C2B34700  42.497  25.487   8.250
 6992POPC   C3B34701  42.487  25.473   7.950
 6992POPC   C4B34702  42.479  25.399   7.650
 6993POPC   NC334703  22.135  38.473   9.450
 6993POPC   PO434704  22.134  38.480   9.150
 6993POPC   GL134705  22.135  38.496   8.850
 6993POPC   GL234706  22.152  38.581   8.850
 6993POPC   C1A34707  22.209  38.486   8.550
 6993POPC   D2A34708  22.139  38.455   8.250
 6993POPC   C3A34709  22.199  38.450   7.950
 6993POPC   C4A34710  22.200  38.437   7.650
 6993POPC   C1B34711  22.163  38.743   8.550
 6993POPC   C2B34712  22.152  38.683   8.250
 6993POPC   C3B34713  22.077  38.706   7.950
 6993POPC   C4B34714  22.152  38.736   7.650
 6994POPC   NC334715  28.362  12.116   9.450
 6994POPC   PO434716  28.351  12.043   9.150
 6994POPC   GL134717  28.413  12.030   8.850
 6994POPC   GL234718  28.309  11.976   8.850
 6994POPC   C1A34719  28.350  12.095   8.550
 6994POPC   D2A34720  28.383  12.059   8.250
 6994POPC   C3A34721  28.330  12.092   7.950
 6994POPC   C4A34722  28.359  12.027   7.650
 6994POPC   C1B34723  28.325  11.794   8.550
 6994POPC   C2B34724  28.349  11.780   8.250
 6994POPC   C3B34725  28.366  11.856   7.950
 6994POPC   C4B34726  28.280  11.786   7.650
 6995POPC   NC334727  38.451  33.056   9.450
 6995POPC   PO434728  38.454  33.034   9.150
 6995POPC   GL134729  38.436  33.046   8.850
 6995POPC   GL234730  38.504  33.134   8.850
 6995POPC   C1A34731  38.454  33.052   8.550
 6995POPC   D2A34732  38.439  33.068   8.250
 6995POPC   C3A34733  38.501  33.048   7.950
 6995POPC   C4A34734  38.421  32.974   7.650
 6995POPC   C1B34735  38.687  33.225   8.550
 6995POPC   C2B34736  38.597  33.223   8.250
 6995POPC   C3B34737  38.653  33.237   7.950
 6995POPC   C4B34738  38.654  33.237   7.650
 6996POPC   NC334739  33.030  34.594   9.450
 6996POPC   PO434740  32.998  34.582   9.150
 6996POPC   GL134741  33.067  34.588   8.850
 6996POPC   GL234742  33.121  34.522   8.850
 6996POPC   C1A34743  33.011  34.533   8.550
 6996POPC   D2A34744  33.058  34.590   8.250
 6996POPC   C3A34745  33.005  34.566   7.950
 6996POPC   C4A34746  33.023  34.554   7.650
 6996POPC   C1B34747  33.322  34.566   8.550
 6996POPC   C2B34748  33.266  34.575   8.250
 6996POPC   C3B34749  33.268  34.524   7.950
 6996POPC   C4B34750  33.286  34.571   7.650
 6997POPC   NC334751  11.257  40.803   9.450
 6997POPC   PO434752  11.308  40.786   9.150
 6997POPC   GL134753  11.293  40.736   8.850
 6997POPC   GL234754  11.435  40.859   8.850
 6997POPC   C1A34755  11.282  40.812   8.550
 6997POPC   D2A34756  11.345  40.742   8.250
 6997POPC   C3A34757  11.303  40.750   7.950
 6997POPC   C4A34758  11.268  40.739   7.650
 6997POPC   C1B34759  11.540  40.889   8.550
 6997POPC   C2B34760  11.579  40.888   8.250
 6997POPC   C3B34761  11.548  40.816   7.950
 6997POPC   C4B34762  11.561  40.910   7.650
 6998POPC   NC334763  15.950   1.187   9.450
 6998POPC   PO434764  15.924   1.213   9.150
 6998POPC   GL134765  15.963   1.247   8.850
 6998POPC   GL234766  15.939   1.377   8.850
 6998POPC   C1A34767  15.910   1.246   8.550
 6998POPC   D2A34768  15.945   1.165   8.250
 6998POPC   C3A34769  15.963   1.185   7.950
 6998POPC   C4A34770  15.968   1.248   7.650
 6998POPC   C1B34771  15.958   1.462   8.550
 6998POPC   C2B34772  15.893   1.414   8.250
 6998POPC   C3B34773  15.965   1.438   7.950
 6998POPC   C4B34774  15.973   1.491   7.650
 6999POPC   NC334775  32.240  35.383   9.450
 6999POPC   PO434776  32.226  35.313   9.150
 6999POPC   GL134777  32.236  35.330   8.850
 6999POPC   GL234778  32.230  35.483   8.850
 6999POPC   C1A34779  32.292  35.346   8.550
 6999POPC   D2A34780  32.251  35.343   8.250
 6999POPC   C3A34781  32.294  35.357   7.950
 6999POPC   C4A34782  32.253  35.358   7.650
 6999POPC   C1B34783  32.211  35.602   8.550
 6999POPC   C2B34784  32.165  35.569   8.250
 6999POPC   C3B34785  32.238  35.606   7.950
 6999POPC   C4B34786  32.261  35.624   7.650
 7000POPC   NC334787   8.227   6.638   9.450
 7000POPC   PO434788   8.188   6.636   9.150
 7000POPC   GL134789   8.237   6.607   8.850
 7000POPC   GL234790   8.153   6.486   8.850
 7000POPC   C1A34791   8.214   6.625   8.550
 7000POPC   D2A34792   8.152   6.645   8.250
 7000POPC   C3A34793   8.225   6.596   7.950
 7000POPC   C4A34794   8.212   6.637   7.650
 7000POPC   C1B34795   8.160   6.436   8.550
 7000POPC   C2B34796   8.071   6.456   8.250
 7000POPC   C3B34797   8.137   6.383   7.950
 7000POPC   C4B34798   8.162   6.399   7.650
 7001POPC   NC334799  12.885  13.668   9.450
 7001POPC   PO434800  12.885  13.641   9.150
 7001POPC   GL134801  12.810  13.650   8.850
 7001POPC   GL234802  12.880  13.480   8.850
 7001POPC   C1A34803  12.821  13.609   8.550
 7001POPC   D2A34804  12.868  13.598   8.250
 7001POPC   C3A34805  12.874  13.638   7.950
 7001POPC   C4A34806  12.896  13.625   7.650
 7001POPC   C1B34807  12.791  13.338   8.550
 7001POPC   C2B34808  12.778  13.361   8.250
 7001POPC   C3B34809  12.792  13.422   7.950
 7001POPC   C4B34810  12.859  13.365   7.650
 7002POPC   NC334811  37.706  11.261   9.450
 7002POPC   PO434812  37.651  11.328   9.150
 7002POPC   GL134813  37.669  11.265   8.850
 7002POPC   GL234814  37.676  11.461   8.850
 7002POPC   C1A34815  37.659  11.348   8.550
 7002POPC   D2A34816  37.642  11.330   8.250
 7002POPC   C3A34817  37.713  11.316   7.950
 7002POPC   C4A34818  37.641  11.320   7.650
 7002POPC   C1B34819  37.657  11.564   8.550
 7002POPC   C2B34820  37.628  11.571   8.250
 7002POPC   C3B34821  37.635  11.508   7.950
 7002POPC   C4B34822  37.648  11.510   7.650
 7003POPC   NC334823   5.847  29.160   9.450
 7003POPC   PO434824   5.903  29.110   9.150
 7003POPC   GL134825   5.838  29.142   8.850
 7003POPC   GL234826   5.981  29.219   8.850
 7003POPC   C1A34827   5.900  29.132   8.550
 7003POPC   D2A34828   5.847  29.184   8.250
 7003POPC   C3A34829   5.840  29.179   7.950
 7003POPC   C4A34830   5.876  29.158   7.650
 7003POPC   C1B34831   6.059  29.280   8.550
 7003POPC   C2B34832   6.115  29.264   8.250
 7003POPC   C3B34833   6.088  29.232   7.950
 7003POPC   C4B34834   6.141  29.252   7.650
 7004POPC   NC334835  29.147  15.156   9.450
 7004POPC   PO434836  29.161  15.182   9.150
 7004POPC   GL134837  29.114  15.186   8.850
 7004POPC   GL234838  29.037  15.083   8.850
 7004POPC   C1A34839  29.124  15.170   8.550
 7004POPC   D2A34840  29.182  15.141   8.250
 7004POPC   C3A34841  29.096  15.191   7.950
 7004POPC   C4A34842  29.179  15.202   7.650
 7004POPC   C1B34843  29.024  14.985   8.550
 7004POPC   C2B34844  29.020  14.927   8.250
 7004POPC   C3B34845  28.999  14.974   7.950
 7004POPC   C4B34846  28.955  14.976   7.650
 7005POPC   NC334847  40.814  39.203   9.450
 7005POPC   PO434848  40.810  39.270   9.150
 7005POPC   GL134849  40.799  39.224   8.850
 7005POPC   GL234850  40.782  39.379   8.850
 7005POPC   C1A34851  40.790  39.262   8.550
 7005POPC   D2A34852  40.799  39.211   8.250
 7005POPC   C3A34853  40.776  39.229   7.950
 7005POPC   C4A34854  40.749  39.226   7.650
 7005POPC   C1B34855  40.809  39.518   8.550
 7005POPC   C2B34856  40.870  39.431   8.250
 7005POPC   C3B34857  40.826  39.490   7.950
 7005POPC   C4B34858  40.807  39.502   7.650
 7006POPC   NC334859  36.098   9.784   9.450
 7006POPC   PO434860  36.168   9.775   9.150
 7006POPC   GL134861  36.166   9.762   8.850
 7006POPC   GL234862  36.269   9.756   8.850
 7006POPC   C1A34863  36.079   9.780   8.550
 7006POPC   D2A34864  36.078   9.707   8.250
 7006POPC   C3A34865  36.115   9.711   7.950
 7006POPC   C4A34866  36.084   9.777   7.650
 7006POPC   C1B34867  36.406   9.706   8.550
 7006POPC   C2B34868  36.363   9.677   8.250
 7006POPC   C3B34869  36.419   9.745   7.950
 7006POPC   C4B34870  36.396   9.750   7.650
 7007POPC   NC334871  23.729   3.579   9.450
 7007POPC   PO434872  23.681   3.509   9.150
 7007POPC   GL134873  23.701   3.523   8.850
 7007POPC   GL234874  23.824   3.494   8.850
 7007POPC   C1A34875  23.696   3.510   8.550
 7007POPC   D2A34876  23.759   3.581   8.250
 7007POPC   C3A34877  23.675   3.561   7.950
 7007POPC   C4A34878  23.754   3.583   7.650
 7007POPC   C1B34879  23.842   3.384   8.550
 7007POPC   C2B34880  23.866   3.399   8.250
 7007POPC   C3B34881  23.868   3.318   7.950
 7007POPC   C4B34882  23.927   3.304   7.650
 7008POPC   NC334883  44.655  36.147   9.450
 7008POPC   PO434884  44.657  36.095   9.150
 7008POPC   GL134885  44.647  36.158   8.850
 7008POPC   GL234886  44.753  36.030   8.850
 7008POPC   C1A34887  44.659  36.153   8.550
 7008POPC   D2A34888  44.680  36.167   8.250
 7008POPC   C3A34889  44.634  36.157   7.950
 7008POPC   C4A34890  44.674  36.164   7.650
 7008POPC   C1B34891  44.732  35.907   8.550
 7008POPC   C2B34892  44.797  35.876   8.250
 7008POPC   C3B34893  44.766  35.865   7.950
 7008POPC   C4B34894  44.753  35.923   7.650
 7009POPC   NC334895  41.569  29.167   9.450
 7009POPC   PO434896  41.546  29.100   9.150
 7009POPC   GL134897  41.606  29.096   8.850
 7009POPC   GL234898  41.533  29.301   8.850
 7009POPC   C1A34899  41.584  29.177   8.550
 7009POPC   D2A34900  41.564  29.141   8.250
 7009POPC   C3A34901  41.587  29.097   7.950
 7009POPC   C4A34902  41.509  29.169   7.650
 7009POPC   C1B34903  41.559  29.376   8.550
 7009POPC   C2B34904  41.569  29.435   8.250
 7009POPC   C3B34905  41.614  29.410   7.950
 7009POPC   C4B34906  41.560  29.432   7.650
 7010POPC   NC334907   9.726  21.406   9.450
 7010POPC   PO434908   9.729  21.338   9.150
 7010POPC   GL134909   9.731  21.353   8.850
 7010POPC   GL234910   9.600  21.391   8.850
 7010POPC   C1A34911   9.786  21.423   8.550
 7010POPC   D2A34912   9.706  21.368   8.250
 7010POPC   C3A34913   9.746  21.347   7.950
 7010POPC   C4A34914   9.716  21.387   7.650
 7010POPC   C1B34915   9.495  21.324   8.550
 7010POPC   C2B34916   9.459  21.393   8.250
 7010POPC   C3B34917   9.541  21.363   7.950
 7010POPC   C4B34918   9.500  21.389   7.650
 7011POPC   NC334919  11.295  43.877   9.450
 7011POPC   PO434920  11.343  43.913   9.150
 7011POPC   GL134921  11.321  43.837   8.850
 7011POPC   GL234922  11.282  44.031   8.850
 7011POPC   C1A34923  11.288  43.860   8.550
 7011POPC   D2A34924  11.287  43.908   8.250
 7011POPC   C3A34925  11.260  43.875   7.950
 7011POPC   C4A34926  11.277  43.897   7.650
 7011POPC   C1B34927  11.276  44.143   8.550
 7011POPC   C2B34928  11.218  44.181   8.250
 7011POPC   C3B34929  11.284  44.093   7.950
 7011POPC   C4B34930  11.264  44.139   7.650
 7012POPC   NC334931   1.173  43.890   9.450
 7012POPC   PO434932   1.194  43.846   9.150
 7012POPC   GL134933   1.249  43.851   8.850
 7012POPC   GL234934   1.152  43.753   8.850
 7012POPC   C1A34935   1.205  43.913   8.550
 7012POPC   D2A34936   1.226  43.850   8.250
 7012POPC   C3A34937   1.191  43.920   7.950
 7012POPC   C4A34938   1.245  43.911   7.650
 7012POPC   C1B34939   1.172  43.626   8.550
 7012POPC   C2B34940   1.108  43.640   8.250
 7012POPC   C3B34941   1.140  43.601   7.950
 7012POPC   C4B34942   1.177  43.628   7.650
 7013POPC   NC334943  23.670  27.625   9.450
 7013POPC   PO434944  23.690  27.558   9.150
 7013POPC   GL134945  23.727  27.591   8.850
 7013POPC   GL234946  23.833  27.596   8.850
 7013POPC   C1A34947  23.735  27.626   8.550
 7013POPC   D2A34948  23.673  27.588   8.250
 7013POPC   C3A34949  23.690  27.639   7.950
 7013POPC   C4A34950  23.729  27.630   7.650
 7013POPC   C1B34951  23.970  27.563   8.550
 7013POPC   C2B34952  23.988  27.522   8.250
 7013POPC   C3B34953  23.975  27.525   7.950
 7013POPC   C4B34954  23.957  27.581   7.650
 7014POPC   NC334955  20.603   6.686   9.450
 7014POPC   PO434956  20.591   6.691   9.150
 7014POPC   GL134957  20.655   6.654   8.850
 7014POPC   GL234958  20.641   6.508   8.850
 7014POPC   C1A34959  20.607   6.685   8.550
 7014POPC   D2A34960  20.575   6.642   8.250
 7014POPC   C3A34961  20.590   6.656   7.950
 7014POPC   C4A34962  20.596   6.676   7.650
 7014POPC   C1B34963  20.754   6.387   8.550
 7014POPC   C2B34964  20.751   6.472   8.250
 7014POPC   C3B34965  20.752   6.462   7.950
 7014POPC   C4B34966  20.760   6.427   7.650
 7015POPC   NC334967  19.108  11.343   9.450
 7015POPC   PO434968  19.023  11.296   9.150
 7015POPC   GL134969  19.075  11.259   8.850
 7015POPC   GL234970  19.016  11.216   8.850
 7015POPC   C1A34971  19.017  11.269   8.550
 7015POPC   D2A34972  19.046  11.324   8.250
 7015POPC   C3A34973  19.081  11.345   7.950
 7015POPC   C4A34974  19.102  11.287   7.650
 7015POPC   C1B34975  18.889  11.096   8.550
 7015POPC   C2B34976  18.880  11.106   8.250
 7015POPC   C3B34977  18.954  11.048   7.950
 7015POPC   C4B34978  18.958  11.107   7.650
 7016POPC   NC334979   5.100  40.026   9.450
 7016POPC   PO434980   5.138  39.958   9.150
 7016POPC   GL134981   5.057  40.025   8.850
 7016POPC   GL234982   5.055  39.905   8.850
 7016POPC   C1A34983   5.092  40.020   8.550
 7016POPC   D2A34984   5.072  40.048   8.250
 7016POPC   C3A34985   5.070  40.020   7.950
 7016POPC   C4A34986   5.125  39.995   7.650
 7016POPC   C1B34987   4.977  39.742   8.550
 7016POPC   C2B34988   5.043  39.811   8.250
 7016POPC   C3B34989   4.997  39.743   7.950
 7016POPC   C4B34990   5.054  39.816   7.650
 7017POPC   NC334991  33.798  22.123   9.450
 7017POPC   PO434992  33.802  22.142   9.150
 7017POPC   GL134993  33.775  22.113   8.850
 7017POPC   GL234994  33.919  22.125   8.850
 7017POPC   C1A34995  33.807  22.203   8.550
 7017POPC   D2A34996  33.809  22.179   8.250
 7017POPC   C3A34997  33.845  22.160   7.950
 7017POPC   C4A34998  33.821  22.128   7.650
 7017POPC   C1B34999  34.029  22.040   8.550
 7017POPC   C2B35000  34.087  22.132   8.250
 7017POPC   C3B35001  34.055  22.078   7.950
 7017POPC   C4B35002  34.068  22.087   7.650
 7018POPC   NC335003  23.700   6.618   9.450
 7018POPC   PO435004  23.674   6.663   9.150
 7018POPC   GL135005  23.693   6.675   8.850
 7018POPC   GL235006  23.791   6.540   8.850
 7018POPC   C1A35007  23.744   6.647   8.550
 7018POPC   D2A35008  23.729   6.662   8.250
 7018POPC   C3A35009  23.703   6.637   7.950
 7018POPC   C4A35010  23.691   6.604   7.650
 7018POPC   C1B35011  23.877   6.464   8.550
 7018POPC   C2B35012  23.795   6.466   8.250
 7018POPC   C3B35013  23.868   6.444   7.950
 7018POPC   C4B35014  23.818   6.446   7.650
 7019POPC   NC335015  25.256  24.527   9.450
 7019POPC   PO435016  25.291  24.505   9.150
 7019POPC   GL135017  25.283  24.459   8.850
 7019POPC   GL235018  25.416  24.493   8.850
 7019POPC   C1A35019  25.259  24.485   8.550
 7019POPC   D2A35020  25.260  24.476   8.250
 7019POPC   C3A35021  25.296  24.505   7.950
 7019POPC   C4A35022  25.315  24.495   7.650
 7019POPC   C1B35023  25.471  24.492   8.550
 7019POPC   C2B35024  25.545  24.534   8.250
 7019POPC   C3B35025  25.484  24.461   7.950
 7019POPC   C4B35026  25.533  24.528   7.650
 7020POPC   NC335027   5.115  31.453   9.450
 7020POPC   PO435028   5.085  31.497   9.150
 7020POPC   GL135029   5.127  31.467   8.850
 7020POPC   GL235030   5.223  31.534   8.850
 7020POPC   C1A35031   5.127  31.483   8.550
 7020POPC   D2A35032   5.083  31.449   8.250
 7020POPC   C3A35033   5.139  31.472   7.950
 7020POPC   C4A35034   5.088  31.443   7.650
 7020POPC   C1B35035   5.362  31.556   8.550
 7020POPC   C2B35036   5.303  31.471   8.250
 7020POPC   C3B35037   5.354  31.475   7.950
 7020POPC   C4B35038   5.357  31.554   7.650
 7021POPC   NC335039   0.454  22.189   9.450
 7021POPC   PO435040   0.457  22.151   9.150
 7021POPC   GL135041   0.412  22.120   8.850
 7021POPC   GL235042   0.538  22.126   8.850
 7021POPC   C1A35043   0.392  22.179   8.550
 7021POPC   D2A35044   0.390  22.201   8.250
 7021POPC   C3A35045   0.396  22.145   7.950
 7021POPC   C4A35046   0.486  22.173   7.650
 7021POPC   C1B35047   0.694  22.088   8.550
 7021POPC   C2B35048   0.644  22.007   8.250
 7021POPC   C3B35049   0.613  22.015   7.950
 7021POPC   C4B35050   0.647  22.070   7.650
 7022POPC   NC335051  32.269  15.995   9.450
 7022POPC   PO435052  32.212  15.911   9.150
 7022POPC   GL135053  32.231  15.955   8.850
 7022POPC   GL235054  32.159  15.915   8.850
 7022POPC   C1A35055  32.203  15.976   8.550
 7022POPC   D2A35056  32.207  15.953   8.250
 7022POPC   C3A35057  32.268  15.921   7.950
 7022POPC   C4A35058  32.290  15.942   7.650
 7022POPC   C1B35059  31.981  15.981   8.550
 7022POPC   C2B35060  31.984  16.009   8.250
 7022POPC   C3B35061  32.036  15.981   7.950
 7022POPC   C4B35062  32.036  15.949   7.650
 7023POPC   NC335063  18.272  42.297   9.450
 7023POPC   PO435064  18.300  42.367   9.150
 7023POPC   GL135065  18.308  42.322   8.850
 7023POPC   GL235066  18.350  42.280   8.850
 7023POPC   C1A35067  18.253  42.370   8.550
 7023POPC   D2A35068  18.279  42.370   8.250
 7023POPC   C3A35069  18.313  42.354   7.950
 7023POPC   C4A35070  18.287  42.376   7.650
 7023POPC   C1B35071  18.520  42.216   8.550
 7023POPC   C2B35072  18.508  42.221   8.250
 7023POPC   C3B35073  18.502  42.142   7.950
 7023POPC   C4B35074  18.511  42.203   7.650
 7024POPC   NC335075  29.934  25.285   9.450
 7024POPC   PO435076  29.882  25.272   9.150
 7024POPC   GL135077  29.941  25.227   8.850
 7024POPC   GL235078  30.043  25.327   8.850
 7024POPC   C1A35079  29.951  25.242   8.550
 7024POPC   D2A35080  29.969  25.274   8.250
 7024POPC   C3A35081  29.892  25.240   7.950
 7024POPC   C4A35082  29.942  25.269   7.650
 7024POPC   C1B35083  30.166  25.331   8.550
 7024POPC   C2B35084  30.135  25.378   8.250
 7024POPC   C3B35085  30.181  25.300   7.950
 7024POPC   C4B35086  30.159  25.294   7.650
 7025POPC   NC335087   2.022  37.632   9.450
 7025POPC   PO435088   1.963  37.661   9.150
 7025POPC   GL135089   2.025  37.702   8.850
 7025POPC   GL235090   2.082  37.783   8.850
 7025POPC   C1A35091   1.953  37.667   8.550
 7025POPC   D2A35092   2.024  37.724   8.250
 7025POPC   C3A35093   1.968  37.680   7.950
 7025POPC   C4A35094   2.029  37.659   7.650
 7025POPC   C1B35095   2.224  37.862   8.550
 7025POPC   C2B35096   2.197  37.880   8.250
 7025POPC   C3B35097   2.178  37.849   7.950
 7025POPC   C4B35098   2.235  37.878   7.650
 7026POPC   NC335099  43.092  42.348   9.450
 7026POPC   PO435100  43.079  42.381   9.150
 7026POPC   GL135101  43.072  42.301   8.850
 7026POPC   GL235102  43.238  42.398   8.850
 7026POPC   C1A35103  43.067  42.306   8.550
 7026POPC   D2A35104  43.123  42.345   8.250
 7026POPC   C3A35105  43.116  42.309   7.950
 7026POPC   C4A35106  43.078  42.361   7.650
 7026POPC   C1B35107  43.296  42.563   8.550
 7026POPC   C2B35108  43.262  42.554   8.250
 7026POPC   C3B35109  43.300  42.475   7.950
 7026POPC   C4B35110  43.304  42.528   7.650
 7027POPC   NC335111  16.745  29.944   9.450
 7027POPC   PO435112  16.780  29.905   9.150
 7027POPC   GL135113  16.736  29.954   8.850
 7027POPC   GL235114  16.834  29.992   8.850
 7027POPC   C1A35115  16.726  29.911   8.550
 7027POPC   D2A35116  16.718  29.941   8.250
 7027POPC   C3A35117  16.778  29.921   7.950
 7027POPC   C4A35118  16.768  29.872   7.650
 7027POPC   C1B35119  16.843  30.175   8.550
 7027POPC   C2B35120  16.828  30.125   8.250
 7027POPC   C3B35121  16.864  30.133   7.950
 7027POPC   C4B35122  16.865  30.116   7.650
 7028POPC   NC335123  19.832   4.279   9.450
 7028POPC   PO435124  19.882   4.273   9.150
 7028POPC   GL135125  19.870   4.330   8.850
 7028POPC   GL235126  19.705   4.316   8.850
 7028POPC   C1A35127  19.847   4.294   8.550
 7028POPC   D2A35128  19.801   4.293   8.250
 7028POPC   C3A35129  19.857   4.358   7.950
 7028POPC   C4A35130  19.865   4.362   7.650
 7028POPC   C1B35131  19.599   4.319   8.550
 7028POPC   C2B35132  19.632   4.346   8.250
 7028POPC   C3B35133  19.567   4.296   7.950
 7028POPC   C4B35134  19.544   4.346   7.650
 7029POPC   NC335135   6.652  33.064   9.450
 7029POPC   PO435136   6.672  33.057   9.150
 7029POPC   GL135137   6.611  33.026   8.850
 7029POPC   GL235138   6.763  33.101   8.850
 7029POPC   C1A35139   6.656  33.036   8.550
 7029POPC   D2A35140   6.660  32.993   8.250
 7029POPC   C3A35141   6.630  33.007   7.950
 7029POPC   C4A35142   6.660  33.031   7.650
 7029POPC   C1B35143   6.851  33.215   8.550
 7029POPC   C2B35144   6.761  33.210   8.250
 7029POPC   C3B35145   6.844  33.192   7.950
 7029POPC   C4B35146   6.838  33.172   7.650
 7030POPC   NC335147   8.234  43.094   9.450
 7030POPC   PO435148   8.155  43.132   9.150
 7030POPC   GL135149   8.234  43.113   8.850
 7030POPC   GL235150   8.143  43.173   8.850
 7030POPC   C1A35151   8.162  43.156   8.550
 7030POPC   D2A35152   8.198  43.143   8.250
 7030POPC   C3A35153   8.188  43.067   7.950
 7030POPC   C4A35154   8.163  43.114   7.650
 7030POPC   C1B35155   8.040  43.322   8.550
 7030POPC   C2B35156   8.005  43.304   8.250
 7030POPC   C3B35157   8.023  43.323   7.950
 7030POPC   C4B35158   8.060  43.266   7.650
 7031POPC   NC335159  13.603   5.826   9.450
 7031POPC   PO435160  13.604   5.849   9.150
 7031POPC   GL135161  13.589   5.892   8.850
 7031POPC   GL235162  13.726   5.858   8.850
 7031POPC   C1A35163  13.652   5.919   8.550
 7031POPC   D2A35164  13.634   5.884   8.250
 7031POPC   C3A35165  13.630   5.859   7.950
 7031POPC   C4A35166  13.628   5.850   7.650
 7031POPC   C1B35167  13.868   5.790   8.550
 7031POPC   C2B35168  13.879   5.780   8.250
 7031POPC   C3B35169  13.875   5.778   7.950
 7031POPC   C4B35170  13.859   5.814   7.650
 7032POPC   NC335171   4.340  13.583   9.450
 7032POPC   PO435172   4.320  13.587   9.150
 7032POPC   GL135173   4.275  13.597   8.850
 7032POPC   GL235174   4.447  13.729   8.850
 7032POPC   C1A35175   4.349  13.665   8.550
 7032POPC   D2A35176   4.272  13.604   8.250
 7032POPC   C3A35177   4.320  13.579   7.950
 7032POPC   C4A35178   4.364  13.639   7.650
 7032POPC   C1B35179   4.560  13.700   8.550
 7032POPC   C2B35180   4.546  13.750   8.250
 7032POPC   C3B35181   4.519  13.723   7.950
 7032POPC   C4B35182   4.542  13.709   7.650
 7033POPC   NC335183  25.231  15.915   9.450
 7033POPC   PO435184  25.298  15.954   9.150
 7033POPC   GL135185  25.275  15.909   8.850
 7033POPC   GL235186  25.151  15.940   8.850
 7033POPC   C1A35187  25.224  15.917   8.550
 7033POPC   D2A35188  25.257  15.959   8.250
 7033POPC   C3A35189  25.284  15.913   7.950
 7033POPC   C4A35190  25.236  16.002   7.650
 7033POPC   C1B35191  25.052  15.999   8.550
 7033POPC   C2B35192  24.979  16.025   8.250
 7033POPC   C3B35193  25.003  15.989   7.950
 7033POPC   C4B35194  24.975  15.984   7.650
 7034POPC   NC335195   6.611  41.532   9.450
 7034POPC   PO435196   6.604  41.578   9.150
 7034POPC   GL135197   6.649  41.509   8.850
 7034POPC   GL235198   6.719  41.687   8.850
 7034POPC   C1A35199   6.626  41.548   8.550
 7034POPC   D2A35200   6.686  41.584   8.250
 7034POPC   C3A35201   6.605  41.517   7.950
 7034POPC   C4A35202   6.688  41.596   7.650
 7034POPC   C1B35203   6.759  41.738   8.550
 7034POPC   C2B35204   6.781  41.730   8.250
 7034POPC   C3B35205   6.790  41.727   7.950
 7034POPC   C4B35206   6.753  41.740   7.650
 7035POPC   NC335207   9.005  24.487   9.450
 7035POPC   PO435208   8.971  24.485   9.150
 7035POPC   GL135209   8.998  24.460   8.850
 7035POPC   GL235210   8.882  24.517   8.850
 7035POPC   C1A35211   8.967  24.443   8.550
 7035POPC   D2A35212   8.980  24.483   8.250
 7035POPC   C3A35213   9.017  24.489   7.950
 7035POPC   C4A35214   8.932  24.516   7.650
 7035POPC   C1B35215   8.744  24.610   8.550
 7035POPC   C2B35216   8.773  24.604   8.250
 7035POPC   C3B35217   8.741  24.643   7.950
 7035POPC   C4B35218   8.731  24.626   7.650
 7036POPC   NC335219  24.537   8.941   9.450
 7036POPC   PO435220  24.447   9.011   9.150
 7036POPC   GL135221  24.514   8.938   8.850
 7036POPC   GL235222  24.329   9.037   8.850
 7036POPC   C1A35223  24.498   8.931   8.550
 7036POPC   D2A35224  24.454   8.968   8.250
 7036POPC   C3A35225  24.449   8.967   7.950
 7036POPC   C4A35226  24.517   8.930   7.650
 7036POPC   C1B35227  24.237   9.044   8.550
 7036POPC   C2B35228  24.299   9.040   8.250
 7036POPC   C3B35229  24.296   9.093   7.950
 7036POPC   C4B35230  24.237   9.101   7.650
 7037POPC   NC335231  19.061  19.856   9.450
 7037POPC   PO435232  19.077  19.827   9.150
 7037POPC   GL135233  19.061  19.804   8.850
 7037POPC   GL235234  19.056  19.999   8.850
 7037POPC   C1A35235  19.098  19.819   8.550
 7037POPC   D2A35236  19.067  19.804   8.250
 7037POPC   C3A35237  19.017  19.857   7.950
 7037POPC   C4A35238  19.025  19.883   7.650
 7037POPC   C1B35239  18.990  20.057   8.550
 7037POPC   C2B35240  19.032  20.061   8.250
 7037POPC   C3B35241  19.028  20.105   7.950
 7037POPC   C4B35242  18.991  20.036   7.650
 7038POPC   NC335243  33.845  32.998   9.450
 7038POPC   PO435244  33.811  32.984   9.150
 7038POPC   GL135245  33.842  32.983   8.850
 7038POPC   GL235246  33.933  32.986   8.850
 7038POPC   C1A35247  33.792  32.995   8.550
 7038POPC   D2A35248  33.796  33.007   8.250
 7038POPC   C3A35249  33.823  33.022   7.950
 7038POPC   C4A35250  33.798  33.038   7.650
 7038POPC   C1B35251  34.066  33.014   8.550
 7038POPC   C2B35252  34.093  32.959   8.250
 7038POPC   C3B35253  34.039  32.950   7.950
 7038POPC   C4B35254  34.048  32.950   7.650
 7039POPC   NC335255   0.410  30.661   9.450
 7039POPC   PO435256   0.395  30.687   9.150
 7039POPC   GL135257   0.442  30.713   8.850
 7039POPC   GL235258   0.391  30.729   8.850
 7039POPC   C1A35259   0.419  30.710   8.550
 7039POPC   D2A35260   0.462  30.701   8.250
 7039POPC   C3A35261   0.488  30.653   7.950
 7039POPC   C4A35262   0.460  30.696   7.650
 7039POPC   C1B35263   0.294  30.808   8.550
 7039POPC   C2B35264   0.256  30.876   8.250
 7039POPC   C3B35265   0.272  30.877   7.950
 7039POPC   C4B35266   0.255  30.897   7.650
 7040POPC   NC335267  15.202   5.898   9.450
 7040POPC   PO435268  15.142   5.893   9.150
 7040POPC   GL135269  15.157   5.875   8.850
 7040POPC   GL235270  15.249   5.725   8.850
 7040POPC   C1A35271  15.212   5.918   8.550
 7040POPC   D2A35272  15.135   5.875   8.250
 7040POPC   C3A35273  15.188   5.912   7.950
 7040POPC   C4A35274  15.209   5.821   7.650
 7040POPC   C1B35275  15.249   5.617   8.550
 7040POPC   C2B35276  15.265   5.643   8.250
 7040POPC   C3B35277  15.271   5.655   7.950
 7040POPC   C4B35278  15.228   5.614   7.650
 7041POPC   NC335279  10.496  11.271   9.450
 7041POPC   PO435280  10.510  11.280   9.150
 7041POPC   GL135281  10.566  11.261   8.850
 7041POPC   GL235282  10.357  11.314   8.850
 7041POPC   C1A35283  10.502  11.300   8.550
 7041POPC   D2A35284  10.486  11.255   8.250
 7041POPC   C3A35285  10.544  11.259   7.950
 7041POPC   C4A35286  10.557  11.347   7.650
 7041POPC   C1B35287  10.306  11.324   8.550
 7041POPC   C2B35288  10.247  11.322   8.250
 7041POPC   C3B35289  10.284  11.367   7.950
 7041POPC   C4B35290  10.246  11.346   7.650
 7042POPC   NC335291  29.130   8.230   9.450
 7042POPC   PO435292  29.192   8.164   9.150
 7042POPC   GL135293  29.186   8.242   8.850
 7042POPC   GL235294  29.097   8.101   8.850
 7042POPC   C1A35295  29.142   8.196   8.550
 7042POPC   D2A35296  29.148   8.200   8.250
 7042POPC   C3A35297  29.103   8.237   7.950
 7042POPC   C4A35298  29.160   8.214   7.650
 7042POPC   C1B35299  29.004   7.971   8.550
 7042POPC   C2B35300  29.024   8.043   8.250
 7042POPC   C3B35301  29.007   8.036   7.950
 7042POPC   C4B35302  28.975   7.961   7.650
 7043POPC   NC335303  12.101  36.854   9.450
 7043POPC   PO435304  12.126  36.901   9.150
 7043POPC   GL135305  12.047  36.947   8.850
 7043POPC   GL235306  12.238  36.829   8.850
 7043POPC   C1A35307  12.032  36.854   8.550
 7043POPC   D2A35308  12.084  36.915   8.250
 7043POPC   C3A35309  12.042  36.869   7.950
 7043POPC   C4A35310  12.097  36.944   7.650
 7043POPC   C1B35311  12.342  36.861   8.550
 7043POPC   C2B35312  12.270  36.838   8.250
 7043POPC   C3B35313  12.345  36.807   7.950
 7043POPC   C4B35314  12.320  36.804   7.650
 7044POPC   NC335315  44.693  15.942   9.450
 7044POPC   PO435316  44.627  15.913   9.150
 7044POPC   GL135317  44.633  15.948   8.850
 7044POPC   GL235318  44.768  15.871   8.850
 7044POPC   C1A35319  44.614  15.979   8.550
 7044POPC   D2A35320  44.655  15.954   8.250
 7044POPC   C3A35321  44.676  15.948   7.950
 7044POPC   C4A35322  44.695  15.916   7.650
 7044POPC   C1B35323  44.913  15.889   8.550
 7044POPC   C2B35324  44.884  15.878   8.250
 7044POPC   C3B35325  44.852  15.865   7.950
 7044POPC   C4B35326  44.907  15.873   7.650
 7045POPC   NC335327  34.606  22.888   9.450
 7045POPC   PO435328  34.587  22.910   9.150
 7045POPC   GL135329  34.551  22.963   8.850
 7045POPC   GL235330  34.696  22.846   8.850
 7045POPC   C1A35331  34.529  22.893   8.550
 7045POPC   D2A35332  34.605  22.891   8.250
 7045POPC   C3A35333  34.618  22.889   7.950
 7045POPC   C4A35334  34.576  22.934   7.650
 7045POPC   C1B35335  34.813  22.826   8.550
 7045POPC   C2B35336  34.819  22.750   8.250
 7045POPC   C3B35337  34.780  22.825   7.950
 7045POPC   C4B35338  34.749  22.797   7.650
 7046POPC   NC335339  23.741  12.832   9.450
 7046POPC   PO435340  23.760  12.872   9.150
 7046POPC   GL135341  23.716  12.805   8.850
 7046POPC   GL235342  23.755  12.729   8.850
 7046POPC   C1A35343  23.733  12.888   8.550
 7046POPC   D2A35344  23.685  12.876   8.250
 7046POPC   C3A35345  23.743  12.889   7.950
 7046POPC   C4A35346  23.743  12.832   7.650
 7046POPC   C1B35347  23.838  12.704   8.550
 7046POPC   C2B35348  23.889  12.668   8.250
 7046POPC   C3B35349  23.841  12.688   7.950
 7046POPC   C4B35350  23.891  12.691   7.650
 7047POPC   NC335351  41.586  16.769   9.450
 7047POPC   PO435352  41.564  16.740   9.150
 7047POPC   GL135353  41.574  16.768   8.850
 7047POPC   GL235354  41.584  16.576   8.850
 7047POPC   C1A35355  41.512  16.780   8.550
 7047POPC   D2A35356  41.577  16.779   8.250
 7047POPC   C3A35357  41.575  16.683   7.950
 7047POPC   C4A35358  41.564  16.751   7.650
 7047POPC   C1B35359  41.601  16.441   8.550
 7047POPC   C2B35360  41.591  16.441   8.250
 7047POPC   C3B35361  41.641  16.472   7.950
 7047POPC   C4B35362  41.612  16.527   7.650
 7048POPC   NC335363  41.558  18.298   9.450
 7048POPC   PO435364  41.606  18.303   9.150
 7048POPC   GL135365  41.538  18.261   8.850
 7048POPC   GL235366  41.526  18.182   8.850
 7048POPC   C1A35367  41.538  18.308   8.550
 7048POPC   D2A35368  41.586  18.253   8.250
 7048POPC   C3A35369  41.554  18.250   7.950
 7048POPC   C4A35370  41.594  18.269   7.650
 7048POPC   C1B35371  41.387  18.032   8.550
 7048POPC   C2B35372  41.408  18.113   8.250
 7048POPC   C3B35373  41.440  18.031   7.950
 7048POPC   C4B35374  41.436  18.038   7.650
 7049POPC   NC335375   9.020  19.877   9.450
 7049POPC   PO435376   8.951  19.793   9.150
 7049POPC   GL135377   8.997  19.836   8.850
 7049POPC   GL235378   8.983  19.739   8.850
 7049POPC   C1A35379   8.961  19.851   8.550
 7049POPC   D2A35380   9.010  19.860   8.250
 7049POPC   C3A35381   8.930  19.794   7.950
 7049POPC   C4A35382   8.926  19.788   7.650
 7049POPC   C1B35383   8.978  19.581   8.550
 7049POPC   C2B35384   8.909  19.635   8.250
 7049POPC   C3B35385   8.967  19.571   7.950
 7049POPC   C4B35386   8.946  19.631   7.650
 7050POPC   NC335387  33.047  15.161   9.450
 7050POPC   PO435388  33.031  15.177   9.150
 7050POPC   GL135389  33.029  15.139   8.850
 7050POPC   GL235390  32.913  15.315   8.850
 7050POPC   C1A35391  32.975  15.168   8.550
 7050POPC   D2A35392  33.039  15.222   8.250
 7050POPC   C3A35393  33.065  15.198   7.950
 7050POPC   C4A35394  32.984  15.191   7.650
 7050POPC   C1B35395  32.863  15.419   8.550
 7050POPC   C2B35396  32.845  15.404   8.250
 7050POPC   C3B35397  32.927  15.364   7.950
 7050POPC   C4B35398  32.866  15.424   7.650
 7051POPC   NC335399   2.039  19.047   9.450
 7051POPC   PO435400   2.029  19.075   9.150
 7051POPC   GL135401   1.991  19.038   8.850
 7051POPC   GL235402   2.035  18.918   8.850
 7051POPC   C1A35403   1.975  19.030   8.550
 7051POPC   D2A35404   2.038  19.040   8.250
 7051POPC   C3A35405   2.005  19.102   7.950
 7051POPC   C4A35406   1.945  19.013   7.650
 7051POPC   C1B35407   2.163  18.830   8.550
 7051POPC   C2B35408   2.142  18.889   8.250
 7051POPC   C3B35409   2.173  18.911   7.950
 7051POPC   C4B35410   2.118  18.834   7.650
 7052POPC   NC335411  14.371  21.381   9.450
 7052POPC   PO435412  14.397  21.340   9.150
 7052POPC   GL135413  14.369  21.368   8.850
 7052POPC   GL235414  14.259  21.416   8.850
 7052POPC   C1A35415  14.360  21.398   8.550
 7052POPC   D2A35416  14.376  21.338   8.250
 7052POPC   C3A35417  14.436  21.402   7.950
 7052POPC   C4A35418  14.404  21.433   7.650
 7052POPC   C1B35419  14.170  21.449   8.550
 7052POPC   C2B35420  14.156  21.479   8.250
 7052POPC   C3B35421  14.199  21.449   7.950
 7052POPC   C4B35422  14.180  21.448   7.650
 7053POPC   NC335423  29.876  11.349   9.450
 7053POPC   PO435424  29.935  11.318   9.150
 7053POPC   GL135425  29.962  11.270   8.850
 7053POPC   GL235426  30.079  11.320   8.850
 7053POPC   C1A35427  29.956  11.316   8.550
 7053POPC   D2A35428  29.953  11.342   8.250
 7053POPC   C3A35429  29.881  11.268   7.950
 7053POPC   C4A35430  29.937  11.313   7.650
 7053POPC   C1B35431  30.140  11.233   8.550
 7053POPC   C2B35432  30.177  11.251   8.250
 7053POPC   C3B35433  30.205  11.284   7.950
 7053POPC   C4B35434  30.141  11.283   7.650
 7054POPC   NC335435  38.482  26.781   9.450
 7054POPC   PO435436  38.489  26.849   9.150
 7054POPC   GL135437  38.474  26.829   8.850
 7054POPC   GL235438  38.357  26.898   8.850
 7054POPC   C1A35439  38.416  26.839   8.550
 7054POPC   D2A35440  38.446  26.815   8.250
 7054POPC   C3A35441  38.485  26.835   7.950
 7054POPC   C4A35442  38.479  26.773   7.650
 7054POPC   C1B35443  38.311  26.993   8.550
 7054POPC   C2B35444  38.281  26.958   8.250
 7054POPC   C3B35445  38.261  27.011   7.950
 7054POPC   C4B35446  38.265  27.014   7.650
 7055POPC   NC335447  33.768  36.122   9.450
 7055POPC   PO435448  33.762  36.110   9.150
 7055POPC   GL135449  33.760  36.107   8.850
 7055POPC   GL235450  33.667  36.099   8.850
 7055POPC   C1A35451  33.756  36.089   8.550
 7055POPC   D2A35452  33.836  36.146   8.250
 7055POPC   C3A35453  33.774  36.136   7.950
 7055POPC   C4A35454  33.767  36.117   7.650
 7055POPC   C1B35455  33.598  36.021   8.550
 7055POPC   C2B35456  33.609  36.063   8.250
 7055POPC   C3B35457  33.571  36.062   7.950
 7055POPC   C4B35458  33.566  36.023   7.650
 7056POPC   NC335459  23.683  26.847   9.450
 7056POPC   PO435460  23.737  26.821   9.150
 7056POPC   GL135461  23.689  26.780   8.850
 7056POPC   GL235462  23.570  26.832   8.850
 7056POPC   C1A35463  23.671  26.774   8.550
 7056POPC   D2A35464  23.693  26.862   8.250
 7056POPC   C3A35465  23.698  26.844   7.950
 7056POPC   C4A35466  23.697  26.836   7.650
 7056POPC   C1B35467  23.512  26.826   8.550
 7056POPC   C2B35468  23.469  26.789   8.250
 7056POPC   C3B35469  23.457  26.824   7.950
 7056POPC   C4B35470  23.420  26.801   7.650
 7057POPC   NC335471   3.497  18.303   9.450
 7057POPC   PO435472   3.548  18.307   9.150
 7057POPC   GL135473   3.562  18.285   8.850
 7057POPC   GL235474   3.455  18.195   8.850
 7057POPC   C1A35475   3.554  18.250   8.550
 7057POPC   D2A35476   3.521  18.255   8.250
 7057POPC   C3A35477   3.524  18.296   7.950
 7057POPC   C4A35478   3.528  18.282   7.650
 7057POPC   C1B35479   3.423  18.057   8.550
 7057POPC   C2B35480   3.467  18.024   8.250
 7057POPC   C3B35481   3.416  18.060   7.950
 7057POPC   C4B35482   3.425  18.014   7.650
 7058POPC   NC335483  22.136  16.683   9.450
 7058POPC   PO435484  22.171  16.682   9.150
 7058POPC   GL135485  22.193  16.726   8.850
 7058POPC   GL235486  22.097  16.853   8.850
 7058POPC   C1A35487  22.212  16.720   8.550
 7058POPC   D2A35488  22.211  16.691   8.250
 7058POPC   C3A35489  22.180  16.697   7.950
 7058POPC   C4A35490  22.195  16.733   7.650
 7058POPC   C1B35491  22.055  16.902   8.550
 7058POPC   C2B35492  22.084  16.901   8.250
 7058POPC   C3B35493  22.049  16.945   7.950
 7058POPC   C4B35494  22.068  16.912   7.650
 7059POPC   NC335495  21.429  38.408   9.450
 7059POPC   PO435496  21.342  38.450   9.150
 7059POPC   GL135497  21.423  38.430   8.850
 7059POPC   GL235498  21.313  38.382   8.850
 7059POPC   C1A35499  21.352  38.437   8.550
 7059POPC   D2A35500  21.403  38.441   8.250
 7059POPC   C3A35501  21.434  38.420   7.950
 7059POPC   C4A35502  21.411  38.468   7.650
 7059POPC   C1B35503  21.136  38.405   8.550
 7059POPC   C2B35504  21.200  38.394   8.250
 7059POPC   C3B35505  21.155  38.361   7.950
 7059POPC   C4B35506  21.119  38.316   7.650
 7060POPC   NC335507  16.697  30.662   9.450
 7060POPC   PO435508  16.776  30.665   9.150
 7060POPC   GL135509  16.756  30.710   8.850
 7060POPC   GL235510  16.833  30.700   8.850
 7060POPC   C1A35511  16.689  30.687   8.550
 7060POPC   D2A35512  16.764  30.713   8.250
 7060POPC   C3A35513  16.740  30.709   7.950
 7060POPC   C4A35514  16.683  30.691   7.650
 7060POPC   C1B35515  16.965  30.718   8.550
 7060POPC   C2B35516  17.009  30.763   8.250
 7060POPC   C3B35517  16.971  30.754   7.950
 7060POPC   C4B35518  17.028  30.769   7.650
 7061POPC   NC335519  15.983  27.553   9.450
 7061POPC   PO435520  16.001  27.599   9.150
 7061POPC   GL135521  15.990  27.552   8.850
 7061POPC   GL235522  15.913  27.494   8.850
 7061POPC   C1A35523  15.969  27.581   8.550
 7061POPC   D2A35524  15.928  27.551   8.250
 7061POPC   C3A35525  15.933  27.593   7.950
 7061POPC   C4A35526  15.925  27.572   7.650
 7061POPC   C1B35527  15.920  27.311   8.550
 7061POPC   C2B35528  15.935  27.332   8.250
 7061POPC   C3B35529  15.888  27.326   7.950
 7061POPC   C4B35530  15.890  27.382   7.650
 7062POPC   NC335531   0.428  42.306   9.450
 7062POPC   PO435532   0.406  42.372   9.150
 7062POPC   GL135533   0.413  42.285   8.850
 7062POPC   GL235534   0.375  42.408   8.850
 7062POPC   C1A35535   0.471  42.301   8.550
 7062POPC   D2A35536   0.471  42.381   8.250
 7062POPC   C3A35537   0.426  42.376   7.950
 7062POPC   C4A35538   0.428  42.361   7.650
 7062POPC   C1B35539   0.287  42.478   8.550
 7062POPC   C2B35540   0.234  42.465   8.250
 7062POPC   C3B35541   0.256  42.458   7.950
 7062POPC   C4B35542   0.270  42.512   7.650
 7063POPC   NC335543  31.511  31.509   9.450
 7063POPC   PO435544  31.445  31.484   9.150
 7063POPC   GL135545  31.432  31.431   8.850
 7063POPC   GL235546  31.500  31.324   8.850
 7063POPC   C1A35547  31.506  31.522   8.550
 7063POPC   D2A35548  31.423  31.504   8.250
 7063POPC   C3A35549  31.459  31.520   7.950
 7063POPC   C4A35550  31.441  31.516   7.650
 7063POPC   C1B35551  31.611  31.253   8.550
 7063POPC   C2B35552  31.587  31.219   8.250
 7063POPC   C3B35553  31.651  31.308   7.950
 7063POPC   C4B35554  31.645  31.293   7.650
 7064POPC   NC335555  25.289  34.604   9.450
 7064POPC   PO435556  25.310  34.543   9.150
 7064POPC   GL135557  25.235  34.542   8.850
 7064POPC   GL235558  25.183  34.598   8.850
 7064POPC   C1A35559  25.233  34.610   8.550
 7064POPC   D2A35560  25.248  34.603   8.250
 7064POPC   C3A35561  25.242  34.591   7.950
 7064POPC   C4A35562  25.237  34.559   7.650
 7064POPC   C1B35563  24.982  34.568   8.550
 7064POPC   C2B35564  25.046  34.626   8.250
 7064POPC   C3B35565  25.061  34.576   7.950
 7064POPC   C4B35566  25.040  34.619   7.650
 7065POPC   NC335567  43.068  12.811   9.450
 7065POPC   PO435568  43.141  12.817   9.150
 7065POPC   GL135569  43.141  12.814   8.850
 7065POPC   GL235570  43.034  12.796   8.850
 7065POPC   C1A35571  43.155  12.857   8.550
 7065POPC   D2A35572  43.118  12.850   8.250
 7065POPC   C3A35573  43.076  12.807   7.950
 7065POPC   C4A35574  43.113  12.865   7.650
 7065POPC   C1B35575  42.834  12.773   8.550
 7065POPC   C2B35576  42.847  12.776   8.250
 7065POPC   C3B35577  42.890  12.749   7.950
 7065POPC   C4B35578  42.906  12.802   7.650
 7066POPC   NC335579  26.075  28.356   9.450
 7066POPC   PO435580  26.090  28.390   9.150
 7066POPC   GL135581  26.023  28.365   8.850
 7066POPC   GL235582  26.125  28.312   8.850
 7066POPC   C1A35583  26.032  28.339   8.550
 7066POPC   D2A35584  26.012  28.348   8.250
 7066POPC   C3A35585  26.054  28.357   7.950
 7066POPC   C4A35586  26.082  28.337   7.650
 7066POPC   C1B35587  26.193  28.193   8.550
 7066POPC   C2B35588  26.252  28.205   8.250
 7066POPC   C3B35589  26.291  28.242   7.950
 7066POPC   C4B35590  26.268  28.255   7.650
 7067POPC   NC335591   5.902   1.233   9.450
 7067POPC   PO435592   5.890   1.189   9.150
 7067POPC   GL135593   5.831   1.237   8.850
 7067POPC   GL235594   5.773   1.167   8.850
 7067POPC   C1A35595   5.916   1.240   8.550
 7067POPC   D2A35596   5.846   1.244   8.250
 7067POPC   C3A35597   5.858   1.233   7.950
 7067POPC   C4A35598   5.837   1.213   7.650
 7067POPC   C1B35599   5.708   1.073   8.550
 7067POPC   C2B35600   5.740   1.004   8.250
 7067POPC   C3B35601   5.722   1.046   7.950
 7067POPC   C4B35602   5.726   1.045   7.650
 7068POPC   NC335603  15.178  27.574   9.450
 7068POPC   PO435604  15.214  27.609   9.150
 7068POPC   GL135605  15.204  27.576   8.850
 7068POPC   GL235606  15.247  27.511   8.850
 7068POPC   C1A35607  15.178  27.597   8.550
 7068POPC   D2A35608  15.203  27.589   8.250
 7068POPC   C3A35609  15.176  27.561   7.950
 7068POPC   C4A35610  15.217  27.594   7.650
 7068POPC   C1B35611  15.347  27.506   8.550
 7068POPC   C2B35612  15.353  27.477   8.250
 7068POPC   C3B35613  15.354  27.461   7.950
 7068POPC   C4B35614  15.365  27.495   7.650
 7069POPC   NC335615  38.466   9.768   9.450
 7069POPC   PO435616  38.457   9.734   9.150
 7069POPC   GL135617  38.495   9.749   8.850
 7069POPC   GL235618  38.404   9.591   8.850
 7069POPC   C1A35619  38.470   9.770   8.550
 7069POPC   D2A35620  38.500   9.747   8.250
 7069POPC   C3A35621  38.497   9.743   7.950
 7069POPC   C4A35622  38.438   9.771   7.650
 7069POPC   C1B35623  38.455   9.539   8.550
 7069POPC   C2B35624  38.426   9.541   8.250
 7069POPC   C3B35625  38.439   9.483   7.950
 7069POPC   C4B35626  38.418   9.474   7.650
 7070POPC   NC335627  26.792   5.135   9.450
 7070POPC   PO435628  26.862   5.079   9.150
 7070POPC   GL135629  26.857   5.086   8.850
 7070POPC   GL235630  26.777   5.160   8.850
 7070POPC   C1A35631  26.774   5.110   8.550
 7070POPC   D2A35632  26.843   5.064   8.250
 7070POPC   C3A35633  26.820   5.086   7.950
 7070POPC   C4A35634  26.768   5.071   7.650
 7070POPC   C1B35635  26.630   5.279   8.550
 7070POPC   C2B35636  26.717   5.300   8.250
 7070POPC   C3B35637  26.680   5.264   7.950
 7070POPC   C4B35638  26.684   5.276   7.650
 7071POPC   NC335639  13.585  22.906   9.450
 7071POPC   PO435640  13.670  22.936   9.150
 7071POPC   GL135641  13.602  22.944   8.850
 7071POPC   GL235642  13.509  23.047   8.850
 7071POPC   C1A35643  13.672  22.956   8.550
 7071POPC   D2A35644  13.597  22.930   8.250
 7071POPC   C3A35645  13.598  22.942   7.950
 7071POPC   C4A35646  13.591  22.930   7.650
 7071POPC   C1B35647  13.420  23.133   8.550
 7071POPC   C2B35648  13.386  23.094   8.250
 7071POPC   C3B35649  13.411  23.083   7.950
 7071POPC   C4B35650  13.458  23.080   7.650
 7072POPC   NC335651  44.704  26.061   9.450
 7072POPC   PO435652  44.698  26.061   9.150
 7072POPC   GL135653  44.688  26.055   8.850
 7072POPC   GL235654  44.642  25.945   8.850
 7072POPC   C1A35655  44.693  26.081   8.550
 7072POPC   D2A35656  44.658  26.088   8.250
 7072POPC   C3A35657  44.619  26.003   7.950
 7072POPC   C4A35658  44.696  26.017   7.650
 7072POPC   C1B35659  44.543  25.771   8.550
 7072POPC   C2B35660  44.612  25.788   8.250
 7072POPC   C3B35661  44.596  25.774   7.950
 7072POPC   C4B35662  44.586  25.800   7.650
 7073POPC   NC335663  30.727  43.935   9.450
 7073POPC   PO435664  30.681  43.877   9.150
 7073POPC   GL135665  30.662  43.842   8.850
 7073POPC   GL235666  30.699  43.811   8.850
 7073POPC   C1A35667  30.740  43.881   8.550
 7073POPC   D2A35668  30.679  43.930   8.250
 7073POPC   C3A35669  30.648  43.868   7.950
 7073POPC   C4A35670  30.715  43.910   7.650
 7073POPC   C1B35671  30.676  43.655   8.550
 7073POPC   C2B35672  30.713  43.620   8.250
 7073POPC   C3B35673  30.724  43.633   7.950
 7073POPC   C4B35674  30.700  43.608   7.650
 7074POPC   NC335675  15.907   5.141   9.450
 7074POPC   PO435676  15.957   5.135   9.150
 7074POPC   GL135677  15.935   5.121   8.850
 7074POPC   GL235678  15.858   5.130   8.850
 7074POPC   C1A35679  15.944   5.066   8.550
 7074POPC   D2A35680  15.992   5.085   8.250
 7074POPC   C3A35681  16.005   5.140   7.950
 7074POPC   C4A35682  15.993   5.110   7.650
 7074POPC   C1B35683  15.747   5.043   8.550
 7074POPC   C2B35684  15.685   5.060   8.250
 7074POPC   C3B35685  15.705   5.076   7.950
 7074POPC   C4B35686  15.695   5.041   7.650
 7075POPC   NC335687  43.873   3.575   9.450
 7075POPC   PO435688  43.871   3.518   9.150
 7075POPC   GL135689  43.920   3.538   8.850
 7075POPC   GL235690  43.970   3.477   8.850
 7075POPC   C1A35691  43.852   3.579   8.550
 7075POPC   D2A35692  43.910   3.519   8.250
 7075POPC   C3A35693  43.930   3.493   7.950
 7075POPC   C4A35694  43.887   3.497   7.650
 7075POPC   C1B35695  44.065   3.406   8.550
 7075POPC   C2B35696  44.088   3.431   8.250
 7075POPC   C3B35697  44.091   3.447   7.950
 7075POPC   C4B35698  44.148   3.464   7.650
 7076POPC   NC335699   1.171  34.585   9.450
 7076POPC   PO435700   1.255  34.604   9.150
 7076POPC   GL135701   1.192  34.530   8.850
 7076POPC   GL235702   1.348  34.561   8.850
 7076POPC   C1A35703   1.242  34.622   8.550
 7076POPC   D2A35704   1.172  34.614   8.250
 7076POPC   C3A35705   1.239  34.530   7.950
 7076POPC   C4A35706   1.179  34.529   7.650
 7076POPC   C1B35707   1.504  34.548   8.550
 7076POPC   C2B35708   1.482  34.551   8.250
 7076POPC   C3B35709   1.454  34.539   7.950
 7076POPC   C4B35710   1.418  34.534   7.650
 7077POPC   NC335711  28.350  25.243   9.450
 7077POPC   PO435712  28.323  25.299   9.150
 7077POPC   GL135713  28.387  25.307   8.850
 7077POPC   GL235714  28.286  25.277   8.850
 7077POPC   C1A35715  28.335  25.258   8.550
 7077POPC   D2A35716  28.330  25.307   8.250
 7077POPC   C3A35717  28.356  25.261   7.950
 7077POPC   C4A35718  28.321  25.287   7.650
 7077POPC   C1B35719  28.112  25.358   8.550
 7077POPC   C2B35720  28.141  25.361   8.250
 7077POPC   C3B35721  28.103  25.363   7.950
 7077POPC   C4B35722  28.097  25.344   7.650
 7078POPC   NC335723  33.767   0.409   9.450
 7078POPC   PO435724  33.770   0.447   9.150
 7078POPC   GL135725  33.846   0.426   8.850
 7078POPC   GL235726  33.722   0.467   8.850
 7078POPC   C1A35727  33.787   0.453   8.550
 7078POPC   D2A35728  33.767   0.465   8.250
 7078POPC   C3A35729  33.767   0.389   7.950
 7078POPC   C4A35730  33.844   0.418   7.650
 7078POPC   C1B35731  33.595   0.462   8.550
 7078POPC   C2B35732  33.514   0.453   8.250
 7078POPC   C3B35733  33.576   0.513   7.950
 7078POPC   C4B35734  33.528   0.526   7.650
 7079POPC   NC335735   2.768   0.420   9.450
 7079POPC   PO435736   2.758   0.399   9.150
 7079POPC   GL135737   2.809   0.411   8.850
 7079POPC   GL235738   2.837   0.553   8.850
 7079POPC   C1A35739   2.739   0.455   8.550
 7079POPC   D2A35740   2.718   0.413   8.250
 7079POPC   C3A35741   2.765   0.438   7.950
 7079POPC   C4A35742   2.761   0.396   7.650
 7079POPC   C1B35743   2.949   0.637   8.550
 7079POPC   C2B35744   2.968   0.625   8.250
 7079POPC   C3B35745   2.967   0.598   7.950
 7079POPC   C4B35746   2.942   0.625   7.650
 7080POPC   NC335747   9.017   9.754   9.450
 7080POPC   PO435748   8.981   9.792   9.150
 7080POPC   GL135749   8.971   9.734   8.850
 7080POPC   GL235750   8.843   9.823   8.850
 7080POPC   C1A35751   8.987   9.794   8.550
 7080POPC   D2A35752   9.007   9.758   8.250
 7080POPC   C3A35753   8.977   9.787   7.950
 7080POPC   C4A35754   8.987   9.708   7.650
 7080POPC   C1B35755   8.832   9.878   8.550
 7080POPC   C2B35756   8.819   9.876   8.250
 7080POPC   C3B35757   8.812   9.866   7.950
 7080POPC   C4B35758   8.741   9.905   7.650
 7081POPC   NC335759  39.228  25.234   9.450
 7081POPC   PO435760  39.183  25.307   9.150
 7081POPC   GL135761  39.269  25.256   8.850
 7081POPC   GL235762  39.306  25.277   8.850
 7081POPC   C1A35763  39.277  25.216   8.550
 7081POPC   D2A35764  39.281  25.242   8.250
 7081POPC   C3A35765  39.215  25.252   7.950
 7081POPC   C4A35766  39.268  25.239   7.650
 7081POPC   C1B35767  39.466  25.253   8.550
 7081POPC   C2B35768  39.509  25.222   8.250
 7081POPC   C3B35769  39.481  25.242   7.950
 7081POPC   C4B35770  39.479  25.200   7.650
 7082POPC   NC335771  19.023  15.161   9.450
 7082POPC   PO435772  19.009  15.138   9.150
 7082POPC   GL135773  19.078  15.142   8.850
 7082POPC   GL235774  18.948  15.152   8.850
 7082POPC   C1A35775  19.086  15.179   8.550
 7082POPC   D2A35776  19.010  15.144   8.250
 7082POPC   C3A35777  19.068  15.227   7.950
 7082POPC   C4A35778  19.037  15.203   7.650
 7082POPC   C1B35779  18.837  15.167   8.550
 7082POPC   C2B35780  18.831  15.202   8.250
 7082POPC   C3B35781  18.838  15.165   7.950
 7082POPC   C4B35782  18.821  15.222   7.650
 7083POPC   NC335783  22.980  14.424   9.450
 7083POPC   PO435784  22.974  14.387   9.150
 7083POPC   GL135785  22.932  14.422   8.850
 7083POPC   GL235786  22.975  14.247   8.850
 7083POPC   C1A35787  22.914  14.397   8.550
 7083POPC   D2A35788  22.959  14.451   8.250
 7083POPC   C3A35789  22.939  14.400   7.950
 7083POPC   C4A35790  22.978  14.424   7.650
 7083POPC   C1B35791  22.991  14.180   8.550
 7083POPC   C2B35792  22.995  14.110   8.250
 7083POPC   C3B35793  23.032  14.207   7.950
 7083POPC   C4B35794  23.030  14.151   7.650
 7084POPC   NC335795   4.283  42.336   9.450
 7084POPC   PO435796   4.320  42.314   9.150
 7084POPC   GL135797   4.324  42.297   8.850
 7084POPC   GL235798   4.408  42.376   8.850
 7084POPC   C1A35799   4.293  42.319   8.550
 7084POPC   D2A35800   4.333  42.372   8.250
 7084POPC   C3A35801   4.271  42.370   7.950
 7084POPC   C4A35802   4.358  42.315   7.650
 7084POPC   C1B35803   4.590  42.367   8.550
 7084POPC   C2B35804   4.556  42.374   8.250
 7084POPC   C3B35805   4.561  42.402   7.950
 7084POPC   C4B35806   4.577  42.341   7.650
 7085POPC   NC335807   7.378  39.196   9.450
 7085POPC   PO435808   7.462  39.182   9.150
 7085POPC   GL135809   7.391  39.231   8.850
 7085POPC   GL235810   7.358  39.269   8.850
 7085POPC   C1A35811   7.444  39.210   8.550
 7085POPC   D2A35812   7.470  39.213   8.250
 7085POPC   C3A35813   7.399  39.186   7.950
 7085POPC   C4A35814   7.451  39.257   7.650
 7085POPC   C1B35815   7.184  39.412   8.550
 7085POPC   C2B35816   7.204  39.423   8.250
 7085POPC   C3B35817   7.230  39.403   7.950
 7085POPC   C4B35818   7.183  39.413   7.650
 7086POPC   NC335819  33.063   0.409   9.450
 7086POPC   PO435820  32.978   0.421   9.150
 7086POPC   GL135821  33.024   0.428   8.850
 7086POPC   GL235822  33.151   0.497   8.850
 7086POPC   C1A35823  32.999   0.391   8.550
 7086POPC   D2A35824  33.016   0.408   8.250
 7086POPC   C3A35825  33.053   0.430   7.950
 7086POPC   C4A35826  33.053   0.424   7.650
 7086POPC   C1B35827  33.217   0.608   8.550
 7086POPC   C2B35828  33.232   0.625   8.250
 7086POPC   C3B35829  33.204   0.590   7.950
 7086POPC   C4B35830  33.190   0.654   7.650
 7087POPC   NC335831  24.489  15.932   9.450
 7087POPC   PO435832  24.472  15.930   9.150
 7087POPC   GL135833  24.482  15.923   8.850
 7087POPC   GL235834  24.424  16.025   8.850
 7087POPC   C1A35835  24.459  15.964   8.550
 7087POPC   D2A35836  24.495  15.964   8.250
 7087POPC   C3A35837  24.483  15.979   7.950
 7087POPC   C4A35838  24.505  15.987   7.650
 7087POPC   C1B35839  24.368  16.213   8.550
 7087POPC   C2B35840  24.407  16.168   8.250
 7087POPC   C3B35841  24.355  16.193   7.950
 7087POPC   C4B35842  24.365  16.145   7.650
 7088POPC   NC335843  25.300   6.598   9.450
 7088POPC   PO435844  25.218   6.689   9.150
 7088POPC   GL135845  25.217   6.666   8.850
 7088POPC   GL235846  25.304   6.752   8.850
 7088POPC   C1A35847  25.268   6.654   8.550
 7088POPC   D2A35848  25.310   6.649   8.250
 7088POPC   C3A35849  25.267   6.619   7.950
 7088POPC   C4A35850  25.292   6.686   7.650
 7088POPC   C1B35851  25.419   6.831   8.550
 7088POPC   C2B35852  25.429   6.875   8.250
 7088POPC   C3B35853  25.447   6.794   7.950
 7088POPC   C4B35854  25.389   6.863   7.650
 7089POPC   NC335855  35.327  36.882   9.450
 7089POPC   PO435856  35.392  36.866   9.150
 7089POPC   GL135857  35.374  36.887   8.850
 7089POPC   GL235858  35.282  37.046   8.850
 7089POPC   C1A35859  35.322  36.926   8.550
 7089POPC   D2A35860  35.399  36.887   8.250
 7089POPC   C3A35861  35.342  36.953   7.950
 7089POPC   C4A35862  35.330  36.865   7.650
 7089POPC   C1B35863  35.254  37.147   8.550
 7089POPC   C2B35864  35.236  37.125   8.250
 7089POPC   C3B35865  35.188  37.120   7.950
 7089POPC   C4B35866  35.237  37.112   7.650
 7090POPC   NC335867   2.013  38.495   9.450
 7090POPC   PO435868   1.990  38.458   9.150
 7090POPC   GL135869   1.970  38.416   8.850
 7090POPC   GL235870   1.991  38.549   8.850
 7090POPC   C1A35871   2.006  38.473   8.550
 7090POPC   D2A35872   1.947  38.501   8.250
 7090POPC   C3A35873   2.019  38.466   7.950
 7090POPC   C4A35874   2.021  38.478   7.650
 7090POPC   C1B35875   2.058  38.735   8.550
 7090POPC   C2B35876   2.012  38.731   8.250
 7090POPC   C3B35877   2.070  38.705   7.950
 7090POPC   C4B35878   2.075  38.735   7.650
 7091POPC   NC335879  38.502  14.419   9.450
 7091POPC   PO435880  38.409  14.431   9.150
 7091POPC   GL135881  38.476  14.421   8.850
 7091POPC   GL235882  38.575  14.414   8.850
 7091POPC   C1A35883  38.432  14.386   8.550
 7091POPC   D2A35884  38.504  14.445   8.250
 7091POPC   C3A35885  38.466  14.376   7.950
 7091POPC   C4A35886  38.468  14.367   7.650
 7091POPC   C1B35887  38.656  14.430   8.550
 7091POPC   C2B35888  38.732  14.474   8.250
 7091POPC   C3B35889  38.661  14.424   7.950
 7091POPC   C4B35890  38.741  14.456   7.650
 7092POPC   NC335891  36.171  36.147   9.450
 7092POPC   PO435892  36.126  36.081   9.150
 7092POPC   GL135893  36.111  36.138   8.850
 7092POPC   GL235894  36.209  36.118   8.850
 7092POPC   C1A35895  36.137  36.112   8.550
 7092POPC   D2A35896  36.136  36.103   8.250
 7092POPC   C3A35897  36.156  36.112   7.950
 7092POPC   C4A35898  36.171  36.089   7.650
 7092POPC   C1B35899  36.330  36.072   8.550
 7092POPC   C2B35900  36.343  36.049   8.250
 7092POPC   C3B35901  36.397  36.115   7.950
 7092POPC   C4B35902  36.374  36.067   7.650
 7093POPC   NC335903  38.424  31.485   9.450
 7093POPC   PO435904  38.418  31.436   9.150
 7093POPC   GL135905  38.408  31.493   8.850
 7093POPC   GL235906  38.550  31.568   8.850
 7093POPC   C1A35907  38.461  31.438   8.550
 7093POPC   D2A35908  38.447  31.441   8.250
 7093POPC   C3A35909  38.473  31.425   7.950
 7093POPC   C4A35910  38.455  31.500   7.650
 7093POPC   C1B35911  38.520  31.693   8.550
 7093POPC   C2B35912  38.529  31.697   8.250
 7093POPC   C3B35913  38.585  31.689   7.950
 7093POPC   C4B35914  38.542  31.660   7.650
 7094POPC   NC335915  11.276  39.245   9.450
 7094POPC   PO435916  11.268  39.243   9.150
 7094POPC   GL135917  11.291  39.221   8.850
 7094POPC   GL235918  11.417  39.190   8.850
 7094POPC   C1A35919  11.348  39.212   8.550
 7094POPC   D2A35920  11.271  39.274   8.250
 7094POPC   C3A35921  11.289  39.189   7.950
 7094POPC   C4A35922  11.277  39.245   7.650
 7094POPC   C1B35923  11.545  39.172   8.550
 7094POPC   C2B35924  11.494  39.157   8.250
 7094POPC   C3B35925  11.509  39.142   7.950
 7094POPC   C4B35926  11.531  39.112   7.650
 7095POPC   NC335927  26.864  37.690   9.450
 7095POPC   PO435928  26.820  37.642   9.150
 7095POPC   GL135929  26.791  37.684   8.850
 7095POPC   GL235930  26.801  37.793   8.850
 7095POPC   C1A35931  26.860  37.701   8.550
 7095POPC   D2A35932  26.771  37.719   8.250
 7095POPC   C3A35933  26.791  37.724   7.950
 7095POPC   C4A35934  26.777  37.677   7.650
 7095POPC   C1B35935  26.823  37.956   8.550
 7095POPC   C2B35936  26.867  37.949   8.250
 7095POPC   C3B35937  26.829  37.904   7.950
 7095POPC   C4B35938  26.830  37.891   7.650
 7096POPC   NC335939  33.068  12.118   9.450
 7096POPC   PO435940  32.991  12.072   9.150
 7096POPC   GL135941  33.001  12.091   8.850
 7096POPC   GL235942  32.902  12.127   8.850
 7096POPC   C1A35943  33.041  12.042   8.550
 7096POPC   D2A35944  33.071  12.089   8.250
 7096POPC   C3A35945  33.050  12.095   7.950
 7096POPC   C4A35946  32.985  12.089   7.650
 7096POPC   C1B35947  32.814  12.230   8.550
 7096POPC   C2B35948  32.871  12.180   8.250
 7096POPC   C3B35949  32.787  12.262   7.950
 7096POPC   C4B35950  32.800  12.213   7.650
 7097POPC   NC335951  42.297  42.332   9.450
 7097POPC   PO435952  42.362  42.288   9.150
 7097POPC   GL135953  42.338  42.291   8.850
 7097POPC   GL235954  42.383  42.438   8.850
 7097POPC   C1A35955  42.327  42.311   8.550
 7097POPC   D2A35956  42.303  42.368   8.250
 7097POPC   C3A35957  42.365  42.313   7.950
 7097POPC   C4A35958  42.334  42.365   7.650
 7097POPC   C1B35959  42.342  42.591   8.550
 7097POPC   C2B35960  42.397  42.534   8.250
 7097POPC   C3B35961  42.362  42.577   7.950
 7097POPC   C4B35962  42.427  42.617   7.650
 7098POPC   NC335963   9.010  34.570   9.450
 7098POPC   PO435964   8.933  34.606   9.150
 7098POPC   GL135965   8.945  34.611   8.850
 7098POPC   GL235966   8.951  34.706   8.850
 7098POPC   C1A35967   8.971  34.623   8.550
 7098POPC   D2A35968   8.970  34.559   8.250
 7098POPC   C3A35969   8.989  34.608   7.950
 7098POPC   C4A35970   8.964  34.581   7.650
 7098POPC   C1B35971   9.022  34.836   8.550
 7098POPC   C2B35972   8.934  34.819   8.250
 7098POPC   C3B35973   9.016  34.809   7.950
 7098POPC   C4B35974   8.937  34.870   7.650
 7099POPC   NC335975  23.742  33.842   9.450
 7099POPC   PO435976  23.757  33.817   9.150
 7099POPC   GL135977  23.674  33.803   8.850
 7099POPC   GL235978  23.621  33.720   8.850
 7099POPC   C1A35979  23.747  33.770   8.550
 7099POPC   D2A35980  23.710  33.760   8.250
 7099POPC   C3A35981  23.713  33.804   7.950
 7099POPC   C4A35982  23.680  33.797   7.650
 7099POPC   C1B35983  23.585  33.595   8.550
 7099POPC   C2B35984  23.532  33.576   8.250
 7099POPC   C3B35985  23.593  33.604   7.950
 7099POPC   C4B35986  23.568  33.575   7.650
 7100POPC   NC335987  20.640  22.939   9.450
 7100POPC   PO435988  20.639  22.947   9.150
 7100POPC   GL135989  20.566  22.908   8.850
 7100POPC   GL235990  20.653  23.029   8.850
 7100POPC   C1A35991  20.657  22.899   8.550
 7100POPC   D2A35992  20.617  22.928   8.250
 7100POPC   C3A35993  20.606  22.948   7.950
 7100POPC   C4A35994  20.619  22.974   7.650
 7100POPC   C1B35995  20.702  23.199   8.550
 7100POPC   C2B35996  20.736  23.198   8.250
 7100POPC   C3B35997  20.656  23.167   7.950
 7100POPC   C4B35998  20.647  23.214   7.650
 7101POPC   NC335999  14.441  37.683   9.450
 7101POPC   PO436000  14.368  37.718   9.150
 7101POPC   GL136001  14.362  37.692   8.850
 7101POPC   GL236002  14.275  37.735   8.850
 7101POPC   C1A36003  14.441  37.635   8.550
 7101POPC   D2A36004  14.366  37.629   8.250
 7101POPC   C3A36005  14.382  37.645   7.950
 7101POPC   C4A36006  14.443  37.703   7.650
 7101POPC   C1B36007  14.147  37.787   8.550
 7101POPC   C2B36008  14.137  37.781   8.250
 7101POPC   C3B36009  14.148  37.727   7.950
 7101POPC   C4B36010  14.184  37.785   7.650
 7102POPC   NC336011   3.504  20.577   9.450
 7102POPC   PO436012   3.528  20.632   9.150
 7102POPC   GL136013   3.511  20.607   8.850
 7102POPC   GL236014   3.469  20.463   8.850
 7102POPC   C1A36015   3.563  20.587   8.550
 7102POPC   D2A36016   3.559  20.646   8.250
 7102POPC   C3A36017   3.553  20.582   7.950
 7102POPC   C4A36018   3.556  20.599   7.650
 7102POPC   C1B36019   3.414  20.330   8.550
 7102POPC   C2B36020   3.450  20.406   8.250
 7102POPC   C3B36021   3.442  20.353   7.950
 7102POPC   C4B36022   3.418  20.359   7.650
 7103POPC   NC336023  12.876  17.472   9.450
 7103POPC   PO436024  12.857  17.511   9.150
 7103POPC   GL136025  12.877  17.516   8.850
 7103POPC   GL236026  12.711  17.431   8.850
 7103POPC   C1A36027  12.879  17.482   8.550
 7103POPC   D2A36028  12.814  17.476   8.250
 7103POPC   C3A36029  12.895  17.493   7.950
 7103POPC   C4A36030  12.853  17.489   7.650
 7103POPC   C1B36031  12.650  17.448   8.550
 7103POPC   C2B36032  12.652  17.432   8.250
 7103POPC   C3B36033  12.593  17.403   7.950
 7103POPC   C4B36034  12.616  17.425   7.650
 7104POPC   NC336035  29.169   5.047   9.450
 7104POPC   PO436036  29.113   5.067   9.150
 7104POPC   GL136037  29.162   5.097   8.850
 7104POPC   GL236038  29.033   5.177   8.850
 7104POPC   C1A36039  29.186   5.065   8.550
 7104POPC   D2A36040  29.187   5.059   8.250
 7104POPC   C3A36041  29.182   5.094   7.950
 7104POPC   C4A36042  29.190   5.100   7.650
 7104POPC   C1B36043  28.858   5.152   8.550
 7104POPC   C2B36044  28.936   5.149   8.250
 7104POPC   C3B36045  28.887   5.180   7.950
 7104POPC   C4B36046  28.941   5.171   7.650
 7105POPC   NC336047  22.957  20.647   9.450
 7105POPC   PO436048  22.899  20.622   9.150
 7105POPC   GL136049  22.905  20.631   8.850
 7105POPC   GL236050  22.804  20.568   8.850
 7105POPC   C1A36051  22.940  20.657   8.550
 7105POPC   D2A36052  22.926  20.574   8.250
 7105POPC   C3A36053  22.908  20.646   7.950
 7105POPC   C4A36054  22.938  20.651   7.650
 7105POPC   C1B36055  22.643  20.544   8.550
 7105POPC   C2B36056  22.668  20.574   8.250
 7105POPC   C3B36057  22.695  20.526   7.950
 7105POPC   C4B36058  22.701  20.610   7.650
 7106POPC   NC336059  10.504  19.011   9.450
 7106POPC   PO436060  10.475  19.086   9.150
 7106POPC   GL136061  10.539  19.037   8.850
 7106POPC   GL236062  10.645  18.940   8.850
 7106POPC   C1A36063  10.523  19.062   8.550
 7106POPC   D2A36064  10.524  19.083   8.250
 7106POPC   C3A36065  10.550  19.071   7.950
 7106POPC   C4A36066  10.508  19.033   7.650
 7106POPC   C1B36067  10.685  18.843   8.550
 7106POPC   C2B36068  10.648  18.909   8.250
 7106POPC   C3B36069  10.703  18.916   7.950
 7106POPC   C4B36070  10.686  18.886   7.650
 7107POPC   NC336071  22.129  35.343   9.450
 7107POPC   PO436072  22.172  35.318   9.150
 7107POPC   GL136073  22.178  35.383   8.850
 7107POPC   GL236074  22.069  35.433   8.850
 7107POPC   C1A36075  22.197  35.352   8.550
 7107POPC   D2A36076  22.174  35.337   8.250
 7107POPC   C3A36077  22.136  35.312   7.950
 7107POPC   C4A36078  22.165  35.362   7.650
 7107POPC   C1B36079  22.047  35.571   8.550
 7107POPC   C2B36080  22.068  35.563   8.250
 7107POPC   C3B36081  22.025  35.579   7.950
 7107POPC   C4B36082  22.007  35.521   7.650
 7108POPC   NC336083   9.015  20.651   9.450
 7108POPC   PO436084   8.996  20.614   9.150
 7108POPC   GL136085   8.969  20.647   8.850
 7108POPC   GL236086   8.852  20.589   8.850
 7108POPC   C1A36087   8.986  20.588   8.550
 7108POPC   D2A36088   8.931  20.629   8.250
 7108POPC   C3A36089   8.963  20.604   7.950
 7108POPC   C4A36090   8.943  20.607   7.650
 7108POPC   C1B36091   8.686  20.580   8.550
 7108POPC   C2B36092   8.714  20.658   8.250
 7108POPC   C3B36093   8.725  20.620   7.950
 7108POPC   C4B36094   8.700  20.636   7.650
 7109POPC   NC336095   1.165  15.154   9.450
 7109POPC   PO436096   1.204  15.221   9.150
 7109POPC   GL136097   1.179  15.130   8.850
 7109POPC   GL236098   1.091  15.192   8.850
 7109POPC   C1A36099   1.216  15.219   8.550
 7109POPC   D2A36100   1.200  15.209   8.250
 7109POPC   C3A36101   1.178  15.201   7.950
 7109POPC   C4A36102   1.204  15.179   7.650
 7109POPC   C1B36103   0.996  15.150   8.550
 7109POPC   C2B36104   0.980  15.112   8.250
 7109POPC   C3B36105   0.931  15.081   7.950
 7109POPC   C4B36106   1.009  15.127   7.650
 7110POPC   NC336107   2.007  14.438   9.450
 7110POPC   PO436108   1.952  14.406   9.150
 7110POPC   GL136109   1.948  14.392   8.850
 7110POPC   GL236110   1.905  14.386   8.850
 7110POPC   C1A36111   1.976  14.395   8.550
 7110POPC   D2A36112   1.978  14.452   8.250
 7110POPC   C3A36113   1.996  14.367   7.950
 7110POPC   C4A36114   2.027  14.415   7.650
 7110POPC   C1B36115   1.737  14.382   8.550
 7110POPC   C2B36116   1.785  14.365   8.250
 7110POPC   C3B36117   1.789  14.382   7.950
 7110POPC   C4B36118   1.755  14.342   7.650
 7111POPC   NC336119   4.365  34.615   9.450
 7111POPC   PO436120   4.342  34.552   9.150
 7111POPC   GL136121   4.296  34.571   8.850
 7111POPC   GL236122   4.240  34.719   8.850
 7111POPC   C1A36123   4.351  34.604   8.550
 7111POPC   D2A36124   4.332  34.552   8.250
 7111POPC   C3A36125   4.293  34.541   7.950
 7111POPC   C4A36126   4.312  34.540   7.650
 7111POPC   C1B36127   4.141  34.794   8.550
 7111POPC   C2B36128   4.199  34.749   8.250
 7111POPC   C3B36129   4.175  34.778   7.950
 7111POPC   C4B36130   4.188  34.761   7.650
 7112POPC   NC336131   6.684  40.011   9.450
 7112POPC   PO436132   6.629  40.037   9.150
 7112POPC   GL136133   6.692  39.986   8.850
 7112POPC   GL236134   6.738  40.058   8.850
 7112POPC   C1A36135   6.655  39.974   8.550
 7112POPC   D2A36136   6.645  39.996   8.250
 7112POPC   C3A36137   6.657  40.035   7.950
 7112POPC   C4A36138   6.663  40.009   7.650
 7112POPC   C1B36139   6.854  40.203   8.550
 7112POPC   C2B36140   6.822  40.165   8.250
 7112POPC   C3B36141   6.842  40.132   7.950
 7112POPC   C4B36142   6.844  40.203   7.650
 7113POPC   NC336143  38.492  42.336   9.450
 7113POPC   PO436144  38.450  42.333   9.150
 7113POPC   GL136145  38.452  42.314   8.850
 7113POPC   GL236146  38.360  42.268   8.850
 7113POPC   C1A36147  38.425  42.339   8.550
 7113POPC   D2A36148  38.454  42.353   8.250
 7113POPC   C3A36149  38.466  42.379   7.950
 7113POPC   C4A36150  38.426  42.310   7.650
 7113POPC   C1B36151  38.289  42.138   8.550
 7113POPC   C2B36152  38.358  42.092   8.250
 7113POPC   C3B36153  38.322  42.119   7.950
 7113POPC   C4B36154  38.312  42.133   7.650
 7114POPC   NC336155  42.361   0.403   9.450
 7114POPC   PO436156  42.347   0.440   9.150
 7114POPC   GL136157  42.298   0.392   8.850
 7114POPC   GL236158  42.448   0.453   8.850
 7114POPC   C1A36159  42.335   0.476   8.550
 7114POPC   D2A36160  42.343   0.388   8.250
 7114POPC   C3A36161  42.302   0.398   7.950
 7114POPC   C4A36162  42.302   0.419   7.650
 7114POPC   C1B36163  42.554   0.478   8.550
 7114POPC   C2B36164  42.621   0.490   8.250
 7114POPC   C3B36165  42.548   0.452   7.950
 7114POPC   C4B36166  42.541   0.527   7.650
 7115POPC   NC336167  29.125  27.643   9.450
 7115POPC   PO436168  29.194  27.641   9.150
 7115POPC   GL136169  29.185  27.594   8.850
 7115POPC   GL236170  29.246  27.551   8.850
 7115POPC   C1A36171  29.180  27.578   8.550
 7115POPC   D2A36172  29.145  27.573   8.250
 7115POPC   C3A36173  29.183  27.586   7.950
 7115POPC   C4A36174  29.163  27.602   7.650
 7115POPC   C1B36175  29.291  27.434   8.550
 7115POPC   C2B36176  29.326  27.393   8.250
 7115POPC   C3B36177  29.362  27.463   7.950
 7115POPC   C4B36178  29.297  27.469   7.650
 7116POPC   NC336179  37.659  38.503   9.450
 7116POPC   PO436180  37.720  38.423   9.150
 7116POPC   GL136181  37.727  38.451   8.850
 7116POPC   GL236182  37.840  38.413   8.850
 7116POPC   C1A36183  37.702  38.420   8.550
 7116POPC   D2A36184  37.644  38.417   8.250
 7116POPC   C3A36185  37.694  38.436   7.950
 7116POPC   C4A36186  37.691  38.469   7.650
 7116POPC   C1B36187  37.868  38.393   8.550
 7116POPC   C2B36188  37.902  38.311   8.250
 7116POPC   C3B36189  37.870  38.386   7.950
 7116POPC   C4B36190  37.935  38.388   7.650
 7117POPC   NC336191  12.107   8.984   9.450
 7117POPC   PO436192  12.044   9.020   9.150
 7117POPC   GL136193  12.072   8.989   8.850
 7117POPC   GL236194  12.192   9.019   8.850
 7117POPC   C1A36195  12.113   8.974   8.550
 7117POPC   D2A36196  12.105   9.015   8.250
 7117POPC   C3A36197  12.030   9.019   7.950
 7117POPC   C4A36198  12.116   8.960   7.650
 7117POPC   C1B36199  12.285   9.171   8.550
 7117POPC   C2B36200  12.226   9.124   8.250
 7117POPC   C3B36201  12.316   9.086   7.950
 7117POPC   C4B36202  12.316   9.172   7.650
 7118POPC   NC336203  37.648  17.516   9.450
 7118POPC   PO436204  37.705  17.467   9.150
 7118POPC   GL136205  37.668  17.459   8.850
 7118POPC   GL236206  37.767  17.444   8.850
 7118POPC   C1A36207  37.666  17.554   8.550
 7118POPC   D2A36208  37.675  17.513   8.250
 7118POPC   C3A36209  37.663  17.553   7.950
 7118POPC   C4A36210  37.645  17.485   7.650
 7118POPC   C1B36211  37.872  17.399   8.550
 7118POPC   C2B36212  37.939  17.342   8.250
 7118POPC   C3B36213  37.884  17.346   7.950
 7118POPC   C4B36214  37.861  17.384   7.650
 7119POPC   NC336215  32.293  11.269   9.450
 7119POPC   PO436216  32.291  11.284   9.150
 7119POPC   GL136217  32.297  11.279   8.850
 7119POPC   GL236218  32.295  11.369   8.850
 7119POPC   C1A36219  32.289  11.313   8.550
 7119POPC   D2A36220  32.242  11.285   8.250
 7119POPC   C3A36221  32.233  11.349   7.950
 7119POPC   C4A36222  32.275  11.320   7.650
 7119POPC   C1B36223  32.448  11.525   8.550
 7119POPC   C2B36224  32.448  11.466   8.250
 7119POPC   C3B36225  32.428  11.531   7.950
 7119POPC   C4B36226  32.426  11.507   7.650
 7120POPC   NC336227  15.164  20.599   9.450
 7120POPC   PO436228  15.133  20.598   9.150
 7120POPC   GL136229  15.169  20.604   8.850
 7120POPC   GL236230  15.313  20.529   8.850
 7120POPC   C1A36231  15.201  20.650   8.550
 7120POPC   D2A36232  15.193  20.610   8.250
 7120POPC   C3A36233  15.189  20.625   7.950
 7120POPC   C4A36234  15.191  20.599   7.650
 7120POPC   C1B36235  15.343  20.452   8.550
 7120POPC   C2B36236  15.325  20.445   8.250
 7120POPC   C3B36237  15.358  20.473   7.950
 7120POPC   C4B36238  15.332  20.474   7.650
 7121POPC   NC336239  29.127  34.533   9.450
 7121POPC   PO436240  29.161  34.563   9.150
 7121POPC   GL136241  29.114  34.605   8.850
 7121POPC   GL236242  28.991  34.594   8.850
 7121POPC   C1A36243  29.121  34.568   8.550
 7121POPC   D2A36244  29.191  34.572   8.250
 7121POPC   C3A36245  29.160  34.582   7.950
 7121POPC   C4A36246  29.122  34.599   7.650
 7121POPC   C1B36247  28.938  34.702   8.550
 7121POPC   C2B36248  28.958  34.757   8.250
 7121POPC   C3B36249  28.953  34.696   7.950
 7121POPC   C4B36250  28.969  34.754   7.650
 7122POPC   NC336251  24.467  32.989   9.450
 7122POPC   PO436252  24.441  32.981   9.150
 7122POPC   GL136253  24.477  33.031   8.850
 7122POPC   GL236254  24.458  32.885   8.850
 7122POPC   C1A36255  24.468  32.975   8.550
 7122POPC   D2A36256  24.449  33.045   8.250
 7122POPC   C3A36257  24.451  33.066   7.950
 7122POPC   C4A36258  24.441  32.980   7.650
 7122POPC   C1B36259  24.414  32.794   8.550
 7122POPC   C2B36260  24.409  32.817   8.250
 7122POPC   C3B36261  24.490  32.748   7.950
 7122POPC   C4B36262  24.475  32.771   7.650
 7123POPC   NC336263   9.730   5.907   9.450
 7123POPC   PO436264   9.792   5.878   9.150
 7123POPC   GL136265   9.746   5.856   8.850
 7123POPC   GL236266   9.811   5.801   8.850
 7123POPC   C1A36267   9.699   5.898   8.550
 7123POPC   D2A36268   9.778   5.839   8.250
 7123POPC   C3A36269   9.747   5.918   7.950
 7123POPC   C4A36270   9.713   5.877   7.650
 7123POPC   C1B36271   9.874   5.653   8.550
 7123POPC   C2B36272   9.890   5.594   8.250
 7123POPC   C3B36273   9.815   5.648   7.950
 7123POPC   C4B36274   9.861   5.591   7.650
 7124POPC   NC336275  36.897  36.147   9.450
 7124POPC   PO436276  36.899  36.108   9.150
 7124POPC   GL136277  36.946  36.123   8.850
 7124POPC   GL236278  36.761  36.088   8.850
 7124POPC   C1A36279  36.891  36.171   8.550
 7124POPC   D2A36280  36.855  36.099   8.250
 7124POPC   C3A36281  36.867  36.078   7.950
 7124POPC   C4A36282  36.887  36.122   7.650
 7124POPC   C1B36283  36.716  36.009   8.550
 7124POPC   C2B36284  36.685  35.962   8.250
 7124POPC   C3B36285  36.714  35.999   7.950
 7124POPC   C4B36286  36.754  35.935   7.650
 7125POPC   NC336287   8.984  39.248   9.450
 7125POPC   PO436288   8.985  39.254   9.150
 7125POPC   GL136289   8.996  39.276   8.850
 7125POPC   GL236290   8.811  39.241   8.850
 7125POPC   C1A36291   9.007  39.264   8.550
 7125POPC   D2A36292   8.987  39.231   8.250
 7125POPC   C3A36293   8.962  39.249   7.950
 7125POPC   C4A36294   8.947  39.240   7.650
 7125POPC   C1B36295   8.684  39.191   8.550
 7125POPC   C2B36296   8.692  39.204   8.250
 7125POPC   C3B36297   8.721  39.224   7.950
 7125POPC   C4B36298   8.770  39.170   7.650
 7126POPC   NC336299  26.039   5.049   9.450
 7126POPC   PO436300  26.015   5.093   9.150
 7126POPC   GL136301  26.019   5.109   8.850
 7126POPC   GL236302  26.142   5.132   8.850
 7126POPC   C1A36303  26.031   5.059   8.550
 7126POPC   D2A36304  26.006   5.052   8.250
 7126POPC   C3A36305  26.054   5.105   7.950
 7126POPC   C4A36306  26.033   5.084   7.650
 7126POPC   C1B36307  26.220   5.171   8.550
 7126POPC   C2B36308  26.275   5.187   8.250
 7126POPC   C3B36309  26.267   5.249   7.950
 7126POPC   C4B36310  26.232   5.251   7.650
 7127POPC   NC336311  40.820  41.608   9.450
 7127POPC   PO436312  40.777  41.543   9.150
 7127POPC   GL136313  40.780  41.513   8.850
 7127POPC   GL236314  40.801  41.711   8.850
 7127POPC   C1A36315  40.829  41.581   8.550
 7127POPC   D2A36316  40.766  41.540   8.250
 7127POPC   C3A36317  40.832  41.566   7.950
 7127POPC   C4A36318  40.797  41.606   7.650
 7127POPC   C1B36319  40.847  41.785   8.550
 7127POPC   C2B36320  40.932  41.828   8.250
 7127POPC   C3B36321  40.891  41.801   7.950
 7127POPC   C4B36322  40.855  41.794   7.650
 7128POPC   NC336323  22.148  41.569   9.450
 7128POPC   PO436324  22.159  41.557   9.150
 7128POPC   GL136325  22.150  41.522   8.850
 7128POPC   GL236326  22.276  41.554   8.850
 7128POPC   C1A36327  22.195  41.579   8.550
 7128POPC   D2A36328  22.207  41.530   8.250
 7128POPC   C3A36329  22.185  41.607   7.950
 7128POPC   C4A36330  22.171  41.580   7.650
 7128POPC   C1B36331  22.415  41.513   8.550
 7128POPC   C2B36332  22.394  41.569   8.250
 7128POPC   C3B36333  22.404  41.472   7.950
 7128POPC   C4B36334  22.418  41.509   7.650
 7129POPC   NC336335  40.020  36.138   9.450
 7129POPC   PO436336  40.012  36.125   9.150
 7129POPC   GL136337  39.982  36.099   8.850
 7129POPC   GL236338  40.040  36.190   8.850
 7129POPC   C1A36339  40.010  36.078   8.550
 7129POPC   D2A36340  40.014  36.119   8.250
 7129POPC   C3A36341  40.031  36.156   7.950
 7129POPC   C4A36342  39.962  36.084   7.650
 7129POPC   C1B36343  40.119  36.379   8.550
 7129POPC   C2B36344  40.145  36.302   8.250
 7129POPC   C3B36345  40.122  36.377   7.950
 7129POPC   C4B36346  40.104  36.342   7.650
 7130POPC   NC336347  32.260  33.779   9.450
 7130POPC   PO436348  32.200  33.815   9.150
 7130POPC   GL136349  32.281  33.795   8.850
 7130POPC   GL236350  32.273  33.971   8.850
 7130POPC   C1A36351  32.243  33.753   8.550
 7130POPC   D2A36352  32.201  33.850   8.250
 7130POPC   C3A36353  32.236  33.760   7.950
 7130POPC   C4A36354  32.267  33.836   7.650
 7130POPC   C1B36355  32.198  34.061   8.550
 7130POPC   C2B36356  32.162  34.049   8.250
 7130POPC   C3B36357  32.163  34.054   7.950
 7130POPC   C4B36358  32.181  34.023   7.650
 7131POPC   NC336359  25.261  36.111   9.450
 7131POPC   PO436360  25.312  36.114   9.150
 7131POPC   GL136361  25.297  36.173   8.850
 7131POPC   GL236362  25.233  36.238   8.850
 7131POPC   C1A36363  25.312  36.082   8.550
 7131POPC   D2A36364  25.239  36.105   8.250
 7131POPC   C3A36365  25.292  36.100   7.950
 7131POPC   C4A36366  25.292  36.142   7.650
 7131POPC   C1B36367  25.247  36.361   8.550
 7131POPC   C2B36368  25.244  36.355   8.250
 7131POPC   C3B36369  25.291  36.376   7.950
 7131POPC   C4B36370  25.229  36.426   7.650
 7132POPC   NC336371  35.352  35.395   9.450
 7132POPC   PO436372  35.388  35.329   9.150
 7132POPC   GL136373  35.314  35.397   8.850
 7132POPC   GL236374  35.406  35.443   8.850
 7132POPC   C1A36375  35.384  35.357   8.550
 7132POPC   D2A36376  35.350  35.398   8.250
 7132POPC   C3A36377  35.309  35.382   7.950
 7132POPC   C4A36378  35.383  35.361   7.650
 7132POPC   C1B36379  35.444  35.533   8.550
 7132POPC   C2B36380  35.446  35.598   8.250
 7132POPC   C3B36381  35.440  35.590   7.950
 7132POPC   C4B36382  35.447  35.587   7.650
 7133POPC   NC336383   5.901  33.054   9.450
 7133POPC   PO436384   5.907  32.986   9.150
 7133POPC   GL136385   5.894  33.073   8.850
 7133POPC   GL236386   5.913  33.123   8.850
 7133POPC   C1A36387   5.870  32.982   8.550
 7133POPC   D2A36388   5.891  33.019   8.250
 7133POPC   C3A36389   5.907  33.002   7.950
 7133POPC   C4A36390   5.902  32.985   7.650
 7133POPC   C1B36391   5.932  33.237   8.550
 7133POPC   C2B36392   5.959  33.262   8.250
 7133POPC   C3B36393   5.955  33.237   7.950
 7133POPC   C4B36394   5.925  33.266   7.650
 7134POPC   NC336395  19.074  39.265   9.450
 7134POPC   PO436396  19.021  39.210   9.150
 7134POPC   GL136397  19.094  39.234   8.850
 7134POPC   GL236398  19.056  39.140   8.850
 7134POPC   C1A36399  19.103  39.195   8.550
 7134POPC   D2A36400  19.057  39.203   8.250
 7134POPC   C3A36401  19.079  39.279   7.950
 7134POPC   C4A36402  19.055  39.246   7.650
 7134POPC   C1B36403  19.021  39.014   8.550
 7134POPC   C2B36404  19.017  39.027   8.250
 7134POPC   C3B36405  19.027  38.957   7.950
 7134POPC   C4B36406  18.958  38.940   7.650
 7135POPC   NC336407  10.539  33.071   9.450
 7135POPC   PO436408  10.497  33.048   9.150
 7135POPC   GL136409  10.572  33.016   8.850
 7135POPC   GL236410  10.496  33.137   8.850
 7135POPC   C1A36411  10.523  33.010   8.550
 7135POPC   D2A36412  10.481  32.999   8.250
 7135POPC   C3A36413  10.496  33.006   7.950
 7135POPC   C4A36414  10.491  32.989   7.650
 7135POPC   C1B36415  10.432  33.218   8.550
 7135POPC   C2B36416  10.456  33.285   8.250
 7135POPC   C3B36417  10.479  33.300   7.950
 7135POPC   C4B36418  10.478  33.264   7.650
 7136POPC   NC336419  15.937  15.951   9.450
 7136POPC   PO436420  15.968  15.953   9.150
 7136POPC   GL136421  15.977  15.975   8.850
 7136POPC   GL236422  15.910  16.071   8.850
 7136POPC   C1A36423  15.994  15.937   8.550
 7136POPC   D2A36424  15.968  15.934   8.250
 7136POPC   C3A36425  15.932  15.949   7.950
 7136POPC   C4A36426  15.913  15.948   7.650
 7136POPC   C1B36427  15.806  16.147   8.550
 7136POPC   C2B36428  15.849  16.207   8.250
 7136POPC   C3B36429  15.862  16.159   7.950
 7136POPC   C4B36430  15.844  16.131   7.650
 7137POPC   NC336431  15.937  18.250   9.450
 7137POPC   PO436432  15.963  18.251   9.150
 7137POPC   GL136433  15.963  18.323   8.850
 7137POPC   GL236434  15.880  18.207   8.850
 7137POPC   C1A36435  15.937  18.244   8.550
 7137POPC   D2A36436  15.953  18.272   8.250
 7137POPC   C3A36437  15.961  18.322   7.950
 7137POPC   C4A36438  15.940  18.314   7.650
 7137POPC   C1B36439  15.884  18.013   8.550
 7137POPC   C2B36440  15.889  18.066   8.250
 7137POPC   C3B36441  15.834  18.063   7.950
 7137POPC   C4B36442  15.864  18.029   7.650
 7138POPC   NC336443  37.650  28.331   9.450
 7138POPC   PO436444  37.636  28.394   9.150
 7138POPC   GL136445  37.696  28.410   8.850
 7138POPC   GL236446  37.813  28.374   8.850
 7138POPC   C1A36447  37.643  28.383   8.550
 7138POPC   D2A36448  37.724  28.356   8.250
 7138POPC   C3A36449  37.645  28.377   7.950
 7138POPC   C4A36450  37.713  28.335   7.650
 7138POPC   C1B36451  37.931  28.360   8.550
 7138POPC   C2B36452  37.965  28.373   8.250
 7138POPC   C3B36453  37.911  28.345   7.950
 7138POPC   C4B36454  37.974  28.342   7.650
 7139POPC   NC336455  41.536  20.565   9.450
 7139POPC   PO436456  41.527  20.646   9.150
 7139POPC   GL136457  41.531  20.599   8.850
 7139POPC   GL236458  41.531  20.748   8.850
 7139POPC   C1A36459  41.587  20.575   8.550
 7139POPC   D2A36460  41.553  20.575   8.250
 7139POPC   C3A36461  41.528  20.654   7.950
 7139POPC   C4A36462  41.569  20.602   7.650
 7139POPC   C1B36463  41.451  20.847   8.550
 7139POPC   C2B36464  41.381  20.870   8.250
 7139POPC   C3B36465  41.403  20.809   7.950
 7139POPC   C4B36466  41.473  20.773   7.650
 7140POPC   NC336467  22.202  24.470   9.450
 7140POPC   PO436468  22.143  24.455   9.150
 7140POPC   GL136469  22.206  24.446   8.850
 7140POPC   GL236470  22.111  24.622   8.850
 7140POPC   C1A36471  22.210  24.482   8.550
 7140POPC   D2A36472  22.112  24.468   8.250
 7140POPC   C3A36473  22.172  24.490   7.950
 7140POPC   C4A36474  22.173  24.523   7.650
 7140POPC   C1B36475  22.082  24.693   8.550
 7140POPC   C2B36476  22.107  24.710   8.250
 7140POPC   C3B36477  22.094  24.707   7.950
 7140POPC   C4B36478  22.077  24.716   7.650
 7141POPC   NC336479  21.348  30.671   9.450
 7141POPC   PO436480  21.338  30.716   9.150
 7141POPC   GL136481  21.349  30.717   8.850
 7141POPC   GL236482  21.288  30.749   8.850
 7141POPC   C1A36483  21.378  30.693   8.550
 7141POPC   D2A36484  21.349  30.709   8.250
 7141POPC   C3A36485  21.366  30.694   7.950
 7141POPC   C4A36486  21.433  30.698   7.650
 7141POPC   C1B36487  21.201  30.918   8.550
 7141POPC   C2B36488  21.175  30.855   8.250
 7141POPC   C3B36489  21.209  30.830   7.950
 7141POPC   C4B36490  21.228  30.845   7.650
 7142POPC   NC336491   2.030  29.877   9.450
 7142POPC   PO436492   2.006  29.954   9.150
 7142POPC   GL136493   2.015  29.906   8.850
 7142POPC   GL236494   2.007  29.810   8.850
 7142POPC   C1A36495   1.994  29.902   8.550
 7142POPC   D2A36496   2.013  29.874   8.250
 7142POPC   C3A36497   2.024  29.910   7.950
 7142POPC   C4A36498   1.958  29.965   7.650
 7142POPC   C1B36499   1.995  29.682   8.550
 7142POPC   C2B36500   1.973  29.621   8.250
 7142POPC   C3B36501   1.999  29.714   7.950
 7142POPC   C4B36502   2.022  29.624   7.650
 7143POPC   NC336503   4.358  31.424   9.450
 7143POPC   PO436504   4.295  31.449   9.150
 7143POPC   GL136505   4.320  31.424   8.850
 7143POPC   GL236506   4.256  31.625   8.850
 7143POPC   C1A36507   4.347  31.450   8.550
 7143POPC   D2A36508   4.287  31.468   8.250
 7143POPC   C3A36509   4.365  31.516   7.950
 7143POPC   C4A36510   4.307  31.480   7.650
 7143POPC   C1B36511   4.261  31.699   8.550
 7143POPC   C2B36512   4.278  31.747   8.250
 7143POPC   C3B36513   4.227  31.672   7.950
 7143POPC   C4B36514   4.251  31.721   7.650
 7144POPC   NC336515  18.239  37.647   9.450
 7144POPC   PO436516  18.269  37.644   9.150
 7144POPC   GL136517  18.306  37.713   8.850
 7144POPC   GL236518  18.411  37.764   8.850
 7144POPC   C1A36519  18.261  37.696   8.550
 7144POPC   D2A36520  18.296  37.646   8.250
 7144POPC   C3A36521  18.317  37.683   7.950
 7144POPC   C4A36522  18.282  37.631   7.650
 7144POPC   C1B36523  18.514  37.775   8.550
 7144POPC   C2B36524  18.474  37.814   8.250
 7144POPC   C3B36525  18.485  37.811   7.950
 7144POPC   C4B36526  18.481  37.756   7.650
 7145POPC   NC336527  28.356  32.209   9.450
 7145POPC   PO436528  28.400  32.200   9.150
 7145POPC   GL136529  28.395  32.200   8.850
 7145POPC   GL236530  28.449  32.330   8.850
 7145POPC   C1A36531  28.358  32.200   8.550
 7145POPC   D2A36532  28.372  32.286   8.250
 7145POPC   C3A36533  28.337  32.244   7.950
 7145POPC   C4A36534  28.392  32.214   7.650
 7145POPC   C1B36535  28.575  32.386   8.550
 7145POPC   C2B36536  28.506  32.462   8.250
 7145POPC   C3B36537  28.531  32.468   7.950
 7145POPC   C4B36538  28.520  32.457   7.650
 7146POPC   NC336539  30.670  36.141   9.450
 7146POPC   PO436540  30.691  36.152   9.150
 7146POPC   GL136541  30.719  36.123   8.850
 7146POPC   GL236542  30.627  35.966   8.850
 7146POPC   C1A36543  30.664  36.150   8.550
 7146POPC   D2A36544  30.702  36.083   8.250
 7146POPC   C3A36545  30.714  36.094   7.950
 7146POPC   C4A36546  30.743  36.175   7.650
 7146POPC   C1B36547  30.638  35.888   8.550
 7146POPC   C2B36548  30.667  35.925   8.250
 7146POPC   C3B36549  30.648  35.842   7.950
 7146POPC   C4B36550  30.600  35.861   7.650
 7147POPC   NC336551  37.632  44.672   9.450
 7147POPC   PO436552  37.640  44.623   9.150
 7147POPC   GL136553  37.636  44.677   8.850
 7147POPC   GL236554  37.750  44.574   8.850
 7147POPC   C1A36555  37.696  44.683   8.550
 7147POPC   D2A36556  37.651  44.615   8.250
 7147POPC   C3A36557  37.681  44.685   7.950
 7147POPC   C4A36558  37.663  44.628   7.650
 7147POPC   C1B36559  37.926  44.604   8.550
 7147POPC   C2B36560  37.930  44.567   8.250
 7147POPC   C3B36561  37.895  44.568   7.950
 7147POPC   C4B36562  37.863  44.560   7.650
 7148POPC   NC336563   9.703   6.648   9.450
 7148POPC   PO436564   9.763   6.690   9.150
 7148POPC   GL136565   9.741   6.633   8.850
 7148POPC   GL236566   9.793   6.556   8.850
 7148POPC   C1A36567   9.748   6.683   8.550
 7148POPC   D2A36568   9.744   6.598   8.250
 7148POPC   C3A36569   9.719   6.607   7.950
 7148POPC   C4A36570   9.734   6.596   7.650
 7148POPC   C1B36571   9.758   6.364   8.550
 7148POPC   C2B36572   9.768   6.376   8.250
 7148POPC   C3B36573   9.707   6.361   7.950
 7148POPC   C4B36574   9.782   6.384   7.650
 7149POPC   NC336575  16.745   2.807   9.450
 7149POPC   PO436576  16.686   2.795   9.150
 7149POPC   GL136577  16.768   2.800   8.850
 7149POPC   GL236578  16.833   2.723   8.850
 7149POPC   C1A36579  16.763   2.787   8.550
 7149POPC   D2A36580  16.723   2.796   8.250
 7149POPC   C3A36581  16.756   2.802   7.950
 7149POPC   C4A36582  16.719   2.731   7.650
 7149POPC   C1B36583  16.934   2.758   8.550
 7149POPC   C2B36584  16.983   2.708   8.250
 7149POPC   C3B36585  16.938   2.722   7.950
 7149POPC   C4B36586  16.948   2.803   7.650
 7150POPC   NC336587  34.529  15.227   9.450
 7150POPC   PO436588  34.567  15.141   9.150
 7150POPC   GL136589  34.547  15.164   8.850
 7150POPC   GL236590  34.496  15.258   8.850
 7150POPC   C1A36591  34.577  15.134   8.550
 7150POPC   D2A36592  34.554  15.216   8.250
 7150POPC   C3A36593  34.553  15.130   7.950
 7150POPC   C4A36594  34.560  15.134   7.650
 7150POPC   C1B36595  34.497  15.377   8.550
 7150POPC   C2B36596  34.462  15.430   8.250
 7150POPC   C3B36597  34.484  15.361   7.950
 7150POPC   C4B36598  34.499  15.426   7.650
 7151POPC   NC336599  17.518  43.933   9.450
 7151POPC   PO436600  17.527  43.894   9.150
 7151POPC   GL136601  17.500  43.850   8.850
 7151POPC   GL236602  17.616  43.971   8.850
 7151POPC   C1A36603  17.521  43.855   8.550
 7151POPC   D2A36604  17.508  43.893   8.250
 7151POPC   C3A36605  17.548  43.905   7.950
 7151POPC   C4A36606  17.553  43.839   7.650
 7151POPC   C1B36607  17.765  43.982   8.550
 7151POPC   C2B36608  17.763  43.971   8.250
 7151POPC   C3B36609  17.744  43.995   7.950
 7151POPC   C4B36610  17.700  43.986   7.650
 7152POPC   NC336611  18.314  17.548   9.450
 7152POPC   PO436612  18.326  17.553   9.150
 7152POPC   GL136613  18.261  17.463   8.850
 7152POPC   GL236614  18.332  17.380   8.850
 7152POPC   C1A36615  18.309  17.507   8.550
 7152POPC   D2A36616  18.317  17.495   8.250
 7152POPC   C3A36617  18.249  17.501   7.950
 7152POPC   C4A36618  18.272  17.490   7.650
 7152POPC   C1B36619  18.365  17.243   8.550
 7152POPC   C2B36620  18.423  17.276   8.250
 7152POPC   C3B36621  18.413  17.274   7.950
 7152POPC   C4B36622  18.374  17.242   7.650
 7153POPC   NC336623   1.255  29.955   9.450
 7153POPC   PO436624   1.173  29.916   9.150
 7153POPC   GL136625   1.208  29.915   8.850
 7153POPC   GL236626   1.344  29.941   8.850
 7153POPC   C1A36627   1.220  29.876   8.550
 7153POPC   D2A36628   1.203  29.883   8.250
 7153POPC   C3A36629   1.262  29.908   7.950
 7153POPC   C4A36630   1.220  29.897   7.650
 7153POPC   C1B36631   1.436  29.920   8.550
 7153POPC   C2B36632   1.507  29.929   8.250
 7153POPC   C3B36633   1.498  29.912   7.950
 7153POPC   C4B36634   1.494  29.937   7.650
 7154POPC   NC336635   8.949  37.722   9.450
 7154POPC   PO436636   8.922  37.648   9.150
 7154POPC   GL136637   9.000  37.657   8.850
 7154POPC   GL236638   8.934  37.761   8.850
 7154POPC   C1A36639   8.927  37.649   8.550
 7154POPC   D2A36640   8.990  37.645   8.250
 7154POPC   C3A36641   9.019  37.705   7.950
 7154POPC   C4A36642   9.011  37.716   7.650
 7154POPC   C1B36643   9.029  37.950   8.550
 7154POPC   C2B36644   8.965  37.944   8.250
 7154POPC   C3B36645   8.963  37.887   7.950
 7154POPC   C4B36646   9.011  37.889   7.650
 7155POPC   NC336647  36.863   9.770   9.450
 7155POPC   PO436648  36.922   9.714   9.150
 7155POPC   GL136649  36.921   9.781   8.850
 7155POPC   GL236650  36.913   9.615   8.850
 7155POPC   C1A36651  36.885   9.732   8.550
 7155POPC   D2A36652  36.928   9.706   8.250
 7155POPC   C3A36653  36.879   9.770   7.950
 7155POPC   C4A36654  36.887   9.750   7.650
 7155POPC   C1B36655  36.901   9.478   8.550
 7155POPC   C2B36656  36.894   9.483   8.250
 7155POPC   C3B36657  36.906   9.536   7.950
 7155POPC   C4B36658  36.941   9.452   7.650
 7156POPC   NC336659  10.568   1.182   9.450
 7156POPC   PO436660  10.475   1.210   9.150
 7156POPC   GL136661  10.486   1.199   8.850
 7156POPC   GL236662  10.410   1.210   8.850
 7156POPC   C1A36663  10.570   1.215   8.550
 7156POPC   D2A36664  10.546   1.200   8.250
 7156POPC   C3A36665  10.558   1.249   7.950
 7156POPC   C4A36666  10.552   1.167   7.650
 7156POPC   C1B36667  10.250   1.109   8.550
 7156POPC   C2B36668  10.294   1.088   8.250
 7156POPC   C3B36669  10.269   1.084   7.950
 7156POPC   C4B36670  10.281   1.138   7.650
 7157POPC   NC336671  31.466   8.149   9.450
 7157POPC   PO436672  31.443   8.215   9.150
 7157POPC   GL136673  31.466   8.175   8.850
 7157POPC   GL236674  31.439   8.281   8.850
 7157POPC   C1A36675  31.522   8.165   8.550
 7157POPC   D2A36676  31.445   8.159   8.250
 7157POPC   C3A36677  31.471   8.177   7.950
 7157POPC   C4A36678  31.459   8.148   7.650
 7157POPC   C1B36679  31.407   8.444   8.550
 7157POPC   C2B36680  31.469   8.492   8.250
 7157POPC   C3B36681  31.478   8.414   7.950
 7157POPC   C4B36682  31.452   8.486   7.650
 7158POPC   NC336683   8.158  36.165   9.450
 7158POPC   PO436684   8.196  36.160   9.150
 7158POPC   GL136685   8.188  36.156   8.850
 7158POPC   GL236686   8.275  36.257   8.850
 7158POPC   C1A36687   8.184  36.135   8.550
 7158POPC   D2A36688   8.150  36.154   8.250
 7158POPC   C3A36689   8.182  36.093   7.950
 7158POPC   C4A36690   8.191  36.089   7.650
 7158POPC   C1B36691   8.379  36.302   8.550
 7158POPC   C2B36692   8.359  36.375   8.250
 7158POPC   C3B36693   8.330  36.347   7.950
 7158POPC   C4B36694   8.322  36.331   7.650
 7159POPC   NC336695  14.427  15.966   9.450
 7159POPC   PO436696  14.408  15.982   9.150
 7159POPC   GL136697  14.394  15.978   8.850
 7159POPC   GL236698  14.396  15.781   8.850
 7159POPC   C1A36699  14.452  15.905   8.550
 7159POPC   D2A36700  14.437  15.950   8.250
 7159POPC   C3A36701  14.428  15.963   7.950
 7159POPC   C4A36702  14.418  15.977   7.650
 7159POPC   C1B36703  14.405  15.727   8.550
 7159POPC   C2B36704  14.411  15.663   8.250
 7159POPC   C3B36705  14.390  15.726   7.950
 7159POPC   C4B36706  14.408  15.753   7.650
 7160POPC   NC336707  36.165  40.022   9.450
 7160POPC   PO436708  36.172  40.053   9.150
 7160POPC   GL136709  36.156  40.023   8.850
 7160POPC   GL236710  36.234  39.873   8.850
 7160POPC   C1A36711  36.079  39.991   8.550
 7160POPC   D2A36712  36.120  39.971   8.250
 7160POPC   C3A36713  36.091  39.993   7.950
 7160POPC   C4A36714  36.165  40.057   7.650
 7160POPC   C1B36715  36.266  39.756   8.550
 7160POPC   C2B36716  36.244  39.778   8.250
 7160POPC   C3B36717  36.228  39.835   7.950
 7160POPC   C4B36718  36.280  39.773   7.650
 7161POPC   NC336719  30.711  31.519   9.450
 7161POPC   PO436720  30.741  31.509   9.150
 7161POPC   GL136721  30.653  31.433   8.850
 7161POPC   GL236722  30.622  31.392   8.850
 7161POPC   C1A36723  30.714  31.432   8.550
 7161POPC   D2A36724  30.699  31.481   8.250
 7161POPC   C3A36725  30.692  31.512   7.950
 7161POPC   C4A36726  30.718  31.468   7.650
 7161POPC   C1B36727  30.532  31.269   8.550
 7161POPC   C2B36728  30.505  31.263   8.250
 7161POPC   C3B36729  30.521  31.328   7.950
 7161POPC   C4B36730  30.509  31.241   7.650
 7162POPC   NC336731  39.260  18.265   9.450
 7162POPC   PO436732  39.210  18.311   9.150
 7162POPC   GL136733  39.195  18.233   8.850
 7162POPC   GL236734  39.220  18.142   8.850
 7162POPC   C1A36735  39.192  18.245   8.550
 7162POPC   D2A36736  39.267  18.262   8.250
 7162POPC   C3A36737  39.187  18.271   7.950
 7162POPC   C4A36738  39.216  18.282   7.650
 7162POPC   C1B36739  39.267  18.067   8.550
 7162POPC   C2B36740  39.258  18.068   8.250
 7162POPC   C3B36741  39.267  18.064   7.950
 7162POPC   C4B36742  39.350  18.066   7.650
 7163POPC   NC336743  21.342  29.161   9.450
 7163POPC   PO436744  21.351  29.123   9.150
 7163POPC   GL136745  21.363  29.142   8.850
 7163POPC   GL236746  21.349  29.003   8.850
 7163POPC   C1A36747  21.387  29.141   8.550
 7163POPC   D2A36748  21.436  29.121   8.250
 7163POPC   C3A36749  21.370  29.171   7.950
 7163POPC   C4A36750  21.433  29.156   7.650
 7163POPC   C1B36751  21.355  28.874   8.550
 7163POPC   C2B36752  21.369  28.943   8.250
 7163POPC   C3B36753  21.291  28.893   7.950
 7163POPC   C4B36754  21.377  28.859   7.650
 7164POPC   NC336755  17.531  16.005   9.450
 7164POPC   PO436756  17.519  15.907   9.150
 7164POPC   GL136757  17.501  15.996   8.850
 7164POPC   GL236758  17.428  15.906   8.850
 7164POPC   C1A36759  17.531  15.944   8.550
 7164POPC   D2A36760  17.471  15.985   8.250
 7164POPC   C3A36761  17.474  15.957   7.950
 7164POPC   C4A36762  17.490  15.991   7.650
 7164POPC   C1B36763  17.265  15.933   8.550
 7164POPC   C2B36764  17.282  15.949   8.250
 7164POPC   C3B36765  17.275  15.992   7.950
 7164POPC   C4B36766  17.238  15.932   7.650
 7165POPC   NC336767  43.112   0.389   9.450
 7165POPC   PO436768  43.128   0.412   9.150
 7165POPC   GL136769  43.107   0.471   8.850
 7165POPC   GL236770  43.219   0.453   8.850
 7165POPC   C1A36771  43.114   0.427   8.550
 7165POPC   D2A36772  43.084   0.414   8.250
 7165POPC   C3A36773  43.123   0.480   7.950
 7165POPC   C4A36774  43.080   0.445   7.650
 7165POPC   C1B36775  43.354   0.558   8.550
 7165POPC   C2B36776  43.383   0.546   8.250
 7165POPC   C3B36777  43.348   0.553   7.950
 7165POPC   C4B36778  43.330   0.583   7.650
 7166POPC   NC336779  26.780  21.430   9.450
 7166POPC   PO436780  26.821  21.370   9.150
 7166POPC   GL136781  26.832  21.343   8.850
 7166POPC   GL236782  26.811  21.280   8.850
 7166POPC   C1A36783  26.768  21.432   8.550
 7166POPC   D2A36784  26.853  21.370   8.250
 7166POPC   C3A36785  26.824  21.364   7.950
 7166POPC   C4A36786  26.809  21.393   7.650
 7166POPC   C1B36787  26.788  21.142   8.550
 7166POPC   C2B36788  26.880  21.165   8.250
 7166POPC   C3B36789  26.785  21.157   7.950
 7166POPC   C4B36790  26.856  21.160   7.650
 7167POPC   NC336791  35.307  33.047   9.450
 7167POPC   PO436792  35.365  33.019   9.150
 7167POPC   GL136793  35.325  33.011   8.850
 7167POPC   GL236794  35.237  32.992   8.850
 7167POPC   C1A36795  35.323  32.995   8.550
 7167POPC   D2A36796  35.326  32.983   8.250
 7167POPC   C3A36797  35.358  33.008   7.950
 7167POPC   C4A36798  35.341  33.047   7.650
 7167POPC   C1B36799  35.173  32.868   8.550
 7167POPC   C2B36800  35.162  32.919   8.250
 7167POPC   C3B36801  35.163  32.914   7.950
 7167POPC   C4B36802  35.087  32.959   7.650
 7168POPC   NC336803  43.906  19.065   9.450
 7168POPC   PO436804  43.931  19.034   9.150
 7168POPC   GL136805  43.841  19.067   8.850
 7168POPC   GL236806  43.905  18.987   8.850
 7168POPC   C1A36807  43.910  19.084   8.550
 7168POPC   D2A36808  43.881  19.084   8.250
 7168POPC   C3A36809  43.858  19.091   7.950
 7168POPC   C4A36810  43.928  19.104   7.650
 7168POPC   C1B36811  43.939  18.844   8.550
 7168POPC   C2B36812  43.942  18.771   8.250
 7168POPC   C3B36813  43.987  18.836   7.950
 7168POPC   C4B36814  43.977  18.829   7.650
 7169POPC   NC336815  40.747  32.200   9.450
 7169POPC   PO436816  40.738  32.217   9.150
 7169POPC   GL136817  40.763  32.245   8.850
 7169POPC   GL236818  40.651  32.344   8.850
 7169POPC   C1A36819  40.797  32.262   8.550
 7169POPC   D2A36820  40.760  32.257   8.250
 7169POPC   C3A36821  40.783  32.258   7.950
 7169POPC   C4A36822  40.785  32.235   7.650
 7169POPC   C1B36823  40.566  32.386   8.550
 7169POPC   C2B36824  40.602  32.369   8.250
 7169POPC   C3B36825  40.546  32.437   7.950
 7169POPC   C4B36826  40.556  32.422   7.650
 7170POPC   NC336827   8.211   9.011   9.450
 7170POPC   PO436828   8.152   8.991   9.150
 7170POPC   GL136829   8.164   9.021   8.850
 7170POPC   GL236830   8.071   8.991   8.850
 7170POPC   C1A36831   8.153   8.937   8.550
 7170POPC   D2A36832   8.173   9.011   8.250
 7170POPC   C3A36833   8.228   8.988   7.950
 7170POPC   C4A36834   8.167   8.998   7.650
 7170POPC   C1B36835   7.961   8.924   8.550
 7170POPC   C2B36836   7.900   8.915   8.250
 7170POPC   C3B36837   7.991   8.980   7.950
 7170POPC   C4B36838   7.974   8.976   7.650
 7171POPC   NC336839  19.064   5.048   9.450
 7171POPC   PO436840  19.089   5.117   9.150
 7171POPC   GL136841  19.082   5.117   8.850
 7171POPC   GL236842  18.975   5.181   8.850
 7171POPC   C1A36843  19.024   5.128   8.550
 7171POPC   D2A36844  19.029   5.113   8.250
 7171POPC   C3A36845  19.087   5.101   7.950
 7171POPC   C4A36846  19.087   5.131   7.650
 7171POPC   C1B36847  18.942   5.350   8.550
 7171POPC   C2B36848  18.952   5.281   8.250
 7171POPC   C3B36849  18.973   5.281   7.950
 7171POPC   C4B36850  18.917   5.270   7.650
 7172POPC   NC336851  26.084  25.261   9.450
 7172POPC   PO436852  26.067  25.244   9.150
 7172POPC   GL136853  26.089  25.253   8.850
 7172POPC   GL236854  25.982  25.108   8.850
 7172POPC   C1A36855  26.045  25.235   8.550
 7172POPC   D2A36856  26.053  25.288   8.250
 7172POPC   C3A36857  26.056  25.296   7.950
 7172POPC   C4A36858  26.053  25.304   7.650
 7172POPC   C1B36859  25.952  25.000   8.550
 7172POPC   C2B36860  25.929  25.051   8.250
 7172POPC   C3B36861  25.979  24.985   7.950
 7172POPC   C4B36862  25.990  24.983   7.650
 7173POPC   NC336863  25.286  10.539   9.450
 7173POPC   PO436864  25.230  10.496   9.150
 7173POPC   GL136865  25.298  10.518   8.850
 7173POPC   GL236866  25.258  10.630   8.850
 7173POPC   C1A36867  25.236  10.563   8.550
 7173POPC   D2A36868  25.287  10.559   8.250
 7173POPC   C3A36869  25.223  10.476   7.950
 7173POPC   C4A36870  25.283  10.563   7.650
 7173POPC   C1B36871  25.304  10.769   8.550
 7173POPC   C2B36872  25.308  10.806   8.250
 7173POPC   C3B36873  25.310  10.727   7.950
 7173POPC   C4B36874  25.307  10.732   7.650
 7174POPC   NC336875   4.323  23.707   9.450
 7174POPC   PO436876   4.285  23.743   9.150
 7174POPC   GL136877   4.363  23.728   8.850
 7174POPC   GL236878   4.273  23.630   8.850
 7174POPC   C1A36879   4.320  23.699   8.550
 7174POPC   D2A36880   4.339  23.667   8.250
 7174POPC   C3A36881   4.361  23.718   7.950
 7174POPC   C4A36882   4.311  23.742   7.650
 7174POPC   C1B36883   4.237  23.445   8.550
 7174POPC   C2B36884   4.247  23.446   8.250
 7174POPC   C3B36885   4.263  23.463   7.950
 7174POPC   C4B36886   4.235  23.455   7.650
 7175POPC   NC336887  42.314  36.170   9.450
 7175POPC   PO436888  42.320  36.095   9.150
 7175POPC   GL136889  42.380  36.087   8.850
 7175POPC   GL236890  42.450  36.140   8.850
 7175POPC   C1A36891  42.321  36.095   8.550
 7175POPC   D2A36892  42.340  36.112   8.250
 7175POPC   C3A36893  42.308  36.142   7.950
 7175POPC   C4A36894  42.306  36.177   7.650
 7175POPC   C1B36895  42.605  36.247   8.550
 7175POPC   C2B36896  42.532  36.278   8.250
 7175POPC   C3B36897  42.548  36.219   7.950
 7175POPC   C4B36898  42.532  36.221   7.650
 7176POPC   NC336899  44.618  22.923   9.450
 7176POPC   PO436900  44.636  22.915   9.150
 7176POPC   GL136901  44.653  22.918   8.850
 7176POPC   GL236902  44.534  22.969   8.850
 7176POPC   C1A36903  44.682  22.914   8.550
 7176POPC   D2A36904  44.637  22.975   8.250
 7176POPC   C3A36905  44.671  22.924   7.950
 7176POPC   C4A36906  44.673  22.912   7.650
 7176POPC   C1B36907  44.402  23.042   8.550
 7176POPC   C2B36908  44.429  23.090   8.250
 7176POPC   C3B36909  44.416  23.052   7.950
 7176POPC   C4B36910  44.407  23.020   7.650
 7177POPC   NC336911  30.718  24.475   9.450
 7177POPC   PO436912  30.668  24.526   9.150
 7177POPC   GL136913  30.656  24.461   8.850
 7177POPC   GL236914  30.611  24.359   8.850
 7177POPC   C1A36915  30.679  24.476   8.550
 7177POPC   D2A36916  30.657  24.453   8.250
 7177POPC   C3A36917  30.715  24.539   7.950
 7177POPC   C4A36918  30.708  24.489   7.650
 7177POPC   C1B36919  30.503  24.261   8.550
 7177POPC   C2B36920  30.526  24.304   8.250
 7177POPC   C3B36921  30.576  24.262   7.950
 7177POPC   C4B36922  30.520  24.248   7.650
 7178POPC   NC336923  12.881  19.842   9.450
 7178POPC   PO436924  12.843  19.788   9.150
 7178POPC   GL136925  12.875  19.866   8.850
 7178POPC   GL236926  13.015  19.857   8.850
 7178POPC   C1A36927  12.898  19.786   8.550
 7178POPC   D2A36928  12.887  19.797   8.250
 7178POPC   C3A36929  12.895  19.847   7.950
 7178POPC   C4A36930  12.817  19.849   7.650
 7178POPC   C1B36931  13.138  19.875   8.550
 7178POPC   C2B36932  13.112  19.903   8.250
 7178POPC   C3B36933  13.146  19.893   7.950
 7178POPC   C4B36934  13.107  19.853   7.650
 7179POPC   NC336935  13.607  39.227   9.450
 7179POPC   PO436936  13.595  39.257   9.150
 7179POPC   GL136937  13.643  39.194   8.850
 7179POPC   GL236938  13.604  39.386   8.850
 7179POPC   C1A36939  13.611  39.252   8.550
 7179POPC   D2A36940  13.677  39.230   8.250
 7179POPC   C3A36941  13.642  39.249   7.950
 7179POPC   C4A36942  13.599  39.188   7.650
 7179POPC   C1B36943  13.550  39.452   8.550
 7179POPC   C2B36944  13.587  39.444   8.250
 7179POPC   C3B36945  13.576  39.484   7.950
 7179POPC   C4B36946  13.575  39.490   7.650
 7180POPC   NC336947  40.826  12.826   9.450
 7180POPC   PO436948  40.825  12.860   9.150
 7180POPC   GL136949  40.767  12.839   8.850
 7180POPC   GL236950  40.871  12.687   8.850
 7180POPC   C1A36951  40.791  12.865   8.550
 7180POPC   D2A36952  40.765  12.812   8.250
 7180POPC   C3A36953  40.743  12.824   7.950
 7180POPC   C4A36954  40.803  12.888   7.650
 7180POPC   C1B36955  40.856  12.582   8.550
 7180POPC   C2B36956  40.846  12.613   8.250
 7180POPC   C3B36957  40.917  12.640   7.950
 7180POPC   C4B36958  40.828  12.638   7.650
 7181POPC   NC336959  25.235   9.702   9.450
 7181POPC   PO436960  25.219   9.745   9.150
 7181POPC   GL136961  25.255   9.761   8.850
 7181POPC   GL236962  25.387   9.627   8.850
 7181POPC   C1A36963  25.273   9.720   8.550
 7181POPC   D2A36964  25.309   9.789   8.250
 7181POPC   C3A36965  25.221   9.718   7.950
 7181POPC   C4A36966  25.302   9.709   7.650
 7181POPC   C1B36967  25.448   9.578   8.550
 7181POPC   C2B36968  25.390   9.521   8.250
 7181POPC   C3B36969  25.387   9.573   7.950
 7181POPC   C4B36970  25.402   9.541   7.650
 7182POPC   NC336971  16.772  15.213   9.450
 7182POPC   PO436972  16.781  15.137   9.150
 7182POPC   GL136973  16.689  15.143   8.850
 7182POPC   GL236974  16.846  15.223   8.850
 7182POPC   C1A36975  16.703  15.149   8.550
 7182POPC   D2A36976  16.770  15.211   8.250
 7182POPC   C3A36977  16.769  15.169   7.950
 7182POPC   C4A36978  16.709  15.214   7.650
 7182POPC   C1B36979  16.963  15.307   8.550
 7182POPC   C2B36980  16.898  15.337   8.250
 7182POPC   C3B36981  16.904  15.310   7.950
 7182POPC   C4B36982  16.953  15.363   7.650
 7183POPC   NC336983  36.110  15.997   9.450
 7183POPC   PO436984  36.082  15.916   9.150
 7183POPC   GL136985  36.094  15.995   8.850
 7183POPC   GL236986  36.215  15.919   8.850
 7183POPC   C1A36987  36.127  15.906   8.550
 7183POPC   D2A36988  36.111  15.975   8.250
 7183POPC   C3A36989  36.100  15.974   7.950
 7183POPC   C4A36990  36.093  15.997   7.650
 7183POPC   C1B36991  36.383  15.890   8.550
 7183POPC   C2B36992  36.411  15.890   8.250
 7183POPC   C3B36993  36.416  15.966   7.950
 7183POPC   C4B36994  36.402  15.931   7.650
 7184POPC   NC336995   6.608   8.944   9.450
 7184POPC   PO436996   6.652   8.962   9.150
 7184POPC   GL136997   6.688   9.000   8.850
 7184POPC   GL236998   6.648   8.865   8.850
 7184POPC   C1A36999   6.602   8.932   8.550
 7184POPC   D2A37000   6.632   8.925   8.250
 7184POPC   C3A37001   6.689   9.013   7.950
 7184POPC   C4A37002   6.644   9.004   7.650
 7184POPC   C1B37003   6.747   8.703   8.550
 7184POPC   C2B37004   6.727   8.778   8.250
 7184POPC   C3B37005   6.757   8.758   7.950
 7184POPC   C4B37006   6.670   8.696   7.650
 7185POPC   NC337007  31.495  24.452   9.450
 7185POPC   PO437008  31.488  24.510   9.150
 7185POPC   GL137009  31.456  24.457   8.850
 7185POPC   GL237010  31.490  24.640   8.850
 7185POPC   C1A37011  31.430  24.454   8.550
 7185POPC   D2A37012  31.423  24.506   8.250
 7185POPC   C3A37013  31.445  24.461   7.950
 7185POPC   C4A37014  31.447  24.494   7.650
 7185POPC   C1B37015  31.491  24.750   8.550
 7185POPC   C2B37016  31.519  24.732   8.250
 7185POPC   C3B37017  31.461  24.740   7.950
 7185POPC   C4B37018  31.491  24.746   7.650
 7186POPC   NC337019   9.709  34.613   9.450
 7186POPC   PO437020   9.717  34.535   9.150
 7186POPC   GL137021   9.738  34.618   8.850
 7186POPC   GL237022   9.676  34.684   8.850
 7186POPC   C1A37023   9.797  34.553   8.550
 7186POPC   D2A37024   9.774  34.568   8.250
 7186POPC   C3A37025   9.776  34.544   7.950
 7186POPC   C4A37026   9.758  34.588   7.650
 7186POPC   C1B37027   9.647  34.826   8.550
 7186POPC   C2B37028   9.703  34.853   8.250
 7186POPC   C3B37029   9.707  34.828   7.950
 7186POPC   C4B37030   9.669  34.846   7.650
 7187POPC   NC337031  35.349  13.645   9.450
 7187POPC   PO437032  35.325  13.645   9.150
 7187POPC   GL137033  35.372  13.674   8.850
 7187POPC   GL237034  35.419  13.709   8.850
 7187POPC   C1A37035  35.340  13.604   8.550
 7187POPC   D2A37036  35.348  13.661   8.250
 7187POPC   C3A37037  35.347  13.609   7.950
 7187POPC   C4A37038  35.323  13.657   7.650
 7187POPC   C1B37039  35.541  13.868   8.550
 7187POPC   C2B37040  35.478  13.822   8.250
 7187POPC   C3B37041  35.502  13.851   7.950
 7187POPC   C4B37042  35.457  13.788   7.650
 7188POPC   NC337043  19.102  30.694   9.450
 7188POPC   PO437044  19.026  30.746   9.150
 7188POPC   GL137045  19.037  30.686   8.850
 7188POPC   GL237046  18.911  30.735   8.850
 7188POPC   C1A37047  19.080  30.651   8.550
 7188POPC   D2A37048  19.067  30.662   8.250
 7188POPC   C3A37049  19.018  30.727   7.950
 7188POPC   C4A37050  19.067  30.703   7.650
 7188POPC   C1B37051  18.799  30.806   8.550
 7188POPC   C2B37052  18.773  30.808   8.250
 7188POPC   C3B37053  18.777  30.745   7.950
 7188POPC   C4B37054  18.793  30.734   7.650
 7189POPC   NC337055   8.987  33.051   9.450
 7189POPC   PO437056   8.946  32.984   9.150
 7189POPC   GL137057   8.976  33.039   8.850
 7189POPC   GL237058   9.033  32.935   8.850
 7189POPC   C1A37059   8.931  32.994   8.550
 7189POPC   D2A37060   9.001  32.991   8.250
 7189POPC   C3A37061   8.973  33.050   7.950
 7189POPC   C4A37062   8.994  32.988   7.650
 7189POPC   C1B37063   9.159  32.818   8.550
 7189POPC   C2B37064   9.207  32.866   8.250
 7189POPC   C3B37065   9.131  32.835   7.950
 7189POPC   C4B37066   9.203  32.900   7.650
 7190POPC   NC337067   1.201  29.180   9.450
 7190POPC   PO437068   1.168  29.103   9.150
 7190POPC   GL137069   1.200  29.184   8.850
 7190POPC   GL237070   1.101  29.069   8.850
 7190POPC   C1A37071   1.191  29.163   8.550
 7190POPC   D2A37072   1.165  29.177   8.250
 7190POPC   C3A37073   1.189  29.134   7.950
 7190POPC   C4A37074   1.242  29.113   7.650
 7190POPC   C1B37075   0.963  28.996   8.550
 7190POPC   C2B37076   0.991  29.022   8.250
 7190POPC   C3B37077   1.003  29.024   7.950
 7190POPC   C4B37078   1.011  28.988   7.650
 7191POPC   NC337079  36.900  34.609   9.450
 7191POPC   PO437080  36.879  34.611   9.150
 7191POPC   GL137081  36.914  34.617   8.850
 7191POPC   GL237082  36.778  34.593   8.850
 7191POPC   C1A37083  36.906  34.559   8.550
 7191POPC   D2A37084  36.894  34.573   8.250
 7191POPC   C3A37085  36.929  34.556   7.950
 7191POPC   C4A37086  36.936  34.537   7.650
 7191POPC   C1B37087  36.627  34.602   8.550
 7191POPC   C2B37088  36.689  34.578   8.250
 7191POPC   C3B37089  36.640  34.579   7.950
 7191POPC   C4B37090  36.640  34.640   7.650
 7192POPC   NC337091  29.912  33.764   9.450
 7192POPC   PO437092  29.880  33.839   9.150
 7192POPC   GL137093  29.964  33.845   8.850
 7192POPC   GL237094  29.877  33.883   8.850
 7192POPC   C1A37095  29.963  33.820   8.550
 7192POPC   D2A37096  29.914  33.770   8.250
 7192POPC   C3A37097  29.880  33.825   7.950
 7192POPC   C4A37098  29.955  33.774   7.650
 7192POPC   C1B37099  29.809  34.004   8.550
 7192POPC   C2B37100  29.758  34.049   8.250
 7192POPC   C3B37101  29.754  33.962   7.950
 7192POPC   C4B37102  29.741  33.966   7.650
 7193POPC   NC337103  22.915  27.549   9.450
 7193POPC   PO437104  22.971  27.556   9.150
 7193POPC   GL137105  22.938  27.570   8.850
 7193POPC   GL237106  22.789  27.614   8.850
 7193POPC   C1A37107  22.949  27.559   8.550
 7193POPC   D2A37108  22.987  27.621   8.250
 7193POPC   C3A37109  22.986  27.550   7.950
 7193POPC   C4A37110  22.980  27.620   7.650
 7193POPC   C1B37111  22.718  27.582   8.550
 7193POPC   C2B37112  22.646  27.576   8.250
 7193POPC   C3B37113  22.719  27.640   7.950
 7193POPC   C4B37114  22.658  27.558   7.650
 7194POPC   NC337115  43.078  16.699   9.450
 7194POPC   PO437116  43.072  16.770   9.150
 7194POPC   GL137117  43.067  16.728   8.850
 7194POPC   GL237118  43.063  16.851   8.850
 7194POPC   C1A37119  43.065  16.698   8.550
 7194POPC   D2A37120  43.116  16.696   8.250
 7194POPC   C3A37121  43.108  16.695   7.950
 7194POPC   C4A37122  43.077  16.763   7.650
 7194POPC   C1B37123  43.110  16.958   8.550
 7194POPC   C2B37124  43.080  16.983   8.250
 7194POPC   C3B37125  43.122  16.950   7.950
 7194POPC   C4B37126  43.075  16.940   7.650
 7195POPC   NC337127  13.638   6.653   9.450
 7195POPC   PO437128  13.651   6.664   9.150
 7195POPC   GL137129  13.617   6.628   8.850
 7195POPC   GL237130  13.708   6.493   8.850
 7195POPC   C1A37131  13.578   6.617   8.550
 7195POPC   D2A37132  13.622   6.654   8.250
 7195POPC   C3A37133  13.637   6.636   7.950
 7195POPC   C4A37134  13.652   6.632   7.650
 7195POPC   C1B37135  13.778   6.417   8.550
 7195POPC   C2B37136  13.805   6.458   8.250
 7195POPC   C3B37137  13.796   6.435   7.950
 7195POPC   C4B37138  13.720   6.466   7.650
 7196POPC   NC337139  39.270  26.859   9.450
 7196POPC   PO437140  39.270  26.850   9.150
 7196POPC   GL137141  39.231  26.779   8.850
 7196POPC   GL237142  39.315  26.810   8.850
 7196POPC   C1A37143  39.190  26.821   8.550
 7196POPC   D2A37144  39.269  26.795   8.250
 7196POPC   C3A37145  39.264  26.856   7.950
 7196POPC   C4A37146  39.277  26.827   7.650
 7196POPC   C1B37147  39.453  26.775   8.550
 7196POPC   C2B37148  39.492  26.784   8.250
 7196POPC   C3B37149  39.453  26.820   7.950
 7196POPC   C4B37150  39.492  26.820   7.650
 7197POPC   NC337151  14.366   3.563   9.450
 7197POPC   PO437152  14.453   3.503   9.150
 7197POPC   GL137153  14.387   3.527   8.850
 7197POPC   GL237154  14.437   3.708   8.850
 7197POPC   C1A37155  14.406   3.499   8.550
 7197POPC   D2A37156  14.382   3.555   8.250
 7197POPC   C3A37157  14.438   3.523   7.950
 7197POPC   C4A37158  14.446   3.540   7.650
 7197POPC   C1B37159  14.386   3.827   8.550
 7197POPC   C2B37160  14.412   3.788   8.250
 7197POPC   C3B37161  14.342   3.762   7.950
 7197POPC   C4B37162  14.413   3.811   7.650
 7198POPC   NC337163  27.581  35.307   9.450
 7198POPC   PO437164  27.631  35.364   9.150
 7198POPC   GL137165  27.556  35.380   8.850
 7198POPC   GL237166  27.603  35.526   8.850
 7198POPC   C1A37167  27.603  35.312   8.550
 7198POPC   D2A37168  27.609  35.314   8.250
 7198POPC   C3A37169  27.607  35.349   7.950
 7198POPC   C4A37170  27.625  35.395   7.650
 7198POPC   C1B37171  27.633  35.593   8.550
 7198POPC   C2B37172  27.601  35.610   8.250
 7198POPC   C3B37173  27.562  35.565   7.950
 7198POPC   C4B37174  27.642  35.568   7.650
 7199POPC   NC337175  12.044  41.547   9.450
 7199POPC   PO437176  12.071  41.600   9.150
 7199POPC   GL137177  12.041  41.547   8.850
 7199POPC   GL237178  11.952  41.475   8.850
 7199POPC   C1A37179  12.055  41.586   8.550
 7199POPC   D2A37180  12.116  41.588   8.250
 7199POPC   C3A37181  12.110  41.550   7.950
 7199POPC   C4A37182  12.029  41.597   7.650
 7199POPC   C1B37183  11.808  41.410   8.550
 7199POPC   C2B37184  11.850  41.494   8.250
 7199POPC   C3B37185  11.843  41.468   7.950
 7199POPC   C4B37186  11.854  41.425   7.650
 7200POPC   NC337187  36.905  13.608   9.450
 7200POPC   PO437188  36.904  13.581   9.150
 7200POPC   GL137189  36.937  13.585   8.850
 7200POPC   GL237190  37.023  13.576   8.850
 7200POPC   C1A37191  36.939  13.602   8.550
 7200POPC   D2A37192  36.930  13.614   8.250
 7200POPC   C3A37193  36.908  13.605   7.950
 7200POPC   C4A37194  36.868  13.625   7.650
 7200POPC   C1B37195  37.196  13.584   8.550
 7200POPC   C2B37196  37.140  13.591   8.250
 7200POPC   C3B37197  37.119  13.617   7.950
 7200POPC   C4B37198  37.175  13.591   7.650
 7201POPC   NC337199  12.857  12.890   9.450
 7201POPC   PO437200  12.895  12.842   9.150
 7201POPC   GL137201  12.874  12.838   8.850
 7201POPC   GL237202  12.772  12.835   8.850
 7201POPC   C1A37203  12.832  12.866   8.550
 7201POPC   D2A37204  12.899  12.835   8.250
 7201POPC   C3A37205  12.821  12.889   7.950
 7201POPC   C4A37206  12.819  12.876   7.650
 7201POPC   C1B37207  12.631  12.862   8.550
 7201POPC   C2B37208  12.627  12.802   8.250
 7201POPC   C3B37209  12.618  12.859   7.950
 7201POPC   C4B37210  12.567  12.818   7.650
 7202POPC   NC337211  23.755  12.119   9.450
 7202POPC   PO437212  23.731  12.090   9.150
 7202POPC   GL137213  23.753  12.123   8.850
 7202POPC   GL237214  23.717  12.219   8.850
 7202POPC   C1A37215  23.731  12.029   8.550
 7202POPC   D2A37216  23.762  12.080   8.250
 7202POPC   C3A37217  23.702  12.053   7.950
 7202POPC   C4A37218  23.728  12.035   7.650
 7202POPC   C1B37219  23.678  12.311   8.550
 7202POPC   C2B37220  23.746  12.278   8.250
 7202POPC   C3B37221  23.762  12.285   7.950
 7202POPC   C4B37222  23.689  12.368   7.650
 7203POPC   NC337223   8.178  22.975   9.450
 7203POPC   PO437224   8.167  22.941   9.150
 7203POPC   GL137225   8.204  22.889   8.850
 7203POPC   GL237226   8.340  22.943   8.850
 7203POPC   C1A37227   8.197  22.904   8.550
 7203POPC   D2A37228   8.163  22.946   8.250
 7203POPC   C3A37229   8.154  22.922   7.950
 7203POPC   C4A37230   8.157  22.987   7.650
 7203POPC   C1B37231   8.466  23.000   8.550
 7203POPC   C2B37232   8.390  22.966   8.250
 7203POPC   C3B37233   8.439  22.985   7.950
 7203POPC   C4B37234   8.432  23.003   7.650
 7204POPC   NC337235  22.193   8.150   9.450
 7204POPC   PO437236  22.147   8.173   9.150
 7204POPC   GL137237  22.181   8.226   8.850
 7204POPC   GL237238  22.004   8.160   8.850
 7204POPC   C1A37239  22.166   8.177   8.550
 7204POPC   D2A37240  22.188   8.174   8.250
 7204POPC   C3A37241  22.164   8.194   7.950
 7204POPC   C4A37242  22.134   8.176   7.650
 7204POPC   C1B37243  21.952   8.090   8.550
 7204POPC   C2B37244  21.936   8.117   8.250
 7204POPC   C3B37245  21.991   8.081   7.950
 7204POPC   C4B37246  21.908   8.087   7.650
 7205POPC   NC337247  14.419  39.203   9.450
 7205POPC   PO437248  14.362  39.256   9.150
 7205POPC   GL137249  14.408  39.245   8.850
 7205POPC   GL237250  14.335  39.152   8.850
 7205POPC   C1A37251  14.423  39.276   8.550
 7205POPC   D2A37252  14.414  39.211   8.250
 7205POPC   C3A37253  14.387  39.222   7.950
 7205POPC   C4A37254  14.384  39.255   7.650
 7205POPC   C1B37255  14.264  39.077   8.550
 7205POPC   C2B37256  14.211  39.038   8.250
 7205POPC   C3B37257  14.264  39.079   7.950
 7205POPC   C4B37258  14.219  39.080   7.650
 7206POPC   NC337259   8.940  26.088   9.450
 7206POPC   PO437260   8.997  26.022   9.150
 7206POPC   GL137261   8.954  25.998   8.850
 7206POPC   GL237262   9.134  25.978   8.850
 7206POPC   C1A37263   9.017  26.055   8.550
 7206POPC   D2A37264   8.991  26.079   8.250
 7206POPC   C3A37265   8.982  26.034   7.950
 7206POPC   C4A37266   8.961  26.040   7.650
 7206POPC   C1B37267   9.203  26.006   8.550
 7206POPC   C2B37268   9.173  25.993   8.250
 7206POPC   C3B37269   9.169  25.959   7.950
 7206POPC   C4B37270   9.209  25.968   7.650
 7207POPC   NC337271  40.001  40.754   9.450
 7207POPC   PO437272  39.992  40.783   9.150
 7207POPC   GL137273  40.055  40.771   8.850
 7207POPC   GL237274  39.973  40.918   8.850
 7207POPC   C1A37275  39.999  40.804   8.550
 7207POPC   D2A37276  40.025  40.824   8.250
 7207POPC   C3A37277  40.049  40.741   7.950
 7207POPC   C4A37278  40.047  40.788   7.650
 7207POPC   C1B37279  39.973  41.030   8.550
 7207POPC   C2B37280  39.889  41.047   8.250
 7207POPC   C3B37281  39.890  40.978   7.950
 7207POPC   C4B37282  39.881  41.039   7.650
 7208POPC   NC337283  33.065  43.931   9.450
 7208POPC   PO437284  33.014  43.902   9.150
 7208POPC   GL137285  32.991  43.877   8.850
 7208POPC   GL237286  33.083  43.798   8.850
 7208POPC   C1A37287  33.003  43.925   8.550
 7208POPC   D2A37288  32.990  43.905   8.250
 7208POPC   C3A37289  33.019  43.841   7.950
 7208POPC   C4A37290  33.050  43.878   7.650
 7208POPC   C1B37291  33.193  43.679   8.550
 7208POPC   C2B37292  33.135  43.684   8.250
 7208POPC   C3B37293  33.205  43.728   7.950
 7208POPC   C4B37294  33.154  43.711   7.650
 7209POPC   NC337295  10.531   9.713   9.450
 7209POPC   PO437296  10.482   9.779   9.150
 7209POPC   GL137297  10.546   9.722   8.850
 7209POPC   GL237298  10.587   9.641   8.850
 7209POPC   C1A37299  10.555   9.734   8.550
 7209POPC   D2A37300  10.516   9.765   8.250
 7209POPC   C3A37301  10.479   9.739   7.950
 7209POPC   C4A37302  10.513   9.763   7.650
 7209POPC   C1B37303  10.537   9.471   8.550
 7209POPC   C2B37304  10.562   9.546   8.250
 7209POPC   C3B37305  10.555   9.461   7.950
 7209POPC   C4B37306  10.577   9.531   7.650
 7210POPC   NC337307  17.464  26.812   9.450
 7210POPC   PO437308  17.480  26.811   9.150
 7210POPC   GL137309  17.533  26.828   8.850
 7210POPC   GL237310  17.624  26.817   8.850
 7210POPC   C1A37311  17.505  26.768   8.550
 7210POPC   D2A37312  17.548  26.849   8.250
 7210POPC   C3A37313  17.496  26.790   7.950
 7210POPC   C4A37314  17.505  26.815   7.650
 7210POPC   C1B37315  17.729  26.867   8.550
 7210POPC   C2B37316  17.726  26.788   8.250
 7210POPC   C3B37317  17.800  26.815   7.950
 7210POPC   C4B37318  17.713  26.801   7.650
 7211POPC   NC337319  13.643   9.783   9.450
 7211POPC   PO437320  13.578   9.763   9.150
 7211POPC   GL137321  13.613   9.730   8.850
 7211POPC   GL237322  13.548   9.805   8.850
 7211POPC   C1A37323  13.664   9.763   8.550
 7211POPC   D2A37324  13.620   9.708   8.250
 7211POPC   C3A37325  13.647   9.702   7.950
 7211POPC   C4A37326  13.601   9.792   7.650
 7211POPC   C1B37327  13.490   9.968   8.550
 7211POPC   C2B37328  13.512   9.941   8.250
 7211POPC   C3B37329  13.446   9.975   7.950
 7211POPC   C4B37330  13.471   9.991   7.650
 7212POPC   NC337331  34.581  32.250   9.450
 7212POPC   PO437332  34.600  32.216   9.150
 7212POPC   GL137333  34.616  32.273   8.850
 7212POPC   GL237334  34.482  32.146   8.850
 7212POPC   C1A37335  34.591  32.293   8.550
 7212POPC   D2A37336  34.574  32.290   8.250
 7212POPC   C3A37337  34.589  32.274   7.950
 7212POPC   C4A37338  34.548  32.279   7.650
 7212POPC   C1B37339  34.453  32.077   8.550
 7212POPC   C2B37340  34.438  32.044   8.250
 7212POPC   C3B37341  34.358  32.114   7.950
 7212POPC   C4B37342  34.363  32.058   7.650
 7213POPC   NC337343  36.137  40.763   9.450
 7213POPC   PO437344  36.114  40.759   9.150
 7213POPC   GL137345  36.081  40.764   8.850
 7213POPC   GL237346  36.171  40.695   8.850
 7213POPC   C1A37347  36.091  40.819   8.550
 7213POPC   D2A37348  36.169  40.786   8.250
 7213POPC   C3A37349  36.125  40.781   7.950
 7213POPC   C4A37350  36.086  40.804   7.650
 7213POPC   C1B37351  36.166  40.513   8.550
 7213POPC   C2B37352  36.181  40.580   8.250
 7213POPC   C3B37353  36.184  40.551   7.950
 7213POPC   C4B37354  36.161  40.571   7.650
 7214POPC   NC337355  12.029  32.228   9.450
 7214POPC   PO437356  12.083  32.200   9.150
 7214POPC   GL137357  12.079  32.261   8.850
 7214POPC   GL237358  12.158  32.114   8.850
 7214POPC   C1A37359  12.072  32.281   8.550
 7214POPC   D2A37360  12.045  32.279   8.250
 7214POPC   C3A37361  12.028  32.241   7.950
 7214POPC   C4A37362  12.037  32.286   7.650
 7214POPC   C1B37363  12.146  31.988   8.550
 7214POPC   C2B37364  12.154  32.032   8.250
 7214POPC   C3B37365  12.190  32.051   7.950
 7214POPC   C4B37366  12.184  31.996   7.650
 7215POPC   NC337367  41.571  17.515   9.450
 7215POPC   PO437368  41.528  17.518   9.150
 7215POPC   GL137369  41.542  17.520   8.850
 7215POPC   GL237370  41.477  17.610   8.850
 7215POPC   C1A37371  41.534  17.488   8.550
 7215POPC   D2A37372  41.544  17.511   8.250
 7215POPC   C3A37373  41.606  17.513   7.950
 7215POPC   C4A37374  41.578  17.465   7.650
 7215POPC   C1B37375  41.402  17.740   8.550
 7215POPC   C2B37376  41.395  17.690   8.250
 7215POPC   C3B37377  41.450  17.775   7.950
 7215POPC   C4B37378  41.420  17.773   7.650
 7216POPC   NC337379  18.310  14.418   9.450
 7216POPC   PO437380  18.283  14.443   9.150
 7216POPC   GL137381  18.257  14.359   8.850
 7216POPC   GL237382  18.284  14.537   8.850
 7216POPC   C1A37383  18.303  14.384   8.550
 7216POPC   D2A37384  18.280  14.432   8.250
 7216POPC   C3A37385  18.329  14.376   7.950
 7216POPC   C4A37386  18.301  14.357   7.650
 7216POPC   C1B37387  18.327  14.605   8.550
 7216POPC   C2B37388  18.243  14.686   8.250
 7216POPC   C3B37389  18.241  14.634   7.950
 7216POPC   C4B37390  18.262  14.698   7.650
 7217POPC   NC337391  34.570  33.035   9.450
 7217POPC   PO437392  34.558  32.990   9.150
 7217POPC   GL137393  34.620  33.037   8.850
 7217POPC   GL237394  34.674  32.954   8.850
 7217POPC   C1A37395  34.571  33.031   8.550
 7217POPC   D2A37396  34.593  33.060   8.250
 7217POPC   C3A37397  34.565  32.985   7.950
 7217POPC   C4A37398  34.560  33.033   7.650
 7217POPC   C1B37399  34.753  32.859   8.550
 7217POPC   C2B37400  34.755  32.853   8.250
 7217POPC   C3B37401  34.816  32.849   7.950
 7217POPC   C4B37402  34.815  32.823   7.650
 7218POPC   NC337403  37.632   8.243   9.450
 7218POPC   PO437404  37.682   8.211   9.150
 7218POPC   GL137405  37.688   8.239   8.850
 7218POPC   GL237406  37.825   8.205   8.850
 7218POPC   C1A37407  37.634   8.172   8.550
 7218POPC   D2A37408  37.727   8.148   8.250
 7218POPC   C3A37409  37.685   8.233   7.950
 7218POPC   C4A37410  37.714   8.242   7.650
 7218POPC   C1B37411  37.901   8.198   8.550
 7218POPC   C2B37412  37.938   8.136   8.250
 7218POPC   C3B37413  37.902   8.182   7.950
 7218POPC   C4B37414  37.963   8.172   7.650
 7219POPC   NC337415  14.441  38.461   9.450
 7219POPC   PO437416  14.386  38.457   9.150
 7219POPC   GL137417  14.414  38.417   8.850
 7219POPC   GL237418  14.495  38.470   8.850
 7219POPC   C1A37419  14.449  38.501   8.550
 7219POPC   D2A37420  14.429  38.500   8.250
 7219POPC   C3A37421  14.377  38.461   7.950
 7219POPC   C4A37422  14.447  38.504   7.650
 7219POPC   C1B37423  14.587  38.542   8.550
 7219POPC   C2B37424  14.678  38.589   8.250
 7219POPC   C3B37425  14.638  38.551   7.950
 7219POPC   C4B37426  14.630  38.566   7.650
 7220POPC   NC337427  32.997  27.594   9.450
 7220POPC   PO437428  32.997  27.573   9.150
 7220POPC   GL137429  32.984  27.573   8.850
 7220POPC   GL237430  33.191  27.630   8.850
 7220POPC   C1A37431  33.000  27.636   8.550
 7220POPC   D2A37432  33.069  27.544   8.250
 7220POPC   C3A37433  32.977  27.602   7.950
 7220POPC   C4A37434  33.042  27.621   7.650
 7220POPC   C1B37435  33.319  27.640   8.550
 7220POPC   C2B37436  33.288  27.614   8.250
 7220POPC   C3B37437  33.279  27.625   7.950
 7220POPC   C4B37438  33.323  27.651   7.650
 7221POPC   NC337439  40.756  11.280   9.450
 7221POPC   PO437440  40.763  11.342   9.150
 7221POPC   GL137441  40.743  11.328   8.850
 7221POPC   GL237442  40.675  11.373   8.850
 7221POPC   C1A37443  40.769  11.278   8.550
 7221POPC   D2A37444  40.825  11.320   8.250
 7221POPC   C3A37445  40.831  11.330   7.950
 7221POPC   C4A37446  40.816  11.325   7.650
 7221POPC   C1B37447  40.647  11.438   8.550
 7221POPC   C2B37448  40.662  11.445   8.250
 7221POPC   C3B37449  40.590  11.446   7.950
 7221POPC   C4B37450  40.661  11.526   7.650
 7222POPC   NC337451   7.394   3.553   9.450
 7222POPC   PO437452   7.420   3.520   9.150
 7222POPC   GL137453   7.416   3.566   8.850
 7222POPC   GL237454   7.462   3.417   8.850
 7222POPC   C1A37455   7.394   3.549   8.550
 7222POPC   D2A37456   7.373   3.501   8.250
 7222POPC   C3A37457   7.410   3.533   7.950
 7222POPC   C4A37458   7.424   3.576   7.650
 7222POPC   C1B37459   7.438   3.261   8.550
 7222POPC   C2B37460   7.491   3.260   8.250
 7222POPC   C3B37461   7.490   3.284   7.950
 7222POPC   C4B37462   7.428   3.263   7.650
 7223POPC   NC337463   2.776  30.705   9.450
 7223POPC   PO437464   2.783  30.650   9.150
 7223POPC   GL137465   2.738  30.730   8.850
 7223POPC   GL237466   2.629  30.704   8.850
 7223POPC   C1A37467   2.745  30.663   8.550
 7223POPC   D2A37468   2.797  30.695   8.250
 7223POPC   C3A37469   2.757  30.686   7.950
 7223POPC   C4A37470   2.777  30.653   7.650
 7223POPC   C1B37471   2.493  30.780   8.550
 7223POPC   C2B37472   2.544  30.811   8.250
 7223POPC   C3B37473   2.497  30.814   7.950
 7223POPC   C4B37474   2.562  30.812   7.650
 7224POPC   NC337475  24.462   2.013   9.450
 7224POPC   PO437476  24.515   2.001   9.150
 7224POPC   GL137477  24.529   2.025   8.850
 7224POPC   GL237478  24.416   1.903   8.850
 7224POPC   C1A37479  24.469   2.021   8.550
 7224POPC   D2A37480  24.515   1.990   8.250
 7224POPC   C3A37481  24.533   2.010   7.950
 7224POPC   C4A37482  24.451   1.998   7.650
 7224POPC   C1B37483  24.449   1.751   8.550
 7224POPC   C2B37484  24.432   1.775   8.250
 7224POPC   C3B37485  24.415   1.753   7.950
 7224POPC   C4B37486  24.486   1.753   7.650
 7225POPC   NC337487  22.130  17.473   9.450
 7225POPC   PO437488  22.209  17.508   9.150
 7225POPC   GL137489  22.181  17.513   8.850
 7225POPC   GL237490  22.281  17.463   8.850
 7225POPC   C1A37491  22.187  17.513   8.550
 7225POPC   D2A37492  22.122  17.471   8.250
 7225POPC   C3A37493  22.162  17.499   7.950
 7225POPC   C4A37494  22.158  17.502   7.650
 7225POPC   C1B37495  22.412  17.368   8.550
 7225POPC   C2B37496  22.358  17.385   8.250
 7225POPC   C3B37497  22.402  17.415   7.950
 7225POPC   C4B37498  22.374  17.406   7.650
 7226POPC   NC337499  26.000  26.780   9.450
 7226POPC   PO437500  26.077  26.819   9.150
 7226POPC   GL137501  26.037  26.790   8.850
 7226POPC   GL237502  25.968  26.926   8.850
 7226POPC   C1A37503  26.027  26.816   8.550
 7226POPC   D2A37504  26.076  26.827   8.250
 7226POPC   C3A37505  26.007  26.815   7.950
 7226POPC   C4A37506  26.069  26.845   7.650
 7226POPC   C1B37507  26.012  27.100   8.550
 7226POPC   C2B37508  25.949  27.073   8.250
 7226POPC   C3B37509  25.989  27.098   7.950
 7226POPC   C4B37510  25.957  27.084   7.650
 7227POPC   NC337511  12.898  19.083   9.450
 7227POPC   PO437512  12.895  19.049   9.150
 7227POPC   GL137513  12.847  19.077   8.850
 7227POPC   GL237514  12.953  19.033   8.850
 7227POPC   C1A37515  12.824  19.072   8.550
 7227POPC   D2A37516  12.885  19.031   8.250
 7227POPC   C3A37517  12.879  19.039   7.950
 7227POPC   C4A37518  12.803  19.084   7.650
 7227POPC   C1B37519  13.143  19.033   8.550
 7227POPC   C2B37520  13.100  18.955   8.250
 7227POPC   C3B37521  13.115  18.957   7.950
 7227POPC   C4B37522  13.111  19.050   7.650
 7228POPC   NC337523  28.346  43.905   9.450
 7228POPC   PO437524  28.329  43.885   9.150
 7228POPC   GL137525  28.347  43.849   8.850
 7228POPC   GL237526  28.434  43.953   8.850
 7228POPC   C1A37527  28.363  43.839   8.550
 7228POPC   D2A37528  28.373  43.863   8.250
 7228POPC   C3A37529  28.407  43.883   7.950
 7228POPC   C4A37530  28.365  43.854   7.650
 7228POPC   C1B37531  28.470  44.055   8.550
 7228POPC   C2B37532  28.527  44.068   8.250
 7228POPC   C3B37533  28.474  44.061   7.950
 7228POPC   C4B37534  28.535  44.088   7.650
 7229POPC   NC337535  34.555   3.547   9.450
 7229POPC   PO437536  34.565   3.501   9.150
 7229POPC   GL137537  34.548   3.586   8.850
 7229POPC   GL237538  34.415   3.574   8.850
 7229POPC   C1A37539  34.537   3.551   8.550
 7229POPC   D2A37540  34.594   3.507   8.250
 7229POPC   C3A37541  34.527   3.549   7.950
 7229POPC   C4A37542  34.529   3.519   7.650
 7229POPC   C1B37543  34.351   3.533   8.550
 7229POPC   C2B37544  34.283   3.523   8.250
 7229POPC   C3B37545  34.332   3.524   7.950
 7229POPC   C4B37546  34.333   3.601   7.650
 7230POPC   NC337547  29.878   0.480   9.450
 7230POPC   PO437548  29.951   0.482   9.150
 7230POPC   GL137549  29.963   0.479   8.850
 7230POPC   GL237550  30.032   0.451   8.850
 7230POPC   C1A37551  29.895   0.418   8.550
 7230POPC   D2A37552  29.914   0.469   8.250
 7230POPC   C3A37553  29.953   0.483   7.950
 7230POPC   C4A37554  29.938   0.456   7.650
 7230POPC   C1B37555  30.133   0.549   8.550
 7230POPC   C2B37556  30.153   0.569   8.250
 7230POPC   C3B37557  30.124   0.507   7.950
 7230POPC   C4B37558  30.166   0.534   7.650
 7231POPC   NC337559  41.607  41.595   9.450
 7231POPC   PO437560  41.549  41.529   9.150
 7231POPC   GL137561  41.592  41.515   8.850
 7231POPC   GL237562  41.472  41.700   8.850
 7231POPC   C1A37563  41.540  41.551   8.550
 7231POPC   D2A37564  41.540  41.588   8.250
 7231POPC   C3A37565  41.598  41.559   7.950
 7231POPC   C4A37566  41.604  41.547   7.650
 7231POPC   C1B37567  41.420  41.826   8.550
 7231POPC   C2B37568  41.515  41.769   8.250
 7231POPC   C3B37569  41.429  41.790   7.950
 7231POPC   C4B37570  41.485  41.744   7.650
 7232POPC   NC337571   3.526  23.715   9.450
 7232POPC   PO437572   3.503  23.714   9.150
 7232POPC   GL137573   3.523  23.705   8.850
 7232POPC   GL237574   3.656  23.661   8.850
 7232POPC   C1A37575   3.505  23.664   8.550
 7232POPC   D2A37576   3.528  23.721   8.250
 7232POPC   C3A37577   3.571  23.697   7.950
 7232POPC   C4A37578   3.583  23.671   7.650
 7232POPC   C1B37579   3.670  23.517   8.550
 7232POPC   C2B37580   3.752  23.572   8.250
 7232POPC   C3B37581   3.744  23.498   7.950
 7232POPC   C4B37582   3.710  23.478   7.650
 7233POPC   NC337583  16.692  36.145   9.450
 7233POPC   PO437584  16.732  36.156   9.150
 7233POPC   GL137585  16.717  36.144   8.850
 7233POPC   GL237586  16.781  35.981   8.850
 7233POPC   C1A37587  16.751  36.153   8.550
 7233POPC   D2A37588  16.698  36.125   8.250
 7233POPC   C3A37589  16.701  36.177   7.950
 7233POPC   C4A37590  16.744  36.174   7.650
 7233POPC   C1B37591  16.799  35.892   8.550
 7233POPC   C2B37592  16.860  35.935   8.250
 7233POPC   C3B37593  16.816  35.889   7.950
 7233POPC   C4B37594  16.783  35.936   7.650
 7234POPC   NC337595   8.992  35.397   9.450
 7234POPC   PO437596   8.956  35.327   9.150
 7234POPC   GL137597   8.971  35.323   8.850
 7234POPC   GL237598   9.043  35.447   8.850
 7234POPC   C1A37599   8.963  35.344   8.550
 7234POPC   D2A37600   8.956  35.395   8.250
 7234POPC   C3A37601   8.961  35.357   7.950
 7234POPC   C4A37602   8.988  35.336   7.650
 7234POPC   C1B37603   9.064  35.598   8.550
 7234POPC   C2B37604   9.075  35.606   8.250
 7234POPC   C3B37605   9.088  35.621   7.950
 7234POPC   C4B37606   9.124  35.582   7.650
 7235POPC   NC337607  40.780  40.747   9.450
 7235POPC   PO437608  40.799  40.734   9.150
 7235POPC   GL137609  40.818  40.752   8.850
 7235POPC   GL237610  40.818  40.620   8.850
 7235POPC   C1A37611  40.815  40.736   8.550
 7235POPC   D2A37612  40.817  40.819   8.250
 7235POPC   C3A37613  40.778  40.814   7.950
 7235POPC   C4A37614  40.791  40.816   7.650
 7235POPC   C1B37615  40.780  40.558   8.550
 7235POPC   C2B37616  40.776  40.572   8.250
 7235POPC   C3B37617  40.828  40.560   7.950
 7235POPC   C4B37618  40.758  40.518   7.650
 7236POPC   NC337619  29.893  10.530   9.450
 7236POPC   PO437620  29.930  10.490   9.150
 7236POPC   GL137621  29.875  10.523   8.850
 7236POPC   GL237622  30.008  10.445   8.850
 7236POPC   C1A37623  29.970  10.550   8.550
 7236POPC   D2A37624  29.887  10.514   8.250
 7236POPC   C3A37625  29.884  10.541   7.950
 7236POPC   C4A37626  29.957  10.491   7.650
 7236POPC   C1B37627  30.137  10.408   8.550
 7236POPC   C2B37628  30.147  10.396   8.250
 7236POPC   C3B37629  30.160  10.343   7.950
 7236POPC   C4B37630  30.142  10.353   7.650
 7237POPC   NC337631  43.857  16.692   9.450
 7237POPC   PO437632  43.847  16.753   9.150
 7237POPC   GL137633  43.859  16.719   8.850
 7237POPC   GL237634  43.850  16.785   8.850
 7237POPC   C1A37635  43.866  16.686   8.550
 7237POPC   D2A37636  43.934  16.771   8.250
 7237POPC   C3A37637  43.837  16.705   7.950
 7237POPC   C4A37638  43.885  16.780   7.650
 7237POPC   C1B37639  43.754  16.955   8.550
 7237POPC   C2B37640  43.727  16.912   8.250
 7237POPC   C3B37641  43.708  16.940   7.950
 7237POPC   C4B37642  43.740  16.971   7.650
 7238POPC   NC337643  19.100  26.809   9.450
 7238POPC   PO437644  19.047  26.818   9.150
 7238POPC   GL137645  19.057  26.847   8.850
 7238POPC   GL237646  19.075  26.980   8.850
 7238POPC   C1A37647  19.047  26.835   8.550
 7238POPC   D2A37648  19.052  26.789   8.250
 7238POPC   C3A37649  19.047  26.849   7.950
 7238POPC   C4A37650  19.010  26.863   7.650
 7238POPC   C1B37651  19.150  27.025   8.550
 7238POPC   C2B37652  19.068  27.072   8.250
 7238POPC   C3B37653  19.084  27.058   7.950
 7238POPC   C4B37654  19.074  27.101   7.650
 7239POPC   NC337655  43.117   5.896   9.450
 7239POPC   PO437656  43.136   5.914   9.150
 7239POPC   GL137657  43.089   5.865   8.850
 7239POPC   GL237658  43.023   5.829   8.850
 7239POPC   C1A37659  43.088   5.877   8.550
 7239POPC   D2A37660  43.067   5.840   8.250
 7239POPC   C3A37661  43.140   5.843   7.950
 7239POPC   C4A37662  43.139   5.832   7.650
 7239POPC   C1B37663  42.924   5.819   8.550
 7239POPC   C2B37664  42.837   5.821   8.250
 7239POPC   C3B37665  42.894   5.755   7.950
 7239POPC   C4B37666  42.877   5.824   7.650
 7240POPC   NC337667  32.983  19.056   9.450
 7240POPC   PO437668  33.066  19.052   9.150
 7240POPC   GL137669  33.037  19.026   8.850
 7240POPC   GL237670  33.171  19.042   8.850
 7240POPC   C1A37671  33.009  19.059   8.550
 7240POPC   D2A37672  33.070  19.094   8.250
 7240POPC   C3A37673  33.035  19.060   7.950
 7240POPC   C4A37674  32.988  19.100   7.650
 7240POPC   C1B37675  33.303  19.057   8.550
 7240POPC   C2B37676  33.266  19.048   8.250
 7240POPC   C3B37677  33.237  19.091   7.950
 7240POPC   C4B37678  33.280  19.132   7.650
 7241POPC   NC337679  15.965  17.460   9.450
 7241POPC   PO437680  15.956  17.500   9.150
 7241POPC   GL137681  15.910  17.522   8.850
 7241POPC   GL237682  15.954  17.426   8.850
 7241POPC   C1A37683  16.002  17.481   8.550
 7241POPC   D2A37684  16.001  17.551   8.250
 7241POPC   C3A37685  16.000  17.547   7.950
 7241POPC   C4A37686  15.968  17.469   7.650
 7241POPC   C1B37687  15.960  17.301   8.550
 7241POPC   C2B37688  16.009  17.224   8.250
 7241POPC   C3B37689  16.025  17.268   7.950
 7241POPC   C4B37690  15.930  17.235   7.650
 7242POPC   NC337691  37.675   1.949   9.450
 7242POPC   PO437692  37.662   1.983   9.150
 7242POPC   GL137693  37.638   1.988   8.850
 7242POPC   GL237694  37.695   1.877   8.850
 7242POPC   C1A37695  37.695   1.979   8.550
 7242POPC   D2A37696  37.709   1.987   8.250
 7242POPC   C3A37697  37.672   1.942   7.950
 7242POPC   C4A37698  37.658   1.992   7.650
 7242POPC   C1B37699  37.813   1.792   8.550
 7242POPC   C2B37700  37.756   1.816   8.250
 7242POPC   C3B37701  37.813   1.777   7.950
 7242POPC   C4B37702  37.813   1.817   7.650
 7243POPC   NC337703  10.571  39.990   9.450
 7243POPC   PO437704  10.504  40.015   9.150
 7243POPC   GL137705  10.556  40.047   8.850
 7243POPC   GL237706  10.655  40.010   8.850
 7243POPC   C1A37707  10.531  39.981   8.550
 7243POPC   D2A37708  10.564  40.026   8.250
 7243POPC   C3A37709  10.477  40.019   7.950
 7243POPC   C4A37710  10.508  39.966   7.650
 7243POPC   C1B37711  10.725  39.916   8.550
 7243POPC   C2B37712  10.789  39.905   8.250
 7243POPC   C3B37713  10.755  39.940   7.950
 7243POPC   C4B37714  10.728  39.892   7.650
 7244POPC   NC337715  15.999   3.504   9.450
 7244POPC   PO437716  15.990   3.503   9.150
 7244POPC   GL137717  15.942   3.517   8.850
 7244POPC   GL237718  16.059   3.615   8.850
 7244POPC   C1A37719  15.995   3.493   8.550
 7244POPC   D2A37720  15.972   3.492   8.250
 7244POPC   C3A37721  15.913   3.518   7.950
 7244POPC   C4A37722  15.930   3.539   7.650
 7244POPC   C1B37723  16.156   3.605   8.550
 7244POPC   C2B37724  16.169   3.568   8.250
 7244POPC   C3B37725  16.221   3.660   7.950
 7244POPC   C4B37726  16.167   3.634   7.650
 7245POPC   NC337727  34.605   5.093   9.450
 7245POPC   PO437728  34.584   5.124   9.150
 7245POPC   GL137729  34.618   5.049   8.850
 7245POPC   GL237730  34.441   5.131   8.850
 7245POPC   C1A37731  34.580   5.061   8.550
 7245POPC   D2A37732  34.533   5.063   8.250
 7245POPC   C3A37733  34.562   5.058   7.950
 7245POPC   C4A37734  34.609   5.132   7.650
 7245POPC   C1B37735  34.316   5.174   8.550
 7245POPC   C2B37736  34.359   5.210   8.250
 7245POPC   C3B37737  34.319   5.175   7.950
 7245POPC   C4B37738  34.374   5.235   7.650
 7246POPC   NC337739  18.288   1.215   9.450
 7246POPC   PO437740  18.253   1.203   9.150
 7246POPC   GL137741  18.235   1.242   8.850
 7246POPC   GL237742  18.309   1.109   8.850
 7246POPC   C1A37743  18.277   1.216   8.550
 7246POPC   D2A37744  18.330   1.193   8.250
 7246POPC   C3A37745  18.323   1.191   7.950
 7246POPC   C4A37746  18.318   1.184   7.650
 7246POPC   C1B37747  18.215   0.983   8.550
 7246POPC   C2B37748  18.255   0.920   8.250
 7246POPC   C3B37749  18.219   0.974   7.950
 7246POPC   C4B37750  18.264   0.962   7.650
 7247POPC   NC337751  37.690  36.124   9.450
 7247POPC   PO437752  37.635  36.082   9.150
 7247POPC   GL137753  37.641  36.122   8.850
 7247POPC   GL237754  37.621  36.028   8.850
 7247POPC   C1A37755  37.686  36.118   8.550
 7247POPC   D2A37756  37.662  36.123   8.250
 7247POPC   C3A37757  37.678  36.087   7.950
 7247POPC   C4A37758  37.716  36.135   7.650
 7247POPC   C1B37759  37.510  35.963   8.550
 7247POPC   C2B37760  37.492  35.997   8.250
 7247POPC   C3B37761  37.441  36.007   7.950
 7247POPC   C4B37762  37.471  35.960   7.650
 7248POPC   NC337763  32.981  14.372   9.450
 7248POPC   PO437764  33.021  14.397   9.150
 7248POPC   GL137765  32.996  14.356   8.850
 7248POPC   GL237766  33.012  14.499   8.850
 7248POPC   C1A37767  33.011  14.409   8.550
 7248POPC   D2A37768  32.991  14.371   8.250
 7248POPC   C3A37769  33.066  14.396   7.950
 7248POPC   C4A37770  33.004  14.441   7.650
 7248POPC   C1B37771  32.960  14.684   8.550
 7248POPC   C2B37772  32.934  14.645   8.250
 7248POPC   C3B37773  32.981  14.679   7.950
 7248POPC   C4B37774  32.955  14.661   7.650
 7249POPC   NC337775  44.650  13.584   9.450
 7249POPC   PO437776  44.639  13.675   9.150
 7249POPC   GL137777  44.655  13.641   8.850
 7249POPC   GL237778  44.785  13.599   8.850
 7249POPC   C1A37779  44.686  13.579   8.550
 7249POPC   D2A37780  44.639  13.642   8.250
 7249POPC   C3A37781  44.638  13.607   7.950
 7249POPC   C4A37782  44.650  13.627   7.650
 7249POPC   C1B37783  44.907  13.701   8.550
 7249POPC   C2B37784  44.954  13.636   8.250
 7249POPC   C3B37785  44.953  13.611   7.950
 7249POPC   C4B37786  44.944  13.634   7.650
 7250POPC   NC337787  38.479  22.980   9.450
 7250POPC   PO437788  38.434  22.949   9.150
 7250POPC   GL137789  38.464  22.928   8.850
 7250POPC   GL237790  38.499  23.064   8.850
 7250POPC   C1A37791  38.500  22.906   8.550
 7250POPC   D2A37792  38.477  22.961   8.250
 7250POPC   C3A37793  38.423  22.957   7.950
 7250POPC   C4A37794  38.479  22.953   7.650
 7250POPC   C1B37795  38.540  23.191   8.550
 7250POPC   C2B37796  38.552  23.144   8.250
 7250POPC   C3B37797  38.542  23.216   7.950
 7250POPC   C4B37798  38.564  23.206   7.650
 7251POPC   NC337799  37.723  23.719   9.450
 7251POPC   PO437800  37.723  23.684   9.150
 7251POPC   GL137801  37.669  23.664   8.850
 7251POPC   GL237802  37.619  23.598   8.850
 7251POPC   C1A37803  37.645  23.712   8.550
 7251POPC   D2A37804  37.725  23.711   8.250
 7251POPC   C3A37805  37.653  23.700   7.950
 7251POPC   C4A37806  37.681  23.748   7.650
 7251POPC   C1B37807  37.584  23.490   8.550
 7251POPC   C2B37808  37.583  23.475   8.250
 7251POPC   C3B37809  37.673  23.455   7.950
 7251POPC   C4B37810  37.584  23.423   7.650
 7252POPC   NC337811  19.869  12.050   9.450
 7252POPC   PO437812  19.883  12.028   9.150
 7252POPC   GL137813  19.816  12.104   8.850
 7252POPC   GL237814  19.676  12.124   8.850
 7252POPC   C1A37815  19.810  12.083   8.550
 7252POPC   D2A37816  19.815  12.093   8.250
 7252POPC   C3A37817  19.844  12.083   7.950
 7252POPC   C4A37818  19.804  12.056   7.650
 7252POPC   C1B37819  19.611  12.131   8.550
 7252POPC   C2B37820  19.592  12.145   8.250
 7252POPC   C3B37821  19.541  12.129   7.950
 7252POPC   C4B37822  19.623  12.165   7.650
 7253POPC   NC337823  29.873  27.606   9.450
 7253POPC   PO437824  29.915  27.566   9.150
 7253POPC   GL137825  29.885  27.553   8.850
 7253POPC   GL237826  29.953  27.455   8.850
 7253POPC   C1A37827  29.943  27.588   8.550
 7253POPC   D2A37828  29.900  27.575   8.250
 7253POPC   C3A37829  29.908  27.637   7.950
 7253POPC   C4A37830  29.967  27.552   7.650
 7253POPC   C1B37831  30.070  27.384   8.550
 7253POPC   C2B37832  30.044  27.353   8.250
 7253POPC   C3B37833  29.984  27.394   7.950
 7253POPC   C4B37834  30.029  27.404   7.650
 7254POPC   NC337835  12.083  21.385   9.450
 7254POPC   PO437836  12.080  21.432   9.150
 7254POPC   GL137837  12.055  21.390   8.850
 7254POPC   GL237838  12.041  21.544   8.850
 7254POPC   C1A37839  12.070  21.346   8.550
 7254POPC   D2A37840  12.070  21.389   8.250
 7254POPC   C3A37841  12.100  21.337   7.950
 7254POPC   C4A37842  12.089  21.351   7.650
 7254POPC   C1B37843  11.940  21.629   8.550
 7254POPC   C2B37844  11.942  21.582   8.250
 7254POPC   C3B37845  11.928  21.595   7.950
 7254POPC   C4B37846  11.960  21.588   7.650
 7255POPC   NC337847  39.187  37.653   9.450
 7255POPC   PO437848  39.222  37.646   9.150
 7255POPC   GL137849  39.252  37.641   8.850
 7255POPC   GL237850  39.192  37.590   8.850
 7255POPC   C1A37851  39.276  37.715   8.550
 7255POPC   D2A37852  39.205  37.702   8.250
 7255POPC   C3A37853  39.260  37.636   7.950
 7255POPC   C4A37854  39.210  37.717   7.650
 7255POPC   C1B37855  39.075  37.476   8.550
 7255POPC   C2B37856  39.097  37.465   8.250
 7255POPC   C3B37857  39.119  37.476   7.950
 7255POPC   C4B37858  39.048  37.438   7.650
 7256POPC   NC337859  31.459  36.161   9.450
 7256POPC   PO437860  31.443  36.084   9.150
 7256POPC   GL137861  31.515  36.092   8.850
 7256POPC   GL237862  31.487  35.976   8.850
 7256POPC   C1A37863  31.502  36.145   8.550
 7256POPC   D2A37864  31.496  36.169   8.250
 7256POPC   C3A37865  31.505  36.090   7.950
 7256POPC   C4A37866  31.430  36.125   7.650
 7256POPC   C1B37867  31.404  35.845   8.550
 7256POPC   C2B37868  31.430  35.857   8.250
 7256POPC   C3B37869  31.369  35.929   7.950
 7256POPC   C4B37870  31.369  35.903   7.650
 7257POPC   NC337871   5.140  25.285   9.450
 7257POPC   PO437872   5.069  25.295   9.150
 7257POPC   GL137873   5.102  25.290   8.850
 7257POPC   GL237874   5.088  25.345   8.850
 7257POPC   C1A37875   5.043  25.315   8.550
 7257POPC   D2A37876   5.094  25.293   8.250
 7257POPC   C3A37877   5.121  25.281   7.950
 7257POPC   C4A37878   5.057  25.230   7.650
 7257POPC   C1B37879   5.062  25.564   8.550
 7257POPC   C2B37880   5.049  25.523   8.250
 7257POPC   C3B37881   5.126  25.563   7.950
 7257POPC   C4B37882   5.072  25.486   7.650
 7258POPC   NC337883  41.605   4.287   9.450
 7258POPC   PO437884  41.570   4.309   9.150
 7258POPC   GL137885  41.530   4.293   8.850
 7258POPC   GL237886  41.633   4.196   8.850
 7258POPC   C1A37887  41.607   4.364   8.550
 7258POPC   D2A37888  41.561   4.332   8.250
 7258POPC   C3A37889  41.559   4.350   7.950
 7258POPC   C4A37890  41.543   4.310   7.650
 7258POPC   C1B37891  41.651   4.097   8.550
 7258POPC   C2B37892  41.682   4.145   8.250
 7258POPC   C3B37893  41.642   4.133   7.950
 7258POPC   C4B37894  41.666   4.098   7.650
 7259POPC   NC337895  40.749  35.351   9.450
 7259POPC   PO437896  40.771  35.327   9.150
 7259POPC   GL137897  40.826  35.342   8.850
 7259POPC   GL237898  40.626  35.341   8.850
 7259POPC   C1A37899  40.755  35.369   8.550
 7259POPC   D2A37900  40.743  35.306   8.250
 7259POPC   C3A37901  40.813  35.375   7.950
 7259POPC   C4A37902  40.833  35.366   7.650
 7259POPC   C1B37903  40.552  35.295   8.550
 7259POPC   C2B37904  40.531  35.295   8.250
 7259POPC   C3B37905  40.517  35.304   7.950
 7259POPC   C4B37906  40.526  35.324   7.650
 7260POPC   NC337907  12.058  37.693   9.450
 7260POPC   PO437908  12.088  37.713   9.150
 7260POPC   GL137909  12.097  37.703   8.850
 7260POPC   GL237910  12.160  37.737   8.850
 7260POPC   C1A37911  12.071  37.676   8.550
 7260POPC   D2A37912  12.057  37.665   8.250
 7260POPC   C3A37913  12.027  37.651   7.950
 7260POPC   C4A37914  12.059  37.649   7.650
 7260POPC   C1B37915  12.254  37.867   8.550
 7260POPC   C2B37916  12.217  37.854   8.250
 7260POPC   C3B37917  12.207  37.890   7.950
 7260POPC   C4B37918  12.239  37.851   7.650
 7261POPC   NC337919   1.238   0.485   9.450
 7261POPC   PO437920   1.264   0.398   9.150
 7261POPC   GL137921   1.207   0.446   8.850
 7261POPC   GL237922   1.058   0.427   8.850
 7261POPC   C1A37923   1.173   0.394   8.550
 7261POPC   D2A37924   1.235   0.445   8.250
 7261POPC   C3A37925   1.185   0.444   7.950
 7261POPC   C4A37926   1.257   0.452   7.650
 7261POPC   C1B37927   0.924   0.513   8.550
 7261POPC   C2B37928   0.978   0.455   8.250
 7261POPC   C3B37929   0.930   0.524   7.950
 7261POPC   C4B37930   1.009   0.455   7.650
 7262POPC   NC337931   2.719  13.666   9.450
 7262POPC   PO437932   2.753  13.610   9.150
 7262POPC   GL137933   2.728  13.629   8.850
 7262POPC   GL237934   2.877  13.543   8.850
 7262POPC   C1A37935   2.754  13.641   8.550
 7262POPC   D2A37936   2.722  13.643   8.250
 7262POPC   C3A37937   2.740  13.625   7.950
 7262POPC   C4A37938   2.763  13.581   7.650
 7262POPC   C1B37939   2.943  13.494   8.550
 7262POPC   C2B37940   2.987  13.488   8.250
 7262POPC   C3B37941   2.938  13.477   7.950
 7262POPC   C4B37942   2.952  13.517   7.650
 7263POPC   NC337943  43.911   0.411   9.450
 7263POPC   PO437944  43.922   0.485   9.150
 7263POPC   GL137945  43.930   0.454   8.850
 7263POPC   GL237946  43.783   0.521   8.850
 7263POPC   C1A37947  43.898   0.442   8.550
 7263POPC   D2A37948  43.864   0.447   8.250
 7263POPC   C3A37949  43.883   0.435   7.950
 7263POPC   C4A37950  43.903   0.413   7.650
 7263POPC   C1B37951  43.699   0.507   8.550
 7263POPC   C2B37952  43.671   0.542   8.250
 7263POPC   C3B37953  43.611   0.514   7.950
 7263POPC   C4B37954  43.652   0.548   7.650
 7264POPC   NC337955  11.331  39.996   9.450
 7264POPC   PO437956  11.293  39.986   9.150
 7264POPC   GL137957  11.283  40.048   8.850
 7264POPC   GL237958  11.420  40.009   8.850
 7264POPC   C1A37959  11.263  40.012   8.550
 7264POPC   D2A37960  11.254  40.050   8.250
 7264POPC   C3A37961  11.335  40.040   7.950
 7264POPC   C4A37962  11.253  40.011   7.650
 7264POPC   C1B37963  11.556  40.075   8.550
 7264POPC   C2B37964  11.512  40.035   8.250
 7264POPC   C3B37965  11.571  40.060   7.950
 7264POPC   C4B37966  11.508  40.069   7.650
 7265POPC   NC337967   3.545  35.366   9.450
 7265POPC   PO437968   3.541  35.389   9.150
 7265POPC   GL137969   3.581  35.322   8.850
 7265POPC   GL237970   3.658  35.293   8.850
 7265POPC   C1A37971   3.500  35.336   8.550
 7265POPC   D2A37972   3.501  35.303   8.250
 7265POPC   C3A37973   3.492  35.308   7.950
 7265POPC   C4A37974   3.565  35.338   7.650
 7265POPC   C1B37975   3.761  35.254   8.550
 7265POPC   C2B37976   3.792  35.274   8.250
 7265POPC   C3B37977   3.789  35.294   7.950
 7265POPC   C4B37978   3.801  35.320   7.650
 7266POPC   NC337979  42.319  11.255   9.450
 7266POPC   PO437980  42.370  11.259   9.150
 7266POPC   GL137981  42.341  11.309   8.850
 7266POPC   GL237982  42.205  11.238   8.850
 7266POPC   C1A37983  42.322  11.282   8.550
 7266POPC   D2A37984  42.287  11.251   8.250
 7266POPC   C3A37985  42.318  11.328   7.950
 7266POPC   C4A37986  42.313  11.307   7.650
 7266POPC   C1B37987  42.058  11.255   8.550
 7266POPC   C2B37988  42.065  11.231   8.250
 7266POPC   C3B37989  42.117  11.266   7.950
 7266POPC   C4B37990  42.117  11.201   7.650
 7267POPC   NC337991   9.712  43.122   9.450
 7267POPC   PO437992   9.725  43.146   9.150
 7267POPC   GL137993   9.750  43.123   8.850
 7267POPC   GL237994   9.739  43.030   8.850
 7267POPC   C1A37995   9.724  43.095   8.550
 7267POPC   D2A37996   9.715  43.133   8.250
 7267POPC   C3A37997   9.779  43.132   7.950
 7267POPC   C4A37998   9.721  43.150   7.650
 7267POPC   C1B37999   9.817  42.819   8.550
 7267POPC   C2B38000   9.817  42.832   8.250
 7267POPC   C3B38001   9.820  42.836   7.950
 7267POPC   C4B38002   9.798  42.824   7.650
 7268POPC   NC338003  41.527  14.449   9.450
 7268POPC   PO438004  41.572  14.365   9.150
 7268POPC   GL138005  41.552  14.443   8.850
 7268POPC   GL238006  41.633  14.326   8.850
 7268POPC   C1A38007  41.541  14.413   8.550
 7268POPC   D2A38008  41.552  14.392   8.250
 7268POPC   C3A38009  41.520  14.404   7.950
 7268POPC   C4A38010  41.538  14.394   7.650
 7268POPC   C1B38011  41.803  14.282   8.550
 7268POPC   C2B38012  41.790  14.234   8.250
 7268POPC   C3B38013  41.789  14.291   7.950
 7268POPC   C4B38014  41.778  14.247   7.650
 7269POPC   NC338015  40.823  43.901   9.450
 7269POPC   PO438016  40.803  43.870   9.150
 7269POPC   GL138017  40.764  43.919   8.850
 7269POPC   GL238018  40.853  43.960   8.850
 7269POPC   C1A38019  40.813  43.867   8.550
 7269POPC   D2A38020  40.800  43.856   8.250
 7269POPC   C3A38021  40.775  43.915   7.950
 7269POPC   C4A38022  40.807  43.884   7.650
 7269POPC   C1B38023  40.953  44.055   8.550
 7269POPC   C2B38024  40.923  44.112   8.250
 7269POPC   C3B38025  40.909  44.075   7.950
 7269POPC   C4B38026  40.897  44.105   7.650
 7270POPC   NC338027  27.550  30.686   9.450
 7270POPC   PO438028  27.615  30.656   9.150
 7270POPC   GL138029  27.577  30.666   8.850
 7270POPC   GL238030  27.678  30.698   8.850
 7270POPC   C1A38031  27.547  30.647   8.550
 7270POPC   D2A38032  27.556  30.648   8.250
 7270POPC   C3A38033  27.614  30.728   7.950
 7270POPC   C4A38034  27.606  30.658   7.650
 7270POPC   C1B38035  27.858  30.718   8.550
 7270POPC   C2B38036  27.839  30.776   8.250
 7270POPC   C3B38037  27.792  30.746   7.950
 7270POPC   C4B38038  27.805  30.745   7.650
 7271POPC   NC338039   6.652  43.902   9.450
 7271POPC   PO438040   6.615  43.910   9.150
 7271POPC   GL138041   6.635  43.847   8.850
 7271POPC   GL238042   6.738  43.989   8.850
 7271POPC   C1A38043   6.686  43.901   8.550
 7271POPC   D2A38044   6.629  43.851   8.250
 7271POPC   C3A38045   6.666  43.907   7.950
 7271POPC   C4A38046   6.681  43.858   7.650
 7271POPC   C1B38047   6.825  44.029   8.550
 7271POPC   C2B38048   6.812  43.991   8.250
 7271POPC   C3B38049   6.883  44.018   7.950
 7271POPC   C4B38050   6.883  44.071   7.650
 7272POPC   NC338051  32.976  13.584   9.450
 7272POPC   PO438052  33.000  13.665   9.150
 7272POPC   GL138053  32.994  13.656   8.850
 7272POPC   GL238054  32.952  13.758   8.850
 7272POPC   C1A38055  32.977  13.648   8.550
 7272POPC   D2A38056  32.982  13.654   8.250
 7272POPC   C3A38057  33.020  13.659   7.950
 7272POPC   C4A38058  32.976  13.651   7.650
 7272POPC   C1B38059  32.932  13.875   8.550
 7272POPC   C2B38060  32.903  13.871   8.250
 7272POPC   C3B38061  32.905  13.858   7.950
 7272POPC   C4B38062  32.933  13.854   7.650
 7273POPC   NC338063  32.256   1.960   9.450
 7273POPC   PO438064  32.252   1.981   9.150
 7273POPC   GL138065  32.263   1.967   8.850
 7273POPC   GL238066  32.159   2.020   8.850
 7273POPC   C1A38067  32.199   1.990   8.550
 7273POPC   D2A38068  32.276   1.973   8.250
 7273POPC   C3A38069  32.238   1.974   7.950
 7273POPC   C4A38070  32.246   2.026   7.650
 7273POPC   C1B38071  32.017   2.149   8.550
 7273POPC   C2B38072  32.039   2.080   8.250
 7273POPC   C3B38073  32.057   2.097   7.950
 7273POPC   C4B38074  32.025   2.119   7.650
 7274POPC   NC338075  32.995  18.318   9.450
 7274POPC   PO438076  33.029  18.315   9.150
 7274POPC   GL138077  33.069  18.279   8.850
 7274POPC   GL238078  33.161  18.289   8.850
 7274POPC   C1A38079  33.007  18.251   8.550
 7274POPC   D2A38080  32.981  18.248   8.250
 7274POPC   C3A38081  33.028  18.244   7.950
 7274POPC   C4A38082  33.014  18.280   7.650
 7274POPC   C1B38083  33.256  18.244   8.550
 7274POPC   C2B38084  33.293  18.268   8.250
 7274POPC   C3B38085  33.265  18.251   7.950
 7274POPC   C4B38086  33.250  18.220   7.650
 7275POPC   NC338087   1.216  21.354   9.450
 7275POPC   PO438088   1.194  21.390   9.150
 7275POPC   GL138089   1.202  21.344   8.850
 7275POPC   GL238090   1.325  21.462   8.850
 7275POPC   C1A38091   1.174  21.353   8.550
 7275POPC   D2A38092   1.217  21.387   8.250
 7275POPC   C3A38093   1.233  21.399   7.950
 7275POPC   C4A38094   1.255  21.405   7.650
 7275POPC   C1B38095   1.391  21.475   8.550
 7275POPC   C2B38096   1.417  21.529   8.250
 7275POPC   C3B38097   1.420  21.518   7.950
 7275POPC   C4B38098   1.473  21.516   7.650
 7276POPC   NC338099  35.328  33.820   9.450
 7276POPC   PO438100  35.321  33.776   9.150
 7276POPC   GL138101  35.369  33.848   8.850
 7276POPC   GL238102  35.456  33.681   8.850
 7276POPC   C1A38103  35.305  33.812   8.550
 7276POPC   D2A38104  35.371  33.824   8.250
 7276POPC   C3A38105  35.363  33.792   7.950
 7276POPC   C4A38106  35.330  33.760   7.650
 7276POPC   C1B38107  35.490  33.602   8.550
 7276POPC   C2B38108  35.584  33.645   8.250
 7276POPC   C3B38109  35.492  33.622   7.950
 7276POPC   C4B38110  35.580  33.634   7.650
 7277POPC   NC338111   7.409   8.197   9.450
 7277POPC   PO438112   7.451   8.182   9.150
 7277POPC   GL138113   7.448   8.218   8.850
 7277POPC   GL238114   7.259   8.161   8.850
 7277POPC   C1A38115   7.372   8.197   8.550
 7277POPC   D2A38116   7.421   8.176   8.250
 7277POPC   C3A38117   7.374   8.208   7.950
 7277POPC   C4A38118   7.427   8.154   7.650
 7277POPC   C1B38119   7.167   8.191   8.550
 7277POPC   C2B38120   7.187   8.141   8.250
 7277POPC   C3B38121   7.125   8.165   7.950
 7277POPC   C4B38122   7.221   8.159   7.650
 7278POPC   NC338123  41.599  42.338   9.450
 7278POPC   PO438124  41.550  42.298   9.150
 7278POPC   GL138125  41.576  42.337   8.850
 7278POPC   GL238126  41.705  42.422   8.850
 7278POPC   C1A38127  41.598  42.297   8.550
 7278POPC   D2A38128  41.598  42.333   8.250
 7278POPC   C3A38129  41.516  42.318   7.950
 7278POPC   C4A38130  41.593  42.320   7.650
 7278POPC   C1B38131  41.790  42.402   8.550
 7278POPC   C2B38132  41.801  42.474   8.250
 7278POPC   C3B38133  41.803  42.429   7.950
 7278POPC   C4B38134  41.739  42.415   7.650
 7279POPC   NC338135  24.517  35.329   9.450
 7279POPC   PO438136  24.500  35.324   9.150
 7279POPC   GL138137  24.494  35.312   8.850
 7279POPC   GL238138  24.441  35.193   8.850
 7279POPC   C1A38139  24.478  35.334   8.550
 7279POPC   D2A38140  24.528  35.354   8.250
 7279POPC   C3A38141  24.489  35.342   7.950
 7279POPC   C4A38142  24.478  35.369   7.650
 7279POPC   C1B38143  24.428  35.081   8.550
 7279POPC   C2B38144  24.384  35.091   8.250
 7279POPC   C3B38145  24.462  35.087   7.950
 7279POPC   C4B38146  24.410  35.144   7.650
 7280POPC   NC338147  25.238  40.735   9.450
 7280POPC   PO438148  25.230  40.822   9.150
 7280POPC   GL138149  25.250  40.788   8.850
 7280POPC   GL238150  25.189  40.759   8.850
 7280POPC   C1A38151  25.246  40.825   8.550
 7280POPC   D2A38152  25.227  40.741   8.250
 7280POPC   C3A38153  25.278  40.758   7.950
 7280POPC   C4A38154  25.260  40.750   7.650
 7280POPC   C1B38155  24.995  40.663   8.550
 7280POPC   C2B38156  25.062  40.748   8.250
 7280POPC   C3B38157  25.075  40.735   7.950
 7280POPC   C4B38158  24.979  40.715   7.650
 7281POPC   NC338159   9.017   1.946   9.450
 7281POPC   PO438160   9.006   1.959   9.150
 7281POPC   GL138161   8.974   2.013   8.850
 7281POPC   GL238162   9.049   1.928   8.850
 7281POPC   C1A38163   8.926   1.984   8.550
 7281POPC   D2A38164   9.021   1.959   8.250
 7281POPC   C3A38165   8.991   1.954   7.950
 7281POPC   C4A38166   8.930   1.954   7.650
 7281POPC   C1B38167   9.218   1.987   8.550
 7281POPC   C2B38168   9.197   1.984   8.250
 7281POPC   C3B38169   9.219   1.978   7.950
 7281POPC   C4B38170   9.249   1.940   7.650
 7282POPC   NC338171  44.649  43.931   9.450
 7282POPC   PO438172  44.622  43.846   9.150
 7282POPC   GL138173  44.669  43.910   8.850
 7282POPC   GL238174  44.716  43.809   8.850
 7282POPC   C1A38175  44.624  43.852   8.550
 7282POPC   D2A38176  44.677  43.926   8.250
 7282POPC   C3A38177  44.707  43.893   7.950
 7282POPC   C4A38178  44.695  43.912   7.650
 7282POPC   C1B38179  44.708  43.635   8.550
 7282POPC   C2B38180  44.672  43.604   8.250
 7282POPC   C3B38181  44.697  43.657   7.950
 7282POPC   C4B38182  44.699  43.658   7.650
 7283POPC   NC338183  12.084   7.427   9.450
 7283POPC   PO438184  12.126   7.411   9.150
 7283POPC   GL138185  12.117   7.409   8.850
 7283POPC   GL238186  12.072   7.255   8.850
 7283POPC   C1A38187  12.074   7.462   8.550
 7283POPC   D2A38188  12.094   7.467   8.250
 7283POPC   C3A38189  12.095   7.372   7.950
 7283POPC   C4A38190  12.123   7.416   7.650
 7283POPC   C1B38191  12.112   7.188   8.550
 7283POPC   C2B38192  12.063   7.165   8.250
 7283POPC   C3B38193  12.039   7.209   7.950
 7283POPC   C4B38194  12.064   7.137   7.650
 7284POPC   NC338195  42.368  28.386   9.450
 7284POPC   PO438196  42.343  28.373   9.150
 7284POPC   GL138197  42.324  28.333   8.850
 7284POPC   GL238198  42.303  28.288   8.850
 7284POPC   C1A38199  42.343  28.358   8.550
 7284POPC   D2A38200  42.362  28.341   8.250
 7284POPC   C3A38201  42.382  28.332   7.950
 7284POPC   C4A38202  42.330  28.394   7.650
 7284POPC   C1B38203  42.199  28.134   8.550
 7284POPC   C2B38204  42.149  28.123   8.250
 7284POPC   C3B38205  42.221  28.175   7.950
 7284POPC   C4B38206  42.197  28.192   7.650
 7285POPC   NC338207  18.321  36.947   9.450
 7285POPC   PO438208  18.278  36.907   9.150
 7285POPC   GL138209  18.274  36.901   8.850
 7285POPC   GL238210  18.204  36.785   8.850
 7285POPC   C1A38211  18.243  36.916   8.550
 7285POPC   D2A38212  18.332  36.894   8.250
 7285POPC   C3A38213  18.243  36.931   7.950
 7285POPC   C4A38214  18.272  36.929   7.650
 7285POPC   C1B38215  18.200  36.645   8.550
 7285POPC   C2B38216  18.173  36.678   8.250
 7285POPC   C3B38217  18.179  36.650   7.950
 7285POPC   C4B38218  18.156  36.656   7.650
 7286POPC   NC338219  22.959  11.320   9.450
 7286POPC   PO438220  22.978  11.332   9.150
 7286POPC   GL138221  22.892  11.261   8.850
 7286POPC   GL238222  22.918  11.177   8.850
 7286POPC   C1A38223  22.910  11.312   8.550
 7286POPC   D2A38224  22.985  11.294   8.250
 7286POPC   C3A38225  22.983  11.276   7.950
 7286POPC   C4A38226  22.905  11.321   7.650
 7286POPC   C1B38227  22.872  11.042   8.550
 7286POPC   C2B38228  22.865  11.066   8.250
 7286POPC   C3B38229  22.882  11.003   7.950
 7286POPC   C4B38230  22.870  11.071   7.650
 7287POPC   NC338231   4.315  27.634   9.450
 7287POPC   PO438232   4.311  27.631   9.150
 7287POPC   GL138233   4.357  27.546   8.850
 7287POPC   GL238234   4.403  27.747   8.850
 7287POPC   C1A38235   4.325  27.564   8.550
 7287POPC   D2A38236   4.282  27.612   8.250
 7287POPC   C3A38237   4.349  27.638   7.950
 7287POPC   C4A38238   4.314  27.602   7.650
 7287POPC   C1B38239   4.386  27.850   8.550
 7287POPC   C2B38240   4.453  27.786   8.250
 7287POPC   C3B38241   4.410  27.875   7.950
 7287POPC   C4B38242   4.421  27.807   7.650
 7288POPC   NC338243   5.904  35.332   9.450
 7288POPC   PO438244   5.858  35.346   9.150
 7288POPC   GL138245   5.904  35.340   8.850
 7288POPC   GL238246   5.759  35.414   8.850
 7288POPC   C1A38247   5.870  35.320   8.550
 7288POPC   D2A38248   5.824  35.399   8.250
 7288POPC   C3A38249   5.908  35.341   7.950
 7288POPC   C4A38250   5.858  35.336   7.650
 7288POPC   C1B38251   5.655  35.475   8.550
 7288POPC   C2B38252   5.680  35.533   8.250
 7288POPC   C3B38253   5.628  35.477   7.950
 7288POPC   C4B38254   5.679  35.468   7.650
 7289POPC   NC338255  42.328  39.266   9.450
 7289POPC   PO438256  42.374  39.196   9.150
 7289POPC   GL138257  42.330  39.230   8.850
 7289POPC   GL238258  42.421  39.073   8.850
 7289POPC   C1A38259  42.298  39.248   8.550
 7289POPC   D2A38260  42.335  39.233   8.250
 7289POPC   C3A38261  42.297  39.277   7.950
 7289POPC   C4A38262  42.298  39.216   7.650
 7289POPC   C1B38263  42.408  38.974   8.550
 7289POPC   C2B38264  42.448  39.029   8.250
 7289POPC   C3B38265  42.435  38.956   7.950
 7289POPC   C4B38266  42.418  38.998   7.650
 7290POPC   NC338267  43.136  29.877   9.450
 7290POPC   PO438268  43.117  29.930   9.150
 7290POPC   GL138269  43.111  29.940   8.850
 7290POPC   GL238270  43.056  29.841   8.850
 7290POPC   C1A38271  43.100  29.876   8.550
 7290POPC   D2A38272  43.095  29.942   8.250
 7290POPC   C3A38273  43.149  29.950   7.950
 7290POPC   C4A38274  43.080  29.962   7.650
 7290POPC   C1B38275  43.091  29.707   8.550
 7290POPC   C2B38276  43.057  29.632   8.250
 7290POPC   C3B38277  43.030  29.725   7.950
 7290POPC   C4B38278  43.005  29.687   7.650
 7291POPC   NC338279   7.411  13.622   9.450
 7291POPC   PO438280   7.419  13.657   9.150
 7291POPC   GL138281   7.405  13.671   8.850
 7291POPC   GL238282   7.431  13.471   8.850
 7291POPC   C1A38283   7.400  13.583   8.550
 7291POPC   D2A38284   7.470  13.585   8.250
 7291POPC   C3A38285   7.375  13.607   7.950
 7291POPC   C4A38286   7.371  13.658   7.650
 7291POPC   C1B38287   7.320  13.398   8.550
 7291POPC   C2B38288   7.366  13.365   8.250
 7291POPC   C3B38289   7.413  13.381   7.950
 7291POPC   C4B38290   7.398  13.354   7.650
 7292POPC   NC338291   3.512  32.261   9.450
 7292POPC   PO438292   3.536  32.233   9.150
 7292POPC   GL138293   3.577  32.288   8.850
 7292POPC   GL238294   3.496  32.345   8.850
 7292POPC   C1A38295   3.499  32.223   8.550
 7292POPC   D2A38296   3.518  32.211   8.250
 7292POPC   C3A38297   3.511  32.290   7.950
 7292POPC   C4A38298   3.579  32.223   7.650
 7292POPC   C1B38299   3.437  32.498   8.550
 7292POPC   C2B38300   3.466  32.417   8.250
 7292POPC   C3B38301   3.455  32.446   7.950
 7292POPC   C4B38302   3.453  32.439   7.650
 7293POPC   NC338303  41.577  31.425   9.450
 7293POPC   PO438304  41.531  31.464   9.150
 7293POPC   GL138305  41.585  31.469   8.850
 7293POPC   GL238306  41.689  31.571   8.850
 7293POPC   C1A38307  41.604  31.502   8.550
 7293POPC   D2A38308  41.591  31.472   8.250
 7293POPC   C3A38309  41.573  31.453   7.950
 7293POPC   C4A38310  41.549  31.517   7.650
 7293POPC   C1B38311  41.770  31.554   8.550
 7293POPC   C2B38312  41.810  31.581   8.250
 7293POPC   C3B38313  41.749  31.525   7.950
 7293POPC   C4B38314  41.755  31.590   7.650
 7294POPC   NC338315  21.396  40.016   9.450
 7294POPC   PO438316  21.389  40.015   9.150
 7294POPC   GL138317  21.373  39.967   8.850
 7294POPC   GL238318  21.483  39.923   8.850
 7294POPC   C1A38319  21.417  40.024   8.550
 7294POPC   D2A38320  21.435  40.017   8.250
 7294POPC   C3A38321  21.413  39.981   7.950
 7294POPC   C4A38322  21.360  39.968   7.650
 7294POPC   C1B38323  21.612  39.876   8.550
 7294POPC   C2B38324  21.570  39.838   8.250
 7294POPC   C3B38325  21.621  39.871   7.950
 7294POPC   C4B38326  21.543  39.811   7.650
 7295POPC   NC338327  36.912  11.333   9.450
 7295POPC   PO438328  36.938  11.277   9.150
 7295POPC   GL138329  36.904  11.331   8.850
 7295POPC   GL238330  36.990  11.219   8.850
 7295POPC   C1A38331  36.921  11.336   8.550
 7295POPC   D2A38332  36.894  11.348   8.250
 7295POPC   C3A38333  36.888  11.274   7.950
 7295POPC   C4A38334  36.878  11.316   7.650
 7295POPC   C1B38335  37.103  11.119   8.550
 7295POPC   C2B38336  37.145  11.127   8.250
 7295POPC   C3B38337  37.110  11.171   7.950
 7295POPC   C4B38338  37.105  11.196   7.650
 7296POPC   NC338339  25.313   5.877   9.450
 7296POPC   PO438340  25.253   5.892   9.150
 7296POPC   GL138341  25.288   5.846   8.850
 7296POPC   GL238342  25.134   5.810   8.850
 7296POPC   C1A38343  25.261   5.838   8.550
 7296POPC   D2A38344  25.288   5.855   8.250
 7296POPC   C3A38345  25.269   5.859   7.950
 7296POPC   C4A38346  25.259   5.884   7.650
 7296POPC   C1B38347  25.038   5.736   8.550
 7296POPC   C2B38348  25.020   5.720   8.250
 7296POPC   C3B38349  25.058   5.685   7.950
 7296POPC   C4B38350  25.022   5.743   7.650
 7297POPC   NC338351  15.171  11.284   9.450
 7297POPC   PO438352  15.206  11.311   9.150
 7297POPC   GL138353  15.206  11.277   8.850
 7297POPC   GL238354  15.118  11.418   8.850
 7297POPC   C1A38355  15.200  11.282   8.550
 7297POPC   D2A38356  15.187  11.294   8.250
 7297POPC   C3A38357  15.221  11.347   7.950
 7297POPC   C4A38358  15.161  11.277   7.650
 7297POPC   C1B38359  15.135  11.510   8.550
 7297POPC   C2B38360  15.137  11.565   8.250
 7297POPC   C3B38361  15.083  11.582   7.950
 7297POPC   C4B38362  15.070  11.527   7.650
 7298POPC   NC338363  35.319  31.487   9.450
 7298POPC   PO438364  35.312  31.465   9.150
 7298POPC   GL138365  35.314  31.473   8.850
 7298POPC   GL238366  35.180  31.493   8.850
 7298POPC   C1A38367  35.395  31.453   8.550
 7298POPC   D2A38368  35.334  31.509   8.250
 7298POPC   C3A38369  35.380  31.471   7.950
 7298POPC   C4A38370  35.384  31.498   7.650
 7298POPC   C1B38371  35.128  31.451   8.550
 7298POPC   C2B38372  35.094  31.515   8.250
 7298POPC   C3B38373  35.054  31.486   7.950
 7298POPC   C4B38374  35.088  31.493   7.650
 7299POPC   NC338375  27.552   1.951   9.450
 7299POPC   PO438376  27.599   1.987   9.150
 7299POPC   GL138377  27.569   1.965   8.850
 7299POPC   GL238378  27.754   2.048   8.850
 7299POPC   C1A38379  27.604   2.037   8.550
 7299POPC   D2A38380  27.586   1.976   8.250
 7299POPC   C3A38381  27.633   1.947   7.950
 7299POPC   C4A38382  27.628   1.944   7.650
 7299POPC   C1B38383  27.855   2.102   8.550
 7299POPC   C2B38384  27.789   2.059   8.250
 7299POPC   C3B38385  27.867   2.086   7.950
 7299POPC   C4B38386  27.854   2.078   7.650
 7300POPC   NC338387  38.422  12.819   9.450
 7300POPC   PO438388  38.410  12.822   9.150
 7300POPC   GL138389  38.475  12.832   8.850
 7300POPC   GL238390  38.549  12.902   8.850
 7300POPC   C1A38391  38.452  12.820   8.550
 7300POPC   D2A38392  38.504  12.809   8.250
 7300POPC   C3A38393  38.420  12.893   7.950
 7300POPC   C4A38394  38.418  12.882   7.650
 7300POPC   C1B38395  38.657  12.926   8.550
 7300POPC   C2B38396  38.682  12.917   8.250
 7300POPC   C3B38397  38.657  12.921   7.950
 7300POPC   C4B38398  38.686  12.945   7.650
 7301POPC   NC338399  12.847   8.976   9.450
 7301POPC   PO438400  12.820   9.000   9.150
 7301POPC   GL138401  12.820   9.020   8.850
 7301POPC   GL238402  12.960   9.072   8.850
 7301POPC   C1A38403  12.824   9.007   8.550
 7301POPC   D2A38404  12.822   9.000   8.250
 7301POPC   C3A38405  12.821   8.953   7.950
 7301POPC   C4A38406  12.898   8.933   7.650
 7301POPC   C1B38407  13.022   9.155   8.550
 7301POPC   C2B38408  13.101   9.074   8.250
 7301POPC   C3B38409  13.044   9.062   7.950
 7301POPC   C4B38410  13.052   9.145   7.650
 7302POPC   NC338411  23.700  19.031   9.450
 7302POPC   PO438412  23.749  19.068   9.150
 7302POPC   GL138413  23.667  19.070   8.850
 7302POPC   GL238414  23.555  19.034   8.850
 7302POPC   C1A38415  23.715  19.060   8.550
 7302POPC   D2A38416  23.692  19.017   8.250
 7302POPC   C3A38417  23.723  19.095   7.950
 7302POPC   C4A38418  23.664  19.020   7.650
 7302POPC   C1B38419  23.454  18.956   8.550
 7302POPC   C2B38420  23.452  18.957   8.250
 7302POPC   C3B38421  23.446  19.025   7.950
 7302POPC   C4B38422  23.506  19.018   7.650
 7303POPC   NC338423   5.917   9.727   9.450
 7303POPC   PO438424   5.897   9.768   9.150
 7303POPC   GL138425   5.847   9.753   8.850
 7303POPC   GL238426   5.915   9.871   8.850
 7303POPC   C1A38427   5.915   9.752   8.550
 7303POPC   D2A38428   5.857   9.789   8.250
 7303POPC   C3A38429   5.871   9.723   7.950
 7303POPC   C4A38430   5.868   9.725   7.650
 7303POPC   C1B38431   5.950   9.955   8.550
 7303POPC   C2B38432   5.952   9.970   8.250
 7303POPC   C3B38433   5.963   9.931   7.950
 7303POPC   C4B38434   6.012  10.010   7.650
 7304POPC   NC338435  40.775  30.705   9.450
 7304POPC   PO438436  40.742  30.714   9.150
 7304POPC   GL138437  40.818  30.708   8.850
 7304POPC   GL238438  40.856  30.781   8.850
 7304POPC   C1A38439  40.831  30.672   8.550
 7304POPC   D2A38440  40.753  30.693   8.250
 7304POPC   C3A38441  40.832  30.705   7.950
 7304POPC   C4A38442  40.813  30.718   7.650
 7304POPC   C1B38443  40.910  30.962   8.550
 7304POPC   C2B38444  40.893  30.949   8.250
 7304POPC   C3B38445  40.877  30.885   7.950
 7304POPC   C4B38446  40.917  30.944   7.650
 7305POPC   NC338447  26.083   5.844   9.450
 7305POPC   PO438448  26.052   5.901   9.150
 7305POPC   GL138449  26.007   5.842   8.850
 7305POPC   GL238450  25.950   5.981   8.850
 7305POPC   C1A38451  26.031   5.862   8.550
 7305POPC   D2A38452  26.060   5.823   8.250
 7305POPC   C3A38453  25.993   5.918   7.950
 7305POPC   C4A38454  26.008   5.861   7.650
 7305POPC   C1B38455  25.931   6.045   8.550
 7305POPC   C2B38456  25.879   6.036   8.250
 7305POPC   C3B38457  25.856   6.074   7.950
 7305POPC   C4B38458  25.904   6.077   7.650
 7306POPC   NC338459  43.875  39.188   9.450
 7306POPC   PO438460  43.936  39.189   9.150
 7306POPC   GL138461  43.919  39.266   8.850
 7306POPC   GL238462  44.037  39.153   8.850
 7306POPC   C1A38463  43.836  39.248   8.550
 7306POPC   D2A38464  43.905  39.260   8.250
 7306POPC   C3A38465  43.847  39.200   7.950
 7306POPC   C4A38466  43.860  39.205   7.650
 7306POPC   C1B38467  44.113  39.112   8.550
 7306POPC   C2B38468  44.105  39.136   8.250
 7306POPC   C3B38469  44.152  39.094   7.950
 7306POPC   C4B38470  44.144  39.123   7.650
 7307POPC   NC338471  22.119   8.988   9.450
 7307POPC   PO438472  22.196   8.963   9.150
 7307POPC   GL138473  22.190   8.992   8.850
 7307POPC   GL238474  22.082   8.958   8.850
 7307POPC   C1A38475  22.124   8.961   8.550
 7307POPC   D2A38476  22.196   9.007   8.250
 7307POPC   C3A38477  22.157   8.984   7.950
 7307POPC   C4A38478  22.180   8.969   7.650
 7307POPC   C1B38479  21.965   9.069   8.550
 7307POPC   C2B38480  21.935   9.069   8.250
 7307POPC   C3B38481  21.869   9.075   7.950
 7307POPC   C4B38482  21.903   9.020   7.650
 7308POPC   NC338483  34.573  22.179   9.450
 7308POPC   PO438484  34.576  22.211   9.150
 7308POPC   GL138485  34.595  22.138   8.850
 7308POPC   GL238486  34.649  22.221   8.850
 7308POPC   C1A38487  34.558  22.184   8.550
 7308POPC   D2A38488  34.603  22.207   8.250
 7308POPC   C3A38489  34.613  22.163   7.950
 7308POPC   C4A38490  34.578  22.188   7.650
 7308POPC   C1B38491  34.760  22.306   8.550
 7308POPC   C2B38492  34.803  22.275   8.250
 7308POPC   C3B38493  34.798  22.289   7.950
 7308POPC   C4B38494  34.753  22.265   7.650
 7309POPC   NC338495  37.689  41.573   9.450
 7309POPC   PO438496  37.649  41.604   9.150
 7309POPC   GL138497  37.688  41.605   8.850
 7309POPC   GL238498  37.575  41.578   8.850
 7309POPC   C1A38499  37.669  41.583   8.550
 7309POPC   D2A38500  37.722  41.523   8.250
 7309POPC   C3A38501  37.685  41.537   7.950
 7309POPC   C4A38502  37.704  41.558   7.650
 7309POPC   C1B38503  37.429  41.652   8.550
 7309POPC   C2B38504  37.454  41.634   8.250
 7309POPC   C3B38505  37.488  41.667   7.950
 7309POPC   C4B38506  37.418  41.663   7.650
 7310POPC   NC338507  27.620  22.978   9.450
 7310POPC   PO438508  27.560  22.947   9.150
 7310POPC   GL138509  27.612  22.921   8.850
 7310POPC   GL238510  27.547  22.780   8.850
 7310POPC   C1A38511  27.642  22.944   8.550
 7310POPC   D2A38512  27.576  22.900   8.250
 7310POPC   C3A38513  27.607  22.924   7.950
 7310POPC   C4A38514  27.584  22.931   7.650
 7310POPC   C1B38515  27.453  22.733   8.550
 7310POPC   C2B38516  27.456  22.733   8.250
 7310POPC   C3B38517  27.507  22.744   7.950
 7310POPC   C4B38518  27.550  22.735   7.650
 7311POPC   NC338519  22.928  39.971   9.450
 7311POPC   PO438520  22.892  39.994   9.150
 7311POPC   GL138521  22.982  40.026   8.850
 7311POPC   GL238522  22.998  40.070   8.850
 7311POPC   C1A38523  22.944  40.014   8.550
 7311POPC   D2A38524  22.974  39.981   8.250
 7311POPC   C3A38525  22.927  40.000   7.950
 7311POPC   C4A38526  22.920  39.979   7.650
 7311POPC   C1B38527  23.104  40.192   8.550
 7311POPC   C2B38528  23.093  40.229   8.250
 7311POPC   C3B38529  23.118  40.182   7.950
 7311POPC   C4B38530  23.073  40.193   7.650
 7312POPC   NC338531  13.605  39.983   9.450
 7312POPC   PO438532  13.620  40.003   9.150
 7312POPC   GL138533  13.619  40.034   8.850
 7312POPC   GL238534  13.486  40.009   8.850
 7312POPC   C1A38535  13.674  39.998   8.550
 7312POPC   D2A38536  13.588  39.983   8.250
 7312POPC   C3A38537  13.589  40.052   7.950
 7312POPC   C4A38538  13.650  40.038   7.650
 7312POPC   C1B38539  13.441  39.897   8.550
 7312POPC   C2B38540  13.370  39.960   8.250
 7312POPC   C3B38541  13.412  39.871   7.950
 7312POPC   C4B38542  13.366  39.923   7.650
 7313POPC   NC338543  23.720   2.766   9.450
 7313POPC   PO438544  23.683   2.762   9.150
 7313POPC   GL138545  23.676   2.736   8.850
 7313POPC   GL238546  23.613   2.817   8.850
 7313POPC   C1A38547  23.713   2.719   8.550
 7313POPC   D2A38548  23.751   2.725   8.250
 7313POPC   C3A38549  23.729   2.763   7.950
 7313POPC   C4A38550  23.717   2.812   7.650
 7313POPC   C1B38551  23.545   2.894   8.550
 7313POPC   C2B38552  23.560   2.953   8.250
 7313POPC   C3B38553  23.486   2.966   7.950
 7313POPC   C4B38554  23.480   2.930   7.650
 7314POPC   NC338555  39.244  35.319   9.450
 7314POPC   PO438556  39.224  35.327   9.150
 7314POPC   GL138557  39.255  35.317   8.850
 7314POPC   GL238558  39.310  35.299   8.850
 7314POPC   C1A38559  39.195  35.367   8.550
 7314POPC   D2A38560  39.278  35.398   8.250
 7314POPC   C3A38561  39.221  35.359   7.950
 7314POPC   C4A38562  39.270  35.353   7.650
 7314POPC   C1B38563  39.427  35.179   8.550
 7314POPC   C2B38564  39.398  35.171   8.250
 7314POPC   C3B38565  39.400  35.230   7.950
 7314POPC   C4B38566  39.459  35.216   7.650
 7315POPC   NC338567  25.307   8.930   9.450
 7315POPC   PO438568  25.224   8.979   9.150
 7315POPC   GL138569  25.259   8.951   8.850
 7315POPC   GL238570  25.141   8.874   8.850
 7315POPC   C1A38571  25.254   8.937   8.550
 7315POPC   D2A38572  25.311   8.960   8.250
 7315POPC   C3A38573  25.263   9.003   7.950
 7315POPC   C4A38574  25.245   8.993   7.650
 7315POPC   C1B38575  25.041   8.793   8.550
 7315POPC   C2B38576  25.086   8.860   8.250
 7315POPC   C3B38577  25.035   8.817   7.950
 7315POPC   C4B38578  25.050   8.866   7.650
 7316POPC   NC338579  26.088  44.614   9.450
 7316POPC   PO438580  26.090  44.665   9.150
 7316POPC   GL138581  26.024  44.616   8.850
 7316POPC   GL238582  26.121  44.816   8.850
 7316POPC   C1A38583  26.048  44.635   8.550
 7316POPC   D2A38584  26.039  44.689   8.250
 7316POPC   C3A38585  26.090  44.663   7.950
 7316POPC   C4A38586  26.048  44.649   7.650
 7316POPC   C1B38587  26.186  44.891   8.550
 7316POPC   C2B38588  26.149  44.914   8.250
 7316POPC   C3B38589  26.204  44.867   7.950
 7316POPC   C4B38590  26.183  44.824   7.650
 7317POPC   NC338591  44.614  18.324   9.450
 7317POPC   PO438592  44.635  18.249   9.150
 7317POPC   GL138593  44.672  18.274   8.850
 7317POPC   GL238594  44.695  18.379   8.850
 7317POPC   C1A38595  44.670  18.279   8.550
 7317POPC   D2A38596  44.623  18.265   8.250
 7317POPC   C3A38597  44.667  18.321   7.950
 7317POPC   C4A38598  44.694  18.284   7.650
 7317POPC   C1B38599  44.721  18.541   8.550
 7317POPC   C2B38600  44.743  18.573   8.250
 7317POPC   C3B38601  44.739  18.555   7.950
 7317POPC   C4B38602  44.700  18.535   7.650
 7318POPC   NC338603  40.014  26.061   9.450
 7318POPC   PO438604  39.981  26.076   9.150
 7318POPC   GL138605  40.000  26.082   8.850
 7318POPC   GL238606  39.926  25.890   8.850
 7318POPC   C1A38607  40.020  26.028   8.550
 7318POPC   D2A38608  40.010  26.067   8.250
 7318POPC   C3A38609  40.039  26.031   7.950
 7318POPC   C4A38610  39.969  26.082   7.650
 7318POPC   C1B38611  39.881  25.853   8.550
 7318POPC   C2B38612  39.902  25.766   8.250
 7318POPC   C3B38613  39.975  25.776   7.950
 7318POPC   C4B38614  39.923  25.844   7.650
 7319POPC   NC338615   7.433  19.016   9.450
 7319POPC   PO438616   7.434  19.085   9.150
 7319POPC   GL138617   7.464  19.041   8.850
 7319POPC   GL238618   7.449  18.906   8.850
 7319POPC   C1A38619   7.467  19.071   8.550
 7319POPC   D2A38620   7.395  19.017   8.250
 7319POPC   C3A38621   7.393  19.060   7.950
 7319POPC   C4A38622   7.379  19.050   7.650
 7319POPC   C1B38623   7.487  18.810   8.550
 7319POPC   C2B38624   7.472  18.831   8.250
 7319POPC   C3B38625   7.489  18.799   7.950
 7319POPC   C4B38626   7.501  18.804   7.650
 7320POPC   NC338627   8.942  44.711   9.450
 7320POPC   PO438628   8.997  44.681   9.150
 7320POPC   GL138629   8.922  44.659   8.850
 7320POPC   GL238630   8.983  44.589   8.850
 7320POPC   C1A38631   9.010  44.687   8.550
 7320POPC   D2A38632   9.013  44.709   8.250
 7320POPC   C3A38633   8.970  44.644   7.950
 7320POPC   C4A38634   9.002  44.694   7.650
 7320POPC   C1B38635   8.964  44.419   8.550
 7320POPC   C2B38636   8.963  44.419   8.250
 7320POPC   C3B38637   8.964  44.420   7.950
 7320POPC   C4B38638   8.933  44.407   7.650
 7321POPC   NC338639  31.492  40.767   9.450
 7321POPC   PO438640  31.493  40.778   9.150
 7321POPC   GL138641  31.508  40.749   8.850
 7321POPC   GL238642  31.623  40.727   8.850
 7321POPC   C1A38643  31.425  40.745   8.550
 7321POPC   D2A38644  31.474  40.818   8.250
 7321POPC   C3A38645  31.426  40.770   7.950
 7321POPC   C4A38646  31.469  40.759   7.650
 7321POPC   C1B38647  31.708  40.621   8.550
 7321POPC   C2B38648  31.651  40.713   8.250
 7321POPC   C3B38649  31.664  40.684   7.950
 7321POPC   C4B38650  31.693  40.704   7.650
 7322POPC   NC338651  29.874  44.666   9.450
 7322POPC   PO438652  29.926  44.701   9.150
 7322POPC   GL138653  29.947  44.614   8.850
 7322POPC   GL238654  29.796  44.585   8.850
 7322POPC   C1A38655  29.946  44.674   8.550
 7322POPC   D2A38656  29.937  44.663   8.250
 7322POPC   C3A38657  29.904  44.653   7.950
 7322POPC   C4A38658  29.898  44.621   7.650
 7322POPC   C1B38659  29.752  44.521   8.550
 7322POPC   C2B38660  29.740  44.492   8.250
 7322POPC   C3B38661  29.721  44.528   7.950
 7322POPC   C4B38662  29.740  44.549   7.650
 7323POPC   NC338663  43.862  41.580   9.450
 7323POPC   PO438664  43.844  41.513   9.150
 7323POPC   GL138665  43.887  41.552   8.850
 7323POPC   GL238666  43.947  41.640   8.850
 7323POPC   C1A38667  43.893  41.519   8.550
 7323POPC   D2A38668  43.862  41.594   8.250
 7323POPC   C3A38669  43.931  41.530   7.950
 7323POPC   C4A38670  43.901  41.537   7.650
 7323POPC   C1B38671  43.966  41.834   8.550
 7323POPC   C2B38672  43.952  41.821   8.250
 7323POPC   C3B38673  44.004  41.766   7.950
 7323POPC   C4B38674  44.014  41.831   7.650
 7324POPC   NC338675  28.341   3.565   9.450
 7324POPC   PO438676  28.371   3.552   9.150
 7324POPC   GL138677  28.368   3.570   8.850
 7324POPC   GL238678  28.438   3.571   8.850
 7324POPC   C1A38679  28.386   3.578   8.550
 7324POPC   D2A38680  28.412   3.537   8.250
 7324POPC   C3A38681  28.406   3.538   7.950
 7324POPC   C4A38682  28.350   3.516   7.650
 7324POPC   C1B38683  28.615   3.628   8.550
 7324POPC   C2B38684  28.635   3.673   8.250
 7324POPC   C3B38685  28.605   3.681   7.950
 7324POPC   C4B38686  28.625   3.646   7.650
 7325POPC   NC338687  23.763   8.234   9.450
 7325POPC   PO438688  23.682   8.215   9.150
 7325POPC   GL138689  23.690   8.166   8.850
 7325POPC   GL238690  23.795   8.124   8.850
 7325POPC   C1A38691  23.676   8.172   8.550
 7325POPC   D2A38692  23.740   8.198   8.250
 7325POPC   C3A38693  23.685   8.228   7.950
 7325POPC   C4A38694  23.671   8.211   7.650
 7325POPC   C1B38695  23.886   8.014   8.550
 7325POPC   C2B38696  23.869   8.016   8.250
 7325POPC   C3B38697  23.856   8.033   7.950
 7325POPC   C4B38698  23.886   7.984   7.650
 7326POPC   NC338699  19.785  29.134   9.450
 7326POPC   PO438700  19.821  29.195   9.150
 7326POPC   GL138701  19.823  29.168   8.850
 7326POPC   GL238702  19.774  29.219   8.850
 7326POPC   C1A38703  19.786  29.102   8.550
 7326POPC   D2A38704  19.797  29.139   8.250
 7326POPC   C3A38705  19.831  29.124   7.950
 7326POPC   C4A38706  19.817  29.167   7.650
 7326POPC   C1B38707  19.683  29.400   8.550
 7326POPC   C2B38708  19.768  29.418   8.250
 7326POPC   C3B38709  19.748  29.348   7.950
 7326POPC   C4B38710  19.695  29.322   7.650
 7327POPC   NC338711   0.416   0.412   9.450
 7327POPC   PO438712   0.475   0.444   9.150
 7327POPC   GL138713   0.439   0.433   8.850
 7327POPC   GL238714   0.439   0.284   8.850
 7327POPC   C1A38715   0.394   0.423   8.550
 7327POPC   D2A38716   0.402   0.440   8.250
 7327POPC   C3A38717   0.388   0.452   7.950
 7327POPC   C4A38718   0.484   0.467   7.650
 7327POPC   C1B38719   0.404   0.158   8.550
 7327POPC   C2B38720   0.409   0.142   8.250
 7327POPC   C3B38721   0.408   0.213   7.950
 7327POPC   C4B38722   0.423   0.201   7.650
 7328POPC   NC338723  27.584  21.359   9.450
 7328POPC   PO438724  27.584  21.358   9.150
 7328POPC   GL138725  27.619  21.364   8.850
 7328POPC   GL238726  27.540  21.355   8.850
 7328POPC   C1A38727  27.561  21.435   8.550
 7328POPC   D2A38728  27.588  21.354   8.250
 7328POPC   C3A38729  27.636  21.402   7.950
 7328POPC   C4A38730  27.553  21.354   7.650
 7328POPC   C1B38731  27.360  21.274   8.550
 7328POPC   C2B38732  27.444  21.253   8.250
 7328POPC   C3B38733  27.350  21.261   7.950
 7328POPC   C4B38734  27.392  21.277   7.650
 7329POPC   NC338735  41.532  10.554   9.450
 7329POPC   PO438736  41.514  10.503   9.150
 7329POPC   GL138737  41.593  10.555   8.850
 7329POPC   GL238738  41.620  10.405   8.850
 7329POPC   C1A38739  41.580  10.485   8.550
 7329POPC   D2A38740  41.539  10.568   8.250
 7329POPC   C3A38741  41.538  10.563   7.950
 7329POPC   C4A38742  41.515  10.507   7.650
 7329POPC   C1B38743  41.638  10.341   8.550
 7329POPC   C2B38744  41.638  10.338   8.250
 7329POPC   C3B38745  41.625  10.279   7.950
 7329POPC   C4B38746  41.699  10.272   7.650
 7330POPC   NC338747  16.707  13.606   9.450
 7330POPC   PO438748  16.752  13.656   9.150
 7330POPC   GL138749  16.729  13.636   8.850
 7330POPC   GL238750  16.863  13.564   8.850
 7330POPC   C1A38751  16.751  13.619   8.550
 7330POPC   D2A38752  16.726  13.609   8.250
 7330POPC   C3A38753  16.719  13.587   7.950
 7330POPC   C4A38754  16.707  13.657   7.650
 7330POPC   C1B38755  16.955  13.563   8.550
 7330POPC   C2B38756  16.965  13.568   8.250
 7330POPC   C3B38757  17.025  13.581   7.950
 7330POPC   C4B38758  17.013  13.602   7.650
 7331POPC   NC338759  16.000  26.863   9.450
 7331POPC   PO438760  15.943  26.773   9.150
 7331POPC   GL138761  15.918  26.828   8.850
 7331POPC   GL238762  15.987  26.896   8.850
 7331POPC   C1A38763  15.957  26.843   8.550
 7331POPC   D2A38764  15.979  26.866   8.250
 7331POPC   C3A38765  15.974  26.853   7.950
 7331POPC   C4A38766  15.979  26.809   7.650
 7331POPC   C1B38767  15.996  27.107   8.550
 7331POPC   C2B38768  15.993  27.057   8.250
 7331POPC   C3B38769  15.930  27.028   7.950
 7331POPC   C4B38770  15.927  27.093   7.650
 7332POPC   NC338771  22.909  12.826   9.450
 7332POPC   PO438772  22.967  12.833   9.150
 7332POPC   GL138773  22.902  12.809   8.850
 7332POPC   GL238774  22.982  13.007   8.850
 7332POPC   C1A38775  22.930  12.836   8.550
 7332POPC   D2A38776  22.982  12.848   8.250
 7332POPC   C3A38777  22.888  12.873   7.950
 7332POPC   C4A38778  22.942  12.813   7.650
 7332POPC   C1B38779  22.993  13.075   8.550
 7332POPC   C2B38780  22.936  13.081   8.250
 7332POPC   C3B38781  22.979  13.120   7.950
 7332POPC   C4B38782  22.918  13.067   7.650
 7333POPC   NC338783  13.581   8.195   9.450
 7333POPC   PO438784  13.580   8.242   9.150
 7333POPC   GL138785  13.632   8.155   8.850
 7333POPC   GL238786  13.557   8.081   8.850
 7333POPC   C1A38787  13.639   8.188   8.550
 7333POPC   D2A38788  13.585   8.199   8.250
 7333POPC   C3A38789  13.600   8.161   7.950
 7333POPC   C4A38790  13.597   8.231   7.650
 7333POPC   C1B38791  13.418   8.009   8.550
 7333POPC   C2B38792  13.445   8.024   8.250
 7333POPC   C3B38793  13.401   8.071   7.950
 7333POPC   C4B38794  13.438   7.989   7.650
 7334POPC   NC338795   4.285  43.895   9.450
 7334POPC   PO438796   4.345  43.925   9.150
 7334POPC   GL138797   4.296  43.910   8.850
 7334POPC   GL238798   4.272  43.963   8.850
 7334POPC   C1A38799   4.292  43.877   8.550
 7334POPC   D2A38800   4.363  43.876   8.250
 7334POPC   C3A38801   4.333  43.917   7.950
 7334POPC   C4A38802   4.305  43.851   7.650
 7334POPC   C1B38803   4.146  44.080   8.550
 7334POPC   C2B38804   4.172  44.101   8.250
 7334POPC   C3B38805   4.145  44.117   7.950
 7334POPC   C4B38806   4.199  44.094   7.650
 7335POPC   NC338807   0.463  17.547   9.450
 7335POPC   PO438808   0.478  17.556   9.150
 7335POPC   GL138809   0.482  17.518   8.850
 7335POPC   GL238810   0.300  17.488   8.850
 7335POPC   C1A38811   0.466  17.517   8.550
 7335POPC   D2A38812   0.431  17.543   8.250
 7335POPC   C3A38813   0.425  17.480   7.950
 7335POPC   C4A38814   0.486  17.539   7.650
 7335POPC   C1B38815   0.151  17.525   8.550
 7335POPC   C2B38816   0.207  17.554   8.250
 7335POPC   C3B38817   0.185  17.495   7.950
 7335POPC   C4B38818   0.144  17.539   7.650
 7336POPC   NC338819  12.816  36.095   9.450
 7336POPC   PO438820  12.808  36.123   9.150
 7336POPC   GL138821  12.865  36.137   8.850
 7336POPC   GL238822  12.853  35.969   8.850
 7336POPC   C1A38823  12.858  36.144   8.550
 7336POPC   D2A38824  12.848  36.127   8.250
 7336POPC   C3A38825  12.885  36.099   7.950
 7336POPC   C4A38826  12.895  36.111   7.650
 7336POPC   C1B38827  12.730  35.918   8.550
 7336POPC   C2B38828  12.786  35.866   8.250
 7336POPC   C3B38829  12.769  35.913   7.950
 7336POPC   C4B38830  12.717  35.888   7.650
 7337POPC   NC338831  12.844  39.991   9.450
 7337POPC   PO438832  12.845  39.997   9.150
 7337POPC   GL138833  12.874  39.966   8.850
 7337POPC   GL238834  12.903  39.893   8.850
 7337POPC   C1A38835  12.830  40.012   8.550
 7337POPC   D2A38836  12.848  39.973   8.250
 7337POPC   C3A38837  12.859  40.052   7.950
 7337POPC   C4A38838  12.828  40.051   7.650
 7337POPC   C1B38839  13.029  39.871   8.550
 7337POPC   C2B38840  13.059  39.797   8.250
 7337POPC   C3B38841  13.070  39.788   7.950
 7337POPC   C4B38842  13.027  39.806   7.650
 7338POPC   NC338843  22.209  31.433   9.450
 7338POPC   PO438844  22.164  31.423   9.150
 7338POPC   GL138845  22.210  31.462   8.850
 7338POPC   GL238846  22.257  31.340   8.850
 7338POPC   C1A38847  22.170  31.425   8.550
 7338POPC   D2A38848  22.181  31.464   8.250
 7338POPC   C3A38849  22.158  31.475   7.950
 7338POPC   C4A38850  22.190  31.448   7.650
 7338POPC   C1B38851  22.338  31.273   8.550
 7338POPC   C2B38852  22.336  31.254   8.250
 7338POPC   C3B38853  22.287  31.278   7.950
 7338POPC   C4B38854  22.280  31.272   7.650
 7339POPC   NC338855   8.176  33.004   9.450
 7339POPC   PO438856   8.222  33.015   9.150
 7339POPC   GL138857   8.191  33.065   8.850
 7339POPC   GL238858   8.054  33.108   8.850
 7339POPC   C1A38859   8.184  32.974   8.550
 7339POPC   D2A38860   8.238  32.992   8.250
 7339POPC   C3A38861   8.204  33.024   7.950
 7339POPC   C4A38862   8.222  33.007   7.650
 7339POPC   C1B38863   7.978  33.183   8.550
 7339POPC   C2B38864   8.040  33.161   8.250
 7339POPC   C3B38865   7.978  33.133   7.950
 7339POPC   C4B38866   7.978  33.147   7.650
 7340POPC   NC338867  43.902  29.940   9.450
 7340POPC   PO438868  43.859  29.890   9.150
 7340POPC   GL138869  43.880  29.890   8.850
 7340POPC   GL238870  43.820  29.755   8.850
 7340POPC   C1A38871  43.891  29.873   8.550
 7340POPC   D2A38872  43.910  29.940   8.250
 7340POPC   C3A38873  43.923  29.917   7.950
 7340POPC   C4A38874  43.910  29.877   7.650
 7340POPC   C1B38875  43.847  29.662   8.550
 7340POPC   C2B38876  43.860  29.636   8.250
 7340POPC   C3B38877  43.867  29.664   7.950
 7340POPC   C4B38878  43.863  29.642   7.650
 7341POPC   NC338879   1.998  28.332   9.450
 7341POPC   PO438880   1.985  28.393   9.150
 7341POPC   GL138881   2.029  28.327   8.850
 7341POPC   GL238882   2.066  28.307   8.850
 7341POPC   C1A38883   1.989  28.337   8.550
 7341POPC   D2A38884   2.002  28.380   8.250
 7341POPC   C3A38885   2.031  28.396   7.950
 7341POPC   C4A38886   1.960  28.350   7.650
 7341POPC   C1B38887   2.076  28.117   8.550
 7341POPC   C2B38888   2.078  28.102   8.250
 7341POPC   C3B38889   2.152  28.170   7.950
 7341POPC   C4B38890   2.059  28.185   7.650
 7342POPC   NC338891  30.667  12.851   9.450
 7342POPC   PO438892  30.679  12.876   9.150
 7342POPC   GL138893  30.738  12.878   8.850
 7342POPC   GL238894  30.602  12.757   8.850
 7342POPC   C1A38895  30.726  12.832   8.550
 7342POPC   D2A38896  30.746  12.850   8.250
 7342POPC   C3A38897  30.676  12.876   7.950
 7342POPC   C4A38898  30.729  12.818   7.650
 7342POPC   C1B38899  30.462  12.685   8.550
 7342POPC   C2B38900  30.533  12.694   8.250
 7342POPC   C3B38901  30.512  12.721   7.950
 7342POPC   C4B38902  30.553  12.696   7.650
 7343POPC   NC338903  15.974  28.417   9.450
 7343POPC   PO438904  15.946  28.321   9.150
 7343POPC   GL138905  15.921  28.419   8.850
 7343POPC   GL238906  16.095  28.246   8.850
 7343POPC   C1A38907  15.913  28.350   8.550
 7343POPC   D2A38908  15.944  28.396   8.250
 7343POPC   C3A38909  15.916  28.364   7.950
 7343POPC   C4A38910  15.972  28.343   7.650
 7343POPC   C1B38911  16.111  28.188   8.550
 7343POPC   C2B38912  16.116  28.226   8.250
 7343POPC   C3B38913  16.125  28.188   7.950
 7343POPC   C4B38914  16.155  28.161   7.650
 7344POPC   NC338915  35.367  30.733   9.450
 7344POPC   PO438916  35.374  30.648   9.150
 7344POPC   GL138917  35.350  30.697   8.850
 7344POPC   GL238918  35.214  30.666   8.850
 7344POPC   C1A38919  35.369  30.669   8.550
 7344POPC   D2A38920  35.370  30.732   8.250
 7344POPC   C3A38921  35.365  30.746   7.950
 7344POPC   C4A38922  35.318  30.717   7.650
 7344POPC   C1B38923  35.124  30.639   8.550
 7344POPC   C2B38924  35.117  30.598   8.250
 7344POPC   C3B38925  35.164  30.631   7.950
 7344POPC   C4B38926  35.128  30.640   7.650
 7345POPC   NC338927  26.064  23.712   9.450
 7345POPC   PO438928  26.048  23.759   9.150
 7345POPC   GL138929  26.005  23.671   8.850
 7345POPC   GL238930  25.972  23.683   8.850
 7345POPC   C1A38931  26.027  23.741   8.550
 7345POPC   D2A38932  26.082  23.733   8.250
 7345POPC   C3A38933  26.040  23.673   7.950
 7345POPC   C4A38934  25.999  23.722   7.650
 7345POPC   C1B38935  25.822  23.533   8.550
 7345POPC   C2B38936  25.839  23.586   8.250
 7345POPC   C3B38937  25.800  23.549   7.950
 7345POPC   C4B38938  25.808  23.554   7.650
 7346POPC   NC338939  35.374   9.794   9.450
 7346POPC   PO438940  35.343   9.744   9.150
 7346POPC   GL138941  35.398   9.706   8.850
 7346POPC   GL238942  35.234   9.709   8.850
 7346POPC   C1A38943  35.304   9.725   8.550
 7346POPC   D2A38944  35.394   9.723   8.250
 7346POPC   C3A38945  35.327   9.748   7.950
 7346POPC   C4A38946  35.365   9.727   7.650
 7346POPC   C1B38947  35.153   9.647   8.550
 7346POPC   C2B38948  35.131   9.669   8.250
 7346POPC   C3B38949  35.059   9.664   7.950
 7346POPC   C4B38950  35.072   9.685   7.650
 7347POPC   NC338951  28.320  13.582   9.450
 7347POPC   PO438952  28.349  13.627   9.150
 7347POPC   GL138953  28.410  13.622   8.850
 7347POPC   GL238954  28.469  13.741   8.850
 7347POPC   C1A38955  28.369  13.614   8.550
 7347POPC   D2A38956  28.396  13.612   8.250
 7347POPC   C3A38957  28.341  13.586   7.950
 7347POPC   C4A38958  28.380  13.671   7.650
 7347POPC   C1B38959  28.598  13.756   8.550
 7347POPC   C2B38960  28.573  13.800   8.250
 7347POPC   C3B38961  28.560  13.709   7.950
 7347POPC   C4B38962  28.554  13.751   7.650
 7348POPC   NC338963   2.001  32.227   9.450
 7348POPC   PO438964   1.978  32.245   9.150
 7348POPC   GL138965   1.966  32.294   8.850
 7348POPC   GL238966   1.831  32.239   8.850
 7348POPC   C1A38967   1.987  32.268   8.550
 7348POPC   D2A38968   1.948  32.241   8.250
 7348POPC   C3A38969   2.011  32.252   7.950
 7348POPC   C4A38970   1.985  32.274   7.650
 7348POPC   C1B38971   1.777  32.253   8.550
 7348POPC   C2B38972   1.749  32.276   8.250
 7348POPC   C3B38973   1.698  32.255   7.950
 7348POPC   C4B38974   1.785  32.250   7.650
 7349POPC   NC338975   6.641  14.368   9.450
 7349POPC   PO438976   6.615  14.408   9.150
 7349POPC   GL138977   6.661  14.395   8.850
 7349POPC   GL238978   6.769  14.554   8.850
 7349POPC   C1A38979   6.688  14.423   8.550
 7349POPC   D2A38980   6.657  14.413   8.250
 7349POPC   C3A38981   6.692  14.396   7.950
 7349POPC   C4A38982   6.692  14.453   7.650
 7349POPC   C1B38983   6.829  14.630   8.550
 7349POPC   C2B38984   6.810  14.653   8.250
 7349POPC   C3B38985   6.801  14.595   7.950
 7349POPC   C4B38986   6.833  14.580   7.650
 7350POPC   NC338987  13.583  26.839   9.450
 7350POPC   PO438988  13.643  26.802   9.150
 7350POPC   GL138989  13.610  26.820   8.850
 7350POPC   GL238990  13.496  26.789   8.850
 7350POPC   C1A38991  13.607  26.786   8.550
 7350POPC   D2A38992  13.611  26.823   8.250
 7350POPC   C3A38993  13.675  26.793   7.950
 7350POPC   C4A38994  13.605  26.824   7.650
 7350POPC   C1B38995  13.396  26.730   8.550
 7350POPC   C2B38996  13.397  26.686   8.250
 7350POPC   C3B38997  13.401  26.691   7.950
 7350POPC   C4B38998  13.359  26.738   7.650
 7351POPC   NC338999  13.622  25.272   9.450
 7351POPC   PO439000  13.578  25.227   9.150
 7351POPC   GL139001  13.638  25.306   8.850
 7351POPC   GL239002  13.628  25.161   8.850
 7351POPC   C1A39003  13.592  25.260   8.550
 7351POPC   D2A39004  13.670  25.284   8.250
 7351POPC   C3A39005  13.578  25.291   7.950
 7351POPC   C4A39006  13.672  25.224   7.650
 7351POPC   C1B39007  13.709  24.993   8.550
 7351POPC   C2B39008  13.763  25.055   8.250
 7351POPC   C3B39009  13.716  25.019   7.950
 7351POPC   C4B39010  13.732  25.056   7.650
 7352POPC   NC339011  29.146   7.413   9.450
 7352POPC   PO439012  29.172   7.390   9.150
 7352POPC   GL139013  29.162   7.446   8.850
 7352POPC   GL239014  29.141   7.581   8.850
 7352POPC   C1A39015  29.172   7.407   8.550
 7352POPC   D2A39016  29.102   7.431   8.250
 7352POPC   C3A39017  29.181   7.463   7.950
 7352POPC   C4A39018  29.130   7.379   7.650
 7352POPC   C1B39019  29.250   7.666   8.550
 7352POPC   C2B39020  29.202   7.691   8.250
 7352POPC   C3B39021  29.251   7.663   7.950
 7352POPC   C4B39022  29.252   7.645   7.650
 7353POPC   NC339023  27.599   3.523   9.450
 7353POPC   PO439024  27.597   3.563   9.150
 7353POPC   GL139025  27.585   3.493   8.850
 7353POPC   GL239026  27.713   3.649   8.850
 7353POPC   C1A39027  27.600   3.574   8.550
 7353POPC   D2A39028  27.594   3.511   8.250
 7353POPC   C3A39029  27.556   3.580   7.950
 7353POPC   C4A39030  27.588   3.543   7.650
 7353POPC   C1B39031  27.757   3.715   8.550
 7353POPC   C2B39032  27.751   3.744   8.250
 7353POPC   C3B39033  27.781   3.772   7.950
 7353POPC   C4B39034  27.796   3.775   7.650
 7354POPC   NC339035  38.411  34.533   9.450
 7354POPC   PO439036  38.423  34.609   9.150
 7354POPC   GL139037  38.416  34.562   8.850
 7354POPC   GL239038  38.383  34.711   8.850
 7354POPC   C1A39039  38.475  34.590   8.550
 7354POPC   D2A39040  38.490  34.574   8.250
 7354POPC   C3A39041  38.494  34.572   7.950
 7354POPC   C4A39042  38.414  34.593   7.650
 7354POPC   C1B39043  38.344  34.779   8.550
 7354POPC   C2B39044  38.273  34.808   8.250
 7354POPC   C3B39045  38.280  34.744   7.950
 7354POPC   C4B39046  38.282  34.742   7.650
 7355POPC   NC339047   0.462  15.136   9.450
 7355POPC   PO439048   0.479  15.196   9.150
 7355POPC   GL139049   0.409  15.216   8.850
 7355POPC   GL239050   0.426  15.098   8.850
 7355POPC   C1A39051   0.475  15.223   8.550
 7355POPC   D2A39052   0.439  15.210   8.250
 7355POPC   C3A39053   0.455  15.138   7.950
 7355POPC   C4A39054   0.423  15.132   7.650
 7355POPC   C1B39055   0.342  14.978   8.550
 7355POPC   C2B39056   0.412  14.934   8.250
 7355POPC   C3B39057   0.398  14.939   7.950
 7355POPC   C4B39058   0.388  14.923   7.650
 7356POPC   NC339059  31.450   5.855   9.450
 7356POPC   PO439060  31.443   5.860   9.150
 7356POPC   GL139061  31.478   5.870   8.850
 7356POPC   GL239062  31.353   5.875   8.850
 7356POPC   C1A39063  31.488   5.823   8.550
 7356POPC   D2A39064  31.480   5.872   8.250
 7356POPC   C3A39065  31.504   5.869   7.950
 7356POPC   C4A39066  31.440   5.901   7.650
 7356POPC   C1B39067  31.243   5.944   8.550
 7356POPC   C2B39068  31.266   5.928   8.250
 7356POPC   C3B39069  31.208   5.890   7.950
 7356POPC   C4B39070  31.241   5.899   7.650
 7357POPC   NC339071  23.728   9.013   9.450
 7357POPC   PO439072  23.689   9.006   9.150
 7357POPC   GL139073  23.674   8.986   8.850
 7357POPC   GL239074  23.742   9.103   8.850
 7357POPC   C1A39075  23.694   8.991   8.550
 7357POPC   D2A39076  23.678   8.979   8.250
 7357POPC   C3A39077  23.728   9.010   7.950
 7357POPC   C4A39078  23.695   8.956   7.650
 7357POPC   C1B39079  23.785   9.152   8.550
 7357POPC   C2B39080  23.827   9.171   8.250
 7357POPC   C3B39081  23.861   9.159   7.950
 7357POPC   C4B39082  23.857   9.175   7.650
 7358POPC   NC339083  35.333  25.290   9.450
 7358POPC   PO439084  35.322  25.311   9.150
 7358POPC   GL139085  35.368  25.290   8.850
 7358POPC   GL239086  35.419  25.366   8.850
 7358POPC   C1A39087  35.334  25.309   8.550
 7358POPC   D2A39088  35.358  25.225   8.250
 7358POPC   C3A39089  35.377  25.313   7.950
 7358POPC   C4A39090  35.323  25.242   7.650
 7358POPC   C1B39091  35.361  25.498   8.550
 7358POPC   C2B39092  35.370  25.562   8.250
 7358POPC   C3B39093  35.376  25.467   7.950
 7358POPC   C4B39094  35.435  25.529   7.650
 7359POPC   NC339095   3.572  26.079   9.450
 7359POPC   PO439096   3.586  26.065   9.150
 7359POPC   GL139097   3.518  26.013   8.850
 7359POPC   GL239098   3.607  25.908   8.850
 7359POPC   C1A39099   3.494  26.012   8.550
 7359POPC   D2A39100   3.496  26.006   8.250
 7359POPC   C3A39101   3.584  26.024   7.950
 7359POPC   C4A39102   3.556  26.083   7.650
 7359POPC   C1B39103   3.575  25.800   8.550
 7359POPC   C2B39104   3.610  25.801   8.250
 7359POPC   C3B39105   3.602  25.781   7.950
 7359POPC   C4B39106   3.616  25.762   7.650
 7360POPC   NC339107   5.866  22.914   9.450
 7360POPC   PO439108   5.891  22.938   9.150
 7360POPC   GL139109   5.891  22.984   8.850
 7360POPC   GL239110   5.924  22.884   8.850
 7360POPC   C1A39111   5.917  22.976   8.550
 7360POPC   D2A39112   5.824  22.937   8.250
 7360POPC   C3A39113   5.909  22.936   7.950
 7360POPC   C4A39114   5.860  22.986   7.650
 7360POPC   C1B39115   6.038  22.688   8.550
 7360POPC   C2B39116   6.033  22.730   8.250
 7360POPC   C3B39117   5.999  22.752   7.950
 7360POPC   C4B39118   6.011  22.688   7.650
 7361POPC   NC339119  18.332   2.784   9.450
 7361POPC   PO439120  18.322   2.800   9.150
 7361POPC   GL139121  18.247   2.807   8.850
 7361POPC   GL239122  18.376   2.824   8.850
 7361POPC   C1A39123  18.261   2.752   8.550
 7361POPC   D2A39124  18.325   2.747   8.250
 7361POPC   C3A39125  18.264   2.736   7.950
 7361POPC   C4A39126  18.250   2.752   7.650
 7361POPC   C1B39127  18.427   3.009   8.550
 7361POPC   C2B39128  18.414   2.979   8.250
 7361POPC   C3B39129  18.430   2.987   7.950
 7361POPC   C4B39130  18.368   2.963   7.650
 7362POPC   NC339131  22.931  34.622   9.450
 7362POPC   PO439132  22.932  34.552   9.150
 7362POPC   GL139133  22.934  34.606   8.850
 7362POPC   GL239134  22.895  34.489   8.850
 7362POPC   C1A39135  22.942  34.530   8.550
 7362POPC   D2A39136  22.920  34.622   8.250
 7362POPC   C3A39137  22.951  34.612   7.950
 7362POPC   C4A39138  22.949  34.595   7.650
 7362POPC   C1B39139  22.853  34.405   8.550
 7362POPC   C2B39140  22.810  34.345   8.250
 7362POPC   C3B39141  22.774  34.386   7.950
 7362POPC   C4B39142  22.770  34.400   7.650
 7363POPC   NC339143  42.298  15.933   9.450
 7363POPC   PO439144  42.377  15.952   9.150
 7363POPC   GL139145  42.380  15.981   8.850
 7363POPC   GL239146  42.289  16.096   8.850
 7363POPC   C1A39147  42.311  15.936   8.550
 7363POPC   D2A39148  42.380  16.003   8.250
 7363POPC   C3A39149  42.332  15.964   7.950
 7363POPC   C4A39150  42.367  15.906   7.650
 7363POPC   C1B39151  42.265  16.197   8.550
 7363POPC   C2B39152  42.193  16.148   8.250
 7363POPC   C3B39153  42.258  16.230   7.950
 7363POPC   C4B39154  42.226  16.233   7.650
 7364POPC   NC339155  24.510  39.257   9.450
 7364POPC   PO439156  24.470  39.258   9.150
 7364POPC   GL139157  24.447  39.233   8.850
 7364POPC   GL239158  24.605  39.332   8.850
 7364POPC   C1A39159  24.452  39.267   8.550
 7364POPC   D2A39160  24.502  39.267   8.250
 7364POPC   C3A39161  24.512  39.209   7.950
 7364POPC   C4A39162  24.457  39.189   7.650
 7364POPC   C1B39163  24.725  39.366   8.550
 7364POPC   C2B39164  24.662  39.341   8.250
 7364POPC   C3B39165  24.645  39.412   7.950
 7364POPC   C4B39166  24.648  39.364   7.650
 7365POPC   NC339167  30.694  36.884   9.450
 7365POPC   PO439168  30.723  36.859   9.150
 7365POPC   GL139169  30.664  36.913   8.850
 7365POPC   GL239170  30.673  36.732   8.850
 7365POPC   C1A39171  30.655  36.934   8.550
 7365POPC   D2A39172  30.667  36.921   8.250
 7365POPC   C3A39173  30.714  36.900   7.950
 7365POPC   C4A39174  30.743  36.938   7.650
 7365POPC   C1B39175  30.599  36.620   8.550
 7365POPC   C2B39176  30.602  36.674   8.250
 7365POPC   C3B39177  30.609  36.637   7.950
 7365POPC   C4B39178  30.630  36.648   7.650
 7366POPC   NC339179  26.034  10.507   5.550
 7366POPC   PO439180  26.069  10.529   5.850
 7366POPC   GL139181  26.060  10.502   6.150
 7366POPC   GL239182  26.031  10.413   6.150
 7366POPC   C1A39183  26.045  10.513   6.450
 7366POPC   D2A39184  26.040  10.497   6.750
 7366POPC   C3A39185  26.044  10.569   7.050
 7366POPC   C4A39186  25.998  10.534   7.350
 7366POPC   C1B39187  25.977  10.267   6.450
 7366POPC   C2B39188  25.918  10.243   6.750
 7366POPC   C3B39189  26.001  10.324   7.050
 7366POPC   C4B39190  25.995  10.310   7.350
 7367POPC   NC339191  32.238  43.123   5.550
 7367POPC   PO439192  32.252  43.146   5.850
 7367POPC   GL139193  32.264  43.124   6.150
 7367POPC   GL239194  32.134  43.155   6.150
 7367POPC   C1A39195  32.264  43.090   6.450
 7367POPC   D2A39196  32.250  43.126   6.750
 7367POPC   C3A39197  32.255  43.130   7.050
 7367POPC   C4A39198  32.295  43.094   7.350
 7367POPC   C1B39199  32.017  43.265   6.450
 7367POPC   C2B39200  32.007  43.239   6.750
 7367POPC   C3B39201  31.989  43.243   7.050
 7367POPC   C4B39202  31.985  43.220   7.350
 7368POPC   NC339203   5.864  39.207   5.550
 7368POPC   PO439204   5.833  39.190   5.850
 7368POPC   GL139205   5.845  39.274   6.150
 7368POPC   GL239206   5.916  39.177   6.150
 7368POPC   C1A39207   5.821  39.246   6.450
 7368POPC   D2A39208   5.863  39.189   6.750
 7368POPC   C3A39209   5.900  39.280   7.050
 7368POPC   C4A39210   5.844  39.246   7.350
 7368POPC   C1B39211   6.107  39.091   6.450
 7368POPC   C2B39212   6.093  39.081   6.750
 7368POPC   C3B39213   6.052  39.031   7.050
 7368POPC   C4B39214   6.036  39.115   7.350
 7369POPC   NC339215  10.512  34.624   5.550
 7369POPC   PO439216  10.500  34.540   5.850
 7369POPC   GL139217  10.544  34.548   6.150
 7369POPC   GL239218  10.552  34.721   6.150
 7369POPC   C1A39219  10.481  34.588   6.450
 7369POPC   D2A39220  10.479  34.625   6.750
 7369POPC   C3A39221  10.558  34.542   7.050
 7369POPC   C4A39222  10.517  34.575   7.350
 7369POPC   C1B39223  10.577  34.774   6.450
 7369POPC   C2B39224  10.595  34.805   6.750
 7369POPC   C3B39225  10.640  34.791   7.050
 7369POPC   C4B39226  10.621  34.769   7.350
 7370POPC   NC339227  35.348  43.844   5.550
 7370POPC   PO439228  35.330  43.892   5.850
 7370POPC   GL139229  35.326  43.859   6.150
 7370POPC   GL239230  35.241  43.911   6.150
 7370POPC   C1A39231  35.337  43.933   6.450
 7370POPC   D2A39232  35.326  43.898   6.750
 7370POPC   C3A39233  35.345  43.842   7.050
 7370POPC   C4A39234  35.350  43.879   7.350
 7370POPC   C1B39235  35.174  43.967   6.450
 7370POPC   C2B39236  35.136  43.988   6.750
 7370POPC   C3B39237  35.118  44.029   7.050
 7370POPC   C4B39238  35.125  44.000   7.350
 7371POPC   NC339239  42.302  37.632   5.550
 7371POPC   PO439240  42.343  37.693   5.850
 7371POPC   GL139241  42.334  37.658   6.150
 7371POPC   GL239242  42.220  37.781   6.150
 7371POPC   C1A39243  42.361  37.654   6.450
 7371POPC   D2A39244  42.290  37.644   6.750
 7371POPC   C3A39245  42.369  37.629   7.050
 7371POPC   C4A39246  42.297  37.636   7.350
 7371POPC   C1B39247  42.079  37.787   6.450
 7371POPC   C2B39248  42.108  37.783   6.750
 7371POPC   C3B39249  42.127  37.802   7.050
 7371POPC   C4B39250  42.093  37.832   7.350
 7372POPC   NC339251   3.583  39.963   5.550
 7372POPC   PO439252   3.572  39.999   5.850
 7372POPC   GL139253   3.557  39.995   6.150
 7372POPC   GL239254   3.636  40.094   6.150
 7372POPC   C1A39255   3.587  40.011   6.450
 7372POPC   D2A39256   3.560  40.056   6.750
 7372POPC   C3A39257   3.497  39.995   7.050
 7372POPC   C4A39258   3.519  39.963   7.350
 7372POPC   C1B39259   3.666  40.230   6.450
 7372POPC   C2B39260   3.723  40.254   6.750
 7372POPC   C3B39261   3.694  40.217   7.050
 7372POPC   C4B39262   3.629  40.181   7.350
 7373POPC   NC339263  29.934  22.191   5.550
 7373POPC   PO439264  29.881  22.183   5.850
 7373POPC   GL139265  29.877  22.140   6.150
 7373POPC   GL239266  29.830  22.252   6.150
 7373POPC   C1A39267  29.959  22.200   6.450
 7373POPC   D2A39268  29.924  22.128   6.750
 7373POPC   C3A39269  29.910  22.140   7.050
 7373POPC   C4A39270  29.935  22.189   7.350
 7373POPC   C1B39271  29.731  22.401   6.450
 7373POPC   C2B39272  29.779  22.358   6.750
 7373POPC   C3B39273  29.755  22.392   7.050
 7373POPC   C4B39274  29.797  22.372   7.350
 7374POPC   NC339275  32.998  23.698   5.550
 7374POPC   PO439276  32.997  23.682   5.850
 7374POPC   GL139277  33.033  23.675   6.150
 7374POPC   GL239278  32.924  23.564   6.150
 7374POPC   C1A39279  33.052  23.694   6.450
 7374POPC   D2A39280  32.978  23.708   6.750
 7374POPC   C3A39281  33.035  23.695   7.050
 7374POPC   C4A39282  33.000  23.691   7.350
 7374POPC   C1B39283  32.857  23.482   6.450
 7374POPC   C2B39284  32.827  23.525   6.750
 7374POPC   C3B39285  32.826  23.484   7.050
 7374POPC   C4B39286  32.907  23.553   7.350
 7375POPC   NC339287   5.828   7.407   5.550
 7375POPC   PO439288   5.856   7.443   5.850
 7375POPC   GL139289   5.849   7.441   6.150
 7375POPC   GL239290   5.886   7.334   6.150
 7375POPC   C1A39291   5.826   7.459   6.450
 7375POPC   D2A39292   5.820   7.416   6.750
 7375POPC   C3A39293   5.911   7.460   7.050
 7375POPC   C4A39294   5.832   7.398   7.350
 7375POPC   C1B39295   5.883   7.148   6.450
 7375POPC   C2B39296   5.933   7.168   6.750
 7375POPC   C3B39297   5.943   7.218   7.050
 7375POPC   C4B39298   5.911   7.218   7.350
 7376POPC   NC339299  18.299  18.275   5.550
 7376POPC   PO439300  18.274  18.252   5.850
 7376POPC   GL139301  18.325  18.237   6.150
 7376POPC   GL239302  18.430  18.286   6.150
 7376POPC   C1A39303  18.244  18.288   6.450
 7376POPC   D2A39304  18.304  18.272   6.750
 7376POPC   C3A39305  18.323  18.319   7.050
 7376POPC   C4A39306  18.286  18.283   7.350
 7376POPC   C1B39307  18.571  18.261   6.450
 7376POPC   C2B39308  18.551  18.210   6.750
 7376POPC   C3B39309  18.512  18.258   7.050
 7376POPC   C4B39310  18.567  18.254   7.350
 7377POPC   NC339311  39.248  13.580   5.550
 7377POPC   PO439312  39.273  13.601   5.850
 7377POPC   GL139313  39.217  13.628   6.150
 7377POPC   GL239314  39.309  13.533   6.150
 7377POPC   C1A39315  39.263  13.629   6.450
 7377POPC   D2A39316  39.259  13.656   6.750
 7377POPC   C3A39317  39.189  13.581   7.050
 7377POPC   C4A39318  39.217  13.614   7.350
 7377POPC   C1B39319  39.418  13.454   6.450
 7377POPC   C2B39320  39.439  13.516   6.750
 7377POPC   C3B39321  39.416  13.449   7.050
 7377POPC   C4B39322  39.469  13.519   7.350
 7378POPC   NC339323  22.161  24.535   5.550
 7378POPC   PO439324  22.142  24.500   5.850
 7378POPC   GL139325  22.114  24.458   6.150
 7378POPC   GL239326  22.026  24.506   6.150
 7378POPC   C1A39327  22.114  24.442   6.450
 7378POPC   D2A39328  22.112  24.525   6.750
 7378POPC   C3A39329  22.140  24.492   7.050
 7378POPC   C4A39330  22.203  24.514   7.350
 7378POPC   C1B39331  21.945  24.592   6.450
 7378POPC   C2B39332  21.892  24.522   6.750
 7378POPC   C3B39333  21.922  24.587   7.050
 7378POPC   C4B39334  21.884  24.510   7.350
 7379POPC   NC339335   2.762  34.558   5.550
 7379POPC   PO439336   2.720  34.594   5.850
 7379POPC   GL139337   2.723  34.570   6.150
 7379POPC   GL239338   2.861  34.552   6.150
 7379POPC   C1A39339   2.720  34.532   6.450
 7379POPC   D2A39340   2.770  34.585   6.750
 7379POPC   C3A39341   2.804  34.567   7.050
 7379POPC   C4A39342   2.781  34.625   7.350
 7379POPC   C1B39343   2.990  34.506   6.450
 7379POPC   C2B39344   2.967  34.542   6.750
 7379POPC   C3B39345   3.050  34.557   7.050
 7379POPC   C4B39346   2.984  34.544   7.350
 7380POPC   NC339347   2.806  16.696   5.550
 7380POPC   PO439348   2.803  16.772   5.850
 7380POPC   GL139349   2.747  16.682   6.150
 7380POPC   GL239350   2.713  16.783   6.150
 7380POPC   C1A39351   2.794  16.704   6.450
 7380POPC   D2A39352   2.754  16.730   6.750
 7380POPC   C3A39353   2.730  16.756   7.050
 7380POPC   C4A39354   2.722  16.739   7.350
 7380POPC   C1B39355   2.573  16.964   6.450
 7380POPC   C2B39356   2.640  16.958   6.750
 7380POPC   C3B39357   2.570  16.903   7.050
 7380POPC   C4B39358   2.606  16.912   7.350
 7381POPC   NC339359  36.903  36.140   5.550
 7381POPC   PO439360  36.939  36.157   5.850
 7381POPC   GL139361  36.903  36.097   6.150
 7381POPC   GL239362  36.835  36.028   6.150
 7381POPC   C1A39363  36.876  36.173   6.450
 7381POPC   D2A39364  36.887  36.175   6.750
 7381POPC   C3A39365  36.859  36.155   7.050
 7381POPC   C4A39366  36.913  36.130   7.350
 7381POPC   C1B39367  36.756  35.960   6.450
 7381POPC   C2B39368  36.709  35.947   6.750
 7381POPC   C3B39369  36.726  35.888   7.050
 7381POPC   C4B39370  36.805  35.934   7.350
 7382POPC   NC339371  43.119  17.545   5.550
 7382POPC   PO439372  43.158  17.550   5.850
 7382POPC   GL139373  43.092  17.539   6.150
 7382POPC   GL239374  42.969  17.435   6.150
 7382POPC   C1A39375  43.105  17.501   6.450
 7382POPC   D2A39376  43.155  17.488   6.750
 7382POPC   C3A39377  43.098  17.485   7.050
 7382POPC   C4A39378  43.137  17.540   7.350
 7382POPC   C1B39379  42.943  17.342   6.450
 7382POPC   C2B39380  42.912  17.382   6.750
 7382POPC   C3B39381  42.870  17.315   7.050
 7382POPC   C4B39382  42.875  17.375   7.350
 7383POPC   NC339383  42.356   5.827   5.550
 7383POPC   PO439384  42.342   5.831   5.850
 7383POPC   GL139385  42.376   5.914   6.150
 7383POPC   GL239386  42.257   5.805   6.150
 7383POPC   C1A39387  42.293   5.908   6.450
 7383POPC   D2A39388  42.326   5.866   6.750
 7383POPC   C3A39389  42.331   5.883   7.050
 7383POPC   C4A39390  42.312   5.864   7.350
 7383POPC   C1B39391  42.149   5.691   6.450
 7383POPC   C2B39392  42.160   5.704   6.750
 7383POPC   C3B39393  42.150   5.685   7.050
 7383POPC   C4B39394  42.119   5.720   7.350
 7384POPC   NC339395  26.837  36.933   5.550
 7384POPC   PO439396  26.829  36.907   5.850
 7384POPC   GL139397  26.862  36.887   6.150
 7384POPC   GL239398  26.806  37.003   6.150
 7384POPC   C1A39399  26.812  36.863   6.450
 7384POPC   D2A39400  26.795  36.936   6.750
 7384POPC   C3A39401  26.819  36.953   7.050
 7384POPC   C4A39402  26.853  36.950   7.350
 7384POPC   C1B39403  26.871  37.154   6.450
 7384POPC   C2B39404  26.895  37.169   6.750
 7384POPC   C3B39405  26.835  37.140   7.050
 7384POPC   C4B39406  26.839  37.135   7.350
 7385POPC   NC339407  33.005  15.134   5.550
 7385POPC   PO439408  33.045  15.191   5.850
 7385POPC   GL139409  33.016  15.158   6.150
 7385POPC   GL239410  33.194  15.135   6.150
 7385POPC   C1A39411  32.998  15.154   6.450
 7385POPC   D2A39412  33.026  15.227   6.750
 7385POPC   C3A39413  32.995  15.148   7.050
 7385POPC   C4A39414  33.060  15.185   7.350
 7385POPC   C1B39415  33.233  15.102   6.450
 7385POPC   C2B39416  33.269  15.187   6.750
 7385POPC   C3B39417  33.253  15.112   7.050
 7385POPC   C4B39418  33.273  15.138   7.350
 7386POPC   NC339419  33.802   9.785   5.550
 7386POPC   PO439420  33.787   9.796   5.850
 7386POPC   GL139421  33.762   9.705   6.150
 7386POPC   GL239422  33.680   9.882   6.150
 7386POPC   C1A39423  33.763   9.797   6.450
 7386POPC   D2A39424  33.795   9.757   6.750
 7386POPC   C3A39425  33.830   9.729   7.050
 7386POPC   C4A39426  33.822   9.713   7.350
 7386POPC   C1B39427  33.611   9.908   6.450
 7386POPC   C2B39428  33.608   9.979   6.750
 7386POPC   C3B39429  33.643   9.918   7.050
 7386POPC   C4B39430  33.654   9.979   7.350
 7387POPC   NC339431  33.751  17.466   5.550
 7387POPC   PO439432  33.802  17.458   5.850
 7387POPC   GL139433  33.754  17.492   6.150
 7387POPC   GL239434  33.935  17.603   6.150
 7387POPC   C1A39435  33.807  17.529   6.450
 7387POPC   D2A39436  33.786  17.472   6.750
 7387POPC   C3A39437  33.846  17.471   7.050
 7387POPC   C4A39438  33.784  17.534   7.350
 7387POPC   C1B39439  33.985  17.609   6.450
 7387POPC   C2B39440  34.035  17.638   6.750
 7387POPC   C3B39441  34.050  17.682   7.050
 7387POPC   C4B39442  34.000  17.623   7.350
 7388POPC   NC339443  12.041  38.412   5.550
 7388POPC   PO439444  12.111  38.478   5.850
 7388POPC   GL139445  12.058  38.406   6.150
 7388POPC   GL239446  11.947  38.531   6.150
 7388POPC   C1A39447  12.086  38.480   6.450
 7388POPC   D2A39448  12.124  38.408   6.750
 7388POPC   C3A39449  12.104  38.489   7.050
 7388POPC   C4A39450  12.119  38.424   7.350
 7388POPC   C1B39451  11.863  38.590   6.450
 7388POPC   C2B39452  11.863  38.546   6.750
 7388POPC   C3B39453  11.843  38.515   7.050
 7388POPC   C4B39454  11.875  38.588   7.350
 7389POPC   NC339455  24.446  15.203   5.550
 7389POPC   PO439456  24.468  15.141   5.850
 7389POPC   GL139457  24.500  15.174   6.150
 7389POPC   GL239458  24.367  15.323   6.150
 7389POPC   C1A39459  24.469  15.146   6.450
 7389POPC   D2A39460  24.472  15.218   6.750
 7389POPC   C3A39461  24.496  15.210   7.050
 7389POPC   C4A39462  24.539  15.136   7.350
 7389POPC   C1B39463  24.339  15.370   6.450
 7389POPC   C2B39464  24.354  15.380   6.750
 7389POPC   C3B39465  24.281  15.353   7.050
 7389POPC   C4B39466  24.352  15.372   7.350
 7390POPC   NC339467  43.073  43.154   5.550
 7390POPC   PO439468  43.115  43.078   5.850
 7390POPC   GL139469  43.125  43.109   6.150
 7390POPC   GL239470  43.013  43.094   6.150
 7390POPC   C1A39471  43.097  43.071   6.450
 7390POPC   D2A39472  43.152  43.088   6.750
 7390POPC   C3A39473  43.113  43.144   7.050
 7390POPC   C4A39474  43.068  43.160   7.350
 7390POPC   C1B39475  42.941  43.026   6.450
 7390POPC   C2B39476  42.851  43.010   6.750
 7390POPC   C3B39477  42.932  42.938   7.050
 7390POPC   C4B39478  42.887  42.980   7.350
 7391POPC   NC339479  38.463  39.252   5.550
 7391POPC   PO439480  38.423  39.215   5.850
 7391POPC   GL139481  38.433  39.254   6.150
 7391POPC   GL239482  38.518  39.313   6.150
 7391POPC   C1A39483  38.464  39.229   6.450
 7391POPC   D2A39484  38.419  39.243   6.750
 7391POPC   C3A39485  38.479  39.228   7.050
 7391POPC   C4A39486  38.482  39.217   7.350
 7391POPC   C1B39487  38.587  39.390   6.450
 7391POPC   C2B39488  38.635  39.484   6.750
 7391POPC   C3B39489  38.631  39.436   7.050
 7391POPC   C4B39490  38.630  39.453   7.350
 7392POPC   NC339491  33.795  35.370   5.550
 7392POPC   PO439492  33.841  35.376   5.850
 7392POPC   GL139493  33.809  35.362   6.150
 7392POPC   GL239494  33.901  35.460   6.150
 7392POPC   C1A39495  33.813  35.377   6.450
 7392POPC   D2A39496  33.786  35.309   6.750
 7392POPC   C3A39497  33.818  35.361   7.050
 7392POPC   C4A39498  33.831  35.367   7.350
 7392POPC   C1B39499  33.943  35.501   6.450
 7392POPC   C2B39500  34.028  35.468   6.750
 7392POPC   C3B39501  34.030  35.505   7.050
 7392POPC   C4B39502  33.940  35.551   7.350
 7393POPC   NC339503  38.477  42.299   5.550
 7393POPC   PO439504  38.469  42.381   5.850
 7393POPC   GL139505  38.416  42.375   6.150
 7393POPC   GL239506  38.356  42.243   6.150
 7393POPC   C1A39507  38.423  42.361   6.450
 7393POPC   D2A39508  38.464  42.345   6.750
 7393POPC   C3A39509  38.481  42.298   7.050
 7393POPC   C4A39510  38.451  42.306   7.350
 7393POPC   C1B39511  38.277  42.115   6.450
 7393POPC   C2B39512  38.321  42.127   6.750
 7393POPC   C3B39513  38.259  42.148   7.050
 7393POPC   C4B39514  38.241  42.170   7.350
 7394POPC   NC339515  22.964  19.070   5.550
 7394POPC   PO439516  22.892  19.080   5.850
 7394POPC   GL139517  22.894  19.048   6.150
 7394POPC   GL239518  22.930  19.202   6.150
 7394POPC   C1A39519  22.978  19.072   6.450
 7394POPC   D2A39520  22.947  19.051   6.750
 7394POPC   C3A39521  22.974  19.031   7.050
 7394POPC   C4A39522  22.947  19.059   7.350
 7394POPC   C1B39523  22.849  19.322   6.450
 7394POPC   C2B39524  22.876  19.269   6.750
 7394POPC   C3B39525  22.865  19.251   7.050
 7394POPC   C4B39526  22.849  19.246   7.350
 7395POPC   NC339527  19.823  33.804   5.550
 7395POPC   PO439528  19.818  33.784   5.850
 7395POPC   GL139529  19.787  33.786   6.150
 7395POPC   GL239530  19.808  33.902   6.150
 7395POPC   C1A39531  19.835  33.831   6.450
 7395POPC   D2A39532  19.860  33.762   6.750
 7395POPC   C3A39533  19.853  33.815   7.050
 7395POPC   C4A39534  19.874  33.754   7.350
 7395POPC   C1B39535  19.875  34.063   6.450
 7395POPC   C2B39536  19.782  34.084   6.750
 7395POPC   C3B39537  19.793  34.048   7.050
 7395POPC   C4B39538  19.831  34.025   7.350
 7396POPC   NC339539  25.233  34.587   5.550
 7396POPC   PO439540  25.293  34.566   5.850
 7396POPC   GL139541  25.258  34.547   6.150
 7396POPC   GL239542  25.412  34.593   6.150
 7396POPC   C1A39543  25.274  34.564   6.450
 7396POPC   D2A39544  25.264  34.526   6.750
 7396POPC   C3A39545  25.247  34.566   7.050
 7396POPC   C4A39546  25.230  34.571   7.350
 7396POPC   C1B39547  25.524  34.676   6.450
 7396POPC   C2B39548  25.532  34.651   6.750
 7396POPC   C3B39549  25.458  34.630   7.050
 7396POPC   C4B39550  25.469  34.625   7.350
 7397POPC   NC339551  25.217  18.320   5.550
 7397POPC   PO439552  25.269  18.258   5.850
 7397POPC   GL139553  25.246  18.264   6.150
 7397POPC   GL239554  25.222  18.395   6.150
 7397POPC   C1A39555  25.281  18.277   6.450
 7397POPC   D2A39556  25.267  18.332   6.750
 7397POPC   C3A39557  25.267  18.252   7.050
 7397POPC   C4A39558  25.268  18.240   7.350
 7397POPC   C1B39559  25.274  18.487   6.450
 7397POPC   C2B39560  25.301  18.549   6.750
 7397POPC   C3B39561  25.302  18.508   7.050
 7397POPC   C4B39562  25.306  18.492   7.350
 7398POPC   NC339563  22.931   1.241   5.550
 7398POPC   PO439564  22.931   1.226   5.850
 7398POPC   GL139565  22.889   1.194   6.150
 7398POPC   GL239566  23.008   1.282   6.150
 7398POPC   C1A39567  22.974   1.164   6.450
 7398POPC   D2A39568  22.937   1.256   6.750
 7398POPC   C3A39569  22.903   1.191   7.050
 7398POPC   C4A39570  22.915   1.213   7.350
 7398POPC   C1B39571  23.169   1.273   6.450
 7398POPC   C2B39572  23.146   1.367   6.750
 7398POPC   C3B39573  23.175   1.277   7.050
 7398POPC   C4B39574  23.177   1.311   7.350
 7399POPC   NC339575  36.940  32.287   5.550
 7399POPC   PO439576  36.910  32.285   5.850
 7399POPC   GL139577  36.953  32.262   6.150
 7399POPC   GL239578  36.992  32.157   6.150
 7399POPC   C1A39579  36.891  32.280   6.450
 7399POPC   D2A39580  36.907  32.223   6.750
 7399POPC   C3A39581  36.898  32.284   7.050
 7399POPC   C4A39582  36.930  32.231   7.350
 7399POPC   C1B39583  37.017  32.023   6.450
 7399POPC   C2B39584  37.024  32.051   6.750
 7399POPC   C3B39585  37.065  32.045   7.050
 7399POPC   C4B39586  37.018  32.022   7.350
 7400POPC   NC339587  34.615  26.051   5.550
 7400POPC   PO439588  34.560  26.014   5.850
 7400POPC   GL139589  34.574  26.060   6.150
 7400POPC   GL239590  34.654  26.160   6.150
 7400POPC   C1A39591  34.624  26.039   6.450
 7400POPC   D2A39592  34.552  25.992   6.750
 7400POPC   C3A39593  34.614  26.016   7.050
 7400POPC   C4A39594  34.592  26.028   7.350
 7400POPC   C1B39595  34.613  26.273   6.450
 7400POPC   C2B39596  34.682  26.318   6.750
 7400POPC   C3B39597  34.612  26.307   7.050
 7400POPC   C4B39598  34.623  26.313   7.350
 7401POPC   NC339599  33.752  15.224   5.550
 7401POPC   PO439600  33.765  15.177   5.850
 7401POPC   GL139601  33.796  15.151   6.150
 7401POPC   GL239602  33.910  15.185   6.150
 7401POPC   C1A39603  33.759  15.185   6.450
 7401POPC   D2A39604  33.811  15.131   6.750
 7401POPC   C3A39605  33.836  15.227   7.050
 7401POPC   C4A39606  33.756  15.209   7.350
 7401POPC   C1B39607  34.014  15.206   6.450
 7401POPC   C2B39608  34.059  15.113   6.750
 7401POPC   C3B39609  34.022  15.115   7.050
 7401POPC   C4B39610  34.013  15.202   7.350
 7402POPC   NC339611   4.294   2.038   5.550
 7402POPC   PO439612   4.359   1.982   5.850
 7402POPC   GL139613   4.363   2.009   6.150
 7402POPC   GL239614   4.220   2.101   6.150
 7402POPC   C1A39615   4.361   1.978   6.450
 7402POPC   D2A39616   4.280   2.037   6.750
 7402POPC   C3A39617   4.317   2.030   7.050
 7402POPC   C4A39618   4.270   1.961   7.350
 7402POPC   C1B39619   4.181   2.191   6.450
 7402POPC   C2B39620   4.135   2.136   6.750
 7402POPC   C3B39621   4.129   2.131   7.050
 7402POPC   C4B39622   4.092   2.132   7.350
 7403POPC   NC339623   5.087  20.660   5.550
 7403POPC   PO439624   5.087  20.586   5.850
 7403POPC   GL139625   5.084  20.657   6.150
 7403POPC   GL239626   5.214  20.690   6.150
 7403POPC   C1A39627   5.077  20.606   6.450
 7403POPC   D2A39628   5.049  20.589   6.750
 7403POPC   C3A39629   5.075  20.640   7.050
 7403POPC   C4A39630   5.130  20.588   7.350
 7403POPC   C1B39631   5.373  20.633   6.450
 7403POPC   C2B39632   5.373  20.696   6.750
 7403POPC   C3B39633   5.302  20.655   7.050
 7403POPC   C4B39634   5.296  20.679   7.350
 7404POPC   NC339635  33.068  18.254   5.550
 7404POPC   PO439636  33.000  18.250   5.850
 7404POPC   GL139637  32.988  18.305   6.150
 7404POPC   GL239638  33.040  18.125   6.150
 7404POPC   C1A39639  33.065  18.238   6.450
 7404POPC   D2A39640  33.001  18.313   6.750
 7404POPC   C3A39641  33.008  18.290   7.050
 7404POPC   C4A39642  33.053  18.279   7.350
 7404POPC   C1B39643  33.143  18.013   6.450
 7404POPC   C2B39644  33.185  18.040   6.750
 7404POPC   C3B39645  33.142  18.068   7.050
 7404POPC   C4B39646  33.112  18.029   7.350
 7405POPC   NC339647  21.370  18.241   5.550
 7405POPC   PO439648  21.419  18.314   5.850
 7405POPC   GL139649  21.372  18.310   6.150
 7405POPC   GL239650  21.441  18.153   6.150
 7405POPC   C1A39651  21.420  18.279   6.450
 7405POPC   D2A39652  21.413  18.269   6.750
 7405POPC   C3A39653  21.367  18.280   7.050
 7405POPC   C4A39654  21.375  18.301   7.350
 7405POPC   C1B39655  21.525  18.002   6.450
 7405POPC   C2B39656  21.524  18.089   6.750
 7405POPC   C3B39657  21.514  18.037   7.050
 7405POPC   C4B39658  21.526  18.097   7.350
 7406POPC   NC339659  31.510  32.218   5.550
 7406POPC   PO439660  31.503  32.231   5.850
 7406POPC   GL139661  31.499  32.260   6.150
 7406POPC   GL239662  31.599  32.227   6.150
 7406POPC   C1A39663  31.516  32.283   6.450
 7406POPC   D2A39664  31.465  32.213   6.750
 7406POPC   C3A39665  31.497  32.229   7.050
 7406POPC   C4A39666  31.488  32.212   7.350
 7406POPC   C1B39667  31.738  32.154   6.450
 7406POPC   C2B39668  31.674  32.101   6.750
 7406POPC   C3B39669  31.670  32.164   7.050
 7406POPC   C4B39670  31.660  32.137   7.350
 7407POPC   NC339671  40.020  30.716   5.550
 7407POPC   PO439672  40.030  30.668   5.850
 7407POPC   GL139673  40.006  30.719   6.150
 7407POPC   GL239674  40.062  30.573   6.150
 7407POPC   C1A39675  40.024  30.679   6.450
 7407POPC   D2A39676  40.052  30.716   6.750
 7407POPC   C3A39677  39.985  30.730   7.050
 7407POPC   C4A39678  40.041  30.668   7.350
 7407POPC   C1B39679  40.080  30.442   6.450
 7407POPC   C2B39680  40.130  30.475   6.750
 7407POPC   C3B39681  40.100  30.447   7.050
 7407POPC   C4B39682  40.057  30.431   7.350
 7408POPC   NC339683  25.249  38.444   5.550
 7408POPC   PO439684  25.224  38.486   5.850
 7408POPC   GL139685  25.216  38.420   6.150
 7408POPC   GL239686  25.258  38.304   6.150
 7408POPC   C1A39687  25.226  38.409   6.450
 7408POPC   D2A39688  25.295  38.421   6.750
 7408POPC   C3A39689  25.294  38.434   7.050
 7408POPC   C4A39690  25.249  38.455   7.350
 7408POPC   C1B39691  25.345  38.206   6.450
 7408POPC   C2B39692  25.326  38.208   6.750
 7408POPC   C3B39693  25.355  38.248   7.050
 7408POPC   C4B39694  25.275  38.238   7.350
 7409POPC   NC339695  31.503   7.425   5.550
 7409POPC   PO439696  31.443   7.390   5.850
 7409POPC   GL139697  31.504   7.412   6.150
 7409POPC   GL239698  31.327   7.380   6.150
 7409POPC   C1A39699  31.445   7.420   6.450
 7409POPC   D2A39700  31.468   7.391   6.750
 7409POPC   C3A39701  31.479   7.422   7.050
 7409POPC   C4A39702  31.480   7.431   7.350
 7409POPC   C1B39703  31.244   7.333   6.450
 7409POPC   C2B39704  31.276   7.251   6.750
 7409POPC   C3B39705  31.301   7.291   7.050
 7409POPC   C4B39706  31.219   7.321   7.350
 7410POPC   NC339707  23.753  39.210   5.550
 7410POPC   PO439708  23.693  39.275   5.850
 7410POPC   GL139709  23.736  39.183   6.150
 7410POPC   GL239710  23.622  39.266   6.150
 7410POPC   C1A39711  23.761  39.234   6.450
 7410POPC   D2A39712  23.744  39.261   6.750
 7410POPC   C3A39713  23.665  39.203   7.050
 7410POPC   C4A39714  23.678  39.251   7.350
 7410POPC   C1B39715  23.485  39.308   6.450
 7410POPC   C2B39716  23.486  39.244   6.750
 7410POPC   C3B39717  23.489  39.280   7.050
 7410POPC   C4B39718  23.472  39.310   7.350
 7411POPC   NC339719   7.439  34.561   5.550
 7411POPC   PO439720   7.418  34.561   5.850
 7411POPC   GL139721   7.465  34.555   6.150
 7411POPC   GL239722   7.405  34.452   6.150
 7411POPC   C1A39723   7.458  34.616   6.450
 7411POPC   D2A39724   7.421  34.527   6.750
 7411POPC   C3A39725   7.418  34.553   7.050
 7411POPC   C4A39726   7.466  34.615   7.350
 7411POPC   C1B39727   7.434  34.315   6.450
 7411POPC   C2B39728   7.378  34.282   6.750
 7411POPC   C3B39729   7.412  34.279   7.050
 7411POPC   C4B39730   7.461  34.356   7.350
 7412POPC   NC339731  39.200  29.134   5.550
 7412POPC   PO439732  39.227  29.140   5.850
 7412POPC   GL139733  39.210  29.101   6.150
 7412POPC   GL239734  39.255  29.305   6.150
 7412POPC   C1A39735  39.254  29.121   6.450
 7412POPC   D2A39736  39.264  29.104   6.750
 7412POPC   C3A39737  39.219  29.140   7.050
 7412POPC   C4A39738  39.204  29.110   7.350
 7412POPC   C1B39739  39.333  29.398   6.450
 7412POPC   C2B39740  39.250  29.389   6.750
 7412POPC   C3B39741  39.274  29.427   7.050
 7412POPC   C4B39742  39.259  29.430   7.350
 7413POPC   NC339743   3.504  29.120   5.550
 7413POPC   PO439744   3.547  29.191   5.850
 7413POPC   GL139745   3.548  29.122   6.150
 7413POPC   GL239746   3.646  29.126   6.150
 7413POPC   C1A39747   3.547  29.159   6.450
 7413POPC   D2A39748   3.511  29.169   6.750
 7413POPC   C3A39749   3.536  29.105   7.050
 7413POPC   C4A39750   3.527  29.108   7.350
 7413POPC   C1B39751   3.813  29.118   6.450
 7413POPC   C2B39752   3.778  29.077   6.750
 7413POPC   C3B39753   3.802  29.078   7.050
 7413POPC   C4B39754   3.819  29.123   7.350
 7414POPC   NC339755  22.921  15.133   5.550
 7414POPC   PO439756  22.915  15.155   5.850
 7414POPC   GL139757  22.974  15.170   6.150
 7414POPC   GL239758  22.833  15.131   6.150
 7414POPC   C1A39759  22.890  15.154   6.450
 7414POPC   D2A39760  22.906  15.174   6.750
 7414POPC   C3A39761  22.916  15.157   7.050
 7414POPC   C4A39762  22.926  15.204   7.350
 7414POPC   C1B39763  22.730  15.091   6.450
 7414POPC   C2B39764  22.674  15.060   6.750
 7414POPC   C3B39765  22.741  15.102   7.050
 7414POPC   C4B39766  22.668  15.132   7.350
 7415POPC   NC339767  40.042  38.433   5.550
 7415POPC   PO439768  39.998  38.498   5.850
 7415POPC   GL139769  40.024  38.475   6.150
 7415POPC   GL239770  39.882  38.404   6.150
 7415POPC   C1A39771  40.043  38.472   6.450
 7415POPC   D2A39772  40.005  38.428   6.750
 7415POPC   C3A39773  39.980  38.440   7.050
 7415POPC   C4A39774  40.041  38.504   7.350
 7415POPC   C1B39775  39.835  38.320   6.450
 7415POPC   C2B39776  39.838  38.249   6.750
 7415POPC   C3B39777  39.812  38.263   7.050
 7415POPC   C4B39778  39.792  38.260   7.350
 7416POPC   NC339779  26.027   8.194   5.550
 7416POPC   PO439780  26.025   8.227   5.850
 7416POPC   GL139781  26.074   8.211   6.150
 7416POPC   GL239782  26.091   8.127   6.150
 7416POPC   C1A39783  25.998   8.189   6.450
 7416POPC   D2A39784  26.048   8.183   6.750
 7416POPC   C3A39785  26.054   8.178   7.050
 7416POPC   C4A39786  26.018   8.227   7.350
 7416POPC   C1B39787  26.207   8.057   6.450
 7416POPC   C2B39788  26.203   8.052   6.750
 7416POPC   C3B39789  26.208   8.033   7.050
 7416POPC   C4B39790  26.230   8.046   7.350
 7417POPC   NC339791  12.051   7.403   5.550
 7417POPC   PO439792  12.079   7.449   5.850
 7417POPC   GL139793  12.104   7.406   6.150
 7417POPC   GL239794  12.138   7.468   6.150
 7417POPC   C1A39795  12.048   7.463   6.450
 7417POPC   D2A39796  12.028   7.458   6.750
 7417POPC   C3A39797  12.077   7.401   7.050
 7417POPC   C4A39798  12.087   7.436   7.350
 7417POPC   C1B39799  12.225   7.641   6.450
 7417POPC   C2B39800  12.211   7.569   6.750
 7417POPC   C3B39801  12.257   7.640   7.050
 7417POPC   C4B39802  12.275   7.620   7.350
 7418POPC   NC339803  26.812  36.085   5.550
 7418POPC   PO439804  26.836  36.173   5.850
 7418POPC   GL139805  26.800  36.135   6.150
 7418POPC   GL239806  26.778  36.034   6.150
 7418POPC   C1A39807  26.816  36.159   6.450
 7418POPC   D2A39808  26.817  36.143   6.750
 7418POPC   C3A39809  26.846  36.140   7.050
 7418POPC   C4A39810  26.768  36.133   7.350
 7418POPC   C1B39811  26.675  35.949   6.450
 7418POPC   C2B39812  26.709  35.957   6.750
 7418POPC   C3B39813  26.710  35.924   7.050
 7418POPC   C4B39814  26.692  35.961   7.350
 7419POPC   NC339815  39.246  39.964   5.550
 7419POPC   PO439816  39.196  39.957   5.850
 7419POPC   GL139817  39.243  39.960   6.150
 7419POPC   GL239818  39.114  40.125   6.150
 7419POPC   C1A39819  39.272  39.973   6.450
 7419POPC   D2A39820  39.269  40.055   6.750
 7419POPC   C3A39821  39.227  40.001   7.050
 7419POPC   C4A39822  39.253  39.963   7.350
 7419POPC   C1B39823  39.007  40.127   6.450
 7419POPC   C2B39824  39.037  40.119   6.750
 7419POPC   C3B39825  39.005  40.178   7.050
 7419POPC   C4B39826  39.001  40.119   7.350
 7420POPC   NC339827  18.311  30.745   5.550
 7420POPC   PO439828  18.285  30.740   5.850
 7420POPC   GL139829  18.282  30.723   6.150
 7420POPC   GL239830  18.428  30.796   6.150
 7420POPC   C1A39831  18.325  30.693   6.450
 7420POPC   D2A39832  18.277  30.706   6.750
 7420POPC   C3A39833  18.308  30.648   7.050
 7420POPC   C4A39834  18.309  30.708   7.350
 7420POPC   C1B39835  18.487  30.834   6.450
 7420POPC   C2B39836  18.511  30.810   6.750
 7420POPC   C3B39837  18.448  30.790   7.050
 7420POPC   C4B39838  18.464  30.880   7.350
 7421POPC   NC339839  38.437  16.703   5.550
 7421POPC   PO439840  38.478  16.696   5.850
 7421POPC   GL139841  38.430  16.736   6.150
 7421POPC   GL239842  38.422  16.871   6.150
 7421POPC   C1A39843  38.495  16.713   6.450
 7421POPC   D2A39844  38.502  16.691   6.750
 7421POPC   C3A39845  38.483  16.753   7.050
 7421POPC   C4A39846  38.457  16.698   7.350
 7421POPC   C1B39847  38.389  17.007   6.450
 7421POPC   C2B39848  38.355  16.936   6.750
 7421POPC   C3B39849  38.381  16.993   7.050
 7421POPC   C4B39850  38.424  16.929   7.350
 7422POPC   NC339851   3.524  15.154   5.550
 7422POPC   PO439852   3.515  15.137   5.850
 7422POPC   GL139853   3.499  15.143   6.150
 7422POPC   GL239854   3.452  15.303   6.150
 7422POPC   C1A39855   3.553  15.209   6.450
 7422POPC   D2A39856   3.579  15.215   6.750
 7422POPC   C3A39857   3.546  15.213   7.050
 7422POPC   C4A39858   3.582  15.172   7.350
 7422POPC   C1B39859   3.356  15.324   6.450
 7422POPC   C2B39860   3.359  15.363   6.750
 7422POPC   C3B39861   3.396  15.379   7.050
 7422POPC   C4B39862   3.402  15.384   7.350
 7423POPC   NC339863  14.381  22.148   5.550
 7423POPC   PO439864  14.434  22.140   5.850
 7423POPC   GL139865  14.416  22.187   6.150
 7423POPC   GL239866  14.358  22.014   6.150
 7423POPC   C1A39867  14.357  22.153   6.450
 7423POPC   D2A39868  14.365  22.189   6.750
 7423POPC   C3A39869  14.406  22.137   7.050
 7423POPC   C4A39870  14.366  22.181   7.350
 7423POPC   C1B39871  14.388  21.939   6.450
 7423POPC   C2B39872  14.340  21.880   6.750
 7423POPC   C3B39873  14.366  21.949   7.050
 7423POPC   C4B39874  14.417  21.881   7.350
 7424POPC   NC339875  10.518  11.346   5.550
 7424POPC   PO439876  10.479  11.289   5.850
 7424POPC   GL139877  10.545  11.330   6.150
 7424POPC   GL239878  10.630  11.239   6.150
 7424POPC   C1A39879  10.526  11.341   6.450
 7424POPC   D2A39880  10.474  11.302   6.750
 7424POPC   C3A39881  10.530  11.259   7.050
 7424POPC   C4A39882  10.526  11.324   7.350
 7424POPC   C1B39883  10.657  11.076   6.450
 7424POPC   C2B39884  10.671  11.091   6.750
 7424POPC   C3B39885  10.646  11.148   7.050
 7424POPC   C4B39886  10.670  11.091   7.350
 7425POPC   NC339887  37.652  20.563   5.550
 7425POPC   PO439888  37.712  20.621   5.850
 7425POPC   GL139889  37.714  20.584   6.150
 7425POPC   GL239890  37.714  20.474   6.150
 7425POPC   C1A39891  37.673  20.635   6.450
 7425POPC   D2A39892  37.705  20.637   6.750
 7425POPC   C3A39893  37.725  20.629   7.050
 7425POPC   C4A39894  37.665  20.576   7.350
 7425POPC   C1B39895  37.767  20.434   6.450
 7425POPC   C2B39896  37.782  20.398   6.750
 7425POPC   C3B39897  37.773  20.393   7.050
 7425POPC   C4B39898  37.822  20.357   7.350
 7426POPC   NC339899   5.107  42.367   5.550
 7426POPC   PO439900   5.067  42.345   5.850
 7426POPC   GL139901   5.119  42.333   6.150
 7426POPC   GL239902   4.975  42.219   6.150
 7426POPC   C1A39903   5.132  42.311   6.450
 7426POPC   D2A39904   5.135  42.325   6.750
 7426POPC   C3A39905   5.073  42.372   7.050
 7426POPC   C4A39906   5.109  42.300   7.350
 7426POPC   C1B39907   4.917  42.113   6.450
 7426POPC   C2B39908   4.894  42.130   6.750
 7426POPC   C3B39909   4.944  42.127   7.050
 7426POPC   C4B39910   4.937  42.149   7.350
 7427POPC   NC339911  32.996  10.496   5.550
 7427POPC   PO439912  33.069  10.528   5.850
 7427POPC   GL139913  33.049  10.500   6.150
 7427POPC   GL239914  32.901  10.575   6.150
 7427POPC   C1A39915  33.056  10.511   6.450
 7427POPC   D2A39916  33.064  10.538   6.750
 7427POPC   C3A39917  33.034  10.492   7.050
 7427POPC   C4A39918  32.992  10.573   7.350
 7427POPC   C1B39919  32.904  10.697   6.450
 7427POPC   C2B39920  32.913  10.702   6.750
 7427POPC   C3B39921  32.833  10.700   7.050
 7427POPC   C4B39922  32.853  10.769   7.350
 7428POPC   NC339923  41.602  15.204   5.550
 7428POPC   PO439924  41.596  15.192   5.850
 7428POPC   GL139925  41.593  15.219   6.150
 7428POPC   GL239926  41.706  15.245   6.150
 7428POPC   C1A39927  41.517  15.145   6.450
 7428POPC   D2A39928  41.511  15.187   6.750
 7428POPC   C3A39929  41.556  15.176   7.050
 7428POPC   C4A39930  41.547  15.161   7.350
 7428POPC   C1B39931  41.775  15.375   6.450
 7428POPC   C2B39932  41.748  15.331   6.750
 7428POPC   C3B39933  41.750  15.318   7.050
 7428POPC   C4B39934  41.756  15.344   7.350
 7429POPC   NC339935   9.720  39.263   5.550
 7429POPC   PO439936   9.734  39.226   5.850
 7429POPC   GL139937   9.705  39.254   6.150
 7429POPC   GL239938   9.674  39.212   6.150
 7429POPC   C1A39939   9.753  39.224   6.450
 7429POPC   D2A39940   9.796  39.241   6.750
 7429POPC   C3A39941   9.732  39.249   7.050
 7429POPC   C4A39942   9.752  39.258   7.350
 7429POPC   C1B39943   9.515  39.101   6.450
 7429POPC   C2B39944   9.563  39.149   6.750
 7429POPC   C3B39945   9.540  39.087   7.050
 7429POPC   C4B39946   9.487  39.104   7.350
 7430POPC   NC339947  26.046  19.079   5.550
 7430POPC   PO439948  25.998  19.078   5.850
 7430POPC   GL139949  26.026  19.023   6.150
 7430POPC   GL239950  26.058  18.942   6.150
 7430POPC   C1A39951  26.003  19.097   6.450
 7430POPC   D2A39952  26.069  19.080   6.750
 7430POPC   C3A39953  26.027  19.051   7.050
 7430POPC   C4A39954  26.040  19.107   7.350
 7430POPC   C1B39955  26.034  18.812   6.450
 7430POPC   C2B39956  26.070  18.839   6.750
 7430POPC   C3B39957  25.987  18.761   7.050
 7430POPC   C4B39958  26.005  18.853   7.350
 7431POPC   NC339959  18.305  42.317   5.550
 7431POPC   PO439960  18.314  42.357   5.850
 7431POPC   GL139961  18.264  42.344   6.150
 7431POPC   GL239962  18.398  42.190   6.150
 7431POPC   C1A39963  18.238  42.369   6.450
 7431POPC   D2A39964  18.271  42.347   6.750
 7431POPC   C3A39965  18.328  42.325   7.050
 7431POPC   C4A39966  18.304  42.300   7.350
 7431POPC   C1B39967  18.403  42.116   6.450
 7431POPC   C2B39968  18.470  42.103   6.750
 7431POPC   C3B39969  18.448  42.152   7.050
 7431POPC   C4B39970  18.405  42.189   7.350
 7432POPC   NC339971  34.542  33.843   5.550
 7432POPC   PO439972  34.578  33.838   5.850
 7432POPC   GL139973  34.586  33.762   6.150
 7432POPC   GL239974  34.419  33.848   6.150
 7432POPC   C1A39975  34.531  33.787   6.450
 7432POPC   D2A39976  34.585  33.782   6.750
 7432POPC   C3A39977  34.621  33.801   7.050
 7432POPC   C4A39978  34.555  33.848   7.350
 7432POPC   C1B39979  34.312  33.847   6.450
 7432POPC   C2B39980  34.289  33.809   6.750
 7432POPC   C3B39981  34.322  33.816   7.050
 7432POPC   C4B39982  34.339  33.840   7.350
 7433POPC   NC339983  19.022   0.402   5.550
 7433POPC   PO439984  19.054   0.467   5.850
 7433POPC   GL139985  19.058   0.461   6.150
 7433POPC   GL239986  18.958   0.311   6.150
 7433POPC   C1A39987  19.040   0.471   6.450
 7433POPC   D2A39988  19.034   0.430   6.750
 7433POPC   C3A39989  19.066   0.433   7.050
 7433POPC   C4A39990  19.076   0.474   7.350
 7433POPC   C1B39991  18.873   0.290   6.450
 7433POPC   C2B39992  18.900   0.303   6.750
 7433POPC   C3B39993  18.849   0.244   7.050
 7433POPC   C4B39994  18.905   0.244   7.350
 7434POPC   NC339995  22.946   6.653   5.550
 7434POPC   PO439996  22.950   6.618   5.850
 7434POPC   GL139997  22.960   6.621   6.150
 7434POPC   GL239998  22.876   6.507   6.150
 7434POPC   C1A39999  22.916   6.659   6.450
 7434POPC   D2A40000  22.954   6.695   6.750
 7434POPC   C3A40001  22.904   6.661   7.050
 7434POPC   C4A40002  22.945   6.597   7.350
 7434POPC   C1B40003  22.710   6.501   6.450
 7434POPC   C2B40004  22.733   6.472   6.750
 7434POPC   C3B40005  22.790   6.514   7.050
 7434POPC   C4B40006  22.717   6.516   7.350
 7435POPC   NC340007  20.620  43.917   5.550
 7435POPC   PO440008  20.603  43.906   5.850
 7435POPC   GL140009  20.586  43.914   6.150
 7435POPC   GL240010  20.557  44.004   6.150
 7435POPC   C1A40011  20.596  43.844   6.450
 7435POPC   D2A40012  20.628  43.839   6.750
 7435POPC   C3A40013  20.650  43.900   7.050
 7435POPC   C4A40014  20.632  43.837   7.350
 7435POPC   C1B40015  20.582  44.120   6.450
 7435POPC   C2B40016  20.603  44.180   6.750
 7435POPC   C3B40017  20.586  44.123   7.050
 7435POPC   C4B40018  20.594  44.113   7.350
 7436POPC   NC340019  21.409  27.546   5.550
 7436POPC   PO440020  21.406  27.618   5.850
 7436POPC   GL140021  21.416  27.567   6.150
 7436POPC   GL240022  21.356  27.701   6.150
 7436POPC   C1A40023  21.412  27.591   6.450
 7436POPC   D2A40024  21.410  27.557   6.750
 7436POPC   C3A40025  21.361  27.629   7.050
 7436POPC   C4A40026  21.366  27.629   7.350
 7436POPC   C1B40027  21.314  27.798   6.450
 7436POPC   C2B40028  21.276  27.834   6.750
 7436POPC   C3B40029  21.335  27.807   7.050
 7436POPC   C4B40030  21.321  27.879   7.350
 7437POPC   NC340031  22.954  15.999   5.550
 7437POPC   PO440032  22.918  16.002   5.850
 7437POPC   GL140033  22.964  15.983   6.150
 7437POPC   GL240034  22.851  15.933   6.150
 7437POPC   C1A40035  22.973  15.951   6.450
 7437POPC   D2A40036  22.977  15.967   6.750
 7437POPC   C3A40037  22.898  15.968   7.050
 7437POPC   C4A40038  22.976  15.919   7.350
 7437POPC   C1B40039  22.713  15.932   6.450
 7437POPC   C2B40040  22.736  15.887   6.750
 7437POPC   C3B40041  22.643  15.934   7.050
 7437POPC   C4B40042  22.719  15.897   7.350
 7438POPC   NC340043  36.135   8.922   5.550
 7438POPC   PO440044  36.152   8.960   5.850
 7438POPC   GL140045  36.176   8.962   6.150
 7438POPC   GL240046  36.234   8.912   6.150
 7438POPC   C1A40047  36.118   8.971   6.450
 7438POPC   D2A40048  36.099   8.956   6.750
 7438POPC   C3A40049  36.098   8.949   7.050
 7438POPC   C4A40050  36.088   8.938   7.350
 7438POPC   C1B40051  36.202   8.738   6.450
 7438POPC   C2B40052  36.232   8.800   6.750
 7438POPC   C3B40053  36.285   8.749   7.050
 7438POPC   C4B40054  36.209   8.732   7.350
 7439POPC   NC340055  30.701  43.159   5.550
 7439POPC   PO440056  30.710  43.063   5.850
 7439POPC   GL140057  30.738  43.064   6.150
 7439POPC   GL240058  30.541  43.064   6.150
 7439POPC   C1A40059  30.706  43.117   6.450
 7439POPC   D2A40060  30.733  43.061   6.750
 7439POPC   C3A40061  30.658  43.085   7.050
 7439POPC   C4A40062  30.729  43.112   7.350
 7439POPC   C1B40063  30.455  43.027   6.450
 7439POPC   C2B40064  30.459  42.958   6.750
 7439POPC   C3B40065  30.518  43.003   7.050
 7439POPC   C4B40066  30.508  42.955   7.350
 7440POPC   NC340067  35.393  16.704   5.550
 7440POPC   PO440068  35.386  16.744   5.850
 7440POPC   GL140069  35.352  16.736   6.150
 7440POPC   GL240070  35.513  16.666   6.150
 7440POPC   C1A40071  35.362  16.698   6.450
 7440POPC   D2A40072  35.331  16.717   6.750
 7440POPC   C3A40073  35.381  16.718   7.050
 7440POPC   C4A40074  35.342  16.759   7.350
 7440POPC   C1B40075  35.569  16.656   6.450
 7440POPC   C2B40076  35.590  16.723   6.750
 7440POPC   C3B40077  35.606  16.633   7.050
 7440POPC   C4B40078  35.560  16.652   7.350
 7441POPC   NC340079  36.104  39.986   5.550
 7441POPC   PO440080  36.173  40.047   5.850
 7441POPC   GL140081  36.171  39.970   6.150
 7441POPC   GL240082  36.287  40.048   6.150
 7441POPC   C1A40083  36.135  40.043   6.450
 7441POPC   D2A40084  36.140  40.038   6.750
 7441POPC   C3A40085  36.143  40.013   7.050
 7441POPC   C4A40086  36.125  40.055   7.350
 7441POPC   C1B40087  36.360  40.047   6.450
 7441POPC   C2B40088  36.390  40.081   6.750
 7441POPC   C3B40089  36.333  40.093   7.050
 7441POPC   C4B40090  36.359  40.056   7.350
 7442POPC   NC340091  25.230  20.607   5.550
 7442POPC   PO440092  25.223  20.645   5.850
 7442POPC   GL140093  25.257  20.614   6.150
 7442POPC   GL240094  25.197  20.645   6.150
 7442POPC   C1A40095  25.241  20.597   6.450
 7442POPC   D2A40096  25.312  20.631   6.750
 7442POPC   C3A40097  25.257  20.604   7.050
 7442POPC   C4A40098  25.269  20.567   7.350
 7442POPC   C1B40099  25.102  20.763   6.450
 7442POPC   C2B40100  25.092  20.768   6.750
 7442POPC   C3B40101  25.102  20.749   7.050
 7442POPC   C4B40102  25.112  20.771   7.350
 7443POPC   NC340103  36.089  32.220   5.550
 7443POPC   PO440104  36.098  32.284   5.850
 7443POPC   GL140105  36.130  32.220   6.150
 7443POPC   GL240106  36.228  32.248   6.150
 7443POPC   C1A40107  36.105  32.260   6.450
 7443POPC   D2A40108  36.118  32.294   6.750
 7443POPC   C3A40109  36.122  32.262   7.050
 7443POPC   C4A40110  36.173  32.258   7.350
 7443POPC   C1B40111  36.402  32.179   6.450
 7443POPC   C2B40112  36.353  32.194   6.750
 7443POPC   C3B40113  36.308  32.148   7.050
 7443POPC   C4B40114  36.390  32.106   7.350
 7444POPC   NC340115  43.856  36.889   5.550
 7444POPC   PO440116  43.905  36.860   5.850
 7444POPC   GL140117  43.859  36.920   6.150
 7444POPC   GL240118  43.955  36.959   6.150
 7444POPC   C1A40119  43.875  36.920   6.450
 7444POPC   D2A40120  43.841  36.906   6.750
 7444POPC   C3A40121  43.854  36.859   7.050
 7444POPC   C4A40122  43.917  36.911   7.350
 7444POPC   C1B40123  44.130  37.046   6.450
 7444POPC   C2B40124  44.062  37.083   6.750
 7444POPC   C3B40125  44.105  37.081   7.050
 7444POPC   C4B40126  44.069  37.021   7.350
 7445POPC   NC340127  34.538  33.040   5.550
 7445POPC   PO440128  34.574  33.051   5.850
 7445POPC   GL140129  34.578  32.994   6.150
 7445POPC   GL240130  34.457  32.968   6.150
 7445POPC   C1A40131  34.567  32.978   6.450
 7445POPC   D2A40132  34.590  33.050   6.750
 7445POPC   C3A40133  34.619  32.982   7.050
 7445POPC   C4A40134  34.592  33.052   7.350
 7445POPC   C1B40135  34.372  32.905   6.450
 7445POPC   C2B40136  34.322  32.952   6.750
 7445POPC   C3B40137  34.318  32.933   7.050
 7445POPC   C4B40138  34.350  32.975   7.350
 7446POPC   NC340139  28.413  33.841   5.550
 7446POPC   PO440140  28.371  33.769   5.850
 7446POPC   GL140141  28.405  33.775   6.150
 7446POPC   GL240142  28.475  33.748   6.150
 7446POPC   C1A40143  28.352  33.764   6.450
 7446POPC   D2A40144  28.385  33.812   6.750
 7446POPC   C3A40145  28.390  33.787   7.050
 7446POPC   C4A40146  28.389  33.780   7.350
 7446POPC   C1B40147  28.605  33.781   6.450
 7446POPC   C2B40148  28.631  33.781   6.750
 7446POPC   C3B40149  28.649  33.823   7.050
 7446POPC   C4B40150  28.579  33.752   7.350
 7447POPC   NC340151  29.925  25.315   5.550
 7447POPC   PO440152  29.968  25.253   5.850
 7447POPC   GL140153  29.920  25.281   6.150
 7447POPC   GL240154  30.045  25.186   6.150
 7447POPC   C1A40155  29.970  25.245   6.450
 7447POPC   D2A40156  29.915  25.227   6.750
 7447POPC   C3A40157  29.913  25.281   7.050
 7447POPC   C4A40158  29.949  25.269   7.350
 7447POPC   C1B40159  30.175  25.089   6.450
 7447POPC   C2B40160  30.093  25.100   6.750
 7447POPC   C3B40161  30.087  25.083   7.050
 7447POPC   C4B40162  30.115  25.088   7.350
 7448POPC   NC340163  36.905  36.941   5.550
 7448POPC   PO440164  36.867  36.893   5.850
 7448POPC   GL140165  36.872  36.854   6.150
 7448POPC   GL240166  37.048  36.915   6.150
 7448POPC   C1A40167  36.881  36.855   6.450
 7448POPC   D2A40168  36.938  36.859   6.750
 7448POPC   C3A40169  36.859  36.934   7.050
 7448POPC   C4A40170  36.864  36.893   7.350
 7448POPC   C1B40171  37.200  36.875   6.450
 7448POPC   C2B40172  37.123  36.921   6.750
 7448POPC   C3B40173  37.183  36.921   7.050
 7448POPC   C4B40174  37.126  36.936   7.350
 7449POPC   NC340175  40.769  26.073   5.550
 7449POPC   PO440176  40.827  26.082   5.850
 7449POPC   GL140177  40.805  26.026   6.150
 7449POPC   GL240178  40.783  26.122   6.150
 7449POPC   C1A40179  40.825  26.043   6.450
 7449POPC   D2A40180  40.782  25.999   6.750
 7449POPC   C3A40181  40.746  26.029   7.050
 7449POPC   C4A40182  40.754  26.087   7.350
 7449POPC   C1B40183  40.818  26.311   6.450
 7449POPC   C2B40184  40.777  26.330   6.750
 7449POPC   C3B40185  40.820  26.314   7.050
 7449POPC   C4B40186  40.804  26.274   7.350
 7450POPC   NC340187   1.165  11.307   5.550
 7450POPC   PO440188   1.202  11.345   5.850
 7450POPC   GL140189   1.206  11.323   6.150
 7450POPC   GL240190   1.074  11.292   6.150
 7450POPC   C1A40191   1.205  11.310   6.450
 7450POPC   D2A40192   1.229  11.271   6.750
 7450POPC   C3A40193   1.260  11.319   7.050
 7450POPC   C4A40194   1.241  11.267   7.350
 7450POPC   C1B40195   1.020  11.242   6.450
 7450POPC   C2B40196   1.006  11.286   6.750
 7450POPC   C3B40197   0.991  11.221   7.050
 7450POPC   C4B40198   1.020  11.213   7.350
 7451POPC   NC340199   4.311  20.635   5.550
 7451POPC   PO440200   4.305  20.580   5.850
 7451POPC   GL140201   4.294  20.609   6.150
 7451POPC   GL240202   4.229  20.644   6.150
 7451POPC   C1A40203   4.292  20.629   6.450
 7451POPC   D2A40204   4.361  20.622   6.750
 7451POPC   C3A40205   4.276  20.578   7.050
 7451POPC   C4A40206   4.325  20.570   7.350
 7451POPC   C1B40207   4.118  20.757   6.450
 7451POPC   C2B40208   4.093  20.792   6.750
 7451POPC   C3B40209   4.103  20.754   7.050
 7451POPC   C4B40210   4.160  20.721   7.350
 7452POPC   NC340211  19.011  36.174   5.550
 7452POPC   PO440212  19.094  36.090   5.850
 7452POPC   GL140213  19.041  36.081   6.150
 7452POPC   GL240214  18.928  36.031   6.150
 7452POPC   C1A40215  19.034  36.157   6.450
 7452POPC   D2A40216  19.029  36.167   6.750
 7452POPC   C3A40217  19.032  36.083   7.050
 7452POPC   C4A40218  19.047  36.165   7.350
 7452POPC   C1B40219  18.878  36.063   6.450
 7452POPC   C2B40220  18.821  36.010   6.750
 7452POPC   C3B40221  18.882  36.012   7.050
 7452POPC   C4B40222  18.789  36.016   7.350
 7453POPC   NC340223  40.019  12.888   5.550
 7453POPC   PO440224  40.001  12.805   5.850
 7453POPC   GL140225  40.045  12.819   6.150
 7453POPC   GL240226  40.002  12.775   6.150
 7453POPC   C1A40227  39.966  12.814   6.450
 7453POPC   D2A40228  40.029  12.878   6.750
 7453POPC   C3A40229  39.964  12.805   7.050
 7453POPC   C4A40230  40.041  12.853   7.350
 7453POPC   C1B40231  39.970  12.642   6.450
 7453POPC   C2B40232  39.918  12.656   6.750
 7453POPC   C3B40233  39.953  12.563   7.050
 7453POPC   C4B40234  39.938  12.653   7.350
 7454POPC   NC340235  25.998  21.377   5.550
 7454POPC   PO440236  26.057  21.375   5.850
 7454POPC   GL140237  26.080  21.360   6.150
 7454POPC   GL240238  26.005  21.230   6.150
 7454POPC   C1A40239  26.036  21.376   6.450
 7454POPC   D2A40240  26.075  21.418   6.750
 7454POPC   C3A40241  26.075  21.418   7.050
 7454POPC   C4A40242  26.020  21.405   7.350
 7454POPC   C1B40243  26.015  21.187   6.450
 7454POPC   C2B40244  25.989  21.181   6.750
 7454POPC   C3B40245  26.009  21.142   7.050
 7454POPC   C4B40246  25.987  21.102   7.350
 7455POPC   NC340247   9.768  26.031   5.550
 7455POPC   PO440248   9.769  26.000   5.850
 7455POPC   GL140249   9.718  26.025   6.150
 7455POPC   GL240250   9.623  26.166   6.150
 7455POPC   C1A40251   9.771  26.077   6.450
 7455POPC   D2A40252   9.730  26.084   6.750
 7455POPC   C3A40253   9.764  26.006   7.050
 7455POPC   C4A40254   9.729  26.053   7.350
 7455POPC   C1B40255   9.607  26.213   6.450
 7455POPC   C2B40256   9.541  26.215   6.750
 7455POPC   C3B40257   9.559  26.177   7.050
 7455POPC   C4B40258   9.603  26.243   7.350
 7456POPC   NC340259  38.494  19.099   5.550
 7456POPC   PO440260  38.411  19.065   5.850
 7456POPC   GL140261  38.485  19.101   6.150
 7456POPC   GL240262  38.373  19.073   6.150
 7456POPC   C1A40263  38.459  19.088   6.450
 7456POPC   D2A40264  38.496  19.105   6.750
 7456POPC   C3A40265  38.453  19.079   7.050
 7456POPC   C4A40266  38.408  19.043   7.350
 7456POPC   C1B40267  38.192  19.210   6.450
 7456POPC   C2B40268  38.207  19.163   6.750
 7456POPC   C3B40269  38.210  19.157   7.050
 7456POPC   C4B40270  38.259  19.148   7.350
 7457POPC   NC340271   2.033  23.760   5.550
 7457POPC   PO440272   1.948  23.692   5.850
 7457POPC   GL140273   1.954  23.687   6.150
 7457POPC   GL240274   2.074  23.638   6.150
 7457POPC   C1A40275   1.962  23.673   6.450
 7457POPC   D2A40276   2.028  23.747   6.750
 7457POPC   C3A40277   2.035  23.750   7.050
 7457POPC   C4A40278   1.941  23.704   7.350
 7457POPC   C1B40279   2.269  23.640   6.450
 7457POPC   C2B40280   2.217  23.672   6.750
 7457POPC   C3B40281   2.261  23.628   7.050
 7457POPC   C4B40282   2.185  23.679   7.350
 7458POPC   NC340283  25.253   8.192   5.550
 7458POPC   PO440284  25.261   8.204   5.850
 7458POPC   GL140285  25.277   8.244   6.150
 7458POPC   GL240286  25.137   8.213   6.150
 7458POPC   C1A40287  25.217   8.214   6.450
 7458POPC   D2A40288  25.237   8.208   6.750
 7458POPC   C3A40289  25.311   8.198   7.050
 7458POPC   C4A40290  25.244   8.150   7.350
 7458POPC   C1B40291  25.014   8.256   6.450
 7458POPC   C2B40292  25.046   8.309   6.750
 7458POPC   C3B40293  25.048   8.244   7.050
 7458POPC   C4B40294  25.075   8.323   7.350
 7459POPC   NC340295  22.210  36.109   5.550
 7459POPC   PO440296  22.155  36.140   5.850
 7459POPC   GL140297  22.200  36.109   6.150
 7459POPC   GL240298  22.143  35.988   6.150
 7459POPC   C1A40299  22.115  36.111   6.450
 7459POPC   D2A40300  22.185  36.119   6.750
 7459POPC   C3A40301  22.141  36.146   7.050
 7459POPC   C4A40302  22.193  36.101   7.350
 7459POPC   C1B40303  22.237  35.930   6.450
 7459POPC   C2B40304  22.200  35.833   6.750
 7459POPC   C3B40305  22.230  35.867   7.050
 7459POPC   C4B40306  22.216  35.923   7.350
 7460POPC   NC340307  37.680  22.127   5.550
 7460POPC   PO440308  37.667  22.145   5.850
 7460POPC   GL140309  37.686  22.116   6.150
 7460POPC   GL240310  37.716  22.261   6.150
 7460POPC   C1A40311  37.721  22.204   6.450
 7460POPC   D2A40312  37.692  22.156   6.750
 7460POPC   C3A40313  37.704  22.158   7.050
 7460POPC   C4A40314  37.642  22.156   7.350
 7460POPC   C1B40315  37.675  22.433   6.450
 7460POPC   C2B40316  37.661  22.374   6.750
 7460POPC   C3B40317  37.654  22.446   7.050
 7460POPC   C4B40318  37.692  22.460   7.350
 7461POPC   NC340319  19.837   4.339   5.550
 7461POPC   PO440320  19.823   4.288   5.850
 7461POPC   GL140321  19.841   4.267   6.150
 7461POPC   GL240322  19.721   4.448   6.150
 7461POPC   C1A40323  19.857   4.315   6.450
 7461POPC   D2A40324  19.824   4.290   6.750
 7461POPC   C3A40325  19.831   4.292   7.050
 7461POPC   C4A40326  19.819   4.365   7.350
 7461POPC   C1B40327  19.691   4.500   6.450
 7461POPC   C2B40328  19.724   4.497   6.750
 7461POPC   C3B40329  19.739   4.494   7.050
 7461POPC   C4B40330  19.687   4.499   7.350
 7462POPC   NC340331  10.537  32.233   5.550
 7462POPC   PO440332  10.533  32.234   5.850
 7462POPC   GL140333  10.533  32.229   6.150
 7462POPC   GL240334  10.628  32.382   6.150
 7462POPC   C1A40335  10.530  32.206   6.450
 7462POPC   D2A40336  10.510  32.289   6.750
 7462POPC   C3A40337  10.478  32.279   7.050
 7462POPC   C4A40338  10.553  32.296   7.350
 7462POPC   C1B40339  10.709  32.387   6.450
 7462POPC   C2B40340  10.669  32.433   6.750
 7462POPC   C3B40341  10.679  32.379   7.050
 7462POPC   C4B40342  10.664  32.451   7.350
 7463POPC   NC340343  34.605   7.392   5.550
 7463POPC   PO440344  34.613   7.413   5.850
 7463POPC   GL140345  34.567   7.438   6.150
 7463POPC   GL240346  34.526   7.315   6.150
 7463POPC   C1A40347  34.547   7.414   6.450
 7463POPC   D2A40348  34.579   7.408   6.750
 7463POPC   C3A40349  34.611   7.463   7.050
 7463POPC   C4A40350  34.577   7.409   7.350
 7463POPC   C1B40351  34.579   7.210   6.450
 7463POPC   C2B40352  34.536   7.139   6.750
 7463POPC   C3B40353  34.566   7.128   7.050
 7463POPC   C4B40354  34.561   7.158   7.350
 7464POPC   NC340355  33.785  29.878   5.550
 7464POPC   PO440356  33.770  29.942   5.850
 7464POPC   GL140357  33.828  29.931   6.150
 7464POPC   GL240358  33.686  29.979   6.150
 7464POPC   C1A40359  33.773  29.922   6.450
 7464POPC   D2A40360  33.803  29.949   6.750
 7464POPC   C3A40361  33.847  29.920   7.050
 7464POPC   C4A40362  33.825  29.957   7.350
 7464POPC   C1B40363  33.524  29.964   6.450
 7464POPC   C2B40364  33.564  29.972   6.750
 7464POPC   C3B40365  33.528  29.927   7.050
 7464POPC   C4B40366  33.584  29.936   7.350
 7465POPC   NC340367  34.599  34.608   5.550
 7465POPC   PO440368  34.600  34.563   5.850
 7465POPC   GL140369  34.575  34.597   6.150
 7465POPC   GL240370  34.595  34.676   6.150
 7465POPC   C1A40371  34.536  34.578   6.450
 7465POPC   D2A40372  34.624  34.530   6.750
 7465POPC   C3A40373  34.528  34.532   7.050
 7465POPC   C4A40374  34.574  34.549   7.350
 7465POPC   C1B40375  34.555  34.851   6.450
 7465POPC   C2B40376  34.492  34.776   6.750
 7465POPC   C3B40377  34.477  34.835   7.050
 7465POPC   C4B40378  34.523  34.812   7.350
 7466POPC   NC340379  17.547  11.300   5.550
 7466POPC   PO440380  17.554  11.329   5.850
 7466POPC   GL140381  17.541  11.290   6.150
 7466POPC   GL240382  17.573  11.365   6.150
 7466POPC   C1A40383  17.548  11.341   6.450
 7466POPC   D2A40384  17.481  11.282   6.750
 7466POPC   C3A40385  17.463  11.306   7.050
 7466POPC   C4A40386  17.538  11.332   7.350
 7466POPC   C1B40387  17.686  11.509   6.450
 7466POPC   C2B40388  17.662  11.457   6.750
 7466POPC   C3B40389  17.662  11.523   7.050
 7466POPC   C4B40390  17.674  11.483   7.350
 7467POPC   NC340391  39.980  40.017   5.550
 7467POPC   PO440392  39.974  39.962   5.850
 7467POPC   GL140393  39.972  40.007   6.150
 7467POPC   GL240394  40.131  39.889   6.150
 7467POPC   C1A40395  39.966  40.053   6.450
 7467POPC   D2A40396  40.027  40.027   6.750
 7467POPC   C3A40397  40.018  39.997   7.050
 7467POPC   C4A40398  39.981  39.970   7.350
 7467POPC   C1B40399  40.145  39.775   6.450
 7467POPC   C2B40400  40.206  39.765   6.750
 7467POPC   C3B40401  40.133  39.797   7.050
 7467POPC   C4B40402  40.188  39.791   7.350
 7468POPC   NC340403   2.024  43.105   5.550
 7468POPC   PO440404   2.036  43.090   5.850
 7468POPC   GL140405   1.962  43.062   6.150
 7468POPC   GL240406   1.873  43.024   6.150
 7468POPC   C1A40407   1.949  43.110   6.450
 7468POPC   D2A40408   1.967  43.115   6.750
 7468POPC   C3A40409   1.953  43.147   7.050
 7468POPC   C4A40410   2.034  43.125   7.350
 7468POPC   C1B40411   1.755  43.008   6.450
 7468POPC   C2B40412   1.723  43.012   6.750
 7468POPC   C3B40413   1.792  43.014   7.050
 7468POPC   C4B40414   1.766  43.050   7.350
 7469POPC   NC340415  28.419   8.192   5.550
 7469POPC   PO440416  28.376   8.235   5.850
 7469POPC   GL140417  28.382   8.204   6.150
 7469POPC   GL240418  28.300   8.256   6.150
 7469POPC   C1A40419  28.384   8.234   6.450
 7469POPC   D2A40420  28.326   8.212   6.750
 7469POPC   C3A40421  28.355   8.218   7.050
 7469POPC   C4A40422  28.342   8.163   7.350
 7469POPC   C1B40423  28.148   8.240   6.450
 7469POPC   C2B40424  28.131   8.315   6.750
 7469POPC   C3B40425  28.147   8.286   7.050
 7469POPC   C4B40426  28.095   8.275   7.350
 7470POPC   NC340427   1.948  17.548   5.550
 7470POPC   PO440428   2.035  17.482   5.850
 7470POPC   GL140429   1.950  17.556   6.150
 7470POPC   GL240430   1.862  17.448   6.150
 7470POPC   C1A40431   1.958  17.501   6.450
 7470POPC   D2A40432   1.980  17.523   6.750
 7470POPC   C3A40433   1.957  17.541   7.050
 7470POPC   C4A40434   1.995  17.489   7.350
 7470POPC   C1B40435   1.719  17.422   6.450
 7470POPC   C2B40436   1.780  17.367   6.750
 7470POPC   C3B40437   1.805  17.395   7.050
 7470POPC   C4B40438   1.753  17.395   7.350
 7471POPC   NC340439  31.512  20.616   5.550
 7471POPC   PO440440  31.465  20.574   5.850
 7471POPC   GL140441  31.457  20.642   6.150
 7471POPC   GL240442  31.503  20.757   6.150
 7471POPC   C1A40443  31.482  20.655   6.450
 7471POPC   D2A40444  31.434  20.577   6.750
 7471POPC   C3A40445  31.429  20.580   7.050
 7471POPC   C4A40446  31.517  20.612   7.350
 7471POPC   C1B40447  31.556  20.837   6.450
 7471POPC   C2B40448  31.566  20.851   6.750
 7471POPC   C3B40449  31.547  20.837   7.050
 7471POPC   C4B40450  31.564  20.817   7.350
 7472POPC   NC340451  36.132  12.097   5.550
 7472POPC   PO440452  36.154  12.032   5.850
 7472POPC   GL140453  36.096  12.078   6.150
 7472POPC   GL240454  36.035  11.929   6.150
 7472POPC   C1A40455  36.097  12.062   6.450
 7472POPC   D2A40456  36.094  12.030   6.750
 7472POPC   C3A40457  36.120  12.029   7.050
 7472POPC   C4A40458  36.116  12.093   7.350
 7472POPC   C1B40459  35.991  11.837   6.450
 7472POPC   C2B40460  36.063  11.901   6.750
 7472POPC   C3B40461  35.981  11.897   7.050
 7472POPC   C4B40462  35.991  11.854   7.350
 7473POPC   NC340463  16.712  36.112   5.550
 7473POPC   PO440464  16.754  36.167   5.850
 7473POPC   GL140465  16.743  36.081   6.150
 7473POPC   GL240466  16.776  36.071   6.150
 7473POPC   C1A40467  16.706  36.084   6.450
 7473POPC   D2A40468  16.744  36.084   6.750
 7473POPC   C3A40469  16.752  36.083   7.050
 7473POPC   C4A40470  16.700  36.173   7.350
 7473POPC   C1B40471  16.846  35.927   6.450
 7473POPC   C2B40472  16.852  35.959   6.750
 7473POPC   C3B40473  16.824  35.914   7.050
 7473POPC   C4B40474  16.891  35.937   7.350
 7474POPC   NC340475  43.849  36.107   5.550
 7474POPC   PO440476  43.870  36.128   5.850
 7474POPC   GL140477  43.857  36.140   6.150
 7474POPC   GL240478  44.025  36.163   6.150
 7474POPC   C1A40479  43.870  36.156   6.450
 7474POPC   D2A40480  43.903  36.158   6.750
 7474POPC   C3A40481  43.925  36.143   7.050
 7474POPC   C4A40482  43.842  36.131   7.350
 7474POPC   C1B40483  44.093  36.255   6.450
 7474POPC   C2B40484  44.114  36.272   6.750
 7474POPC   C3B40485  44.097  36.285   7.050
 7474POPC   C4B40486  44.076  36.243   7.350
 7475POPC   NC340487  33.016  32.219   5.550
 7475POPC   PO440488  33.069  32.258   5.850
 7475POPC   GL140489  32.992  32.219   6.150
 7475POPC   GL240490  33.149  32.314   6.150
 7475POPC   C1A40491  32.991  32.298   6.450
 7475POPC   D2A40492  33.062  32.262   6.750
 7475POPC   C3A40493  33.000  32.228   7.050
 7475POPC   C4A40494  33.003  32.239   7.350
 7475POPC   C1B40495  33.254  32.450   6.450
 7475POPC   C2B40496  33.230  32.425   6.750
 7475POPC   C3B40497  33.255  32.391   7.050
 7475POPC   C4B40498  33.270  32.373   7.350
 7476POPC   NC340499  44.691  27.577   5.550
 7476POPC   PO440500  44.710  27.636   5.850
 7476POPC   GL140501  44.645  27.591   6.150
 7476POPC   GL240502  44.767  27.624   6.150
 7476POPC   C1A40503  44.661  27.633   6.450
 7476POPC   D2A40504  44.696  27.633   6.750
 7476POPC   C3A40505  44.683  27.635   7.050
 7476POPC   C4A40506  44.648  27.546   7.350
 7476POPC   C1B40507  44.935  27.581   6.450
 7476POPC   C2B40508  44.868  27.621   6.750
 7476POPC   C3B40509  44.924  27.611   7.050
 7476POPC   C4B40510  44.939  27.625   7.350
 7477POPC   NC340511   8.190  24.441   5.550
 7477POPC   PO440512   8.218  24.504   5.850
 7477POPC   GL140513   8.150  24.534   6.150
 7477POPC   GL240514   8.331  24.533   6.150
 7477POPC   C1A40515   8.179  24.457   6.450
 7477POPC   D2A40516   8.207  24.512   6.750
 7477POPC   C3A40517   8.215  24.531   7.050
 7477POPC   C4A40518   8.170  24.535   7.350
 7477POPC   C1B40519   8.466  24.541   6.450
 7477POPC   C2B40520   8.483  24.498   6.750
 7477POPC   C3B40521   8.399  24.464   7.050
 7477POPC   C4B40522   8.484  24.507   7.350
 7478POPC   NC340523  26.072  37.701   5.550
 7478POPC   PO440524  26.042  37.668   5.850
 7478POPC   GL140525  26.067  37.689   6.150
 7478POPC   GL240526  26.089  37.567   6.150
 7478POPC   C1A40527  26.041  37.661   6.450
 7478POPC   D2A40528  25.997  37.639   6.750
 7478POPC   C3A40529  26.012  37.718   7.050
 7478POPC   C4A40530  26.008  37.641   7.350
 7478POPC   C1B40531  26.162  37.448   6.450
 7478POPC   C2B40532  26.151  37.419   6.750
 7478POPC   C3B40533  26.141  37.490   7.050
 7478POPC   C4B40534  26.135  37.438   7.350
 7479POPC   NC340535  18.234  34.581   5.550
 7479POPC   PO440536  18.328  34.599   5.850
 7479POPC   GL140537  18.252  34.565   6.150
 7479POPC   GL240538  18.416  34.529   6.150
 7479POPC   C1A40539  18.292  34.526   6.450
 7479POPC   D2A40540  18.266  34.552   6.750
 7479POPC   C3A40541  18.297  34.624   7.050
 7479POPC   C4A40542  18.330  34.606   7.350
 7479POPC   C1B40543  18.499  34.450   6.450
 7479POPC   C2B40544  18.434  34.402   6.750
 7479POPC   C3B40545  18.429  34.438   7.050
 7479POPC   C4B40546  18.516  34.384   7.350
 7480POPC   NC340547  41.548  40.785   5.550
 7480POPC   PO440548  41.530  40.746   5.850
 7480POPC   GL140549  41.564  40.745   6.150
 7480POPC   GL240550  41.512  40.722   6.150
 7480POPC   C1A40551  41.583  40.746   6.450
 7480POPC   D2A40552  41.509  40.817   6.750
 7480POPC   C3A40553  41.522  40.738   7.050
 7480POPC   C4A40554  41.546  40.825   7.350
 7480POPC   C1B40555  41.458  40.598   6.450
 7480POPC   C2B40556  41.371  40.573   6.750
 7480POPC   C3B40557  41.387  40.559   7.050
 7480POPC   C4B40558  41.459  40.589   7.350
 7481POPC   NC340559  36.901  20.647   5.550
 7481POPC   PO440560  36.862  20.591   5.850
 7481POPC   GL140561  36.879  20.652   6.150
 7481POPC   GL240562  36.999  20.544   6.150
 7481POPC   C1A40563  36.899  20.613   6.450
 7481POPC   D2A40564  36.898  20.576   6.750
 7481POPC   C3A40565  36.900  20.636   7.050
 7481POPC   C4A40566  36.863  20.561   7.350
 7481POPC   C1B40567  37.161  20.577   6.450
 7481POPC   C2B40568  37.156  20.589   6.750
 7481POPC   C3B40569  37.182  20.590   7.050
 7481POPC   C4B40570  37.100  20.562   7.350
 7482POPC   NC340571  33.796  28.389   5.550
 7482POPC   PO440572  33.767  28.361   5.850
 7482POPC   GL140573  33.778  28.388   6.150
 7482POPC   GL240574  33.644  28.372   6.150
 7482POPC   C1A40575  33.808  28.319   6.450
 7482POPC   D2A40576  33.813  28.344   6.750
 7482POPC   C3A40577  33.827  28.328   7.050
 7482POPC   C4A40578  33.842  28.370   7.350
 7482POPC   C1B40579  33.555  28.435   6.450
 7482POPC   C2B40580  33.543  28.406   6.750
 7482POPC   C3B40581  33.524  28.455   7.050
 7482POPC   C4B40582  33.587  28.397   7.350
 7483POPC   NC340583  40.767  14.403   5.550
 7483POPC   PO440584  40.789  14.451   5.850
 7483POPC   GL140585  40.800  14.445   6.150
 7483POPC   GL240586  40.832  14.562   6.150
 7483POPC   C1A40587  40.812  14.425   6.450
 7483POPC   D2A40588  40.770  14.400   6.750
 7483POPC   C3A40589  40.756  14.356   7.050
 7483POPC   C4A40590  40.744  14.443   7.350
 7483POPC   C1B40591  40.835  14.625   6.450
 7483POPC   C2B40592  40.870  14.628   6.750
 7483POPC   C3B40593  40.818  14.645   7.050
 7483POPC   C4B40594  40.889  14.640   7.350
 7484POPC   NC340595  30.665  26.856   5.550
 7484POPC   PO440596  30.729  26.813   5.850
 7484POPC   GL140597  30.746  26.851   6.150
 7484POPC   GL240598  30.701  26.902   6.150
 7484POPC   C1A40599  30.736  26.842   6.450
 7484POPC   D2A40600  30.717  26.862   6.750
 7484POPC   C3A40601  30.703  26.818   7.050
 7484POPC   C4A40602  30.709  26.822   7.350
 7484POPC   C1B40603  30.790  27.007   6.450
 7484POPC   C2B40604  30.799  27.012   6.750
 7484POPC   C3B40605  30.794  27.091   7.050
 7484POPC   C4B40606  30.794  27.015   7.350
 7485POPC   NC340607  43.149  32.298   5.550
 7485POPC   PO440608  43.080  32.201   5.850
 7485POPC   GL140609  43.113  32.225   6.150
 7485POPC   GL240610  43.037  32.256   6.150
 7485POPC   C1A40611  43.071  32.261   6.450
 7485POPC   D2A40612  43.148  32.283   6.750
 7485POPC   C3A40613  43.107  32.223   7.050
 7485POPC   C4A40614  43.116  32.275   7.350
 7485POPC   C1B40615  42.871  32.311   6.450
 7485POPC   C2B40616  42.857  32.345   6.750
 7485POPC   C3B40617  42.832  32.314   7.050
 7485POPC   C4B40618  42.868  32.274   7.350
 7486POPC   NC340619   0.454  30.712   5.550
 7486POPC   PO440620   0.403  30.728   5.850
 7486POPC   GL140621   0.439  30.735   6.150
 7486POPC   GL240622   0.542  30.656   6.150
 7486POPC   C1A40623   0.415  30.745   6.450
 7486POPC   D2A40624   0.453  30.697   6.750
 7486POPC   C3A40625   0.421  30.653   7.050
 7486POPC   C4A40626   0.431  30.745   7.350
 7486POPC   C1B40627   0.641  30.514   6.450
 7486POPC   C2B40628   0.660  30.515   6.750
 7486POPC   C3B40629   0.610  30.561   7.050
 7486POPC   C4B40630   0.577  30.508   7.350
 7487POPC   NC340631   8.981  44.684   5.550
 7487POPC   PO440632   8.958  44.691   5.850
 7487POPC   GL140633   8.978  44.693   6.150
 7487POPC   GL240634   9.036  44.754   6.150
 7487POPC   C1A40635   8.965  44.671   6.450
 7487POPC   D2A40636   9.020  44.651   6.750
 7487POPC   C3A40637   8.968  44.702   7.050
 7487POPC   C4A40638   8.963  44.629   7.350
 7487POPC   C1B40639   9.082  44.928   6.450
 7487POPC   C2B40640   9.080  44.855   6.750
 7487POPC   C3B40641   9.019  44.870   7.050
 7487POPC   C4B40642   9.057  44.868   7.350
 7488POPC   NC340643  12.113  36.092   5.550
 7488POPC   PO440644  12.112  36.125   5.850
 7488POPC   GL140645  12.071  36.109   6.150
 7488POPC   GL240646  12.029  36.074   6.150
 7488POPC   C1A40647  12.114  36.153   6.450
 7488POPC   D2A40648  12.119  36.129   6.750
 7488POPC   C3A40649  12.063  36.124   7.050
 7488POPC   C4A40650  12.076  36.099   7.350
 7488POPC   C1B40651  11.880  35.945   6.450
 7488POPC   C2B40652  11.879  35.892   6.750
 7488POPC   C3B40653  11.926  35.914   7.050
 7488POPC   C4B40654  11.948  35.919   7.350
 7489POPC   NC340655  34.616   8.236   5.550
 7489POPC   PO440656  34.587   8.210   5.850
 7489POPC   GL140657  34.616   8.158   6.150
 7489POPC   GL240658  34.428   8.164   6.150
 7489POPC   C1A40659  34.565   8.205   6.450
 7489POPC   D2A40660  34.595   8.212   6.750
 7489POPC   C3A40661  34.566   8.197   7.050
 7489POPC   C4A40662  34.561   8.182   7.350
 7489POPC   C1B40663  34.351   8.066   6.450
 7489POPC   C2B40664  34.366   8.053   6.750
 7489POPC   C3B40665  34.370   8.102   7.050
 7489POPC   C4B40666  34.303   8.135   7.350
 7490POPC   NC340667  12.062  25.265   5.550
 7490POPC   PO440668  12.033  25.252   5.850
 7490POPC   GL140669  12.107  25.231   6.150
 7490POPC   GL240670  12.166  25.263   6.150
 7490POPC   C1A40671  12.051  25.265   6.450
 7490POPC   D2A40672  12.105  25.258   6.750
 7490POPC   C3A40673  12.083  25.264   7.050
 7490POPC   C4A40674  12.063  25.306   7.350
 7490POPC   C1B40675  12.331  25.250   6.450
 7490POPC   C2B40676  12.277  25.318   6.750
 7490POPC   C3B40677  12.314  25.271   7.050
 7490POPC   C4B40678  12.322  25.302   7.350
 7491POPC   NC340679  36.916  14.425   5.550
 7491POPC   PO440680  36.859  14.409   5.850
 7491POPC   GL140681  36.917  14.383   6.150
 7491POPC   GL240682  36.749  14.476   6.150
 7491POPC   C1A40683  36.869  14.389   6.450
 7491POPC   D2A40684  36.896  14.450   6.750
 7491POPC   C3A40685  36.873  14.397   7.050
 7491POPC   C4A40686  36.873  14.358   7.350
 7491POPC   C1B40687  36.696  14.432   6.450
 7491POPC   C2B40688  36.654  14.488   6.750
 7491POPC   C3B40689  36.621  14.528   7.050
 7491POPC   C4B40690  36.648  14.465   7.350
 7492POPC   NC340691   1.221  30.730   5.550
 7492POPC   PO440692   1.175  30.715   5.850
 7492POPC   GL140693   1.239  30.701   6.150
 7492POPC   GL240694   1.373  30.681   6.150
 7492POPC   C1A40695   1.207  30.699   6.450
 7492POPC   D2A40696   1.183  30.713   6.750
 7492POPC   C3A40697   1.223  30.682   7.050
 7492POPC   C4A40698   1.182  30.708   7.350
 7492POPC   C1B40699   1.421  30.682   6.450
 7492POPC   C2B40700   1.488  30.748   6.750
 7492POPC   C3B40701   1.437  30.708   7.050
 7492POPC   C4B40702   1.454  30.682   7.350
 7493POPC   NC340703  24.453   8.209   5.550
 7493POPC   PO440704  24.497   8.218   5.850
 7493POPC   GL140705  24.458   8.197   6.150
 7493POPC   GL240706  24.368   8.162   6.150
 7493POPC   C1A40707  24.502   8.147   6.450
 7493POPC   D2A40708  24.506   8.224   6.750
 7493POPC   C3A40709  24.516   8.166   7.050
 7493POPC   C4A40710  24.495   8.185   7.350
 7493POPC   C1B40711  24.208   8.072   6.450
 7493POPC   C2B40712  24.276   8.118   6.750
 7493POPC   C3B40713  24.246   8.157   7.050
 7493POPC   C4B40714  24.226   8.116   7.350
 7494POPC   NC340715  41.548   4.286   5.550
 7494POPC   PO440716  41.565   4.297   5.850
 7494POPC   GL140717  41.528   4.361   6.150
 7494POPC   GL240718  41.527   4.240   6.150
 7494POPC   C1A40719  41.596   4.345   6.450
 7494POPC   D2A40720  41.571   4.300   6.750
 7494POPC   C3A40721  41.574   4.336   7.050
 7494POPC   C4A40722  41.580   4.354   7.350
 7494POPC   C1B40723  41.415   4.130   6.450
 7494POPC   C2B40724  41.358   4.146   6.750
 7494POPC   C3B40725  41.353   4.126   7.050
 7494POPC   C4B40726  41.372   4.133   7.350
 7495POPC   NC340727  22.174  37.717   5.550
 7495POPC   PO440728  22.202  37.666   5.850
 7495POPC   GL140729  22.129  37.713   6.150
 7495POPC   GL240730  22.150  37.601   6.150
 7495POPC   C1A40731  22.187  37.661   6.450
 7495POPC   D2A40732  22.148  37.657   6.750
 7495POPC   C3A40733  22.126  37.712   7.050
 7495POPC   C4A40734  22.199  37.653   7.350
 7495POPC   C1B40735  22.195  37.450   6.450
 7495POPC   C2B40736  22.204  37.475   6.750
 7495POPC   C3B40737  22.229  37.447   7.050
 7495POPC   C4B40738  22.168  37.399   7.350
 7496POPC   NC340739   0.459  32.262   5.550
 7496POPC   PO440740   0.472  32.211   5.850
 7496POPC   GL140741   0.392  32.261   6.150
 7496POPC   GL240742   0.342  32.385   6.150
 7496POPC   C1A40743   0.472  32.229   6.450
 7496POPC   D2A40744   0.420  32.297   6.750
 7496POPC   C3A40745   0.459  32.272   7.050
 7496POPC   C4A40746   0.391  32.255   7.350
 7496POPC   C1B40747   0.329  32.436   6.450
 7496POPC   C2B40748   0.309  32.430   6.750
 7496POPC   C3B40749   0.265  32.397   7.050
 7496POPC   C4B40750   0.274  32.485   7.350
 7497POPC   NC340751  10.498  12.088   5.550
 7497POPC   PO440752  10.486  12.073   5.850
 7497POPC   GL140753  10.531  12.096   6.150
 7497POPC   GL240754  10.535  12.195   6.150
 7497POPC   C1A40755  10.498  12.064   6.450
 7497POPC   D2A40756  10.490  12.041   6.750
 7497POPC   C3A40757  10.481  12.098   7.050
 7497POPC   C4A40758  10.549  12.084   7.350
 7497POPC   C1B40759  10.439  12.305   6.450
 7497POPC   C2B40760  10.489  12.364   6.750
 7497POPC   C3B40761  10.481  12.362   7.050
 7497POPC   C4B40762  10.507  12.326   7.350
 7498POPC   NC340763  35.351  18.279   5.550
 7498POPC   PO440764  35.380  18.298   5.850
 7498POPC   GL140765  35.380  18.297   6.150
 7498POPC   GL240766  35.492  18.242   6.150
 7498POPC   C1A40767  35.362  18.316   6.450
 7498POPC   D2A40768  35.315  18.274   6.750
 7498POPC   C3A40769  35.338  18.307   7.050
 7498POPC   C4A40770  35.342  18.263   7.350
 7498POPC   C1B40771  35.620  18.281   6.450
 7498POPC   C2B40772  35.618  18.273   6.750
 7498POPC   C3B40773  35.561  18.306   7.050
 7498POPC   C4B40774  35.594  18.273   7.350
 7499POPC   NC340775  38.439  37.697   5.550
 7499POPC   PO440776  38.463  37.638   5.850
 7499POPC   GL140777  38.457  37.723   6.150
 7499POPC   GL240778  38.386  37.567   6.150
 7499POPC   C1A40779  38.436  37.641   6.450
 7499POPC   D2A40780  38.463  37.665   6.750
 7499POPC   C3A40781  38.473  37.701   7.050
 7499POPC   C4A40782  38.454  37.637   7.350
 7499POPC   C1B40783  38.360  37.421   6.450
 7499POPC   C2B40784  38.371  37.455   6.750
 7499POPC   C3B40785  38.357  37.482   7.050
 7499POPC   C4B40786  38.409  37.456   7.350
 7500POPC   NC340787  33.815  19.096   5.550
 7500POPC   PO440788  33.839  19.045   5.850
 7500POPC   GL140789  33.820  19.072   6.150
 7500POPC   GL240790  33.798  19.224   6.150
 7500POPC   C1A40791  33.793  19.106   6.450
 7500POPC   D2A40792  33.768  19.050   6.750
 7500POPC   C3A40793  33.756  19.078   7.050
 7500POPC   C4A40794  33.840  19.091   7.350
 7500POPC   C1B40795  33.692  19.277   6.450
 7500POPC   C2B40796  33.751  19.270   6.750
 7500POPC   C3B40797  33.777  19.253   7.050
 7500POPC   C4B40798  33.733  19.261   7.350
 7501POPC   NC340799  15.163  26.020   5.550
 7501POPC   PO440800  15.176  25.995   5.850
 7501POPC   GL140801  15.225  26.017   6.150
 7501POPC   GL240802  15.081  25.992   6.150
 7501POPC   C1A40803  15.211  26.017   6.450
 7501POPC   D2A40804  15.181  26.024   6.750
 7501POPC   C3A40805  15.198  26.005   7.050
 7501POPC   C4A40806  15.190  26.016   7.350
 7501POPC   C1B40807  14.968  25.851   6.450
 7501POPC   C2B40808  15.036  25.871   6.750
 7501POPC   C3B40809  15.000  25.884   7.050
 7501POPC   C4B40810  14.969  25.875   7.350
 7502POPC   NC340811  13.675  43.142   5.550
 7502POPC   PO440812  13.666  43.065   5.850
 7502POPC   GL140813  13.641  43.062   6.150
 7502POPC   GL240814  13.512  43.131   6.150
 7502POPC   C1A40815  13.602  43.062   6.450
 7502POPC   D2A40816  13.636  43.084   6.750
 7502POPC   C3A40817  13.639  43.079   7.050
 7502POPC   C4A40818  13.647  43.087   7.350
 7502POPC   C1B40819  13.435  43.207   6.450
 7502POPC   C2B40820  13.370  43.140   6.750
 7502POPC   C3B40821  13.433  43.155   7.050
 7502POPC   C4B40822  13.363  43.171   7.350
 7503POPC   NC340823  18.267  26.806   5.550
 7503POPC   PO440824  18.296  26.804   5.850
 7503POPC   GL140825  18.281  26.776   6.150
 7503POPC   GL240826  18.358  26.958   6.150
 7503POPC   C1A40827  18.317  26.798   6.450
 7503POPC   D2A40828  18.277  26.850   6.750
 7503POPC   C3A40829  18.300  26.833   7.050
 7503POPC   C4A40830  18.310  26.829   7.350
 7503POPC   C1B40831  18.379  27.004   6.450
 7503POPC   C2B40832  18.345  27.014   6.750
 7503POPC   C3B40833  18.416  27.005   7.050
 7503POPC   C4B40834  18.362  26.997   7.350
 7504POPC   NC340835  26.086  30.680   5.550
 7504POPC   PO440836  25.996  30.671   5.850
 7504POPC   GL140837  26.018  30.732   6.150
 7504POPC   GL240838  25.992  30.767   6.150
 7504POPC   C1A40839  26.038  30.739   6.450
 7504POPC   D2A40840  26.009  30.720   6.750
 7504POPC   C3A40841  26.026  30.655   7.050
 7504POPC   C4A40842  25.996  30.721   7.350
 7504POPC   C1B40843  25.899  30.905   6.450
 7504POPC   C2B40844  25.841  30.835   6.750
 7504POPC   C3B40845  25.857  30.922   7.050
 7504POPC   C4B40846  25.825  30.889   7.350
 7505POPC   NC340847   6.668  14.409   5.550
 7505POPC   PO440848   6.660  14.405   5.850
 7505POPC   GL140849   6.694  14.404   6.150
 7505POPC   GL240850   6.614  14.286   6.150
 7505POPC   C1A40851   6.686  14.427   6.450
 7505POPC   D2A40852   6.679  14.410   6.750
 7505POPC   C3A40853   6.675  14.381   7.050
 7505POPC   C4A40854   6.675  14.358   7.350
 7505POPC   C1B40855   6.564  14.212   6.450
 7505POPC   C2B40856   6.548  14.134   6.750
 7505POPC   C3B40857   6.528  14.177   7.050
 7505POPC   C4B40858   6.507  14.201   7.350
 7506POPC   NC340859  23.744  22.170   5.550
 7506POPC   PO440860  23.752  22.117   5.850
 7506POPC   GL140861  23.731  22.209   6.150
 7506POPC   GL240862  23.590  22.101   6.150
 7506POPC   C1A40863  23.672  22.186   6.450
 7506POPC   D2A40864  23.677  22.194   6.750
 7506POPC   C3A40865  23.750  22.121   7.050
 7506POPC   C4A40866  23.709  22.172   7.350
 7506POPC   C1B40867  23.442  22.077   6.450
 7506POPC   C2B40868  23.483  22.049   6.750
 7506POPC   C3B40869  23.456  22.051   7.050
 7506POPC   C4B40870  23.456  22.062   7.350
 7507POPC   NC340871  22.938  38.488   5.550
 7507POPC   PO440872  22.897  38.501   5.850
 7507POPC   GL140873  22.954  38.452   6.150
 7507POPC   GL240874  23.004  38.402   6.150
 7507POPC   C1A40875  22.892  38.431   6.450
 7507POPC   D2A40876  22.950  38.426   6.750
 7507POPC   C3A40877  22.900  38.411   7.050
 7507POPC   C4A40878  22.929  38.407   7.350
 7507POPC   C1B40879  23.164  38.354   6.450
 7507POPC   C2B40880  23.167  38.372   6.750
 7507POPC   C3B40881  23.160  38.296   7.050
 7507POPC   C4B40882  23.196  38.368   7.350
 7508POPC   NC340883  44.634   8.213   5.550
 7508POPC   PO440884  44.705   8.236   5.850
 7508POPC   GL140885  44.658   8.191   6.150
 7508POPC   GL240886  44.598   8.322   6.150
 7508POPC   C1A40887  44.648   8.186   6.450
 7508POPC   D2A40888  44.643   8.168   6.750
 7508POPC   C3A40889  44.616   8.205   7.050
 7508POPC   C4A40890  44.681   8.197   7.350
 7508POPC   C1B40891  44.498   8.408   6.450
 7508POPC   C2B40892  44.445   8.364   6.750
 7508POPC   C3B40893  44.496   8.335   7.050
 7508POPC   C4B40894  44.453   8.360   7.350
 7509POPC   NC340895   5.895  25.277   5.550
 7509POPC   PO440896   5.874  25.249   5.850
 7509POPC   GL140897   5.842  25.227   6.150
 7509POPC   GL240898   5.987  25.216   6.150
 7509POPC   C1A40899   5.864  25.275   6.450
 7509POPC   D2A40900   5.822  25.251   6.750
 7509POPC   C3A40901   5.865  25.216   7.050
 7509POPC   C4A40902   5.896  25.252   7.350
 7509POPC   C1B40903   6.104  25.208   6.450
 7509POPC   C2B40904   6.081  25.217   6.750
 7509POPC   C3B40905   6.077  25.217   7.050
 7509POPC   C4B40906   6.071  25.238   7.350
 7510POPC   NC340907  32.237  30.668   5.550
 7510POPC   PO440908  32.225  30.668   5.850
 7510POPC   GL140909  32.207  30.647   6.150
 7510POPC   GL240910  32.162  30.819   6.150
 7510POPC   C1A40911  32.232  30.687   6.450
 7510POPC   D2A40912  32.282  30.651   6.750
 7510POPC   C3A40913  32.206  30.657   7.050
 7510POPC   C4A40914  32.210  30.679   7.350
 7510POPC   C1B40915  32.053  30.924   6.450
 7510POPC   C2B40916  32.056  30.861   6.750
 7510POPC   C3B40917  32.062  30.843   7.050
 7510POPC   C4B40918  32.091  30.909   7.350
 7511POPC   NC340919   5.107  38.439   5.550
 7511POPC   PO440920   5.084  38.458   5.850
 7511POPC   GL140921   5.142  38.418   6.150
 7511POPC   GL240922   5.102  38.592   6.150
 7511POPC   C1A40923   5.066  38.420   6.450
 7511POPC   D2A40924   5.095  38.489   6.750
 7511POPC   C3A40925   5.140  38.415   7.050
 7511POPC   C4A40926   5.102  38.493   7.350
 7511POPC   C1B40927   5.035  38.720   6.450
 7511POPC   C2B40928   5.050  38.682   6.750
 7511POPC   C3B40929   5.052  38.645   7.050
 7511POPC   C4B40930   4.969  38.700   7.350
 7512POPC   NC340931  16.780  10.522   5.550
 7512POPC   PO440932  16.694  10.501   5.850
 7512POPC   GL140933  16.747  10.533   6.150
 7512POPC   GL240934  16.823  10.672   6.150
 7512POPC   C1A40935  16.751  10.514   6.450
 7512POPC   D2A40936  16.735  10.485   6.750
 7512POPC   C3A40937  16.766  10.563   7.050
 7512POPC   C4A40938  16.689  10.573   7.350
 7512POPC   C1B40939  16.833  10.747   6.450
 7512POPC   C2B40940  16.812  10.735   6.750
 7512POPC   C3B40941  16.801  10.776   7.050
 7512POPC   C4B40942  16.805  10.711   7.350
 7513POPC   NC340943  39.994  36.875   5.550
 7513POPC   PO440944  40.028  36.901   5.850
 7513POPC   GL140945  40.005  36.938   6.150
 7513POPC   GL240946  40.074  37.039   6.150
 7513POPC   C1A40947  39.996  36.946   6.450
 7513POPC   D2A40948  40.054  36.916   6.750
 7513POPC   C3A40949  40.032  36.919   7.050
 7513POPC   C4A40950  39.986  36.863   7.350
 7513POPC   C1B40951  40.154  37.122   6.450
 7513POPC   C2B40952  40.228  37.048   6.750
 7513POPC   C3B40953  40.178  37.070   7.050
 7513POPC   C4B40954  40.173  37.113   7.350
 7514POPC   NC340955  20.627  31.470   5.550
 7514POPC   PO440956  20.601  31.430   5.850
 7514POPC   GL140957  20.644  31.457   6.150
 7514POPC   GL240958  20.538  31.577   6.150
 7514POPC   C1A40959  20.649  31.501   6.450
 7514POPC   D2A40960  20.591  31.431   6.750
 7514POPC   C3A40961  20.590  31.455   7.050
 7514POPC   C4A40962  20.585  31.519   7.350
 7514POPC   C1B40963  20.522  31.723   6.450
 7514POPC   C2B40964  20.462  31.671   6.750
 7514POPC   C3B40965  20.477  31.723   7.050
 7514POPC   C4B40966  20.488  31.708   7.350
 7515POPC   NC340967   7.397  12.102   5.550
 7515POPC   PO440968   7.407  12.045   5.850
 7515POPC   GL140969   7.456  12.106   6.150
 7515POPC   GL240970   7.572  12.022   6.150
 7515POPC   C1A40971   7.432  12.037   6.450
 7515POPC   D2A40972   7.467  12.115   6.750
 7515POPC   C3A40973   7.428  12.103   7.050
 7515POPC   C4A40974   7.433  12.078   7.350
 7515POPC   C1B40975   7.653  11.982   6.450
 7515POPC   C2B40976   7.640  11.947   6.750
 7515POPC   C3B40977   7.621  11.944   7.050
 7515POPC   C4B40978   7.665  11.925   7.350
 7516POPC   NC340979   3.518  42.351   5.550
 7516POPC   PO440980   3.524  42.332   5.850
 7516POPC   GL140981   3.556  42.326   6.150
 7516POPC   GL240982   3.556  42.415   6.150
 7516POPC   C1A40983   3.586  42.318   6.450
 7516POPC   D2A40984   3.522  42.384   6.750
 7516POPC   C3A40985   3.575  42.351   7.050
 7516POPC   C4A40986   3.502  42.325   7.350
 7516POPC   C1B40987   3.524  42.566   6.450
 7516POPC   C2B40988   3.590  42.563   6.750
 7516POPC   C3B40989   3.540  42.544   7.050
 7516POPC   C4B40990   3.542  42.560   7.350
 7517POPC   NC340991  43.896  19.075   5.550
 7517POPC   PO440992  43.891  19.086   5.850
 7517POPC   GL140993  43.883  19.036   6.150
 7517POPC   GL240994  43.976  19.094   6.150
 7517POPC   C1A40995  43.912  19.028   6.450
 7517POPC   D2A40996  43.898  19.092   6.750
 7517POPC   C3A40997  43.894  19.058   7.050
 7517POPC   C4A40998  43.929  19.061   7.350
 7517POPC   C1B40999  44.148  19.194   6.450
 7517POPC   C2B41000  44.111  19.210   6.750
 7517POPC   C3B41001  44.080  19.177   7.050
 7517POPC   C4B41002  44.119  19.224   7.350
 7518POPC   NC341003  25.278   4.344   5.550
 7518POPC   PO441004  25.265   4.293   5.850
 7518POPC   GL141005  25.267   4.300   6.150
 7518POPC   GL241006  25.125   4.268   6.150
 7518POPC   C1A41007  25.258   4.343   6.450
 7518POPC   D2A41008  25.289   4.348   6.750
 7518POPC   C3A41009  25.295   4.289   7.050
 7518POPC   C4A41010  25.306   4.288   7.350
 7518POPC   C1B41011  24.985   4.278   6.450
 7518POPC   C2B41012  25.003   4.231   6.750
 7518POPC   C3B41013  24.992   4.282   7.050
 7518POPC   C4B41014  25.023   4.247   7.350
 7519POPC   NC341015  33.827  19.856   5.550
 7519POPC   PO441016  33.784  19.843   5.850
 7519POPC   GL141017  33.849  19.789   6.150
 7519POPC   GL241018  33.962  19.795   6.150
 7519POPC   C1A41019  33.839  19.850   6.450
 7519POPC   D2A41020  33.834  19.869   6.750
 7519POPC   C3A41021  33.819  19.857   7.050
 7519POPC   C4A41022  33.766  19.855   7.350
 7519POPC   C1B41023  34.020  19.888   6.450
 7519POPC   C2B41024  34.094  19.863   6.750
 7519POPC   C3B41025  34.008  19.839   7.050
 7519POPC   C4B41026  34.018  19.838   7.350
 7520POPC   NC341027  12.810  18.330   5.550
 7520POPC   PO441028  12.871  18.304   5.850
 7520POPC   GL141029  12.818  18.242   6.150
 7520POPC   GL241030  12.811  18.186   6.150
 7520POPC   C1A41031  12.843  18.250   6.450
 7520POPC   D2A41032  12.858  18.330   6.750
 7520POPC   C3A41033  12.899  18.249   7.050
 7520POPC   C4A41034  12.825  18.246   7.350
 7520POPC   C1B41035  12.660  18.093   6.450
 7520POPC   C2B41036  12.680  18.071   6.750
 7520POPC   C3B41037  12.733  18.132   7.050
 7520POPC   C4B41038  12.741  18.129   7.350
 7521POPC   NC341039  29.187  29.174   5.550
 7521POPC   PO441040  29.104  29.125   5.850
 7521POPC   GL141041  29.133  29.175   6.150
 7521POPC   GL241042  29.158  29.247   6.150
 7521POPC   C1A41043  29.126  29.128   6.450
 7521POPC   D2A41044  29.190  29.101   6.750
 7521POPC   C3A41045  29.154  29.176   7.050
 7521POPC   C4A41046  29.186  29.135   7.350
 7521POPC   C1B41047  29.228  29.415   6.450
 7521POPC   C2B41048  29.279  29.340   6.750
 7521POPC   C3B41049  29.229  29.414   7.050
 7521POPC   C4B41050  29.210  29.407   7.350
 7522POPC   NC341051  16.763  30.659   5.550
 7522POPC   PO441052  16.740  30.713   5.850
 7522POPC   GL141053  16.726  30.715   6.150
 7522POPC   GL241054  16.602  30.591   6.150
 7522POPC   C1A41055  16.745  30.691   6.450
 7522POPC   D2A41056  16.738  30.667   6.750
 7522POPC   C3A41057  16.698  30.677   7.050
 7522POPC   C4A41058  16.695  30.683   7.350
 7522POPC   C1B41059  16.505  30.572   6.450
 7522POPC   C2B41060  16.533  30.576   6.750
 7522POPC   C3B41061  16.463  30.541   7.050
 7522POPC   C4B41062  16.533  30.572   7.350
 7523POPC   NC341063  33.776  36.856   5.550
 7523POPC   PO441064  33.775  36.911   5.850
 7523POPC   GL141065  33.753  36.918   6.150
 7523POPC   GL241066  33.808  37.022   6.150
 7523POPC   C1A41067  33.845  36.859   6.450
 7523POPC   D2A41068  33.790  36.856   6.750
 7523POPC   C3A41069  33.783  36.924   7.050
 7523POPC   C4A41070  33.842  36.867   7.350
 7523POPC   C1B41071  33.861  37.138   6.450
 7523POPC   C2B41072  33.889  37.148   6.750
 7523POPC   C3B41073  33.825  37.169   7.050
 7523POPC   C4B41074  33.822  37.152   7.350
 7524POPC   NC341075  42.362  35.355   5.550
 7524POPC   PO441076  42.365  35.395   5.850
 7524POPC   GL141077  42.293  35.370   6.150
 7524POPC   GL241078  42.289  35.205   6.150
 7524POPC   C1A41079  42.306  35.373   6.450
 7524POPC   D2A41080  42.296  35.393   6.750
 7524POPC   C3A41081  42.381  35.309   7.050
 7524POPC   C4A41082  42.331  35.323   7.350
 7524POPC   C1B41083  42.210  35.148   6.450
 7524POPC   C2B41084  42.164  35.114   6.750
 7524POPC   C3B41085  42.230  35.178   7.050
 7524POPC   C4B41086  42.227  35.119   7.350
 7525POPC   NC341087  10.484  42.382   5.550
 7525POPC   PO441088  10.493  42.343   5.850
 7525POPC   GL141089  10.524  42.331   6.150
 7525POPC   GL241090  10.448  42.462   6.150
 7525POPC   C1A41091  10.540  42.306   6.450
 7525POPC   D2A41092  10.497  42.302   6.750
 7525POPC   C3A41093  10.524  42.339   7.050
 7525POPC   C4A41094  10.523  42.367   7.350
 7525POPC   C1B41095  10.331  42.515   6.450
 7525POPC   C2B41096  10.352  42.548   6.750
 7525POPC   C3B41097  10.374  42.553   7.050
 7525POPC   C4B41098  10.380  42.466   7.350
 7526POPC   NC341099  21.407   2.767   5.550
 7526POPC   PO441100  21.404   2.778   5.850
 7526POPC   GL141101  21.373   2.728   6.150
 7526POPC   GL241102  21.494   2.834   6.150
 7526POPC   C1A41103  21.351   2.759   6.450
 7526POPC   D2A41104  21.389   2.781   6.750
 7526POPC   C3A41105  21.400   2.775   7.050
 7526POPC   C4A41106  21.347   2.757   7.350
 7526POPC   C1B41107  21.562   2.890   6.450
 7526POPC   C2B41108  21.596   2.926   6.750
 7526POPC   C3B41109  21.635   2.832   7.050
 7526POPC   C4B41110  21.566   2.901   7.350
 7527POPC   NC341111  42.372  24.521   5.550
 7527POPC   PO441112  42.315  24.495   5.850
 7527POPC   GL141113  42.372  24.450   6.150
 7527POPC   GL241114  42.425  24.397   6.150
 7527POPC   C1A41115  42.333  24.459   6.450
 7527POPC   D2A41116  42.307  24.455   6.750
 7527POPC   C3A41117  42.319  24.469   7.050
 7527POPC   C4A41118  42.374  24.451   7.350
 7527POPC   C1B41119  42.533  24.295   6.450
 7527POPC   C2B41120  42.583  24.356   6.750
 7527POPC   C3B41121  42.542  24.344   7.050
 7527POPC   C4B41122  42.487  24.383   7.350
 7528POPC   NC341123  31.498   8.979   5.550
 7528POPC   PO441124  31.508   9.013   5.850
 7528POPC   GL141125  31.478   8.981   6.150
 7528POPC   GL241126  31.552   9.125   6.150
 7528POPC   C1A41127  31.452   8.989   6.450
 7528POPC   D2A41128  31.459   8.941   6.750
 7528POPC   C3A41129  31.512   8.972   7.050
 7528POPC   C4A41130  31.441   9.008   7.350
 7528POPC   C1B41131  31.528   9.214   6.450
 7528POPC   C2B41132  31.513   9.195   6.750
 7528POPC   C3B41133  31.562   9.257   7.050
 7528POPC   C4B41134  31.607   9.180   7.350
 7529POPC   NC341135  36.874   8.228   5.550
 7529POPC   PO441136  36.868   8.227   5.850
 7529POPC   GL141137  36.920   8.168   6.150
 7529POPC   GL241138  36.971   8.087   6.150
 7529POPC   C1A41139  36.897   8.190   6.450
 7529POPC   D2A41140  36.904   8.153   6.750
 7529POPC   C3A41141  36.938   8.190   7.050
 7529POPC   C4A41142  36.943   8.161   7.350
 7529POPC   C1B41143  37.095   8.034   6.450
 7529POPC   C2B41144  37.079   7.989   6.750
 7529POPC   C3B41145  37.068   8.060   7.050
 7529POPC   C4B41146  37.081   7.995   7.350
 7530POPC   NC341147  40.823  39.210   5.550
 7530POPC   PO441148  40.738  39.186   5.850
 7530POPC   GL141149  40.800  39.245   6.150
 7530POPC   GL241150  40.874  39.347   6.150
 7530POPC   C1A41151  40.812  39.205   6.450
 7530POPC   D2A41152  40.770  39.274   6.750
 7530POPC   C3A41153  40.808  39.256   7.050
 7530POPC   C4A41154  40.823  39.263   7.350
 7530POPC   C1B41155  40.887  39.441   6.450
 7530POPC   C2B41156  40.903  39.397   6.750
 7530POPC   C3B41157  40.940  39.468   7.050
 7530POPC   C4B41158  40.874  39.476   7.350
 7531POPC   NC341159   5.893  43.895   5.550
 7531POPC   PO441160   5.851  43.873   5.850
 7531POPC   GL141161   5.844  43.844   6.150
 7531POPC   GL241162   5.730  43.932   6.150
 7531POPC   C1A41163   5.877  43.911   6.450
 7531POPC   D2A41164   5.843  43.869   6.750
 7531POPC   C3A41165   5.876  43.923   7.050
 7531POPC   C4A41166   5.820  43.916   7.350
 7531POPC   C1B41167   5.607  43.883   6.450
 7531POPC   C2B41168   5.619  43.865   6.750
 7531POPC   C3B41169   5.593  43.858   7.050
 7531POPC   C4B41170   5.631  43.929   7.350
 7532POPC   NC341171  13.626  30.663   5.550
 7532POPC   PO441172  13.598  30.668   5.850
 7532POPC   GL141173  13.621  30.725   6.150
 7532POPC   GL241174  13.775  30.785   6.150
 7532POPC   C1A41175  13.599  30.729   6.450
 7532POPC   D2A41176  13.589  30.661   6.750
 7532POPC   C3A41177  13.642  30.700   7.050
 7532POPC   C4A41178  13.673  30.737   7.350
 7532POPC   C1B41179  13.812  30.836   6.450
 7532POPC   C2B41180  13.877  30.798   6.750
 7532POPC   C3B41181  13.878  30.820   7.050
 7532POPC   C4B41182  13.837  30.782   7.350
 7533POPC   NC341183  11.301   8.189   5.550
 7533POPC   PO441184  11.269   8.221   5.850
 7533POPC   GL141185  11.339   8.147   6.150
 7533POPC   GL241186  11.440   8.292   6.150
 7533POPC   C1A41187  11.315   8.191   6.450
 7533POPC   D2A41188  11.333   8.168   6.750
 7533POPC   C3A41189  11.325   8.153   7.050
 7533POPC   C4A41190  11.318   8.199   7.350
 7533POPC   C1B41191  11.511   8.411   6.450
 7533POPC   C2B41192  11.496   8.394   6.750
 7533POPC   C3B41193  11.522   8.412   7.050
 7533POPC   C4B41194  11.501   8.376   7.350
 7534POPC   NC341195  17.535  36.871   5.550
 7534POPC   PO441196  17.520  36.882   5.850
 7534POPC   GL141197  17.501  36.854   6.150
 7534POPC   GL241198  17.494  36.755   6.150
 7534POPC   C1A41199  17.485  36.882   6.450
 7534POPC   D2A41200  17.459  36.889   6.750
 7534POPC   C3A41201  17.514  36.874   7.050
 7534POPC   C4A41202  17.507  36.932   7.350
 7534POPC   C1B41203  17.487  36.689   6.450
 7534POPC   C2B41204  17.553  36.619   6.750
 7534POPC   C3B41205  17.510  36.606   7.050
 7534POPC   C4B41206  17.493  36.607   7.350
 7535POPC   NC341207  20.563  33.839   5.550
 7535POPC   PO441208  20.654  33.814   5.850
 7535POPC   GL141209  20.589  33.772   6.150
 7535POPC   GL241210  20.617  33.919   6.150
 7535POPC   C1A41211  20.593  33.838   6.450
 7535POPC   D2A41212  20.619  33.769   6.750
 7535POPC   C3A41213  20.653  33.772   7.050
 7535POPC   C4A41214  20.582  33.781   7.350
 7535POPC   C1B41215  20.592  34.035   6.450
 7535POPC   C2B41216  20.527  34.020   6.750
 7535POPC   C3B41217  20.598  34.060   7.050
 7535POPC   C4B41218  20.568  34.078   7.350
 7536POPC   NC341219  13.608  16.699   5.550
 7536POPC   PO441220  13.671  16.715   5.850
 7536POPC   GL141221  13.668  16.779   6.150
 7536POPC   GL241222  13.594  16.573   6.150
 7536POPC   C1A41223  13.626  16.694   6.450
 7536POPC   D2A41224  13.620  16.707   6.750
 7536POPC   C3A41225  13.584  16.762   7.050
 7536POPC   C4A41226  13.658  16.740   7.350
 7536POPC   C1B41227  13.531  16.461   6.450
 7536POPC   C2B41228  13.518  16.540   6.750
 7536POPC   C3B41229  13.512  16.505   7.050
 7536POPC   C4B41230  13.558  16.504   7.350
 7537POPC   NC341231  41.536  39.960   5.550
 7537POPC   PO441232  41.515  40.008   5.850
 7537POPC   GL141233  41.573  40.013   6.150
 7537POPC   GL241234  41.705  39.988   6.150
 7537POPC   C1A41235  41.604  39.973   6.450
 7537POPC   D2A41236  41.514  40.034   6.750
 7537POPC   C3A41237  41.556  39.959   7.050
 7537POPC   C4A41238  41.533  40.024   7.350
 7537POPC   C1B41239  41.764  39.985   6.450
 7537POPC   C2B41240  41.843  39.974   6.750
 7537POPC   C3B41241  41.845  39.971   7.050
 7537POPC   C4B41242  41.823  39.979   7.350
 7538POPC   NC341243  38.464  35.400   5.550
 7538POPC   PO441244  38.405  35.392   5.850
 7538POPC   GL141245  38.503  35.334   6.150
 7538POPC   GL241246  38.391  35.282   6.150
 7538POPC   C1A41247  38.410  35.394   6.450
 7538POPC   D2A41248  38.460  35.339   6.750
 7538POPC   C3A41249  38.468  35.328   7.050
 7538POPC   C4A41250  38.501  35.375   7.350
 7538POPC   C1B41251  38.294  35.205   6.450
 7538POPC   C2B41252  38.231  35.225   6.750
 7538POPC   C3B41253  38.206  35.173   7.050
 7538POPC   C4B41254  38.248  35.230   7.350
 7539POPC   NC341255  31.465  28.380   5.550
 7539POPC   PO441256  31.437  28.328   5.850
 7539POPC   GL141257  31.438  28.395   6.150
 7539POPC   GL241258  31.340  28.475   6.150
 7539POPC   C1A41259  31.471  28.416   6.450
 7539POPC   D2A41260  31.436  28.404   6.750
 7539POPC   C3A41261  31.436  28.321   7.050
 7539POPC   C4A41262  31.424  28.370   7.350
 7539POPC   C1B41263  31.348  28.506   6.450
 7539POPC   C2B41264  31.252  28.560   6.750
 7539POPC   C3B41265  31.273  28.507   7.050
 7539POPC   C4B41266  31.296  28.568   7.350
 7540POPC   NC341267  17.536  42.294   5.550
 7540POPC   PO441268  17.480  42.325   5.850
 7540POPC   GL141269  17.545  42.372   6.150
 7540POPC   GL241270  17.536  42.224   6.150
 7540POPC   C1A41271  17.520  42.346   6.450
 7540POPC   D2A41272  17.482  42.287   6.750
 7540POPC   C3A41273  17.487  42.354   7.050
 7540POPC   C4A41274  17.482  42.286   7.350
 7540POPC   C1B41275  17.585  42.091   6.450
 7540POPC   C2B41276  17.603  42.050   6.750
 7540POPC   C3B41277  17.608  42.147   7.050
 7540POPC   C4B41278  17.564  42.112   7.350
 7541POPC   NC341279  13.652  25.264   5.550
 7541POPC   PO441280  13.622  25.308   5.850
 7541POPC   GL141281  13.614  25.274   6.150
 7541POPC   GL241282  13.796  25.297   6.150
 7541POPC   C1A41283  13.637  25.300   6.450
 7541POPC   D2A41284  13.600  25.315   6.750
 7541POPC   C3A41285  13.612  25.300   7.050
 7541POPC   C4A41286  13.597  25.248   7.350
 7541POPC   C1B41287  13.822  25.361   6.450
 7541POPC   C2B41288  13.902  25.296   6.750
 7541POPC   C3B41289  13.858  25.386   7.050
 7541POPC   C4B41290  13.860  25.338   7.350
 7542POPC   NC341291  25.247  33.042   5.550
 7542POPC   PO441292  25.269  33.055   5.850
 7542POPC   GL141293  25.247  33.048   6.150
 7542POPC   GL241294  25.291  32.923   6.150
 7542POPC   C1A41295  25.227  33.070   6.450
 7542POPC   D2A41296  25.300  33.019   6.750
 7542POPC   C3A41297  25.315  32.980   7.050
 7542POPC   C4A41298  25.299  32.976   7.350
 7542POPC   C1B41299  25.335  32.796   6.450
 7542POPC   C2B41300  25.322  32.785   6.750
 7542POPC   C3B41301  25.302  32.787   7.050
 7542POPC   C4B41302  25.347  32.775   7.350
 7543POPC   NC341303  44.666  13.583   5.550
 7543POPC   PO441304  44.647  13.628   5.850
 7543POPC   GL141305  44.652  13.593   6.150
 7543POPC   GL241306  44.794  13.490   6.150
 7543POPC   C1A41307  44.699  13.665   6.450
 7543POPC   D2A41308  44.686  13.637   6.750
 7543POPC   C3A41309  44.663  13.644   7.050
 7543POPC   C4A41310  44.698  13.598   7.350
 7543POPC   C1B41311  44.830  13.490   6.450
 7543POPC   C2B41312  44.851  13.469   6.750
 7543POPC   C3B41313  44.858  13.447   7.050
 7543POPC   C4B41314  44.813  13.437   7.350
 7544POPC   NC341315  12.118   8.217   5.550
 7544POPC   PO441316  12.056   8.236   5.850
 7544POPC   GL141317  12.094   8.210   6.150
 7544POPC   GL241318  11.982   8.101   6.150
 7544POPC   C1A41319  12.109   8.211   6.450
 7544POPC   D2A41320  12.085   8.148   6.750
 7544POPC   C3A41321  12.104   8.189   7.050
 7544POPC   C4A41322  12.042   8.237   7.350
 7544POPC   C1B41323  11.965   7.951   6.450
 7544POPC   C2B41324  11.942   8.004   6.750
 7544POPC   C3B41325  11.949   8.027   7.050
 7544POPC   C4B41326  11.911   8.013   7.350
 7545POPC   NC341327  42.297  40.826   5.550
 7545POPC   PO441328  42.298  40.797   5.850
 7545POPC   GL141329  42.307  40.782   6.150
 7545POPC   GL241330  42.243  40.855   6.150
 7545POPC   C1A41331  42.363  40.789   6.450
 7545POPC   D2A41332  42.384  40.806   6.750
 7545POPC   C3A41333  42.343  40.823   7.050
 7545POPC   C4A41334  42.285  40.814   7.350
 7545POPC   C1B41335  42.264  41.044   6.450
 7545POPC   C2B41336  42.220  41.028   6.750
 7545POPC   C3B41337  42.256  41.027   7.050
 7545POPC   C4B41338  42.231  40.975   7.350
 7546POPC   NC341339   2.782  22.121   5.550
 7546POPC   PO441340   2.756  22.207   5.850
 7546POPC   GL141341   2.747  22.149   6.150
 7546POPC   GL241342   2.866  22.223   6.150
 7546POPC   C1A41343   2.790  22.203   6.450
 7546POPC   D2A41344   2.766  22.128   6.750
 7546POPC   C3A41345   2.771  22.126   7.050
 7546POPC   C4A41346   2.815  22.196   7.350
 7546POPC   C1B41347   3.012  22.312   6.450
 7546POPC   C2B41348   3.007  22.326   6.750
 7546POPC   C3B41349   2.957  22.320   7.050
 7546POPC   C4B41350   3.024  22.276   7.350
 7547POPC   NC341351  14.434  24.474   5.550
 7547POPC   PO441352  14.401  24.457   5.850
 7547POPC   GL141353  14.423  24.502   6.150
 7547POPC   GL241354  14.399  24.578   6.150
 7547POPC   C1A41355  14.448  24.445   6.450
 7547POPC   D2A41356  14.372  24.487   6.750
 7547POPC   C3A41357  14.407  24.474   7.050
 7547POPC   C4A41358  14.390  24.537   7.350
 7547POPC   C1B41359  14.392  24.730   6.450
 7547POPC   C2B41360  14.442  24.770   6.750
 7547POPC   C3B41361  14.430  24.729   7.050
 7547POPC   C4B41362  14.400  24.706   7.350
 7548POPC   NC341363  23.737  12.876   5.550
 7548POPC   PO441364  23.727  12.829   5.850
 7548POPC   GL141365  23.700  12.826   6.150
 7548POPC   GL241366  23.689  12.936   6.150
 7548POPC   C1A41367  23.677  12.829   6.450
 7548POPC   D2A41368  23.690  12.829   6.750
 7548POPC   C3A41369  23.715  12.879   7.050
 7548POPC   C4A41370  23.669  12.872   7.350
 7548POPC   C1B41371  23.555  13.050   6.450
 7548POPC   C2B41372  23.559  13.098   6.750
 7548POPC   C3B41373  23.630  13.081   7.050
 7548POPC   C4B41374  23.603  13.046   7.350
 7549POPC   NC341375  22.965  40.053   5.550
 7549POPC   PO441376  22.960  40.039   5.850
 7549POPC   GL141377  22.949  40.043   6.150
 7549POPC   GL241378  22.995  40.116   6.150
 7549POPC   C1A41379  22.923  40.023   6.450
 7549POPC   D2A41380  22.954  39.993   6.750
 7549POPC   C3A41381  22.926  40.019   7.050
 7549POPC   C4A41382  22.897  40.038   7.350
 7549POPC   C1B41383  23.117  40.181   6.450
 7549POPC   C2B41384  23.101  40.262   6.750
 7549POPC   C3B41385  23.104  40.196   7.050
 7549POPC   C4B41386  23.116  40.178   7.350
 7550POPC   NC341387   0.484  37.708   5.550
 7550POPC   PO441388   0.475  37.643   5.850
 7550POPC   GL141389   0.445  37.648   6.150
 7550POPC   GL241390   0.541  37.744   6.150
 7550POPC   C1A41391   0.471  37.634   6.450
 7550POPC   D2A41392   0.435  37.640   6.750
 7550POPC   C3A41393   0.478  37.713   7.050
 7550POPC   C4A41394   0.471  37.686   7.350
 7550POPC   C1B41395   0.570  37.870   6.450
 7550POPC   C2B41396   0.543  37.882   6.750
 7550POPC   C3B41397   0.593  37.891   7.050
 7550POPC   C4B41398   0.624  37.904   7.350
 7551POPC   NC341399  11.278  38.465   5.550
 7551POPC   PO441400  11.336  38.463   5.850
 7551POPC   GL141401  11.254  38.425   6.150
 7551POPC   GL241402  11.421  38.384   6.150
 7551POPC   C1A41403  11.315  38.444   6.450
 7551POPC   D2A41404  11.326  38.441   6.750
 7551POPC   C3A41405  11.300  38.501   7.050
 7551POPC   C4A41406  11.274  38.407   7.350
 7551POPC   C1B41407  11.482  38.329   6.450
 7551POPC   C2B41408  11.484  38.303   6.750
 7551POPC   C3B41409  11.531  38.248   7.050
 7551POPC   C4B41410  11.511  38.299   7.350
 7552POPC   NC341411  25.267  21.365   5.550
 7552POPC   PO441412  25.222  21.347   5.850
 7552POPC   GL141413  25.290  21.432   6.150
 7552POPC   GL241414  25.233  21.239   6.150
 7552POPC   C1A41415  25.278  21.367   6.450
 7552POPC   D2A41416  25.289  21.347   6.750
 7552POPC   C3A41417  25.234  21.421   7.050
 7552POPC   C4A41418  25.232  21.408   7.350
 7552POPC   C1B41419  25.166  21.169   6.450
 7552POPC   C2B41420  25.147  21.141   6.750
 7552POPC   C3B41421  25.189  21.136   7.050
 7552POPC   C4B41422  25.185  21.191   7.350
 7553POPC   NC341423  25.256  15.135   5.550
 7553POPC   PO441424  25.233  15.220   5.850
 7553POPC   GL141425  25.266  15.146   6.150
 7553POPC   GL241426  25.174  15.168   6.150
 7553POPC   C1A41427  25.284  15.223   6.450
 7553POPC   D2A41428  25.246  15.216   6.750
 7553POPC   C3A41429  25.256  15.156   7.050
 7553POPC   C4A41430  25.232  15.200   7.350
 7553POPC   C1B41431  25.011  15.177   6.450
 7553POPC   C2B41432  25.058  15.149   6.750
 7553POPC   C3B41433  25.064  15.148   7.050
 7553POPC   C4B41434  25.033  15.144   7.350
 7554POPC   NC341435  12.031  19.810   5.550
 7554POPC   PO441436  12.048  19.791   5.850
 7554POPC   GL141437  12.079  19.866   6.150
 7554POPC   GL241438  12.180  19.730   6.150
 7554POPC   C1A41439  12.033  19.869   6.450
 7554POPC   D2A41440  12.109  19.867   6.750
 7554POPC   C3A41441  12.115  19.790   7.050
 7554POPC   C4A41442  12.068  19.817   7.350
 7554POPC   C1B41443  12.297  19.619   6.450
 7554POPC   C2B41444  12.291  19.628   6.750
 7554POPC   C3B41445  12.234  19.669   7.050
 7554POPC   C4B41446  12.250  19.665   7.350
 7555POPC   NC341447  40.771  36.174   5.550
 7555POPC   PO441448  40.758  36.111   5.850
 7555POPC   GL141449  40.751  36.142   6.150
 7555POPC   GL241450  40.921  36.052   6.150
 7555POPC   C1A41451  40.776  36.159   6.450
 7555POPC   D2A41452  40.743  36.177   6.750
 7555POPC   C3A41453  40.758  36.094   7.050
 7555POPC   C4A41454  40.826  36.117   7.350
 7555POPC   C1B41455  41.014  36.037   6.450
 7555POPC   C2B41456  41.002  35.979   6.750
 7555POPC   C3B41457  40.971  35.993   7.050
 7555POPC   C4B41458  41.015  36.000   7.350
 7556POPC   NC341459   1.169  44.665   5.550
 7556POPC   PO441460   1.172  44.627   5.850
 7556POPC   GL141461   1.178  44.626   6.150
 7556POPC   GL241462   1.063  44.629   6.150
 7556POPC   C1A41463   1.207  44.687   6.450
 7556POPC   D2A41464   1.197  44.678   6.750
 7556POPC   C3A41465   1.240  44.624   7.050
 7556POPC   C4A41466   1.247  44.686   7.350
 7556POPC   C1B41467   0.935  44.619   6.450
 7556POPC   C2B41468   0.977  44.718   6.750
 7556POPC   C3B41469   0.919  44.628   7.050
 7556POPC   C4B41470   0.953  44.698   7.350
 7557POPC   NC341471  38.472  15.145   5.550
 7557POPC   PO441472  38.499  15.198   5.850
 7557POPC   GL141473  38.455  15.144   6.150
 7557POPC   GL241474  38.312  15.132   6.150
 7557POPC   C1A41475  38.437  15.143   6.450
 7557POPC   D2A41476  38.446  15.181   6.750
 7557POPC   C3A41477  38.452  15.167   7.050
 7557POPC   C4A41478  38.439  15.203   7.350
 7557POPC   C1B41479  38.230  15.038   6.450
 7557POPC   C2B41480  38.200  15.113   6.750
 7557POPC   C3B41481  38.229  15.103   7.050
 7557POPC   C4B41482  38.254  15.130   7.350
 7558POPC   NC341483  35.312  13.604   5.550
 7558POPC   PO441484  35.333  13.602   5.850
 7558POPC   GL141485  35.328  13.599   6.150
 7558POPC   GL241486  35.516  13.622   6.150
 7558POPC   C1A41487  35.322  13.664   6.450
 7558POPC   D2A41488  35.321  13.672   6.750
 7558POPC   C3A41489  35.364  13.644   7.050
 7558POPC   C4A41490  35.316  13.619   7.350
 7558POPC   C1B41491  35.631  13.675   6.450
 7558POPC   C2B41492  35.587  13.687   6.750
 7558POPC   C3B41493  35.589  13.606   7.050
 7558POPC   C4B41494  35.633  13.601   7.350
 7559POPC   NC341495  26.778  34.547   5.550
 7559POPC   PO441496  26.807  34.578   5.850
 7559POPC   GL141497  26.855  34.571   6.150
 7559POPC   GL241498  26.788  34.734   6.150
 7559POPC   C1A41499  26.782  34.536   6.450
 7559POPC   D2A41500  26.790  34.576   6.750
 7559POPC   C3A41501  26.855  34.570   7.050
 7559POPC   C4A41502  26.844  34.604   7.350
 7559POPC   C1B41503  26.765  34.824   6.450
 7559POPC   C2B41504  26.800  34.803   6.750
 7559POPC   C3B41505  26.747  34.826   7.050
 7559POPC   C4B41506  26.784  34.855   7.350
 7560POPC   NC341507  22.206   2.777   5.550
 7560POPC   PO441508  22.207   2.726   5.850
 7560POPC   GL141509  22.154   2.742   6.150
 7560POPC   GL241510  22.301   2.762   6.150
 7560POPC   C1A41511  22.208   2.734   6.450
 7560POPC   D2A41512  22.140   2.805   6.750
 7560POPC   C3A41513  22.177   2.787   7.050
 7560POPC   C4A41514  22.181   2.801   7.350
 7560POPC   C1B41515  22.399   2.657   6.450
 7560POPC   C2B41516  22.368   2.736   6.750
 7560POPC   C3B41517  22.406   2.646   7.050
 7560POPC   C4B41518  22.446   2.669   7.350
 7561POPC   NC341519  35.369  34.566   5.550
 7561POPC   PO441520  35.340  34.534   5.850
 7561POPC   GL141521  35.365  34.534   6.150
 7561POPC   GL241522  35.278  34.575   6.150
 7561POPC   C1A41523  35.386  34.622   6.450
 7561POPC   D2A41524  35.384  34.607   6.750
 7561POPC   C3A41525  35.319  34.562   7.050
 7561POPC   C4A41526  35.380  34.549   7.350
 7561POPC   C1B41527  35.137  34.720   6.450
 7561POPC   C2B41528  35.096  34.633   6.750
 7561POPC   C3B41529  35.075  34.702   7.050
 7561POPC   C4B41530  35.113  34.706   7.350
 7562POPC   NC341531  29.128  12.883   5.550
 7562POPC   PO441532  29.174  12.873   5.850
 7562POPC   GL141533  29.152  12.901   6.150
 7562POPC   GL241534  29.041  12.928   6.150
 7562POPC   C1A41535  29.134  12.823   6.450
 7562POPC   D2A41536  29.111  12.881   6.750
 7562POPC   C3A41537  29.158  12.839   7.050
 7562POPC   C4A41538  29.142  12.829   7.350
 7562POPC   C1B41539  29.006  13.012   6.450
 7562POPC   C2B41540  28.946  13.022   6.750
 7562POPC   C3B41541  28.940  12.986   7.050
 7562POPC   C4B41542  28.963  12.979   7.350
 7563POPC   NC341543  32.261  21.366   5.550
 7563POPC   PO441544  32.292  21.414   5.850
 7563POPC   GL141545  32.268  21.366   6.150
 7563POPC   GL241546  32.316  21.486   6.150
 7563POPC   C1A41547  32.219  21.398   6.450
 7563POPC   D2A41548  32.279  21.338   6.750
 7563POPC   C3A41549  32.205  21.393   7.050
 7563POPC   C4A41550  32.218  21.346   7.350
 7563POPC   C1B41551  32.480  21.533   6.450
 7563POPC   C2B41552  32.453  21.556   6.750
 7563POPC   C3B41553  32.401  21.541   7.050
 7563POPC   C4B41554  32.413  21.510   7.350
 7564POPC   NC341555   5.827   5.060   5.550
 7564POPC   PO441556   5.852   5.104   5.850
 7564POPC   GL141557   5.843   5.090   6.150
 7564POPC   GL241558   5.922   4.937   6.150
 7564POPC   C1A41559   5.830   5.078   6.450
 7564POPC   D2A41560   5.871   5.084   6.750
 7564POPC   C3A41561   5.834   5.090   7.050
 7564POPC   C4A41562   5.918   5.096   7.350
 7564POPC   C1B41563   6.016   4.830   6.450
 7564POPC   C2B41564   6.032   4.903   6.750
 7564POPC   C3B41565   6.032   4.877   7.050
 7564POPC   C4B41566   5.996   4.861   7.350
 7565POPC   NC341567  33.009  20.621   5.550
 7565POPC   PO441568  33.012  20.625   5.850
 7565POPC   GL141569  33.061  20.659   6.150
 7565POPC   GL241570  33.087  20.562   6.150
 7565POPC   C1A41571  33.009  20.625   6.450
 7565POPC   D2A41572  33.054  20.596   6.750
 7565POPC   C3A41573  33.014  20.565   7.050
 7565POPC   C4A41574  32.980  20.643   7.350
 7565POPC   C1B41575  33.248  20.439   6.450
 7565POPC   C2B41576  33.283  20.483   6.750
 7565POPC   C3B41577  33.196  20.453   7.050
 7565POPC   C4B41578  33.270  20.492   7.350
 7566POPC   NC341579   4.326  18.276   5.550
 7566POPC   PO441580   4.325  18.328   5.850
 7566POPC   GL141581   4.293  18.251   6.150
 7566POPC   GL241582   4.334  18.453   6.150
 7566POPC   C1A41583   4.299  18.296   6.450
 7566POPC   D2A41584   4.330  18.262   6.750
 7566POPC   C3A41585   4.356  18.246   7.050
 7566POPC   C4A41586   4.268  18.287   7.350
 7566POPC   C1B41587   4.352  18.548   6.450
 7566POPC   C2B41588   4.392  18.519   6.750
 7566POPC   C3B41589   4.410  18.482   7.050
 7566POPC   C4B41590   4.345  18.559   7.350
 7567POPC   NC341591  40.828  39.964   5.550
 7567POPC   PO441592  40.789  39.959   5.850
 7567POPC   GL141593  40.755  40.051   6.150
 7567POPC   GL241594  40.650  40.031   6.150
 7567POPC   C1A41595  40.823  40.012   6.450
 7567POPC   D2A41596  40.808  40.029   6.750
 7567POPC   C3A41597  40.762  39.975   7.050
 7567POPC   C4A41598  40.754  39.973   7.350
 7567POPC   C1B41599  40.501  40.022   6.450
 7567POPC   C2B41600  40.575  40.092   6.750
 7567POPC   C3B41601  40.537  40.024   7.050
 7567POPC   C4B41602  40.567  40.008   7.350
 7568POPC   NC341603  16.734   0.478   5.550
 7568POPC   PO441604  16.717   0.453   5.850
 7568POPC   GL141605  16.779   0.457   6.150
 7568POPC   GL241606  16.704   0.534   6.150
 7568POPC   C1A41607  16.739   0.441   6.450
 7568POPC   D2A41608  16.709   0.470   6.750
 7568POPC   C3A41609  16.697   0.410   7.050
 7568POPC   C4A41610  16.722   0.408   7.350
 7568POPC   C1B41611  16.700   0.679   6.450
 7568POPC   C2B41612  16.696   0.687   6.750
 7568POPC   C3B41613  16.664   0.636   7.050
 7568POPC   C4B41614  16.731   0.678   7.350
 7569POPC   NC341615  35.334  17.468   5.550
 7569POPC   PO441616  35.334  17.473   5.850
 7569POPC   GL141617  35.350  17.518   6.150
 7569POPC   GL241618  35.288  17.610   6.150
 7569POPC   C1A41619  35.315  17.474   6.450
 7569POPC   D2A41620  35.320  17.508   6.750
 7569POPC   C3A41621  35.388  17.528   7.050
 7569POPC   C4A41622  35.316  17.499   7.350
 7569POPC   C1B41623  35.156  17.731   6.450
 7569POPC   C2B41624  35.229  17.702   6.750
 7569POPC   C3B41625  35.168  17.658   7.050
 7569POPC   C4B41626  35.210  17.664   7.350
 7570POPC   NC341627   1.178  33.838   5.550
 7570POPC   PO441628   1.231  33.756   5.850
 7570POPC   GL141629   1.252  33.758   6.150
 7570POPC   GL241630   1.180  33.879   6.150
 7570POPC   C1A41631   1.227  33.801   6.450
 7570POPC   D2A41632   1.225  33.792   6.750
 7570POPC   C3A41633   1.175  33.753   7.050
 7570POPC   C4A41634   1.211  33.756   7.350
 7570POPC   C1B41635   1.092  33.982   6.450
 7570POPC   C2B41636   1.123  34.041   6.750
 7570POPC   C3B41637   1.084  34.010   7.050
 7570POPC   C4B41638   1.098  33.974   7.350
 7571POPC   NC341639  40.019  36.146   5.550
 7571POPC   PO441640  39.996  36.152   5.850
 7571POPC   GL141641  40.043  36.137   6.150
 7571POPC   GL241642  39.929  36.203   6.150
 7571POPC   C1A41643  39.985  36.163   6.450
 7571POPC   D2A41644  39.999  36.130   6.750
 7571POPC   C3A41645  39.965  36.170   7.050
 7571POPC   C4A41646  39.972  36.091   7.350
 7571POPC   C1B41647  39.777  36.296   6.450
 7571POPC   C2B41648  39.806  36.241   6.750
 7571POPC   C3B41649  39.811  36.296   7.050
 7571POPC   C4B41650  39.821  36.292   7.350
 7572POPC   NC341651  11.329  12.029   5.550
 7572POPC   PO441652  11.319  12.069   5.850
 7572POPC   GL141653  11.306  12.118   6.150
 7572POPC   GL241654  11.433  12.144   6.150
 7572POPC   C1A41655  11.292  12.091   6.450
 7572POPC   D2A41656  11.290  12.037   6.750
 7572POPC   C3A41657  11.255  12.062   7.050
 7572POPC   C4A41658  11.272  12.034   7.350
 7572POPC   C1B41659  11.479  12.234   6.450
 7572POPC   C2B41660  11.495  12.254   6.750
 7572POPC   C3B41661  11.507  12.250   7.050
 7572POPC   C4B41662  11.441  12.287   7.350
 7573POPC   NC341663   6.621   8.147   5.550
 7573POPC   PO441664   6.661   8.177   5.850
 7573POPC   GL141665   6.616   8.164   6.150
 7573POPC   GL241666   6.775   8.228   6.150
 7573POPC   C1A41667   6.620   8.155   6.450
 7573POPC   D2A41668   6.625   8.243   6.750
 7573POPC   C3A41669   6.602   8.182   7.050
 7573POPC   C4A41670   6.637   8.175   7.350
 7573POPC   C1B41671   6.933   8.254   6.450
 7573POPC   C2B41672   6.858   8.277   6.750
 7573POPC   C3B41673   6.849   8.291   7.050
 7573POPC   C4B41674   6.852   8.257   7.350
 7574POPC   NC341675  42.340  15.969   5.550
 7574POPC   PO441676  42.382  15.981   5.850
 7574POPC   GL141677  42.354  15.952   6.150
 7574POPC   GL241678  42.249  16.105   6.150
 7574POPC   C1A41679  42.346  15.964   6.450
 7574POPC   D2A41680  42.318  15.940   6.750
 7574POPC   C3A41681  42.350  15.909   7.050
 7574POPC   C4A41682  42.332  15.996   7.350
 7574POPC   C1B41683  42.281  16.158   6.450
 7574POPC   C2B41684  42.255  16.241   6.750
 7574POPC   C3B41685  42.250  16.211   7.050
 7574POPC   C4B41686  42.304  16.168   7.350
 7575POPC   NC341687  15.219  21.378   5.550
 7575POPC   PO441688  15.201  21.397   5.850
 7575POPC   GL141689  15.157  21.423   6.150
 7575POPC   GL241690  15.270  21.343   6.150
 7575POPC   C1A41691  15.147  21.349   6.450
 7575POPC   D2A41692  15.172  21.384   6.750
 7575POPC   C3A41693  15.172  21.405   7.050
 7575POPC   C4A41694  15.170  21.359   7.350
 7575POPC   C1B41695  15.377  21.306   6.450
 7575POPC   C2B41696  15.422  21.306   6.750
 7575POPC   C3B41697  15.426  21.222   7.050
 7575POPC   C4B41698  15.388  21.254   7.350
 7576POPC   NC341699  43.114  44.681   5.550
 7576POPC   PO441700  43.138  44.681   5.850
 7576POPC   GL141701  43.075  44.618   6.150
 7576POPC   GL241702  43.200  44.651   6.150
 7576POPC   C1A41703  43.108  44.632   6.450
 7576POPC   D2A41704  43.095  44.636   6.750
 7576POPC   C3A41705  43.064  44.707   7.050
 7576POPC   C4A41706  43.084  44.681   7.350
 7576POPC   C1B41707  43.385  44.709   6.450
 7576POPC   C2B41708  43.372  44.707   6.750
 7576POPC   C3B41709  43.346  44.636   7.050
 7576POPC   C4B41710  43.323  44.660   7.350
 7577POPC   NC341711   1.199  22.151   5.550
 7577POPC   PO441712   1.183  22.139   5.850
 7577POPC   GL141713   1.217  22.207   6.150
 7577POPC   GL241714   1.091  22.132   6.150
 7577POPC   C1A41715   1.238  22.154   6.450
 7577POPC   D2A41716   1.219  22.120   6.750
 7577POPC   C3A41717   1.205  22.156   7.050
 7577POPC   C4A41718   1.197  22.147   7.350
 7577POPC   C1B41719   0.981  22.165   6.450
 7577POPC   C2B41720   0.926  22.139   6.750
 7577POPC   C3B41721   1.010  22.149   7.050
 7577POPC   C4B41722   1.011  22.103   7.350
 7578POPC   NC341723  31.461  22.969   5.550
 7578POPC   PO441724  31.456  22.948   5.850
 7578POPC   GL141725  31.437  22.965   6.150
 7578POPC   GL241726  31.340  23.006   6.150
 7578POPC   C1A41727  31.499  22.964   6.450
 7578POPC   D2A41728  31.460  22.914   6.750
 7578POPC   C3A41729  31.424  22.921   7.050
 7578POPC   C4A41730  31.472  22.925   7.350
 7578POPC   C1B41731  31.275  23.141   6.450
 7578POPC   C2B41732  31.294  23.053   6.750
 7578POPC   C3B41733  31.308  23.140   7.050
 7578POPC   C4B41734  31.297  23.111   7.350
 7579POPC   NC341735  21.368  30.663   5.550
 7579POPC   PO441736  21.396  30.718   5.850
 7579POPC   GL141737  21.403  30.670   6.150
 7579POPC   GL241738  21.444  30.539   6.150
 7579POPC   C1A41739  21.356  30.648   6.450
 7579POPC   D2A41740  21.400  30.715   6.750
 7579POPC   C3A41741  21.403  30.670   7.050
 7579POPC   C4A41742  21.345  30.663   7.350
 7579POPC   C1B41743  21.548  30.451   6.450
 7579POPC   C2B41744  21.553  30.500   6.750
 7579POPC   C3B41745  21.505  30.454   7.050
 7579POPC   C4B41746  21.534  30.517   7.350
 7580POPC   NC341747  44.668   9.712   5.550
 7580POPC   PO441748  44.639   9.773   5.850
 7580POPC   GL141749  44.671   9.793   6.150
 7580POPC   GL241750  44.495   9.665   6.150
 7580POPC   C1A41751  44.638   9.776   6.450
 7580POPC   D2A41752  44.701   9.741   6.750
 7580POPC   C3A41753  44.629   9.765   7.050
 7580POPC   C4A41754  44.670   9.777   7.350
 7580POPC   C1B41755  44.399   9.696   6.450
 7580POPC   C2B41756  44.397   9.651   6.750
 7580POPC   C3B41757  44.417   9.663   7.050
 7580POPC   C4B41758  44.383   9.712   7.350
 7581POPC   NC341759  39.272  27.612   5.550
 7581POPC   PO441760  39.268  27.592   5.850
 7581POPC   GL141761  39.187  27.639   6.150
 7581POPC   GL241762  39.208  27.653   6.150
 7581POPC   C1A41763  39.242  27.622   6.450
 7581POPC   D2A41764  39.215  27.638   6.750
 7581POPC   C3A41765  39.276  27.554   7.050
 7581POPC   C4A41766  39.267  27.578   7.350
 7581POPC   C1B41767  39.089  27.851   6.450
 7581POPC   C2B41768  39.125  27.764   6.750
 7581POPC   C3B41769  39.121  27.794   7.050
 7581POPC   C4B41770  39.100  27.794   7.350
 7582POPC   NC341771   0.442  22.117   5.550
 7582POPC   PO441772   0.389  22.130   5.850
 7582POPC   GL141773   0.478  22.173   6.150
 7582POPC   GL241774   0.475  22.003   6.150
 7582POPC   C1A41775   0.447  22.131   6.450
 7582POPC   D2A41776   0.404  22.153   6.750
 7582POPC   C3A41777   0.483  22.141   7.050
 7582POPC   C4A41778   0.417  22.124   7.350
 7582POPC   C1B41779   0.504  21.958   6.450
 7582POPC   C2B41780   0.418  21.867   6.750
 7582POPC   C3B41781   0.448  21.894   7.050
 7582POPC   C4B41782   0.503  21.951   7.350
 7583POPC   NC341783  31.488  23.676   5.550
 7583POPC   PO441784  31.485  23.757   5.850
 7583POPC   GL141785  31.500  23.695   6.150
 7583POPC   GL241786  31.414  23.831   6.150
 7583POPC   C1A41787  31.452  23.692   6.450
 7583POPC   D2A41788  31.475  23.762   6.750
 7583POPC   C3A41789  31.482  23.759   7.050
 7583POPC   C4A41790  31.441  23.690   7.350
 7583POPC   C1B41791  31.301  23.842   6.450
 7583POPC   C2B41792  31.234  23.888   6.750
 7583POPC   C3B41793  31.228  23.898   7.050
 7583POPC   C4B41794  31.248  23.869   7.350
 7584POPC   NC341795  20.626  22.914   5.550
 7584POPC   PO441796  20.659  22.984   5.850
 7584POPC   GL141797  20.572  22.976   6.150
 7584POPC   GL241798  20.504  22.956   6.150
 7584POPC   C1A41799  20.618  22.968   6.450
 7584POPC   D2A41800  20.649  22.984   6.750
 7584POPC   C3A41801  20.600  22.940   7.050
 7584POPC   C4A41802  20.567  22.950   7.350
 7584POPC   C1B41803  20.404  23.006   6.450
 7584POPC   C2B41804  20.316  22.973   6.750
 7584POPC   C3B41805  20.403  22.990   7.050
 7584POPC   C4B41806  20.412  23.009   7.350
 7585POPC   NC341807   5.884  38.489   5.550
 7585POPC   PO441808   5.825  38.413   5.850
 7585POPC   GL141809   5.897  38.439   6.150
 7585POPC   GL241810   5.788  38.488   6.150
 7585POPC   C1A41811   5.846  38.420   6.450
 7585POPC   D2A41812   5.893  38.439   6.750
 7585POPC   C3A41813   5.830  38.445   7.050
 7585POPC   C4A41814   5.856  38.408   7.350
 7585POPC   C1B41815   5.637  38.505   6.450
 7585POPC   C2B41816   5.656  38.536   6.750
 7585POPC   C3B41817   5.579  38.439   7.050
 7585POPC   C4B41818   5.599  38.528   7.350
 7586POPC   NC341819  29.117   9.709   5.550
 7586POPC   PO441820  29.097   9.755   5.850
 7586POPC   GL141821  29.113   9.699   6.150
 7586POPC   GL241822  29.209   9.811   6.150
 7586POPC   C1A41823  29.186   9.793   6.450
 7586POPC   D2A41824  29.120   9.699   6.750
 7586POPC   C3A41825  29.174   9.712   7.050
 7586POPC   C4A41826  29.135   9.730   7.350
 7586POPC   C1B41827  29.329   9.952   6.450
 7586POPC   C2B41828  29.322   9.977   6.750
 7586POPC   C3B41829  29.346   9.893   7.050
 7586POPC   C4B41830  29.277   9.915   7.350
 7587POPC   NC341831  40.759   8.222   5.550
 7587POPC   PO441832  40.742   8.164   5.850
 7587POPC   GL141833  40.749   8.216   6.150
 7587POPC   GL241834  40.727   8.363   6.150
 7587POPC   C1A41835  40.823   8.210   6.450
 7587POPC   D2A41836  40.742   8.187   6.750
 7587POPC   C3A41837  40.756   8.212   7.050
 7587POPC   C4A41838  40.739   8.159   7.350
 7587POPC   C1B41839  40.730   8.428   6.450
 7587POPC   C2B41840  40.785   8.487   6.750
 7587POPC   C3B41841  40.748   8.456   7.050
 7587POPC   C4B41842  40.724   8.432   7.350
 7588POPC   NC341843   4.281  15.178   5.550
 7588POPC   PO441844   4.345  15.214   5.850
 7588POPC   GL141845   4.292  15.148   6.150
 7588POPC   GL241846   4.375  15.257   6.150
 7588POPC   C1A41847   4.316  15.214   6.450
 7588POPC   D2A41848   4.326  15.226   6.750
 7588POPC   C3A41849   4.349  15.185   7.050
 7588POPC   C4A41850   4.345  15.224   7.350
 7588POPC   C1B41851   4.449  15.381   6.450
 7588POPC   C2B41852   4.412  15.362   6.750
 7588POPC   C3B41853   4.480  15.400   7.050
 7588POPC   C4B41854   4.423  15.395   7.350
 7589POPC   NC341855  42.357  29.929   5.550
 7589POPC   PO441856  42.352  29.878   5.850
 7589POPC   GL141857  42.291  29.951   6.150
 7589POPC   GL241858  42.274  29.780   6.150
 7589POPC   C1A41859  42.294  29.906   6.450
 7589POPC   D2A41860  42.305  29.894   6.750
 7589POPC   C3A41861  42.311  29.964   7.050
 7589POPC   C4A41862  42.377  29.970   7.350
 7589POPC   C1B41863  42.248  29.638   6.450
 7589POPC   C2B41864  42.282  29.659   6.750
 7589POPC   C3B41865  42.269  29.719   7.050
 7589POPC   C4B41866  42.308  29.656   7.350
 7590POPC   NC341867  31.480  33.766   5.550
 7590POPC   PO441868  31.456  33.770   5.850
 7590POPC   GL141869  31.475  33.844   6.150
 7590POPC   GL241870  31.615  33.859   6.150
 7590POPC   C1A41871  31.471  33.836   6.450
 7590POPC   D2A41872  31.448  33.844   6.750
 7590POPC   C3A41873  31.506  33.771   7.050
 7590POPC   C4A41874  31.489  33.844   7.350
 7590POPC   C1B41875  31.699  33.856   6.450
 7590POPC   C2B41876  31.696  33.871   6.750
 7590POPC   C3B41877  31.750  33.900   7.050
 7590POPC   C4B41878  31.729  33.897   7.350
 7591POPC   NC341879  32.989  26.053   5.550
 7591POPC   PO441880  33.026  26.084   5.850
 7591POPC   GL141881  33.036  26.061   6.150
 7591POPC   GL241882  33.016  26.118   6.150
 7591POPC   C1A41883  33.005  26.076   6.450
 7591POPC   D2A41884  32.993  26.044   6.750
 7591POPC   C3A41885  33.025  26.064   7.050
 7591POPC   C4A41886  33.037  26.080   7.350
 7591POPC   C1B41887  32.948  26.295   6.450
 7591POPC   C2B41888  33.019  26.287   6.750
 7591POPC   C3B41889  32.963  26.251   7.050
 7591POPC   C4B41890  33.028  26.247   7.350
 7592POPC   NC341891  25.294  36.100   5.550
 7592POPC   PO441892  25.262  36.144   5.850
 7592POPC   GL141893  25.267  36.086   6.150
 7592POPC   GL241894  25.205  36.087   6.150
 7592POPC   C1A41895  25.305  36.082   6.450
 7592POPC   D2A41896  25.267  36.087   6.750
 7592POPC   C3A41897  25.228  36.099   7.050
 7592POPC   C4A41898  25.233  36.097   7.350
 7592POPC   C1B41899  25.025  36.004   6.450
 7592POPC   C2B41900  25.020  35.989   6.750
 7592POPC   C3B41901  25.047  36.008   7.050
 7592POPC   C4B41902  25.083  35.969   7.350
 7593POPC   NC341903  40.735  43.119   5.550
 7593POPC   PO441904  40.788  43.079   5.850
 7593POPC   GL141905  40.807  43.084   6.150
 7593POPC   GL241906  40.856  43.205   6.150
 7593POPC   C1A41907  40.737  43.105   6.450
 7593POPC   D2A41908  40.758  43.064   6.750
 7593POPC   C3A41909  40.803  43.117   7.050
 7593POPC   C4A41910  40.786  43.099   7.350
 7593POPC   C1B41911  40.804  43.342   6.450
 7593POPC   C2B41912  40.839  43.353   6.750
 7593POPC   C3B41913  40.890  43.344   7.050
 7593POPC   C4B41914  40.852  43.394   7.350
 7594POPC   NC341915   3.535  23.704   5.550
 7594POPC   PO441916   3.580  23.677   5.850
 7594POPC   GL141917   3.532  23.731   6.150
 7594POPC   GL241918   3.405  23.685   6.150
 7594POPC   C1A41919   3.503  23.715   6.450
 7594POPC   D2A41920   3.570  23.758   6.750
 7594POPC   C3A41921   3.583  23.754   7.050
 7594POPC   C4A41922   3.547  23.736   7.350
 7594POPC   C1B41923   3.316  23.674   6.450
 7594POPC   C2B41924   3.330  23.617   6.750
 7594POPC   C3B41925   3.306  23.679   7.050
 7594POPC   C4B41926   3.275  23.605   7.350
 7595POPC   NC341927  28.324  28.410   5.550
 7595POPC   PO441928  28.357  28.385   5.850
 7595POPC   GL141929  28.389  28.388   6.150
 7595POPC   GL241930  28.341  28.209   6.150
 7595POPC   C1A41931  28.369  28.333   6.450
 7595POPC   D2A41932  28.328  28.416   6.750
 7595POPC   C3A41933  28.375  28.357   7.050
 7595POPC   C4A41934  28.335  28.352   7.350
 7595POPC   C1B41935  28.289  28.143   6.450
 7595POPC   C2B41936  28.312  28.103   6.750
 7595POPC   C3B41937  28.355  28.100   7.050
 7595POPC   C4B41938  28.344  28.154   7.350
 7596POPC   NC341939  43.123  26.020   5.550
 7596POPC   PO441940  43.082  26.081   5.850
 7596POPC   GL141941  43.071  26.067   6.150
 7596POPC   GL241942  43.233  26.099   6.150
 7596POPC   C1A41943  43.105  25.994   6.450
 7596POPC   D2A41944  43.113  26.082   6.750
 7596POPC   C3A41945  43.112  26.029   7.050
 7596POPC   C4A41946  43.129  26.081   7.350
 7596POPC   C1B41947  43.326  26.163   6.450
 7596POPC   C2B41948  43.283  26.174   6.750
 7596POPC   C3B41949  43.301  26.160   7.050
 7596POPC   C4B41950  43.363  26.199   7.350
 7597POPC   NC341951  12.821  37.663   5.550
 7597POPC   PO441952  12.821  37.683   5.850
 7597POPC   GL141953  12.826  37.718   6.150
 7597POPC   GL241954  12.877  37.837   6.150
 7597POPC   C1A41955  12.883  37.649   6.450
 7597POPC   D2A41956  12.873  37.636   6.750
 7597POPC   C3A41957  12.860  37.717   7.050
 7597POPC   C4A41958  12.805  37.646   7.350
 7597POPC   C1B41959  12.832  37.918   6.450
 7597POPC   C2B41960  12.888  37.924   6.750
 7597POPC   C3B41961  12.865  37.978   7.050
 7597POPC   C4B41962  12.880  37.935   7.350
 7598POPC   NC341963  15.947  41.519   5.550
 7598POPC   PO441964  15.995  41.580   5.850
 7598POPC   GL141965  15.928  41.538   6.150
 7598POPC   GL241966  16.018  41.639   6.150
 7598POPC   C1A41967  15.906  41.513   6.450
 7598POPC   D2A41968  15.914  41.561   6.750
 7598POPC   C3A41969  15.963  41.521   7.050
 7598POPC   C4A41970  15.919  41.588   7.350
 7598POPC   C1B41971  16.137  41.756   6.450
 7598POPC   C2B41972  16.085  41.717   6.750
 7598POPC   C3B41973  16.110  41.742   7.050
 7598POPC   C4B41974  16.095  41.733   7.350
 7599POPC   NC341975   1.231  21.338   5.550
 7599POPC   PO441976   1.182  21.422   5.850
 7599POPC   GL141977   1.180  21.430   6.150
 7599POPC   GL241978   1.180  21.319   6.150
 7599POPC   C1A41979   1.185  21.349   6.450
 7599POPC   D2A41980   1.164  21.394   6.750
 7599POPC   C3A41981   1.195  21.368   7.050
 7599POPC   C4A41982   1.176  21.435   7.350
 7599POPC   C1B41983   1.049  21.125   6.450
 7599POPC   C2B41984   1.075  21.182   6.750
 7599POPC   C3B41985   1.065  21.142   7.050
 7599POPC   C4B41986   1.108  21.179   7.350
 7600POPC   NC341987  40.751  34.580   5.550
 7600POPC   PO441988  40.773  34.565   5.850
 7600POPC   GL141989  40.784  34.562   6.150
 7600POPC   GL241990  40.815  34.456   6.150
 7600POPC   C1A41991  40.776  34.541   6.450
 7600POPC   D2A41992  40.808  34.564   6.750
 7600POPC   C3A41993  40.828  34.573   7.050
 7600POPC   C4A41994  40.816  34.607   7.350
 7600POPC   C1B41995  40.876  34.304   6.450
 7600POPC   C2B41996  40.853  34.401   6.750
 7600POPC   C3B41997  40.924  34.339   7.050
 7600POPC   C4B41998  40.918  34.369   7.350
 7601POPC   NC341999  17.501  15.971   5.550
 7601POPC   PO442000  17.535  15.986   5.850
 7601POPC   GL142001  17.514  15.923   6.150
 7601POPC   GL242002  17.470  16.083   6.150
 7601POPC   C1A42003  17.524  15.911   6.450
 7601POPC   D2A42004  17.502  15.933   6.750
 7601POPC   C3A42005  17.467  16.001   7.050
 7601POPC   C4A42006  17.485  15.973   7.350
 7601POPC   C1B42007  17.572  16.205   6.450
 7601POPC   C2B42008  17.570  16.168   6.750
 7601POPC   C3B42009  17.520  16.234   7.050
 7601POPC   C4B42010  17.574  16.164   7.350
 7602POPC   NC342011   2.011  16.768   5.550
 7602POPC   PO442012   1.967  16.738   5.850
 7602POPC   GL142013   1.987  16.697   6.150
 7602POPC   GL242014   1.962  16.851   6.150
 7602POPC   C1A42015   1.957  16.694   6.450
 7602POPC   D2A42016   2.027  16.724   6.750
 7602POPC   C3A42017   1.994  16.739   7.050
 7602POPC   C4A42018   1.942  16.765   7.350
 7602POPC   C1B42019   1.852  16.950   6.450
 7602POPC   C2B42020   1.847  16.966   6.750
 7602POPC   C3B42021   1.841  16.982   7.050
 7602POPC   C4B42022   1.895  16.981   7.350
 7603POPC   NC342023  22.985  19.810   5.550
 7603POPC   PO442024  22.913  19.785   5.850
 7603POPC   GL142025  22.900  19.884   6.150
 7603POPC   GL242026  23.052  19.771   6.150
 7603POPC   C1A42027  22.917  19.879   6.450
 7603POPC   D2A42028  22.968  19.875   6.750
 7603POPC   C3A42029  22.929  19.791   7.050
 7603POPC   C4A42030  22.968  19.807   7.350
 7603POPC   C1B42031  23.152  19.648   6.450
 7603POPC   C2B42032  23.120  19.639   6.750
 7603POPC   C3B42033  23.160  19.715   7.050
 7603POPC   C4B42034  23.088  19.709   7.350
 7604POPC   NC342035  33.806  12.898   5.550
 7604POPC   PO442036  33.802  12.872   5.850
 7604POPC   GL142037  33.791  12.849   6.150
 7604POPC   GL242038  33.696  12.928   6.150
 7604POPC   C1A42039  33.769  12.862   6.450
 7604POPC   D2A42040  33.804  12.829   6.750
 7604POPC   C3A42041  33.773  12.875   7.050
 7604POPC   C4A42042  33.758  12.806   7.350
 7604POPC   C1B42043  33.583  12.909   6.450
 7604POPC   C2B42044  33.525  12.966   6.750
 7604POPC   C3B42045  33.563  12.943   7.050
 7604POPC   C4B42046  33.545  12.881   7.350
 7605POPC   NC342047  21.341   1.943   5.550
 7605POPC   PO442048  21.430   2.028   5.850
 7605POPC   GL142049  21.404   1.949   6.150
 7605POPC   GL242050  21.289   1.996   6.150
 7605POPC   C1A42051  21.360   1.955   6.450
 7605POPC   D2A42052  21.394   1.965   6.750
 7605POPC   C3A42053  21.394   1.957   7.050
 7605POPC   C4A42054  21.377   1.947   7.350
 7605POPC   C1B42055  21.096   2.055   6.450
 7605POPC   C2B42056  21.098   2.003   6.750
 7605POPC   C3B42057  21.088   1.983   7.050
 7605POPC   C4B42058  21.099   1.996   7.350
 7606POPC   NC342059  12.892  22.946   5.550
 7606POPC   PO442060  12.856  22.899   5.850
 7606POPC   GL142061  12.814  22.938   6.150
 7606POPC   GL242062  12.750  22.851   6.150
 7606POPC   C1A42063  12.872  22.891   6.450
 7606POPC   D2A42064  12.894  22.905   6.750
 7606POPC   C3A42065  12.875  22.903   7.050
 7606POPC   C4A42066  12.843  22.933   7.350
 7606POPC   C1B42067  12.619  22.801   6.450
 7606POPC   C2B42068  12.673  22.817   6.750
 7606POPC   C3B42069  12.607  22.782   7.050
 7606POPC   C4B42070  12.668  22.860   7.350
 7607POPC   NC342071   6.617   2.733   5.550
 7607POPC   PO442072   6.668   2.729   5.850
 7607POPC   GL142073   6.604   2.725   6.150
 7607POPC   GL242074   6.779   2.778   6.150
 7607POPC   C1A42075   6.621   2.772   6.450
 7607POPC   D2A42076   6.640   2.742   6.750
 7607POPC   C3A42077   6.662   2.737   7.050
 7607POPC   C4A42078   6.603   2.807   7.350
 7607POPC   C1B42079   6.860   2.853   6.450
 7607POPC   C2B42080   6.932   2.843   6.750
 7607POPC   C3B42081   6.894   2.842   7.050
 7607POPC   C4B42082   6.923   2.835   7.350
 7608POPC   NC342083  23.760   0.434   5.550
 7608POPC   PO442084  23.700   0.458   5.850
 7608POPC   GL142085  23.763   0.413   6.150
 7608POPC   GL242086  23.888   0.392   6.150
 7608POPC   C1A42087  23.671   0.408   6.450
 7608POPC   D2A42088  23.751   0.412   6.750
 7608POPC   C3A42089  23.748   0.419   7.050
 7608POPC   C4A42090  23.744   0.465   7.350
 7608POPC   C1B42091  23.965   0.404   6.450
 7608POPC   C2B42092  23.946   0.423   6.750
 7608POPC   C3B42093  23.937   0.432   7.050
 7608POPC   C4B42094  23.930   0.452   7.350
 7609POPC   NC342095  16.729   1.193   5.550
 7609POPC   PO442096  16.710   1.198   5.850
 7609POPC   GL142097  16.713   1.184   6.150
 7609POPC   GL242098  16.770   1.310   6.150
 7609POPC   C1A42099  16.749   1.228   6.450
 7609POPC   D2A42100  16.700   1.220   6.750
 7609POPC   C3A42101  16.688   1.164   7.050
 7609POPC   C4A42102  16.763   1.264   7.350
 7609POPC   C1B42103  16.878   1.399   6.450
 7609POPC   C2B42104  16.831   1.450   6.750
 7609POPC   C3B42105  16.835   1.381   7.050
 7609POPC   C4B42106  16.905   1.462   7.350
 7610POPC   NC342107   6.605   4.332   5.550
 7610POPC   PO442108   6.642   4.287   5.850
 7610POPC   GL142109   6.664   4.344   6.150
 7610POPC   GL242110   6.536   4.349   6.150
 7610POPC   C1A42111   6.616   4.284   6.450
 7610POPC   D2A42112   6.603   4.302   6.750
 7610POPC   C3A42113   6.632   4.278   7.050
 7610POPC   C4A42114   6.652   4.350   7.350
 7610POPC   C1B42115   6.410   4.419   6.450
 7610POPC   C2B42116   6.375   4.324   6.750
 7610POPC   C3B42117   6.439   4.416   7.050
 7610POPC   C4B42118   6.422   4.375   7.350
 7611POPC   NC342119  21.415  29.122   5.550
 7611POPC   PO442120  21.424  29.108   5.850
 7611POPC   GL142121  21.343  29.101   6.150
 7611POPC   GL242122  21.339  29.267   6.150
 7611POPC   C1A42123  21.405  29.140   6.450
 7611POPC   D2A42124  21.383  29.105   6.750
 7611POPC   C3A42125  21.421  29.100   7.050
 7611POPC   C4A42126  21.369  29.121   7.350
 7611POPC   C1B42127  21.200  29.335   6.450
 7611POPC   C2B42128  21.236  29.342   6.750
 7611POPC   C3B42129  21.212  29.325   7.050
 7611POPC   C4B42130  21.259  29.356   7.350
 7612POPC   NC342131   4.323  12.842   5.550
 7612POPC   PO442132   4.278  12.889   5.850
 7612POPC   GL142133   4.275  12.825   6.150
 7612POPC   GL242134   4.361  12.978   6.150
 7612POPC   C1A42135   4.301  12.819   6.450
 7612POPC   D2A42136   4.318  12.842   6.750
 7612POPC   C3A42137   4.365  12.869   7.050
 7612POPC   C4A42138   4.282  12.887   7.350
 7612POPC   C1B42139   4.353  13.079   6.450
 7612POPC   C2B42140   4.336  13.095   6.750
 7612POPC   C3B42141   4.373  13.062   7.050
 7612POPC   C4B42142   4.349  13.072   7.350
 7613POPC   NC342143  29.924  24.493   5.550
 7613POPC   PO442144  29.890  24.523   5.850
 7613POPC   GL142145  29.885  24.529   6.150
 7613POPC   GL242146  29.806  24.484   6.150
 7613POPC   C1A42147  29.908  24.497   6.450
 7613POPC   D2A42148  29.918  24.526   6.750
 7613POPC   C3A42149  29.954  24.539   7.050
 7613POPC   C4A42150  29.965  24.461   7.350
 7613POPC   C1B42151  29.684  24.464   6.450
 7613POPC   C2B42152  29.656  24.468   6.750
 7613POPC   C3B42153  29.666  24.417   7.050
 7613POPC   C4B42154  29.659  24.440   7.350
 7614POPC   NC342155  10.547  23.738   5.550
 7614POPC   PO442156  10.526  23.744   5.850
 7614POPC   GL142157  10.487  23.705   6.150
 7614POPC   GL242158  10.575  23.582   6.150
 7614POPC   C1A42159  10.510  23.706   6.450
 7614POPC   D2A42160  10.571  23.706   6.750
 7614POPC   C3A42161  10.528  23.758   7.050
 7614POPC   C4A42162  10.514  23.752   7.350
 7614POPC   C1B42163  10.737  23.590   6.450
 7614POPC   C2B42164  10.705  23.529   6.750
 7614POPC   C3B42165  10.675  23.557   7.050
 7614POPC   C4B42166  10.722  23.526   7.350
 7615POPC   NC342167  22.192  12.083   5.550
 7615POPC   PO442168  22.172  12.036   5.850
 7615POPC   GL142169  22.117  12.094   6.150
 7615POPC   GL242170  22.183  11.976   6.150
 7615POPC   C1A42171  22.179  12.073   6.450
 7615POPC   D2A42172  22.143  12.106   6.750
 7615POPC   C3A42173  22.142  12.084   7.050
 7615POPC   C4A42174  22.123  12.061   7.350
 7615POPC   C1B42175  22.173  11.789   6.450
 7615POPC   C2B42176  22.156  11.858   6.750
 7615POPC   C3B42177  22.149  11.812   7.050
 7615POPC   C4B42178  22.214  11.817   7.350
 7616POPC   NC342179  19.068  28.322   5.550
 7616POPC   PO442180  19.043  28.410   5.850
 7616POPC   GL142181  19.063  28.375   6.150
 7616POPC   GL242182  18.998  28.251   6.150
 7616POPC   C1A42183  19.083  28.392   6.450
 7616POPC   D2A42184  19.106  28.361   6.750
 7616POPC   C3A42185  19.063  28.340   7.050
 7616POPC   C4A42186  19.075  28.346   7.350
 7616POPC   C1B42187  18.868  28.239   6.450
 7616POPC   C2B42188  18.887  28.251   6.750
 7616POPC   C3B42189  18.897  28.193   7.050
 7616POPC   C4B42190  18.833  28.201   7.350
 7617POPC   NC342191   6.636   5.886   5.550
 7617POPC   PO442192   6.678   5.820   5.850
 7617POPC   GL142193   6.629   5.833   6.150
 7617POPC   GL242194   6.789   5.899   6.150
 7617POPC   C1A42195   6.659   5.824   6.450
 7617POPC   D2A42196   6.619   5.906   6.750
 7617POPC   C3A42197   6.662   5.829   7.050
 7617POPC   C4A42198   6.647   5.882   7.350
 7617POPC   C1B42199   6.892   5.940   6.450
 7617POPC   C2B42200   6.940   5.885   6.750
 7617POPC   C3B42201   6.847   5.918   7.050
 7617POPC   C4B42202   6.906   5.961   7.350
 7618POPC   NC342203  27.583  32.204   5.550
 7618POPC   PO442204  27.619  32.264   5.850
 7618POPC   GL142205  27.635  32.278   6.150
 7618POPC   GL242206  27.714  32.162   6.150
 7618POPC   C1A42207  27.603  32.289   6.450
 7618POPC   D2A42208  27.587  32.199   6.750
 7618POPC   C3A42209  27.571  32.278   7.050
 7618POPC   C4A42210  27.619  32.297   7.350
 7618POPC   C1B42211  27.848  32.171   6.450
 7618POPC   C2B42212  27.821  32.101   6.750
 7618POPC   C3B42213  27.821  32.134   7.050
 7618POPC   C4B42214  27.794  32.173   7.350
 7619POPC   NC342215  30.679  22.146   5.550
 7619POPC   PO442216  30.724  22.115   5.850
 7619POPC   GL142217  30.712  22.175   6.150
 7619POPC   GL242218  30.736  22.267   6.150
 7619POPC   C1A42219  30.683  22.181   6.450
 7619POPC   D2A42220  30.707  22.209   6.750
 7619POPC   C3A42221  30.654  22.117   7.050
 7619POPC   C4A42222  30.659  22.187   7.350
 7619POPC   C1B42223  30.812  22.329   6.450
 7619POPC   C2B42224  30.844  22.364   6.750
 7619POPC   C3B42225  30.772  22.398   7.050
 7619POPC   C4B42226  30.786  22.378   7.350
 7620POPC   NC342227  23.748   4.304   5.550
 7620POPC   PO442228  23.718   4.292   5.850
 7620POPC   GL142229  23.692   4.281   6.150
 7620POPC   GL242230  23.675   4.457   6.150
 7620POPC   C1A42231  23.764   4.287   6.450
 7620POPC   D2A42232  23.699   4.282   6.750
 7620POPC   C3A42233  23.700   4.273   7.050
 7620POPC   C4A42234  23.749   4.291   7.350
 7620POPC   C1B42235  23.657   4.509   6.450
 7620POPC   C2B42236  23.613   4.542   6.750
 7620POPC   C3B42237  23.621   4.568   7.050
 7620POPC   C4B42238  23.600   4.507   7.350
 7621POPC   NC342239   5.854  36.153   5.550
 7621POPC   PO442240   5.852  36.125   5.850
 7621POPC   GL142241   5.892  36.135   6.150
 7621POPC   GL242242   5.786  36.194   6.150
 7621POPC   C1A42243   5.913  36.140   6.450
 7621POPC   D2A42244   5.887  36.162   6.750
 7621POPC   C3A42245   5.826  36.086   7.050
 7621POPC   C4A42246   5.828  36.130   7.350
 7621POPC   C1B42247   5.640  36.232   6.450
 7621POPC   C2B42248   5.650  36.204   6.750
 7621POPC   C3B42249   5.669  36.282   7.050
 7621POPC   C4B42250   5.665  36.280   7.350
 7622POPC   NC342251  29.109  26.077   5.550
 7622POPC   PO442252  29.188  26.007   5.850
 7622POPC   GL142253  29.155  26.039   6.150
 7622POPC   GL242254  29.101  25.902   6.150
 7622POPC   C1A42255  29.183  26.030   6.450
 7622POPC   D2A42256  29.105  26.067   6.750
 7622POPC   C3A42257  29.190  26.015   7.050
 7622POPC   C4A42258  29.130  26.028   7.350
 7622POPC   C1B42259  29.042  25.819   6.450
 7622POPC   C2B42260  29.008  25.769   6.750
 7622POPC   C3B42261  29.025  25.828   7.050
 7622POPC   C4B42262  29.069  25.793   7.350
 7623POPC   NC342263  16.755  39.988   5.550
 7623POPC   PO442264  16.721  40.057   5.850
 7623POPC   GL142265  16.727  39.984   6.150
 7623POPC   GL242266  16.833  40.007   6.150
 7623POPC   C1A42267  16.702  39.997   6.450
 7623POPC   D2A42268  16.690  39.959   6.750
 7623POPC   C3A42269  16.687  40.028   7.050
 7623POPC   C4A42270  16.732  40.024   7.350
 7623POPC   C1B42271  16.954  39.910   6.450
 7623POPC   C2B42272  17.018  39.965   6.750
 7623POPC   C3B42273  16.994  39.909   7.050
 7623POPC   C4B42274  17.006  39.950   7.350
 7624POPC   NC342275  33.790  30.649   5.550
 7624POPC   PO442276  33.768  30.660   5.850
 7624POPC   GL142277  33.771  30.680   6.150
 7624POPC   GL242278  33.717  30.558   6.150
 7624POPC   C1A42279  33.756  30.661   6.450
 7624POPC   D2A42280  33.833  30.697   6.750
 7624POPC   C3A42281  33.802  30.707   7.050
 7624POPC   C4A42282  33.832  30.655   7.350
 7624POPC   C1B42283  33.681  30.518   6.450
 7624POPC   C2B42284  33.667  30.521   6.750
 7624POPC   C3B42285  33.686  30.505   7.050
 7624POPC   C4B42286  33.699  30.516   7.350
 7625POPC   NC342287  34.527  36.858   5.550
 7625POPC   PO442288  34.621  36.896   5.850
 7625POPC   GL142289  34.573  36.926   6.150
 7625POPC   GL242290  34.619  36.997   6.150
 7625POPC   C1A42291  34.613  36.944   6.450
 7625POPC   D2A42292  34.583  36.871   6.750
 7625POPC   C3A42293  34.561  36.912   7.050
 7625POPC   C4A42294  34.599  36.906   7.350
 7625POPC   C1B42295  34.671  37.142   6.450
 7625POPC   C2B42296  34.712  37.152   6.750
 7625POPC   C3B42297  34.677  37.131   7.050
 7625POPC   C4B42298  34.739  37.125   7.350
 7626POPC   NC342299  42.330  19.048   5.550
 7626POPC   PO442300  42.341  19.083   5.850
 7626POPC   GL142301  42.300  19.014   6.150
 7626POPC   GL242302  42.284  19.181   6.150
 7626POPC   C1A42303  42.326  19.034   6.450
 7626POPC   D2A42304  42.290  19.088   6.750
 7626POPC   C3A42305  42.354  19.016   7.050
 7626POPC   C4A42306  42.317  19.058   7.350
 7626POPC   C1B42307  42.152  19.297   6.450
 7626POPC   C2B42308  42.188  19.239   6.750
 7626POPC   C3B42309  42.140  19.304   7.050
 7626POPC   C4B42310  42.146  19.278   7.350
 7627POPC   NC342311  11.303  29.120   5.550
 7627POPC   PO442312  11.268  29.108   5.850
 7627POPC   GL142313  11.252  29.135   6.150
 7627POPC   GL242314  11.309  29.223   6.150
 7627POPC   C1A42315  11.295  29.148   6.450
 7627POPC   D2A42316  11.337  29.194   6.750
 7627POPC   C3A42317  11.316  29.159   7.050
 7627POPC   C4A42318  11.275  29.137   7.350
 7627POPC   C1B42319  11.407  29.335   6.450
 7627POPC   C2B42320  11.390  29.367   6.750
 7627POPC   C3B42321  11.423  29.329   7.050
 7627POPC   C4B42322  11.383  29.332   7.350
 7628POPC   NC342323  13.673   8.970   5.550
 7628POPC   PO442324  13.582   8.998   5.850
 7628POPC   GL142325  13.655   8.982   6.150
 7628POPC   GL242326  13.517   8.967   6.150
 7628POPC   C1A42327  13.636   8.924   6.450
 7628POPC   D2A42328  13.676   8.996   6.750
 7628POPC   C3A42329  13.604   8.958   7.050
 7628POPC   C4A42330  13.666   8.974   7.350
 7628POPC   C1B42331  13.370   8.908   6.450
 7628POPC   C2B42332  13.345   8.958   6.750
 7628POPC   C3B42333  13.408   8.903   7.050
 7628POPC   C4B42334  13.403   8.897   7.350
 7629POPC   NC342335   5.124  15.981   5.550
 7629POPC   PO442336   5.045  15.911   5.850
 7629POPC   GL142337   5.058  15.958   6.150
 7629POPC   GL242338   4.936  15.957   6.150
 7629POPC   C1A42339   5.060  15.979   6.450
 7629POPC   D2A42340   5.110  15.989   6.750
 7629POPC   C3A42341   5.051  15.954   7.050
 7629POPC   C4A42342   5.066  15.987   7.350
 7629POPC   C1B42343   4.801  16.041   6.450
 7629POPC   C2B42344   4.865  15.983   6.750
 7629POPC   C3B42345   4.802  16.026   7.050
 7629POPC   C4B42346   4.841  16.000   7.350
 7630POPC   NC342347  42.295  39.211   5.550
 7630POPC   PO442348  42.344  39.191   5.850
 7630POPC   GL142349  42.384  39.267   6.150
 7630POPC   GL242350  42.329  39.312   6.150
 7630POPC   C1A42351  42.293  39.185   6.450
 7630POPC   D2A42352  42.345  39.196   6.750
 7630POPC   C3A42353  42.355  39.257   7.050
 7630POPC   C4A42354  42.290  39.196   7.350
 7630POPC   C1B42355  42.366  39.460   6.450
 7630POPC   C2B42356  42.275  39.451   6.750
 7630POPC   C3B42357  42.362  39.495   7.050
 7630POPC   C4B42358  42.307  39.469   7.350
 7631POPC   NC342359  23.745  10.549   5.550
 7631POPC   PO442360  23.669  10.482   5.850
 7631POPC   GL142361  23.698  10.521   6.150
 7631POPC   GL242362  23.596  10.505   6.150
 7631POPC   C1A42363  23.700  10.491   6.450
 7631POPC   D2A42364  23.671  10.557   6.750
 7631POPC   C3A42365  23.753  10.495   7.050
 7631POPC   C4A42366  23.722  10.514   7.350
 7631POPC   C1B42367  23.479  10.385   6.450
 7631POPC   C2B42368  23.525  10.414   6.750
 7631POPC   C3B42369  23.515  10.448   7.050
 7631POPC   C4B42370  23.485  10.430   7.350
 7632POPC   NC342371  42.330  28.352   5.550
 7632POPC   PO442372  42.350  28.337   5.850
 7632POPC   GL142373  42.347  28.415   6.150
 7632POPC   GL242374  42.376  28.451   6.150
 7632POPC   C1A42375  42.372  28.375   6.450
 7632POPC   D2A42376  42.301  28.368   6.750
 7632POPC   C3A42377  42.311  28.323   7.050
 7632POPC   C4A42378  42.346  28.369   7.350
 7632POPC   C1B42379  42.553  28.532   6.450
 7632POPC   C2B42380  42.519  28.512   6.750
 7632POPC   C3B42381  42.463  28.532   7.050
 7632POPC   C4B42382  42.459  28.504   7.350
 7633POPC   NC342383  36.913  23.701   5.550
 7633POPC   PO442384  36.878  23.749   5.850
 7633POPC   GL142385  36.894  23.673   6.150
 7633POPC   GL242386  36.801  23.650   6.150
 7633POPC   C1A42387  36.866  23.752   6.450
 7633POPC   D2A42388  36.947  23.672   6.750
 7633POPC   C3A42389  36.919  23.690   7.050
 7633POPC   C4A42390  36.887  23.719   7.350
 7633POPC   C1B42391  36.683  23.640   6.450
 7633POPC   C2B42392  36.708  23.646   6.750
 7633POPC   C3B42393  36.676  23.617   7.050
 7633POPC   C4B42394  36.689  23.639   7.350
 7634POPC   NC342395  39.209  19.839   5.550
 7634POPC   PO442396  39.232  19.860   5.850
 7634POPC   GL142397  39.241  19.850   6.150
 7634POPC   GL242398  39.249  19.710   6.150
 7634POPC   C1A42399  39.226  19.801   6.450
 7634POPC   D2A42400  39.189  19.796   6.750
 7634POPC   C3A42401  39.243  19.837   7.050
 7634POPC   C4A42402  39.280  19.797   7.350
 7634POPC   C1B42403  39.255  19.586   6.450
 7634POPC   C2B42404  39.209  19.633   6.750
 7634POPC   C3B42405  39.279  19.588   7.050
 7634POPC   C4B42406  39.191  19.600   7.350
 7635POPC   NC342407  17.478  30.719   5.550
 7635POPC   PO442408  17.555  30.745   5.850
 7635POPC   GL142409  17.463  30.714   6.150
 7635POPC   GL242410  17.457  30.837   6.150
 7635POPC   C1A42411  17.465  30.744   6.450
 7635POPC   D2A42412  17.533  30.715   6.750
 7635POPC   C3A42413  17.468  30.657   7.050
 7635POPC   C4A42414  17.531  30.733   7.350
 7635POPC   C1B42415  17.431  30.961   6.450
 7635POPC   C2B42416  17.460  30.913   6.750
 7635POPC   C3B42417  17.443  30.889   7.050
 7635POPC   C4B42418  17.399  30.906   7.350
 7636POPC   NC342419  18.295  32.991   5.550
 7636POPC   PO442420  18.277  33.013   5.850
 7636POPC   GL142421  18.330  32.979   6.150
 7636POPC   GL242422  18.368  32.876   6.150
 7636POPC   C1A42423  18.319  33.002   6.450
 7636POPC   D2A42424  18.329  33.052   6.750
 7636POPC   C3A42425  18.275  33.006   7.050
 7636POPC   C4A42426  18.241  33.021   7.350
 7636POPC   C1B42427  18.373  32.809   6.450
 7636POPC   C2B42428  18.441  32.794   6.750
 7636POPC   C3B42429  18.359  32.826   7.050
 7636POPC   C4B42430  18.376  32.794   7.350
 7637POPC   NC342431  30.683  34.600   5.550
 7637POPC   PO442432  30.677  34.582   5.850
 7637POPC   GL142433  30.715  34.556   6.150
 7637POPC   GL242434  30.685  34.509   6.150
 7637POPC   C1A42435  30.681  34.561   6.450
 7637POPC   D2A42436  30.664  34.558   6.750
 7637POPC   C3A42437  30.656  34.625   7.050
 7637POPC   C4A42438  30.706  34.573   7.350
 7637POPC   C1B42439  30.620  34.317   6.450
 7637POPC   C2B42440  30.600  34.354   6.750
 7637POPC   C3B42441  30.616  34.325   7.050
 7637POPC   C4B42442  30.550  34.374   7.350
 7638POPC   NC342443  37.683  14.435   5.550
 7638POPC   PO442444  37.729  14.390   5.850
 7638POPC   GL142445  37.722  14.363   6.150
 7638POPC   GL242446  37.654  14.279   6.150
 7638POPC   C1A42447  37.686  14.403   6.450
 7638POPC   D2A42448  37.679  14.369   6.750
 7638POPC   C3A42449  37.722  14.428   7.050
 7638POPC   C4A42450  37.670  14.409   7.350
 7638POPC   C1B42451  37.622  14.128   6.450
 7638POPC   C2B42452  37.679  14.126   6.750
 7638POPC   C3B42453  37.671  14.146   7.050
 7638POPC   C4B42454  37.662  14.127   7.350
 7639POPC   NC342455  25.268  33.819   5.550
 7639POPC   PO442456  25.248  33.752   5.850
 7639POPC   GL142457  25.304  33.846   6.150
 7639POPC   GL242458  25.254  33.959   6.150
 7639POPC   C1A42459  25.307  33.840   6.450
 7639POPC   D2A42460  25.303  33.798   6.750
 7639POPC   C3A42461  25.247  33.807   7.050
 7639POPC   C4A42462  25.240  33.801   7.350
 7639POPC   C1B42463  25.280  34.081   6.450
 7639POPC   C2B42464  25.313  34.071   6.750
 7639POPC   C3B42465  25.291  34.051   7.050
 7639POPC   C4B42466  25.323  34.034   7.350
 7640POPC   NC342467  21.373  39.215   5.550
 7640POPC   PO442468  21.362  39.212   5.850
 7640POPC   GL142469  21.409  39.256   6.150
 7640POPC   GL242470  21.417  39.357   6.150
 7640POPC   C1A42471  21.428  39.249   6.450
 7640POPC   D2A42472  21.381  39.212   6.750
 7640POPC   C3A42473  21.405  39.266   7.050
 7640POPC   C4A42474  21.433  39.248   7.350
 7640POPC   C1B42475  21.392  39.477   6.450
 7640POPC   C2B42476  21.383  39.453   6.750
 7640POPC   C3B42477  21.393  39.471   7.050
 7640POPC   C4B42478  21.394  39.480   7.350
 7641POPC   NC342479   6.656   8.992   5.550
 7641POPC   PO442480   6.631   8.938   5.850
 7641POPC   GL142481   6.630   8.945   6.150
 7641POPC   GL242482   6.603   9.089   6.150
 7641POPC   C1A42483   6.635   8.956   6.450
 7641POPC   D2A42484   6.678   8.961   6.750
 7641POPC   C3A42485   6.676   8.944   7.050
 7641POPC   C4A42486   6.602   9.008   7.350
 7641POPC   C1B42487   6.454   9.211   6.450
 7641POPC   C2B42488   6.470   9.183   6.750
 7641POPC   C3B42489   6.525   9.161   7.050
 7641POPC   C4B42490   6.541   9.142   7.350
 7642POPC   NC342491  23.755  13.658   5.550
 7642POPC   PO442492  23.690  13.619   5.850
 7642POPC   GL142493  23.741  13.622   6.150
 7642POPC   GL242494  23.628  13.585   6.150
 7642POPC   C1A42495  23.695  13.633   6.450
 7642POPC   D2A42496  23.677  13.616   6.750
 7642POPC   C3A42497  23.712  13.619   7.050
 7642POPC   C4A42498  23.671  13.658   7.350
 7642POPC   C1B42499  23.431  13.609   6.450
 7642POPC   C2B42500  23.508  13.579   6.750
 7642POPC   C3B42501  23.474  13.601   7.050
 7642POPC   C4B42502  23.469  13.622   7.350
 7643POPC   NC342503  27.590  22.122   5.550
 7643POPC   PO442504  27.569  22.137   5.850
 7643POPC   GL142505  27.633  22.181   6.150
 7643POPC   GL242506  27.539  22.289   6.150
 7643POPC   C1A42507  27.576  22.168   6.450
 7643POPC   D2A42508  27.612  22.155   6.750
 7643POPC   C3A42509  27.560  22.134   7.050
 7643POPC   C4A42510  27.602  22.183   7.350
 7643POPC   C1B42511  27.532  22.381   6.450
 7643POPC   C2B42512  27.540  22.369   6.750
 7643POPC   C3B42513  27.497  22.383   7.050
 7643POPC   C4B42514  27.497  22.361   7.350
 7644POPC   NC342515  43.145  19.854   5.550
 7644POPC   PO442516  43.154  19.884   5.850
 7644POPC   GL142517  43.105  19.836   6.150
 7644POPC   GL242518  43.096  19.971   6.150
 7644POPC   C1A42519  43.101  19.844   6.450
 7644POPC   D2A42520  43.065  19.814   6.750
 7644POPC   C3A42521  43.119  19.841   7.050
 7644POPC   C4A42522  43.082  19.787   7.350
 7644POPC   C1B42523  43.109  20.117   6.450
 7644POPC   C2B42524  43.124  20.089   6.750
 7644POPC   C3B42525  43.118  20.112   7.050
 7644POPC   C4B42526  43.100  20.121   7.350
 7645POPC   NC342527  35.302  22.170   5.550
 7645POPC   PO442528  35.372  22.151   5.850
 7645POPC   GL142529  35.357  22.124   6.150
 7645POPC   GL242530  35.416  22.059   6.150
 7645POPC   C1A42531  35.308  22.155   6.450
 7645POPC   D2A42532  35.358  22.195   6.750
 7645POPC   C3A42533  35.355  22.183   7.050
 7645POPC   C4A42534  35.391  22.142   7.350
 7645POPC   C1B42535  35.577  22.057   6.450
 7645POPC   C2B42536  35.589  22.012   6.750
 7645POPC   C3B42537  35.598  22.034   7.050
 7645POPC   C4B42538  35.577  22.025   7.350
 7646POPC   NC342539  19.018  42.340   5.550
 7646POPC   PO442540  19.034  42.355   5.850
 7646POPC   GL142541  19.053  42.379   6.150
 7646POPC   GL242542  18.938  42.266   6.150
 7646POPC   C1A42543  19.096  42.317   6.450
 7646POPC   D2A42544  19.026  42.330   6.750
 7646POPC   C3A42545  19.076  42.311   7.050
 7646POPC   C4A42546  19.061  42.310   7.350
 7646POPC   C1B42547  18.898  42.203   6.450
 7646POPC   C2B42548  18.817  42.140   6.750
 7646POPC   C3B42549  18.815  42.229   7.050
 7646POPC   C4B42550  18.841  42.212   7.350
 7647POPC   NC342551  34.530   4.298   5.550
 7647POPC   PO442552  34.578   4.298   5.850
 7647POPC   GL142553  34.570   4.357   6.150
 7647POPC   GL242554  34.538   4.440   6.150
 7647POPC   C1A42555  34.573   4.272   6.450
 7647POPC   D2A42556  34.533   4.270   6.750
 7647POPC   C3A42557  34.617   4.347   7.050
 7647POPC   C4A42558  34.605   4.304   7.350
 7647POPC   C1B42559  34.425   4.544   6.450
 7647POPC   C2B42560  34.401   4.518   6.750
 7647POPC   C3B42561  34.468   4.562   7.050
 7647POPC   C4B42562  34.424   4.498   7.350
 7648POPC   NC342563  33.788   6.652   5.550
 7648POPC   PO442564  33.793   6.686   5.850
 7648POPC   GL142565  33.815   6.616   6.150
 7648POPC   GL242566  33.672   6.728   6.150
 7648POPC   C1A42567  33.756   6.624   6.450
 7648POPC   D2A42568  33.801   6.657   6.750
 7648POPC   C3A42569  33.758   6.629   7.050
 7648POPC   C4A42570  33.840   6.608   7.350
 7648POPC   C1B42571  33.633   6.805   6.450
 7648POPC   C2B42572  33.657   6.841   6.750
 7648POPC   C3B42573  33.605   6.841   7.050
 7648POPC   C4B42574  33.625   6.856   7.350
 7649POPC   NC342575  29.958  36.099   5.550
 7649POPC   PO442576  29.875  36.123   5.850
 7649POPC   GL142577  29.894  36.078   6.150
 7649POPC   GL242578  29.938  35.968   6.150
 7649POPC   C1A42579  29.920  36.092   6.450
 7649POPC   D2A42580  29.910  36.098   6.750
 7649POPC   C3A42581  29.951  36.091   7.050
 7649POPC   C4A42582  29.935  36.080   7.350
 7649POPC   C1B42583  29.985  35.909   6.450
 7649POPC   C2B42584  29.991  35.886   6.750
 7649POPC   C3B42585  29.933  35.916   7.050
 7649POPC   C4B42586  29.966  35.923   7.350
 7650POPC   NC342587  43.904  22.207   5.550
 7650POPC   PO442588  43.914  22.166   5.850
 7650POPC   GL142589  43.845  22.208   6.150
 7650POPC   GL242590  44.037  22.161   6.150
 7650POPC   C1A42591  43.883  22.177   6.450
 7650POPC   D2A42592  43.890  22.200   6.750
 7650POPC   C3A42593  43.846  22.205   7.050
 7650POPC   C4A42594  43.925  22.152   7.350
 7650POPC   C1B42595  44.163  22.181   6.450
 7650POPC   C2B42596  44.175  22.163   6.750
 7650POPC   C3B42597  44.168  22.167   7.050
 7650POPC   C4B42598  44.135  22.140   7.350
 7651POPC   NC342599  29.918   1.202   5.550
 7651POPC   PO442600  29.927   1.190   5.850
 7651POPC   GL142601  29.929   1.227   6.150
 7651POPC   GL242602  29.774   1.274   6.150
 7651POPC   C1A42603  29.925   1.217   6.450
 7651POPC   D2A42604  29.899   1.220   6.750
 7651POPC   C3A42605  29.880   1.244   7.050
 7651POPC   C4A42606  29.968   1.168   7.350
 7651POPC   C1B42607  29.655   1.232   6.450
 7651POPC   C2B42608  29.685   1.259   6.750
 7651POPC   C3B42609  29.656   1.235   7.050
 7651POPC   C4B42610  29.680   1.189   7.350
 7652POPC   NC342611   3.496  17.537   5.550
 7652POPC   PO442612   3.521  17.516   5.850
 7652POPC   GL142613   3.533  17.490   6.150
 7652POPC   GL242614   3.624  17.451   6.150
 7652POPC   C1A42615   3.588  17.470   6.450
 7652POPC   D2A42616   3.500  17.503   6.750
 7652POPC   C3A42617   3.518  17.469   7.050
 7652POPC   C4A42618   3.586  17.475   7.350
 7652POPC   C1B42619   3.682  17.358   6.450
 7652POPC   C2B42620   3.670  17.351   6.750
 7652POPC   C3B42621   3.674  17.266   7.050
 7652POPC   C4B42622   3.733  17.281   7.350
 7653POPC   NC342623  41.597  17.531   5.550
 7653POPC   PO442624  41.549  17.461   5.850
 7653POPC   GL142625  41.568  17.524   6.150
 7653POPC   GL242626  41.497  17.387   6.150
 7653POPC   C1A42627  41.575  17.460   6.450
 7653POPC   D2A42628  41.593  17.480   6.750
 7653POPC   C3A42629  41.537  17.481   7.050
 7653POPC   C4A42630  41.581  17.543   7.350
 7653POPC   C1B42631  41.414  17.334   6.450
 7653POPC   C2B42632  41.434  17.251   6.750
 7653POPC   C3B42633  41.405  17.256   7.050
 7653POPC   C4B42634  41.440  17.287   7.350
 7654POPC   NC342635   3.563  11.311   5.550
 7654POPC   PO442636   3.550  11.326   5.850
 7654POPC   GL142637   3.530  11.254   6.150
 7654POPC   GL242638   3.380  11.373   6.150
 7654POPC   C1A42639   3.575  11.321   6.450
 7654POPC   D2A42640   3.501  11.340   6.750
 7654POPC   C3A42641   3.524  11.283   7.050
 7654POPC   C4A42642   3.580  11.264   7.350
 7654POPC   C1B42643   3.329  11.395   6.450
 7654POPC   C2B42644   3.296  11.356   6.750
 7654POPC   C3B42645   3.295  11.425   7.050
 7654POPC   C4B42646   3.346  11.420   7.350
 7655POPC   NC342647   5.055   1.953   5.550
 7655POPC   PO442648   5.108   1.951   5.850
 7655POPC   GL142649   5.126   2.006   6.150
 7655POPC   GL242650   5.085   1.877   6.150
 7655POPC   C1A42651   5.111   1.943   6.450
 7655POPC   D2A42652   5.070   1.945   6.750
 7655POPC   C3A42653   5.102   1.946   7.050
 7655POPC   C4A42654   5.088   1.960   7.350
 7655POPC   C1B42655   5.033   1.752   6.450
 7655POPC   C2B42656   5.055   1.744   6.750
 7655POPC   C3B42657   5.018   1.781   7.050
 7655POPC   C4B42658   5.035   1.695   7.350
 7656POPC   NC342659  23.755  16.704   5.550
 7656POPC   PO442660  23.764  16.766   5.850
 7656POPC   GL142661  23.759  16.692   6.150
 7656POPC   GL242662  23.637  16.738   6.150
 7656POPC   C1A42663  23.677  16.774   6.450
 7656POPC   D2A42664  23.691  16.710   6.750
 7656POPC   C3A42665  23.734  16.728   7.050
 7656POPC   C4A42666  23.759  16.720   7.350
 7656POPC   C1B42667  23.479  16.640   6.450
 7656POPC   C2B42668  23.474  16.645   6.750
 7656POPC   C3B42669  23.456  16.623   7.050
 7656POPC   C4B42670  23.497  16.626   7.350
 7657POPC   NC342671  16.750  42.380   5.550
 7657POPC   PO442672  16.690  42.303   5.850
 7657POPC   GL142673  16.718  42.350   6.150
 7657POPC   GL242674  16.717  42.234   6.150
 7657POPC   C1A42675  16.723  42.316   6.450
 7657POPC   D2A42676  16.702  42.293   6.750
 7657POPC   C3A42677  16.692  42.357   7.050
 7657POPC   C4A42678  16.771  42.287   7.350
 7657POPC   C1B42679  16.771  42.107   6.450
 7657POPC   C2B42680  16.775  42.068   6.750
 7657POPC   C3B42681  16.756  42.072   7.050
 7657POPC   C4B42682  16.737  42.092   7.350
 7658POPC   NC342683  27.554  29.883   5.550
 7658POPC   PO442684  27.563  29.937   5.850
 7658POPC   GL142685  27.599  29.941   6.150
 7658POPC   GL242686  27.442  29.953   6.150
 7658POPC   C1A42687  27.614  29.939   6.450
 7658POPC   D2A42688  27.543  29.878   6.750
 7658POPC   C3A42689  27.584  29.941   7.050
 7658POPC   C4A42690  27.620  29.908   7.350
 7658POPC   C1B42691  27.399  30.027   6.450
 7658POPC   C2B42692  27.397  29.964   6.750
 7658POPC   C3B42693  27.322  30.010   7.050
 7658POPC   C4B42694  27.363  29.959   7.350
 7659POPC   NC342695  40.794  38.504   5.550
 7659POPC   PO442696  40.757  38.494   5.850
 7659POPC   GL142697  40.796  38.454   6.150
 7659POPC   GL242698  40.872  38.563   6.150
 7659POPC   C1A42699  40.755  38.435   6.450
 7659POPC   D2A42700  40.787  38.463   6.750
 7659POPC   C3A42701  40.804  38.503   7.050
 7659POPC   C4A42702  40.826  38.505   7.350
 7659POPC   C1B42703  40.859  38.664   6.450
 7659POPC   C2B42704  40.840  38.661   6.750
 7659POPC   C3B42705  40.856  38.644   7.050
 7659POPC   C4B42706  40.894  38.644   7.350
 7660POPC   NC342707  36.118  19.083   5.550
 7660POPC   PO442708  36.131  19.034   5.850
 7660POPC   GL142709  36.118  19.039   6.150
 7660POPC   GL242710  36.034  19.164   6.150
 7660POPC   C1A42711  36.099  19.086   6.450
 7660POPC   D2A42712  36.175  19.074   6.750
 7660POPC   C3A42713  36.124  19.046   7.050
 7660POPC   C4A42714  36.083  19.048   7.350
 7660POPC   C1B42715  35.978  19.205   6.450
 7660POPC   C2B42716  35.969  19.197   6.750
 7660POPC   C3B42717  35.996  19.210   7.050
 7660POPC   C4B42718  35.955  19.207   7.350
 7661POPC   NC342719   2.025  12.849   5.550
 7661POPC   PO442720   2.024  12.882   5.850
 7661POPC   GL142721   2.005  12.825   6.150
 7661POPC   GL242722   1.985  12.967   6.150
 7661POPC   C1A42723   1.987  12.871   6.450
 7661POPC   D2A42724   2.034  12.887   6.750
 7661POPC   C3A42725   1.947  12.817   7.050
 7661POPC   C4A42726   2.006  12.880   7.350
 7661POPC   C1B42727   1.965  13.053   6.450
 7661POPC   C2B42728   2.024  13.099   6.750
 7661POPC   C3B42729   1.994  13.072   7.050
 7661POPC   C4B42730   2.012  13.107   7.350
 7662POPC   NC342731  20.642   0.439   5.550
 7662POPC   PO442732  20.597   0.448   5.850
 7662POPC   GL142733  20.570   0.415   6.150
 7662POPC   GL242734  20.643   0.317   6.150
 7662POPC   C1A42735  20.600   0.483   6.450
 7662POPC   D2A42736  20.568   0.460   6.750
 7662POPC   C3A42737  20.616   0.477   7.050
 7662POPC   C4A42738  20.585   0.446   7.350
 7662POPC   C1B42739  20.629   0.181   6.450
 7662POPC   C2B42740  20.659   0.164   6.750
 7662POPC   C3B42741  20.676   0.212   7.050
 7662POPC   C4B42742  20.612   0.166   7.350
 7663POPC   NC342743  38.453  10.539   5.550
 7663POPC   PO442744  38.450  10.535   5.850
 7663POPC   GL142745  38.488  10.553   6.150
 7663POPC   GL242746  38.479  10.382   6.150
 7663POPC   C1A42747  38.417  10.551   6.450
 7663POPC   D2A42748  38.477  10.481   6.750
 7663POPC   C3A42749  38.408  10.499   7.050
 7663POPC   C4A42750  38.447  10.563   7.350
 7663POPC   C1B42751  38.408  10.235   6.450
 7663POPC   C2B42752  38.449  10.228   6.750
 7663POPC   C3B42753  38.463  10.322   7.050
 7663POPC   C4B42754  38.462  10.243   7.350
 7664POPC   NC342755  41.518   6.691   5.550
 7664POPC   PO442756  41.521   6.625   5.850
 7664POPC   GL142757  41.558   6.689   6.150
 7664POPC   GL242758  41.650   6.554   6.150
 7664POPC   C1A42759  41.603   6.613   6.450
 7664POPC   D2A42760  41.569   6.665   6.750
 7664POPC   C3A42761  41.555   6.685   7.050
 7664POPC   C4A42762  41.550   6.657   7.350
 7664POPC   C1B42763  41.790   6.469   6.450
 7664POPC   C2B42764  41.802   6.497   6.750
 7664POPC   C3B42765  41.756   6.517   7.050
 7664POPC   C4B42766  41.718   6.522   7.350
 7665POPC   NC342767  32.253  33.072   5.550
 7665POPC   PO442768  32.214  33.056   5.850
 7665POPC   GL142769  32.275  33.070   6.150
 7665POPC   GL242770  32.222  33.112   6.150
 7665POPC   C1A42771  32.289  33.025   6.450
 7665POPC   D2A42772  32.296  33.053   6.750
 7665POPC   C3A42773  32.266  33.061   7.050
 7665POPC   C4A42774  32.286  33.048   7.350
 7665POPC   C1B42775  32.287  33.314   6.450
 7665POPC   C2B42776  32.255  33.224   6.750
 7665POPC   C3B42777  32.200  33.237   7.050
 7665POPC   C4B42778  32.288  33.278   7.350
 7666POPC   NC342779  33.768  29.161   5.550
 7666POPC   PO442780  33.789  29.095   5.850
 7666POPC   GL142781  33.801  29.155   6.150
 7666POPC   GL242782  33.703  29.025   6.150
 7666POPC   C1A42783  33.776  29.097   6.450
 7666POPC   D2A42784  33.797  29.115   6.750
 7666POPC   C3A42785  33.785  29.126   7.050
 7666POPC   C4A42786  33.772  29.100   7.350
 7666POPC   C1B42787  33.636  28.967   6.450
 7666POPC   C2B42788  33.692  28.901   6.750
 7666POPC   C3B42789  33.653  28.969   7.050
 7666POPC   C4B42790  33.694  28.936   7.350
 7667POPC   NC342791  41.511  41.596   5.550
 7667POPC   PO442792  41.592  41.573   5.850
 7667POPC   GL142793  41.538  41.564   6.150
 7667POPC   GL242794  41.515  41.675   6.150
 7667POPC   C1A42795  41.546  41.524   6.450
 7667POPC   D2A42796  41.593  41.532   6.750
 7667POPC   C3A42797  41.515  41.558   7.050
 7667POPC   C4A42798  41.542  41.515   7.350
 7667POPC   C1B42799  41.562  41.845   6.450
 7667POPC   C2B42800  41.509  41.852   6.750
 7667POPC   C3B42801  41.568  41.847   7.050
 7667POPC   C4B42802  41.559  41.805   7.350
 7668POPC   NC342803  36.884   9.763   5.550
 7668POPC   PO442804  36.862   9.726   5.850
 7668POPC   GL142805  36.920   9.758   6.150
 7668POPC   GL242806  36.777   9.733   6.150
 7668POPC   C1A42807  36.884   9.767   6.450
 7668POPC   D2A42808  36.894   9.751   6.750
 7668POPC   C3A42809  36.945   9.747   7.050
 7668POPC   C4A42810  36.943   9.722   7.350
 7668POPC   C1B42811  36.619   9.707   6.450
 7668POPC   C2B42812  36.676   9.730   6.750
 7668POPC   C3B42813  36.666   9.655   7.050
 7668POPC   C4B42814  36.709   9.655   7.350
 7669POPC   NC342815  15.907  25.310   5.550
 7669POPC   PO442816  15.932  25.265   5.850
 7669POPC   GL142817  15.949  25.299   6.150
 7669POPC   GL242818  15.863  25.278   6.150
 7669POPC   C1A42819  15.987  25.240   6.450
 7669POPC   D2A42820  15.965  25.292   6.750
 7669POPC   C3A42821  15.921  25.254   7.050
 7669POPC   C4A42822  15.929  25.225   7.350
 7669POPC   C1B42823  15.683  25.306   6.450
 7669POPC   C2B42824  15.734  25.379   6.750
 7669POPC   C3B42825  15.717  25.375   7.050
 7669POPC   C4B42826  15.732  25.361   7.350
 7670POPC   NC342827  39.978  21.369   5.550
 7670POPC   PO442828  39.957  21.421   5.850
 7670POPC   GL142829  40.019  21.435   6.150
 7670POPC   GL242830  40.172  21.310   6.150
 7670POPC   C1A42831  39.963  21.383   6.450
 7670POPC   D2A42832  39.995  21.374   6.750
 7670POPC   C3A42833  40.021  21.389   7.050
 7670POPC   C4A42834  40.032  21.366   7.350
 7670POPC   C1B42835  40.270  21.330   6.450
 7670POPC   C2B42836  40.223  21.306   6.750
 7670POPC   C3B42837  40.278  21.251   7.050
 7670POPC   C4B42838  40.272  21.252   7.350
 7671POPC   NC342839  11.328  39.958   5.550
 7671POPC   PO442840  11.321  39.965   5.850
 7671POPC   GL142841  11.306  40.004   6.150
 7671POPC   GL242842  11.246  39.897   6.150
 7671POPC   C1A42843  11.266  39.994   6.450
 7671POPC   D2A42844  11.288  40.004   6.750
 7671POPC   C3A42845  11.312  40.010   7.050
 7671POPC   C4A42846  11.276  40.005   7.350
 7671POPC   C1B42847  11.203  39.809   6.450
 7671POPC   C2B42848  11.209  39.776   6.750
 7671POPC   C3B42849  11.207  39.757   7.050
 7671POPC   C4B42850  11.134  39.780   7.350
 7672POPC   NC342851  11.263  19.077   5.550
 7672POPC   PO442852  11.290  19.015   5.850
 7672POPC   GL142853  11.252  19.039   6.150
 7672POPC   GL242854  11.293  18.922   6.150
 7672POPC   C1A42855  11.252  19.029   6.450
 7672POPC   D2A42856  11.332  19.035   6.750
 7672POPC   C3A42857  11.279  19.081   7.050
 7672POPC   C4A42858  11.325  19.089   7.350
 7672POPC   C1B42859  11.281  18.775   6.450
 7672POPC   C2B42860  11.314  18.773   6.750
 7672POPC   C3B42861  11.358  18.799   7.050
 7672POPC   C4B42862  11.342  18.820   7.350
 7673POPC   NC342863  12.071  10.574   5.550
 7673POPC   PO442864  12.070  10.492   5.850
 7673POPC   GL142865  12.086  10.565   6.150
 7673POPC   GL242866  12.018  10.649   6.150
 7673POPC   C1A42867  12.076  10.569   6.450
 7673POPC   D2A42868  12.082  10.539   6.750
 7673POPC   C3A42869  12.072  10.499   7.050
 7673POPC   C4A42870  12.063  10.515   7.350
 7673POPC   C1B42871  12.042  10.801   6.450
 7673POPC   C2B42872  11.989  10.776   6.750
 7673POPC   C3B42873  11.965  10.788   7.050
 7673POPC   C4B42874  12.013  10.766   7.350
 7674POPC   NC342875  22.888  37.686   5.550
 7674POPC   PO442876  22.933  37.689   5.850
 7674POPC   GL142877  22.981  37.682   6.150
 7674POPC   GL242878  22.951  37.755   6.150
 7674POPC   C1A42879  22.928  37.680   6.450
 7674POPC   D2A42880  22.938  37.705   6.750
 7674POPC   C3A42881  22.967  37.639   7.050
 7674POPC   C4A42882  22.982  37.646   7.350
 7674POPC   C1B42883  23.024  37.940   6.450
 7674POPC   C2B42884  23.008  37.962   6.750
 7674POPC   C3B42885  22.993  37.944   7.050
 7674POPC   C4B42886  23.003  37.921   7.350
 7675POPC   NC342887  11.278  18.270   5.550
 7675POPC   PO442888  11.301  18.246   5.850
 7675POPC   GL142889  11.317  18.325   6.150
 7675POPC   GL242890  11.456  18.322   6.150
 7675POPC   C1A42891  11.309  18.241   6.450
 7675POPC   D2A42892  11.270  18.307   6.750
 7675POPC   C3A42893  11.332  18.239   7.050
 7675POPC   C4A42894  11.331  18.253   7.350
 7675POPC   C1B42895  11.532  18.265   6.450
 7675POPC   C2B42896  11.597  18.271   6.750
 7675POPC   C3B42897  11.574  18.316   7.050
 7675POPC   C4B42898  11.598  18.329   7.350
 7676POPC   NC342899  15.181  40.763   5.550
 7676POPC   PO442900  15.138  40.773   5.850
 7676POPC   GL142901  15.203  40.755   6.150
 7676POPC   GL242902  15.272  40.714   6.150
 7676POPC   C1A42903  15.155  40.825   6.450
 7676POPC   D2A42904  15.130  40.808   6.750
 7676POPC   C3A42905  15.186  40.765   7.050
 7676POPC   C4A42906  15.174  40.749   7.350
 7676POPC   C1B42907  15.310  40.609   6.450
 7676POPC   C2B42908  15.280  40.607   6.750
 7676POPC   C3B42909  15.365  40.566   7.050
 7676POPC   C4B42910  15.320  40.598   7.350
 7677POPC   NC342911  38.476  41.558   5.550
 7677POPC   PO442912  38.485  41.604   5.850
 7677POPC   GL142913  38.457  41.570   6.150
 7677POPC   GL242914  38.559  41.551   6.150
 7677POPC   C1A42915  38.443  41.595   6.450
 7677POPC   D2A42916  38.492  41.513   6.750
 7677POPC   C3A42917  38.498  41.530   7.050
 7677POPC   C4A42918  38.488  41.571   7.350
 7677POPC   C1B42919  38.693  41.549   6.450
 7677POPC   C2B42920  38.732  41.585   6.750
 7677POPC   C3B42921  38.679  41.576   7.050
 7677POPC   C4B42922  38.683  41.541   7.350
 7678POPC   NC342923   0.391  39.215   5.550
 7678POPC   PO442924   0.414  39.253   5.850
 7678POPC   GL142925   0.409  39.275   6.150
 7678POPC   GL242926   0.378  39.358   6.150
 7678POPC   C1A42927   0.414  39.210   6.450
 7678POPC   D2A42928   0.438  39.189   6.750
 7678POPC   C3A42929   0.391  39.277   7.050
 7678POPC   C4A42930   0.411  39.217   7.350
 7678POPC   C1B42931   0.318  39.441   6.450
 7678POPC   C2B42932   0.247  39.424   6.750
 7678POPC   C3B42933   0.257  39.460   7.050
 7678POPC   C4B42934   0.271  39.451   7.350
 7679POPC   NC342935  27.560  31.470   5.550
 7679POPC   PO442936  27.573  31.493   5.850
 7679POPC   GL142937  27.562  31.489   6.150
 7679POPC   GL242938  27.459  31.465   6.150
 7679POPC   C1A42939  27.596  31.497   6.450
 7679POPC   D2A42940  27.593  31.448   6.750
 7679POPC   C3A42941  27.575  31.516   7.050
 7679POPC   C4A42942  27.581  31.448   7.350
 7679POPC   C1B42943  27.306  31.445   6.450
 7679POPC   C2B42944  27.332  31.506   6.750
 7679POPC   C3B42945  27.340  31.424   7.050
 7679POPC   C4B42946  27.300  31.477   7.350
 7680POPC   NC342947  43.120   2.796   5.550
 7680POPC   PO442948  43.140   2.735   5.850
 7680POPC   GL142949  43.158   2.756   6.150
 7680POPC   GL242950  43.220   2.861   6.150
 7680POPC   C1A42951  43.067   2.758   6.450
 7680POPC   D2A42952  43.103   2.792   6.750
 7680POPC   C3A42953  43.072   2.808   7.050
 7680POPC   C4A42954  43.066   2.804   7.350
 7680POPC   C1B42955  43.314   2.965   6.450
 7680POPC   C2B42956  43.340   2.923   6.750
 7680POPC   C3B42957  43.317   2.953   7.050
 7680POPC   C4B42958  43.310   2.942   7.350
 7681POPC   NC342959  14.392  22.910   5.550
 7681POPC   PO442960  14.433  22.975   5.850
 7681POPC   GL142961  14.434  22.922   6.150
 7681POPC   GL242962  14.506  22.940   6.150
 7681POPC   C1A42963  14.433  22.940   6.450
 7681POPC   D2A42964  14.395  22.942   6.750
 7681POPC   C3A42965  14.443  22.988   7.050
 7681POPC   C4A42966  14.370  22.953   7.350
 7681POPC   C1B42967  14.673  22.907   6.450
 7681POPC   C2B42968  14.679  22.918   6.750
 7681POPC   C3B42969  14.698  22.878   7.050
 7681POPC   C4B42970  14.600  22.863   7.350
 7682POPC   NC342971  34.605  44.667   5.550
 7682POPC   PO442972  34.541  44.691   5.850
 7682POPC   GL142973  34.544  44.634   6.150
 7682POPC   GL242974  34.675  44.707   6.150
 7682POPC   C1A42975  34.620  44.682   6.450
 7682POPC   D2A42976  34.576  44.673   6.750
 7682POPC   C3A42977  34.604  44.677   7.050
 7682POPC   C4A42978  34.576  44.670   7.350
 7682POPC   C1B42979  34.823  44.779   6.450
 7682POPC   C2B42980  34.807  44.779   6.750
 7682POPC   C3B42981  34.835  44.816   7.050
 7682POPC   C4B42982  34.835  44.793   7.350
 7683POPC   NC342983  14.410  10.553   5.550
 7683POPC   PO442984  14.448  10.513   5.850
 7683POPC   GL142985  14.420  10.517   6.150
 7683POPC   GL242986  14.475  10.664   6.150
 7683POPC   C1A42987  14.423  10.518   6.450
 7683POPC   D2A42988  14.367  10.540   6.750
 7683POPC   C3A42989  14.361  10.500   7.050
 7683POPC   C4A42990  14.436  10.476   7.350
 7683POPC   C1B42991  14.446  10.745   6.450
 7683POPC   C2B42992  14.438  10.764   6.750
 7683POPC   C3B42993  14.432  10.812   7.050
 7683POPC   C4B42994  14.470  10.748   7.350
 7684POPC   NC342995  16.702  20.644   5.550
 7684POPC   PO442996  16.753  20.581   5.850
 7684POPC   GL142997  16.771  20.635   6.150
 7684POPC   GL242998  16.886  20.541   6.150
 7684POPC   C1A42999  16.693  20.616   6.450
 7684POPC   D2A43000  16.711  20.632   6.750
 7684POPC   C3A43001  16.720  20.584   7.050
 7684POPC   C4A43002  16.742  20.611   7.350
 7684POPC   C1B43003  16.965  20.594   6.450
 7684POPC   C2B43004  17.017  20.566   6.750
 7684POPC   C3B43005  17.007  20.586   7.050
 7684POPC   C4B43006  16.926  20.529   7.350
 7685POPC   NC343007  43.892   2.779   5.550
 7685POPC   PO443008  43.845   2.751   5.850
 7685POPC   GL143009  43.900   2.721   6.150
 7685POPC   GL243010  43.954   2.855   6.150
 7685POPC   C1A43011  43.860   2.716   6.450
 7685POPC   D2A43012  43.919   2.721   6.750
 7685POPC   C3A43013  43.875   2.776   7.050
 7685POPC   C4A43014  43.852   2.743   7.350
 7685POPC   C1B43015  44.071   2.903   6.450
 7685POPC   C2B43016  44.042   2.940   6.750
 7685POPC   C3B43017  44.057   2.960   7.050
 7685POPC   C4B43018  44.025   2.917   7.350
 7686POPC   NC343019  44.640  32.224   5.550
 7686POPC   PO443020  44.669  32.215   5.850
 7686POPC   GL143021  44.683  32.230   6.150
 7686POPC   GL243022  44.611  32.331   6.150
 7686POPC   C1A43023  44.614  32.255   6.450
 7686POPC   D2A43024  44.624  32.281   6.750
 7686POPC   C3A43025  44.643  32.266   7.050
 7686POPC   C4A43026  44.691  32.266   7.350
 7686POPC   C1B43027  44.461  32.476   6.450
 7686POPC   C2B43028  44.509  32.486   6.750
 7686POPC   C3B43029  44.543  32.451   7.050
 7686POPC   C4B43030  44.481  32.416   7.350
 7687POPC   NC343031  34.593  29.897   5.550
 7687POPC   PO443032  34.621  29.877   5.850
 7687POPC   GL143033  34.566  29.890   6.150
 7687POPC   GL243034  34.547  29.776   6.150
 7687POPC   C1A43035  34.591  29.917   6.450
 7687POPC   D2A43036  34.584  29.921   6.750
 7687POPC   C3A43037  34.543  29.947   7.050
 7687POPC   C4A43038  34.528  29.923   7.350
 7687POPC   C1B43039  34.501  29.685   6.450
 7687POPC   C2B43040  34.410  29.662   6.750
 7687POPC   C3B43041  34.499  29.694   7.050
 7687POPC   C4B43042  34.507  29.671   7.350
 7688POPC   NC343043   1.203  29.127   5.550
 7688POPC   PO443044   1.239  29.119   5.850
 7688POPC   GL143045   1.199  29.183   6.150
 7688POPC   GL243046   1.303  29.068   6.150
 7688POPC   C1A43047   1.201  29.172   6.450
 7688POPC   D2A43048   1.205  29.105   6.750
 7688POPC   C3A43049   1.218  29.186   7.050
 7688POPC   C4A43050   1.179  29.109   7.350
 7688POPC   C1B43051   1.387  28.952   6.450
 7688POPC   C2B43052   1.443  28.959   6.750
 7688POPC   C3B43053   1.451  29.033   7.050
 7688POPC   C4B43054   1.447  28.965   7.350
 7689POPC   NC343055  39.266  14.377   5.550
 7689POPC   PO443056  39.255  14.380   5.850
 7689POPC   GL143057  39.273  14.394   6.150
 7689POPC   GL243058  39.390  14.423   6.150
 7689POPC   C1A43059  39.260  14.395   6.450
 7689POPC   D2A43060  39.195  14.386   6.750
 7689POPC   C3A43061  39.248  14.365   7.050
 7689POPC   C4A43062  39.221  14.373   7.350
 7689POPC   C1B43063  39.434  14.401   6.450
 7689POPC   C2B43064  39.456  14.400   6.750
 7689POPC   C3B43065  39.513  14.375   7.050
 7689POPC   C4B43066  39.506  14.322   7.350
 7690POPC   NC343067   1.236  24.516   5.550
 7690POPC   PO443068   1.194  24.456   5.850
 7690POPC   GL143069   1.228  24.490   6.150
 7690POPC   GL243070   1.093  24.389   6.150
 7690POPC   C1A43071   1.247  24.536   6.450
 7690POPC   D2A43072   1.234  24.531   6.750
 7690POPC   C3A43073   1.254  24.536   7.050
 7690POPC   C4A43074   1.186  24.536   7.350
 7690POPC   C1B43075   0.984  24.378   6.450
 7690POPC   C2B43076   1.033  24.340   6.750
 7690POPC   C3B43077   1.039  24.353   7.050
 7690POPC   C4B43078   0.976  24.340   7.350
 7691POPC   NC343079  43.138  13.644   5.550
 7691POPC   PO443080  43.145  13.604   5.850
 7691POPC   GL143081  43.109  13.668   6.150
 7691POPC   GL243082  43.246  13.750   6.150
 7691POPC   C1A43083  43.094  13.651   6.450
 7691POPC   D2A43084  43.147  13.647   6.750
 7691POPC   C3A43085  43.076  13.630   7.050
 7691POPC   C4A43086  43.086  13.647   7.350
 7691POPC   C1B43087  43.342  13.830   6.450
 7691POPC   C2B43088  43.310  13.755   6.750
 7691POPC   C3B43089  43.283  13.774   7.050
 7691POPC   C4B43090  43.357  13.750   7.350
 7692POPC   NC343091  15.171  15.217   5.550
 7692POPC   PO443092  15.155  15.163   5.850
 7692POPC   GL143093  15.169  15.152   6.150
 7692POPC   GL243094  15.071  15.140   6.150
 7692POPC   C1A43095  15.195  15.133   6.450
 7692POPC   D2A43096  15.187  15.165   6.750
 7692POPC   C3A43097  15.171  15.172   7.050
 7692POPC   C4A43098  15.210  15.153   7.350
 7692POPC   C1B43099  14.975  15.099   6.450
 7692POPC   C2B43100  14.971  15.151   6.750
 7692POPC   C3B43101  14.898  15.137   7.050
 7692POPC   C4B43102  14.945  15.132   7.350
 7693POPC   NC343103  44.648  22.956   5.550
 7693POPC   PO443104  44.685  22.922   5.850
 7693POPC   GL143105  44.645  22.979   6.150
 7693POPC   GL243106  44.749  22.992   6.150
 7693POPC   C1A43107  44.693  22.951   6.450
 7693POPC   D2A43108  44.684  22.928   6.750
 7693POPC   C3A43109  44.653  22.971   7.050
 7693POPC   C4A43110  44.657  22.948   7.350
 7693POPC   C1B43111  44.881  23.066   6.450
 7693POPC   C2B43112  44.878  23.102   6.750
 7693POPC   C3B43113  44.828  23.118   7.050
 7693POPC   C4B43114  44.857  23.127   7.350
 7694POPC   NC343115  28.347  32.290   5.550
 7694POPC   PO443116  28.392  32.241   5.850
 7694POPC   GL143117  28.337  32.214   6.150
 7694POPC   GL243118  28.472  32.286   6.150
 7694POPC   C1A43119  28.357  32.246   6.450
 7694POPC   D2A43120  28.344  32.213   6.750
 7694POPC   C3A43121  28.369  32.295   7.050
 7694POPC   C4A43122  28.400  32.219   7.350
 7694POPC   C1B43123  28.578  32.263   6.450
 7694POPC   C2B43124  28.642  32.229   6.750
 7694POPC   C3B43125  28.640  32.258   7.050
 7694POPC   C4B43126  28.586  32.310   7.350
 7695POPC   NC343127  33.017  33.009   5.550
 7695POPC   PO443128  33.069  32.975   5.850
 7695POPC   GL143129  32.990  33.044   6.150
 7695POPC   GL243130  33.043  32.941   6.150
 7695POPC   C1A43131  33.029  33.059   6.450
 7695POPC   D2A43132  32.983  33.040   6.750
 7695POPC   C3A43133  33.033  33.060   7.050
 7695POPC   C4A43134  33.026  33.031   7.350
 7695POPC   C1B43135  33.010  32.803   6.450
 7695POPC   C2B43136  33.007  32.735   6.750
 7695POPC   C3B43137  32.941  32.731   7.050
 7695POPC   C4B43138  32.952  32.775   7.350
 7696POPC   NC343139   5.903  33.018   5.550
 7696POPC   PO443140   5.885  33.043   5.850
 7696POPC   GL143141   5.881  33.057   6.150
 7696POPC   GL243142   5.890  32.860   6.150
 7696POPC   C1A43143   5.850  33.000   6.450
 7696POPC   D2A43144   5.874  33.074   6.750
 7696POPC   C3A43145   5.873  33.048   7.050
 7696POPC   C4A43146   5.856  33.060   7.350
 7696POPC   C1B43147   5.855  32.769   6.450
 7696POPC   C2B43148   5.876  32.797   6.750
 7696POPC   C3B43149   5.877  32.818   7.050
 7696POPC   C4B43150   5.862  32.790   7.350
 7697POPC   NC343151   1.227  25.281   5.550
 7697POPC   PO443152   1.241  25.262   5.850
 7697POPC   GL143153   1.242  25.277   6.150
 7697POPC   GL243154   1.144  25.258   6.150
 7697POPC   C1A43155   1.185  25.286   6.450
 7697POPC   D2A43156   1.194  25.282   6.750
 7697POPC   C3A43157   1.173  25.284   7.050
 7697POPC   C4A43158   1.239  25.224   7.350
 7697POPC   C1B43159   0.937  25.127   6.450
 7697POPC   C2B43160   0.994  25.184   6.750
 7697POPC   C3B43161   0.991  25.156   7.050
 7697POPC   C4B43162   0.992  25.172   7.350
 7698POPC   NC343163  28.376  22.211   5.550
 7698POPC   PO443164  28.379  22.198   5.850
 7698POPC   GL143165  28.325  22.156   6.150
 7698POPC   GL243166  28.489  22.146   6.150
 7698POPC   C1A43167  28.394  22.136   6.450
 7698POPC   D2A43168  28.377  22.119   6.750
 7698POPC   C3A43169  28.415  22.138   7.050
 7698POPC   C4A43170  28.412  22.207   7.350
 7698POPC   C1B43171  28.615  22.108   6.450
 7698POPC   C2B43172  28.647  22.075   6.750
 7698POPC   C3B43173  28.632  22.102   7.050
 7698POPC   C4B43174  28.589  22.013   7.350
 7699POPC   NC343175   5.849  36.928   5.550
 7699POPC   PO443176   5.875  36.867   5.850
 7699POPC   GL143177   5.888  36.884   6.150
 7699POPC   GL243178   5.952  36.829   6.150
 7699POPC   C1A43179   5.890  36.855   6.450
 7699POPC   D2A43180   5.876  36.906   6.750
 7699POPC   C3A43181   5.850  36.909   7.050
 7699POPC   C4A43182   5.862  36.925   7.350
 7699POPC   C1B43183   6.022  36.665   6.450
 7699POPC   C2B43184   5.995  36.661   6.750
 7699POPC   C3B43185   5.981  36.692   7.050
 7699POPC   C4B43186   6.004  36.680   7.350
 7700POPC   NC343187  40.014  22.196   5.550
 7700POPC   PO443188  40.009  22.112   5.850
 7700POPC   GL143189  39.976  22.189   6.150
 7700POPC   GL243190  39.912  22.130   6.150
 7700POPC   C1A43191  40.044  22.113   6.450
 7700POPC   D2A43192  39.998  22.161   6.750
 7700POPC   C3A43193  40.047  22.174   7.050
 7700POPC   C4A43194  39.980  22.197   7.350
 7700POPC   C1B43195  39.773  22.043   6.450
 7700POPC   C2B43196  39.838  22.012   6.750
 7700POPC   C3B43197  39.812  22.076   7.050
 7700POPC   C4B43198  39.806  22.034   7.350
 7701POPC   NC343199  10.548   8.964   5.550
 7701POPC   PO443200  10.491   8.944   5.850
 7701POPC   GL143201  10.546   9.022   6.150
 7701POPC   GL243202  10.567   8.867   6.150
 7701POPC   C1A43203  10.495   8.963   6.450
 7701POPC   D2A43204  10.535   9.005   6.750
 7701POPC   C3A43205  10.516   8.997   7.050
 7701POPC   C4A43206  10.475   9.000   7.350
 7701POPC   C1B43207  10.582   8.707   6.450
 7701POPC   C2B43208  10.581   8.718   6.750
 7701POPC   C3B43209  10.605   8.691   7.050
 7701POPC   C4B43210  10.590   8.712   7.350
 7702POPC   NC343211   1.199  19.818   5.550
 7702POPC   PO443212   1.209  19.816   5.850
 7702POPC   GL143213   1.172  19.800   6.150
 7702POPC   GL243214   1.140  19.725   6.150
 7702POPC   C1A43215   1.213  19.802   6.450
 7702POPC   D2A43216   1.186  19.831   6.750
 7702POPC   C3A43217   1.221  19.852   7.050
 7702POPC   C4A43218   1.172  19.802   7.350
 7702POPC   C1B43219   1.145  19.551   6.450
 7702POPC   C2B43220   1.178  19.571   6.750
 7702POPC   C3B43221   1.138  19.576   7.050
 7702POPC   C4B43222   1.117  19.596   7.350
 7703POPC   NC343223  43.159  16.694   5.550
 7703POPC   PO443224  43.077  16.706   5.850
 7703POPC   GL143225  43.090  16.705   6.150
 7703POPC   GL243226  43.079  16.825   6.150
 7703POPC   C1A43227  43.149  16.696   6.450
 7703POPC   D2A43228  43.077  16.780   6.750
 7703POPC   C3A43229  43.111  16.775   7.050
 7703POPC   C4A43230  43.115  16.712   7.350
 7703POPC   C1B43231  43.130  16.955   6.450
 7703POPC   C2B43232  43.148  16.999   6.750
 7703POPC   C3B43233  43.116  17.024   7.050
 7703POPC   C4B43234  43.108  16.942   7.350
 7704POPC   NC343235   1.189   4.356   5.550
 7704POPC   PO443236   1.240   4.315   5.850
 7704POPC   GL143237   1.213   4.308   6.150
 7704POPC   GL243238   1.143   4.182   6.150
 7704POPC   C1A43239   1.261   4.321   6.450
 7704POPC   D2A43240   1.184   4.322   6.750
 7704POPC   C3A43241   1.178   4.342   7.050
 7704POPC   C4A43242   1.260   4.358   7.350
 7704POPC   C1B43243   1.050   4.122   6.450
 7704POPC   C2B43244   1.044   4.142   6.750
 7704POPC   C3B43245   1.112   4.076   7.050
 7704POPC   C4B43246   1.083   4.145   7.350
 7705POPC   NC343247  18.293  12.061   5.550
 7705POPC   PO443248  18.284  12.071   5.850
 7705POPC   GL143249  18.329  12.099   6.150
 7705POPC   GL243250  18.266  12.166   6.150
 7705POPC   C1A43251  18.309  12.109   6.450
 7705POPC   D2A43252  18.282  12.096   6.750
 7705POPC   C3A43253  18.241  12.059   7.050
 7705POPC   C4A43254  18.260  12.048   7.350
 7705POPC   C1B43255  18.239  12.312   6.450
 7705POPC   C2B43256  18.269  12.344   6.750
 7705POPC   C3B43257  18.248  12.367   7.050
 7705POPC   C4B43258  18.258  12.320   7.350
 7706POPC   NC343259  18.322  39.277   5.550
 7706POPC   PO443260  18.266  39.251   5.850
 7706POPC   GL143261  18.237  39.204   6.150
 7706POPC   GL243262  18.292  39.083   6.150
 7706POPC   C1A43263  18.240  39.257   6.450
 7706POPC   D2A43264  18.242  39.193   6.750
 7706POPC   C3A43265  18.331  39.191   7.050
 7706POPC   C4A43266  18.329  39.217   7.350
 7706POPC   C1B43267  18.293  38.997   6.450
 7706POPC   C2B43268  18.245  38.995   6.750
 7706POPC   C3B43269  18.223  38.997   7.050
 7706POPC   C4B43270  18.223  38.996   7.350
 7707POPC   NC343271  15.186  19.046   5.550
 7707POPC   PO443272  15.132  19.081   5.850
 7707POPC   GL143273  15.228  19.098   6.150
 7707POPC   GL243274  15.309  19.138   6.150
 7707POPC   C1A43275  15.192  19.012   6.450
 7707POPC   D2A43276  15.200  19.068   6.750
 7707POPC   C3A43277  15.167  19.068   7.050
 7707POPC   C4A43278  15.171  19.026   7.350
 7707POPC   C1B43279  15.371  19.199   6.450
 7707POPC   C2B43280  15.381  19.280   6.750
 7707POPC   C3B43281  15.345  19.224   7.050
 7707POPC   C4B43282  15.333  19.267   7.350
 7708POPC   NC343283  44.638  44.660   5.550
 7708POPC   PO443284  44.613  44.644   5.850
 7708POPC   GL143285  44.664  44.693   6.150
 7708POPC   GL243286  44.508  44.677   6.150
 7708POPC   C1A43287  44.645  44.688   6.450
 7708POPC   D2A43288  44.685  44.692   6.750
 7708POPC   C3A43289  44.698  44.630   7.050
 7708POPC   C4A43290  44.659  44.712   7.350
 7708POPC   C1B43291  44.402  44.644   6.450
 7708POPC   C2B43292  44.409  44.602   6.750
 7708POPC   C3B43293  44.437  44.677   7.050
 7708POPC   C4B43294  44.389  44.614   7.350
 7709POPC   NC343295  29.965   0.453   5.550
 7709POPC   PO443296  29.883   0.404   5.850
 7709POPC   GL143297  29.887   0.471   6.150
 7709POPC   GL243298  29.782   0.399   6.150
 7709POPC   C1A43299  29.873   0.449   6.450
 7709POPC   D2A43300  29.924   0.465   6.750
 7709POPC   C3A43301  29.944   0.406   7.050
 7709POPC   C4A43302  29.939   0.390   7.350
 7709POPC   C1B43303  29.708   0.285   6.450
 7709POPC   C2B43304  29.693   0.303   6.750
 7709POPC   C3B43305  29.735   0.275   7.050
 7709POPC   C4B43306  29.741   0.341   7.350
 7710POPC   NC343307   2.022  28.377   5.550
 7710POPC   PO443308   2.028  28.399   5.850
 7710POPC   GL143309   1.980  28.394   6.150
 7710POPC   GL243310   2.050  28.249   6.150
 7710POPC   C1A43311   1.975  28.352   6.450
 7710POPC   D2A43312   2.011  28.414   6.750
 7710POPC   C3A43313   2.019  28.361   7.050
 7710POPC   C4A43314   2.032  28.362   7.350
 7710POPC   C1B43315   2.077  28.154   6.450
 7710POPC   C2B43316   2.103  28.167   6.750
 7710POPC   C3B43317   2.089  28.179   7.050
 7710POPC   C4B43318   2.073  28.145   7.350
 7711POPC   NC343319   5.853   9.715   5.550
 7711POPC   PO443320   5.897   9.732   5.850
 7711POPC   GL143321   5.892   9.740   6.150
 7711POPC   GL243322   6.036   9.757   6.150
 7711POPC   C1A43323   5.844   9.723   6.450
 7711POPC   D2A43324   5.888   9.745   6.750
 7711POPC   C3A43325   5.836   9.724   7.050
 7711POPC   C4A43326   5.905   9.736   7.350
 7711POPC   C1B43327   6.122   9.775   6.450
 7711POPC   C2B43328   6.133   9.789   6.750
 7711POPC   C3B43329   6.071   9.803   7.050
 7711POPC   C4B43330   6.141   9.791   7.350
 7712POPC   NC343331  26.080   1.239   5.550
 7712POPC   PO443332  26.072   1.253   5.850
 7712POPC   GL143333  26.020   1.236   6.150
 7712POPC   GL243334  26.103   1.108   6.150
 7712POPC   C1A43335  26.024   1.194   6.450
 7712POPC   D2A43336  26.052   1.199   6.750
 7712POPC   C3A43337  26.017   1.212   7.050
 7712POPC   C4A43338  26.067   1.196   7.350
 7712POPC   C1B43339  26.193   1.015   6.450
 7712POPC   C2B43340  26.257   1.049   6.750
 7712POPC   C3B43341  26.254   1.091   7.050
 7712POPC   C4B43342  26.212   1.000   7.350
 7713POPC   NC343343  41.567  36.157   5.550
 7713POPC   PO443344  41.591  36.127   5.850
 7713POPC   GL143345  41.603  36.136   6.150
 7713POPC   GL243346  41.508  36.020   6.150
 7713POPC   C1A43347  41.557  36.158   6.450
 7713POPC   D2A43348  41.594  36.131   6.750
 7713POPC   C3A43349  41.547  36.166   7.050
 7713POPC   C4A43350  41.520  36.162   7.350
 7713POPC   C1B43351  41.363  35.933   6.450
 7713POPC   C2B43352  41.387  35.940   6.750
 7713POPC   C3B43353  41.381  35.916   7.050
 7713POPC   C4B43354  41.365  35.922   7.350
 7714POPC   NC343355   1.169   0.433   5.550
 7714POPC   PO443356   1.218   0.442   5.850
 7714POPC   GL143357   1.204   0.431   6.150
 7714POPC   GL243358   1.054   0.454   6.150
 7714POPC   C1A43359   1.174   0.437   6.450
 7714POPC   D2A43360   1.236   0.421   6.750
 7714POPC   C3A43361   1.215   0.435   7.050
 7714POPC   C4A43362   1.225   0.483   7.350
 7714POPC   C1B43363   0.996   0.345   6.450
 7714POPC   C2B43364   1.012   0.427   6.750
 7714POPC   C3B43365   0.942   0.411   7.050
 7714POPC   C4B43366   0.945   0.359   7.350
 7715POPC   NC343367  22.165  40.040   5.550
 7715POPC   PO443368  22.201  39.976   5.850
 7715POPC   GL143369  22.131  39.971   6.150
 7715POPC   GL243370  22.012  40.007   6.150
 7715POPC   C1A43371  22.124  40.013   6.450
 7715POPC   D2A43372  22.189  40.021   6.750
 7715POPC   C3A43373  22.148  40.056   7.050
 7715POPC   C4A43374  22.144  40.026   7.350
 7715POPC   C1B43375  21.965  40.070   6.450
 7715POPC   C2B43376  21.878  40.112   6.750
 7715POPC   C3B43377  21.956  40.089   7.050
 7715POPC   C4B43378  21.966  40.082   7.350
 7716POPC   NC343379  23.716  33.791   5.550
 7716POPC   PO443380  23.678  33.799   5.850
 7716POPC   GL143381  23.741  33.768   6.150
 7716POPC   GL243382  23.788  33.749   6.150
 7716POPC   C1A43383  23.747  33.759   6.450
 7716POPC   D2A43384  23.690  33.753   6.750
 7716POPC   C3A43385  23.688  33.815   7.050
 7716POPC   C4A43386  23.732  33.811   7.350
 7716POPC   C1B43387  23.874  33.670   6.450
 7716POPC   C2B43388  23.933  33.636   6.750
 7716POPC   C3B43389  23.894  33.594   7.050
 7716POPC   C4B43390  23.855  33.615   7.350
 7717POPC   NC343391   4.274  14.438   5.550
 7717POPC   PO443392   4.364  14.435   5.850
 7717POPC   GL143393   4.321  14.452   6.150
 7717POPC   GL243394   4.432  14.487   6.150
 7717POPC   C1A43395   4.338  14.437   6.450
 7717POPC   D2A43396   4.320  14.354   6.750
 7717POPC   C3A43397   4.297  14.407   7.050
 7717POPC   C4A43398   4.305  14.415   7.350
 7717POPC   C1B43399   4.531  14.589   6.450
 7717POPC   C2B43400   4.549  14.560   6.750
 7717POPC   C3B43401   4.491  14.530   7.050
 7717POPC   C4B43402   4.543  14.599   7.350
 7718POPC   NC343403  43.850  17.546   5.550
 7718POPC   PO443404  43.867  17.543   5.850
 7718POPC   GL143405  43.907  17.458   6.150
 7718POPC   GL243406  43.765  17.481   6.150
 7718POPC   C1A43407  43.849  17.538   6.450
 7718POPC   D2A43408  43.849  17.548   6.750
 7718POPC   C3A43409  43.855  17.514   7.050
 7718POPC   C4A43410  43.880  17.536   7.350
 7718POPC   C1B43411  43.712  17.431   6.450
 7718POPC   C2B43412  43.661  17.375   6.750
 7718POPC   C3B43413  43.615  17.360   7.050
 7718POPC   C4B43414  43.680  17.366   7.350
 7719POPC   NC343415   9.727  37.711   5.550
 7719POPC   PO443416   9.732  37.657   5.850
 7719POPC   GL143417   9.767  37.717   6.150
 7719POPC   GL243418   9.792  37.813   6.150
 7719POPC   C1A43419   9.742  37.633   6.450
 7719POPC   D2A43420   9.707  37.689   6.750
 7719POPC   C3A43421   9.708  37.707   7.050
 7719POPC   C4A43422   9.795  37.728   7.350
 7719POPC   C1B43423   9.846  37.866   6.450
 7719POPC   C2B43424   9.874  37.955   6.750
 7719POPC   C3B43425   9.864  37.874   7.050
 7719POPC   C4B43426   9.852  37.927   7.350
 7720POPC   NC343427  40.813  26.804   5.550
 7720POPC   PO443428  40.796  26.831   5.850
 7720POPC   GL143429  40.790  26.821   6.150
 7720POPC   GL243430  40.698  26.831   6.150
 7720POPC   C1A43431  40.827  26.862   6.450
 7720POPC   D2A43432  40.777  26.790   6.750
 7720POPC   C3A43433  40.812  26.858   7.050
 7720POPC   C4A43434  40.765  26.867   7.350
 7720POPC   C1B43435  40.550  26.908   6.450
 7720POPC   C2B43436  40.559  26.877   6.750
 7720POPC   C3B43437  40.531  26.933   7.050
 7720POPC   C4B43438  40.564  26.838   7.350
 7721POPC   NC343439   1.970  14.356   5.550
 7721POPC   PO443440   1.991  14.368   5.850
 7721POPC   GL143441   1.947  14.383   6.150
 7721POPC   GL243442   2.040  14.316   6.150
 7721POPC   C1A43443   1.957  14.364   6.450
 7721POPC   D2A43444   1.959  14.415   6.750
 7721POPC   C3A43445   1.989  14.361   7.050
 7721POPC   C4A43446   1.994  14.383   7.350
 7721POPC   C1B43447   2.104  14.175   6.450
 7721POPC   C2B43448   2.145  14.214   6.750
 7721POPC   C3B43449   2.122  14.201   7.050
 7721POPC   C4B43450   2.145  14.155   7.350
 7722POPC   NC343451   4.353  19.825   5.550
 7722POPC   PO443452   4.294  19.797   5.850
 7722POPC   GL143453   4.347  19.818   6.150
 7722POPC   GL243454   4.187  19.899   6.150
 7722POPC   C1A43455   4.323  19.872   6.450
 7722POPC   D2A43456   4.291  19.833   6.750
 7722POPC   C3A43457   4.321  19.832   7.050
 7722POPC   C4A43458   4.357  19.822   7.350
 7722POPC   C1B43459   4.179  19.977   6.450
 7722POPC   C2B43460   4.124  20.014   6.750
 7722POPC   C3B43461   4.121  19.990   7.050
 7722POPC   C4B43462   4.179  20.048   7.350
 7723POPC   NC343463  19.012  12.027   5.550
 7723POPC   PO443464  19.017  12.037   5.850
 7723POPC   GL143465  19.079  12.044   6.150
 7723POPC   GL243466  18.908  12.120   6.150
 7723POPC   C1A43467  19.102  12.084   6.450
 7723POPC   D2A43468  19.059  12.058   6.750
 7723POPC   C3A43469  19.023  12.077   7.050
 7723POPC   C4A43470  19.009  12.121   7.350
 7723POPC   C1B43471  18.847  12.196   6.450
 7723POPC   C2B43472  18.803  12.211   6.750
 7723POPC   C3B43473  18.853  12.180   7.050
 7723POPC   C4B43474  18.827  12.243   7.350
 7724POPC   NC343475  38.442  26.035   5.550
 7724POPC   PO443476  38.423  26.089   5.850
 7724POPC   GL143477  38.490  26.025   6.150
 7724POPC   GL243478  38.309  26.086   6.150
 7724POPC   C1A43479  38.460  26.024   6.450
 7724POPC   D2A43480  38.488  25.995   6.750
 7724POPC   C3A43481  38.459  26.002   7.050
 7724POPC   C4A43482  38.491  25.999   7.350
 7724POPC   C1B43483  38.215  26.109   6.450
 7724POPC   C2B43484  38.170  26.075   6.750
 7724POPC   C3B43485  38.169  26.073   7.050
 7724POPC   C4B43486  38.235  26.062   7.350
 7725POPC   NC343487  44.650  30.697   5.550
 7725POPC   PO443488  44.707  30.687   5.850
 7725POPC   GL143489  44.686  30.709   6.150
 7725POPC   GL243490  44.790  30.650   6.150
 7725POPC   C1A43491  44.637  30.695   6.450
 7725POPC   D2A43492  44.699  30.694   6.750
 7725POPC   C3A43493  44.614  30.690   7.050
 7725POPC   C4A43494  44.707  30.728   7.350
 7725POPC   C1B43495  44.940  30.745   6.450
 7725POPC   C2B43496  44.902  30.714   6.750
 7725POPC   C3B43497  44.867  30.715   7.050
 7725POPC   C4B43498  44.961  30.660   7.350
 7726POPC   NC343499  18.249  15.218   5.550
 7726POPC   PO443500  18.325  15.140   5.850
 7726POPC   GL143501  18.263  15.196   6.150
 7726POPC   GL243502  18.376  15.143   6.150
 7726POPC   C1A43503  18.272  15.154   6.450
 7726POPC   D2A43504  18.316  15.227   6.750
 7726POPC   C3A43505  18.288  15.131   7.050
 7726POPC   C4A43506  18.330  15.185   7.350
 7726POPC   C1B43507  18.451  14.982   6.450
 7726POPC   C2B43508  18.524  15.065   6.750
 7726POPC   C3B43509  18.526  14.998   7.050
 7726POPC   C4B43510  18.432  15.025   7.350
 7727POPC   NC343511  32.214   1.194   5.550
 7727POPC   PO443512  32.205   1.195   5.850
 7727POPC   GL143513  32.202   1.196   6.150
 7727POPC   GL243514  32.372   1.300   6.150
 7727POPC   C1A43515  32.221   1.256   6.450
 7727POPC   D2A43516  32.212   1.236   6.750
 7727POPC   C3A43517  32.225   1.250   7.050
 7727POPC   C4A43518  32.260   1.245   7.350
 7727POPC   C1B43519  32.418   1.319   6.450
 7727POPC   C2B43520  32.422   1.373   6.750
 7727POPC   C3B43521  32.461   1.314   7.050
 7727POPC   C4B43522  32.423   1.383   7.350
 7728POPC   NC343523  23.709  43.137   5.550
 7728POPC   PO443524  23.730  43.160   5.850
 7728POPC   GL143525  23.691  43.143   6.150
 7728POPC   GL243526  23.766  42.983   6.150
 7728POPC   C1A43527  23.699  43.150   6.450
 7728POPC   D2A43528  23.678  43.081   6.750
 7728POPC   C3A43529  23.676  43.106   7.050
 7728POPC   C4A43530  23.680  43.060   7.350
 7728POPC   C1B43531  23.813  42.874   6.450
 7728POPC   C2B43532  23.901  42.915   6.750
 7728POPC   C3B43533  23.851  42.937   7.050
 7728POPC   C4B43534  23.821  42.950   7.350
 7729POPC   NC343535  19.078   2.730   5.550
 7729POPC   PO443536  19.030   2.772   5.850
 7729POPC   GL143537  19.070   2.811   6.150
 7729POPC   GL243538  19.163   2.855   6.150
 7729POPC   C1A43539  19.093   2.787   6.450
 7729POPC   D2A43540  19.105   2.805   6.750
 7729POPC   C3A43541  19.084   2.750   7.050
 7729POPC   C4A43542  19.026   2.716   7.350
 7729POPC   C1B43543  19.255   2.924   6.450
 7729POPC   C2B43544  19.221   2.918   6.750
 7729POPC   C3B43545  19.259   2.966   7.050
 7729POPC   C4B43546  19.182   2.988   7.350
 7730POPC   NC343547  41.602  38.429   5.550
 7730POPC   PO443548  41.569  38.496   5.850
 7730POPC   GL143549  41.531  38.485   6.150
 7730POPC   GL243550  41.645  38.584   6.150
 7730POPC   C1A43551  41.579  38.473   6.450
 7730POPC   D2A43552  41.550  38.469   6.750
 7730POPC   C3A43553  41.577  38.503   7.050
 7730POPC   C4A43554  41.580  38.420   7.350
 7730POPC   C1B43555  41.632  38.636   6.450
 7730POPC   C2B43556  41.674  38.639   6.750
 7730POPC   C3B43557  41.651  38.659   7.050
 7730POPC   C4B43558  41.661  38.706   7.350
 7731POPC   NC343559  44.695  24.484   5.550
 7731POPC   PO443560  44.696  24.506   5.850
 7731POPC   GL143561  44.679  24.492   6.150
 7731POPC   GL243562  44.772  24.360   6.150
 7731POPC   C1A43563  44.647  24.532   6.450
 7731POPC   D2A43564  44.618  24.451   6.750
 7731POPC   C3A43565  44.622  24.536   7.050
 7731POPC   C4A43566  44.708  24.525   7.350
 7731POPC   C1B43567  44.801  24.297   6.450
 7731POPC   C2B43568  44.865  24.354   6.750
 7731POPC   C3B43569  44.843  24.279   7.050
 7731POPC   C4B43570  44.806  24.302   7.350
 7732POPC   NC343571  24.466  17.485   5.550
 7732POPC   PO443572  24.500  17.485   5.850
 7732POPC   GL143573  24.496  17.523   6.150
 7732POPC   GL243574  24.324  17.505   6.150
 7732POPC   C1A43575  24.471  17.516   6.450
 7732POPC   D2A43576  24.512  17.541   6.750
 7732POPC   C3A43577  24.480  17.487   7.050
 7732POPC   C4A43578  24.522  17.544   7.350
 7732POPC   C1B43579  24.289  17.387   6.450
 7732POPC   C2B43580  24.258  17.419   6.750
 7732POPC   C3B43581  24.208  17.386   7.050
 7732POPC   C4B43582  24.218  17.416   7.350
 7733POPC   NC343583  43.070  20.645   5.550
 7733POPC   PO443584  43.142  20.578   5.850
 7733POPC   GL143585  43.086  20.591   6.150
 7733POPC   GL243586  43.073  20.680   6.150
 7733POPC   C1A43587  43.129  20.646   6.450
 7733POPC   D2A43588  43.108  20.613   6.750
 7733POPC   C3A43589  43.088  20.619   7.050
 7733POPC   C4A43590  43.127  20.591   7.350
 7733POPC   C1B43591  42.981  20.880   6.450
 7733POPC   C2B43592  43.053  20.799   6.750
 7733POPC   C3B43593  43.015  20.805   7.050
 7733POPC   C4B43594  43.055  20.873   7.350
 7734POPC   NC343595  21.423  44.671   5.550
 7734POPC   PO443596  21.413  44.655   5.850
 7734POPC   GL143597  21.396  44.657   6.150
 7734POPC   GL243598  21.260  44.792   6.150
 7734POPC   C1A43599  21.419  44.650   6.450
 7734POPC   D2A43600  21.413  44.615   6.750
 7734POPC   C3A43601  21.372  44.622   7.050
 7734POPC   C4A43602  21.359  44.672   7.350
 7734POPC   C1B43603  21.198  44.795   6.450
 7734POPC   C2B43604  21.240  44.835   6.750
 7734POPC   C3B43605  21.237  44.806   7.050
 7734POPC   C4B43606  21.222  44.824   7.350
 7735POPC   NC343607  19.082   3.566   5.550
 7735POPC   PO443608  19.108   3.590   5.850
 7735POPC   GL143609  19.106   3.493   6.150
 7735POPC   GL243610  19.203   3.507   6.150
 7735POPC   C1A43611  19.032   3.524   6.450
 7735POPC   D2A43612  19.030   3.537   6.750
 7735POPC   C3A43613  19.080   3.535   7.050
 7735POPC   C4A43614  19.105   3.571   7.350
 7735POPC   C1B43615  19.299   3.427   6.450
 7735POPC   C2B43616  19.273   3.365   6.750
 7735POPC   C3B43617  19.281   3.367   7.050
 7735POPC   C4B43618  19.205   3.384   7.350
 7736POPC   NC343619   8.993  43.890   5.550
 7736POPC   PO443620   8.923  43.880   5.850
 7736POPC   GL143621   8.986  43.863   6.150
 7736POPC   GL243622   9.080  43.848   6.150
 7736POPC   C1A43623   9.000  43.903   6.450
 7736POPC   D2A43624   9.000  43.874   6.750
 7736POPC   C3A43625   9.004  43.890   7.050
 7736POPC   C4A43626   8.963  43.861   7.350
 7736POPC   C1B43627   9.206  43.874   6.450
 7736POPC   C2B43628   9.183  43.866   6.750
 7736POPC   C3B43629   9.199  43.874   7.050
 7736POPC   C4B43630   9.240  43.858   7.350
 7737POPC   NC343631  43.130  31.521   5.550
 7737POPC   PO443632  43.084  31.505   5.850
 7737POPC   GL143633  43.127  31.461   6.150
 7737POPC   GL243634  43.019  31.392   6.150
 7737POPC   C1A43635  43.109  31.514   6.450
 7737POPC   D2A43636  43.077  31.503   6.750
 7737POPC   C3A43637  43.156  31.444   7.050
 7737POPC   C4A43638  43.066  31.442   7.350
 7737POPC   C1B43639  42.922  31.299   6.450
 7737POPC   C2B43640  42.910  31.333   6.750
 7737POPC   C3B43641  42.891  31.290   7.050
 7737POPC   C4B43642  42.878  31.280   7.350
 7738POPC   NC343643  22.949  28.358   5.550
 7738POPC   PO443644  22.956  28.358   5.850
 7738POPC   GL143645  22.955  28.364   6.150
 7738POPC   GL243646  22.904  28.295   6.150
 7738POPC   C1A43647  22.943  28.357   6.450
 7738POPC   D2A43648  22.895  28.414   6.750
 7738POPC   C3A43649  22.945  28.380   7.050
 7738POPC   C4A43650  22.926  28.321   7.350
 7738POPC   C1B43651  22.833  28.168   6.450
 7738POPC   C2B43652  22.832  28.166   6.750
 7738POPC   C3B43653  22.870  28.120   7.050
 7738POPC   C4B43654  22.879  28.089   7.350
 7739POPC   NC343655  33.788  20.628   5.550
 7739POPC   PO443656  33.795  20.642   5.850
 7739POPC   GL143657  33.829  20.579   6.150
 7739POPC   GL243658  33.725  20.556   6.150
 7739POPC   C1A43659  33.819  20.603   6.450
 7739POPC   D2A43660  33.821  20.655   6.750
 7739POPC   C3A43661  33.837  20.613   7.050
 7739POPC   C4A43662  33.766  20.581   7.350
 7739POPC   C1B43663  33.576  20.605   6.450
 7739POPC   C2B43664  33.589  20.574   6.750
 7739POPC   C3B43665  33.549  20.609   7.050
 7739POPC   C4B43666  33.531  20.563   7.350
 7740POPC   NC343667  37.728  17.488   5.550
 7740POPC   PO443668  37.698  17.494   5.850
 7740POPC   GL143669  37.676  17.532   6.150
 7740POPC   GL243670  37.764  17.444   6.150
 7740POPC   C1A43671  37.632  17.475   6.450
 7740POPC   D2A43672  37.674  17.488   6.750
 7740POPC   C3A43673  37.719  17.543   7.050
 7740POPC   C4A43674  37.667  17.461   7.350
 7740POPC   C1B43675  37.838  17.352   6.450
 7740POPC   C2B43676  37.832  17.326   6.750
 7740POPC   C3B43677  37.830  17.386   7.050
 7740POPC   C4B43678  37.864  17.304   7.350
 7741POPC   NC343679   8.936  41.605   5.550
 7741POPC   PO443680   9.006  41.516   5.850
 7741POPC   GL143681   8.958  41.549   6.150
 7741POPC   GL243682   9.101  41.609   6.150
 7741POPC   C1A43683   8.954  41.603   6.450
 7741POPC   D2A43684   8.970  41.519   6.750
 7741POPC   C3A43685   8.971  41.512   7.050
 7741POPC   C4A43686   8.942  41.512   7.350
 7741POPC   C1B43687   9.202  41.591   6.450
 7741POPC   C2B43688   9.243  41.615   6.750
 7741POPC   C3B43689   9.202  41.651   7.050
 7741POPC   C4B43690   9.240  41.659   7.350
 7742POPC   NC343691   7.400  30.666   5.550
 7742POPC   PO443692   7.447  30.713   5.850
 7742POPC   GL143693   7.424  30.694   6.150
 7742POPC   GL243694   7.350  30.638   6.150
 7742POPC   C1A43695   7.455  30.735   6.450
 7742POPC   D2A43696   7.402  30.741   6.750
 7742POPC   C3A43697   7.423  30.721   7.050
 7742POPC   C4A43698   7.407  30.697   7.350
 7742POPC   C1B43699   7.333  30.489   6.450
 7742POPC   C2B43700   7.330  30.516   6.750
 7742POPC   C3B43701   7.328  30.484   7.050
 7742POPC   C4B43702   7.280  30.460   7.350
 7743POPC   NC343703  13.613  10.515   5.550
 7743POPC   PO443704  13.643  10.523   5.850
 7743POPC   GL143705  13.584  10.533   6.150
 7743POPC   GL243706  13.678  10.426   6.150
 7743POPC   C1A43707  13.646  10.570   6.450
 7743POPC   D2A43708  13.604  10.512   6.750
 7743POPC   C3A43709  13.617  10.513   7.050
 7743POPC   C4A43710  13.582  10.512   7.350
 7743POPC   C1B43711  13.786  10.301   6.450
 7743POPC   C2B43712  13.830  10.314   6.750
 7743POPC   C3B43713  13.832  10.357   7.050
 7743POPC   C4B43714  13.796  10.371   7.350
 7744POPC   NC343715   2.810  12.820   5.550
 7744POPC   PO443716   2.751  12.812   5.850
 7744POPC   GL143717   2.813  12.840   6.150
 7744POPC   GL243718   2.607  12.843   6.150
 7744POPC   C1A43719   2.798  12.833   6.450
 7744POPC   D2A43720   2.799  12.806   6.750
 7744POPC   C3A43721   2.762  12.816   7.050
 7744POPC   C4A43722   2.766  12.865   7.350
 7744POPC   C1B43723   2.509  12.868   6.450
 7744POPC   C2B43724   2.522  12.814   6.750
 7744POPC   C3B43725   2.545  12.848   7.050
 7744POPC   C4B43726   2.522  12.852   7.350
 7745POPC   NC343727   1.944   8.184   5.550
 7745POPC   PO443728   1.979   8.194   5.850
 7745POPC   GL143729   2.035   8.208   6.150
 7745POPC   GL243730   2.010   8.083   6.150
 7745POPC   C1A43731   1.991   8.221   6.450
 7745POPC   D2A43732   2.007   8.234   6.750
 7745POPC   C3A43733   2.033   8.230   7.050
 7745POPC   C4A43734   1.943   8.159   7.350
 7745POPC   C1B43735   2.038   7.962   6.450
 7745POPC   C2B43736   2.118   7.946   6.750
 7745POPC   C3B43737   2.052   8.010   7.050
 7745POPC   C4B43738   2.037   8.006   7.350
 7746POPC   NC343739  38.495  21.425   5.550
 7746POPC   PO443740  38.421  21.427   5.850
 7746POPC   GL143741  38.489  21.338   6.150
 7746POPC   GL243742  38.533  21.500   6.150
 7746POPC   C1A43743  38.435  21.369   6.450
 7746POPC   D2A43744  38.494  21.376   6.750
 7746POPC   C3A43745  38.487  21.357   7.050
 7746POPC   C4A43746  38.452  21.428   7.350
 7746POPC   C1B43747  38.634  21.521   6.450
 7746POPC   C2B43748  38.627  21.527   6.750
 7746POPC   C3B43749  38.659  21.531   7.050
 7746POPC   C4B43750  38.669  21.540   7.350
 7747POPC   NC343751  34.622  41.527   5.550
 7747POPC   PO443752  34.621  41.541   5.850
 7747POPC   GL143753  34.560  41.579   6.150
 7747POPC   GL243754  34.619  41.683   6.150
 7747POPC   C1A43755  34.577  41.541   6.450
 7747POPC   D2A43756  34.535  41.514   6.750
 7747POPC   C3A43757  34.616  41.510   7.050
 7747POPC   C4A43758  34.576  41.598   7.350
 7747POPC   C1B43759  34.735  41.769   6.450
 7747POPC   C2B43760  34.699  41.697   6.750
 7747POPC   C3B43761  34.696  41.700   7.050
 7747POPC   C4B43762  34.782  41.759   7.350
 7748POPC   NC343763   5.101  37.649   5.550
 7748POPC   PO443764   5.081  37.664   5.850
 7748POPC   GL143765   5.135  37.682   6.150
 7748POPC   GL243766   5.010  37.674   6.150
 7748POPC   C1A43767   5.116  37.704   6.450
 7748POPC   D2A43768   5.135  37.671   6.750
 7748POPC   C3A43769   5.081  37.702   7.050
 7748POPC   C4A43770   5.057  37.712   7.350
 7748POPC   C1B43771   4.807  37.758   6.450
 7748POPC   C2B43772   4.875  37.725   6.750
 7748POPC   C3B43773   4.811  37.709   7.050
 7748POPC   C4B43774   4.870  37.680   7.350
 7749POPC   NC343775  43.913   6.655   5.550
 7749POPC   PO443776  43.885   6.669   5.850
 7749POPC   GL143777  43.851   6.625   6.150
 7749POPC   GL243778  43.755   6.671   6.150
 7749POPC   C1A43779  43.911   6.630   6.450
 7749POPC   D2A43780  43.844   6.677   6.750
 7749POPC   C3A43781  43.889   6.611   7.050
 7749POPC   C4A43782  43.933   6.619   7.350
 7749POPC   C1B43783  43.598   6.710   6.450
 7749POPC   C2B43784  43.683   6.652   6.750
 7749POPC   C3B43785  43.626   6.668   7.050
 7749POPC   C4B43786  43.595   6.644   7.350
 7750POPC   NC343787  12.863  34.561   5.550
 7750POPC   PO443788  12.869  34.536   5.850
 7750POPC   GL143789  12.893  34.533   6.150
 7750POPC   GL243790  12.769  34.517   6.150
 7750POPC   C1A43791  12.875  34.547   6.450
 7750POPC   D2A43792  12.804  34.588   6.750
 7750POPC   C3A43793  12.852  34.608   7.050
 7750POPC   C4A43794  12.878  34.568   7.350
 7750POPC   C1B43795  12.618  34.430   6.450
 7750POPC   C2B43796  12.630  34.401   6.750
 7750POPC   C3B43797  12.617  34.436   7.050
 7750POPC   C4B43798  12.605  34.485   7.350
 7751POPC   NC343799   3.554  41.530   5.550
 7751POPC   PO443800   3.494  41.533   5.850
 7751POPC   GL143801   3.510  41.552   6.150
 7751POPC   GL243802   3.519  41.678   6.150
 7751POPC   C1A43803   3.514  41.562   6.450
 7751POPC   D2A43804   3.582  41.604   6.750
 7751POPC   C3A43805   3.559  41.567   7.050
 7751POPC   C4A43806   3.590  41.525   7.350
 7751POPC   C1B43807   3.620  41.765   6.450
 7751POPC   C2B43808   3.615  41.835   6.750
 7751POPC   C3B43809   3.585  41.798   7.050
 7751POPC   C4B43810   3.621  41.823   7.350
 7752POPC   NC343811   8.993  23.670   5.550
 7752POPC   PO443812   8.950  23.681   5.850
 7752POPC   GL143813   8.923  23.714   6.150
 7752POPC   GL243814   9.057  23.816   6.150
 7752POPC   C1A43815   8.984  23.699   6.450
 7752POPC   D2A43816   8.985  23.734   6.750
 7752POPC   C3A43817   8.932  23.744   7.050
 7752POPC   C4A43818   8.926  23.687   7.350
 7752POPC   C1B43819   9.081  23.925   6.450
 7752POPC   C2B43820   9.110  23.891   6.750
 7752POPC   C3B43821   9.049  23.952   7.050
 7752POPC   C4B43822   9.079  23.905   7.350
 7753POPC   NC343823  31.514  24.441   5.550
 7753POPC   PO443824  31.511  24.526   5.850
 7753POPC   GL143825  31.463  24.440   6.150
 7753POPC   GL243826  31.577  24.447   6.150
 7753POPC   C1A43827  31.465  24.522   6.450
 7753POPC   D2A43828  31.458  24.492   6.750
 7753POPC   C3A43829  31.487  24.440   7.050
 7753POPC   C4A43830  31.470  24.499   7.350
 7753POPC   C1B43831  31.639  24.400   6.450
 7753POPC   C2B43832  31.647  24.363   6.750
 7753POPC   C3B43833  31.673  24.379   7.050
 7753POPC   C4B43834  31.685  24.303   7.350
 7754POPC   NC343835  29.911  26.781   5.550
 7754POPC   PO443836  29.897  26.855   5.850
 7754POPC   GL143837  29.875  26.809   6.150
 7754POPC   GL243838  29.914  26.647   6.150
 7754POPC   C1A43839  29.947  26.786   6.450
 7754POPC   D2A43840  29.885  26.788   6.750
 7754POPC   C3A43841  29.942  26.810   7.050
 7754POPC   C4A43842  29.959  26.808   7.350
 7754POPC   C1B43843  29.930  26.589   6.450
 7754POPC   C2B43844  30.004  26.583   6.750
 7754POPC   C3B43845  29.955  26.604   7.050
 7754POPC   C4B43846  29.951  26.525   7.350
 7755POPC   NC343847   5.891   0.448   5.550
 7755POPC   PO443848   5.876   0.437   5.850
 7755POPC   GL143849   5.907   0.400   6.150
 7755POPC   GL243850   6.007   0.479   6.150
 7755POPC   C1A43851   5.905   0.438   6.450
 7755POPC   D2A43852   5.832   0.391   6.750
 7755POPC   C3A43853   5.830   0.486   7.050
 7755POPC   C4A43854   5.884   0.446   7.350
 7755POPC   C1B43855   6.118   0.596   6.450
 7755POPC   C2B43856   6.102   0.581   6.750
 7755POPC   C3B43857   6.133   0.530   7.050
 7755POPC   C4B43858   6.106   0.570   7.350
 7756POPC   NC343859  39.971  23.697   5.550
 7756POPC   PO443860  40.018  23.664   5.850
 7756POPC   GL143861  40.006  23.670   6.150
 7756POPC   GL243862  40.098  23.756   6.150
 7756POPC   C1A43863  40.004  23.744   6.450
 7756POPC   D2A43864  39.984  23.715   6.750
 7756POPC   C3A43865  39.960  23.671   7.050
 7756POPC   C4A43866  39.964  23.724   7.350
 7756POPC   C1B43867  40.214  23.931   6.450
 7756POPC   C2B43868  40.157  23.854   6.750
 7756POPC   C3B43869  40.207  23.880   7.050
 7756POPC   C4B43870  40.151  23.850   7.350
 7757POPC   NC343871  38.490  43.904   5.550
 7757POPC   PO443872  38.457  43.892   5.850
 7757POPC   GL143873  38.490  43.891   6.150
 7757POPC   GL243874  38.570  43.876   6.150
 7757POPC   C1A43875  38.425  43.848   6.450
 7757POPC   D2A43876  38.459  43.895   6.750
 7757POPC   C3A43877  38.450  43.891   7.050
 7757POPC   C4A43878  38.488  43.930   7.350
 7757POPC   C1B43879  38.685  43.837   6.450
 7757POPC   C2B43880  38.672  43.835   6.750
 7757POPC   C3B43881  38.718  43.892   7.050
 7757POPC   C4B43882  38.699  43.868   7.350
 7758POPC   NC343883  43.073  15.182   5.550
 7758POPC   PO443884  43.102  15.143   5.850
 7758POPC   GL143885  43.074  15.165   6.150
 7758POPC   GL243886  43.157  15.247   6.150
 7758POPC   C1A43887  43.103  15.226   6.450
 7758POPC   D2A43888  43.097  15.191   6.750
 7758POPC   C3A43889  43.078  15.217   7.050
 7758POPC   C4A43890  43.158  15.144   7.350
 7758POPC   C1B43891  43.263  15.418   6.450
 7758POPC   C2B43892  43.262  15.387   6.750
 7758POPC   C3B43893  43.210  15.447   7.050
 7758POPC   C4B43894  43.221  15.432   7.350
 7759POPC   NC343895  40.011  43.876   5.550
 7759POPC   PO443896  40.006  43.891   5.850
 7759POPC   GL143897  40.018  43.875   6.150
 7759POPC   GL243898  39.910  43.761   6.150
 7759POPC   C1A43899  39.980  43.858   6.450
 7759POPC   D2A43900  40.008  43.878   6.750
 7759POPC   C3A43901  40.003  43.867   7.050
 7759POPC   C4A43902  40.055  43.880   7.350
 7759POPC   C1B43903  39.799  43.700   6.450
 7759POPC   C2B43904  39.834  43.728   6.750
 7759POPC   C3B43905  39.852  43.707   7.050
 7759POPC   C4B43906  39.866  43.656   7.350
 7760POPC   NC343907  24.496  44.686   5.550
 7760POPC   PO443908  24.471  44.699   5.850
 7760POPC   GL143909  24.448  44.696   6.150
 7760POPC   GL243910  24.636  44.763   6.150
 7760POPC   C1A43911  24.457  44.675   6.450
 7760POPC   D2A43912  24.473  44.613   6.750
 7760POPC   C3A43913  24.537  44.630   7.050
 7760POPC   C4A43914  24.520  44.702   7.350
 7760POPC   C1B43915  24.688  44.759   6.450
 7760POPC   C2B43916  24.733  44.842   6.750
 7760POPC   C3B43917  24.686  44.799   7.050
 7760POPC   C4B43918  24.741  44.828   7.350
 7761POPC   NC343919  38.411   8.195   5.550
 7761POPC   PO443920  38.412   8.193   5.850
 7761POPC   GL143921  38.433   8.211   6.150
 7761POPC   GL243922  38.317   8.317   6.150
 7761POPC   C1A43923  38.478   8.163   6.450
 7761POPC   D2A43924  38.456   8.181   6.750
 7761POPC   C3A43925  38.469   8.154   7.050
 7761POPC   C4A43926  38.502   8.242   7.350
 7761POPC   C1B43927  38.293   8.324   6.450
 7761POPC   C2B43928  38.279   8.329   6.750
 7761POPC   C3B43929  38.281   8.407   7.050
 7761POPC   C4B43930  38.280   8.413   7.350
 7762POPC   NC343931  44.672  14.435   5.550
 7762POPC   PO443932  44.660  14.361   5.850
 7762POPC   GL143933  44.641  14.446   6.150
 7762POPC   GL243934  44.591  14.511   6.150
 7762POPC   C1A43935  44.679  14.423   6.450
 7762POPC   D2A43936  44.655  14.353   6.750
 7762POPC   C3A43937  44.671  14.435   7.050
 7762POPC   C4A43938  44.687  14.425   7.350
 7762POPC   C1B43939  44.423  14.550   6.450
 7762POPC   C2B43940  44.488  14.531   6.750
 7762POPC   C3B43941  44.485  14.530   7.050
 7762POPC   C4B43942  44.448  14.615   7.350
 7763POPC   NC343943  12.852  10.479   5.550
 7763POPC   PO443944  12.865  10.572   5.850
 7763POPC   GL143945  12.816  10.517   6.150
 7763POPC   GL243946  12.919  10.399   6.150
 7763POPC   C1A43947  12.881  10.479   6.450
 7763POPC   D2A43948  12.834  10.476   6.750
 7763POPC   C3A43949  12.896  10.531   7.050
 7763POPC   C4A43950  12.809  10.566   7.350
 7763POPC   C1B43951  12.887  10.252   6.450
 7763POPC   C2B43952  12.853  10.274   6.750
 7763POPC   C3B43953  12.868  10.304   7.050
 7763POPC   C4B43954  12.872  10.276   7.350
 7764POPC   NC343955  10.568  38.434   5.550
 7764POPC   PO443956  10.553  38.498   5.850
 7764POPC   GL143957  10.534  38.501   6.150
 7764POPC   GL243958  10.419  38.360   6.150
 7764POPC   C1A43959  10.504  38.424   6.450
 7764POPC   D2A43960  10.516  38.424   6.750
 7764POPC   C3A43961  10.567  38.449   7.050
 7764POPC   C4A43962  10.527  38.420   7.350
 7764POPC   C1B43963  10.349  38.251   6.450
 7764POPC   C2B43964  10.350  38.332   6.750
 7764POPC   C3B43965  10.302  38.269   7.050
 7764POPC   C4B43966  10.324  38.294   7.350
 7765POPC   NC343967   4.295  36.939   5.550
 7765POPC   PO443968   4.280  36.898   5.850
 7765POPC   GL143969   4.362  36.949   6.150
 7765POPC   GL243970   4.358  37.068   6.150
 7765POPC   C1A43971   4.275  36.887   6.450
 7765POPC   D2A43972   4.308  36.942   6.750
 7765POPC   C3A43973   4.280  36.864   7.050
 7765POPC   C4A43974   4.315  36.937   7.350
 7765POPC   C1B43975   4.424  37.121   6.450
 7765POPC   C2B43976   4.347  37.165   6.750
 7765POPC   C3B43977   4.387  37.138   7.050
 7765POPC   C4B43978   4.347  37.148   7.350
 7766POPC   NC343979  34.544  40.738   5.550
 7766POPC   PO443980  34.615  40.826   5.850
 7766POPC   GL143981  34.616  40.784   6.150
 7766POPC   GL243982  34.432  40.827   6.150
 7766POPC   C1A43983  34.621  40.832   6.450
 7766POPC   D2A43984  34.566  40.828   6.750
 7766POPC   C3A43985  34.616  40.799   7.050
 7766POPC   C4A43986  34.582  40.736   7.350
 7766POPC   C1B43987  34.279  40.817   6.450
 7766POPC   C2B43988  34.279  40.796   6.750
 7766POPC   C3B43989  34.284  40.769   7.050
 7766POPC   C4B43990  34.308  40.841   7.350
 7767POPC   NC343991  18.288   5.059   5.550
 7767POPC   PO443992  18.236   5.106   5.850
 7767POPC   GL143993  18.272   5.099   6.150
 7767POPC   GL243994  18.152   5.117   6.150
 7767POPC   C1A43995  18.244   5.125   6.450
 7767POPC   D2A43996  18.258   5.071   6.750
 7767POPC   C3A43997  18.246   5.075   7.050
 7767POPC   C4A43998  18.325   5.053   7.350
 7767POPC   C1B43999  18.069   5.112   6.450
 7767POPC   C2B44000  18.073   5.122   6.750
 7767POPC   C3B44001  18.049   5.071   7.050
 7767POPC   C4B44002  18.073   5.055   7.350
 7768POPC   NC344003   7.452  38.478   5.550
 7768POPC   PO444004   7.455  38.503   5.850
 7768POPC   GL144005   7.400  38.458   6.150
 7768POPC   GL244006   7.324  38.475   6.150
 7768POPC   C1A44007   7.413  38.459   6.450
 7768POPC   D2A44008   7.411  38.460   6.750
 7768POPC   C3A44009   7.455  38.415   7.050
 7768POPC   C4A44010   7.464  38.430   7.350
 7768POPC   C1B44011   7.198  38.513   6.450
 7768POPC   C2B44012   7.156  38.504   6.750
 7768POPC   C3B44013   7.190  38.480   7.050
 7768POPC   C4B44014   7.163  38.499   7.350
 7769POPC   NC344015   4.308  19.051   5.550
 7769POPC   PO444016   4.365  19.105   5.850
 7769POPC   GL144017   4.363  19.084   6.150
 7769POPC   GL244018   4.261  18.914   6.150
 7769POPC   C1A44019   4.308  19.041   6.450
 7769POPC   D2A44020   4.283  19.031   6.750
 7769POPC   C3A44021   4.322  19.027   7.050
 7769POPC   C4A44022   4.361  19.037   7.350
 7769POPC   C1B44023   4.196  18.841   6.450
 7769POPC   C2B44024   4.250  18.848   6.750
 7769POPC   C3B44025   4.233  18.827   7.050
 7769POPC   C4B44026   4.270  18.857   7.350
 7770POPC   NC344027  19.026  34.528   5.550
 7770POPC   PO444028  19.093  34.542   5.850
 7770POPC   GL144029  19.032  34.558   6.150
 7770POPC   GL244030  19.013  34.449   6.150
 7770POPC   C1A44031  19.070  34.555   6.450
 7770POPC   D2A44032  19.029  34.549   6.750
 7770POPC   C3A44033  19.060  34.582   7.050
 7770POPC   C4A44034  19.012  34.622   7.350
 7770POPC   C1B44035  18.939  34.342   6.450
 7770POPC   C2B44036  19.006  34.372   6.750
 7770POPC   C3B44037  18.960  34.359   7.050
 7770POPC   C4B44038  18.970  34.384   7.350
 7771POPC   NC344039  27.593  27.546   5.550
 7771POPC   PO444040  27.575  27.633   5.850
 7771POPC   GL144041  27.642  27.575   6.150
 7771POPC   GL244042  27.716  27.543   6.150
 7771POPC   C1A44043  27.613  27.622   6.450
 7771POPC   D2A44044  27.556  27.633   6.750
 7771POPC   C3A44045  27.636  27.632   7.050
 7771POPC   C4A44046  27.544  27.590   7.350
 7771POPC   C1B44047  27.719  27.436   6.450
 7771POPC   C2B44048  27.727  27.417   6.750
 7771POPC   C3B44049  27.736  27.430   7.050
 7771POPC   C4B44050  27.705  27.381   7.350
 7772POPC   NC344051  28.376   6.654   5.550
 7772POPC   PO444052  28.399   6.677   5.850
 7772POPC   GL144053  28.412   6.678   6.150
 7772POPC   GL244054  28.253   6.710   6.150
 7772POPC   C1A44055  28.355   6.597   6.450
 7772POPC   D2A44056  28.349   6.618   6.750
 7772POPC   C3A44057  28.390   6.627   7.050
 7772POPC   C4A44058  28.371   6.664   7.350
 7772POPC   C1B44059  28.232   6.883   6.450
 7772POPC   C2B44060  28.274   6.832   6.750
 7772POPC   C3B44061  28.242   6.840   7.050
 7772POPC   C4B44062  28.275   6.878   7.350
 7773POPC   NC344063  26.776   9.720   5.550
 7773POPC   PO444064  26.787   9.770   5.850
 7773POPC   GL144065  26.853   9.706   6.150
 7773POPC   GL244066  26.912   9.819   6.150
 7773POPC   C1A44067  26.797   9.778   6.450
 7773POPC   D2A44068  26.772   9.795   6.750
 7773POPC   C3A44069  26.799   9.751   7.050
 7773POPC   C4A44070  26.793   9.789   7.350
 7773POPC   C1B44071  27.089   9.791   6.450
 7773POPC   C2B44072  27.079   9.832   6.750
 7773POPC   C3B44073  27.099   9.874   7.050
 7773POPC   C4B44074  27.029   9.800   7.350
 7774POPC   NC344075  25.275  26.839   5.550
 7774POPC   PO444076  25.235  26.785   5.850
 7774POPC   GL144077  25.222  26.778   6.150
 7774POPC   GL244078  25.141  26.804   6.150
 7774POPC   C1A44079  25.261  26.791   6.450
 7774POPC   D2A44080  25.250  26.790   6.750
 7774POPC   C3A44081  25.257  26.798   7.050
 7774POPC   C4A44082  25.252  26.843   7.350
 7774POPC   C1B44083  25.031  26.769   6.450
 7774POPC   C2B44084  25.001  26.772   6.750
 7774POPC   C3B44085  24.980  26.746   7.050
 7774POPC   C4B44086  24.973  26.773   7.350
 7775POPC   NC344087  12.805  23.763   5.550
 7775POPC   PO444088  12.899  23.729   5.850
 7775POPC   GL144089  12.840  23.684   6.150
 7775POPC   GL244090  12.788  23.638   6.150
 7775POPC   C1A44091  12.822  23.719   6.450
 7775POPC   D2A44092  12.867  23.762   6.750
 7775POPC   C3A44093  12.832  23.689   7.050
 7775POPC   C4A44094  12.867  23.676   7.350
 7775POPC   C1B44095  12.743  23.461   6.450
 7775POPC   C2B44096  12.723  23.471   6.750
 7775POPC   C3B44097  12.767  23.478   7.050
 7775POPC   C4B44098  12.715  23.469   7.350
 7776POPC   NC344099  31.426  36.929   5.550
 7776POPC   PO444100  31.494  36.893   5.850
 7776POPC   GL144101  31.517  36.868   6.150
 7776POPC   GL244102  31.389  36.886   6.150
 7776POPC   C1A44103  31.509  36.863   6.450
 7776POPC   D2A44104  31.512  36.935   6.750
 7776POPC   C3A44105  31.471  36.855   7.050
 7776POPC   C4A44106  31.475  36.855   7.350
 7776POPC   C1B44107  31.279  36.777   6.450
 7776POPC   C2B44108  31.214  36.801   6.750
 7776POPC   C3B44109  31.227  36.817   7.050
 7776POPC   C4B44110  31.201  36.853   7.350
 7777POPC   NC344111  35.326  12.084   5.550
 7777POPC   PO444112  35.389  12.074   5.850
 7777POPC   GL144113  35.371  12.066   6.150
 7777POPC   GL244114  35.339  12.164   6.150
 7777POPC   C1A44115  35.372  12.027   6.450
 7777POPC   D2A44116  35.322  12.046   6.750
 7777POPC   C3A44117  35.388  12.113   7.050
 7777POPC   C4A44118  35.392  12.074   7.350
 7777POPC   C1B44119  35.263  12.323   6.450
 7777POPC   C2B44120  35.311  12.270   6.750
 7777POPC   C3B44121  35.341  12.330   7.050
 7777POPC   C4B44122  35.279  12.285   7.350
 7778POPC   NC344123  44.650  12.116   5.550
 7778POPC   PO444124  44.664  12.085   5.850
 7778POPC   GL144125  44.677  12.112   6.150
 7778POPC   GL244126  44.616  11.955   6.150
 7778POPC   C1A44127  44.691  12.096   6.450
 7778POPC   D2A44128  44.672  12.112   6.750
 7778POPC   C3A44129  44.657  12.089   7.050
 7778POPC   C4A44130  44.710  12.107   7.350
 7778POPC   C1B44131  44.569  11.874   6.450
 7778POPC   C2B44132  44.561  11.821   6.750
 7778POPC   C3B44133  44.620  11.812   7.050
 7778POPC   C4B44134  44.575  11.847   7.350
 7779POPC   NC344135  41.540  43.842   5.550
 7779POPC   PO444136  41.599  43.873   5.850
 7779POPC   GL144137  41.518  43.897   6.150
 7779POPC   GL244138  41.549  44.044   6.150
 7779POPC   C1A44139  41.570  43.869   6.450
 7779POPC   D2A44140  41.531  43.916   6.750
 7779POPC   C3A44141  41.591  43.863   7.050
 7779POPC   C4A44142  41.513  43.889   7.350
 7779POPC   C1B44143  41.528  44.084   6.450
 7779POPC   C2B44144  41.474  44.173   6.750
 7779POPC   C3B44145  41.523  44.115   7.050
 7779POPC   C4B44146  41.449  44.109   7.350
 7780POPC   NC344147  42.337   5.063   5.550
 7780POPC   PO444148  42.299   5.101   5.850
 7780POPC   GL144149  42.379   5.046   6.150
 7780POPC   GL244150  42.258   4.953   6.150
 7780POPC   C1A44151  42.307   5.137   6.450
 7780POPC   D2A44152  42.296   5.103   6.750
 7780POPC   C3A44153  42.317   5.128   7.050
 7780POPC   C4A44154  42.324   5.109   7.350
 7780POPC   C1B44155  42.211   4.859   6.450
 7780POPC   C2B44156  42.194   4.863   6.750
 7780POPC   C3B44157  42.246   4.858   7.050
 7780POPC   C4B44158  42.242   4.855   7.350
 7781POPC   NC344159  39.195   8.979   5.550
 7781POPC   PO444160  39.235   8.925   5.850
 7781POPC   GL144161  39.240   8.950   6.150
 7781POPC   GL244162  39.252   9.076   6.150
 7781POPC   C1A44163  39.216   8.982   6.450
 7781POPC   D2A44164  39.277   8.926   6.750
 7781POPC   C3A44165  39.254   8.952   7.050
 7781POPC   C4A44166  39.206   9.006   7.350
 7781POPC   C1B44167  39.273   9.261   6.450
 7781POPC   C2B44168  39.218   9.263   6.750
 7781POPC   C3B44169  39.304   9.223   7.050
 7781POPC   C4B44170  39.298   9.243   7.350
 7782POPC   NC344171  30.688   9.745   5.550
 7782POPC   PO444172  30.674   9.752   5.850
 7782POPC   GL144173  30.707   9.757   6.150
 7782POPC   GL244174  30.821   9.697   6.150
 7782POPC   C1A44175  30.714   9.753   6.450
 7782POPC   D2A44176  30.649   9.731   6.750
 7782POPC   C3A44177  30.707   9.769   7.050
 7782POPC   C4A44178  30.687   9.733   7.350
 7782POPC   C1B44179  30.878   9.662   6.450
 7782POPC   C2B44180  30.958   9.609   6.750
 7782POPC   C3B44181  30.942   9.606   7.050
 7782POPC   C4B44182  30.926   9.661   7.350
 7783POPC   NC344183  12.120  37.713   5.550
 7783POPC   PO444184  12.091  37.705   5.850
 7783POPC   GL144185  12.037  37.719   6.150
 7783POPC   GL244186  12.131  37.813   6.150
 7783POPC   C1A44187  12.071  37.700   6.450
 7783POPC   D2A44188  12.114  37.653   6.750
 7783POPC   C3A44189  12.042  37.727   7.050
 7783POPC   C4A44190  12.083  37.641   7.350
 7783POPC   C1B44191  12.120  37.918   6.450
 7783POPC   C2B44192  12.160  37.932   6.750
 7783POPC   C3B44193  12.121  37.946   7.050
 7783POPC   C4B44194  12.197  37.895   7.350
 7784POPC   NC344195   9.709   3.549   5.550
 7784POPC   PO444196   9.789   3.534   5.850
 7784POPC   GL144197   9.729   3.590   6.150
 7784POPC   GL244198   9.643   3.415   6.150
 7784POPC   C1A44199   9.783   3.576   6.450
 7784POPC   D2A44200   9.766   3.496   6.750
 7784POPC   C3A44201   9.793   3.573   7.050
 7784POPC   C4A44202   9.743   3.574   7.350
 7784POPC   C1B44203   9.611   3.297   6.450
 7784POPC   C2B44204   9.582   3.317   6.750
 7784POPC   C3B44205   9.637   3.339   7.050
 7784POPC   C4B44206   9.591   3.323   7.350
 7785POPC   NC344207   4.282  37.705   5.550
 7785POPC   PO444208   4.303  37.686   5.850
 7785POPC   GL144209   4.338  37.668   6.150
 7785POPC   GL244210   4.238  37.615   6.150
 7785POPC   C1A44211   4.358  37.670   6.450
 7785POPC   D2A44212   4.299  37.718   6.750
 7785POPC   C3A44213   4.273  37.634   7.050
 7785POPC   C4A44214   4.321  37.664   7.350
 7785POPC   C1B44215   4.096  37.556   6.450
 7785POPC   C2B44216   4.063  37.634   6.750
 7785POPC   C3B44217   4.068  37.585   7.050
 7785POPC   C4B44218   4.084  37.611   7.350
 7786POPC   NC344219   8.973  12.839   5.550
 7786POPC   PO444220   8.981  12.885   5.850
 7786POPC   GL144221   8.941  12.857   6.150
 7786POPC   GL244222   8.840  12.935   6.150
 7786POPC   C1A44223   8.949  12.806   6.450
 7786POPC   D2A44224   8.946  12.805   6.750
 7786POPC   C3A44225   8.943  12.891   7.050
 7786POPC   C4A44226   8.932  12.828   7.350
 7786POPC   C1B44227   8.757  13.016   6.450
 7786POPC   C2B44228   8.791  13.040   6.750
 7786POPC   C3B44229   8.781  13.029   7.050
 7786POPC   C4B44230   8.744  13.014   7.350
 7787POPC   NC344231  21.378   8.177   5.550
 7787POPC   PO444232  21.434   8.241   5.850
 7787POPC   GL144233  21.371   8.223   6.150
 7787POPC   GL244234  21.439   8.221   6.150
 7787POPC   C1A44235  21.403   8.208   6.450
 7787POPC   D2A44236  21.396   8.172   6.750
 7787POPC   C3A44237  21.416   8.190   7.050
 7787POPC   C4A44238  21.397   8.195   7.350
 7787POPC   C1B44239  21.604   8.354   6.450
 7787POPC   C2B44240  21.623   8.354   6.750
 7787POPC   C3B44241  21.569   8.382   7.050
 7787POPC   C4B44242  21.569   8.318   7.350
 7788POPC   NC344243  16.775  29.904   5.550
 7788POPC   PO444244  16.752  29.934   5.850
 7788POPC   GL144245  16.732  29.874   6.150
 7788POPC   GL244246  16.853  29.966   6.150
 7788POPC   C1A44247  16.691  29.936   6.450
 7788POPC   D2A44248  16.740  29.937   6.750
 7788POPC   C3A44249  16.768  29.969   7.050
 7788POPC   C4A44250  16.770  29.940   7.350
 7788POPC   C1B44251  16.925  29.955   6.450
 7788POPC   C2B44252  16.955  29.969   6.750
 7788POPC   C3B44253  16.948  29.974   7.050
 7788POPC   C4B44254  17.002  30.013   7.350
 7789POPC   NC344255  29.182  29.928   5.550
 7789POPC   PO444256  29.165  29.969   5.850
 7789POPC   GL144257  29.102  29.875   6.150
 7789POPC   GL244258  29.249  29.845   6.150
 7789POPC   C1A44259  29.188  29.943   6.450
 7789POPC   D2A44260  29.116  29.872   6.750
 7789POPC   C3A44261  29.112  29.940   7.050
 7789POPC   C4A44262  29.194  29.912   7.350
 7789POPC   C1B44263  29.380  29.759   6.450
 7789POPC   C2B44264  29.377  29.780   6.750
 7789POPC   C3B44265  29.306  29.748   7.050
 7789POPC   C4B44266  29.389  29.762   7.350
 7790POPC   NC344267  40.055  22.889   5.550
 7790POPC   PO444268  39.962  22.925   5.850
 7790POPC   GL144269  39.967  22.952   6.150
 7790POPC   GL244270  40.026  22.810   6.150
 7790POPC   C1A44271  40.021  22.898   6.450
 7790POPC   D2A44272  39.980  22.905   6.750
 7790POPC   C3A44273  39.987  22.986   7.050
 7790POPC   C4A44274  39.976  22.890   7.350
 7790POPC   C1B44275  40.142  22.753   6.450
 7790POPC   C2B44276  40.069  22.694   6.750
 7790POPC   C3B44277  40.075  22.664   7.050
 7790POPC   C4B44278  40.086  22.740   7.350
 7791POPC   NC344279   0.451  22.952   5.550
 7791POPC   PO444280   0.488  22.925   5.850
 7791POPC   GL144281   0.468  22.984   6.150
 7791POPC   GL244282   0.600  22.922   6.150
 7791POPC   C1A44283   0.448  22.971   6.450
 7791POPC   D2A44284   0.401  22.957   6.750
 7791POPC   C3A44285   0.480  22.951   7.050
 7791POPC   C4A44286   0.473  22.945   7.350
 7791POPC   C1B44287   0.699  22.858   6.450
 7791POPC   C2B44288   0.622  22.899   6.750
 7791POPC   C3B44289   0.697  22.841   7.050
 7791POPC   C4B44290   0.664  22.823   7.350
 7792POPC   NC344291  28.416  36.116   5.550
 7792POPC   PO444292  28.373  36.138   5.850
 7792POPC   GL144293  28.334  36.168   6.150
 7792POPC   GL244294  28.415  36.215   6.150
 7792POPC   C1A44295  28.334  36.123   6.450
 7792POPC   D2A44296  28.371  36.095   6.750
 7792POPC   C3A44297  28.401  36.134   7.050
 7792POPC   C4A44298  28.402  36.170   7.350
 7792POPC   C1B44299  28.472  36.318   6.450
 7792POPC   C2B44300  28.457  36.314   6.750
 7792POPC   C3B44301  28.522  36.374   7.050
 7792POPC   C4B44302  28.499  36.382   7.350
 7793POPC   NC344303  19.846   5.872   5.550
 7793POPC   PO444304  19.831   5.820   5.850
 7793POPC   GL144305  19.840   5.863   6.150
 7793POPC   GL244306  19.712   5.846   6.150
 7793POPC   C1A44307  19.830   5.885   6.450
 7793POPC   D2A44308  19.790   5.822   6.750
 7793POPC   C3A44309  19.794   5.886   7.050
 7793POPC   C4A44310  19.878   5.888   7.350
 7793POPC   C1B44311  19.603   5.922   6.450
 7793POPC   C2B44312  19.630   5.943   6.750
 7793POPC   C3B44313  19.552   5.848   7.050
 7793POPC   C4B44314  19.551   5.912   7.350
 7794POPC   NC344315   8.231  25.260   5.550
 7794POPC   PO444316   8.177  25.224   5.850
 7794POPC   GL144317   8.170  25.285   6.150
 7794POPC   GL244318   8.068  25.202   6.150
 7794POPC   C1A44319   8.169  25.218   6.450
 7794POPC   D2A44320   8.246  25.223   6.750
 7794POPC   C3A44321   8.230  25.268   7.050
 7794POPC   C4A44322   8.216  25.296   7.350
 7794POPC   C1B44323   8.062  25.103   6.450
 7794POPC   C2B44324   8.054  25.070   6.750
 7794POPC   C3B44325   8.070  25.088   7.050
 7794POPC   C4B44326   8.012  25.093   7.350
 7795POPC   NC344327   5.085  39.201   5.550
 7795POPC   PO444328   5.124  39.235   5.850
 7795POPC   GL144329   5.098  39.214   6.150
 7795POPC   GL244330   5.002  39.183   6.150
 7795POPC   C1A44331   5.047  39.197   6.450
 7795POPC   D2A44332   5.118  39.239   6.750
 7795POPC   C3A44333   5.079  39.184   7.050
 7795POPC   C4A44334   5.069  39.278   7.350
 7795POPC   C1B44335   4.869  39.093   6.450
 7795POPC   C2B44336   4.876  39.123   6.750
 7795POPC   C3B44337   4.931  39.070   7.050
 7795POPC   C4B44338   4.914  39.098   7.350
 7796POPC   NC344339  14.366  29.893   5.550
 7796POPC   PO444340  14.423  29.879   5.850
 7796POPC   GL144341  14.357  29.944   6.150
 7796POPC   GL244342  14.268  29.796   6.150
 7796POPC   C1A44343  14.372  29.955   6.450
 7796POPC   D2A44344  14.373  29.970   6.750
 7796POPC   C3A44345  14.370  29.884   7.050
 7796POPC   C4A44346  14.413  29.896   7.350
 7796POPC   C1B44347  14.244  29.718   6.450
 7796POPC   C2B44348  14.237  29.757   6.750
 7796POPC   C3B44349  14.169  29.798   7.050
 7796POPC   C4B44350  14.250  29.770   7.350
 7797POPC   NC344351  32.240  36.152   5.550
 7797POPC   PO444352  32.239  36.143   5.850
 7797POPC   GL144353  32.260  36.091   6.150
 7797POPC   GL244354  32.382  36.136   6.150
 7797POPC   C1A44355  32.251  36.154   6.450
 7797POPC   D2A44356  32.231  36.097   6.750
 7797POPC   C3A44357  32.215  36.163   7.050
 7797POPC   C4A44358  32.279  36.101   7.350
 7797POPC   C1B44359  32.482  36.102   6.450
 7797POPC   C2B44360  32.514  36.122   6.750
 7797POPC   C3B44361  32.533  36.086   7.050
 7797POPC   C4B44362  32.466  36.082   7.350
 7798POPC   NC344363   5.871   3.577   5.550
 7798POPC   PO444364   5.887   3.576   5.850
 7798POPC   GL144365   5.830   3.550   6.150
 7798POPC   GL244366   5.948   3.424   6.150
 7798POPC   C1A44367   5.850   3.571   6.450
 7798POPC   D2A44368   5.871   3.535   6.750
 7798POPC   C3A44369   5.833   3.514   7.050
 7798POPC   C4A44370   5.897   3.581   7.350
 7798POPC   C1B44371   5.980   3.314   6.450
 7798POPC   C2B44372   5.941   3.300   6.750
 7798POPC   C3B44373   5.958   3.342   7.050
 7798POPC   C4B44374   5.914   3.316   7.350
 7799POPC   NC344375  36.114  19.882   5.550
 7799POPC   PO444376  36.160  19.831   5.850
 7799POPC   GL144377  36.139  19.810   6.150
 7799POPC   GL244378  35.995  19.852   6.150
 7799POPC   C1A44379  36.111  19.878   6.450
 7799POPC   D2A44380  36.105  19.828   6.750
 7799POPC   C3A44381  36.104  19.839   7.050
 7799POPC   C4A44382  36.158  19.821   7.350
 7799POPC   C1B44383  35.845  19.865   6.450
 7799POPC   C2B44384  35.841  19.852   6.750
 7799POPC   C3B44385  35.899  19.864   7.050
 7799POPC   C4B44386  35.849  19.842   7.350
 7800POPC   NC344387  15.964  13.673   5.550
 7800POPC   PO444388  15.976  13.647   5.850
 7800POPC   GL144389  15.915  13.591   6.150
 7800POPC   GL244390  15.878  13.646   6.150
 7800POPC   C1A44391  15.997  13.611   6.450
 7800POPC   D2A44392  15.906  13.667   6.750
 7800POPC   C3A44393  15.965  13.580   7.050
 7800POPC   C4A44394  15.946  13.668   7.350
 7800POPC   C1B44395  15.688  13.602   6.450
 7800POPC   C2B44396  15.658  13.678   6.750
 7800POPC   C3B44397  15.666  13.677   7.050
 7800POPC   C4B44398  15.724  13.640   7.350
 7801POPC   NC344399  15.974   1.194   5.550
 7801POPC   PO444400  15.913   1.247   5.850
 7801POPC   GL144401  15.929   1.235   6.150
 7801POPC   GL244402  15.828   1.151   6.150
 7801POPC   C1A44403  15.961   1.225   6.450
 7801POPC   D2A44404  15.958   1.194   6.750
 7801POPC   C3A44405  15.941   1.181   7.050
 7801POPC   C4A44406  15.972   1.212   7.350
 7801POPC   C1B44407  15.807   1.060   6.450
 7801POPC   C2B44408  15.740   1.025   6.750
 7801POPC   C3B44409  15.802   1.039   7.050
 7801POPC   C4B44410  15.782   1.099   7.350
 7802POPC   NC344411   5.866  43.133   5.550
 7802POPC   PO444412   5.854  43.121   5.850
 7802POPC   GL144413   5.869  43.117   6.150
 7802POPC   GL244414   5.941  43.082   6.150
 7802POPC   C1A44415   5.822  43.115   6.450
 7802POPC   D2A44416   5.825  43.101   6.750
 7802POPC   C3A44417   5.855  43.117   7.050
 7802POPC   C4A44418   5.919  43.158   7.350
 7802POPC   C1B44419   6.040  42.990   6.450
 7802POPC   C2B44420   6.048  43.010   6.750
 7802POPC   C3B44421   6.048  43.034   7.050
 7802POPC   C4B44422   6.085  43.008   7.350
 7803POPC   NC344423  28.403  26.800   5.550
 7803POPC   PO444424  28.347  26.778   5.850
 7803POPC   GL144425  28.404  26.864   6.150
 7803POPC   GL244426  28.410  26.897   6.150
 7803POPC   C1A44427  28.419  26.862   6.450
 7803POPC   D2A44428  28.369  26.836   6.750
 7803POPC   C3A44429  28.363  26.791   7.050
 7803POPC   C4A44430  28.358  26.784   7.350
 7803POPC   C1B44431  28.371  27.088   6.450
 7803POPC   C2B44432  28.329  27.040   6.750
 7803POPC   C3B44433  28.408  27.067   7.050
 7803POPC   C4B44434  28.339  27.107   7.350
 7804POPC   NC344435  33.049   8.936   5.550
 7804POPC   PO444436  32.985   8.927   5.850
 7804POPC   GL144437  32.996   8.971   6.150
 7804POPC   GL244438  33.136   8.890   6.150
 7804POPC   C1A44439  32.988   8.927   6.450
 7804POPC   D2A44440  32.980   8.950   6.750
 7804POPC   C3A44441  33.019   9.002   7.050
 7804POPC   C4A44442  32.982   9.021   7.350
 7804POPC   C1B44443  33.266   8.892   6.450
 7804POPC   C2B44444  33.279   8.843   6.750
 7804POPC   C3B44445  33.284   8.829   7.050
 7804POPC   C4B44446  33.237   8.857   7.350
 7805POPC   NC344447  38.422  38.484   5.550
 7805POPC   PO444448  38.465  38.410   5.850
 7805POPC   GL144449  38.448  38.486   6.150
 7805POPC   GL244450  38.454  38.602   6.150
 7805POPC   C1A44451  38.427  38.420   6.450
 7805POPC   D2A44452  38.410  38.501   6.750
 7805POPC   C3A44453  38.440  38.425   7.050
 7805POPC   C4A44454  38.454  38.418   7.350
 7805POPC   C1B44455  38.503  38.655   6.450
 7805POPC   C2B44456  38.493  38.670   6.750
 7805POPC   C3B44457  38.568  38.674   7.050
 7805POPC   C4B44458  38.476  38.657   7.350
 7806POPC   NC344459  32.984  22.919   5.550
 7806POPC   PO444460  33.017  22.937   5.850
 7806POPC   GL144461  32.977  22.978   6.150
 7806POPC   GL244462  32.932  23.041   6.150
 7806POPC   C1A44463  33.020  22.904   6.450
 7806POPC   D2A44464  33.017  22.926   6.750
 7806POPC   C3A44465  32.995  22.979   7.050
 7806POPC   C4A44466  33.010  22.940   7.350
 7806POPC   C1B44467  32.905  23.094   6.450
 7806POPC   C2B44468  32.821  23.171   6.750
 7806POPC   C3B44469  32.887  23.173   7.050
 7806POPC   C4B44470  32.838  23.091   7.350
 7807POPC   NC344471   2.005   0.463   5.550
 7807POPC   PO444472   2.007   0.462   5.850
 7807POPC   GL144473   1.976   0.444   6.150
 7807POPC   GL244474   1.906   0.521   6.150
 7807POPC   C1A44475   1.980   0.485   6.450
 7807POPC   D2A44476   2.006   0.458   6.750
 7807POPC   C3A44477   1.986   0.440   7.050
 7807POPC   C4A44478   1.996   0.469   7.350
 7807POPC   C1B44479   1.923   0.631   6.450
 7807POPC   C2B44480   1.886   0.715   6.750
 7807POPC   C3B44481   1.881   0.647   7.050
 7807POPC   C4B44482   1.878   0.709   7.350
 7808POPC   NC344483  33.834  38.406   5.550
 7808POPC   PO444484  33.829  38.435   5.850
 7808POPC   GL144485  33.809  38.482   6.150
 7808POPC   GL244486  33.636  38.527   6.150
 7808POPC   C1A44487  33.823  38.467   6.450
 7808POPC   D2A44488  33.811  38.416   6.750
 7808POPC   C3A44489  33.812  38.447   7.050
 7808POPC   C4A44490  33.837  38.500   7.350
 7808POPC   C1B44491  33.530  38.542   6.450
 7808POPC   C2B44492  33.600  38.541   6.750
 7808POPC   C3B44493  33.514  38.523   7.050
 7808POPC   C4B44494  33.513  38.479   7.350
 7809POPC   NC344495   8.156  44.635   5.550
 7809POPC   PO444496   8.188  44.702   5.850
 7809POPC   GL144497   8.186  44.634   6.150
 7809POPC   GL244498   8.299  44.716   6.150
 7809POPC   C1A44499   8.152  44.681   6.450
 7809POPC   D2A44500   8.207  44.702   6.750
 7809POPC   C3A44501   8.170  44.667   7.050
 7809POPC   C4A44502   8.220  44.646   7.350
 7809POPC   C1B44503   8.383  44.888   6.450
 7809POPC   C2B44504   8.375  44.813   6.750
 7809POPC   C3B44505   8.336  44.843   7.050
 7809POPC   C4B44506   8.396  44.888   7.350
 7810POPC   NC344507  13.669  22.202   5.550
 7810POPC   PO444508  13.610  22.187   5.850
 7810POPC   GL144509  13.638  22.174   6.150
 7810POPC   GL244510  13.486  22.107   6.150
 7810POPC   C1A44511  13.658  22.206   6.450
 7810POPC   D2A44512  13.619  22.146   6.750
 7810POPC   C3A44513  13.648  22.140   7.050
 7810POPC   C4A44514  13.584  22.201   7.350
 7810POPC   C1B44515  13.378  22.033   6.450
 7810POPC   C2B44516  13.396  22.027   6.750
 7810POPC   C3B44517  13.454  22.001   7.050
 7810POPC   C4B44518  13.397  22.049   7.350
 7811POPC   NC344519  36.085  32.975   5.550
 7811POPC   PO444520  36.104  33.055   5.850
 7811POPC   GL144521  36.126  33.033   6.150
 7811POPC   GL244522  36.260  33.006   6.150
 7811POPC   C1A44523  36.139  33.000   6.450
 7811POPC   D2A44524  36.113  33.038   6.750
 7811POPC   C3A44525  36.138  33.060   7.050
 7811POPC   C4A44526  36.109  33.042   7.350
 7811POPC   C1B44527  36.330  33.061   6.450
 7811POPC   C2B44528  36.329  33.102   6.750
 7811POPC   C3B44529  36.411  33.039   7.050
 7811POPC   C4B44530  36.331  33.065   7.350
 7812POPC   NC344531   2.761  36.091   5.550
 7812POPC   PO444532   2.806  36.159   5.850
 7812POPC   GL144533   2.768  36.081   6.150
 7812POPC   GL244534   2.830  36.170   6.150
 7812POPC   C1A44535   2.815  36.091   6.450
 7812POPC   D2A44536   2.723  36.088   6.750
 7812POPC   C3A44537   2.812  36.121   7.050
 7812POPC   C4A44538   2.813  36.084   7.350
 7812POPC   C1B44539   3.016  36.320   6.450
 7812POPC   C2B44540   2.927  36.232   6.750
 7812POPC   C3B44541   2.918  36.261   7.050
 7812POPC   C4B44542   2.979  36.291   7.350
 7813POPC   NC344543   0.390  12.890   5.550
 7813POPC   PO444544   0.425  12.836   5.850
 7813POPC   GL144545   0.396  12.848   6.150
 7813POPC   GL244546   0.448  12.950   6.150
 7813POPC   C1A44547   0.401  12.879   6.450
 7813POPC   D2A44548   0.412  12.899   6.750
 7813POPC   C3A44549   0.430  12.832   7.050
 7813POPC   C4A44550   0.429  12.834   7.350
 7813POPC   C1B44551   0.337  13.062   6.450
 7813POPC   C2B44552   0.411  13.109   6.750
 7813POPC   C3B44553   0.427  13.053   7.050
 7813POPC   C4B44554   0.410  13.077   7.350
 7814POPC   NC344555  34.584  30.708   5.550
 7814POPC   PO444556  34.530  30.744   5.850
 7814POPC   GL144557  34.610  30.688   6.150
 7814POPC   GL244558  34.603  30.851   6.150
 7814POPC   C1A44559  34.595  30.661   6.450
 7814POPC   D2A44560  34.600  30.716   6.750
 7814POPC   C3A44561  34.620  30.708   7.050
 7814POPC   C4A44562  34.612  30.689   7.350
 7814POPC   C1B44563  34.601  30.896   6.450
 7814POPC   C2B44564  34.528  30.995   6.750
 7814POPC   C3B44565  34.542  30.993   7.050
 7814POPC   C4B44566  34.553  30.969   7.350
 7815POPC   NC344567  44.620  40.786   5.550
 7815POPC   PO444568  44.653  40.752   5.850
 7815POPC   GL144569  44.647  40.741   6.150
 7815POPC   GL244570  44.752  40.889   6.150
 7815POPC   C1A44571  44.615  40.792   6.450
 7815POPC   D2A44572  44.655  40.733   6.750
 7815POPC   C3A44573  44.627  40.822   7.050
 7815POPC   C4A44574  44.700  40.735   7.350
 7815POPC   C1B44575  44.771  41.005   6.450
 7815POPC   C2B44576  44.759  41.040   6.750
 7815POPC   C3B44577  44.789  40.980   7.050
 7815POPC   C4B44578  44.784  40.988   7.350
 7816POPC   NC344579   8.169  12.087   5.550
 7816POPC   PO444580   8.197  12.074   5.850
 7816POPC   GL144581   8.241  12.062   6.150
 7816POPC   GL244582   8.159  11.969   6.150
 7816POPC   C1A44583   8.246  12.061   6.450
 7816POPC   D2A44584   8.152  12.051   6.750
 7816POPC   C3A44585   8.214  12.066   7.050
 7816POPC   C4A44586   8.165  12.052   7.350
 7816POPC   C1B44587   8.115  11.881   6.450
 7816POPC   C2B44588   8.073  11.826   6.750
 7816POPC   C3B44589   8.070  11.852   7.050
 7816POPC   C4B44590   8.068  11.831   7.350
 7817POPC   NC344591  35.371  37.699   5.550
 7817POPC   PO444592  35.365  37.702   5.850
 7817POPC   GL144593  35.389  37.716   6.150
 7817POPC   GL244594  35.221  37.632   6.150
 7817POPC   C1A44595  35.322  37.634   6.450
 7817POPC   D2A44596  35.381  37.682   6.750
 7817POPC   C3A44597  35.371  37.706   7.050
 7817POPC   C4A44598  35.371  37.658   7.350
 7817POPC   C1B44599  35.119  37.519   6.450
 7817POPC   C2B44600  35.153  37.539   6.750
 7817POPC   C3B44601  35.127  37.526   7.050
 7817POPC   C4B44602  35.123  37.602   7.350
 7818POPC   NC344603  29.144   3.552   5.550
 7818POPC   PO444604  29.126   3.535   5.850
 7818POPC   GL144605  29.110   3.548   6.150
 7818POPC   GL244606  29.269   3.588   6.150
 7818POPC   C1A44607  29.160   3.521   6.450
 7818POPC   D2A44608  29.118   3.556   6.750
 7818POPC   C3A44609  29.147   3.561   7.050
 7818POPC   C4A44610  29.110   3.589   7.350
 7818POPC   C1B44611  29.356   3.675   6.450
 7818POPC   C2B44612  29.325   3.672   6.750
 7818POPC   C3B44613  29.407   3.651   7.050
 7818POPC   C4B44614  29.411   3.631   7.350
 7819POPC   NC344615  38.426  27.622   5.550
 7819POPC   PO444616  38.469  27.641   5.850
 7819POPC   GL144617  38.409  27.596   6.150
 7819POPC   GL244618  38.619  27.514   6.150
 7819POPC   C1A44619  38.427  27.610   6.450
 7819POPC   D2A44620  38.485  27.632   6.750
 7819POPC   C3A44621  38.484  27.635   7.050
 7819POPC   C4A44622  38.446  27.557   7.350
 7819POPC   C1B44623  38.672  27.566   6.450
 7819POPC   C2B44624  38.721  27.490   6.750
 7819POPC   C3B44625  38.645  27.552   7.050
 7819POPC   C4B44626  38.663  27.529   7.350
 7820POPC   NC344627   5.824  31.504   5.550
 7820POPC   PO444628   5.839  31.461   5.850
 7820POPC   GL144629   5.877  31.473   6.150
 7820POPC   GL244630   6.013  31.405   6.150
 7820POPC   C1A44631   5.830  31.438   6.450
 7820POPC   D2A44632   5.871  31.436   6.750
 7820POPC   C3A44633   5.898  31.451   7.050
 7820POPC   C4A44634   5.892  31.492   7.350
 7820POPC   C1B44635   6.107  31.374   6.450
 7820POPC   C2B44636   6.121  31.361   6.750
 7820POPC   C3B44637   6.107  31.436   7.050
 7820POPC   C4B44638   6.125  31.420   7.350
 7821POPC   NC344639  35.322  29.906   5.550
 7821POPC   PO444640  35.372  29.874   5.850
 7821POPC   GL144641  35.336  29.876   6.150
 7821POPC   GL244642  35.255  29.796   6.150
 7821POPC   C1A44643  35.365  29.909   6.450
 7821POPC   D2A44644  35.337  29.944   6.750
 7821POPC   C3A44645  35.368  29.950   7.050
 7821POPC   C4A44646  35.307  29.942   7.350
 7821POPC   C1B44647  35.135  29.727   6.450
 7821POPC   C2B44648  35.127  29.705   6.750
 7821POPC   C3B44649  35.194  29.778   7.050
 7821POPC   C4B44650  35.200  29.748   7.350
 7822POPC   NC344651  21.429  38.417   5.550
 7822POPC   PO444652  21.414  38.488   5.850
 7822POPC   GL144653  21.433  38.458   6.150
 7822POPC   GL244654  21.494  38.373   6.150
 7822POPC   C1A44655  21.344  38.493   6.450
 7822POPC   D2A44656  21.388  38.438   6.750
 7822POPC   C3A44657  21.415  38.475   7.050
 7822POPC   C4A44658  21.405  38.421   7.350
 7822POPC   C1B44659  21.514  38.228   6.450
 7822POPC   C2B44660  21.510  38.217   6.750
 7822POPC   C3B44661  21.472  38.195   7.050
 7822POPC   C4B44662  21.506  38.217   7.350
 7823POPC   NC344663   0.464  42.355   5.550
 7823POPC   PO444664   0.445  42.362   5.850
 7823POPC   GL144665   0.487  42.376   6.150
 7823POPC   GL244666   0.445  42.487   6.150
 7823POPC   C1A44667   0.455  42.299   6.450
 7823POPC   D2A44668   0.480  42.338   6.750
 7823POPC   C3A44669   0.403  42.365   7.050
 7823POPC   C4A44670   0.471  42.341   7.350
 7823POPC   C1B44671   0.367  42.624   6.450
 7823POPC   C2B44672   0.370  42.593   6.750
 7823POPC   C3B44673   0.431  42.587   7.050
 7823POPC   C4B44674   0.449  42.590   7.350
 7824POPC   NC344675   1.974  29.957   5.550
 7824POPC   PO444676   1.983  29.886   5.850
 7824POPC   GL144677   1.961  29.873   6.150
 7824POPC   GL244678   1.842  29.799   6.150
 7824POPC   C1A44679   1.961  29.892   6.450
 7824POPC   D2A44680   2.027  29.881   6.750
 7824POPC   C3A44681   2.016  29.970   7.050
 7824POPC   C4A44682   1.950  29.950   7.350
 7824POPC   C1B44683   1.840  29.787   6.450
 7824POPC   C2B44684   1.791  29.749   6.750
 7824POPC   C3B44685   1.773  29.754   7.050
 7824POPC   C4B44686   1.751  29.758   7.350
 7825POPC   NC344687  28.391  12.035   5.550
 7825POPC   PO444688  28.347  12.108   5.850
 7825POPC   GL144689  28.402  12.038   6.150
 7825POPC   GL244690  28.260  11.923   6.150
 7825POPC   C1A44691  28.326  12.070   6.450
 7825POPC   D2A44692  28.411  12.110   6.750
 7825POPC   C3A44693  28.343  12.085   7.050
 7825POPC   C4A44694  28.384  12.054   7.350
 7825POPC   C1B44695  28.244  11.834   6.450
 7825POPC   C2B44696  28.225  11.864   6.750
 7825POPC   C3B44697  28.210  11.900   7.050
 7825POPC   C4B44698  28.283  11.850   7.350
 7826POPC   NC344699  43.870  12.873   5.550
 7826POPC   PO444700  43.904  12.883   5.850
 7826POPC   GL144701  43.920  12.814   6.150
 7826POPC   GL244702  43.795  12.947   6.150
 7826POPC   C1A44703  43.913  12.887   6.450
 7826POPC   D2A44704  43.869  12.808   6.750
 7826POPC   C3A44705  43.930  12.891   7.050
 7826POPC   C4A44706  43.849  12.827   7.350
 7826POPC   C1B44707  43.663  12.942   6.450
 7826POPC   C2B44708  43.664  12.990   6.750
 7826POPC   C3B44709  43.694  12.945   7.050
 7826POPC   C4B44710  43.702  12.952   7.350
 7827POPC   NC344711  14.363   6.621   5.550
 7827POPC   PO444712  14.430   6.679   5.850
 7827POPC   GL144713  14.359   6.668   6.150
 7827POPC   GL244714  14.419   6.563   6.150
 7827POPC   C1A44715  14.449   6.649   6.450
 7827POPC   D2A44716  14.378   6.692   6.750
 7827POPC   C3A44717  14.385   6.620   7.050
 7827POPC   C4A44718  14.366   6.674   7.350
 7827POPC   C1B44719  14.496   6.399   6.450
 7827POPC   C2B44720  14.518   6.451   6.750
 7827POPC   C3B44721  14.548   6.377   7.050
 7827POPC   C4B44722  14.492   6.441   7.350
 7828POPC   NC344723  25.235  19.067   5.550
 7828POPC   PO444724  25.296  19.107   5.850
 7828POPC   GL144725  25.311  19.012   6.150
 7828POPC   GL244726  25.165  19.031   6.150
 7828POPC   C1A44727  25.275  19.078   6.450
 7828POPC   D2A44728  25.221  19.039   6.750
 7828POPC   C3A44729  25.309  19.061   7.050
 7828POPC   C4A44730  25.223  19.053   7.350
 7828POPC   C1B44731  24.977  18.992   6.450
 7828POPC   C2B44732  24.986  19.062   6.750
 7828POPC   C3B44733  25.046  19.022   7.050
 7828POPC   C4B44734  24.977  19.033   7.350
 7829POPC   NC344735   6.613   1.944   5.550
 7829POPC   PO444736   6.693   1.985   5.850
 7829POPC   GL144737   6.625   2.033   6.150
 7829POPC   GL244738   6.681   2.134   6.150
 7829POPC   C1A44739   6.660   1.987   6.450
 7829POPC   D2A44740   6.633   2.027   6.750
 7829POPC   C3A44741   6.685   1.968   7.050
 7829POPC   C4A44742   6.625   2.031   7.350
 7829POPC   C1B44743   6.671   2.284   6.450
 7829POPC   C2B44744   6.729   2.261   6.750
 7829POPC   C3B44745   6.647   2.222   7.050
 7829POPC   C4B44746   6.644   2.225   7.350
 7830POPC   NC344747  26.036  34.548   5.550
 7830POPC   PO444748  26.058  34.579   5.850
 7830POPC   GL144749  26.063  34.542   6.150
 7830POPC   GL244750  25.937  34.529   6.150
 7830POPC   C1A44751  26.072  34.602   6.450
 7830POPC   D2A44752  25.997  34.624   6.750
 7830POPC   C3A44753  26.059  34.570   7.050
 7830POPC   C4A44754  26.001  34.603   7.350
 7830POPC   C1B44755  25.787  34.487   6.450
 7830POPC   C2B44756  25.766  34.542   6.750
 7830POPC   C3B44757  25.820  34.561   7.050
 7830POPC   C4B44758  25.838  34.574   7.350
 7831POPC   NC344759  23.725  38.457   5.550
 7831POPC   PO444760  23.707  38.474   5.850
 7831POPC   GL144761  23.708  38.447   6.150
 7831POPC   GL244762  23.707  38.572   6.150
 7831POPC   C1A44763  23.683  38.481   6.450
 7831POPC   D2A44764  23.676  38.489   6.750
 7831POPC   C3A44765  23.678  38.452   7.050
 7831POPC   C4A44766  23.669  38.434   7.350
 7831POPC   C1B44767  23.701  38.665   6.450
 7831POPC   C2B44768  23.704  38.707   6.750
 7831POPC   C3B44769  23.712  38.660   7.050
 7831POPC   C4B44770  23.668  38.704   7.350
 7832POPC   NC344771  19.787   1.199   5.550
 7832POPC   PO444772  19.797   1.175   5.850
 7832POPC   GL144773  19.791   1.252   6.150
 7832POPC   GL244774  19.957   1.169   6.150
 7832POPC   C1A44775  19.856   1.165   6.450
 7832POPC   D2A44776  19.806   1.191   6.750
 7832POPC   C3A44777  19.816   1.207   7.050
 7832POPC   C4A44778  19.851   1.212   7.350
 7832POPC   C1B44779  20.113   1.183   6.450
 7832POPC   C2B44780  20.107   1.228   6.750
 7832POPC   C3B44781  20.036   1.200   7.050
 7832POPC   C4B44782  20.042   1.202   7.350
 7833POPC   NC344783  42.303   8.933   5.550
 7833POPC   PO444784  42.335   9.020   5.850
 7833POPC   GL144785  42.344   8.938   6.150
 7833POPC   GL244786  42.322   8.851   6.150
 7833POPC   C1A44787  42.343   9.015   6.450
 7833POPC   D2A44788  42.324   8.987   6.750
 7833POPC   C3A44789  42.352   8.937   7.050
 7833POPC   C4A44790  42.353   8.934   7.350
 7833POPC   C1B44791  42.231   8.795   6.450
 7833POPC   C2B44792  42.233   8.756   6.750
 7833POPC   C3B44793  42.259   8.742   7.050
 7833POPC   C4B44794  42.251   8.796   7.350
 7834POPC   NC344795  23.745  24.494   5.550
 7834POPC   PO444796  23.742  24.463   5.850
 7834POPC   GL144797  23.756  24.528   6.150
 7834POPC   GL244798  23.754  24.569   6.150
 7834POPC   C1A44799  23.699  24.520   6.450
 7834POPC   D2A44800  23.673  24.471   6.750
 7834POPC   C3A44801  23.760  24.485   7.050
 7834POPC   C4A44802  23.745  24.447   7.350
 7834POPC   C1B44803  23.745  24.717   6.450
 7834POPC   C2B44804  23.727  24.724   6.750
 7834POPC   C3B44805  23.766  24.779   7.050
 7834POPC   C4B44806  23.703  24.765   7.350
 7835POPC   NC344807  22.211  31.504   5.550
 7835POPC   PO444808  22.112  31.511   5.850
 7835POPC   GL144809  22.132  31.454   6.150
 7835POPC   GL244810  22.257  31.393   6.150
 7835POPC   C1A44811  22.165  31.470   6.450
 7835POPC   D2A44812  22.128  31.430   6.750
 7835POPC   C3A44813  22.183  31.423   7.050
 7835POPC   C4A44814  22.139  31.453   7.350
 7835POPC   C1B44815  22.339  31.343   6.450
 7835POPC   C2B44816  22.368  31.358   6.750
 7835POPC   C3B44817  22.421  31.371   7.050
 7835POPC   C4B44818  22.390  31.402   7.350
 7836POPC   NC344819  33.783   1.213   5.550
 7836POPC   PO444820  33.790   1.232   5.850
 7836POPC   GL144821  33.803   1.252   6.150
 7836POPC   GL244822  33.922   1.205   6.150
 7836POPC   C1A44823  33.777   1.174   6.450
 7836POPC   D2A44824  33.778   1.258   6.750
 7836POPC   C3A44825  33.767   1.175   7.050
 7836POPC   C4A44826  33.761   1.239   7.350
 7836POPC   C1B44827  34.053   1.238   6.450
 7836POPC   C2B44828  34.088   1.309   6.750
 7836POPC   C3B44829  34.065   1.265   7.050
 7836POPC   C4B44830  34.053   1.223   7.350
 7837POPC   NC344831  39.195  36.857   5.550
 7837POPC   PO444832  39.232  36.912   5.850
 7837POPC   GL144833  39.277  36.862   6.150
 7837POPC   GL244834  39.122  37.056   6.150
 7837POPC   C1A44835  39.260  36.871   6.450
 7837POPC   D2A44836  39.234  36.869   6.750
 7837POPC   C3A44837  39.183  36.946   7.050
 7837POPC   C4A44838  39.194  36.897   7.350
 7837POPC   C1B44839  39.114  37.104   6.450
 7837POPC   C2B44840  39.102  37.164   6.750
 7837POPC   C3B44841  39.063  37.149   7.050
 7837POPC   C4B44842  39.085  37.147   7.350
 7838POPC   NC344843  17.498   4.328   5.550
 7838POPC   PO444844  17.510   4.321   5.850
 7838POPC   GL144845  17.480   4.313   6.150
 7838POPC   GL244846  17.501   4.176   6.150
 7838POPC   C1A44847  17.500   4.297   6.450
 7838POPC   D2A44848  17.539   4.297   6.750
 7838POPC   C3A44849  17.556   4.317   7.050
 7838POPC   C4A44850  17.508   4.329   7.350
 7838POPC   C1B44851  17.449   4.081   6.450
 7838POPC   C2B44852  17.454   4.040   6.750
 7838POPC   C3B44853  17.485   4.049   7.050
 7838POPC   C4B44854  17.444   4.028   7.350
 7839POPC   NC344855  43.909  28.389   5.550
 7839POPC   PO444856  43.859  28.373   5.850
 7839POPC   GL144857  43.930  28.347   6.150
 7839POPC   GL244858  43.763  28.459   6.150
 7839POPC   C1A44859  43.852  28.337   6.450
 7839POPC   D2A44860  43.855  28.407   6.750
 7839POPC   C3A44861  43.864  28.415   7.050
 7839POPC   C4A44862  43.852  28.399   7.350
 7839POPC   C1B44863  43.670  28.528   6.450
 7839POPC   C2B44864  43.742  28.546   6.750
 7839POPC   C3B44865  43.738  28.572   7.050
 7839POPC   C4B44866  43.700  28.592   7.350
 7840POPC   NC344867  25.253  17.482   5.550
 7840POPC   PO444868  25.216  17.551   5.850
 7840POPC   GL144869  25.290  17.469   6.150
 7840POPC   GL244870  25.105  17.471   6.150
 7840POPC   C1A44871  25.283  17.477   6.450
 7840POPC   D2A44872  25.238  17.489   6.750
 7840POPC   C3A44873  25.253  17.493   7.050
 7840POPC   C4A44874  25.235  17.534   7.350
 7840POPC   C1B44875  24.987  17.551   6.450
 7840POPC   C2B44876  24.997  17.462   6.750
 7840POPC   C3B44877  25.024  17.499   7.050
 7840POPC   C4B44878  24.968  17.539   7.350
 7841POPC   NC344879  36.173  18.247   5.550
 7841POPC   PO444880  36.080  18.298   5.850
 7841POPC   GL144881  36.175  18.257   6.150
 7841POPC   GL244882  36.252  18.295   6.150
 7841POPC   C1A44883  36.159  18.313   6.450
 7841POPC   D2A44884  36.122  18.257   6.750
 7841POPC   C3A44885  36.098  18.262   7.050
 7841POPC   C4A44886  36.100  18.245   7.350
 7841POPC   C1B44887  36.395  18.368   6.450
 7841POPC   C2B44888  36.348  18.389   6.750
 7841POPC   C3B44889  36.346  18.335   7.050
 7841POPC   C4B44890  36.364  18.344   7.350
 7842POPC   NC344891  39.988  44.634   5.550
 7842POPC   PO444892  39.982  44.690   5.850
 7842POPC   GL144893  40.022  44.673   6.150
 7842POPC   GL244894  39.946  44.802   6.150
 7842POPC   C1A44895  40.022  44.699   6.450
 7842POPC   D2A44896  39.981  44.620   6.750
 7842POPC   C3A44897  39.998  44.672   7.050
 7842POPC   C4A44898  40.033  44.614   7.350
 7842POPC   C1B44899  39.909  44.886   6.450
 7842POPC   C2B44900  39.931  44.937   6.750
 7842POPC   C3B44901  39.971  44.925   7.050
 7842POPC   C4B44902  39.959  44.884   7.350
 7843POPC   NC344903  41.596  30.742   5.550
 7843POPC   PO444904  41.511  30.692   5.850
 7843POPC   GL144905  41.540  30.684   6.150
 7843POPC   GL244906  41.696  30.673   6.150
 7843POPC   C1A44907  41.546  30.649   6.450
 7843POPC   D2A44908  41.518  30.676   6.750
 7843POPC   C3A44909  41.527  30.680   7.050
 7843POPC   C4A44910  41.513  30.692   7.350
 7843POPC   C1B44911  41.850  30.648   6.450
 7843POPC   C2B44912  41.838  30.648   6.750
 7843POPC   C3B44913  41.841  30.637   7.050
 7843POPC   C4B44914  41.830  30.687   7.350
 7844POPC   NC344915   9.797   9.791   5.550
 7844POPC   PO444916   9.706   9.750   5.850
 7844POPC   GL144917   9.798   9.782   6.150
 7844POPC   GL244918   9.847   9.654   6.150
 7844POPC   C1A44919   9.704   9.708   6.450
 7844POPC   D2A44920   9.764   9.726   6.750
 7844POPC   C3A44921   9.717   9.764   7.050
 7844POPC   C4A44922   9.778   9.730   7.350
 7844POPC   C1B44923   9.856   9.531   6.450
 7844POPC   C2B44924   9.906   9.582   6.750
 7844POPC   C3B44925   9.859   9.524   7.050
 7844POPC   C4B44926   9.844   9.567   7.350
 7845POPC   NC344927  26.083  24.532   5.550
 7845POPC   PO444928  25.999  24.453   5.850
 7845POPC   GL144929  26.076  24.501   6.150
 7845POPC   GL244930  25.878  24.507   6.150
 7845POPC   C1A44931  26.082  24.503   6.450
 7845POPC   D2A44932  26.085  24.466   6.750
 7845POPC   C3A44933  26.007  24.486   7.050
 7845POPC   C4A44934  26.005  24.524   7.350
 7845POPC   C1B44935  25.766  24.422   6.450
 7845POPC   C2B44936  25.818  24.477   6.750
 7845POPC   C3B44937  25.765  24.444   7.050
 7845POPC   C4B44938  25.822  24.414   7.350
 7846POPC   NC344939   1.980  22.165   5.550
 7846POPC   PO444940   1.964  22.203   5.850
 7846POPC   GL144941   1.970  22.150   6.150
 7846POPC   GL244942   2.072  22.212   6.150
 7846POPC   C1A44943   1.962  22.167   6.450
 7846POPC   D2A44944   2.007  22.163   6.750
 7846POPC   C3A44945   2.002  22.162   7.050
 7846POPC   C4A44946   1.979  22.194   7.350
 7846POPC   C1B44947   2.180  22.291   6.450
 7846POPC   C2B44948   2.177  22.293   6.750
 7846POPC   C3B44949   2.230  22.318   7.050
 7846POPC   C4B44950   2.194  22.319   7.350
 7847POPC   NC344951  29.961  30.700   5.550
 7847POPC   PO444952  29.896  30.695   5.850
 7847POPC   GL144953  29.890  30.724   6.150
 7847POPC   GL244954  29.820  30.687   6.150
 7847POPC   C1A44955  29.899  30.687   6.450
 7847POPC   D2A44956  29.900  30.701   6.750
 7847POPC   C3A44957  29.943  30.729   7.050
 7847POPC   C4A44958  29.941  30.704   7.350
 7847POPC   C1B44959  29.722  30.595   6.450
 7847POPC   C2B44960  29.649  30.625   6.750
 7847POPC   C3B44961  29.744  30.614   7.050
 7847POPC   C4B44962  29.668  30.536   7.350
 7848POPC   NC344963  12.057   9.737   5.550
 7848POPC   PO444964  12.070   9.723   5.850
 7848POPC   GL144965  12.103   9.701   6.150
 7848POPC   GL244966  12.122   9.821   6.150
 7848POPC   C1A44967  12.083   9.734   6.450
 7848POPC   D2A44968  12.123   9.712   6.750
 7848POPC   C3A44969  12.070   9.738   7.050
 7848POPC   C4A44970  12.107   9.779   7.350
 7848POPC   C1B44971  12.123  10.028   6.450
 7848POPC   C2B44972  12.136   9.975   6.750
 7848POPC   C3B44973  12.150   9.968   7.050
 7848POPC   C4B44974  12.144  10.034   7.350
 7849POPC   NC344975  22.154  29.924   5.550
 7849POPC   PO444976  22.137  29.966   5.850
 7849POPC   GL144977  22.137  29.927   6.150
 7849POPC   GL244978  22.086  30.042   6.150
 7849POPC   C1A44979  22.197  29.916   6.450
 7849POPC   D2A44980  22.166  29.917   6.750
 7849POPC   C3A44981  22.151  29.960   7.050
 7849POPC   C4A44982  22.157  29.933   7.350
 7849POPC   C1B44983  22.054  30.172   6.450
 7849POPC   C2B44984  22.067  30.154   6.750
 7849POPC   C3B44985  22.012  30.153   7.050
 7849POPC   C4B44986  22.019  30.162   7.350
 7850POPC   NC344987  33.040  15.993   5.550
 7850POPC   PO444988  33.064  15.915   5.850
 7850POPC   GL144989  33.008  15.970   6.150
 7850POPC   GL244990  32.950  16.022   6.150
 7850POPC   C1A44991  33.048  15.995   6.450
 7850POPC   D2A44992  33.028  15.947   6.750
 7850POPC   C3A44993  33.057  15.944   7.050
 7850POPC   C4A44994  32.987  15.993   7.350
 7850POPC   C1B44995  32.815  16.161   6.450
 7850POPC   C2B44996  32.876  16.142   6.750
 7850POPC   C3B44997  32.878  16.143   7.050
 7850POPC   C4B44998  32.813  16.174   7.350
 7851POPC   NC344999  36.102  16.757   5.550
 7851POPC   PO445000  36.151  16.774   5.850
 7851POPC   GL145001  36.163  16.707   6.150
 7851POPC   GL245002  36.010  16.671   6.150
 7851POPC   C1A45003  36.097  16.724   6.450
 7851POPC   D2A45004  36.136  16.737   6.750
 7851POPC   C3A45005  36.096  16.748   7.050
 7851POPC   C4A45006  36.106  16.769   7.350
 7851POPC   C1B45007  35.847  16.732   6.450
 7851POPC   C2B45008  35.877  16.673   6.750
 7851POPC   C3B45009  35.897  16.700   7.050
 7851POPC   C4B45010  35.876  16.681   7.350
 7852POPC   NC345011  21.339  22.915   5.550
 7852POPC   PO445012  21.409  22.901   5.850
 7852POPC   GL145013  21.385  22.921   6.150
 7852POPC   GL245014  21.275  22.807   6.150
 7852POPC   C1A45015  21.401  22.890   6.450
 7852POPC   D2A45016  21.415  22.967   6.750
 7852POPC   C3A45017  21.419  22.951   7.050
 7852POPC   C4A45018  21.337  22.932   7.350
 7852POPC   C1B45019  21.230  22.748   6.450
 7852POPC   C2B45020  21.169  22.722   6.750
 7852POPC   C3B45021  21.210  22.769   7.050
 7852POPC   C4B45022  21.204  22.726   7.350
 7853POPC   NC345023  36.091  21.428   5.550
 7853POPC   PO445024  36.119  21.397   5.850
 7853POPC   GL145025  36.101  21.396   6.150
 7853POPC   GL245026  35.996  21.311   6.150
 7853POPC   C1A45027  36.080  21.338   6.450
 7853POPC   D2A45028  36.086  21.414   6.750
 7853POPC   C3A45029  36.096  21.381   7.050
 7853POPC   C4A45030  36.122  21.356   7.350
 7853POPC   C1B45031  35.849  21.336   6.450
 7853POPC   C2B45032  35.852  21.293   6.750
 7853POPC   C3B45033  35.866  21.307   7.050
 7853POPC   C4B45034  35.879  21.313   7.350
 7854POPC   NC345035   8.194  19.797   5.550
 7854POPC   PO445036   8.158  19.880   5.850
 7854POPC   GL145037   8.186  19.809   6.150
 7854POPC   GL245038   8.106  19.930   6.150
 7854POPC   C1A45039   8.147  19.820   6.450
 7854POPC   D2A45040   8.148  19.818   6.750
 7854POPC   C3A45041   8.188  19.792   7.050
 7854POPC   C4A45042   8.211  19.789   7.350
 7854POPC   C1B45043   8.050  20.059   6.450
 7854POPC   C2B45044   8.019  20.005   6.750
 7854POPC   C3B45045   8.057  20.036   7.050
 7854POPC   C4B45046   8.013  19.988   7.350
 7855POPC   NC345047  19.080  18.267   5.550
 7855POPC   PO445048  19.054  18.332   5.850
 7855POPC   GL145049  19.066  18.281   6.150
 7855POPC   GL245050  19.067  18.183   6.150
 7855POPC   C1A45051  19.107  18.239   6.450
 7855POPC   D2A45052  19.050  18.303   6.750
 7855POPC   C3A45053  19.064  18.299   7.050
 7855POPC   C4A45054  19.104  18.254   7.350
 7855POPC   C1B45055  19.201  18.031   6.450
 7855POPC   C2B45056  19.205  18.009   6.750
 7855POPC   C3B45057  19.174  18.059   7.050
 7855POPC   C4B45058  19.141  18.099   7.350
 7856POPC   NC345059   5.868  23.707   5.550
 7856POPC   PO445060   5.834  23.701   5.850
 7856POPC   GL145061   5.822  23.754   6.150
 7856POPC   GL245062   5.763  23.719   6.150
 7856POPC   C1A45063   5.878  23.712   6.450
 7856POPC   D2A45064   5.865  23.686   6.750
 7856POPC   C3A45065   5.910  23.683   7.050
 7856POPC   C4A45066   5.916  23.755   7.350
 7856POPC   C1B45067   5.675  23.798   6.450
 7856POPC   C2B45068   5.648  23.843   6.750
 7856POPC   C3B45069   5.638  23.859   7.050
 7856POPC   C4B45070   5.636  23.844   7.350
 7857POPC   NC345071  17.545   1.250   5.550
 7857POPC   PO445072  17.545   1.166   5.850
 7857POPC   GL145073  17.519   1.192   6.150
 7857POPC   GL245074  17.437   1.130   6.150
 7857POPC   C1A45075  17.535   1.236   6.450
 7857POPC   D2A45076  17.527   1.201   6.750
 7857POPC   C3A45077  17.505   1.247   7.050
 7857POPC   C4A45078  17.550   1.250   7.350
 7857POPC   C1B45079  17.409   0.957   6.450
 7857POPC   C2B45080  17.411   0.975   6.750
 7857POPC   C3B45081  17.372   0.937   7.050
 7857POPC   C4B45082  17.404   1.024   7.350
 7858POPC   NC345083  42.344   0.444   5.550
 7858POPC   PO445084  42.366   0.450   5.850
 7858POPC   GL145085  42.383   0.478   6.150
 7858POPC   GL245086  42.203   0.348   6.150
 7858POPC   C1A45087  42.346   0.473   6.450
 7858POPC   D2A45088  42.323   0.409   6.750
 7858POPC   C3A45089  42.381   0.457   7.050
 7858POPC   C4A45090  42.370   0.425   7.350
 7858POPC   C1B45091  42.136   0.303   6.450
 7858POPC   C2B45092  42.148   0.316   6.750
 7858POPC   C3B45093  42.112   0.230   7.050
 7858POPC   C4B45094  42.114   0.240   7.350
 7859POPC   NC345095  15.913  12.094   5.550
 7859POPC   PO445096  16.000  12.094   5.850
 7859POPC   GL145097  15.912  12.046   6.150
 7859POPC   GL245098  16.051  12.022   6.150
 7859POPC   C1A45099  15.943  12.069   6.450
 7859POPC   D2A45100  15.943  12.033   6.750
 7859POPC   C3A45101  15.945  12.048   7.050
 7859POPC   C4A45102  15.975  12.097   7.350
 7859POPC   C1B45103  16.161  11.860   6.450
 7859POPC   C2B45104  16.138  11.873   6.750
 7859POPC   C3B45105  16.153  11.894   7.050
 7859POPC   C4B45106  16.169  11.923   7.350
 7860POPC   NC345107  41.582  25.293   5.550
 7860POPC   PO445108  41.597  25.289   5.850
 7860POPC   GL145109  41.566  25.272   6.150
 7860POPC   GL245110  41.522  25.189   6.150
 7860POPC   C1A45111  41.515  25.249   6.450
 7860POPC   D2A45112  41.607  25.268   6.750
 7860POPC   C3A45113  41.537  25.301   7.050
 7860POPC   C4A45114  41.577  25.236   7.350
 7860POPC   C1B45115  41.531  25.040   6.450
 7860POPC   C2B45116  41.551  25.056   6.750
 7860POPC   C3B45117  41.549  25.039   7.050
 7860POPC   C4B45118  41.487  25.034   7.350
 7861POPC   NC345119   2.809  43.104   5.550
 7861POPC   PO445120   2.764  43.076   5.850
 7861POPC   GL145121   2.762  43.087   6.150
 7861POPC   GL245122   2.818  43.235   6.150
 7861POPC   C1A45123   2.734  43.129   6.450
 7861POPC   D2A45124   2.736  43.080   6.750
 7861POPC   C3A45125   2.776  43.099   7.050
 7861POPC   C4A45126   2.761  43.074   7.350
 7861POPC   C1B45127   2.877  43.331   6.450
 7861POPC   C2B45128   2.953  43.274   6.750
 7861POPC   C3B45129   2.918  43.277   7.050
 7861POPC   C4B45130   2.875  43.320   7.350
 7862POPC   NC345131  32.252   4.272   5.550
 7862POPC   PO445132  32.277   4.325   5.850
 7862POPC   GL145133  32.225   4.333   6.150
 7862POPC   GL245134  32.137   4.389   6.150
 7862POPC   C1A45135  32.289   4.298   6.450
 7862POPC   D2A45136  32.255   4.345   6.750
 7862POPC   C3A45137  32.216   4.363   7.050
 7862POPC   C4A45138  32.281   4.308   7.350
 7862POPC   C1B45139  32.038   4.475   6.450
 7862POPC   C2B45140  32.049   4.480   6.750
 7862POPC   C3B45141  32.077   4.454   7.050
 7862POPC   C4B45142  32.120   4.512   7.350
 7863POPC   NC345143   8.216   5.862   5.550
 7863POPC   PO445144   8.189   5.832   5.850
 7863POPC   GL145145   8.242   5.863   6.150
 7863POPC   GL245146   8.130   5.849   6.150
 7863POPC   C1A45147   8.240   5.825   6.450
 7863POPC   D2A45148   8.215   5.914   6.750
 7863POPC   C3A45149   8.237   5.898   7.050
 7863POPC   C4A45150   8.189   5.837   7.350
 7863POPC   C1B45151   8.024   5.793   6.450
 7863POPC   C2B45152   7.970   5.714   6.750
 7863POPC   C3B45153   7.960   5.769   7.050
 7863POPC   C4B45154   7.946   5.786   7.350
 7864POPC   NC345155   5.902  12.083   5.550
 7864POPC   PO445156   5.840  12.036   5.850
 7864POPC   GL145157   5.878  12.114   6.150
 7864POPC   GL245158   5.861  11.932   6.150
 7864POPC   C1A45159   5.874  12.102   6.450
 7864POPC   D2A45160   5.838  12.058   6.750
 7864POPC   C3A45161   5.867  12.029   7.050
 7864POPC   C4A45162   5.902  12.039   7.350
 7864POPC   C1B45163   5.866  11.862   6.450
 7864POPC   C2B45164   5.843  11.862   6.750
 7864POPC   C3B45165   5.883  11.865   7.050
 7864POPC   C4B45166   5.852  11.828   7.350
 7865POPC   NC345167   5.911  14.359   5.550
 7865POPC   PO445168   5.894  14.427   5.850
 7865POPC   GL145169   5.825  14.399   6.150
 7865POPC   GL245170   5.790  14.412   6.150
 7865POPC   C1A45171   5.864  14.417   6.450
 7865POPC   D2A45172   5.820  14.390   6.750
 7865POPC   C3A45173   5.917  14.381   7.050
 7865POPC   C4A45174   5.851  14.446   7.350
 7865POPC   C1B45175   5.636  14.337   6.450
 7865POPC   C2B45176   5.656  14.357   6.750
 7865POPC   C3B45177   5.614  14.365   7.050
 7865POPC   C4B45178   5.648  14.359   7.350
 7866POPC   NC345179  22.956  12.858   5.550
 7866POPC   PO445180  22.902  12.854   5.850
 7866POPC   GL145181  22.890  12.854   6.150
 7866POPC   GL245182  22.840  12.895   6.150
 7866POPC   C1A45183  22.899  12.812   6.450
 7866POPC   D2A45184  22.944  12.856   6.750
 7866POPC   C3A45185  22.899  12.836   7.050
 7866POPC   C4A45186  22.956  12.833   7.350
 7866POPC   C1B45187  22.706  12.849   6.450
 7866POPC   C2B45188  22.733  12.875   6.750
 7866POPC   C3B45189  22.700  12.813   7.050
 7866POPC   C4B45190  22.706  12.828   7.350
 7867POPC   NC345191  11.346  22.204   5.550
 7867POPC   PO445192  11.331  22.113   5.850
 7867POPC   GL145193  11.304  22.165   6.150
 7867POPC   GL245194  11.244  22.047   6.150
 7867POPC   C1A45195  11.297  22.138   6.450
 7867POPC   D2A45196  11.318  22.159   6.750
 7867POPC   C3A45197  11.280  22.174   7.050
 7867POPC   C4A45198  11.305  22.207   7.350
 7867POPC   C1B45199  11.146  21.992   6.450
 7867POPC   C2B45200  11.076  21.968   6.750
 7867POPC   C3B45201  11.095  22.007   7.050
 7867POPC   C4B45202  11.092  22.010   7.350
 7868POPC   NC345203  44.656  33.784   5.550
 7868POPC   PO445204  44.625  33.772   5.850
 7868POPC   GL145205  44.618  33.762   6.150
 7868POPC   GL245206  44.503  33.786   6.150
 7868POPC   C1A45207  44.706  33.820   6.450
 7868POPC   D2A45208  44.679  33.846   6.750
 7868POPC   C3A45209  44.660  33.780   7.050
 7868POPC   C4A45210  44.631  33.765   7.350
 7868POPC   C1B45211  44.404  33.845   6.450
 7868POPC   C2B45212  44.447  33.816   6.750
 7868POPC   C3B45213  44.381  33.868   7.050
 7868POPC   C4B45214  44.436  33.839   7.350
 7869POPC   NC345215  17.545   2.745   5.550
 7869POPC   PO445216  17.483   2.781   5.850
 7869POPC   GL145217  17.532   2.810   6.150
 7869POPC   GL245218  17.344   2.756   6.150
 7869POPC   C1A45219  17.550   2.754   6.450
 7869POPC   D2A45220  17.503   2.762   6.750
 7869POPC   C3A45221  17.475   2.809   7.050
 7869POPC   C4A45222  17.467   2.764   7.350
 7869POPC   C1B45223  17.251   2.701   6.450
 7869POPC   C2B45224  17.292   2.693   6.750
 7869POPC   C3B45225  17.287   2.690   7.050
 7869POPC   C4B45226  17.314   2.677   7.350
 7870POPC   NC345227   0.461  14.400   5.550
 7870POPC   PO445228   0.427  14.425   5.850
 7870POPC   GL145229   0.480  14.446   6.150
 7870POPC   GL245230   0.365  14.330   6.150
 7870POPC   C1A45231   0.405  14.431   6.450
 7870POPC   D2A45232   0.391  14.362   6.750
 7870POPC   C3A45233   0.401  14.407   7.050
 7870POPC   C4A45234   0.406  14.398   7.350
 7870POPC   C1B45235   0.395  14.192   6.450
 7870POPC   C2B45236   0.324  14.122   6.750
 7870POPC   C3B45237   0.323  14.142   7.050
 7870POPC   C4B45238   0.317  14.216   7.350
 7871POPC   NC345239  29.140   4.299   5.550
 7871POPC   PO445240  29.148   4.325   5.850
 7871POPC   GL145241  29.165   4.338   6.150
 7871POPC   GL245242  29.013   4.297   6.150
 7871POPC   C1A45243  29.172   4.322   6.450
 7871POPC   D2A45244  29.152   4.363   6.750
 7871POPC   C3A45245  29.136   4.333   7.050
 7871POPC   C4A45246  29.194   4.325   7.350
 7871POPC   C1B45247  28.883   4.211   6.450
 7871POPC   C2B45248  28.880   4.293   6.750
 7871POPC   C3B45249  28.852   4.257   7.050
 7871POPC   C4B45250  28.900   4.289   7.350
 7872POPC   NC345251  27.572  43.160   5.550
 7872POPC   PO445252  27.544  43.070   5.850
 7872POPC   GL145253  27.611  43.160   6.150
 7872POPC   GL245254  27.496  43.008   6.150
 7872POPC   C1A45255  27.577  43.073   6.450
 7872POPC   D2A45256  27.544  43.082   6.750
 7872POPC   C3A45257  27.581  43.072   7.050
 7872POPC   C4A45258  27.547  43.092   7.350
 7872POPC   C1B45259  27.445  42.891   6.450
 7872POPC   C2B45260  27.476  42.853   6.750
 7872POPC   C3B45261  27.492  42.940   7.050
 7872POPC   C4B45262  27.481  42.950   7.350
 7873POPC   NC345263  44.676  19.786   5.550
 7873POPC   PO445264  44.709  19.814   5.850
 7873POPC   GL145265  44.655  19.842   6.150
 7873POPC   GL245266  44.780  19.750   6.150
 7873POPC   C1A45267  44.649  19.797   6.450
 7873POPC   D2A45268  44.615  19.847   6.750
 7873POPC   C3A45269  44.674  19.821   7.050
 7873POPC   C4A45270  44.669  19.871   7.350
 7873POPC   C1B45271  44.800  19.640   6.450
 7873POPC   C2B45272  44.789  19.673   6.750
 7873POPC   C3B45273  44.863  19.636   7.050
 7873POPC   C4B45274  44.827  19.672   7.350
 7874POPC   NC345275  17.481  19.838   5.550
 7874POPC   PO445276  17.494  19.853   5.850
 7874POPC   GL145277  17.469  19.806   6.150
 7874POPC   GL245278  17.545  19.713   6.150
 7874POPC   C1A45279  17.484  19.792   6.450
 7874POPC   D2A45280  17.535  19.848   6.750
 7874POPC   C3A45281  17.545  19.800   7.050
 7874POPC   C4A45282  17.484  19.856   7.350
 7874POPC   C1B45283  17.589  19.573   6.450
 7874POPC   C2B45284  17.676  19.637   6.750
 7874POPC   C3B45285  17.670  19.607   7.050
 7874POPC   C4B45286  17.658  19.670   7.350
 7875POPC   NC345287  31.432  42.376   5.550
 7875POPC   PO445288  31.432  42.285   5.850
 7875POPC   GL145289  31.488  42.356   6.150
 7875POPC   GL245290  31.567  42.228   6.150
 7875POPC   C1A45291  31.431  42.335   6.450
 7875POPC   D2A45292  31.486  42.343   6.750
 7875POPC   C3A45293  31.514  42.332   7.050
 7875POPC   C4A45294  31.429  42.373   7.350
 7875POPC   C1B45295  31.619  42.067   6.450
 7875POPC   C2B45296  31.538  42.141   6.750
 7875POPC   C3B45297  31.581  42.080   7.050
 7875POPC   C4B45298  31.532  42.158   7.350
 7876POPC   NC345299  26.852  32.977   5.550
 7876POPC   PO445300  26.789  33.071   5.850
 7876POPC   GL145301  26.823  33.047   6.150
 7876POPC   GL245302  26.957  33.067   6.150
 7876POPC   C1A45303  26.851  32.980   6.450
 7876POPC   D2A45304  26.799  33.067   6.750
 7876POPC   C3A45305  26.806  32.989   7.050
 7876POPC   C4A45306  26.804  33.002   7.350
 7876POPC   C1B45307  27.038  33.125   6.450
 7876POPC   C2B45308  27.055  33.185   6.750
 7876POPC   C3B45309  27.021  33.196   7.050
 7876POPC   C4B45310  26.989  33.107   7.350
 7877POPC   NC345311  36.113  31.442   5.550
 7877POPC   PO445312  36.084  31.459   5.850
 7877POPC   GL145313  36.171  31.460   6.150
 7877POPC   GL245314  36.081  31.334   6.150
 7877POPC   C1A45315  36.099  31.424   6.450
 7877POPC   D2A45316  36.104  31.507   6.750
 7877POPC   C3A45317  36.142  31.443   7.050
 7877POPC   C4A45318  36.167  31.508   7.350
 7877POPC   C1B45319  36.063  31.197   6.450
 7877POPC   C2B45320  36.056  31.182   6.750
 7877POPC   C3B45321  36.082  31.224   7.050
 7877POPC   C4B45322  36.132  31.204   7.350
 7878POPC   NC345323  26.822  14.371   5.550
 7878POPC   PO445324  26.799  14.434   5.850
 7878POPC   GL145325  26.848  14.423   6.150
 7878POPC   GL245326  26.816  14.562   6.150
 7878POPC   C1A45327  26.788  14.393   6.450
 7878POPC   D2A45328  26.822  14.453   6.750
 7878POPC   C3A45329  26.785  14.445   7.050
 7878POPC   C4A45330  26.799  14.447   7.350
 7878POPC   C1B45331  26.808  14.684   6.450
 7878POPC   C2B45332  26.887  14.693   6.750
 7878POPC   C3B45333  26.804  14.634   7.050
 7878POPC   C4B45334  26.821  14.698   7.350
 7879POPC   NC345335   4.344  15.955   5.550
 7879POPC   PO445336   4.347  15.979   5.850
 7879POPC   GL145337   4.338  15.985   6.150
 7879POPC   GL245338   4.319  15.832   6.150
 7879POPC   C1A45339   4.337  15.988   6.450
 7879POPC   D2A45340   4.327  15.996   6.750
 7879POPC   C3A45341   4.331  15.968   7.050
 7879POPC   C4A45342   4.291  15.948   7.350
 7879POPC   C1B45343   4.347  15.700   6.450
 7879POPC   C2B45344   4.366  15.738   6.750
 7879POPC   C3B45345   4.353  15.745   7.050
 7879POPC   C4B45346   4.362  15.677   7.350
 7880POPC   NC345347  22.201  22.918   5.550
 7880POPC   PO445348  22.147  22.971   5.850
 7880POPC   GL145349  22.201  22.903   6.150
 7880POPC   GL245350  22.022  22.885   6.150
 7880POPC   C1A45351  22.196  22.895   6.450
 7880POPC   D2A45352  22.160  22.948   6.750
 7880POPC   C3A45353  22.132  22.957   7.050
 7880POPC   C4A45354  22.123  22.946   7.350
 7880POPC   C1B45355  21.872  22.883   6.450
 7880POPC   C2B45356  21.881  22.970   6.750
 7880POPC   C3B45357  21.942  22.948   7.050
 7880POPC   C4B45358  21.916  22.922   7.350
 7881POPC   NC345359  15.925  18.285   5.550
 7881POPC   PO445360  15.928  18.318   5.850
 7881POPC   GL145361  15.980  18.329   6.150
 7881POPC   GL245362  15.857  18.227   6.150
 7881POPC   C1A45363  15.917  18.277   6.450
 7881POPC   D2A45364  15.982  18.306   6.750
 7881POPC   C3A45365  15.993  18.234   7.050
 7881POPC   C4A45366  16.002  18.292   7.350
 7881POPC   C1B45367  15.664  18.238   6.450
 7881POPC   C2B45368  15.689  18.199   6.750
 7881POPC   C3B45369  15.692  18.272   7.050
 7881POPC   C4B45370  15.698  18.201   7.350
 7882POPC   NC345371  15.993  16.683   5.550
 7882POPC   PO445372  15.947  16.719   5.850
 7882POPC   GL145373  15.929  16.703   6.150
 7882POPC   GL245374  16.046  16.677   6.150
 7882POPC   C1A45375  15.949  16.701   6.450
 7882POPC   D2A45376  15.926  16.745   6.750
 7882POPC   C3A45377  15.965  16.717   7.050
 7882POPC   C4A45378  15.991  16.700   7.350
 7882POPC   C1B45379  16.153  16.610   6.450
 7882POPC   C2B45380  16.183  16.565   6.750
 7882POPC   C3B45381  16.159  16.609   7.050
 7882POPC   C4B45382  16.147  16.569   7.350
 7883POPC   NC345383  13.578   6.682   5.550
 7883POPC   PO445384  13.588   6.629   5.850
 7883POPC   GL145385  13.642   6.653   6.150
 7883POPC   GL245386  13.632   6.773   6.150
 7883POPC   C1A45387  13.629   6.617   6.450
 7883POPC   D2A45388  13.644   6.629   6.750
 7883POPC   C3A45389  13.647   6.694   7.050
 7883POPC   C4A45390  13.657   6.684   7.350
 7883POPC   C1B45391  13.597   6.879   6.450
 7883POPC   C2B45392  13.589   6.909   6.750
 7883POPC   C3B45393  13.633   6.903   7.050
 7883POPC   C4B45394  13.564   6.935   7.350
 7884POPC   NC345395   9.739   8.929   5.550
 7884POPC   PO445396   9.772   8.983   5.850
 7884POPC   GL145397   9.730   9.004   6.150
 7884POPC   GL245398   9.796   9.071   6.150
 7884POPC   C1A45399   9.756   8.984   6.450
 7884POPC   D2A45400   9.720   8.964   6.750
 7884POPC   C3A45401   9.783   9.003   7.050
 7884POPC   C4A45402   9.711   8.975   7.350
 7884POPC   C1B45403   9.804   9.208   6.450
 7884POPC   C2B45404   9.832   9.197   6.750
 7884POPC   C3B45405   9.774   9.166   7.050
 7884POPC   C4B45406   9.802   9.172   7.350
 7885POPC   NC345407  41.539  37.652   5.550
 7885POPC   PO445408  41.585  37.632   5.850
 7885POPC   GL145409  41.596  37.630   6.150
 7885POPC   GL245410  41.504  37.638   6.150
 7885POPC   C1A45411  41.600  37.635   6.450
 7885POPC   D2A45412  41.572  37.679   6.750
 7885POPC   C3A45413  41.569  37.696   7.050
 7885POPC   C4A45414  41.523  37.688   7.350
 7885POPC   C1B45415  41.415  37.512   6.450
 7885POPC   C2B45416  41.367  37.527   6.750
 7885POPC   C3B45417  41.360  37.484   7.050
 7885POPC   C4B45418  41.414  37.465   7.350
 7886POPC   NC345419  25.225  10.563   5.550
 7886POPC   PO445420  25.304  10.542   5.850
 7886POPC   GL145421  25.249  10.523   6.150
 7886POPC   GL245422  25.396  10.650   6.150
 7886POPC   C1A45423  25.225  10.484   6.450
 7886POPC   D2A45424  25.251  10.517   6.750
 7886POPC   C3A45425  25.282  10.500   7.050
 7886POPC   C4A45426  25.246  10.549   7.350
 7886POPC   C1B45427  25.454  10.669   6.450
 7886POPC   C2B45428  25.427  10.671   6.750
 7886POPC   C3B45429  25.415  10.689   7.050
 7886POPC   C4B45430  25.490  10.714   7.350
 7887POPC   NC345431  41.541  29.950   5.550
 7887POPC   PO445432  41.514  29.938   5.850
 7887POPC   GL145433  41.580  29.896   6.150
 7887POPC   GL245434  41.608  30.055   6.150
 7887POPC   C1A45435  41.606  29.947   6.450
 7887POPC   D2A45436  41.519  29.903   6.750
 7887POPC   C3A45437  41.570  29.948   7.050
 7887POPC   C4A45438  41.560  29.932   7.350
 7887POPC   C1B45439  41.712  30.122   6.450
 7887POPC   C2B45440  41.682  30.141   6.750
 7887POPC   C3B45441  41.731  30.132   7.050
 7887POPC   C4B45442  41.672  30.067   7.350
 7888POPC   NC345443  19.787  29.160   5.550
 7888POPC   PO445444  19.850  29.139   5.850
 7888POPC   GL145445  19.809  29.194   6.150
 7888POPC   GL245446  19.748  29.151   6.150
 7888POPC   C1A45447  19.819  29.098   6.450
 7888POPC   D2A45448  19.796  29.134   6.750
 7888POPC   C3A45449  19.791  29.179   7.050
 7888POPC   C4A45450  19.870  29.190   7.350
 7888POPC   C1B45451  19.618  29.095   6.450
 7888POPC   C2B45452  19.614  29.127   6.750
 7888POPC   C3B45453  19.539  29.161   7.050
 7888POPC   C4B45454  19.610  29.093   7.350
 7889POPC   NC345455  26.822  27.629   5.550
 7889POPC   PO445456  26.827  27.557   5.850
 7889POPC   GL145457  26.841  27.550   6.150
 7889POPC   GL245458  26.927  27.733   6.150
 7889POPC   C1A45459  26.800  27.551   6.450
 7889POPC   D2A45460  26.800  27.642   6.750
 7889POPC   C3A45461  26.826  27.623   7.050
 7889POPC   C4A45462  26.782  27.600   7.350
 7889POPC   C1B45463  26.996  27.753   6.450
 7889POPC   C2B45464  26.998  27.804   6.750
 7889POPC   C3B45465  26.991  27.771   7.050
 7889POPC   C4B45466  26.909  27.821   7.350
 7890POPC   NC345467   0.475   0.452   5.550
 7890POPC   PO445468   0.477   0.481   5.850
 7890POPC   GL145469   0.478   0.474   6.150
 7890POPC   GL245470   0.527   0.383   6.150
 7890POPC   C1A45471   0.476   0.463   6.450
 7890POPC   D2A45472   0.421   0.434   6.750
 7890POPC   C3A45473   0.440   0.402   7.050
 7890POPC   C4A45474   0.462   0.456   7.350
 7890POPC   C1B45475   0.551   0.210   6.450
 7890POPC   C2B45476   0.636   0.283   6.750
 7890POPC   C3B45477   0.613   0.195   7.050
 7890POPC   C4B45478   0.609   0.213   7.350
 7891POPC   NC345479   6.642  43.868   5.550
 7891POPC   PO445480   6.601  43.863   5.850
 7891POPC   GL145481   6.669  43.852   6.150
 7891POPC   GL245482   6.775  43.857   6.150
 7891POPC   C1A45483   6.664  43.874   6.450
 7891POPC   D2A45484   6.643  43.839   6.750
 7891POPC   C3A45485   6.693  43.888   7.050
 7891POPC   C4A45486   6.678  43.913   7.350
 7891POPC   C1B45487   6.846  43.807   6.450
 7891POPC   C2B45488   6.874  43.805   6.750
 7891POPC   C3B45489   6.845  43.797   7.050
 7891POPC   C4B45490   6.872  43.851   7.350
 7892POPC   NC345491   9.768  12.063   5.550
 7892POPC   PO445492   9.767  12.084   5.850
 7892POPC   GL145493   9.726  12.123   6.150
 7892POPC   GL245494   9.803  11.924   6.150
 7892POPC   C1A45495   9.742  12.088   6.450
 7892POPC   D2A45496   9.794  12.041   6.750
 7892POPC   C3A45497   9.746  12.111   7.050
 7892POPC   C4A45498   9.744  12.098   7.350
 7892POPC   C1B45499   9.805  11.822   6.450
 7892POPC   C2B45500   9.834  11.836   6.750
 7892POPC   C3B45501   9.799  11.845   7.050
 7892POPC   C4B45502   9.807  11.785   7.350
 7893POPC   NC345503  36.898  16.776   5.550
 7893POPC   PO445504  36.869  16.752   5.850
 7893POPC   GL145505  36.932  16.700   6.150
 7893POPC   GL245506  36.879  16.635   6.150
 7893POPC   C1A45507  36.921  16.727   6.450
 7893POPC   D2A45508  36.940  16.736   6.750
 7893POPC   C3A45509  36.942  16.703   7.050
 7893POPC   C4A45510  36.880  16.706   7.350
 7893POPC   C1B45511  36.853  16.471   6.450
 7893POPC   C2B45512  36.909  16.517   6.750
 7893POPC   C3B45513  36.929  16.523   7.050
 7893POPC   C4B45514  36.901  16.467   7.350
 7894POPC   NC345515  36.904  28.332   5.550
 7894POPC   PO445516  36.910  28.339   5.850
 7894POPC   GL145517  36.879  28.340   6.150
 7894POPC   GL245518  36.938  28.479   6.150
 7894POPC   C1A45519  36.857  28.323   6.450
 7894POPC   D2A45520  36.921  28.367   6.750
 7894POPC   C3A45521  36.869  28.407   7.050
 7894POPC   C4A45522  36.939  28.327   7.350
 7894POPC   C1B45523  37.003  28.609   6.450
 7894POPC   C2B45524  36.986  28.620   6.750
 7894POPC   C3B45525  36.978  28.595   7.050
 7894POPC   C4B45526  36.974  28.624   7.350
 7895POPC   NC345527   3.527  19.839   5.550
 7895POPC   PO445528   3.541  19.807   5.850
 7895POPC   GL145529   3.505  19.871   6.150
 7895POPC   GL245530   3.665  19.803   6.150
 7895POPC   C1A45531   3.572  19.864   6.450
 7895POPC   D2A45532   3.558  19.867   6.750
 7895POPC   C3A45533   3.561  19.832   7.050
 7895POPC   C4A45534   3.565  19.820   7.350
 7895POPC   C1B45535   3.830  19.779   6.450
 7895POPC   C2B45536   3.776  19.766   6.750
 7895POPC   C3B45537   3.777  19.776   7.050
 7895POPC   C4B45538   3.733  19.801   7.350
 7896POPC   NC345539  26.768   8.171   5.550
 7896POPC   PO445540  26.856   8.243   5.850
 7896POPC   GL145541  26.773   8.151   6.150
 7896POPC   GL245542  26.731   8.073   6.150
 7896POPC   C1A45543  26.795   8.234   6.450
 7896POPC   D2A45544  26.773   8.195   6.750
 7896POPC   C3A45545  26.775   8.147   7.050
 7896POPC   C4A45546  26.805   8.174   7.350
 7896POPC   C1B45547  26.732   7.956   6.450
 7896POPC   C2B45548  26.716   7.941   6.750
 7896POPC   C3B45549  26.669   7.976   7.050
 7896POPC   C4B45550  26.740   8.003   7.350
 7897POPC   NC345551  35.353  32.996   5.550
 7897POPC   PO445552  35.349  33.050   5.850
 7897POPC   GL145553  35.321  32.980   6.150
 7897POPC   GL245554  35.339  33.183   6.150
 7897POPC   C1A45555  35.327  33.037   6.450
 7897POPC   D2A45556  35.346  33.016   6.750
 7897POPC   C3A45557  35.372  33.031   7.050
 7897POPC   C4A45558  35.345  33.046   7.350
 7897POPC   C1B45559  35.349  33.275   6.450
 7897POPC   C2B45560  35.338  33.272   6.750
 7897POPC   C3B45561  35.289  33.290   7.050
 7897POPC   C4B45562  35.357  33.275   7.350
 7898POPC   NC345563  36.105  22.954   5.550
 7898POPC   PO445564  36.149  22.970   5.850
 7898POPC   GL145565  36.078  22.982   6.150
 7898POPC   GL245566  36.267  22.885   6.150
 7898POPC   C1A45567  36.086  22.986   6.450
 7898POPC   D2A45568  36.145  22.918   6.750
 7898POPC   C3A45569  36.108  22.891   7.050
 7898POPC   C4A45570  36.096  22.907   7.350
 7898POPC   C1B45571  36.308  22.874   6.450
 7898POPC   C2B45572  36.319  22.811   6.750
 7898POPC   C3B45573  36.380  22.853   7.050
 7898POPC   C4B45574  36.373  22.788   7.350
 7899POPC   NC345575   7.386  44.681   5.550
 7899POPC   PO445576   7.389  44.670   5.850
 7899POPC   GL145577   7.378  44.625   6.150
 7899POPC   GL245578   7.542  44.792   6.150
 7899POPC   C1A45579   7.460  44.614   6.450
 7899POPC   D2A45580   7.377  44.616   6.750
 7899POPC   C3A45581   7.408  44.690   7.050
 7899POPC   C4A45582   7.374  44.677   7.350
 7899POPC   C1B45583   7.597  44.873   6.450
 7899POPC   C2B45584   7.606  44.856   6.750
 7899POPC   C3B45585   7.597  44.884   7.050
 7899POPC   C4B45586   7.610  44.823   7.350
 7900POPC   NC345587  19.822  10.532   5.550
 7900POPC   PO445588  19.821  10.568   5.850
 7900POPC   GL145589  19.806  10.544   6.150
 7900POPC   GL245590  19.734  10.429   6.150
 7900POPC   C1A45591  19.856  10.548   6.450
 7900POPC   D2A45592  19.839  10.523   6.750
 7900POPC   C3A45593  19.787  10.504   7.050
 7900POPC   C4A45594  19.872  10.493   7.350
 7900POPC   C1B45595  19.639  10.418   6.450
 7900POPC   C2B45596  19.562  10.465   6.750
 7900POPC   C3B45597  19.586  10.438   7.050
 7900POPC   C4B45598  19.573  10.462   7.350
 7901POPC   NC345599  42.363  33.813   5.550
 7901POPC   PO445600  42.373  33.773   5.850
 7901POPC   GL145601  42.350  33.845   6.150
 7901POPC   GL245602  42.488  33.743   6.150
 7901POPC   C1A45603  42.287  33.819   6.450
 7901POPC   D2A45604  42.355  33.836   6.750
 7901POPC   C3A45605  42.331  33.781   7.050
 7901POPC   C4A45606  42.289  33.759   7.350
 7901POPC   C1B45607  42.628  33.730   6.450
 7901POPC   C2B45608  42.561  33.796   6.750
 7901POPC   C3B45609  42.587  33.708   7.050
 7901POPC   C4B45610  42.567  33.742   7.350
 7902POPC   NC345611  26.083  40.820   5.550
 7902POPC   PO445612  26.034  40.784   5.850
 7902POPC   GL145613  26.067  40.775   6.150
 7902POPC   GL245614  26.082  40.664   6.150
 7902POPC   C1A45615  25.999  40.748   6.450
 7902POPC   D2A45616  26.040  40.772   6.750
 7902POPC   C3A45617  26.086  40.783   7.050
 7902POPC   C4A45618  26.019  40.749   7.350
 7902POPC   C1B45619  26.091  40.501   6.450
 7902POPC   C2B45620  26.074  40.561   6.750
 7902POPC   C3B45621  26.125  40.502   7.050
 7902POPC   C4B45622  26.068  40.569   7.350
 7903POPC   NC345623  24.441  38.410   5.550
 7903POPC   PO445624  24.490  38.439   5.850
 7903POPC   GL145625  24.491  38.491   6.150
 7903POPC   GL245626  24.564  38.501   6.150
 7903POPC   C1A45627  24.514  38.430   6.450
 7903POPC   D2A45628  24.445  38.448   6.750
 7903POPC   C3A45629  24.464  38.451   7.050
 7903POPC   C4A45630  24.458  38.417   7.350
 7903POPC   C1B45631  24.731  38.585   6.450
 7903POPC   C2B45632  24.679  38.659   6.750
 7903POPC   C3B45633  24.660  38.602   7.050
 7903POPC   C4B45634  24.718  38.585   7.350
 7904POPC   NC345635  29.160  22.893   5.550
 7904POPC   PO445636  29.163  22.944   5.850
 7904POPC   GL145637  29.158  22.973   6.150
 7904POPC   GL245638  29.222  22.840   6.150
 7904POPC   C1A45639  29.186  22.963   6.450
 7904POPC   D2A45640  29.154  22.975   6.750
 7904POPC   C3A45641  29.181  22.982   7.050
 7904POPC   C4A45642  29.125  22.892   7.350
 7904POPC   C1B45643  29.207  22.704   6.450
 7904POPC   C2B45644  29.257  22.750   6.750
 7904POPC   C3B45645  29.238  22.703   7.050
 7904POPC   C4B45646  29.269  22.745   7.350
 7905POPC   NC345647  24.479  23.674   5.550
 7905POPC   PO445648  24.504  23.701   5.850
 7905POPC   GL145649  24.503  23.668   6.150
 7905POPC   GL245650  24.475  23.863   6.150
 7905POPC   C1A45651  24.460  23.694   6.450
 7905POPC   D2A45652  24.466  23.681   6.750
 7905POPC   C3A45653  24.481  23.672   7.050
 7905POPC   C4A45654  24.444  23.706   7.350
 7905POPC   C1B45655  24.478  23.989   6.450
 7905POPC   C2B45656  24.487  23.968   6.750
 7905POPC   C3B45657  24.473  24.006   7.050
 7905POPC   C4B45658  24.421  23.933   7.350
 7906POPC   NC345659  18.273   3.562   5.550
 7906POPC   PO445660  18.303   3.534   5.850
 7906POPC   GL145661  18.283   3.581   6.150
 7906POPC   GL245662  18.140   3.567   6.150
 7906POPC   C1A45663  18.270   3.504   6.450
 7906POPC   D2A45664  18.271   3.578   6.750
 7906POPC   C3A45665  18.285   3.566   7.050
 7906POPC   C4A45666  18.315   3.553   7.350
 7906POPC   C1B45667  18.058   3.594   6.450
 7906POPC   C2B45668  18.016   3.552   6.750
 7906POPC   C3B45669  18.056   3.573   7.050
 7906POPC   C4B45670  18.001   3.595   7.350
 7907POPC   NC345671   7.465  42.331   5.550
 7907POPC   PO445672   7.457  42.292   5.850
 7907POPC   GL145673   7.430  42.364   6.150
 7907POPC   GL245674   7.331  42.212   6.150
 7907POPC   C1A45675   7.430  42.312   6.450
 7907POPC   D2A45676   7.393  42.296   6.750
 7907POPC   C3A45677   7.374  42.349   7.050
 7907POPC   C4A45678   7.452  42.358   7.350
 7907POPC   C1B45679   7.298  42.197   6.450
 7907POPC   C2B45680   7.200  42.103   6.750
 7907POPC   C3B45681   7.280  42.199   7.050
 7907POPC   C4B45682   7.205  42.111   7.350
 7908POPC   NC345683   7.449   0.393   5.550
 7908POPC   PO445684   7.431   0.477   5.850
 7908POPC   GL145685   7.440   0.427   6.150
 7908POPC   GL245686   7.396   0.605   6.150
 7908POPC   C1A45687   7.439   0.410   6.450
 7908POPC   D2A45688   7.452   0.397   6.750
 7908POPC   C3A45689   7.425   0.409   7.050
 7908POPC   C4A45690   7.402   0.412   7.350
 7908POPC   C1B45691   7.440   0.715   6.450
 7908POPC   C2B45692   7.466   0.683   6.750
 7908POPC   C3B45693   7.456   0.699   7.050
 7908POPC   C4B45694   7.439   0.665   7.350
 7909POPC   NC345695  33.005  26.854   5.550
 7909POPC   PO445696  33.061  26.826   5.850
 7909POPC   GL145697  33.025  26.860   6.150
 7909POPC   GL245698  33.181  26.867   6.150
 7909POPC   C1A45699  33.066  26.799   6.450
 7909POPC   D2A45700  32.974  26.849   6.750
 7909POPC   C3A45701  33.038  26.863   7.050
 7909POPC   C4A45702  33.059  26.860   7.350
 7909POPC   C1B45703  33.237  26.839   6.450
 7909POPC   C2B45704  33.223  26.886   6.750
 7909POPC   C3B45705  33.216  26.844   7.050
 7909POPC   C4B45706  33.288  26.912   7.350
 7910POPC   NC345707  26.794   6.622   5.550
 7910POPC   PO445708  26.789   6.682   5.850
 7910POPC   GL145709  26.809   6.656   6.150
 7910POPC   GL245710  26.922   6.577   6.150
 7910POPC   C1A45711  26.808   6.678   6.450
 7910POPC   D2A45712  26.829   6.616   6.750
 7910POPC   C3A45713  26.839   6.634   7.050
 7910POPC   C4A45714  26.808   6.668   7.350
 7910POPC   C1B45715  27.058   6.484   6.450
 7910POPC   C2B45716  27.002   6.540   6.750
 7910POPC   C3B45717  27.007   6.545   7.050
 7910POPC   C4B45718  27.046   6.530   7.350
 7911POPC   NC345719  19.837  30.744   5.550
 7911POPC   PO445720  19.841  30.707   5.850
 7911POPC   GL145721  19.798  30.722   6.150
 7911POPC   GL245722  19.733  30.743   6.150
 7911POPC   C1A45723  19.798  30.669   6.450
 7911POPC   D2A45724  19.860  30.681   6.750
 7911POPC   C3A45725  19.848  30.703   7.050
 7911POPC   C4A45726  19.823  30.727   7.350
 7911POPC   C1B45727  19.648  30.820   6.450
 7911POPC   C2B45728  19.570  30.833   6.750
 7911POPC   C3B45729  19.652  30.863   7.050
 7911POPC   C4B45730  19.576  30.787   7.350
 7912POPC   NC345731  30.666  33.030   5.550
 7912POPC   PO445732  30.704  33.067   5.850
 7912POPC   GL145733  30.720  33.055   6.150
 7912POPC   GL245734  30.564  32.968   6.150
 7912POPC   C1A45735  30.741  33.051   6.450
 7912POPC   D2A45736  30.677  32.987   6.750
 7912POPC   C3A45737  30.696  33.042   7.050
 7912POPC   C4A45738  30.675  33.010   7.350
 7912POPC   C1B45739  30.522  32.842   6.450
 7912POPC   C2B45740  30.492  32.873   6.750
 7912POPC   C3B45741  30.503  32.827   7.050
 7912POPC   C4B45742  30.543  32.871   7.350
 7913POPC   NC345743  25.222  40.754   5.550
 7913POPC   PO445744  25.289  40.766   5.850
 7913POPC   GL145745  25.268  40.771   6.150
 7913POPC   GL245746  25.219  40.889   6.150
 7913POPC   C1A45747  25.240  40.817   6.450
 7913POPC   D2A45748  25.245  40.822   6.750
 7913POPC   C3A45749  25.313  40.773   7.050
 7913POPC   C4A45750  25.268  40.748   7.350
 7913POPC   C1B45751  25.113  40.996   6.450
 7913POPC   C2B45752  25.151  41.040   6.750
 7913POPC   C3B45753  25.121  41.014   7.050
 7913POPC   C4B45754  25.193  40.997   7.350
 7914POPC   NC345755  19.862  43.081   5.550
 7914POPC   PO445756  19.813  43.120   5.850
 7914POPC   GL145757  19.850  43.116   6.150
 7914POPC   GL245758  19.759  43.160   6.150
 7914POPC   C1A45759  19.852  43.113   6.450
 7914POPC   D2A45760  19.851  43.102   6.750
 7914POPC   C3A45761  19.854  43.157   7.050
 7914POPC   C4A45762  19.844  43.126   7.350
 7914POPC   C1B45763  19.544  43.192   6.450
 7914POPC   C2B45764  19.612  43.095   6.750
 7914POPC   C3B45765  19.557  43.171   7.050
 7914POPC   C4B45766  19.565  43.131   7.350
 7915POPC   NC345767  39.996  27.581   5.550
 7915POPC   PO445768  40.054  27.621   5.850
 7915POPC   GL145769  39.958  27.575   6.150
 7915POPC   GL245770  39.901  27.576   6.150
 7915POPC   C1A45771  40.001  27.554   6.450
 7915POPC   D2A45772  40.024  27.576   6.750
 7915POPC   C3A45773  40.000  27.602   7.050
 7915POPC   C4A45774  40.010  27.620   7.350
 7915POPC   C1B45775  39.738  27.571   6.450
 7915POPC   C2B45776  39.801  27.580   6.750
 7915POPC   C3B45777  39.717  27.634   7.050
 7915POPC   C4B45778  39.772  27.575   7.350
 7916POPC   NC345779  22.957  34.609   5.550
 7916POPC   PO445780  22.903  34.608   5.850
 7916POPC   GL145781  22.987  34.624   6.150
 7916POPC   GL245782  23.038  34.637   6.150
 7916POPC   C1A45783  22.903  34.542   6.450
 7916POPC   D2A45784  22.895  34.573   6.750
 7916POPC   C3A45785  22.906  34.567   7.050
 7916POPC   C4A45786  22.947  34.569   7.350
 7916POPC   C1B45787  23.112  34.738   6.450
 7916POPC   C2B45788  23.129  34.731   6.750
 7916POPC   C3B45789  23.149  34.774   7.050
 7916POPC   C4B45790  23.083  34.720   7.350
 7917POPC   NC345791   5.110   9.775   5.550
 7917POPC   PO445792   5.068   9.728   5.850
 7917POPC   GL145793   5.124   9.757   6.150
 7917POPC   GL245794   4.956   9.677   6.150
 7917POPC   C1A45795   5.092   9.764   6.450
 7917POPC   D2A45796   5.075   9.727   6.750
 7917POPC   C3A45797   5.100   9.775   7.050
 7917POPC   C4A45798   5.092   9.796   7.350
 7917POPC   C1B45799   4.853   9.698   6.450
 7917POPC   C2B45800   4.898   9.652   6.750
 7917POPC   C3B45801   4.847   9.678   7.050
 7917POPC   C4B45802   4.833   9.702   7.350
 7918POPC   NC345803  42.376  18.243   5.550
 7918POPC   PO445804  42.330  18.298   5.850
 7918POPC   GL145805  42.289  18.271   6.150
 7918POPC   GL245806  42.217  18.238   6.150
 7918POPC   C1A45807  42.328  18.241   6.450
 7918POPC   D2A45808  42.334  18.251   6.750
 7918POPC   C3A45809  42.327  18.276   7.050
 7918POPC   C4A45810  42.321  18.261   7.350
 7918POPC   C1B45811  42.095  18.095   6.450
 7918POPC   C2B45812  42.165  18.153   6.750
 7918POPC   C3B45813  42.113  18.159   7.050
 7918POPC   C4B45814  42.180  18.119   7.350
 7919POPC   NC345815  44.701  11.346   5.550
 7919POPC   PO445816  44.648  11.273   5.850
 7919POPC   GL145817  44.639  11.320   6.150
 7919POPC   GL245818  44.625  11.464   6.150
 7919POPC   C1A45819  44.703  11.321   6.450
 7919POPC   D2A45820  44.662  11.306   6.750
 7919POPC   C3A45821  44.693  11.306   7.050
 7919POPC   C4A45822  44.656  11.256   7.350
 7919POPC   C1B45823  44.590  11.518   6.450
 7919POPC   C2B45824  44.608  11.517   6.750
 7919POPC   C3B45825  44.607  11.572   7.050
 7919POPC   C4B45826  44.556  11.538   7.350
 7920POPC   NC345827  43.849   8.943   5.550
 7920POPC   PO445828  43.900   8.939   5.850
 7920POPC   GL145829  43.904   8.975   6.150
 7920POPC   GL245830  43.781   9.015   6.150
 7920POPC   C1A45831  43.913   8.979   6.450
 7920POPC   D2A45832  43.898   9.017   6.750
 7920POPC   C3A45833  43.919   8.988   7.050
 7920POPC   C4A45834  43.893   8.973   7.350
 7920POPC   C1B45835  43.637   8.940   6.450
 7920POPC   C2B45836  43.603   8.948   6.750
 7920POPC   C3B45837  43.680   9.033   7.050
 7920POPC   C4B45838  43.666   8.941   7.350
 7921POPC   NC345839  17.494  40.798   5.550
 7921POPC   PO445840  17.488  40.761   5.850
 7921POPC   GL145841  17.523  40.772   6.150
 7921POPC   GL245842  17.594  40.757   6.150
 7921POPC   C1A45843  17.549  40.806   6.450
 7921POPC   D2A45844  17.503  40.784   6.750
 7921POPC   C3A45845  17.511  40.783   7.050
 7921POPC   C4A45846  17.509  40.820   7.350
 7921POPC   C1B45847  17.787  40.863   6.450
 7921POPC   C2B45848  17.798  40.806   6.750
 7921POPC   C3B45849  17.772  40.834   7.050
 7921POPC   C4B45850  17.780  40.857   7.350
 7922POPC   NC345851  39.235  44.677   5.550
 7922POPC   PO445852  39.268  44.625   5.850
 7922POPC   GL145853  39.277  44.629   6.150
 7922POPC   GL245854  39.326  44.808   6.150
 7922POPC   C1A45855  39.215  44.674   6.450
 7922POPC   D2A45856  39.182  44.701   6.750
 7922POPC   C3A45857  39.209  44.638   7.050
 7922POPC   C4A45858  39.242  44.652   7.350
 7922POPC   C1B45859  39.361  44.870   6.450
 7922POPC   C2B45860  39.320  44.911   6.750
 7922POPC   C3B45861  39.391  44.895   7.050
 7922POPC   C4B45862  39.323  44.876   7.350
 7923POPC   NC345863  38.487  25.246   5.550
 7923POPC   PO445864  38.420  25.229   5.850
 7923POPC   GL145865  38.416  25.229   6.150
 7923POPC   GL245866  38.441  25.161   6.150
 7923POPC   C1A45867  38.452  25.266   6.450
 7923POPC   D2A45868  38.419  25.297   6.750
 7923POPC   C3A45869  38.472  25.245   7.050
 7923POPC   C4A45870  38.435  25.241   7.350
 7923POPC   C1B45871  38.468  25.041   6.450
 7923POPC   C2B45872  38.452  25.031   6.750
 7923POPC   C3B45873  38.491  24.982   7.050
 7923POPC   C4B45874  38.467  25.040   7.350
 7924POPC   NC345875  13.643  37.700   5.550
 7924POPC   PO445876  13.595  37.698   5.850
 7924POPC   GL145877  13.664  37.677   6.150
 7924POPC   GL245878  13.647  37.599   6.150
 7924POPC   C1A45879  13.594  37.717   6.450
 7924POPC   D2A45880  13.661  37.678   6.750
 7924POPC   C3A45881  13.661  37.640   7.050
 7924POPC   C4A45882  13.600  37.694   7.350
 7924POPC   C1B45883  13.570  37.474   6.450
 7924POPC   C2B45884  13.604  37.386   6.750
 7924POPC   C3B45885  13.580  37.393   7.050
 7924POPC   C4B45886  13.605  37.402   7.350
 7925POPC   NC345887   0.392  27.577   5.550
 7925POPC   PO445888   0.400  27.570   5.850
 7925POPC   GL145889   0.458  27.586   6.150
 7925POPC   GL245890   0.511  27.724   6.150
 7925POPC   C1A45891   0.418  27.562   6.450
 7925POPC   D2A45892   0.438  27.595   6.750
 7925POPC   C3A45893   0.463  27.549   7.050
 7925POPC   C4A45894   0.421  27.594   7.350
 7925POPC   C1B45895   0.579  27.776   6.450
 7925POPC   C2B45896   0.577  27.774   6.750
 7925POPC   C3B45897   0.568  27.842   7.050
 7925POPC   C4B45898   0.557  27.846   7.350
 7926POPC   NC345899  36.132  43.871   5.550
 7926POPC   PO445900  36.159  43.902   5.850
 7926POPC   GL145901  36.098  43.853   6.150
 7926POPC   GL245902  36.071  44.035   6.150
 7926POPC   C1A45903  36.144  43.889   6.450
 7926POPC   D2A45904  36.143  43.841   6.750
 7926POPC   C3A45905  36.111  43.917   7.050
 7926POPC   C4A45906  36.160  43.847   7.350
 7926POPC   C1B45907  36.074  44.159   6.450
 7926POPC   C2B45908  36.090  44.147   6.750
 7926POPC   C3B45909  36.026  44.143   7.050
 7926POPC   C4B45910  36.057  44.129   7.350
 7927POPC   NC345911  20.651   4.359   5.550
 7927POPC   PO445912  20.632   4.327   5.850
 7927POPC   GL145913  20.611   4.310   6.150
 7927POPC   GL245914  20.767   4.294   6.150
 7927POPC   C1A45915  20.623   4.298   6.450
 7927POPC   D2A45916  20.587   4.301   6.750
 7927POPC   C3A45917  20.600   4.332   7.050
 7927POPC   C4A45918  20.617   4.274   7.350
 7927POPC   C1B45919  20.837   4.276   6.450
 7927POPC   C2B45920  20.908   4.234   6.750
 7927POPC   C3B45921  20.873   4.303   7.050
 7927POPC   C4B45922  20.865   4.257   7.350
 7928POPC   NC345923  19.789  17.505   5.550
 7928POPC   PO445924  19.806  17.488   5.850
 7928POPC   GL145925  19.787  17.544   6.150
 7928POPC   GL245926  19.948  17.591   6.150
 7928POPC   C1A45927  19.878  17.555   6.450
 7928POPC   D2A45928  19.835  17.492   6.750
 7928POPC   C3A45929  19.789  17.496   7.050
 7928POPC   C4A45930  19.826  17.509   7.350
 7928POPC   C1B45931  20.017  17.714   6.450
 7928POPC   C2B45932  19.968  17.675   6.750
 7928POPC   C3B45933  19.987  17.735   7.050
 7928POPC   C4B45934  19.962  17.692   7.350
 7929POPC   NC345935  30.732  24.474   5.550
 7929POPC   PO445936  30.649  24.525   5.850
 7929POPC   GL145937  30.722  24.444   6.150
 7929POPC   GL245938  30.554  24.483   6.150
 7929POPC   C1A45939  30.652  24.503   6.450
 7929POPC   D2A45940  30.716  24.519   6.750
 7929POPC   C3A45941  30.717  24.494   7.050
 7929POPC   C4A45942  30.657  24.527   7.350
 7929POPC   C1B45943  30.419  24.493   6.450
 7929POPC   C2B45944  30.489  24.476   6.750
 7929POPC   C3B45945  30.437  24.437   7.050
 7929POPC   C4B45946  30.473  24.433   7.350
 7930POPC   NC345947   4.323  16.721   5.550
 7930POPC   PO445948   4.353  16.736   5.850
 7930POPC   GL145949   4.298  16.743   6.150
 7930POPC   GL245950   4.453  16.747   6.150
 7930POPC   C1A45951   4.287  16.751   6.450
 7930POPC   D2A45952   4.351  16.727   6.750
 7930POPC   C3A45953   4.329  16.753   7.050
 7930POPC   C4A45954   4.308  16.719   7.350
 7930POPC   C1B45955   4.533  16.767   6.450
 7930POPC   C2B45956   4.531  16.755   6.750
 7930POPC   C3B45957   4.544  16.733   7.050
 7930POPC   C4B45958   4.577  16.725   7.350
 7931POPC   NC345959   2.007  20.603   5.550
 7931POPC   PO445960   2.019  20.614   5.850
 7931POPC   GL145961   2.007  20.616   6.150
 7931POPC   GL245962   1.968  20.747   6.150
 7931POPC   C1A45963   2.013  20.624   6.450
 7931POPC   D2A45964   1.940  20.578   6.750
 7931POPC   C3A45965   2.012  20.603   7.050
 7931POPC   C4A45966   2.010  20.659   7.350
 7931POPC   C1B45967   1.873  20.827   6.450
 7931POPC   C2B45968   1.876  20.811   6.750
 7931POPC   C3B45969   1.924  20.793   7.050
 7931POPC   C4B45970   1.894  20.881   7.350
 7932POPC   NC345971   3.589  32.288   5.550
 7932POPC   PO445972   3.523  32.210   5.850
 7932POPC   GL145973   3.589  32.217   6.150
 7932POPC   GL245974   3.569  32.112   6.150
 7932POPC   C1A45975   3.560  32.213   6.450
 7932POPC   D2A45976   3.515  32.272   6.750
 7932POPC   C3A45977   3.548  32.256   7.050
 7932POPC   C4A45978   3.535  32.256   7.350
 7932POPC   C1B45979   3.473  31.987   6.450
 7932POPC   C2B45980   3.538  32.047   6.750
 7932POPC   C3B45981   3.560  32.044   7.050
 7932POPC   C4B45982   3.545  32.016   7.350
 7933POPC   NC345983  40.028  18.252   5.550
 7933POPC   PO445984  39.960  18.264   5.850
 7933POPC   GL145985  40.014  18.264   6.150
 7933POPC   GL245986  39.977  18.364   6.150
 7933POPC   C1A45987  39.990  18.257   6.450
 7933POPC   D2A45988  39.964  18.294   6.750
 7933POPC   C3A45989  40.015  18.258   7.050
 7933POPC   C4A45990  40.057  18.277   7.350
 7933POPC   C1B45991  39.899  18.528   6.450
 7933POPC   C2B45992  39.855  18.545   6.750
 7933POPC   C3B45993  39.899  18.546   7.050
 7933POPC   C4B45994  39.898  18.512   7.350
 7934POPC   NC345995  36.940  29.879   5.550
 7934POPC   PO445996  36.867  29.896   5.850
 7934POPC   GL145997  36.934  29.915   6.150
 7934POPC   GL245998  36.959  30.072   6.150
 7934POPC   C1A45999  36.856  29.955   6.450
 7934POPC   D2A46000  36.938  29.965   6.750
 7934POPC   C3A46001  36.922  29.909   7.050
 7934POPC   C4A46002  36.886  29.945   7.350
 7934POPC   C1B46003  37.040  30.142   6.450
 7934POPC   C2B46004  37.024  30.139   6.750
 7934POPC   C3B46005  36.966  30.190   7.050
 7934POPC   C4B46006  36.988  30.192   7.350
 7935POPC   NC346007  29.185  32.200   5.550
 7935POPC   PO446008  29.157  32.262   5.850
 7935POPC   GL146009  29.103  32.240   6.150
 7935POPC   GL246010  29.105  32.380   6.150
 7935POPC   C1A46011  29.182  32.210   6.450
 7935POPC   D2A46012  29.194  32.213   6.750
 7935POPC   C3A46013  29.148  32.201   7.050
 7935POPC   C4A46014  29.113  32.275   7.350
 7935POPC   C1B46015  28.965  32.397   6.450
 7935POPC   C2B46016  29.022  32.431   6.750
 7935POPC   C3B46017  28.959  32.393   7.050
 7935POPC   C4B46018  28.938  32.426   7.350
 7936POPC   NC346019  37.718  34.605   5.550
 7936POPC   PO446020  37.646  34.571   5.850
 7936POPC   GL146021  37.648  34.592   6.150
 7936POPC   GL246022  37.767  34.446   6.150
 7936POPC   C1A46023  37.716  34.610   6.450
 7936POPC   D2A46024  37.681  34.569   6.750
 7936POPC   C3A46025  37.701  34.534   7.050
 7936POPC   C4A46026  37.662  34.591   7.350
 7936POPC   C1B46027  37.910  34.397   6.450
 7936POPC   C2B46028  37.904  34.399   6.750
 7936POPC   C3B46029  37.874  34.455   7.050
 7936POPC   C4B46030  37.841  34.447   7.350
 7937POPC   NC346031  37.685  18.253   5.550
 7937POPC   PO446032  37.646  18.237   5.850
 7937POPC   GL146033  37.662  18.248   6.150
 7937POPC   GL246034  37.726  18.415   6.150
 7937POPC   C1A46035  37.729  18.297   6.450
 7937POPC   D2A46036  37.709  18.300   6.750
 7937POPC   C3A46037  37.671  18.243   7.050
 7937POPC   C4A46038  37.680  18.304   7.350
 7937POPC   C1B46039  37.792  18.500   6.450
 7937POPC   C2B46040  37.751  18.534   6.750
 7937POPC   C3B46041  37.802  18.556   7.050
 7937POPC   C4B46042  37.814  18.561   7.350
 7938POPC   NC346043   5.863   2.762   5.550
 7938POPC   PO446044   5.907   2.782   5.850
 7938POPC   GL146045   5.884   2.754   6.150
 7938POPC   GL246046   5.713   2.776   6.150
 7938POPC   C1A46047   5.891   2.761   6.450
 7938POPC   D2A46048   5.838   2.740   6.750
 7938POPC   C3A46049   5.838   2.721   7.050
 7938POPC   C4A46050   5.871   2.807   7.350
 7938POPC   C1B46051   5.637   2.843   6.450
 7938POPC   C2B46052   5.580   2.872   6.750
 7938POPC   C3B46053   5.644   2.848   7.050
 7938POPC   C4B46054   5.649   2.875   7.350
 7939POPC   NC346055  43.925  15.963   5.550
 7939POPC   PO446056  43.848  15.938   5.850
 7939POPC   GL146057  43.879  15.940   6.150
 7939POPC   GL246058  44.031  15.837   6.150
 7939POPC   C1A46059  43.923  15.908   6.450
 7939POPC   D2A46060  43.933  15.955   6.750
 7939POPC   C3A46061  43.898  15.929   7.050
 7939POPC   C4A46062  43.924  15.989   7.350
 7939POPC   C1B46063  44.094  15.806   6.450
 7939POPC   C2B46064  44.124  15.780   6.750
 7939POPC   C3B46065  44.125  15.801   7.050
 7939POPC   C4B46066  44.131  15.827   7.350
 7940POPC   NC346067  15.910  11.345   5.550
 7940POPC   PO446068  15.980  11.310   5.850
 7940POPC   GL146069  15.926  11.341   6.150
 7940POPC   GL246070  15.983  11.153   6.150
 7940POPC   C1A46071  15.921  11.345   6.450
 7940POPC   D2A46072  15.914  11.262   6.750
 7940POPC   C3A46073  15.947  11.317   7.050
 7940POPC   C4A46074  15.973  11.335   7.350
 7940POPC   C1B46075  16.130  11.133   6.450
 7940POPC   C2B46076  16.047  11.079   6.750
 7940POPC   C3B46077  16.136  11.134   7.050
 7940POPC   C4B46078  16.127  11.101   7.350
 7941POPC   NC346079  36.869  18.269   5.550
 7941POPC   PO446080  36.903  18.295   5.850
 7941POPC   GL146081  36.879  18.243   6.150
 7941POPC   GL246082  37.034  18.205   6.150
 7941POPC   C1A46083  36.944  18.251   6.450
 7941POPC   D2A46084  36.895  18.311   6.750
 7941POPC   C3A46085  36.875  18.311   7.050
 7941POPC   C4A46086  36.902  18.278   7.350
 7941POPC   C1B46087  37.157  18.172   6.450
 7941POPC   C2B46088  37.084  18.154   6.750
 7941POPC   C3B46089  37.109  18.110   7.050
 7941POPC   C4B46090  37.145  18.098   7.350
 7942POPC   NC346091  36.902  26.782   5.550
 7942POPC   PO446092  36.923  26.827   5.850
 7942POPC   GL146093  36.932  26.791   6.150
 7942POPC   GL246094  36.851  26.677   6.150
 7942POPC   C1A46095  36.871  26.811   6.450
 7942POPC   D2A46096  36.886  26.850   6.750
 7942POPC   C3A46097  36.884  26.771   7.050
 7942POPC   C4A46098  36.893  26.845   7.350
 7942POPC   C1B46099  36.833  26.542   6.450
 7942POPC   C2B46100  36.905  26.556   6.750
 7942POPC   C3B46101  36.860  26.547   7.050
 7942POPC   C4B46102  36.910  26.568   7.350
 7943POPC   NC346103  40.765  20.656   5.550
 7943POPC   PO446104  40.753  20.566   5.850
 7943POPC   GL146105  40.780  20.604   6.150
 7943POPC   GL246106  40.716  20.495   6.150
 7943POPC   C1A46107  40.784  20.660   6.450
 7943POPC   D2A46108  40.772  20.648   6.750
 7943POPC   C3A46109  40.822  20.608   7.050
 7943POPC   C4A46110  40.792  20.582   7.350
 7943POPC   C1B46111  40.673  20.410   6.450
 7943POPC   C2B46112  40.762  20.347   6.750
 7943POPC   C3B46113  40.728  20.354   7.050
 7943POPC   C4B46114  40.759  20.374   7.350
 7944POPC   NC346115  23.730  20.563   5.550
 7944POPC   PO446116  23.693  20.647   5.850
 7944POPC   GL146117  23.740  20.599   6.150
 7944POPC   GL246118  23.650  20.709   6.150
 7944POPC   C1A46119  23.759  20.577   6.450
 7944POPC   D2A46120  23.758  20.643   6.750
 7944POPC   C3A46121  23.708  20.652   7.050
 7944POPC   C4A46122  23.746  20.572   7.350
 7944POPC   C1B46123  23.609  20.860   6.450
 7944POPC   C2B46124  23.619  20.872   6.750
 7944POPC   C3B46125  23.651  20.841   7.050
 7944POPC   C4B46126  23.602  20.828   7.350
 7945POPC   NC346127  33.753   5.864   5.550
 7945POPC   PO446128  33.836   5.917   5.850
 7945POPC   GL146129  33.848   5.863   6.150
 7945POPC   GL246130  33.928   5.941   6.150
 7945POPC   C1A46131  33.768   5.898   6.450
 7945POPC   D2A46132  33.760   5.892   6.750
 7945POPC   C3A46133  33.845   5.890   7.050
 7945POPC   C4A46134  33.816   5.902   7.350
 7945POPC   C1B46135  34.040   5.988   6.450
 7945POPC   C2B46136  33.999   5.945   6.750
 7945POPC   C3B46137  34.060   5.912   7.050
 7945POPC   C4B46138  34.084   5.951   7.350
 7946POPC   NC346139  43.125  28.371   5.550
 7946POPC   PO446140  43.081  28.397   5.850
 7946POPC   GL146141  43.143  28.373   6.150
 7946POPC   GL246142  43.001  28.348   6.150
 7946POPC   C1A46143  43.085  28.364   6.450
 7946POPC   D2A46144  43.133  28.380   6.750
 7946POPC   C3A46145  43.108  28.358   7.050
 7946POPC   C4A46146  43.066  28.342   7.350
 7946POPC   C1B46147  42.849  28.332   6.450
 7946POPC   C2B46148  42.815  28.398   6.750
 7946POPC   C3B46149  42.849  28.392   7.050
 7946POPC   C4B46150  42.892  28.319   7.350
 7947POPC   NC346151  28.322   1.236   5.550
 7947POPC   PO446152  28.417   1.189   5.850
 7947POPC   GL146153  28.409   1.189   6.150
 7947POPC   GL246154  28.346   1.097   6.150
 7947POPC   C1A46155  28.338   1.168   6.450
 7947POPC   D2A46156  28.383   1.255   6.750
 7947POPC   C3A46157  28.341   1.219   7.050
 7947POPC   C4A46158  28.322   1.176   7.350
 7947POPC   C1B46159  28.421   1.005   6.450
 7947POPC   C2B46160  28.464   0.934   6.750
 7947POPC   C3B46161  28.427   0.976   7.050
 7947POPC   C4B46162  28.383   0.941   7.350
 7948POPC   NC346163  31.429  27.639   5.550
 7948POPC   PO446164  31.471  27.584   5.850
 7948POPC   GL146165  31.506  27.613   6.150
 7948POPC   GL246166  31.378  27.435   6.150
 7948POPC   C1A46167  31.495  27.634   6.450
 7948POPC   D2A46168  31.498  27.608   6.750
 7948POPC   C3A46169  31.502  27.571   7.050
 7948POPC   C4A46170  31.473  27.594   7.350
 7948POPC   C1B46171  31.348  27.366   6.450
 7948POPC   C2B46172  31.384  27.385   6.750
 7948POPC   C3B46173  31.364  27.354   7.050
 7948POPC   C4B46174  31.374  27.416   7.350
 7949POPC   NC346175   5.136  10.568   5.550
 7949POPC   PO446176   5.044  10.573   5.850
 7949POPC   GL146177   5.050  10.550   6.150
 7949POPC   GL246178   5.132  10.637   6.150
 7949POPC   C1A46179   5.098  10.505   6.450
 7949POPC   D2A46180   5.089  10.514   6.750
 7949POPC   C3A46181   5.066  10.491   7.050
 7949POPC   C4A46182   5.087  10.543   7.350
 7949POPC   C1B46183   5.117  10.745   6.450
 7949POPC   C2B46184   5.044  10.740   6.750
 7949POPC   C3B46185   5.042  10.737   7.050
 7949POPC   C4B46186   5.108  10.766   7.350
 7950POPC   NC346187  43.077  39.974   5.550
 7950POPC   PO446188  43.135  40.017   5.850
 7950POPC   GL146189  43.107  40.040   6.150
 7950POPC   GL246190  43.228  40.026   6.150
 7950POPC   C1A46191  43.106  39.963   6.450
 7950POPC   D2A46192  43.093  40.035   6.750
 7950POPC   C3A46193  43.083  39.960   7.050
 7950POPC   C4A46194  43.099  39.974   7.350
 7950POPC   C1B46195  43.350  40.103   6.450
 7950POPC   C2B46196  43.328  40.160   6.750
 7950POPC   C3B46197  43.300  40.109   7.050
 7950POPC   C4B46198  43.344  40.098   7.350
 7951POPC   NC346199  43.872  14.409   5.550
 7951POPC   PO446200  43.878  14.404   5.850
 7951POPC   GL146201  43.903  14.453   6.150
 7951POPC   GL246202  44.037  14.388   6.150
 7951POPC   C1A46203  43.921  14.452   6.450
 7951POPC   D2A46204  43.892  14.436   6.750
 7951POPC   C3A46205  43.921  14.433   7.050
 7951POPC   C4A46206  43.930  14.444   7.350
 7951POPC   C1B46207  44.111  14.342   6.450
 7951POPC   C2B46208  44.124  14.374   6.750
 7951POPC   C3B46209  44.127  14.310   7.050
 7951POPC   C4B46210  44.137  14.289   7.350
 7952POPC   NC346211  24.480  19.049   5.550
 7952POPC   PO446212  24.502  19.051   5.850
 7952POPC   GL146213  24.480  19.073   6.150
 7952POPC   GL246214  24.430  19.103   6.150
 7952POPC   C1A46215  24.478  19.036   6.450
 7952POPC   D2A46216  24.447  19.089   6.750
 7952POPC   C3A46217  24.503  19.077   7.050
 7952POPC   C4A46218  24.452  19.060   7.350
 7952POPC   C1B46219  24.282  19.188   6.450
 7952POPC   C2B46220  24.244  19.186   6.750
 7952POPC   C3B46221  24.257  19.183   7.050
 7952POPC   C4B46222  24.269  19.250   7.350
 7953POPC   NC346223   1.979  35.383   5.550
 7953POPC   PO446224   1.984  35.328   5.850
 7953POPC   GL146225   1.981  35.366   6.150
 7953POPC   GL246226   2.098  35.393   6.150
 7953POPC   C1A46227   2.008  35.379   6.450
 7953POPC   D2A46228   2.031  35.400   6.750
 7953POPC   C3A46229   2.020  35.344   7.050
 7953POPC   C4A46230   2.007  35.310   7.350
 7953POPC   C1B46231   2.237  35.377   6.450
 7953POPC   C2B46232   2.287  35.300   6.750
 7953POPC   C3B46233   2.245  35.306   7.050
 7953POPC   C4B46234   2.276  35.337   7.350
 7954POPC   NC346235  39.990  26.827   5.550
 7954POPC   PO446236  40.046  26.782   5.850
 7954POPC   GL146237  39.989  26.769   6.150
 7954POPC   GL246238  39.907  26.752   6.150
 7954POPC   C1A46239  40.033  26.807   6.450
 7954POPC   D2A46240  40.017  26.810   6.750
 7954POPC   C3A46241  40.009  26.794   7.050
 7954POPC   C4A46242  40.021  26.846   7.350
 7954POPC   C1B46243  39.814  26.784   6.450
 7954POPC   C2B46244  39.725  26.774   6.750
 7954POPC   C3B46245  39.737  26.741   7.050
 7954POPC   C4B46246  39.755  26.791   7.350
 7955POPC   NC346247   2.808  37.718   5.550
 7955POPC   PO446248   2.787  37.659   5.850
 7955POPC   GL146249   2.794  37.718   6.150
 7955POPC   GL246250   2.631  37.702   6.150
 7955POPC   C1A46251   2.738  37.656   6.450
 7955POPC   D2A46252   2.805  37.712   6.750
 7955POPC   C3A46253   2.768  37.642   7.050
 7955POPC   C4A46254   2.743  37.711   7.350
 7955POPC   C1B46255   2.538  37.692   6.450
 7955POPC   C2B46256   2.483  37.725   6.750
 7955POPC   C3B46257   2.516  37.659   7.050
 7955POPC   C4B46258   2.552  37.704   7.350
 7956POPC   NC346259  32.199  28.416   5.550
 7956POPC   PO446260  32.236  28.401   5.850
 7956POPC   GL146261  32.254  28.329   6.150
 7956POPC   GL246262  32.126  28.399   6.150
 7956POPC   C1A46263  32.261  28.349   6.450
 7956POPC   D2A46264  32.207  28.387   6.750
 7956POPC   C3A46265  32.291  28.373   7.050
 7956POPC   C4A46266  32.234  28.404   7.350
 7956POPC   C1B46267  31.956  28.404   6.450
 7956POPC   C2B46268  32.020  28.425   6.750
 7956POPC   C3B46269  31.965  28.373   7.050
 7956POPC   C4B46270  31.973  28.406   7.350
 7957POPC   NC346271  23.735  32.269   5.550
 7957POPC   PO446272  23.676  32.224   5.850
 7957POPC   GL146273  23.727  32.288   6.150
 7957POPC   GL246274  23.716  32.157   6.150
 7957POPC   C1A46275  23.696  32.272   6.450
 7957POPC   D2A46276  23.694  32.217   6.750
 7957POPC   C3A46277  23.669  32.288   7.050
 7957POPC   C4A46278  23.748  32.291   7.350
 7957POPC   C1B46279  23.666  32.008   6.450
 7957POPC   C2B46280  23.697  31.957   6.750
 7957POPC   C3B46281  23.700  32.046   7.050
 7957POPC   C4B46282  23.666  31.998   7.350
 7958POPC   NC346283  10.566   8.222   5.550
 7958POPC   PO446284  10.501   8.178   5.850
 7958POPC   GL146285  10.489   8.164   6.150
 7958POPC   GL246286  10.624   8.090   6.150
 7958POPC   C1A46287  10.477   8.239   6.450
 7958POPC   D2A46288  10.491   8.151   6.750
 7958POPC   C3A46289  10.505   8.170   7.050
 7958POPC   C4A46290  10.556   8.246   7.350
 7958POPC   C1B46291  10.640   7.935   6.450
 7958POPC   C2B46292  10.623   7.942   6.750
 7958POPC   C3B46293  10.684   7.993   7.050
 7958POPC   C4B46294  10.653   7.970   7.350
 7959POPC   NC346295  36.914  39.226   5.550
 7959POPC   PO446296  36.946  39.198   5.850
 7959POPC   GL146297  36.928  39.243   6.150
 7959POPC   GL246298  36.822  39.177   6.150
 7959POPC   C1A46299  36.870  39.196   6.450
 7959POPC   D2A46300  36.859  39.261   6.750
 7959POPC   C3A46301  36.938  39.251   7.050
 7959POPC   C4A46302  36.911  39.221   7.350
 7959POPC   C1B46303  36.708  39.146   6.450
 7959POPC   C2B46304  36.652  39.201   6.750
 7959POPC   C3B46305  36.624  39.198   7.050
 7959POPC   C4B46306  36.651  39.154   7.350
 7960POPC   NC346307  43.088  40.733   5.550
 7960POPC   PO446308  43.149  40.761   5.850
 7960POPC   GL146309  43.101  40.757   6.150
 7960POPC   GL246310  43.200  40.794   6.150
 7960POPC   C1A46311  43.087  40.822   6.450
 7960POPC   D2A46312  43.073  40.810   6.750
 7960POPC   C3A46313  43.070  40.816   7.050
 7960POPC   C4A46314  43.092  40.773   7.350
 7960POPC   C1B46315  43.344  40.795   6.450
 7960POPC   C2B46316  43.390  40.728   6.750
 7960POPC   C3B46317  43.311  40.755   7.050
 7960POPC   C4B46318  43.383  40.787   7.350
 7961POPC   NC346319  43.098   7.449   5.550
 7961POPC   PO446320  43.129   7.438   5.850
 7961POPC   GL146321  43.064   7.376   6.150
 7961POPC   GL246322  43.194   7.439   6.150
 7961POPC   C1A46323  43.095   7.432   6.450
 7961POPC   D2A46324  43.110   7.398   6.750
 7961POPC   C3A46325  43.136   7.468   7.050
 7961POPC   C4A46326  43.127   7.461   7.350
 7961POPC   C1B46327  43.387   7.411   6.450
 7961POPC   C2B46328  43.378   7.465   6.750
 7961POPC   C3B46329  43.326   7.492   7.050
 7961POPC   C4B46330  43.405   7.454   7.350
 7962POPC   NC346331  14.391  43.934   5.550
 7962POPC   PO446332  14.419  43.904   5.850
 7962POPC   GL146333  14.388  43.842   6.150
 7962POPC   GL246334  14.454  44.057   6.150
 7962POPC   C1A46335  14.386  43.924   6.450
 7962POPC   D2A46336  14.371  43.914   6.750
 7962POPC   C3A46337  14.435  43.852   7.050
 7962POPC   C4A46338  14.420  43.910   7.350
 7962POPC   C1B46339  14.409  44.134   6.450
 7962POPC   C2B46340  14.474  44.129   6.750
 7962POPC   C3B46341  14.482  44.121   7.050
 7962POPC   C4B46342  14.459  44.134   7.350
 7963POPC   NC346343  15.990  20.581   5.550
 7963POPC   PO446344  15.956  20.599   5.850
 7963POPC   GL146345  16.001  20.633   6.150
 7963POPC   GL246346  15.813  20.527   6.150
 7963POPC   C1A46347  15.928  20.647   6.450
 7963POPC   D2A46348  15.994  20.567   6.750
 7963POPC   C3A46349  15.944  20.632   7.050
 7963POPC   C4A46350  15.927  20.572   7.350
 7963POPC   C1B46351  15.751  20.512   6.450
 7963POPC   C2B46352  15.740  20.539   6.750
 7963POPC   C3B46353  15.761  20.558   7.050
 7963POPC   C4B46354  15.696  20.567   7.350
 7964POPC   NC346355  40.802  25.276   5.550
 7964POPC   PO446356  40.831  25.280   5.850
 7964POPC   GL146357  40.817  25.314   6.150
 7964POPC   GL246358  40.752  25.409   6.150
 7964POPC   C1A46359  40.797  25.239   6.450
 7964POPC   D2A46360  40.739  25.304   6.750
 7964POPC   C3A46361  40.757  25.242   7.050
 7964POPC   C4A46362  40.753  25.287   7.350
 7964POPC   C1B46363  40.653  25.469   6.450
 7964POPC   C2B46364  40.607  25.447   6.750
 7964POPC   C3B46365  40.632  25.444   7.050
 7964POPC   C4B46366  40.655  25.444   7.350
 7965POPC   NC346367  38.482   8.983   5.550
 7965POPC   PO446368  38.455   8.966   5.850
 7965POPC   GL146369  38.476   8.967   6.150
 7965POPC   GL246370  38.580   9.000   6.150
 7965POPC   C1A46371  38.443   8.974   6.450
 7965POPC   D2A46372  38.459   8.972   6.750
 7965POPC   C3A46373  38.442   8.942   7.050
 7965POPC   C4A46374  38.465   8.939   7.350
 7965POPC   C1B46375  38.731   8.907   6.450
 7965POPC   C2B46376  38.668   8.984   6.750
 7965POPC   C3B46377  38.713   8.968   7.050
 7965POPC   C4B46378  38.676   8.980   7.350
 7966POPC   NC346379  37.645  21.413   5.550
 7966POPC   PO446380  37.695  21.371   5.850
 7966POPC   GL146381  37.671  21.421   6.150
 7966POPC   GL246382  37.514  21.411   6.150
 7966POPC   C1A46383  37.695  21.407   6.450
 7966POPC   D2A46384  37.703  21.402   6.750
 7966POPC   C3A46385  37.724  21.424   7.050
 7966POPC   C4A46386  37.659  21.394   7.350
 7966POPC   C1B46387  37.465  21.398   6.450
 7966POPC   C2B46388  37.421  21.438   6.750
 7966POPC   C3B46389  37.407  21.393   7.050
 7966POPC   C4B46390  37.383  21.409   7.350
 7967POPC   NC346391  24.485  16.730   5.550
 7967POPC   PO446392  24.531  16.756   5.850
 7967POPC   GL146393  24.480  16.771   6.150
 7967POPC   GL246394  24.359  16.782   6.150
 7967POPC   C1A46395  24.523  16.753   6.450
 7967POPC   D2A46396  24.479  16.736   6.750
 7967POPC   C3A46397  24.494  16.774   7.050
 7967POPC   C4A46398  24.473  16.730   7.350
 7967POPC   C1B46399  24.269  16.859   6.450
 7967POPC   C2B46400  24.301  16.840   6.750
 7967POPC   C3B46401  24.211  16.768   7.050
 7967POPC   C4B46402  24.211  16.863   7.350
 7968POPC   NC346403  43.067  24.508   5.550
 7968POPC   PO446404  43.132  24.493   5.850
 7968POPC   GL146405  43.088  24.504   6.150
 7968POPC   GL246406  42.973  24.475   6.150
 7968POPC   C1A46407  43.065  24.502   6.450
 7968POPC   D2A46408  43.150  24.540   6.750
 7968POPC   C3A46409  43.122  24.510   7.050
 7968POPC   C4A46410  43.114  24.483   7.350
 7968POPC   C1B46411  42.833  24.510   6.450
 7968POPC   C2B46412  42.837  24.557   6.750
 7968POPC   C3B46413  42.873  24.464   7.050
 7968POPC   C4B46414  42.848  24.529   7.350
 7969POPC   NC346415  31.451  33.070   5.550
 7969POPC   PO446416  31.468  33.068   5.850
 7969POPC   GL146417  31.511  32.990   6.150
 7969POPC   GL246418  31.454  33.153   6.150
 7969POPC   C1A46419  31.449  33.023   6.450
 7969POPC   D2A46420  31.450  32.983   6.750
 7969POPC   C3A46421  31.474  33.060   7.050
 7969POPC   C4A46422  31.475  33.004   7.350
 7969POPC   C1B46423  31.383  33.287   6.450
 7969POPC   C2B46424  31.384  33.243   6.750
 7969POPC   C3B46425  31.408  33.293   7.050
 7969POPC   C4B46426  31.403  33.284   7.350
 7970POPC   NC346427  27.623  22.897   5.550
 7970POPC   PO446428  27.562  22.986   5.850
 7970POPC   GL146429  27.545  22.897   6.150
 7970POPC   GL246430  27.493  23.033   6.150
 7970POPC   C1A46431  27.625  22.943   6.450
 7970POPC   D2A46432  27.575  22.922   6.750
 7970POPC   C3A46433  27.581  22.970   7.050
 7970POPC   C4A46434  27.613  22.979   7.350
 7970POPC   C1B46435  27.493  23.178   6.450
 7970POPC   C2B46436  27.508  23.125   6.750
 7970POPC   C3B46437  27.441  23.167   7.050
 7970POPC   C4B46438  27.488  23.125   7.350
 7971POPC   NC346439  43.844  11.310   5.550
 7971POPC   PO446440  43.901  11.311   5.850
 7971POPC   GL146441  43.842  11.334   6.150
 7971POPC   GL246442  43.857  11.375   6.150
 7971POPC   C1A46443  43.926  11.287   6.450
 7971POPC   D2A46444  43.906  11.336   6.750
 7971POPC   C3A46445  43.914  11.259   7.050
 7971POPC   C4A46446  43.919  11.288   7.350
 7971POPC   C1B46447  43.788  11.586   6.450
 7971POPC   C2B46448  43.797  11.520   6.750
 7971POPC   C3B46449  43.785  11.542   7.050
 7971POPC   C4B46450  43.801  11.543   7.350
 7972POPC   NC346451  34.530  12.847   5.550
 7972POPC   PO446452  34.527  12.817   5.850
 7972POPC   GL146453  34.577  12.884   6.150
 7972POPC   GL246454  34.535  12.741   6.150
 7972POPC   C1A46455  34.605  12.810   6.450
 7972POPC   D2A46456  34.613  12.888   6.750
 7972POPC   C3A46457  34.556  12.833   7.050
 7972POPC   C4A46458  34.611  12.831   7.350
 7972POPC   C1B46459  34.403  12.675   6.450
 7972POPC   C2B46460  34.473  12.626   6.750
 7972POPC   C3B46461  34.402  12.641   7.050
 7972POPC   C4B46462  34.407  12.588   7.350
 7973POPC   NC346463  16.695  41.509   5.550
 7973POPC   PO446464  16.778  41.608   5.850
 7973POPC   GL146465  16.748  41.529   6.150
 7973POPC   GL246466  16.602  41.612   6.150
 7973POPC   C1A46467  16.688  41.585   6.450
 7973POPC   D2A46468  16.711  41.550   6.750
 7973POPC   C3A46469  16.685  41.521   7.050
 7973POPC   C4A46470  16.697  41.553   7.350
 7973POPC   C1B46471  16.498  41.710   6.450
 7973POPC   C2B46472  16.538  41.687   6.750
 7973POPC   C3B46473  16.559  41.738   7.050
 7973POPC   C4B46474  16.536  41.736   7.350
 7974POPC   NC346475  32.290   9.750   5.550
 7974POPC   PO446476  32.257   9.716   5.850
 7974POPC   GL146477  32.281   9.770   6.150
 7974POPC   GL246478  32.306   9.825   6.150
 7974POPC   C1A46479  32.295   9.761   6.450
 7974POPC   D2A46480  32.226   9.795   6.750
 7974POPC   C3A46481  32.241   9.760   7.050
 7974POPC   C4A46482  32.220   9.787   7.350
 7974POPC   C1B46483  32.341   9.996   6.450
 7974POPC   C2B46484  32.427   9.967   6.750
 7974POPC   C3B46485  32.367   9.994   7.050
 7974POPC   C4B46486  32.380   9.992   7.350
 7975POPC   NC346487   1.992  10.536   5.550
 7975POPC   PO446488   2.012  10.506   5.850
 7975POPC   GL146489   2.010  10.523   6.150
 7975POPC   GL246490   1.976  10.612   6.150
 7975POPC   C1A46491   1.949  10.571   6.450
 7975POPC   D2A46492   1.996  10.474   6.750
 7975POPC   C3A46493   1.960  10.510   7.050
 7975POPC   C4A46494   1.949  10.526   7.350
 7975POPC   C1B46495   2.011  10.796   6.450
 7975POPC   C2B46496   2.060  10.754   6.750
 7975POPC   C3B46497   2.070  10.720   7.050
 7975POPC   C4B46498   2.086  10.762   7.350
 7976POPC   NC346499  31.430  43.841   5.550
 7976POPC   PO446500  31.463  43.893   5.850
 7976POPC   GL146501  31.455  43.920   6.150
 7976POPC   GL246502  31.428  43.816   6.150
 7976POPC   C1A46503  31.456  43.903   6.450
 7976POPC   D2A46504  31.450  43.883   6.750
 7976POPC   C3A46505  31.452  43.870   7.050
 7976POPC   C4A46506  31.442  43.910   7.350
 7976POPC   C1B46507  31.282  43.756   6.450
 7976POPC   C2B46508  31.314  43.757   6.750
 7976POPC   C3B46509  31.304  43.738   7.050
 7976POPC   C4B46510  31.343  43.739   7.350
 7977POPC   NC346511  30.723  19.860   5.550
 7977POPC   PO446512  30.689  19.796   5.850
 7977POPC   GL146513  30.685  19.793   6.150
 7977POPC   GL246514  30.541  19.851   6.150
 7977POPC   C1A46515  30.696  19.854   6.450
 7977POPC   D2A46516  30.732  19.878   6.750
 7977POPC   C3A46517  30.725  19.850   7.050
 7977POPC   C4A46518  30.742  19.794   7.350
 7977POPC   C1B46519  30.418  19.808   6.450
 7977POPC   C2B46520  30.480  19.802   6.750
 7977POPC   C3B46521  30.474  19.865   7.050
 7977POPC   C4B46522  30.485  19.870   7.350
 7978POPC   NC346523  23.695  12.030   5.550
 7978POPC   PO446524  23.664  12.067   5.850
 7978POPC   GL146525  23.705  12.041   6.150
 7978POPC   GL246526  23.749  11.917   6.150
 7978POPC   C1A46527  23.722  12.041   6.450
 7978POPC   D2A46528  23.727  12.123   6.750
 7978POPC   C3A46529  23.693  12.061   7.050
 7978POPC   C4A46530  23.757  12.084   7.350
 7978POPC   C1B46531  23.784  11.896   6.450
 7978POPC   C2B46532  23.831  11.863   6.750
 7978POPC   C3B46533  23.829  11.817   7.050
 7978POPC   C4B46534  23.838  11.818   7.350
 7979POPC   NC346535  27.635   9.013   5.550
 7979POPC   PO446536  27.565   8.983   5.850
 7979POPC   GL146537  27.570   8.931   6.150
 7979POPC   GL246538  27.522   8.927   6.150
 7979POPC   C1A46539  27.620   8.944   6.450
 7979POPC   D2A46540  27.607   8.972   6.750
 7979POPC   C3A46541  27.561   8.981   7.050
 7979POPC   C4A46542  27.633   8.945   7.350
 7979POPC   C1B46543  27.334   8.881   6.450
 7979POPC   C2B46544  27.401   8.872   6.750
 7979POPC   C3B46545  27.376   8.878   7.050
 7979POPC   C4B46546  27.378   8.884   7.350
 7980POPC   NC346547  34.573  14.415   5.550
 7980POPC   PO446548  34.590  14.424   5.850
 7980POPC   GL146549  34.590  14.427   6.150
 7980POPC   GL246550  34.595  14.493   6.150
 7980POPC   C1A46551  34.565  14.453   6.450
 7980POPC   D2A46552  34.556  14.430   6.750
 7980POPC   C3A46553  34.571  14.388   7.050
 7980POPC   C4A46554  34.536  14.354   7.350
 7980POPC   C1B46555  34.589  14.692   6.450
 7980POPC   C2B46556  34.589  14.621   6.750
 7980POPC   C3B46557  34.683  14.597   7.050
 7980POPC   C4B46558  34.670  14.688   7.350
 7981POPC   NC346559  33.069  38.448   5.550
 7981POPC   PO446560  33.040  38.440   5.850
 7981POPC   GL146561  33.026  38.434   6.150
 7981POPC   GL246562  33.081  38.581   6.150
 7981POPC   C1A46563  33.054  38.420   6.450
 7981POPC   D2A46564  33.056  38.431   6.750
 7981POPC   C3A46565  33.049  38.417   7.050
 7981POPC   C4A46566  32.996  38.414   7.350
 7981POPC   C1B46567  33.179  38.590   6.450
 7981POPC   C2B46568  33.237  38.577   6.750
 7981POPC   C3B46569  33.199  38.596   7.050
 7981POPC   C4B46570  33.185  38.658   7.350
 7982POPC   NC346571   3.583  33.019   5.550
 7982POPC   PO446572   3.546  33.064   5.850
 7982POPC   GL146573   3.507  33.028   6.150
 7982POPC   GL246574   3.464  32.883   6.150
 7982POPC   C1A46575   3.572  32.998   6.450
 7982POPC   D2A46576   3.523  33.032   6.750
 7982POPC   C3A46577   3.527  33.003   7.050
 7982POPC   C4A46578   3.567  33.019   7.350
 7982POPC   C1B46579   3.427  32.776   6.450
 7982POPC   C2B46580   3.461  32.780   6.750
 7982POPC   C3B46581   3.457  32.841   7.050
 7982POPC   C4B46582   3.456  32.839   7.350
 7983POPC   NC346583  37.716  25.282   5.550
 7983POPC   PO446584  37.652  25.290   5.850
 7983POPC   GL146585  37.647  25.236   6.150
 7983POPC   GL246586  37.626  25.370   6.150
 7983POPC   C1A46587  37.662  25.310   6.450
 7983POPC   D2A46588  37.716  25.258   6.750
 7983POPC   C3A46589  37.696  25.314   7.050
 7983POPC   C4A46590  37.714  25.216   7.350
 7983POPC   C1B46591  37.657  25.533   6.450
 7983POPC   C2B46592  37.630  25.478   6.750
 7983POPC   C3B46593  37.627  25.546   7.050
 7983POPC   C4B46594  37.666  25.546   7.350
 7984POPC   NC346595  37.676  38.484   5.550
 7984POPC   PO446596  37.714  38.458   5.850
 7984POPC   GL146597  37.711  38.459   6.150
 7984POPC   GL246598  37.745  38.606   6.150
 7984POPC   C1A46599  37.716  38.459   6.450
 7984POPC   D2A46600  37.701  38.470   6.750
 7984POPC   C3A46601  37.723  38.451   7.050
 7984POPC   C4A46602  37.646  38.503   7.350
 7984POPC   C1B46603  37.791  38.633   6.450
 7984POPC   C2B46604  37.851  38.656   6.750
 7984POPC   C3B46605  37.841  38.709   7.050
 7984POPC   C4B46606  37.788  38.710   7.350
 7985POPC   NC346607  26.858  32.291   5.550
 7985POPC   PO446608  26.768  32.225   5.850
 7985POPC   GL146609  26.797  32.297   6.150
 7985POPC   GL246610  26.743  32.123   6.150
 7985POPC   C1A46611  26.846  32.287   6.450
 7985POPC   D2A46612  26.819  32.243   6.750
 7985POPC   C3A46613  26.772  32.264   7.050
 7985POPC   C4A46614  26.850  32.204   7.350
 7985POPC   C1B46615  26.700  32.023   6.450
 7985POPC   C2B46616  26.694  32.085   6.750
 7985POPC   C3B46617  26.709  32.072   7.050
 7985POPC   C4B46618  26.710  32.052   7.350
 7986POPC   NC346619  16.751  19.833   5.550
 7986POPC   PO446620  16.688  19.848   5.850
 7986POPC   GL146621  16.697  19.839   6.150
 7986POPC   GL246622  16.758  19.680   6.150
 7986POPC   C1A46623  16.748  19.848   6.450
 7986POPC   D2A46624  16.692  19.793   6.750
 7986POPC   C3A46625  16.740  19.879   7.050
 7986POPC   C4A46626  16.754  19.787   7.350
 7986POPC   C1B46627  16.715  19.540   6.450
 7986POPC   C2B46628  16.742  19.598   6.750
 7986POPC   C3B46629  16.667  19.628   7.050
 7986POPC   C4B46630  16.699  19.625   7.350
 7987POPC   NC346631  24.518  26.035   5.550
 7987POPC   PO446632  24.460  26.086   5.850
 7987POPC   GL146633  24.530  26.058   6.150
 7987POPC   GL246634  24.498  26.124   6.150
 7987POPC   C1A46635  24.538  26.040   6.450
 7987POPC   D2A46636  24.496  26.042   6.750
 7987POPC   C3A46637  24.447  26.085   7.050
 7987POPC   C4A46638  24.530  26.018   7.350
 7987POPC   C1B46639  24.528  26.283   6.450
 7987POPC   C2B46640  24.603  26.231   6.750
 7987POPC   C3B46641  24.553  26.295   7.050
 7987POPC   C4B46642  24.613  26.243   7.350
 7988POPC   NC346643   2.747   2.777   5.550
 7988POPC   PO446644   2.718   2.762   5.850
 7988POPC   GL146645   2.754   2.783   6.150
 7988POPC   GL246646   2.677   2.694   6.150
 7988POPC   C1A46647   2.735   2.770   6.450
 7988POPC   D2A46648   2.768   2.766   6.750
 7988POPC   C3A46649   2.755   2.734   7.050
 7988POPC   C4A46650   2.792   2.754   7.350
 7988POPC   C1B46651   2.604   2.611   6.450
 7988POPC   C2B46652   2.555   2.548   6.750
 7988POPC   C3B46653   2.551   2.620   7.050
 7988POPC   C4B46654   2.597   2.592   7.350
 7989POPC   NC346655  39.184  18.266   5.550
 7989POPC   PO446656  39.242  18.235   5.850
 7989POPC   GL146657  39.253  18.256   6.150
 7989POPC   GL246658  39.119  18.234   6.150
 7989POPC   C1A46659  39.260  18.250   6.450
 7989POPC   D2A46660  39.182  18.237   6.750
 7989POPC   C3A46661  39.220  18.234   7.050
 7989POPC   C4A46662  39.256  18.281   7.350
 7989POPC   C1B46663  38.994  18.132   6.450
 7989POPC   C2B46664  39.016  18.131   6.750
 7989POPC   C3B46665  39.065  18.130   7.050
 7989POPC   C4B46666  39.026  18.135   7.350
 7990POPC   NC346667  26.072   7.430   5.550
 7990POPC   PO446668  26.039   7.388   5.850
 7990POPC   GL146669  26.087   7.399   6.150
 7990POPC   GL246670  26.179   7.390   6.150
 7990POPC   C1A46671  25.996   7.452   6.450
 7990POPC   D2A46672  26.072   7.372   6.750
 7990POPC   C3A46673  26.021   7.430   7.050
 7990POPC   C4A46674  26.062   7.419   7.350
 7990POPC   C1B46675  26.218   7.296   6.450
 7990POPC   C2B46676  26.212   7.255   6.750
 7990POPC   C3B46677  26.250   7.266   7.050
 7990POPC   C4B46678  26.225   7.269   7.350
 7991POPC   NC346679  43.063  21.378   5.550
 7991POPC   PO446680  43.071  21.413   5.850
 7991POPC   GL146681  43.157  21.360   6.150
 7991POPC   GL246682  42.980  21.258   6.150
 7991POPC   C1A46683  43.116  21.431   6.450
 7991POPC   D2A46684  43.062  21.379   6.750
 7991POPC   C3A46685  43.088  21.339   7.050
 7991POPC   C4A46686  43.098  21.390   7.350
 7991POPC   C1B46687  42.963  21.166   6.450
 7991POPC   C2B46688  42.913  21.158   6.750
 7991POPC   C3B46689  42.970  21.207   7.050
 7991POPC   C4B46690  42.907  21.238   7.350
 7992POPC   NC346691   3.506   0.389   5.550
 7992POPC   PO446692   3.578   0.430   5.850
 7992POPC   GL146693   3.578   0.446   6.150
 7992POPC   GL246694   3.615   0.468   6.150
 7992POPC   C1A46695   3.513   0.411   6.450
 7992POPC   D2A46696   3.504   0.406   6.750
 7992POPC   C3A46697   3.573   0.478   7.050
 7992POPC   C4A46698   3.515   0.416   7.350
 7992POPC   C1B46699   3.794   0.489   6.450
 7992POPC   C2B46700   3.807   0.456   6.750
 7992POPC   C3B46701   3.773   0.523   7.050
 7992POPC   C4B46702   3.756   0.539   7.350
 7993POPC   NC346703  35.307  23.752   5.550
 7993POPC   PO446704  35.351  23.741   5.850
 7993POPC   GL146705  35.383  23.706   6.150
 7993POPC   GL246706  35.384  23.795   6.150
 7993POPC   C1A46707  35.391  23.715   6.450
 7993POPC   D2A46708  35.325  23.751   6.750
 7993POPC   C3A46709  35.346  23.695   7.050
 7993POPC   C4A46710  35.338  23.760   7.350
 7993POPC   C1B46711  35.493  23.880   6.450
 7993POPC   C2B46712  35.536  23.891   6.750
 7993POPC   C3B46713  35.561  23.875   7.050
 7993POPC   C4B46714  35.468  23.944   7.350
 7994POPC   NC346715  15.224  19.830   5.550
 7994POPC   PO446716  15.144  19.839   5.850
 7994POPC   GL146717  15.130  19.852   6.150
 7994POPC   GL246718  15.301  19.879   6.150
 7994POPC   C1A46719  15.181  19.853   6.450
 7994POPC   D2A46720  15.227  19.810   6.750
 7994POPC   C3A46721  15.162  19.786   7.050
 7994POPC   C4A46722  15.191  19.870   7.350
 7994POPC   C1B46723  15.413  19.965   6.450
 7994POPC   C2B46724  15.347  19.996   6.750
 7994POPC   C3B46725  15.349  20.004   7.050
 7994POPC   C4B46726  15.367  20.005   7.350
 7995POPC   NC346727  11.252   5.846   5.550
 7995POPC   PO446728  11.307   5.906   5.850
 7995POPC   GL146729  11.292   5.878   6.150
 7995POPC   GL246730  11.327   5.979   6.150
 7995POPC   C1A46731  11.302   5.841   6.450
 7995POPC   D2A46732  11.265   5.841   6.750
 7995POPC   C3A46733  11.260   5.917   7.050
 7995POPC   C4A46734  11.330   5.838   7.350
 7995POPC   C1B46735  11.233   6.106   6.450
 7995POPC   C2B46736  11.248   6.150   6.750
 7995POPC   C3B46737  11.274   6.112   7.050
 7995POPC   C4B46738  11.277   6.110   7.350
 7996POPC   NC346739   3.539  20.618   5.550
 7996POPC   PO446740   3.497  20.588   5.850
 7996POPC   GL146741   3.549  20.602   6.150
 7996POPC   GL246742   3.562  20.760   6.150
 7996POPC   C1A46743   3.550  20.563   6.450
 7996POPC   D2A46744   3.492  20.578   6.750
 7996POPC   C3A46745   3.542  20.562   7.050
 7996POPC   C4A46746   3.517  20.655   7.350
 7996POPC   C1B46747   3.621  20.875   6.450
 7996POPC   C2B46748   3.560  20.855   6.750
 7996POPC   C3B46749   3.649  20.874   7.050
 7996POPC   C4B46750   3.634  20.814   7.350
 7997POPC   NC346751  27.605  33.836   5.550
 7997POPC   PO446752  27.629  33.819   5.850
 7997POPC   GL146753  27.637  33.796   6.150
 7997POPC   GL246754  27.709  33.830   6.150
 7997POPC   C1A46755  27.561  33.773   6.450
 7997POPC   D2A46756  27.601  33.793   6.750
 7997POPC   C3A46757  27.578  33.818   7.050
 7997POPC   C4A46758  27.632  33.761   7.350
 7997POPC   C1B46759  27.802  33.880   6.450
 7997POPC   C2B46760  27.864  33.941   6.750
 7997POPC   C3B46761  27.820  33.947   7.050
 7997POPC   C4B46762  27.783  33.897   7.350
 7998POPC   NC346763  29.955  10.538   5.550
 7998POPC   PO446764  29.889  10.494   5.850
 7998POPC   GL146765  29.905  10.549   6.150
 7998POPC   GL246766  30.036  10.455   6.150
 7998POPC   C1A46767  29.960  10.492   6.450
 7998POPC   D2A46768  29.962  10.530   6.750
 7998POPC   C3A46769  29.899  10.539   7.050
 7998POPC   C4A46770  29.907  10.551   7.350
 7998POPC   C1B46771  30.056  10.305   6.450
 7998POPC   C2B46772  30.132  10.361   6.750
 7998POPC   C3B46773  30.080  10.317   7.050
 7998POPC   C4B46774  30.039  10.320   7.350
 7999POPC   NC346775  40.033  20.641   5.550
 7999POPC   PO446776  39.974  20.622   5.850
 7999POPC   GL146777  39.985  20.602   6.150
 7999POPC   GL246778  40.128  20.581   6.150
 7999POPC   C1A46779  39.987  20.625   6.450
 7999POPC   D2A46780  40.037  20.612   6.750
 7999POPC   C3A46781  40.049  20.640   7.050
 7999POPC   C4A46782  40.044  20.636   7.350
 7999POPC   C1B46783  40.286  20.572   6.450
 7999POPC   C2B46784  40.275  20.583   6.750
 7999POPC   C3B46785  40.245  20.595   7.050
 7999POPC   C4B46786  40.278  20.612   7.350
 8000POPC   NC346787  18.243  28.396   5.550
 8000POPC   PO446788  18.297  28.342   5.850
 8000POPC   GL146789  18.297  28.341   6.150
 8000POPC   GL246790  18.344  28.501   6.150
 8000POPC   C1A46791  18.290  28.395   6.450
 8000POPC   D2A46792  18.301  28.368   6.750
 8000POPC   C3A46793  18.315  28.416   7.050
 8000POPC   C4A46794  18.281  28.414   7.350
 8000POPC   C1B46795  18.450  28.551   6.450
 8000POPC   C2B46796  18.413  28.534   6.750
 8000POPC   C3B46797  18.431  28.590   7.050
 8000POPC   C4B46798  18.400  28.544   7.350
 8001POPC   NC346799  19.809  41.567   5.550
 8001POPC   PO446800  19.810  41.524   5.850
 8001POPC   GL146801  19.807  41.546   6.150
 8001POPC   GL246802  19.693  41.547   6.150
 8001POPC   C1A46803  19.872  41.580   6.450
 8001POPC   D2A46804  19.804  41.534   6.750
 8001POPC   C3A46805  19.795  41.584   7.050
 8001POPC   C4A46806  19.847  41.530   7.350
 8001POPC   C1B46807  19.573  41.617   6.450
 8001POPC   C2B46808  19.551  41.597   6.750
 8001POPC   C3B46809  19.633  41.574   7.050
 8001POPC   C4B46810  19.582  41.643   7.350
 8002POPC   NC346811  16.743   4.311   5.550
 8002POPC   PO446812  16.717   4.356   5.850
 8002POPC   GL146813  16.695   4.276   6.150
 8002POPC   GL246814  16.736   4.470   6.150
 8002POPC   C1A46815  16.723   4.288   6.450
 8002POPC   D2A46816  16.731   4.345   6.750
 8002POPC   C3A46817  16.730   4.332   7.050
 8002POPC   C4A46818  16.750   4.302   7.350
 8002POPC   C1B46819  16.693   4.575   6.450
 8002POPC   C2B46820  16.755   4.522   6.750
 8002POPC   C3B46821  16.727   4.540   7.050
 8002POPC   C4B46822  16.727   4.604   7.350
 8003POPC   NC346823   8.953   2.718   5.550
 8003POPC   PO446824   8.995   2.751   5.850
 8003POPC   GL146825   8.962   2.720   6.150
 8003POPC   GL246826   9.048   2.700   6.150
 8003POPC   C1A46827   9.010   2.722   6.450
 8003POPC   D2A46828   8.939   2.740   6.750
 8003POPC   C3A46829   8.935   2.760   7.050
 8003POPC   C4A46830   8.951   2.770   7.350
 8003POPC   C1B46831   9.205   2.626   6.450
 8003POPC   C2B46832   9.217   2.603   6.750
 8003POPC   C3B46833   9.223   2.643   7.050
 8003POPC   C4B46834   9.164   2.630   7.350
 8004POPC   NC346835  15.228   5.837   5.550
 8004POPC   PO446836  15.220   5.881   5.850
 8004POPC   GL146837  15.202   5.868   6.150
 8004POPC   GL246838  15.112   5.918   6.150
 8004POPC   C1A46839  15.134   5.836   6.450
 8004POPC   D2A46840  15.144   5.824   6.750
 8004POPC   C3A46841  15.207   5.891   7.050
 8004POPC   C4A46842  15.171   5.849   7.350
 8004POPC   C1B46843  14.987   5.976   6.450
 8004POPC   C2B46844  14.945   5.986   6.750
 8004POPC   C3B46845  14.971   5.959   7.050
 8004POPC   C4B46846  14.979   6.032   7.350
 8005POPC   NC346847   3.555   2.739   5.550
 8005POPC   PO446848   3.546   2.728   5.850
 8005POPC   GL146849   3.548   2.778   6.150
 8005POPC   GL246850   3.563   2.641   6.150
 8005POPC   C1A46851   3.532   2.745   6.450
 8005POPC   D2A46852   3.517   2.723   6.750
 8005POPC   C3A46853   3.494   2.800   7.050
 8005POPC   C4A46854   3.513   2.740   7.350
 8005POPC   C1B46855   3.673   2.538   6.450
 8005POPC   C2B46856   3.665   2.548   6.750
 8005POPC   C3B46857   3.606   2.568   7.050
 8005POPC   C4B46858   3.636   2.516   7.350
 8006POPC   NC346859  14.375  36.157   5.550
 8006POPC   PO446860  14.435  36.085   5.850
 8006POPC   GL146861  14.365  36.150   6.150
 8006POPC   GL246862  14.438  36.231   6.150
 8006POPC   C1A46863  14.413  36.170   6.450
 8006POPC   D2A46864  14.386  36.150   6.750
 8006POPC   C3A46865  14.375  36.088   7.050
 8006POPC   C4A46866  14.358  36.152   7.350
 8006POPC   C1B46867  14.369  36.344   6.450
 8006POPC   C2B46868  14.341  36.404   6.750
 8006POPC   C3B46869  14.339  36.360   7.050
 8006POPC   C4B46870  14.392  36.395   7.350
 8007POPC   NC346871  39.221  39.203   5.550
 8007POPC   PO446872  39.216  39.256   5.850
 8007POPC   GL146873  39.231  39.279   6.150
 8007POPC   GL246874  39.262  39.153   6.150
 8007POPC   C1A46875  39.255  39.204   6.450
 8007POPC   D2A46876  39.203  39.252   6.750
 8007POPC   C3A46877  39.188  39.263   7.050
 8007POPC   C4A46878  39.256  39.181   7.350
 8007POPC   C1B46879  39.232  38.937   6.450
 8007POPC   C2B46880  39.289  38.997   6.750
 8007POPC   C3B46881  39.233  38.968   7.050
 8007POPC   C4B46882  39.244  39.033   7.350
 8008POPC   NC346883   4.277  22.189   5.550
 8008POPC   PO446884   4.282  22.153   5.850
 8008POPC   GL146885   4.324  22.140   6.150
 8008POPC   GL246886   4.174  22.198   6.150
 8008POPC   C1A46887   4.277  22.162   6.450
 8008POPC   D2A46888   4.304  22.145   6.750
 8008POPC   C3A46889   4.301  22.182   7.050
 8008POPC   C4A46890   4.334  22.165   7.350
 8008POPC   C1B46891   4.030  22.157   6.450
 8008POPC   C2B46892   4.049  22.141   6.750
 8008POPC   C3B46893   4.029  22.150   7.050
 8008POPC   C4B46894   4.034  22.198   7.350
 8009POPC   NC346895  43.879  44.677   5.550
 8009POPC   PO446896  43.904  44.664   5.850
 8009POPC   GL146897  43.852  44.654   6.150
 8009POPC   GL246898  43.807  44.676   6.150
 8009POPC   C1A46899  43.934  44.677   6.450
 8009POPC   D2A46900  43.844  44.639   6.750
 8009POPC   C3A46901  43.874  44.690   7.050
 8009POPC   C4A46902  43.892  44.614   7.350
 8009POPC   C1B46903  43.648  44.660   6.450
 8009POPC   C2B46904  43.595  44.609   6.750
 8009POPC   C3B46905  43.608  44.669   7.050
 8009POPC   C4B46906  43.680  44.659   7.350
 8010POPC   NC346907   2.717  24.534   5.550
 8010POPC   PO446908   2.737  24.516   5.850
 8010POPC   GL146909   2.787  24.456   6.150
 8010POPC   GL246910   2.667  24.459   6.150
 8010POPC   C1A46911   2.749  24.490   6.450
 8010POPC   D2A46912   2.811  24.504   6.750
 8010POPC   C3A46913   2.801  24.539   7.050
 8010POPC   C4A46914   2.734  24.477   7.350
 8010POPC   C1B46915   2.530  24.528   6.450
 8010POPC   C2B46916   2.488  24.490   6.750
 8010POPC   C3B46917   2.509  24.567   7.050
 8010POPC   C4B46918   2.481  24.506   7.350
 8011POPC   NC346919  12.048  29.118   5.550
 8011POPC   PO446920  12.083  29.176   5.850
 8011POPC   GL146921  12.083  29.129   6.150
 8011POPC   GL246922  12.130  29.054   6.150
 8011POPC   C1A46923  12.104  29.171   6.450
 8011POPC   D2A46924  12.038  29.117   6.750
 8011POPC   C3A46925  12.054  29.144   7.050
 8011POPC   C4A46926  12.070  29.097   7.350
 8011POPC   C1B46927  12.159  28.890   6.450
 8011POPC   C2B46928  12.175  28.900   6.750
 8011POPC   C3B46929  12.125  28.856   7.050
 8011POPC   C4B46930  12.108  28.857   7.350
 8012POPC   NC346931  25.261  19.823   5.550
 8012POPC   PO446932  25.284  19.849   5.850
 8012POPC   GL146933  25.232  19.870   6.150
 8012POPC   GL246934  25.434  19.845   6.150
 8012POPC   C1A46935  25.238  19.874   6.450
 8012POPC   D2A46936  25.255  19.806   6.750
 8012POPC   C3A46937  25.312  19.815   7.050
 8012POPC   C4A46938  25.308  19.878   7.350
 8012POPC   C1B46939  25.552  19.838   6.450
 8012POPC   C2B46940  25.502  19.887   6.750
 8012POPC   C3B46941  25.496  19.878   7.050
 8012POPC   C4B46942  25.507  19.836   7.350
 8013POPC   NC346943  29.097  44.682   5.550
 8013POPC   PO446944  29.147  44.668   5.850
 8013POPC   GL146945  29.192  44.646   6.150
 8013POPC   GL246946  29.159  44.800   6.150
 8013POPC   C1A46947  29.107  44.708   6.450
 8013POPC   D2A46948  29.177  44.641   6.750
 8013POPC   C3A46949  29.162  44.655   7.050
 8013POPC   C4A46950  29.098  44.616   7.350
 8013POPC   C1B46951  29.123  44.924   6.450
 8013POPC   C2B46952  29.169  44.959   6.750
 8013POPC   C3B46953  29.144  44.928   7.050
 8013POPC   C4B46954  29.107  44.881   7.350
 8014POPC   NC346955  31.424  30.705   5.550
 8014POPC   PO446956  31.467  30.651   5.850
 8014POPC   GL146957  31.463  30.715   6.150
 8014POPC   GL246958  31.364  30.612   6.150
 8014POPC   C1A46959  31.454  30.666   6.450
 8014POPC   D2A46960  31.445  30.663   6.750
 8014POPC   C3A46961  31.458  30.720   7.050
 8014POPC   C4A46962  31.497  30.715   7.350
 8014POPC   C1B46963  31.313  30.455   6.450
 8014POPC   C2B46964  31.339  30.512   6.750
 8014POPC   C3B46965  31.317  30.537   7.050
 8014POPC   C4B46966  31.309  30.510   7.350
 8015POPC   NC346967   1.987  33.820   5.550
 8015POPC   PO446968   2.025  33.817   5.850
 8015POPC   GL146969   1.968  33.765   6.150
 8015POPC   GL246970   1.896  33.712   6.150
 8015POPC   C1A46971   2.029  33.838   6.450
 8015POPC   D2A46972   1.966  33.804   6.750
 8015POPC   C3A46973   1.961  33.826   7.050
 8015POPC   C4A46974   1.966  33.811   7.350
 8015POPC   C1B46975   1.819  33.664   6.450
 8015POPC   C2B46976   1.806  33.715   6.750
 8015POPC   C3B46977   1.764  33.667   7.050
 8015POPC   C4B46978   1.819  33.706   7.350
 8016POPC   NC346979  33.763  15.989   5.550
 8016POPC   PO446980  33.779  15.962   5.850
 8016POPC   GL146981  33.766  15.914   6.150
 8016POPC   GL246982  33.913  16.009   6.150
 8016POPC   C1A46983  33.829  15.965   6.450
 8016POPC   D2A46984  33.777  15.990   6.750
 8016POPC   C3A46985  33.759  15.950   7.050
 8016POPC   C4A46986  33.849  15.983   7.350
 8016POPC   C1B46987  34.043  16.129   6.450
 8016POPC   C2B46988  34.027  16.085   6.750
 8016POPC   C3B46989  34.042  16.040   7.050
 8016POPC   C4B46990  34.051  16.076   7.350
 8017POPC   NC346991  29.876   7.395   5.550
 8017POPC   PO446992  29.877   7.405   5.850
 8017POPC   GL146993  29.938   7.371   6.150
 8017POPC   GL246994  29.967   7.547   6.150
 8017POPC   C1A46995  29.881   7.394   6.450
 8017POPC   D2A46996  29.941   7.379   6.750
 8017POPC   C3A46997  29.960   7.450   7.050
 8017POPC   C4A46998  29.931   7.448   7.350
 8017POPC   C1B46999  29.997   7.637   6.450
 8017POPC   C2B47000  30.019   7.614   6.750
 8017POPC   C3B47001  30.026   7.613   7.050
 8017POPC   C4B47002  29.998   7.613   7.350
 8018POPC   NC347003  39.998  32.258   5.550
 8018POPC   PO447004  40.003  32.214   5.850
 8018POPC   GL147005  39.989  32.228   6.150
 8018POPC   GL247006  40.034  32.348   6.150
 8018POPC   C1A47007  40.002  32.233   6.450
 8018POPC   D2A47008  39.963  32.202   6.750
 8018POPC   C3A47009  39.973  32.237   7.050
 8018POPC   C4A47010  40.004  32.203   7.350
 8018POPC   C1B47011  40.063  32.506   6.450
 8018POPC   C2B47012  39.975  32.506   6.750
 8018POPC   C3B47013  40.046  32.507   7.050
 8018POPC   C4B47014  40.059  32.534   7.350
 8019POPC   NC347015   7.415  19.839   5.550
 8019POPC   PO447016   7.386  19.864   5.850
 8019POPC   GL147017   7.429  19.869   6.150
 8019POPC   GL247018   7.414  19.735   6.150
 8019POPC   C1A47019   7.397  19.804   6.450
 8019POPC   D2A47020   7.447  19.867   6.750
 8019POPC   C3A47021   7.441  19.829   7.050
 8019POPC   C4A47022   7.377  19.871   7.350
 8019POPC   C1B47023   7.426  19.564   6.450
 8019POPC   C2B47024   7.516  19.600   6.750
 8019POPC   C3B47025   7.462  19.616   7.050
 8019POPC   C4B47026   7.429  19.555   7.350
 8020POPC   NC347027  32.255  23.699   5.550
 8020POPC   PO447028  32.259  23.685   5.850
 8020POPC   GL147029  32.253  23.684   6.150
 8020POPC   GL247030  32.308  23.621   6.150
 8020POPC   C1A47031  32.207  23.750   6.450
 8020POPC   D2A47032  32.206  23.724   6.750
 8020POPC   C3A47033  32.297  23.694   7.050
 8020POPC   C4A47034  32.265  23.735   7.350
 8020POPC   C1B47035  32.347  23.498   6.450
 8020POPC   C2B47036  32.405  23.491   6.750
 8020POPC   C3B47037  32.346  23.541   7.050
 8020POPC   C4B47038  32.343  23.544   7.350
 8021POPC   NC347039   0.422  41.579   5.550
 8021POPC   PO447040   0.456  41.527   5.850
 8021POPC   GL147041   0.463  41.604   6.150
 8021POPC   GL247042   0.532  41.610   6.150
 8021POPC   C1A47043   0.431  41.523   6.450
 8021POPC   D2A47044   0.473  41.607   6.750
 8021POPC   C3A47045   0.467  41.533   7.050
 8021POPC   C4A47046   0.451  41.545   7.350
 8021POPC   C1B47047   0.594  41.724   6.450
 8021POPC   C2B47048   0.578  41.696   6.750
 8021POPC   C3B47049   0.604  41.779   7.050
 8021POPC   C4B47050   0.607  41.771   7.350
 8022POPC   NC347051   8.940  12.049   5.550
 8022POPC   PO447052   9.004  12.070   5.850
 8022POPC   GL147053   8.976  12.112   6.150
 8022POPC   GL247054   8.821  12.163   6.150
 8022POPC   C1A47055   8.983  12.110   6.450
 8022POPC   D2A47056   8.944  12.100   6.750
 8022POPC   C3A47057   8.940  12.036   7.050
 8022POPC   C4A47058   8.950  12.066   7.350
 8022POPC   C1B47059   8.719  12.203   6.450
 8022POPC   C2B47060   8.780  12.201   6.750
 8022POPC   C3B47061   8.715  12.201   7.050
 8022POPC   C4B47062   8.778  12.216   7.350
 8023POPC   NC347063   6.618   6.603   5.550
 8023POPC   PO447064   6.691   6.634   5.850
 8023POPC   GL147065   6.601   6.637   6.150
 8023POPC   GL247066   6.772   6.750   6.150
 8023POPC   C1A47067   6.626   6.656   6.450
 8023POPC   D2A47068   6.659   6.607   6.750
 8023POPC   C3A47069   6.640   6.652   7.050
 8023POPC   C4A47070   6.619   6.600   7.350
 8023POPC   C1B47071   6.861   6.756   6.450
 8023POPC   C2B47072   6.884   6.742   6.750
 8023POPC   C3B47073   6.901   6.794   7.050
 8023POPC   C4B47074   6.864   6.722   7.350
 8024POPC   NC347075   5.849  22.166   5.550
 8024POPC   PO447076   5.912  22.127   5.850
 8024POPC   GL147077   5.884  22.157   6.150
 8024POPC   GL247078   5.844  22.045   6.150
 8024POPC   C1A47079   5.896  22.193   6.450
 8024POPC   D2A47080   5.890  22.192   6.750
 8024POPC   C3A47081   5.906  22.212   7.050
 8024POPC   C4A47082   5.858  22.204   7.350
 8024POPC   C1B47083   5.806  21.898   6.450
 8024POPC   C2B47084   5.852  21.962   6.750
 8024POPC   C3B47085   5.793  21.963   7.050
 8024POPC   C4B47086   5.851  21.888   7.350
 8025POPC   NC347087  33.031  21.434   5.550
 8025POPC   PO447088  33.046  21.348   5.850
 8025POPC   GL147089  33.010  21.402   6.150
 8025POPC   GL247090  32.929  21.317   6.150
 8025POPC   C1A47091  32.999  21.384   6.450
 8025POPC   D2A47092  32.996  21.347   6.750
 8025POPC   C3A47093  33.068  21.390   7.050
 8025POPC   C4A47094  32.992  21.390   7.350
 8025POPC   C1B47095  32.756  21.344   6.450
 8025POPC   C2B47096  32.813  21.254   6.750
 8025POPC   C3B47097  32.813  21.344   7.050
 8025POPC   C4B47098  32.792  21.306   7.350
 8026POPC   NC347099  19.800  12.080   5.550
 8026POPC   PO447100  19.790  12.059   5.850
 8026POPC   GL147101  19.871  12.035   6.150
 8026POPC   GL247102  19.685  12.171   6.150
 8026POPC   C1A47103  19.847  12.032   6.450
 8026POPC   D2A47104  19.800  12.102   6.750
 8026POPC   C3A47105  19.808  12.058   7.050
 8026POPC   C4A47106  19.874  12.061   7.350
 8026POPC   C1B47107  19.651  12.211   6.450
 8026POPC   C2B47108  19.569  12.170   6.750
 8026POPC   C3B47109  19.623  12.137   7.050
 8026POPC   C4B47110  19.589  12.199   7.350
 8027POPC   NC347111  11.309  14.410   5.550
 8027POPC   PO447112  11.258  14.362   5.850
 8027POPC   GL147113  11.305  14.397   6.150
 8027POPC   GL247114  11.370  14.457   6.150
 8027POPC   C1A47115  11.327  14.419   6.450
 8027POPC   D2A47116  11.336  14.387   6.750
 8027POPC   C3A47117  11.263  14.387   7.050
 8027POPC   C4A47118  11.273  14.443   7.350
 8027POPC   C1B47119  11.499  14.526   6.450
 8027POPC   C2B47120  11.496  14.498   6.750
 8027POPC   C3B47121  11.505  14.532   7.050
 8027POPC   C4B47122  11.528  14.521   7.350
 8028POPC   NC347123   1.218  32.266   5.550
 8028POPC   PO447124   1.241  32.232   5.850
 8028POPC   GL147125   1.245  32.205   6.150
 8028POPC   GL247126   1.262  32.311   6.150
 8028POPC   C1A47127   1.194  32.229   6.450
 8028POPC   D2A47128   1.166  32.241   6.750
 8028POPC   C3A47129   1.223  32.201   7.050
 8028POPC   C4A47130   1.232  32.202   7.350
 8028POPC   C1B47131   1.286  32.438   6.450
 8028POPC   C2B47132   1.317  32.443   6.750
 8028POPC   C3B47133   1.336  32.488   7.050
 8028POPC   C4B47134   1.343  32.450   7.350
 8029POPC   NC347135  31.487  21.364   5.550
 8029POPC   PO447136  31.463  21.404   5.850
 8029POPC   GL147137  31.452  21.426   6.150
 8029POPC   GL247138  31.546  21.237   6.150
 8029POPC   C1A47139  31.448  21.378   6.450
 8029POPC   D2A47140  31.498  21.429   6.750
 8029POPC   C3A47141  31.442  21.387   7.050
 8029POPC   C4A47142  31.446  21.399   7.350
 8029POPC   C1B47143  31.641  21.202   6.450
 8029POPC   C2B47144  31.648  21.198   6.750
 8029POPC   C3B47145  31.576  21.220   7.050
 8029POPC   C4B47146  31.583  21.167   7.350
 8030POPC   NC347147  27.593  42.322   5.550
 8030POPC   PO447148  27.568  42.379   5.850
 8030POPC   GL147149  27.551  42.304   6.150
 8030POPC   GL247150  27.676  42.198   6.150
 8030POPC   C1A47151  27.620  42.320   6.450
 8030POPC   D2A47152  27.596  42.293   6.750
 8030POPC   C3A47153  27.555  42.322   7.050
 8030POPC   C4A47154  27.549  42.295   7.350
 8030POPC   C1B47155  27.722  42.101   6.450
 8030POPC   C2B47156  27.702  42.118   6.750
 8030POPC   C3B47157  27.758  42.082   7.050
 8030POPC   C4B47158  27.732  42.085   7.350
 8031POPC   NC347159  30.726  29.136   5.550
 8031POPC   PO447160  30.722  29.127   5.850
 8031POPC   GL147161  30.664  29.105   6.150
 8031POPC   GL247162  30.831  29.110   6.150
 8031POPC   C1A47163  30.746  29.108   6.450
 8031POPC   D2A47164  30.718  29.186   6.750
 8031POPC   C3A47165  30.651  29.102   7.050
 8031POPC   C4A47166  30.720  29.167   7.350
 8031POPC   C1B47167  30.901  29.035   6.450
 8031POPC   C2B47168  30.911  29.002   6.750
 8031POPC   C3B47169  30.887  29.079   7.050
 8031POPC   C4B47170  30.919  29.038   7.350
 8032POPC   NC347171  17.460  38.407   5.550
 8032POPC   PO447172  17.536  38.427   5.850
 8032POPC   GL147173  17.520  38.485   6.150
 8032POPC   GL247174  17.477  38.290   6.150
 8032POPC   C1A47175  17.554  38.441   6.450
 8032POPC   D2A47176  17.547  38.436   6.750
 8032POPC   C3A47177  17.534  38.414   7.050
 8032POPC   C4A47178  17.528  38.441   7.350
 8032POPC   C1B47179  17.491  38.203   6.450
 8032POPC   C2B47180  17.484  38.255   6.750
 8032POPC   C3B47181  17.425  38.238   7.050
 8032POPC   C4B47182  17.413  38.257   7.350
 8033POPC   NC347183  19.805  27.572   5.550
 8033POPC   PO447184  19.857  27.600   5.850
 8033POPC   GL147185  19.797  27.638   6.150
 8033POPC   GL247186  19.962  27.531   6.150
 8033POPC   C1A47187  19.833  27.630   6.450
 8033POPC   D2A47188  19.804  27.632   6.750
 8033POPC   C3A47189  19.803  27.564   7.050
 8033POPC   C4A47190  19.878  27.549   7.350
 8033POPC   C1B47191  20.030  27.556   6.450
 8033POPC   C2B47192  20.077  27.552   6.750
 8033POPC   C3B47193  20.076  27.561   7.050
 8033POPC   C4B47194  20.025  27.526   7.350
 8034POPC   NC347195  22.173  28.348   5.550
 8034POPC   PO447196  22.144  28.326   5.850
 8034POPC   GL147197  22.167  28.397   6.150
 8034POPC   GL247198  22.141  28.253   6.150
 8034POPC   C1A47199  22.181  28.404   6.450
 8034POPC   D2A47200  22.123  28.350   6.750
 8034POPC   C3A47201  22.203  28.377   7.050
 8034POPC   C4A47202  22.116  28.377   7.350
 8034POPC   C1B47203  22.009  28.183   6.450
 8034POPC   C2B47204  22.041  28.114   6.750
 8034POPC   C3B47205  22.036  28.174   7.050
 8034POPC   C4B47206  22.041  28.097   7.350
 8035POPC   NC347207   9.005  40.036   5.550
 8035POPC   PO447208   9.020  39.965   5.850
 8035POPC   GL147209   8.947  40.054   6.150
 8035POPC   GL247210   9.044  40.091   6.150
 8035POPC   C1A47211   8.924  39.975   6.450
 8035POPC   D2A47212   8.961  40.047   6.750
 8035POPC   C3A47213   8.965  39.969   7.050
 8035POPC   C4A47214   8.932  40.011   7.350
 8035POPC   C1B47215   9.104  40.224   6.450
 8035POPC   C2B47216   9.100  40.231   6.750
 8035POPC   C3B47217   9.159  40.197   7.050
 8035POPC   C4B47218   9.149  40.170   7.350
 8036POPC   NC347219   8.237  12.871   5.550
 8036POPC   PO447220   8.152  12.870   5.850
 8036POPC   GL147221   8.209  12.841   6.150
 8036POPC   GL247222   8.126  12.956   6.150
 8036POPC   C1A47223   8.230  12.850   6.450
 8036POPC   D2A47224   8.222  12.836   6.750
 8036POPC   C3A47225   8.192  12.813   7.050
 8036POPC   C4A47226   8.230  12.826   7.350
 8036POPC   C1B47227   8.105  13.121   6.450
 8036POPC   C2B47228   8.117  13.137   6.750
 8036POPC   C3B47229   8.160  13.133   7.050
 8036POPC   C4B47230   8.145  13.103   7.350
 8037POPC   NC347231   5.081  15.209   5.550
 8037POPC   PO447232   5.089  15.139   5.850
 8037POPC   GL147233   5.078  15.190   6.150
 8037POPC   GL247234   5.046  15.312   6.150
 8037POPC   C1A47235   5.061  15.181   6.450
 8037POPC   D2A47236   5.107  15.137   6.750
 8037POPC   C3A47237   5.077  15.211   7.050
 8037POPC   C4A47238   5.078  15.193   7.350
 8037POPC   C1B47239   4.934  15.392   6.450
 8037POPC   C2B47240   5.015  15.416   6.750
 8037POPC   C3B47241   4.991  15.446   7.050
 8037POPC   C4B47242   5.013  15.440   7.350
 8038POPC   NC347243  43.085  43.934   5.550
 8038POPC   PO447244  43.087  43.880   5.850
 8038POPC   GL147245  43.085  43.858   6.150
 8038POPC   GL247246  43.006  43.881   6.150
 8038POPC   C1A47247  43.095  43.853   6.450
 8038POPC   D2A47248  43.132  43.893   6.750
 8038POPC   C3A47249  43.125  43.919   7.050
 8038POPC   C4A47250  43.119  43.914   7.350
 8038POPC   C1B47251  42.861  43.823   6.450
 8038POPC   C2B47252  42.837  43.840   6.750
 8038POPC   C3B47253  42.845  43.812   7.050
 8038POPC   C4B47254  42.870  43.819   7.350
 8039POPC   NC347255  26.788  28.414   5.550
 8039POPC   PO447256  26.794  28.389   5.850
 8039POPC   GL147257  26.817  28.371   6.150
 8039POPC   GL247258  26.690  28.284   6.150
 8039POPC   C1A47259  26.792  28.320   6.450
 8039POPC   D2A47260  26.780  28.383   6.750
 8039POPC   C3A47261  26.842  28.389   7.050
 8039POPC   C4A47262  26.802  28.411   7.350
 8039POPC   C1B47263  26.596  28.144   6.450
 8039POPC   C2B47264  26.594  28.147   6.750
 8039POPC   C3B47265  26.656  28.162   7.050
 8039POPC   C4B47266  26.651  28.215   7.350
 8040POPC   NC347267   4.322   0.462   5.550
 8040POPC   PO447268   4.292   0.444   5.850
 8040POPC   GL147269   4.269   0.408   6.150
 8040POPC   GL247270   4.361   0.330   6.150
 8040POPC   C1A47271   4.353   0.393   6.450
 8040POPC   D2A47272   4.336   0.471   6.750
 8040POPC   C3A47273   4.321   0.477   7.050
 8040POPC   C4A47274   4.332   0.409   7.350
 8040POPC   C1B47275   4.379   0.213   6.450
 8040POPC   C2B47276   4.402   0.203   6.750
 8040POPC   C3B47277   4.414   0.162   7.050
 8040POPC   C4B47278   4.425   0.168   7.350
 8041POPC   NC347279  32.283  42.361   5.550
 8041POPC   PO447280  32.219  42.325   5.850
 8041POPC   GL147281  32.262  42.340   6.150
 8041POPC   GL247282  32.131  42.309   6.150
 8041POPC   C1A47283  32.207  42.340   6.450
 8041POPC   D2A47284  32.288  42.344   6.750
 8041POPC   C3A47285  32.203  42.338   7.050
 8041POPC   C4A47286  32.286  42.297   7.350
 8041POPC   C1B47287  31.988  42.244   6.450
 8041POPC   C2B47288  31.977  42.290   6.750
 8041POPC   C3B47289  31.993  42.256   7.050
 8041POPC   C4B47290  32.036  42.311   7.350
 8042POPC   NC347291  15.201  27.631   5.550
 8042POPC   PO447292  15.146  27.591   5.850
 8042POPC   GL147293  15.187  27.631   6.150
 8042POPC   GL247294  15.152  27.503   6.150
 8042POPC   C1A47295  15.166  27.628   6.450
 8042POPC   D2A47296  15.164  27.560   6.750
 8042POPC   C3A47297  15.173  27.604   7.050
 8042POPC   C4A47298  15.169  27.567   7.350
 8042POPC   C1B47299  15.131  27.330   6.450
 8042POPC   C2B47300  15.110  27.312   6.750
 8042POPC   C3B47301  15.189  27.307   7.050
 8042POPC   C4B47302  15.115  27.297   7.350
 8043POPC   NC347303  43.070   0.448   5.550
 8043POPC   PO447304  43.139   0.429   5.850
 8043POPC   GL147305  43.112   0.391   6.150
 8043POPC   GL247306  43.234   0.481   6.150
 8043POPC   C1A47307  43.151   0.459   6.450
 8043POPC   D2A47308  43.101   0.432   6.750
 8043POPC   C3A47309  43.127   0.435   7.050
 8043POPC   C4A47310  43.097   0.486   7.350
 8043POPC   C1B47311  43.272   0.595   6.450
 8043POPC   C2B47312  43.298   0.620   6.750
 8043POPC   C3B47313  43.269   0.591   7.050
 8043POPC   C4B47314  43.317   0.634   7.350
 8044POPC   NC347315  25.288  39.229   5.550
 8044POPC   PO447316  25.310  39.280   5.850
 8044POPC   GL147317  25.299  39.242   6.150
 8044POPC   GL247318  25.191  39.084   6.150
 8044POPC   C1A47319  25.216  39.207   6.450
 8044POPC   D2A47320  25.233  39.269   6.750
 8044POPC   C3A47321  25.309  39.213   7.050
 8044POPC   C4A47322  25.288  39.200   7.350
 8044POPC   C1B47323  25.236  39.024   6.450
 8044POPC   C2B47324  25.180  38.960   6.750
 8044POPC   C3B47325  25.166  38.967   7.050
 8044POPC   C4B47326  25.191  39.006   7.350
 8045POPC   NC347327  40.824  16.683   5.550
 8045POPC   PO447328  40.795  16.701   5.850
 8045POPC   GL147329  40.809  16.684   6.150
 8045POPC   GL247330  40.725  16.760   6.150
 8045POPC   C1A47331  40.742  16.720   6.450
 8045POPC   D2A47332  40.735  16.728   6.750
 8045POPC   C3A47333  40.752  16.708   7.050
 8045POPC   C4A47334  40.771  16.712   7.350
 8045POPC   C1B47335  40.617  16.843   6.450
 8045POPC   C2B47336  40.583  16.890   6.750
 8045POPC   C3B47337  40.605  16.860   7.050
 8045POPC   C4B47338  40.544  16.860   7.350
 8046POPC   NC347339  14.453  26.789   5.550
 8046POPC   PO447340  14.451  26.815   5.850
 8046POPC   GL147341  14.447  26.835   6.150
 8046POPC   GL247342  14.268  26.744   6.150
 8046POPC   C1A47343  14.362  26.775   6.450
 8046POPC   D2A47344  14.359  26.769   6.750
 8046POPC   C3A47345  14.397  26.806   7.050
 8046POPC   C4A47346  14.449  26.806   7.350
 8046POPC   C1B47347  14.129  26.691   6.450
 8046POPC   C2B47348  14.155  26.747   6.750
 8046POPC   C3B47349  14.213  26.720   7.050
 8046POPC   C4B47350  14.176  26.745   7.350
 8047POPC   NC347351  23.682  25.301   5.550
 8047POPC   PO447352  23.702  25.284   5.850
 8047POPC   GL147353  23.677  25.252   6.150
 8047POPC   GL247354  23.771  25.384   6.150
 8047POPC   C1A47355  23.689  25.264   6.450
 8047POPC   D2A47356  23.693  25.255   6.750
 8047POPC   C3A47357  23.695  25.223   7.050
 8047POPC   C4A47358  23.743  25.226   7.350
 8047POPC   C1B47359  23.914  25.430   6.450
 8047POPC   C2B47360  23.933  25.408   6.750
 8047POPC   C3B47361  23.894  25.452   7.050
 8047POPC   C4B47362  23.869  25.382   7.350
 8048POPC   NC347363  20.630  43.108   5.550
 8048POPC   PO447364  20.608  43.147   5.850
 8048POPC   GL147365  20.599  43.096   6.150
 8048POPC   GL247366  20.575  42.972   6.150
 8048POPC   C1A47367  20.628  43.094   6.450
 8048POPC   D2A47368  20.587  43.151   6.750
 8048POPC   C3A47369  20.656  43.068   7.050
 8048POPC   C4A47370  20.563  43.087   7.350
 8048POPC   C1B47371  20.523  42.914   6.450
 8048POPC   C2B47372  20.507  42.904   6.750
 8048POPC   C3B47373  20.478  42.896   7.050
 8048POPC   C4B47374  20.543  42.846   7.350
 8049POPC   NC347375  43.118  27.550   5.550
 8049POPC   PO447376  43.157  27.562   5.850
 8049POPC   GL147377  43.095  27.583   6.150
 8049POPC   GL247378  43.172  27.714   6.150
 8049POPC   C1A47379  43.124  27.620   6.450
 8049POPC   D2A47380  43.135  27.637   6.750
 8049POPC   C3A47381  43.072  27.636   7.050
 8049POPC   C4A47382  43.077  27.581   7.350
 8049POPC   C1B47383  43.283  27.804   6.450
 8049POPC   C2B47384  43.239  27.744   6.750
 8049POPC   C3B47385  43.313  27.743   7.050
 8049POPC   C4B47386  43.237  27.810   7.350
 8050POPC   NC347387   3.499  40.739   5.550
 8050POPC   PO447388   3.506  40.744   5.850
 8050POPC   GL147389   3.554  40.780   6.150
 8050POPC   GL247390   3.529  40.622   6.150
 8050POPC   C1A47391   3.577  40.763   6.450
 8050POPC   D2A47392   3.501  40.770   6.750
 8050POPC   C3A47393   3.552  40.801   7.050
 8050POPC   C4A47394   3.531  40.813   7.350
 8050POPC   C1B47395   3.606  40.560   6.450
 8050POPC   C2B47396   3.612  40.497   6.750
 8050POPC   C3B47397   3.644  40.558   7.050
 8050POPC   C4B47398   3.587  40.588   7.350
 8051POPC   NC347399   5.062  24.444   5.550
 8051POPC   PO447400   5.080  24.489   5.850
 8051POPC   GL147401   5.060  24.521   6.150
 8051POPC   GL247402   4.964  24.411   6.150
 8051POPC   C1A47403   5.102  24.518   6.450
 8051POPC   D2A47404   5.137  24.521   6.750
 8051POPC   C3A47405   5.138  24.451   7.050
 8051POPC   C4A47406   5.080  24.448   7.350
 8051POPC   C1B47407   4.841  24.396   6.450
 8051POPC   C2B47408   4.886  24.402   6.750
 8051POPC   C3B47409   4.889  24.352   7.050
 8051POPC   C4B47410   4.833  24.368   7.350
 8052POPC   NC347411  41.545  27.544   5.550
 8052POPC   PO447412  41.559  27.636   5.850
 8052POPC   GL147413  41.582  27.574   6.150
 8052POPC   GL247414  41.540  27.682   6.150
 8052POPC   C1A47415  41.531  27.590   6.450
 8052POPC   D2A47416  41.523  27.558   6.750
 8052POPC   C3A47417  41.563  27.622   7.050
 8052POPC   C4A47418  41.531  27.642   7.350
 8052POPC   C1B47419  41.615  27.822   6.450
 8052POPC   C2B47420  41.568  27.886   6.750
 8052POPC   C3B47421  41.581  27.864   7.050
 8052POPC   C4B47422  41.555  27.860   7.350
 8053POPC   NC347423  39.200  19.097   5.550
 8053POPC   PO447424  39.214  19.064   5.850
 8053POPC   GL147425  39.250  19.099   6.150
 8053POPC   GL247426  39.084  19.033   6.150
 8053POPC   C1A47427  39.257  19.103   6.450
 8053POPC   D2A47428  39.195  19.064   6.750
 8053POPC   C3A47429  39.212  19.024   7.050
 8053POPC   C4A47430  39.240  19.052   7.350
 8053POPC   C1B47431  39.033  19.020   6.450
 8053POPC   C2B47432  39.009  19.005   6.750
 8053POPC   C3B47433  38.990  19.021   7.050
 8053POPC   C4B47434  38.985  18.999   7.350
 8054POPC   NC347435  32.210  32.269   5.550
 8054POPC   PO447436  32.246  32.205   5.850
 8054POPC   GL147437  32.205  32.252   6.150
 8054POPC   GL247438  32.383  32.231   6.150
 8054POPC   C1A47439  32.293  32.213   6.450
 8054POPC   D2A47440  32.238  32.276   6.750
 8054POPC   C3A47441  32.261  32.262   7.050
 8054POPC   C4A47442  32.268  32.285   7.350
 8054POPC   C1B47443  32.530  32.262   6.450
 8054POPC   C2B47444  32.455  32.276   6.750
 8054POPC   C3B47445  32.506  32.303   7.050
 8054POPC   C4B47446  32.533  32.311   7.350
 8055POPC   NC347447  11.261  39.246   5.550
 8055POPC   PO447448  11.257  39.258   5.850
 8055POPC   GL147449  11.279  39.208   6.150
 8055POPC   GL247450  11.171  39.236   6.150
 8055POPC   C1A47451  11.313  39.244   6.450
 8055POPC   D2A47452  11.316  39.228   6.750
 8055POPC   C3A47453  11.275  39.248   7.050
 8055POPC   C4A47454  11.258  39.196   7.350
 8055POPC   C1B47455  11.071  39.191   6.450
 8055POPC   C2B47456  11.081  39.174   6.750
 8055POPC   C3B47457  11.041  39.131   7.050
 8055POPC   C4B47458  11.060  39.129   7.350
 8056POPC   NC347459  30.739  23.698   5.550
 8056POPC   PO447460  30.658  23.693   5.850
 8056POPC   GL147461  30.690  23.706   6.150
 8056POPC   GL247462  30.641  23.815   6.150
 8056POPC   C1A47463  30.733  23.675   6.450
 8056POPC   D2A47464  30.729  23.725   6.750
 8056POPC   C3A47465  30.658  23.683   7.050
 8056POPC   C4A47466  30.740  23.683   7.350
 8056POPC   C1B47467  30.515  23.916   6.450
 8056POPC   C2B47468  30.521  23.881   6.750
 8056POPC   C3B47469  30.572  23.895   7.050
 8056POPC   C4B47470  30.528  23.853   7.350
 8057POPC   NC347471  15.911   3.563   5.550
 8057POPC   PO447472  15.932   3.548   5.850
 8057POPC   GL147473  15.983   3.516   6.150
 8057POPC   GL247474  16.072   3.488   6.150
 8057POPC   C1A47475  15.974   3.559   6.450
 8057POPC   D2A47476  15.986   3.571   6.750
 8057POPC   C3A47477  15.979   3.525   7.050
 8057POPC   C4A47478  15.946   3.569   7.350
 8057POPC   C1B47479  16.216   3.478   6.450
 8057POPC   C2B47480  16.217   3.463   6.750
 8057POPC   C3B47481  16.155   3.502   7.050
 8057POPC   C4B47482  16.239   3.417   7.350
 8058POPC   NC347483   2.009  15.191   5.550
 8058POPC   PO447484   1.974  15.139   5.850
 8058POPC   GL147485   1.941  15.133   6.150
 8058POPC   GL247486   1.949  15.077   6.150
 8058POPC   C1A47487   2.012  15.187   6.450
 8058POPC   D2A47488   1.952  15.148   6.750
 8058POPC   C3A47489   2.018  15.189   7.050
 8058POPC   C4A47490   1.956  15.140   7.350
 8058POPC   C1B47491   1.865  14.929   6.450
 8058POPC   C2B47492   1.814  15.021   6.750
 8058POPC   C3B47493   1.871  14.956   7.050
 8058POPC   C4B47494   1.808  14.950   7.350
 8059POPC   NC347495  17.546  26.040   5.550
 8059POPC   PO447496  17.522  26.008   5.850
 8059POPC   GL147497  17.472  26.047   6.150
 8059POPC   GL247498  17.481  26.178   6.150
 8059POPC   C1A47499  17.524  26.079   6.450
 8059POPC   D2A47500  17.535  26.021   6.750
 8059POPC   C3A47501  17.467  26.013   7.050
 8059POPC   C4A47502  17.545  26.066   7.350
 8059POPC   C1B47503  17.339  26.273   6.450
 8059POPC   C2B47504  17.380  26.235   6.750
 8059POPC   C3B47505  17.362  26.280   7.050
 8059POPC   C4B47506  17.309  26.203   7.350
 8060POPC   NC347507  13.592  24.509   5.550
 8060POPC   PO447508  13.649  24.536   5.850
 8060POPC   GL147509  13.669  24.533   6.150
 8060POPC   GL247510  13.693  24.428   6.150
 8060POPC   C1A47511  13.657  24.483   6.450
 8060POPC   D2A47512  13.613  24.530   6.750
 8060POPC   C3A47513  13.674  24.538   7.050
 8060POPC   C4A47514  13.664  24.485   7.350
 8060POPC   C1B47515  13.837  24.322   6.450
 8060POPC   C2B47516  13.809  24.290   6.750
 8060POPC   C3B47517  13.793  24.352   7.050
 8060POPC   C4B47518  13.814  24.264   7.350
 8061POPC   NC347519  43.085  25.233   5.550
 8061POPC   PO447520  43.077  25.239   5.850
 8061POPC   GL147521  43.072  25.298   6.150
 8061POPC   GL247522  43.056  25.399   6.150
 8061POPC   C1A47523  43.067  25.292   6.450
 8061POPC   D2A47524  43.148  25.229   6.750
 8061POPC   C3A47525  43.137  25.267   7.050
 8061POPC   C4A47526  43.071  25.233   7.350
 8061POPC   C1B47527  43.069  25.550   6.450
 8061POPC   C2B47528  43.140  25.493   6.750
 8061POPC   C3B47529  43.134  25.552   7.050
 8061POPC   C4B47530  43.119  25.500   7.350
 8062POPC   NC347531   3.521  34.570   5.550
 8062POPC   PO447532   3.554  34.579   5.850
 8062POPC   GL147533   3.535  34.596   6.150
 8062POPC   GL247534   3.567  34.453   6.150
 8062POPC   C1A47535   3.565  34.594   6.450
 8062POPC   D2A47536   3.507  34.570   6.750
 8062POPC   C3A47537   3.499  34.555   7.050
 8062POPC   C4A47538   3.531  34.557   7.350
 8062POPC   C1B47539   3.544  34.348   6.450
 8062POPC   C2B47540   3.510  34.343   6.750
 8062POPC   C3B47541   3.506  34.301   7.050
 8062POPC   C4B47542   3.529  34.310   7.350
 8063POPC   NC347543  41.597   9.019   5.550
 8063POPC   PO447544  41.544   9.006   5.850
 8063POPC   GL147545  41.515   8.996   6.150
 8063POPC   GL247546  41.524   8.839   6.150
 8063POPC   C1A47547  41.549   8.929   6.450
 8063POPC   D2A47548  41.578   9.015   6.750
 8063POPC   C3A47549  41.538   8.964   7.050
 8063POPC   C4A47550  41.576   8.987   7.350
 8063POPC   C1B47551  41.428   8.753   6.450
 8063POPC   C2B47552  41.453   8.742   6.750
 8063POPC   C3B47553  41.508   8.776   7.050
 8063POPC   C4B47554  41.436   8.739   7.350
 8064POPC   NC347555  33.060  14.369   5.550
 8064POPC   PO447556  33.022  14.408   5.850
 8064POPC   GL147557  33.046  14.369   6.150
 8064POPC   GL247558  33.095  14.439   6.150
 8064POPC   C1A47559  33.024  14.403   6.450
 8064POPC   D2A47560  32.980  14.399   6.750
 8064POPC   C3A47561  32.978  14.438   7.050
 8064POPC   C4A47562  33.008  14.397   7.350
 8064POPC   C1B47563  33.222  14.488   6.450
 8064POPC   C2B47564  33.248  14.511   6.750
 8064POPC   C3B47565  33.239  14.438   7.050
 8064POPC   C4B47566  33.240  14.453   7.350
 8065POPC   NC347567   9.000  39.218   5.550
 8065POPC   PO447568   8.960  39.225   5.850
 8065POPC   GL147569   9.020  39.228   6.150
 8065POPC   GL247570   8.887  39.214   6.150
 8065POPC   C1A47571   9.011  39.264   6.450
 8065POPC   D2A47572   9.013  39.269   6.750
 8065POPC   C3A47573   8.976  39.209   7.050
 8065POPC   C4A47574   9.000  39.260   7.350
 8065POPC   C1B47575   8.733  39.212   6.450
 8065POPC   C2B47576   8.736  39.207   6.750
 8065POPC   C3B47577   8.698  39.260   7.050
 8065POPC   C4B47578   8.716  39.225   7.350
 8066POPC   NC347579  12.874  15.942   5.550
 8066POPC   PO447580  12.870  15.982   5.850
 8066POPC   GL147581  12.900  15.910   6.150
 8066POPC   GL247582  12.922  15.833   6.150
 8066POPC   C1A47583  12.803  16.004   6.450
 8066POPC   D2A47584  12.893  15.938   6.750
 8066POPC   C3A47585  12.856  15.973   7.050
 8066POPC   C4A47586  12.862  15.920   7.350
 8066POPC   C1B47587  13.067  15.800   6.450
 8066POPC   C2B47588  13.002  15.758   6.750
 8066POPC   C3B47589  13.041  15.812   7.050
 8066POPC   C4B47590  13.018  15.798   7.350
 8067POPC   NC347591  25.249   3.550   5.550
 8067POPC   PO447592  25.280   3.570   5.850
 8067POPC   GL147593  25.229   3.575   6.150
 8067POPC   GL247594  25.175   3.585   6.150
 8067POPC   C1A47595  25.292   3.529   6.450
 8067POPC   D2A47596  25.246   3.555   6.750
 8067POPC   C3A47597  25.240   3.558   7.050
 8067POPC   C4A47598  25.305   3.567   7.350
 8067POPC   C1B47599  25.071   3.749   6.450
 8067POPC   C2B47600  25.056   3.730   6.750
 8067POPC   C3B47601  25.073   3.730   7.050
 8067POPC   C4B47602  25.095   3.678   7.350
 8068POPC   NC347603   5.101  21.428   5.550
 8068POPC   PO447604   5.054  21.393   5.850
 8068POPC   GL147605   5.110  21.351   6.150
 8068POPC   GL247606   5.143  21.444   6.150
 8068POPC   C1A47607   5.100  21.405   6.450
 8068POPC   D2A47608   5.140  21.337   6.750
 8068POPC   C3A47609   5.073  21.401   7.050
 8068POPC   C4A47610   5.084  21.421   7.350
 8068POPC   C1B47611   5.284  21.557   6.450
 8068POPC   C2B47612   5.280  21.563   6.750
 8068POPC   C3B47613   5.277  21.538   7.050
 8068POPC   C4B47614   5.289  21.615   7.350
 8069POPC   NC347615   9.000  11.314   5.550
 8069POPC   PO447616   8.979  11.346   5.850
 8069POPC   GL147617   8.993  11.319   6.150
 8069POPC   GL247618   8.853  11.230   6.150
 8069POPC   C1A47619   8.986  11.327   6.450
 8069POPC   D2A47620   8.926  11.267   6.750
 8069POPC   C3A47621   8.993  11.314   7.050
 8069POPC   C4A47622   8.979  11.287   7.350
 8069POPC   C1B47623   8.855  11.067   6.450
 8069POPC   C2B47624   8.815  11.105   6.750
 8069POPC   C3B47625   8.827  11.084   7.050
 8069POPC   C4B47626   8.801  11.118   7.350
 8070POPC   NC347627   2.735  33.031   5.550
 8070POPC   PO447628   2.804  33.035   5.850
 8070POPC   GL147629   2.791  33.035   6.150
 8070POPC   GL247630   2.737  33.161   6.150
 8070POPC   C1A47631   2.790  33.002   6.450
 8070POPC   D2A47632   2.758  32.978   6.750
 8070POPC   C3A47633   2.786  32.998   7.050
 8070POPC   C4A47634   2.716  33.038   7.350
 8070POPC   C1B47635   2.599  33.217   6.450
 8070POPC   C2B47636   2.677  33.278   6.750
 8070POPC   C3B47637   2.684  33.209   7.050
 8070POPC   C4B47638   2.629  33.270   7.350
 8071POPC   NC347639  26.799  10.501   5.550
 8071POPC   PO447640  26.794  10.531   5.850
 8071POPC   GL147641  26.833  10.542   6.150
 8071POPC   GL247642  26.910  10.438   6.150
 8071POPC   C1A47643  26.832  10.533   6.450
 8071POPC   D2A47644  26.771  10.547   6.750
 8071POPC   C3A47645  26.778  10.526   7.050
 8071POPC   C4A47646  26.854  10.554   7.350
 8071POPC   C1B47647  27.023  10.355   6.450
 8071POPC   C2B47648  27.041  10.367   6.750
 8071POPC   C3B47649  27.072  10.390   7.050
 8071POPC   C4B47650  27.051  10.447   7.350
 8072POPC   NC347651  35.355  28.335   5.550
 8072POPC   PO447652  35.304  28.410   5.850
 8072POPC   GL147653  35.333  28.365   6.150
 8072POPC   GL247654  35.193  28.406   6.150
 8072POPC   C1A47655  35.317  28.320   6.450
 8072POPC   D2A47656  35.372  28.400   6.750
 8072POPC   C3A47657  35.402  28.367   7.050
 8072POPC   C4A47658  35.357  28.390   7.350
 8072POPC   C1B47659  35.122  28.531   6.450
 8072POPC   C2B47660  35.085  28.511   6.750
 8072POPC   C3B47661  35.114  28.501   7.050
 8072POPC   C4B47662  35.133  28.467   7.350
 8073POPC   NC347663   6.604   0.439   5.550
 8073POPC   PO447664   6.687   0.465   5.850
 8073POPC   GL147665   6.614   0.478   6.150
 8073POPC   GL247666   6.553   0.515   6.150
 8073POPC   C1A47667   6.669   0.446   6.450
 8073POPC   D2A47668   6.646   0.414   6.750
 8073POPC   C3A47669   6.643   0.411   7.050
 8073POPC   C4A47670   6.644   0.422   7.350
 8073POPC   C1B47671   6.422   0.611   6.450
 8073POPC   C2B47672   6.392   0.614   6.750
 8073POPC   C3B47673   6.413   0.558   7.050
 8073POPC   C4B47674   6.415   0.564   7.350
 8074POPC   NC347675  39.233  38.410   5.550
 8074POPC   PO447676  39.235  38.445   5.850
 8074POPC   GL147677  39.235  38.413   6.150
 8074POPC   GL247678  39.276  38.349   6.150
 8074POPC   C1A47679  39.222  38.422   6.450
 8074POPC   D2A47680  39.193  38.410   6.750
 8074POPC   C3A47681  39.228  38.505   7.050
 8074POPC   C4A47682  39.260  38.477   7.350
 8074POPC   C1B47683  39.353  38.192   6.450
 8074POPC   C2B47684  39.297  38.206   6.750
 8074POPC   C3B47685  39.378  38.229   7.050
 8074POPC   C4B47686  39.352  38.203   7.350
 8075POPC   NC347687  31.488  43.140   5.550
 8075POPC   PO447688  31.518  43.152   5.850
 8075POPC   GL147689  31.457  43.152   6.150
 8075POPC   GL247690  31.337  43.071   6.150
 8075POPC   C1A47691  31.494  43.116   6.450
 8075POPC   D2A47692  31.466  43.065   6.750
 8075POPC   C3A47693  31.462  43.136   7.050
 8075POPC   C4A47694  31.460  43.067   7.350
 8075POPC   C1B47695  31.216  43.059   6.450
 8075POPC   C2B47696  31.262  43.121   6.750
 8075POPC   C3B47697  31.190  43.057   7.050
 8075POPC   C4B47698  31.179  43.136   7.350
 8076POPC   NC347699  25.308  43.896   5.550
 8076POPC   PO447700  25.237  43.879   5.850
 8076POPC   GL147701  25.272  43.911   6.150
 8076POPC   GL247702  25.391  43.913   6.150
 8076POPC   C1A47703  25.240  43.854   6.450
 8076POPC   D2A47704  25.266  43.855   6.750
 8076POPC   C3A47705  25.233  43.874   7.050
 8076POPC   C4A47706  25.292  43.887   7.350
 8076POPC   C1B47707  25.510  44.034   6.450
 8076POPC   C2B47708  25.487  44.010   6.750
 8076POPC   C3B47709  25.458  43.983   7.050
 8076POPC   C4B47710  25.449  43.953   7.350
 8077POPC   NC347711  36.124  20.607   5.550
 8077POPC   PO447712  36.157  20.646   5.850
 8077POPC   GL147713  36.142  20.606   6.150
 8077POPC   GL247714  36.240  20.521   6.150
 8077POPC   C1A47715  36.159  20.654   6.450
 8077POPC   D2A47716  36.108  20.591   6.750
 8077POPC   C3A47717  36.117  20.594   7.050
 8077POPC   C4A47718  36.080  20.604   7.350
 8077POPC   C1B47719  36.258  20.447   6.450
 8077POPC   C2B47720  36.285  20.458   6.750
 8077POPC   C3B47721  36.238  20.444   7.050
 8077POPC   C4B47722  36.268  20.369   7.350
 8078POPC   NC347723  10.564  21.387   5.550
 8078POPC   PO447724  10.506  21.416   5.850
 8078POPC   GL147725  10.480  21.418   6.150
 8078POPC   GL247726  10.519  21.296   6.150
 8078POPC   C1A47727  10.525  21.430   6.450
 8078POPC   D2A47728  10.517  21.369   6.750
 8078POPC   C3A47729  10.502  21.382   7.050
 8078POPC   C4A47730  10.507  21.429   7.350
 8078POPC   C1B47731  10.567  21.179   6.450
 8078POPC   C2B47732  10.557  21.151   6.750
 8078POPC   C3B47733  10.522  21.133   7.050
 8078POPC   C4B47734  10.595  21.165   7.350
 8079POPC   NC347735  25.230  29.915   5.550
 8079POPC   PO447736  25.285  29.887   5.850
 8079POPC   GL147737  25.268  29.931   6.150
 8079POPC   GL247738  25.179  29.992   6.150
 8079POPC   C1A47739  25.226  29.949   6.450
 8079POPC   D2A47740  25.278  29.913   6.750
 8079POPC   C3A47741  25.301  29.933   7.050
 8079POPC   C4A47742  25.230  29.909   7.350
 8079POPC   C1B47743  25.162  30.101   6.450
 8079POPC   C2B47744  25.114  30.146   6.750
 8079POPC   C3B47745  25.166  30.104   7.050
 8079POPC   C4B47746  25.146  30.137   7.350
 8080POPC   NC347747  33.812  10.474   5.550
 8080POPC   PO447748  33.815  10.569   5.850
 8080POPC   GL147749  33.828  10.561   6.150
 8080POPC   GL247750  33.689  10.489   6.150
 8080POPC   C1A47751  33.773  10.482   6.450
 8080POPC   D2A47752  33.843  10.552   6.750
 8080POPC   C3A47753  33.795  10.537   7.050
 8080POPC   C4A47754  33.785  10.540   7.350
 8080POPC   C1B47755  33.616  10.467   6.450
 8080POPC   C2B47756  33.542  10.387   6.750
 8080POPC   C3B47757  33.566  10.395   7.050
 8080POPC   C4B47758  33.587  10.460   7.350
 8081POPC   NC347759  34.565  12.121   5.550
 8081POPC   PO447760  34.609  12.114   5.850
 8081POPC   GL147761  34.588  12.052   6.150
 8081POPC   GL247762  34.510  12.169   6.150
 8081POPC   C1A47763  34.532  12.061   6.450
 8081POPC   D2A47764  34.599  12.037   6.750
 8081POPC   C3A47765  34.619  12.031   7.050
 8081POPC   C4A47766  34.579  12.093   7.350
 8081POPC   C1B47767  34.493  12.312   6.450
 8081POPC   C2B47768  34.497  12.272   6.750
 8081POPC   C3B47769  34.507  12.360   7.050
 8081POPC   C4B47770  34.497  12.298   7.350
 8082POPC   NC347771   1.166  38.441   5.550
 8082POPC   PO447772   1.233  38.488   5.850
 8082POPC   GL147773   1.183  38.440   6.150
 8082POPC   GL247774   1.172  38.615   6.150
 8082POPC   C1A47775   1.166  38.473   6.450
 8082POPC   D2A47776   1.252  38.432   6.750
 8082POPC   C3A47777   1.241  38.449   7.050
 8082POPC   C4A47778   1.178  38.478   7.350
 8082POPC   C1B47779   1.126  38.740   6.450
 8082POPC   C2B47780   1.161  38.663   6.750
 8082POPC   C3B47781   1.170  38.722   7.050
 8082POPC   C4B47782   1.138  38.673   7.350
 8083POPC   NC347783  33.047   1.197   5.550
 8083POPC   PO447784  32.996   1.212   5.850
 8083POPC   GL147785  33.005   1.195   6.150
 8083POPC   GL247786  33.092   1.356   6.150
 8083POPC   C1A47787  33.070   1.249   6.450
 8083POPC   D2A47788  33.009   1.249   6.750
 8083POPC   C3A47789  33.000   1.170   7.050
 8083POPC   C4A47790  33.001   1.186   7.350
 8083POPC   C1B47791  33.122   1.467   6.450
 8083POPC   C2B47792  33.045   1.456   6.750
 8083POPC   C3B47793  33.077   1.494   7.050
 8083POPC   C4B47794  33.080   1.470   7.350
 8084POPC   NC347795  43.901  29.145   5.550
 8084POPC   PO447796  43.860  29.108   5.850
 8084POPC   GL147797  43.907  29.147   6.150
 8084POPC   GL247798  43.882  29.078   6.150
 8084POPC   C1A47799  43.933  29.113   6.450
 8084POPC   D2A47800  43.914  29.165   6.750
 8084POPC   C3A47801  43.838  29.174   7.050
 8084POPC   C4A47802  43.862  29.167   7.350
 8084POPC   C1B47803  43.746  28.882   6.450
 8084POPC   C2B47804  43.824  28.949   6.750
 8084POPC   C3B47805  43.746  28.878   7.050
 8084POPC   C4B47806  43.738  28.949   7.350
 8085POPC   NC347807  39.254  23.759   5.550
 8085POPC   PO447808  39.186  23.749   5.850
 8085POPC   GL147809  39.230  23.702   6.150
 8085POPC   GL247810  39.238  23.572   6.150
 8085POPC   C1A47811  39.256  23.744   6.450
 8085POPC   D2A47812  39.240  23.673   6.750
 8085POPC   C3A47813  39.234  23.716   7.050
 8085POPC   C4A47814  39.203  23.751   7.350
 8085POPC   C1B47815  39.273  23.441   6.450
 8085POPC   C2B47816  39.287  23.467   6.750
 8085POPC   C3B47817  39.207  23.506   7.050
 8085POPC   C4B47818  39.280  23.479   7.350
 8086POPC   NC347819  26.030   1.941   5.550
 8086POPC   PO447820  26.001   1.945   5.850
 8086POPC   GL147821  26.065   1.965   6.150
 8086POPC   GL247822  26.148   1.891   6.150
 8086POPC   C1A47823  26.034   2.026   6.450
 8086POPC   D2A47824  26.000   2.028   6.750
 8086POPC   C3A47825  26.031   2.038   7.050
 8086POPC   C4A47826  26.088   1.978   7.350
 8086POPC   C1B47827  26.228   1.896   6.450
 8086POPC   C2B47828  26.304   1.881   6.750
 8086POPC   C3B47829  26.278   1.884   7.050
 8086POPC   C4B47830  26.272   1.919   7.350
 8087POPC   NC347831  44.663  36.132   5.550
 8087POPC   PO447832  44.695  36.102   5.850
 8087POPC   GL147833  44.703  36.112   6.150
 8087POPC   GL247834  44.755  36.276   6.150
 8087POPC   C1A47835  44.697  36.090   6.450
 8087POPC   D2A47836  44.624  36.158   6.750
 8087POPC   C3A47837  44.634  36.126   7.050
 8087POPC   C4A47838  44.620  36.151   7.350
 8087POPC   C1B47839  44.778  36.371   6.450
 8087POPC   C2B47840  44.721  36.405   6.750
 8087POPC   C3B47841  44.783  36.351   7.050
 8087POPC   C4B47842  44.733  36.368   7.350
 8088POPC   NC347843  18.271   1.212   5.550
 8088POPC   PO447844  18.330   1.253   5.850
 8088POPC   GL147845  18.254   1.252   6.150
 8088POPC   GL247846  18.175   1.296   6.150
 8088POPC   C1A47847  18.242   1.176   6.450
 8088POPC   D2A47848  18.254   1.210   6.750
 8088POPC   C3A47849  18.318   1.214   7.050
 8088POPC   C4A47850  18.276   1.224   7.350
 8088POPC   C1B47851  18.064   1.434   6.450
 8088POPC   C2B47852  18.137   1.347   6.750
 8088POPC   C3B47853  18.110   1.430   7.050
 8088POPC   C4B47854  18.090   1.400   7.350
 8089POPC   NC347855  28.377  35.387   5.550
 8089POPC   PO447856  28.366  35.309   5.850
 8089POPC   GL147857  28.385  35.366   6.150
 8089POPC   GL247858  28.473  35.451   6.150
 8089POPC   C1A47859  28.334  35.307   6.450
 8089POPC   D2A47860  28.336  35.365   6.750
 8089POPC   C3A47861  28.357  35.346   7.050
 8089POPC   C4A47862  28.412  35.358   7.350
 8089POPC   C1B47863  28.584  35.505   6.450
 8089POPC   C2B47864  28.496  35.528   6.750
 8089POPC   C3B47865  28.507  35.513   7.050
 8089POPC   C4B47866  28.534  35.499   7.350
 8090POPC   NC347867   5.099   2.723   5.550
 8090POPC   PO447868   5.049   2.798   5.850
 8090POPC   GL147869   5.123   2.761   6.150
 8090POPC   GL247870   5.022   2.709   6.150
 8090POPC   C1A47871   5.141   2.815   6.450
 8090POPC   D2A47872   5.125   2.813   6.750
 8090POPC   C3A47873   5.086   2.763   7.050
 8090POPC   C4A47874   5.094   2.806   7.350
 8090POPC   C1B47875   4.881   2.607   6.450
 8090POPC   C2B47876   4.927   2.596   6.750
 8090POPC   C3B47877   4.894   2.613   7.050
 8090POPC   C4B47878   4.932   2.628   7.350
 8091POPC   NC347879  25.996  12.890   5.550
 8091POPC   PO447880  26.003  12.816   5.850
 8091POPC   GL147881  26.069  12.820   6.150
 8091POPC   GL247882  25.934  12.959   6.150
 8091POPC   C1A47883  26.075  12.854   6.450
 8091POPC   D2A47884  26.061  12.872   6.750
 8091POPC   C3A47885  26.052  12.869   7.050
 8091POPC   C4A47886  25.995  12.864   7.350
 8091POPC   C1B47887  25.899  13.028   6.450
 8091POPC   C2B47888  25.915  13.008   6.750
 8091POPC   C3B47889  25.893  13.080   7.050
 8091POPC   C4B47890  25.840  13.098   7.350
 8092POPC   NC347891   4.288  30.705   5.550
 8092POPC   PO447892   4.328  30.696   5.850
 8092POPC   GL147893   4.290  30.734   6.150
 8092POPC   GL247894   4.314  30.804   6.150
 8092POPC   C1A47895   4.314  30.672   6.450
 8092POPC   D2A47896   4.303  30.651   6.750
 8092POPC   C3A47897   4.303  30.726   7.050
 8092POPC   C4A47898   4.347  30.662   7.350
 8092POPC   C1B47899   4.283  30.973   6.450
 8092POPC   C2B47900   4.276  30.912   6.750
 8092POPC   C3B47901   4.255  30.886   7.050
 8092POPC   C4B47902   4.198  30.932   7.350
 8093POPC   NC347903  22.132  16.681   5.550
 8093POPC   PO447904  22.160  16.703   5.850
 8093POPC   GL147905  22.137  16.730   6.150
 8093POPC   GL247906  22.300  16.651   6.150
 8093POPC   C1A47907  22.145  16.751   6.450
 8093POPC   D2A47908  22.163  16.758   6.750
 8093POPC   C3A47909  22.133  16.760   7.050
 8093POPC   C4A47910  22.198  16.756   7.350
 8093POPC   C1B47911  22.331  16.647   6.450
 8093POPC   C2B47912  22.338  16.637   6.750
 8093POPC   C3B47913  22.353  16.551   7.050
 8093POPC   C4B47914  22.350  16.593   7.350
 8094POPC   NC347915  17.513  41.549   5.550
 8094POPC   PO447916  17.458  41.605   5.850
 8094POPC   GL147917  17.478  41.606   6.150
 8094POPC   GL247918  17.390  41.551   6.150
 8094POPC   C1A47919  17.551  41.582   6.450
 8094POPC   D2A47920  17.503  41.590   6.750
 8094POPC   C3A47921  17.488  41.536   7.050
 8094POPC   C4A47922  17.544  41.590   7.350
 8094POPC   C1B47923  17.256  41.601   6.450
 8094POPC   C2B47924  17.261  41.608   6.750
 8094POPC   C3B47925  17.245  41.551   7.050
 8094POPC   C4B47926  17.270  41.606   7.350
 8095POPC   NC347927  15.964   2.742   5.550
 8095POPC   PO447928  15.981   2.788   5.850
 8095POPC   GL147929  15.943   2.757   6.150
 8095POPC   GL247930  15.898   2.689   6.150
 8095POPC   C1A47931  15.929   2.785   6.450
 8095POPC   D2A47932  15.953   2.771   6.750
 8095POPC   C3A47933  15.976   2.777   7.050
 8095POPC   C4A47934  15.979   2.726   7.350
 8095POPC   C1B47935  15.733   2.649   6.450
 8095POPC   C2B47936  15.711   2.630   6.750
 8095POPC   C3B47937  15.784   2.622   7.050
 8095POPC   C4B47938  15.729   2.655   7.350
 8096POPC   NC347939  35.324   7.430   5.550
 8096POPC   PO447940  35.328   7.420   5.850
 8096POPC   GL147941  35.376   7.408   6.150
 8096POPC   GL247942  35.230   7.532   6.150
 8096POPC   C1A47943  35.347   7.389   6.450
 8096POPC   D2A47944  35.397   7.394   6.750
 8096POPC   C3A47945  35.348   7.388   7.050
 8096POPC   C4A47946  35.307   7.450   7.350
 8096POPC   C1B47947  35.160   7.583   6.450
 8096POPC   C2B47948  35.141   7.574   6.750
 8096POPC   C3B47949  35.116   7.583   7.050
 8096POPC   C4B47950  35.120   7.526   7.350
 8097POPC   NC347951  34.613  15.958   5.550
 8097POPC   PO447952  34.549  15.951   5.850
 8097POPC   GL147953  34.598  15.950   6.150
 8097POPC   GL247954  34.640  15.787   6.150
 8097POPC   C1A47955  34.543  15.957   6.450
 8097POPC   D2A47956  34.559  15.934   6.750
 8097POPC   C3A47957  34.561  15.978   7.050
 8097POPC   C4A47958  34.567  15.973   7.350
 8097POPC   C1B47959  34.629  15.670   6.450
 8097POPC   C2B47960  34.638  15.683   6.750
 8097POPC   C3B47961  34.658  15.688   7.050
 8097POPC   C4B47962  34.595  15.731   7.350
 8098POPC   NC347963   9.771  43.935   5.550
 8098POPC   PO447964   9.723  43.930   5.850
 8098POPC   GL147965   9.726  43.875   6.150
 8098POPC   GL247966   9.700  43.942   6.150
 8098POPC   C1A47967   9.772  43.857   6.450
 8098POPC   D2A47968   9.739  43.889   6.750
 8098POPC   C3A47969   9.730  43.922   7.050
 8098POPC   C4A47970   9.782  43.850   7.350
 8098POPC   C1B47971   9.542  44.068   6.450
 8098POPC   C2B47972   9.526  44.077   6.750
 8098POPC   C3B47973   9.576  44.066   7.050
 8098POPC   C4B47974   9.580  44.090   7.350
 8099POPC   NC347975  41.566   8.205   5.550
 8099POPC   PO447976  41.582   8.171   5.850
 8099POPC   GL147977  41.607   8.206   6.150
 8099POPC   GL247978  41.626   8.080   6.150
 8099POPC   C1A47979  41.539   8.219   6.450
 8099POPC   D2A47980  41.582   8.226   6.750
 8099POPC   C3A47981  41.534   8.233   7.050
 8099POPC   C4A47982  41.551   8.215   7.350
 8099POPC   C1B47983  41.566   7.983   6.450
 8099POPC   C2B47984  41.631   7.953   6.750
 8099POPC   C3B47985  41.612   7.952   7.050
 8099POPC   C4B47986  41.566   7.917   7.350
 8100POPC   NC347987   0.395  15.157   5.550
 8100POPC   PO447988   0.392  15.183   5.850
 8100POPC   GL147989   0.441  15.136   6.150
 8100POPC   GL247990   0.331  15.297   6.150
 8100POPC   C1A47991   0.394  15.202   6.450
 8100POPC   D2A47992   0.423  15.225   6.750
 8100POPC   C3A47993   0.394  15.181   7.050
 8100POPC   C4A47994   0.479  15.186   7.350
 8100POPC   C1B47995   0.232  15.307   6.450
 8100POPC   C2B47996   0.199  15.378   6.750
 8100POPC   C3B47997   0.260  15.324   7.050
 8100POPC   C4B47998   0.286  15.329   7.350
 8101POPC   NC347999  19.846  14.421   5.550
 8101POPC   PO448000  19.867  14.414   5.850
 8101POPC   GL148001  19.799  14.419   6.150
 8101POPC   GL248002  19.870  14.473   6.150
 8101POPC   C1A48003  19.806  14.374   6.450
 8101POPC   D2A48004  19.846  14.419   6.750
 8101POPC   C3A48005  19.862  14.368   7.050
 8101POPC   C4A48006  19.813  14.449   7.350
 8101POPC   C1B48007  19.969  14.609   6.450
 8101POPC   C2B48008  20.009  14.604   6.750
 8101POPC   C3B48009  19.999  14.596   7.050
 8101POPC   C4B48010  19.996  14.609   7.350
 8102POPC   NC348011  36.151  12.889   5.550
 8102POPC   PO448012  36.114  12.850   5.850
 8102POPC   GL148013  36.129  12.830   6.150
 8102POPC   GL248014  36.038  12.885   6.150
 8102POPC   C1A48015  36.175  12.890   6.450
 8102POPC   D2A48016  36.094  12.867   6.750
 8102POPC   C3A48017  36.148  12.892   7.050
 8102POPC   C4A48018  36.120  12.818   7.350
 8102POPC   C1B48019  35.940  12.981   6.450
 8102POPC   C2B48020  35.976  12.963   6.750
 8102POPC   C3B48021  35.904  13.023   7.050
 8102POPC   C4B48022  35.934  13.019   7.350
 8103POPC   NC348023  24.496  34.606   5.550
 8103POPC   PO448024  24.475  34.547   5.850
 8103POPC   GL148025  24.473  34.580   6.150
 8103POPC   GL248026  24.351  34.521   6.150
 8103POPC   C1A48027  24.522  34.545   6.450
 8103POPC   D2A48028  24.495  34.580   6.750
 8103POPC   C3A48029  24.535  34.584   7.050
 8103POPC   C4A48030  24.499  34.560   7.350
 8103POPC   C1B48031  24.246  34.519   6.450
 8103POPC   C2B48032  24.251  34.542   6.750
 8103POPC   C3B48033  24.211  34.522   7.050
 8103POPC   C4B48034  24.246  34.509   7.350
 8104POPC   NC348035   6.612  26.843   5.550
 8104POPC   PO448036   6.621  26.815   5.850
 8104POPC   GL148037   6.684  26.777   6.150
 8104POPC   GL248038   6.651  26.704   6.150
 8104POPC   C1A48039   6.664  26.857   6.450
 8104POPC   D2A48040   6.683  26.835   6.750
 8104POPC   C3A48041   6.601  26.830   7.050
 8104POPC   C4A48042   6.673  26.784   7.350
 8104POPC   C1B48043   6.627  26.518   6.450
 8104POPC   C2B48044   6.672  26.617   6.750
 8104POPC   C3B48045   6.679  26.532   7.050
 8104POPC   C4B48046   6.596  26.557   7.350
 8105POPC   NC348047  21.435  29.968   5.550
 8105POPC   PO448048  21.366  29.922   5.850
 8105POPC   GL148049  21.370  29.969   6.150
 8105POPC   GL248050  21.249  29.968   6.150
 8105POPC   C1A48051  21.420  29.871   6.450
 8105POPC   D2A48052  21.433  29.906   6.750
 8105POPC   C3A48053  21.347  29.904   7.050
 8105POPC   C4A48054  21.350  29.905   7.350
 8105POPC   C1B48055  21.120  29.951   6.450
 8105POPC   C2B48056  21.095  29.987   6.750
 8105POPC   C3B48057  21.090  29.964   7.050
 8105POPC   C4B48058  21.113  29.921   7.350
 8106POPC   NC348059   8.224  19.093   5.550
 8106POPC   PO448060   8.172  19.022   5.850
 8106POPC   GL148061   8.176  19.012   6.150
 8106POPC   GL248062   8.054  19.146   6.150
 8106POPC   C1A48063   8.160  19.064   6.450
 8106POPC   D2A48064   8.220  19.031   6.750
 8106POPC   C3A48065   8.149  19.027   7.050
 8106POPC   C4A48066   8.234  19.022   7.350
 8106POPC   C1B48067   7.980  19.189   6.450
 8106POPC   C2B48068   7.981  19.194   6.750
 8106POPC   C3B48069   8.037  19.208   7.050
 8106POPC   C4B48070   8.016  19.187   7.350
 8107POPC   NC348071   5.119   9.018   5.550
 8107POPC   PO448072   5.141   8.957   5.850
 8107POPC   GL148073   5.052   8.981   6.150
 8107POPC   GL248074   5.170   9.016   6.150
 8107POPC   C1A48075   5.054   9.005   6.450
 8107POPC   D2A48076   5.110   8.993   6.750
 8107POPC   C3A48077   5.080   8.927   7.050
 8107POPC   C4A48078   5.115   8.933   7.350
 8107POPC   C1B48079   5.320   9.094   6.450
 8107POPC   C2B48080   5.357   9.011   6.750
 8107POPC   C3B48081   5.370   9.103   7.050
 8107POPC   C4B48082   5.343   9.057   7.350
 8108POPC   NC348083  33.763  18.272   5.550
 8108POPC   PO448084  33.823  18.284   5.850
 8108POPC   GL148085  33.844  18.328   6.150
 8108POPC   GL248086  33.642  18.223   6.150
 8108POPC   C1A48087  33.757  18.251   6.450
 8108POPC   D2A48088  33.837  18.244   6.750
 8108POPC   C3A48089  33.825  18.252   7.050
 8108POPC   C4A48090  33.816  18.246   7.350
 8108POPC   C1B48091  33.609  18.194   6.450
 8108POPC   C2B48092  33.600  18.171   6.750
 8108POPC   C3B48093  33.551  18.147   7.050
 8108POPC   C4B48094  33.595  18.213   7.350
 8109POPC   NC348095  22.936   1.995   5.550
 8109POPC   PO448096  22.938   2.007   5.850
 8109POPC   GL148097  22.938   1.959   6.150
 8109POPC   GL248098  22.873   1.922   6.150
 8109POPC   C1A48099  22.933   1.981   6.450
 8109POPC   D2A48100  22.953   1.993   6.750
 8109POPC   C3A48101  22.968   1.943   7.050
 8109POPC   C4A48102  22.892   2.016   7.350
 8109POPC   C1B48103  22.820   1.792   6.450
 8109POPC   C2B48104  22.831   1.802   6.750
 8109POPC   C3B48105  22.820   1.777   7.050
 8109POPC   C4B48106  22.785   1.762   7.350
 8110POPC   NC348107  22.202   5.083   5.550
 8110POPC   PO448108  22.193   5.077   5.850
 8110POPC   GL148109  22.178   5.085   6.150
 8110POPC   GL248110  22.189   4.978   6.150
 8110POPC   C1A48111  22.162   5.128   6.450
 8110POPC   D2A48112  22.159   5.049   6.750
 8110POPC   C3A48113  22.124   5.116   7.050
 8110POPC   C4A48114  22.151   5.070   7.350
 8110POPC   C1B48115  22.139   4.868   6.450
 8110POPC   C2B48116  22.194   4.853   6.750
 8110POPC   C3B48117  22.185   4.837   7.050
 8110POPC   C4B48118  22.192   4.797   7.350
 8111POPC   NC348119  38.492  22.953   5.550
 8111POPC   PO448120  38.415  22.957   5.850
 8111POPC   GL148121  38.424  22.920   6.150
 8111POPC   GL248122  38.522  23.028   6.150
 8111POPC   C1A48123  38.407  22.986   6.450
 8111POPC   D2A48124  38.439  22.925   6.750
 8111POPC   C3A48125  38.500  22.963   7.050
 8111POPC   C4A48126  38.424  22.917   7.350
 8111POPC   C1B48127  38.716  23.022   6.450
 8111POPC   C2B48128  38.684  23.041   6.750
 8111POPC   C3B48129  38.669  23.066   7.050
 8111POPC   C4B48130  38.669  23.006   7.350
 8112POPC   NC348131   2.778  29.940   5.550
 8112POPC   PO448132   2.794  29.876   5.850
 8112POPC   GL148133   2.773  29.964   6.150
 8112POPC   GL248134   2.763  30.032   6.150
 8112POPC   C1A48135   2.739  29.968   6.450
 8112POPC   D2A48136   2.725  29.874   6.750
 8112POPC   C3A48137   2.809  29.872   7.050
 8112POPC   C4A48138   2.767  29.937   7.350
 8112POPC   C1B48139   2.742  30.150   6.450
 8112POPC   C2B48140   2.711  30.205   6.750
 8112POPC   C3B48141   2.763  30.138   7.050
 8112POPC   C4B48142   2.758  30.180   7.350
 8113POPC   NC348143  38.463  12.863   5.550
 8113POPC   PO448144  38.493  12.894   5.850
 8113POPC   GL148145  38.427  12.837   6.150
 8113POPC   GL248146  38.588  12.806   6.150
 8113POPC   C1A48147  38.450  12.819   6.450
 8113POPC   D2A48148  38.484  12.829   6.750
 8113POPC   C3A48149  38.429  12.807   7.050
 8113POPC   C4A48150  38.411  12.849   7.350
 8113POPC   C1B48151  38.664  12.872   6.450
 8113POPC   C2B48152  38.699  12.842   6.750
 8113POPC   C3B48153  38.754  12.846   7.050
 8113POPC   C4B48154  38.723  12.890   7.350
 8114POPC   NC348155  19.848  35.368   5.550
 8114POPC   PO448156  19.820  35.378   5.850
 8114POPC   GL148157  19.789  35.364   6.150
 8114POPC   GL248158  19.781  35.498   6.150
 8114POPC   C1A48159  19.855  35.352   6.450
 8114POPC   D2A48160  19.806  35.379   6.750
 8114POPC   C3A48161  19.795  35.392   7.050
 8114POPC   C4A48162  19.790  35.351   7.350
 8114POPC   C1B48163  19.687  35.572   6.450
 8114POPC   C2B48164  19.726  35.601   6.750
 8114POPC   C3B48165  19.725  35.600   7.050
 8114POPC   C4B48166  19.683  35.570   7.350
 8115POPC   NC348167  15.917  17.524   5.550
 8115POPC   PO448168  15.935  17.527   5.850
 8115POPC   GL148169  15.922  17.508   6.150
 8115POPC   GL248170  16.079  17.476   6.150
 8115POPC   C1A48171  15.978  17.481   6.450
 8115POPC   D2A48172  15.954  17.504   6.750
 8115POPC   C3A48173  15.927  17.484   7.050
 8115POPC   C4A48174  15.933  17.459   7.350
 8115POPC   C1B48175  16.146  17.370   6.450
 8115POPC   C2B48176  16.148  17.362   6.750
 8115POPC   C3B48177  16.141  17.446   7.050
 8115POPC   C4B48178  16.162  17.375   7.350
 8116POPC   NC348179  13.656  18.291   5.550
 8116POPC   PO448180  13.665  18.261   5.850
 8116POPC   GL148181  13.654  18.249   6.150
 8116POPC   GL248182  13.518  18.416   6.150
 8116POPC   C1A48183  13.628  18.317   6.450
 8116POPC   D2A48184  13.615  18.268   6.750
 8116POPC   C3A48185  13.591  18.324   7.050
 8116POPC   C4A48186  13.659  18.299   7.350
 8116POPC   C1B48187  13.509  18.470   6.450
 8116POPC   C2B48188  13.480  18.495   6.750
 8116POPC   C3B48189  13.433  18.463   7.050
 8116POPC   C4B48190  13.461  18.434   7.350
 8117POPC   NC348191  33.027   8.219   5.550
 8117POPC   PO448192  33.036   8.239   5.850
 8117POPC   GL148193  33.058   8.195   6.150
 8117POPC   GL248194  33.107   8.183   6.150
 8117POPC   C1A48195  33.029   8.214   6.450
 8117POPC   D2A48196  33.017   8.239   6.750
 8117POPC   C3A48197  33.019   8.210   7.050
 8117POPC   C4A48198  33.015   8.225   7.350
 8117POPC   C1B48199  33.231   8.185   6.450
 8117POPC   C2B48200  33.287   8.209   6.750
 8117POPC   C3B48201  33.261   8.208   7.050
 8117POPC   C4B48202  33.279   8.266   7.350
 8118POPC   NC348203  19.868   2.815   5.550
 8118POPC   PO448204  19.814   2.735   5.850
 8118POPC   GL148205  19.806   2.768   6.150
 8118POPC   GL248206  19.987   2.747   6.150
 8118POPC   C1A48207  19.878   2.739   6.450
 8118POPC   D2A48208  19.819   2.781   6.750
 8118POPC   C3A48209  19.832   2.805   7.050
 8118POPC   C4A48210  19.871   2.811   7.350
 8118POPC   C1B48211  20.029   2.611   6.450
 8118POPC   C2B48212  20.032   2.646   6.750
 8118POPC   C3B48213  20.077   2.665   7.050
 8118POPC   C4B48214  20.034   2.696   7.350
 8119POPC   NC348215  18.322  37.629   5.550
 8119POPC   PO448216  18.303  37.671   5.850
 8119POPC   GL148217  18.317  37.720   6.150
 8119POPC   GL248218  18.205  37.717   6.150
 8119POPC   C1A48219  18.237  37.704   6.450
 8119POPC   D2A48220  18.263  37.631   6.750
 8119POPC   C3A48221  18.324  37.656   7.050
 8119POPC   C4A48222  18.239  37.704   7.350
 8119POPC   C1B48223  18.074  37.790   6.450
 8119POPC   C2B48224  18.013  37.801   6.750
 8119POPC   C3B48225  18.082  37.759   7.050
 8119POPC   C4B48226  18.036  37.766   7.350
 8120POPC   NC348227  32.252   9.021   5.550
 8120POPC   PO448228  32.226   8.966   5.850
 8120POPC   GL148229  32.253   8.927   6.150
 8120POPC   GL248230  32.239   9.116   6.150
 8120POPC   C1A48231  32.298   8.924   6.450
 8120POPC   D2A48232  32.202   8.981   6.750
 8120POPC   C3A48233  32.222   9.006   7.050
 8120POPC   C4A48234  32.211   8.933   7.350
 8120POPC   C1B48235  32.352   9.258   6.450
 8120POPC   C2B48236  32.271   9.238   6.750
 8120POPC   C3B48237  32.297   9.218   7.050
 8120POPC   C4B48238  32.270   9.259   7.350
 8121POPC   NC348239   6.598  12.068   5.550
 8121POPC   PO448240   6.636  12.031   5.850
 8121POPC   GL148241   6.607  12.125   6.150
 8121POPC   GL248242   6.637  11.970   6.150
 8121POPC   C1A48243   6.685  12.056   6.450
 8121POPC   D2A48244   6.666  12.033   6.750
 8121POPC   C3A48245   6.687  12.062   7.050
 8121POPC   C4A48246   6.687  12.101   7.350
 8121POPC   C1B48247   6.650  11.828   6.450
 8121POPC   C2B48248   6.649  11.783   6.750
 8121POPC   C3B48249   6.707  11.872   7.050
 8121POPC   C4B48250   6.691  11.867   7.350
 8122POPC   NC348251   5.883  12.872   5.550
 8122POPC   PO448252   5.850  12.848   5.850
 8122POPC   GL148253   5.912  12.860   6.150
 8122POPC   GL248254   6.003  12.781   6.150
 8122POPC   C1A48255   5.881  12.869   6.450
 8122POPC   D2A48256   5.913  12.859   6.750
 8122POPC   C3A48257   5.850  12.823   7.050
 8122POPC   C4A48258   5.892  12.813   7.350
 8122POPC   C1B48259   6.115  12.773   6.450
 8122POPC   C2B48260   6.072  12.765   6.750
 8122POPC   C3B48261   6.066  12.784   7.050
 8122POPC   C4B48262   6.086  12.793   7.350
 8123POPC   NC348263  21.430  40.771   5.550
 8123POPC   PO448264  21.395  40.822   5.850
 8123POPC   GL148265  21.372  40.771   6.150
 8123POPC   GL248266  21.258  40.793   6.150
 8123POPC   C1A48267  21.411  40.784   6.450
 8123POPC   D2A48268  21.424  40.748   6.750
 8123POPC   C3A48269  21.373  40.805   7.050
 8123POPC   C4A48270  21.366  40.828   7.350
 8123POPC   C1B48271  21.120  40.769   6.450
 8123POPC   C2B48272  21.134  40.783   6.750
 8123POPC   C3B48273  21.119  40.810   7.050
 8123POPC   C4B48274  21.129  40.804   7.350
 8124POPC   NC348275  30.707  30.653   5.550
 8124POPC   PO448276  30.656  30.730   5.850
 8124POPC   GL148277  30.670  30.705   6.150
 8124POPC   GL248278  30.598  30.809   6.150
 8124POPC   C1A48279  30.660  30.711   6.450
 8124POPC   D2A48280  30.656  30.667   6.750
 8124POPC   C3A48281  30.735  30.715   7.050
 8124POPC   C4A48282  30.732  30.714   7.350
 8124POPC   C1B48283  30.599  30.942   6.450
 8124POPC   C2B48284  30.617  30.889   6.750
 8124POPC   C3B48285  30.590  30.896   7.050
 8124POPC   C4B48286  30.564  30.897   7.350
 8125POPC   NC348287   1.181  15.187   5.550
 8125POPC   PO448288   1.169  15.152   5.850
 8125POPC   GL148289   1.167  15.184   6.150
 8125POPC   GL248290   1.074  15.241   6.150
 8125POPC   C1A48291   1.207  15.227   6.450
 8125POPC   D2A48292   1.251  15.160   6.750
 8125POPC   C3A48293   1.214  15.132   7.050
 8125POPC   C4A48294   1.234  15.160   7.350
 8125POPC   C1B48295   0.968  15.262   6.450
 8125POPC   C2B48296   0.954  15.306   6.750
 8125POPC   C3B48297   1.010  15.304   7.050
 8125POPC   C4B48298   1.039  15.343   7.350
 8126POPC   NC348299  29.945   2.768   5.550
 8126POPC   PO448300  29.883   2.779   5.850
 8126POPC   GL148301  29.959   2.762   6.150
 8126POPC   GL248302  29.844   2.760   6.150
 8126POPC   C1A48303  29.914   2.744   6.450
 8126POPC   D2A48304  29.905   2.741   6.750
 8126POPC   C3A48305  29.961   2.770   7.050
 8126POPC   C4A48306  29.918   2.725   7.350
 8126POPC   C1B48307  29.704   2.795   6.450
 8126POPC   C2B48308  29.702   2.817   6.750
 8126POPC   C3B48309  29.691   2.729   7.050
 8126POPC   C4B48310  29.659   2.827   7.350
 8127POPC   NC348311   0.459  43.127   5.550
 8127POPC   PO448312   0.446  43.141   5.850
 8127POPC   GL148313   0.486  43.096   6.150
 8127POPC   GL248314   0.335  43.212   6.150
 8127POPC   C1A48315   0.441  43.108   6.450
 8127POPC   D2A48316   0.439  43.075   6.750
 8127POPC   C3A48317   0.480  43.098   7.050
 8127POPC   C4A48318   0.460  43.090   7.350
 8127POPC   C1B48319   0.321  43.274   6.450
 8127POPC   C2B48320   0.260  43.322   6.750
 8127POPC   C3B48321   0.327  43.345   7.050
 8127POPC   C4B48322   0.286  43.274   7.350
 8128POPC   NC348323  27.641  26.818   5.550
 8128POPC   PO448324  27.556  26.839   5.850
 8128POPC   GL148325  27.621  26.855   6.150
 8128POPC   GL248326  27.646  26.738   6.150
 8128POPC   C1A48327  27.546  26.775   6.450
 8128POPC   D2A48328  27.579  26.830   6.750
 8128POPC   C3A48329  27.640  26.776   7.050
 8128POPC   C4A48330  27.564  26.835   7.350
 8128POPC   C1B48331  27.671  26.589   6.450
 8128POPC   C2B48332  27.642  26.605   6.750
 8128POPC   C3B48333  27.616  26.595   7.050
 8128POPC   C4B48334  27.695  26.543   7.350
 8129POPC   NC348335  28.357  25.997   5.550
 8129POPC   PO448336  28.343  26.081   5.850
 8129POPC   GL148337  28.401  26.021   6.150
 8129POPC   GL248338  28.292  25.896   6.150
 8129POPC   C1A48339  28.390  26.023   6.450
 8129POPC   D2A48340  28.327  26.057   6.750
 8129POPC   C3A48341  28.338  26.079   7.050
 8129POPC   C4A48342  28.380  26.073   7.350
 8129POPC   C1B48343  28.205  25.816   6.450
 8129POPC   C2B48344  28.202  25.788   6.750
 8129POPC   C3B48345  28.207  25.823   7.050
 8129POPC   C4B48346  28.230  25.868   7.350
 8130POPC   NC348347  29.102   0.398   5.550
 8130POPC   PO448348  29.187   0.444   5.850
 8130POPC   GL148349  29.102   0.389   6.150
 8130POPC   GL248350  29.059   0.481   6.150
 8130POPC   C1A48351  29.176   0.432   6.450
 8130POPC   D2A48352  29.129   0.461   6.750
 8130POPC   C3A48353  29.116   0.485   7.050
 8130POPC   C4A48354  29.141   0.482   7.350
 8130POPC   C1B48355  28.933   0.481   6.450
 8130POPC   C2B48356  28.864   0.484   6.750
 8130POPC   C3B48357  28.935   0.438   7.050
 8130POPC   C4B48358  28.925   0.485   7.350
 8131POPC   NC348359  29.104  20.590   5.550
 8131POPC   PO448360  29.149  20.565   5.850
 8131POPC   GL148361  29.154  20.647   6.150
 8131POPC   GL248362  29.061  20.684   6.150
 8131POPC   C1A48363  29.186  20.589   6.450
 8131POPC   D2A48364  29.131  20.594   6.750
 8131POPC   C3A48365  29.158  20.567   7.050
 8131POPC   C4A48366  29.157  20.637   7.350
 8131POPC   C1B48367  28.907  20.714   6.450
 8131POPC   C2B48368  28.954  20.694   6.750
 8131POPC   C3B48369  28.891  20.717   7.050
 8131POPC   C4B48370  28.890  20.682   7.350
 8132POPC   NC348371  22.972  20.585   5.550
 8132POPC   PO448372  22.988  20.592   5.850
 8132POPC   GL148373  22.952  20.562   6.150
 8132POPC   GL248374  22.908  20.706   6.150
 8132POPC   C1A48375  22.905  20.641   6.450
 8132POPC   D2A48376  22.971  20.618   6.750
 8132POPC   C3A48377  22.958  20.596   7.050
 8132POPC   C4A48378  22.967  20.609   7.350
 8132POPC   C1B48379  22.837  20.839   6.450
 8132POPC   C2B48380  22.761  20.765   6.750
 8132POPC   C3B48381  22.795  20.791   7.050
 8132POPC   C4B48382  22.771  20.862   7.350
 8133POPC   NC348383  40.029  25.219   5.550
 8133POPC   PO448384  40.046  25.303   5.850
 8133POPC   GL148385  39.983  25.261   6.150
 8133POPC   GL248386  40.080  25.168   6.150
 8133POPC   C1A48387  40.040  25.242   6.450
 8133POPC   D2A48388  40.001  25.305   6.750
 8133POPC   C3A48389  40.038  25.222   7.050
 8133POPC   C4A48390  40.001  25.232   7.350
 8133POPC   C1B48391  40.250  25.084   6.450
 8133POPC   C2B48392  40.216  25.097   6.750
 8133POPC   C3B48393  40.185  25.174   7.050
 8133POPC   C4B48394  40.204  25.097   7.350
 8134POPC   NC348395  19.832  19.786   5.550
 8134POPC   PO448396  19.806  19.821   5.850
 8134POPC   GL148397  19.817  19.788   6.150
 8134POPC   GL248398  19.934  19.741   6.150
 8134POPC   C1A48399  19.818  19.812   6.450
 8134POPC   D2A48400  19.873  19.785   6.750
 8134POPC   C3A48401  19.842  19.884   7.050
 8134POPC   C4A48402  19.874  19.833   7.350
 8134POPC   C1B48403  20.057  19.672   6.450
 8134POPC   C2B48404  20.084  19.729   6.750
 8134POPC   C3B48405  20.056  19.729   7.050
 8134POPC   C4B48406  20.010  19.718   7.350
 8135POPC   NC348407   9.725   8.230   5.550
 8135POPC   PO448408   9.753   8.198   5.850
 8135POPC   GL148409   9.770   8.242   6.150
 8135POPC   GL248410   9.637   8.126   6.150
 8135POPC   C1A48411   9.783   8.242   6.450
 8135POPC   D2A48412   9.793   8.226   6.750
 8135POPC   C3A48413   9.713   8.158   7.050
 8135POPC   C4A48414   9.698   8.230   7.350
 8135POPC   C1B48415   9.573   7.996   6.450
 8135POPC   C2B48416   9.615   7.997   6.750
 8135POPC   C3B48417   9.543   7.993   7.050
 8135POPC   C4B48418   9.565   8.041   7.350
 8136POPC   NC348419  16.000  29.154   5.550
 8136POPC   PO448420  15.971  29.121   5.850
 8136POPC   GL148421  15.983  29.193   6.150
 8136POPC   GL248422  15.895  29.253   6.150
 8136POPC   C1A48423  15.952  29.175   6.450
 8136POPC   D2A48424  16.001  29.129   6.750
 8136POPC   C3A48425  15.993  29.134   7.050
 8136POPC   C4A48426  15.951  29.124   7.350
 8136POPC   C1B48427  15.784  29.363   6.450
 8136POPC   C2B48428  15.806  29.311   6.750
 8136POPC   C3B48429  15.813  29.351   7.050
 8136POPC   C4B48430  15.753  29.348   7.350
 8137POPC   NC348431  23.754  21.360   5.550
 8137POPC   PO448432  23.762  21.397   5.850
 8137POPC   GL148433  23.747  21.435   6.150
 8137POPC   GL248434  23.739  21.250   6.150
 8137POPC   C1A48435  23.726  21.418   6.450
 8137POPC   D2A48436  23.719  21.403   6.750
 8137POPC   C3A48437  23.698  21.394   7.050
 8137POPC   C4A48438  23.664  21.364   7.350
 8137POPC   C1B48439  23.695  21.091   6.450
 8137POPC   C2B48440  23.692  21.099   6.750
 8137POPC   C3B48441  23.659  21.186   7.050
 8137POPC   C4B48442  23.642  21.166   7.350
 8138POPC   NC348443  20.634  32.259   5.550
 8138POPC   PO448444  20.604  32.218   5.850
 8138POPC   GL148445  20.590  32.267   6.150
 8138POPC   GL248446  20.499  32.287   6.150
 8138POPC   C1A48447  20.609  32.255   6.450
 8138POPC   D2A48448  20.628  32.199   6.750
 8138POPC   C3A48449  20.654  32.278   7.050
 8138POPC   C4A48450  20.567  32.256   7.350
 8138POPC   C1B48451  20.474  32.438   6.450
 8138POPC   C2B48452  20.382  32.412   6.750
 8138POPC   C3B48453  20.460  32.380   7.050
 8138POPC   C4B48454  20.429  32.441   7.350
 8139POPC   NC348455  40.831  23.721   5.550
 8139POPC   PO448456  40.740  23.686   5.850
 8139POPC   GL148457  40.809  23.757   6.150
 8139POPC   GL248458  40.807  23.797   6.150
 8139POPC   C1A48459  40.804  23.727   6.450
 8139POPC   D2A48460  40.760  23.745   6.750
 8139POPC   C3A48461  40.825  23.687   7.050
 8139POPC   C4A48462  40.761  23.709   7.350
 8139POPC   C1B48463  40.760  23.980   6.450
 8139POPC   C2B48464  40.811  23.950   6.750
 8139POPC   C3B48465  40.761  23.915   7.050
 8139POPC   C4B48466  40.746  23.940   7.350
 8140POPC   NC348467  23.669   1.182   5.550
 8140POPC   PO448468  23.730   1.211   5.850
 8140POPC   GL148469  23.762   1.174   6.150
 8140POPC   GL248470  23.593   1.304   6.150
 8140POPC   C1A48471  23.719   1.203   6.450
 8140POPC   D2A48472  23.710   1.215   6.750
 8140POPC   C3A48473  23.741   1.171   7.050
 8140POPC   C4A48474  23.667   1.250   7.350
 8140POPC   C1B48475  23.446   1.297   6.450
 8140POPC   C2B48476  23.535   1.342   6.750
 8140POPC   C3B48477  23.492   1.317   7.050
 8140POPC   C4B48478  23.494   1.367   7.350
 8141POPC   NC348479  31.433   4.281   5.550
 8141POPC   PO448480  31.431   4.287   5.850
 8141POPC   GL148481  31.471   4.344   6.150
 8141POPC   GL248482  31.368   4.372   6.150
 8141POPC   C1A48483  31.484   4.327   6.450
 8141POPC   D2A48484  31.508   4.355   6.750
 8141POPC   C3A48485  31.453   4.358   7.050
 8141POPC   C4A48486  31.446   4.272   7.350
 8141POPC   C1B48487  31.231   4.405   6.450
 8141POPC   C2B48488  31.197   4.346   6.750
 8141POPC   C3B48489  31.275   4.367   7.050
 8141POPC   C4B48490  31.232   4.352   7.350
 8142POPC   NC348491  26.845  44.623   5.550
 8142POPC   PO448492  26.831  44.703   5.850
 8142POPC   GL148493  26.790  44.663   6.150
 8142POPC   GL248494  26.944  44.730   6.150
 8142POPC   C1A48495  26.789  44.687   6.450
 8142POPC   D2A48496  26.782  44.709   6.750
 8142POPC   C3A48497  26.857  44.709   7.050
 8142POPC   C4A48498  26.834  44.621   7.350
 8142POPC   C1B48499  26.965  44.844   6.450
 8142POPC   C2B48500  26.983  44.822   6.750
 8142POPC   C3B48501  26.957  44.878   7.050
 8142POPC   C4B48502  27.040  44.797   7.350
 8143POPC   NC348503   5.048   8.219   5.550
 8143POPC   PO448504   5.053   8.167   5.850
 8143POPC   GL148505   5.127   8.160   6.150
 8143POPC   GL248506   5.090   8.095   6.150
 8143POPC   C1A48507   5.057   8.156   6.450
 8143POPC   D2A48508   5.128   8.160   6.750
 8143POPC   C3A48509   5.135   8.241   7.050
 8143POPC   C4A48510   5.058   8.167   7.350
 8143POPC   C1B48511   5.050   7.929   6.450
 8143POPC   C2B48512   5.053   7.975   6.750
 8143POPC   C3B48513   5.022   7.951   7.050
 8143POPC   C4B48514   5.039   7.991   7.350
 8144POPC   NC348515   1.255  10.550   5.550
 8144POPC   PO448516   1.215  10.492   5.850
 8144POPC   GL148517   1.262  10.569   6.150
 8144POPC   GL248518   1.051  10.609   6.150
 8144POPC   C1A48519   1.248  10.491   6.450
 8144POPC   D2A48520   1.199  10.539   6.750
 8144POPC   C3A48521   1.217  10.505   7.050
 8144POPC   C4A48522   1.206  10.478   7.350
 8144POPC   C1B48523   0.939  10.573   6.450
 8144POPC   C2B48524   0.993  10.622   6.750
 8144POPC   C3B48525   0.956  10.661   7.050
 8144POPC   C4B48526   0.962  10.584   7.350
 8145POPC   NC348527   6.644  36.164   5.550
 8145POPC   PO448528   6.602  36.144   5.850
 8145POPC   GL148529   6.595  36.155   6.150
 8145POPC   GL248530   6.691  36.226   6.150
 8145POPC   C1A48531   6.616  36.132   6.450
 8145POPC   D2A48532   6.639  36.142   6.750
 8145POPC   C3A48533   6.612  36.159   7.050
 8145POPC   C4A48534   6.634  36.148   7.350
 8145POPC   C1B48535   6.678  36.375   6.450
 8145POPC   C2B48536   6.601  36.351   6.750
 8145POPC   C3B48537   6.600  36.426   7.050
 8145POPC   C4B48538   6.634  36.384   7.350
 8146POPC   NC348539  44.651  43.109   5.550
 8146POPC   PO448540  44.670  43.160   5.850
 8146POPC   GL148541  44.630  43.064   6.150
 8146POPC   GL248542  44.752  42.996   6.150
 8146POPC   C1A48543  44.689  43.066   6.450
 8146POPC   D2A48544  44.613  43.127   6.750
 8146POPC   C3A48545  44.689  43.116   7.050
 8146POPC   C4A48546  44.686  43.139   7.350
 8146POPC   C1B48547  44.862  42.898   6.450
 8146POPC   C2B48548  44.811  42.983   6.750
 8146POPC   C3B48549  44.864  42.966   7.050
 8146POPC   C4B48550  44.804  42.979   7.350
 8147POPC   NC348551   2.749  26.078   5.550
 8147POPC   PO448552   2.791  26.074   5.850
 8147POPC   GL148553   2.782  26.061   6.150
 8147POPC   GL248554   2.763  26.111   6.150
 8147POPC   C1A48555   2.800  26.000   6.450
 8147POPC   D2A48556   2.771  26.056   6.750
 8147POPC   C3A48557   2.768  26.006   7.050
 8147POPC   C4A48558   2.739  26.063   7.350
 8147POPC   C1B48559   2.667  26.325   6.450
 8147POPC   C2B48560   2.733  26.290   6.750
 8147POPC   C3B48561   2.730  26.253   7.050
 8147POPC   C4B48562   2.677  26.282   7.350
 8148POPC   NC348563  34.557  18.300   5.550
 8148POPC   PO448564  34.556  18.296   5.850
 8148POPC   GL148565  34.589  18.300   6.150
 8148POPC   GL248566  34.415  18.228   6.150
 8148POPC   C1A48567  34.601  18.283   6.450
 8148POPC   D2A48568  34.601  18.285   6.750
 8148POPC   C3A48569  34.554  18.297   7.050
 8148POPC   C4A48570  34.575  18.272   7.350
 8148POPC   C1B48571  34.354  18.219   6.450
 8148POPC   C2B48572  34.340  18.198   6.750
 8148POPC   C3B48573  34.321  18.208   7.050
 8148POPC   C4B48574  34.385  18.240   7.350
 8149POPC   NC348575   5.886  20.634   5.550
 8149POPC   PO448576   5.855  20.656   5.850
 8149POPC   GL148577   5.864  20.616   6.150
 8149POPC   GL248578   5.867  20.485   6.150
 8149POPC   C1A48579   5.842  20.646   6.450
 8149POPC   D2A48580   5.917  20.629   6.750
 8149POPC   C3A48581   5.848  20.590   7.050
 8149POPC   C4A48582   5.857  20.610   7.350
 8149POPC   C1B48583   5.881  20.398   6.450
 8149POPC   C2B48584   5.799  20.360   6.750
 8149POPC   C3B48585   5.834  20.381   7.050
 8149POPC   C4B48586   5.804  20.340   7.350
 8150POPC   NC348587   7.451  20.584   5.550
 8150POPC   PO448588   7.423  20.575   5.850
 8150POPC   GL148589   7.393  20.635   6.150
 8150POPC   GL248590   7.437  20.784   6.150
 8150POPC   C1A48591   7.429  20.593   6.450
 8150POPC   D2A48592   7.372  20.563   6.750
 8150POPC   C3A48593   7.426  20.568   7.050
 8150POPC   C4A48594   7.469  20.611   7.350
 8150POPC   C1B48595   7.424  20.897   6.450
 8150POPC   C2B48596   7.412  20.859   6.750
 8150POPC   C3B48597   7.363  20.876   7.050
 8150POPC   C4B48598   7.423  20.829   7.350
 8151POPC   NC348599  22.210  32.288   5.550
 8151POPC   PO448600  22.179  32.226   5.850
 8151POPC   GL148601  22.151  32.289   6.150
 8151POPC   GL248602  22.081  32.107   6.150
 8151POPC   C1A48603  22.145  32.284   6.450
 8151POPC   D2A48604  22.166  32.268   6.750
 8151POPC   C3A48605  22.150  32.280   7.050
 8151POPC   C4A48606  22.147  32.274   7.350
 8151POPC   C1B48607  22.097  32.061   6.450
 8151POPC   C2B48608  22.004  31.985   6.750
 8151POPC   C3B48609  22.063  32.040   7.050
 8151POPC   C4B48610  22.039  32.026   7.350
 8152POPC   NC348611  22.178  44.646   5.550
 8152POPC   PO448612  22.134  44.709   5.850
 8152POPC   GL148613  22.132  44.687   6.150
 8152POPC   GL248614  22.297  44.704   6.150
 8152POPC   C1A48615  22.146  44.670   6.450
 8152POPC   D2A48616  22.211  44.644   6.750
 8152POPC   C3A48617  22.177  44.656   7.050
 8152POPC   C4A48618  22.154  44.617   7.350
 8152POPC   C1B48619  22.369  44.692   6.450
 8152POPC   C2B48620  22.387  44.697   6.750
 8152POPC   C3B48621  22.411  44.693   7.050
 8152POPC   C4B48622  22.370  44.681   7.350
 8153POPC   NC348623  18.256  29.134   5.550
 8153POPC   PO448624  18.237  29.123   5.850
 8153POPC   GL148625  18.325  29.102   6.150
 8153POPC   GL248626  18.230  29.220   6.150
 8153POPC   C1A48627  18.255  29.174   6.450
 8153POPC   D2A48628  18.235  29.172   6.750
 8153POPC   C3A48629  18.325  29.095   7.050
 8153POPC   C4A48630  18.298  29.163   7.350
 8153POPC   C1B48631  18.105  29.313   6.450
 8153POPC   C2B48632  18.118  29.242   6.750
 8153POPC   C3B48633  18.109  29.244   7.050
 8153POPC   C4B48634  18.032  29.319   7.350
 8154POPC   NC348635  17.507  26.862   5.550
 8154POPC   PO448636  17.478  26.849   5.850
 8154POPC   GL148637  17.553  26.790   6.150
 8154POPC   GL248638  17.498  26.972   6.150
 8154POPC   C1A48639  17.513  26.770   6.450
 8154POPC   D2A48640  17.459  26.788   6.750
 8154POPC   C3A48641  17.531  26.798   7.050
 8154POPC   C4A48642  17.490  26.850   7.350
 8154POPC   C1B48643  17.424  27.039   6.450
 8154POPC   C2B48644  17.469  27.042   6.750
 8154POPC   C3B48645  17.466  27.077   7.050
 8154POPC   C4B48646  17.465  27.008   7.350
 8155POPC   NC348647  15.995  40.777   5.550
 8155POPC   PO448648  15.919  40.798   5.850
 8155POPC   GL148649  15.931  40.751   6.150
 8155POPC   GL248650  15.844  40.706   6.150
 8155POPC   C1A48651  15.919  40.812   6.450
 8155POPC   D2A48652  15.979  40.787   6.750
 8155POPC   C3A48653  15.957  40.745   7.050
 8155POPC   C4A48654  15.942  40.809   7.350
 8155POPC   C1B48655  15.728  40.696   6.450
 8155POPC   C2B48656  15.679  40.690   6.750
 8155POPC   C3B48657  15.750  40.727   7.050
 8155POPC   C4B48658  15.734  40.664   7.350
 8156POPC   NC348659  26.769  43.108   5.550
 8156POPC   PO448660  26.806  43.124   5.850
 8156POPC   GL148661  26.775  43.073   6.150
 8156POPC   GL248662  26.907  43.149   6.150
 8156POPC   C1A48663  26.802  43.143   6.450
 8156POPC   D2A48664  26.789  43.158   6.750
 8156POPC   C3A48665  26.831  43.145   7.050
 8156POPC   C4A48666  26.804  43.074   7.350
 8156POPC   C1B48667  27.040  43.134   6.450
 8156POPC   C2B48668  27.069  43.116   6.750
 8156POPC   C3B48669  27.023  43.073   7.050
 8156POPC   C4B48670  27.113  43.077   7.350
 8157POPC   NC348671   3.533  36.939   5.550
 8157POPC   PO448672   3.520  36.902   5.850
 8157POPC   GL148673   3.571  36.885   6.150
 8157POPC   GL248674   3.550  36.824   6.150
 8157POPC   C1A48675   3.497  36.893   6.450
 8157POPC   D2A48676   3.516  36.898   6.750
 8157POPC   C3A48677   3.531  36.901   7.050
 8157POPC   C4A48678   3.563  36.885   7.350
 8157POPC   C1B48679   3.522  36.630   6.450
 8157POPC   C2B48680   3.468  36.657   6.750
 8157POPC   C3B48681   3.521  36.692   7.050
 8157POPC   C4B48682   3.493  36.686   7.350
 8158POPC   NC348683  20.576   6.684   5.550
 8158POPC   PO448684  20.597   6.623   5.850
 8158POPC   GL148685  20.660   6.597   6.150
 8158POPC   GL248686  20.524   6.570   6.150
 8158POPC   C1A48687  20.641   6.630   6.450
 8158POPC   D2A48688  20.632   6.646   6.750
 8158POPC   C3A48689  20.606   6.658   7.050
 8158POPC   C4A48690  20.650   6.630   7.350
 8158POPC   C1B48691  20.456   6.537   6.450
 8158POPC   C2B48692  20.422   6.515   6.750
 8158POPC   C3B48693  20.399   6.453   7.050
 8158POPC   C4B48694  20.447   6.509   7.350
 8159POPC   NC348695  26.822  37.640   5.550
 8159POPC   PO448696  26.813  37.685   5.850
 8159POPC   GL148697  26.811  37.661   6.150
 8159POPC   GL248698  26.816  37.787   6.150
 8159POPC   C1A48699  26.854  37.681   6.450
 8159POPC   D2A48700  26.855  37.706   6.750
 8159POPC   C3A48701  26.782  37.683   7.050
 8159POPC   C4A48702  26.813  37.647   7.350
 8159POPC   C1B48703  26.886  37.892   6.450
 8159POPC   C2B48704  26.847  37.909   6.750
 8159POPC   C3B48705  26.903  37.894   7.050
 8159POPC   C4B48706  26.909  37.880   7.350
 8160POPC   NC348707   5.897   1.238   5.550
 8160POPC   PO448708   5.827   1.245   5.850
 8160POPC   GL148709   5.873   1.233   6.150
 8160POPC   GL248710   5.770   1.087   6.150
 8160POPC   C1A48711   5.893   1.231   6.450
 8160POPC   D2A48712   5.918   1.201   6.750
 8160POPC   C3A48713   5.843   1.183   7.050
 8160POPC   C4A48714   5.860   1.231   7.350
 8160POPC   C1B48715   5.699   0.986   6.450
 8160POPC   C2B48716   5.717   1.027   6.750
 8160POPC   C3B48717   5.695   0.999   7.050
 8160POPC   C4B48718   5.722   0.986   7.350
 8161POPC   NC348719  22.960  14.443   5.550
 8161POPC   PO448720  22.955  14.358   5.850
 8161POPC   GL148721  22.943  14.403   6.150
 8161POPC   GL248722  23.001  14.471   6.150
 8161POPC   C1A48723  22.980  14.450   6.450
 8161POPC   D2A48724  22.960  14.376   6.750
 8161POPC   C3A48725  22.947  14.383   7.050
 8161POPC   C4A48726  22.952  14.440   7.350
 8161POPC   C1B48727  23.080  14.543   6.450
 8161POPC   C2B48728  23.158  14.570   6.750
 8161POPC   C3B48729  23.130  14.596   7.050
 8161POPC   C4B48730  23.129  14.539   7.350
 8162POPC   NC348731  43.860  26.008   5.550
 8162POPC   PO448732  43.860  26.073   5.850
 8162POPC   GL148733  43.876  26.072   6.150
 8162POPC   GL248734  43.830  26.096   6.150
 8162POPC   C1A48735  43.902  26.076   6.450
 8162POPC   D2A48736  43.914  26.031   6.750
 8162POPC   C3A48737  43.899  26.006   7.050
 8162POPC   C4A48738  43.865  26.041   7.350
 8162POPC   C1B48739  43.719  26.164   6.450
 8162POPC   C2B48740  43.710  26.128   6.750
 8162POPC   C3B48741  43.702  26.165   7.050
 8162POPC   C4B48742  43.686  26.223   7.350
 8163POPC   NC348743  23.681  43.840   5.550
 8163POPC   PO448744  23.725  43.859   5.850
 8163POPC   GL148745  23.684  43.876   6.150
 8163POPC   GL248746  23.809  43.956   6.150
 8163POPC   C1A48747  23.715  43.911   6.450
 8163POPC   D2A48748  23.692  43.843   6.750
 8163POPC   C3A48749  23.672  43.838   7.050
 8163POPC   C4A48750  23.669  43.841   7.350
 8163POPC   C1B48751  23.774  44.077   6.450
 8163POPC   C2B48752  23.851  44.161   6.750
 8163POPC   C3B48753  23.821  44.078   7.050
 8163POPC   C4B48754  23.762  44.076   7.350
 8164POPC   NC348755  13.614   5.120   5.550
 8164POPC   PO448756  13.615   5.046   5.850
 8164POPC   GL148757  13.632   5.105   6.150
 8164POPC   GL248758  13.585   4.943   6.150
 8164POPC   C1A48759  13.598   5.071   6.450
 8164POPC   D2A48760  13.603   5.046   6.750
 8164POPC   C3A48761  13.595   5.117   7.050
 8164POPC   C4A48762  13.655   5.074   7.350
 8164POPC   C1B48763  13.567   4.876   6.450
 8164POPC   C2B48764  13.559   4.849   6.750
 8164POPC   C3B48765  13.494   4.915   7.050
 8164POPC   C4B48766  13.475   4.907   7.350
 8165POPC   NC348767   2.763   1.999   5.550
 8165POPC   PO448768   2.769   1.995   5.850
 8165POPC   GL148769   2.724   2.009   6.150
 8165POPC   GL248770   2.750   2.106   6.150
 8165POPC   C1A48771   2.806   1.991   6.450
 8165POPC   D2A48772   2.811   2.017   6.750
 8165POPC   C3A48773   2.779   2.035   7.050
 8165POPC   C4A48774   2.810   1.943   7.350
 8165POPC   C1B48775   2.662   2.233   6.450
 8165POPC   C2B48776   2.659   2.238   6.750
 8165POPC   C3B48777   2.652   2.185   7.050
 8165POPC   C4B48778   2.663   2.202   7.350
 8166POPC   NC348779  40.018  37.706   5.550
 8166POPC   PO448780  40.009  37.692   5.850
 8166POPC   GL148781  40.049  37.681   6.150
 8166POPC   GL248782  40.030  37.581   6.150
 8166POPC   C1A48783  40.052  37.630   6.450
 8166POPC   D2A48784  40.044  37.639   6.750
 8166POPC   C3A48785  40.019  37.713   7.050
 8166POPC   C4A48786  40.053  37.723   7.350
 8166POPC   C1B48787  40.071  37.394   6.450
 8166POPC   C2B48788  40.014  37.406   6.750
 8166POPC   C3B48789  39.994  37.393   7.050
 8166POPC   C4B48790  40.042  37.461   7.350
 8167POPC   NC348791   4.363  43.897   5.550
 8167POPC   PO448792   4.338  43.888   5.850
 8167POPC   GL148793   4.346  43.923   6.150
 8167POPC   GL248794   4.262  43.972   6.150
 8167POPC   C1A48795   4.273  43.914   6.450
 8167POPC   D2A48796   4.268  43.935   6.750
 8167POPC   C3A48797   4.292  43.856   7.050
 8167POPC   C4A48798   4.305  43.884   7.350
 8167POPC   C1B48799   4.215  44.165   6.450
 8167POPC   C2B48800   4.237  44.161   6.750
 8167POPC   C3B48801   4.240  44.137   7.050
 8167POPC   C4B48802   4.264  44.152   7.350
 8168POPC   NC348803  43.859  27.598   5.550
 8168POPC   PO448804  43.871  27.572   5.850
 8168POPC   GL148805  43.897  27.591   6.150
 8168POPC   GL248806  43.856  27.755   6.150
 8168POPC   C1A48807  43.881  27.564   6.450
 8168POPC   D2A48808  43.895  27.588   6.750
 8168POPC   C3A48809  43.861  27.569   7.050
 8168POPC   C4A48810  43.864  27.587   7.350
 8168POPC   C1B48811  43.882  27.836   6.450
 8168POPC   C2B48812  43.825  27.818   6.750
 8168POPC   C3B48813  43.815  27.864   7.050
 8168POPC   C4B48814  43.865  27.857   7.350
 8169POPC   NC348815  35.343  32.227   5.550
 8169POPC   PO448816  35.327  32.240   5.850
 8169POPC   GL148817  35.383  32.204   6.150
 8169POPC   GL248818  35.460  32.243   6.150
 8169POPC   C1A48819  35.334  32.274   6.450
 8169POPC   D2A48820  35.384  32.211   6.750
 8169POPC   C3A48821  35.379  32.239   7.050
 8169POPC   C4A48822  35.331  32.201   7.350
 8169POPC   C1B48823  35.578  32.162   6.450
 8169POPC   C2B48824  35.578  32.126   6.750
 8169POPC   C3B48825  35.567  32.196   7.050
 8169POPC   C4B48826  35.572  32.201   7.350
 8170POPC   NC348827  31.422  29.131   5.550
 8170POPC   PO448828  31.518  29.136   5.850
 8170POPC   GL148829  31.507  29.104   6.150
 8170POPC   GL248830  31.449  29.256   6.150
 8170POPC   C1A48831  31.506  29.108   6.450
 8170POPC   D2A48832  31.446  29.144   6.750
 8170POPC   C3A48833  31.495  29.117   7.050
 8170POPC   C4A48834  31.482  29.103   7.350
 8170POPC   C1B48835  31.346  29.338   6.450
 8170POPC   C2B48836  31.370  29.376   6.750
 8170POPC   C3B48837  31.335  29.382   7.050
 8170POPC   C4B48838  31.303  29.322   7.350
 8171POPC   NC348839  42.358  16.722   5.550
 8171POPC   PO448840  42.317  16.687   5.850
 8171POPC   GL148841  42.352  16.760   6.150
 8171POPC   GL248842  42.275  16.656   6.150
 8171POPC   C1A48843  42.349  16.712   6.450
 8171POPC   D2A48844  42.352  16.737   6.750
 8171POPC   C3A48845  42.330  16.764   7.050
 8171POPC   C4A48846  42.318  16.737   7.350
 8171POPC   C1B48847  42.339  16.460   6.450
 8171POPC   C2B48848  42.335  16.522   6.750
 8171POPC   C3B48849  42.314  16.524   7.050
 8171POPC   C4B48850  42.312  16.469   7.350
 8172POPC   NC348851  26.047  28.393   5.550
 8172POPC   PO448852  26.008  28.373   5.850
 8172POPC   GL148853  26.015  28.363   6.150
 8172POPC   GL248854  26.028  28.447   6.150
 8172POPC   C1A48855  26.029  28.385   6.450
 8172POPC   D2A48856  26.068  28.340   6.750
 8172POPC   C3A48857  26.012  28.373   7.050
 8172POPC   C4A48858  26.081  28.354   7.350
 8172POPC   C1B48859  25.927  28.642   6.450
 8172POPC   C2B48860  25.952  28.593   6.750
 8172POPC   C3B48861  25.969  28.643   7.050
 8172POPC   C4B48862  26.008  28.572   7.350
 8173POPC   NC348863   3.518  26.784   5.550
 8173POPC   PO448864   3.571  26.819   5.850
 8173POPC   GL148865   3.547  26.782   6.150
 8173POPC   GL248866   3.497  26.975   6.150
 8173POPC   C1A48867   3.512  26.775   6.450
 8173POPC   D2A48868   3.586  26.786   6.750
 8173POPC   C3A48869   3.508  26.839   7.050
 8173POPC   C4A48870   3.566  26.832   7.350
 8173POPC   C1B48871   3.480  27.092   6.450
 8173POPC   C2B48872   3.510  27.036   6.750
 8173POPC   C3B48873   3.470  27.076   7.050
 8173POPC   C4B48874   3.418  27.035   7.350
 8174POPC   NC348875   0.396  19.037   5.550
 8174POPC   PO448876   0.453  19.039   5.850
 8174POPC   GL148877   0.456  19.086   6.150
 8174POPC   GL248878   0.333  19.195   6.150
 8174POPC   C1A48879   0.423  19.062   6.450
 8174POPC   D2A48880   0.436  19.037   6.750
 8174POPC   C3A48881   0.448  19.016   7.050
 8174POPC   C4A48882   0.442  19.014   7.350
 8174POPC   C1B48883   0.336  19.283   6.450
 8174POPC   C2B48884   0.266  19.308   6.750
 8174POPC   C3B48885   0.298  19.301   7.050
 8174POPC   C4B48886   0.257  19.254   7.350
 8175POPC   NC348887  33.057  42.299   5.550
 8175POPC   PO448888  33.021  42.298   5.850
 8175POPC   GL148889  32.977  42.358   6.150
 8175POPC   GL248890  33.004  42.500   6.150
 8175POPC   C1A48891  33.006  42.342   6.450
 8175POPC   D2A48892  33.038  42.340   6.750
 8175POPC   C3A48893  33.064  42.294   7.050
 8175POPC   C4A48894  33.011  42.317   7.350
 8175POPC   C1B48895  32.954  42.584   6.450
 8175POPC   C2B48896  32.923  42.608   6.750
 8175POPC   C3B48897  32.966  42.527   7.050
 8175POPC   C4B48898  32.956  42.537   7.350
 8176POPC   NC348899  41.512  12.108   5.550
 8176POPC   PO448900  41.515  12.109   5.850
 8176POPC   GL148901  41.602  12.034   6.150
 8176POPC   GL248902  41.398  12.081   6.150
 8176POPC   C1A48903  41.598  12.098   6.450
 8176POPC   D2A48904  41.543  12.030   6.750
 8176POPC   C3A48905  41.578  12.101   7.050
 8176POPC   C4A48906  41.515  12.033   7.350
 8176POPC   C1B48907  41.260  12.029   6.450
 8176POPC   C2B48908  41.307  12.039   6.750
 8176POPC   C3B48909  41.261  12.100   7.050
 8176POPC   C4B48910  41.338  12.093   7.350
 8177POPC   NC348911  32.267  35.391   5.550
 8177POPC   PO448912  32.256  35.305   5.850
 8177POPC   GL148913  32.230  35.366   6.150
 8177POPC   GL248914  32.222  35.259   6.150
 8177POPC   C1A48915  32.220  35.333   6.450
 8177POPC   D2A48916  32.293  35.335   6.750
 8177POPC   C3A48917  32.275  35.317   7.050
 8177POPC   C4A48918  32.216  35.398   7.350
 8177POPC   C1B48919  32.203  35.119   6.450
 8177POPC   C2B48920  32.247  35.081   6.750
 8177POPC   C3B48921  32.230  35.092   7.050
 8177POPC   C4B48922  32.243  35.114   7.350
 8178POPC   NC348923  15.220  26.830   5.550
 8178POPC   PO448924  15.154  26.842   5.850
 8178POPC   GL148925  15.223  26.819   6.150
 8178POPC   GL248926  15.224  26.709   6.150
 8178POPC   C1A48927  15.222  26.857   6.450
 8178POPC   D2A48928  15.217  26.844   6.750
 8178POPC   C3A48929  15.218  26.797   7.050
 8178POPC   C4A48930  15.207  26.775   7.350
 8178POPC   C1B48931  15.263  26.624   6.450
 8178POPC   C2B48932  15.295  26.560   6.750
 8178POPC   C3B48933  15.313  26.646   7.050
 8178POPC   C4B48934  15.304  26.600   7.350
 8179POPC   NC348935  43.079  39.198   5.550
 8179POPC   PO448936  43.142  39.249   5.850
 8179POPC   GL148937  43.132  39.186   6.150
 8179POPC   GL248938  43.015  39.299   6.150
 8179POPC   C1A48939  43.156  39.207   6.450
 8179POPC   D2A48940  43.096  39.181   6.750
 8179POPC   C3A48941  43.131  39.252   7.050
 8179POPC   C4A48942  43.152  39.243   7.350
 8179POPC   C1B48943  42.915  39.375   6.450
 8179POPC   C2B48944  42.929  39.380   6.750
 8179POPC   C3B48945  42.879  39.384   7.050
 8179POPC   C4B48946  42.920  39.401   7.350
 8180POPC   NC348947  30.691  35.378   5.550
 8180POPC   PO448948  30.730  35.367   5.850
 8180POPC   GL148949  30.720  35.325   6.150
 8180POPC   GL248950  30.642  35.220   6.150
 8180POPC   C1A48951  30.717  35.326   6.450
 8180POPC   D2A48952  30.684  35.395   6.750
 8180POPC   C3A48953  30.651  35.322   7.050
 8180POPC   C4A48954  30.738  35.307   7.350
 8180POPC   C1B48955  30.592  35.192   6.450
 8180POPC   C2B48956  30.579  35.109   6.750
 8180POPC   C3B48957  30.518  35.157   7.050
 8180POPC   C4B48958  30.547  35.148   7.350
 8181POPC   NC348959  34.546  39.963   5.550
 8181POPC   PO448960  34.621  40.051   5.850
 8181POPC   GL148961  34.568  39.959   6.150
 8181POPC   GL248962  34.691  39.920   6.150
 8181POPC   C1A48963  34.595  40.004   6.450
 8181POPC   D2A48964  34.535  40.016   6.750
 8181POPC   C3A48965  34.580  40.021   7.050
 8181POPC   C4A48966  34.547  40.001   7.350
 8181POPC   C1B48967  34.835  39.866   6.450
 8181POPC   C2B48968  34.766  39.901   6.750
 8181POPC   C3B48969  34.781  39.854   7.050
 8181POPC   C4B48970  34.779  39.894   7.350
 8182POPC   NC348971   0.404  19.807   5.550
 8182POPC   PO448972   0.487  19.797   5.850
 8182POPC   GL148973   0.465  19.833   6.150
 8182POPC   GL248974   0.300  19.747   6.150
 8182POPC   C1A48975   0.421  19.848   6.450
 8182POPC   D2A48976   0.408  19.813   6.750
 8182POPC   C3A48977   0.424  19.860   7.050
 8182POPC   C4A48978   0.437  19.798   7.350
 8182POPC   C1B48979   0.213  19.684   6.450
 8182POPC   C2B48980   0.231  19.728   6.750
 8182POPC   C3B48981   0.255  19.662   7.050
 8182POPC   C4B48982   0.289  19.677   7.350
 8183POPC   NC348983  22.968  31.504   5.550
 8183POPC   PO448984  22.910  31.427   5.850
 8183POPC   GL148985  22.934  31.497   6.150
 8183POPC   GL248986  23.033  31.491   6.150
 8183POPC   C1A48987  22.970  31.469   6.450
 8183POPC   D2A48988  22.928  31.468   6.750
 8183POPC   C3A48989  22.902  31.498   7.050
 8183POPC   C4A48990  22.940  31.462   7.350
 8183POPC   C1B48991  23.152  31.572   6.450
 8183POPC   C2B48992  23.131  31.581   6.750
 8183POPC   C3B48993  23.156  31.551   7.050
 8183POPC   C4B48994  23.144  31.606   7.350
 8184POPC   NC348995  27.637  36.856   5.550
 8184POPC   PO448996  27.634  36.912   5.850
 8184POPC   GL148997  27.629  36.933   6.150
 8184POPC   GL248998  27.534  37.071   6.150
 8184POPC   C1A48999  27.608  36.868   6.450
 8184POPC   D2A49000  27.612  36.883   6.750
 8184POPC   C3A49001  27.588  36.913   7.050
 8184POPC   C4A49002  27.552  36.890   7.350
 8184POPC   C1B49003  27.512  37.143   6.450
 8184POPC   C2B49004  27.561  37.132   6.750
 8184POPC   C3B49005  27.534  37.114   7.050
 8184POPC   C4B49006  27.516  37.152   7.350
 8185POPC   NC349007  32.247  26.788   5.550
 8185POPC   PO449008  32.236  26.849   5.850
 8185POPC   GL149009  32.297  26.829   6.150
 8185POPC   GL249010  32.361  26.780   6.150
 8185POPC   C1A49011  32.253  26.860   6.450
 8185POPC   D2A49012  32.231  26.826   6.750
 8185POPC   C3A49013  32.259  26.808   7.050
 8185POPC   C4A49014  32.276  26.827   7.350
 8185POPC   C1B49015  32.411  26.685   6.450
 8185POPC   C2B49016  32.467  26.633   6.750
 8185POPC   C3B49017  32.422  26.670   7.050
 8185POPC   C4B49018  32.438  26.684   7.350
 8186POPC   NC349019  22.124   0.468   5.550
 8186POPC   PO449020  22.137   0.434   5.850
 8186POPC   GL149021  22.114   0.440   6.150
 8186POPC   GL249022  22.099   0.505   6.150
 8186POPC   C1A49023  22.142   0.428   6.450
 8186POPC   D2A49024  22.185   0.463   6.750
 8186POPC   C3A49025  22.139   0.487   7.050
 8186POPC   C4A49026  22.138   0.467   7.350
 8186POPC   C1B49027  21.989   0.630   6.450
 8186POPC   C2B49028  21.966   0.653   6.750
 8186POPC   C3B49029  22.040   0.609   7.050
 8186POPC   C4B49030  22.009   0.636   7.350
 8187POPC   NC349031  19.841  15.963   5.550
 8187POPC   PO449032  19.841  15.998   5.850
 8187POPC   GL149033  19.803  15.959   6.150
 8187POPC   GL249034  19.853  15.810   6.150
 8187POPC   C1A49035  19.811  15.968   6.450
 8187POPC   D2A49036  19.808  15.932   6.750
 8187POPC   C3A49037  19.850  15.916   7.050
 8187POPC   C4A49038  19.843  15.920   7.350
 8187POPC   C1B49039  19.824  15.720   6.450
 8187POPC   C2B49040  19.880  15.656   6.750
 8187POPC   C3B49041  19.866  15.754   7.050
 8187POPC   C4B49042  19.822  15.721   7.350
 8188POPC   NC349043  18.268   1.992   5.550
 8188POPC   PO449044  18.239   2.009   5.850
 8188POPC   GL149045  18.276   1.966   6.150
 8188POPC   GL249046  18.416   2.017   6.150
 8188POPC   C1A49047  18.291   2.019   6.450
 8188POPC   D2A49048  18.239   1.959   6.750
 8188POPC   C3A49049  18.241   2.019   7.050
 8188POPC   C4A49050  18.319   1.978   7.350
 8188POPC   C1B49051  18.537   2.023   6.450
 8188POPC   C2B49052  18.505   2.006   6.750
 8188POPC   C3B49053  18.581   1.935   7.050
 8188POPC   C4B49054  18.484   2.029   7.350
 8189POPC   NC349055  25.282  24.510   5.550
 8189POPC   PO449056  25.248  24.457   5.850
 8189POPC   GL149057  25.267  24.531   6.150
 8189POPC   GL249058  25.180  24.555   6.150
 8189POPC   C1A49059  25.280  24.485   6.450
 8189POPC   D2A49060  25.248  24.519   6.750
 8189POPC   C3A49061  25.291  24.502   7.050
 8189POPC   C4A49062  25.239  24.539   7.350
 8189POPC   C1B49063  25.035  24.641   6.450
 8189POPC   C2B49064  25.093  24.662   6.750
 8189POPC   C3B49065  25.069  24.586   7.050
 8189POPC   C4B49066  25.063  24.653   7.350
 8190POPC   NC349067  40.749  11.268   5.550
 8190POPC   PO449068  40.830  11.301   5.850
 8190POPC   GL149069  40.753  11.278   6.150
 8190POPC   GL249070  40.742  11.247   6.150
 8190POPC   C1A49071  40.753  11.345   6.450
 8190POPC   D2A49072  40.830  11.272   6.750
 8190POPC   C3A49073  40.822  11.349   7.050
 8190POPC   C4A49074  40.811  11.276   7.350
 8190POPC   C1B49075  40.586  11.156   6.450
 8190POPC   C2B49076  40.596  11.073   6.750
 8190POPC   C3B49077  40.634  11.111   7.050
 8190POPC   C4B49078  40.660  11.131   7.350
 8191POPC   NC349079  35.358   3.504   5.550
 8191POPC   PO449080  35.362   3.572   5.850
 8191POPC   GL149081  35.339   3.540   6.150
 8191POPC   GL249082  35.442   3.457   6.150
 8191POPC   C1A49083  35.317   3.519   6.450
 8191POPC   D2A49084  35.390   3.535   6.750
 8191POPC   C3A49085  35.399   3.547   7.050
 8191POPC   C4A49086  35.317   3.535   7.350
 8191POPC   C1B49087  35.463   3.355   6.450
 8191POPC   C2B49088  35.441   3.265   6.750
 8191POPC   C3B49089  35.472   3.275   7.050
 8191POPC   C4B49090  35.465   3.265   7.350
 8192POPC   NC349091  28.351   4.347   5.550
 8192POPC   PO449092  28.372   4.284   5.850
 8192POPC   GL149093  28.358   4.270   6.150
 8192POPC   GL249094  28.509   4.301   6.150
 8192POPC   C1A49095  28.337   4.315   6.450
 8192POPC   D2A49096  28.377   4.311   6.750
 8192POPC   C3A49097  28.344   4.324   7.050
 8192POPC   C4A49098  28.344   4.343   7.350
 8192POPC   C1B49099  28.611   4.318   6.450
 8192POPC   C2B49100  28.617   4.328   6.750
 8192POPC   C3B49101  28.661   4.345   7.050
 8192POPC   C4B49102  28.569   4.288   7.350
 8193POPC   NC349103  12.864  27.579   5.550
 8193POPC   PO449104  12.860  27.599   5.850
 8193POPC   GL149105  12.864  27.558   6.150
 8193POPC   GL249106  12.886  27.433   6.150
 8193POPC   C1A49107  12.866  27.642   6.450
 8193POPC   D2A49108  12.810  27.627   6.750
 8193POPC   C3A49109  12.872  27.600   7.050
 8193POPC   C4A49110  12.802  27.637   7.350
 8193POPC   C1B49111  12.927  27.395   6.450
 8193POPC   C2B49112  12.939  27.370   6.750
 8193POPC   C3B49113  12.944  27.335   7.050
 8193POPC   C4B49114  12.860  27.396   7.350
 8194POPC   NC349115  31.448  34.578   5.550
 8194POPC   PO449116  31.461  34.610   5.850
 8194POPC   GL149117  31.431  34.585   6.150
 8194POPC   GL249118  31.524  34.690   6.150
 8194POPC   C1A49119  31.465  34.615   6.450
 8194POPC   D2A49120  31.454  34.575   6.750
 8194POPC   C3A49121  31.427  34.594   7.050
 8194POPC   C4A49122  31.483  34.549   7.350
 8194POPC   C1B49123  31.542  34.764   6.450
 8194POPC   C2B49124  31.634  34.837   6.750
 8194POPC   C3B49125  31.551  34.799   7.050
 8194POPC   C4B49126  31.633  34.814   7.350
 8195POPC   NC349127   0.433  36.131   5.550
 8195POPC   PO449128   0.437  36.083   5.850
 8195POPC   GL149129   0.409  36.153   6.150
 8195POPC   GL249130   0.401  36.007   6.150
 8195POPC   C1A49131   0.401  36.081   6.450
 8195POPC   D2A49132   0.436  36.095   6.750
 8195POPC   C3A49133   0.482  36.171   7.050
 8195POPC   C4A49134   0.461  36.109   7.350
 8195POPC   C1B49135   0.427  35.872   6.450
 8195POPC   C2B49136   0.417  35.839   6.750
 8195POPC   C3B49137   0.372  35.839   7.050
 8195POPC   C4B49138   0.428  35.884   7.350
 8196POPC   NC349139  24.488  14.367   5.550
 8196POPC   PO449140  24.457  14.391   5.850
 8196POPC   GL149141  24.480  14.378   6.150
 8196POPC   GL249142  24.410  14.440   6.150
 8196POPC   C1A49143  24.505  14.440   6.450
 8196POPC   D2A49144  24.480  14.417   6.750
 8196POPC   C3A49145  24.492  14.411   7.050
 8196POPC   C4A49146  24.527  14.360   7.350
 8196POPC   C1B49147  24.250  14.521   6.450
 8196POPC   C2B49148  24.241  14.450   6.750
 8196POPC   C3B49149  24.282  14.516   7.050
 8196POPC   C4B49150  24.207  14.499   7.350
 8197POPC   NC349151  19.814   2.009   5.550
 8197POPC   PO449152  19.831   1.993   5.850
 8197POPC   GL149153  19.823   1.949   6.150
 8197POPC   GL249154  19.869   2.072   6.150
 8197POPC   C1A49155  19.865   1.944   6.450
 8197POPC   D2A49156  19.841   2.026   6.750
 8197POPC   C3A49157  19.858   2.017   7.050
 8197POPC   C4A49158  19.882   2.040   7.350
 8197POPC   C1B49159  19.935   2.190   6.450
 8197POPC   C2B49160  19.868   2.206   6.750
 8197POPC   C3B49161  19.864   2.185   7.050
 8197POPC   C4B49162  19.909   2.256   7.350
 8198POPC   NC349163  21.366   7.428   5.550
 8198POPC   PO449164  21.364   7.413   5.850
 8198POPC   GL149165  21.424   7.407   6.150
 8198POPC   GL249166  21.302   7.411   6.150
 8198POPC   C1A49167  21.382   7.393   6.450
 8198POPC   D2A49168  21.355   7.392   6.750
 8198POPC   C3A49169  21.421   7.393   7.050
 8198POPC   C4A49170  21.428   7.468   7.350
 8198POPC   C1B49171  21.122   7.322   6.450
 8198POPC   C2B49172  21.179   7.332   6.750
 8198POPC   C3B49173  21.189   7.362   7.050
 8198POPC   C4B49174  21.183   7.349   7.350
 8199POPC   NC349175  43.064  36.169   5.550
 8199POPC   PO449176  43.141  36.133   5.850
 8199POPC   GL149177  43.066  36.161   6.150
 8199POPC   GL249178  43.224  36.176   6.150
 8199POPC   C1A49179  43.075  36.082   6.450
 8199POPC   D2A49180  43.105  36.118   6.750
 8199POPC   C3A49181  43.154  36.108   7.050
 8199POPC   C4A49182  43.078  36.117   7.350
 8199POPC   C1B49183  43.303  36.292   6.450
 8199POPC   C2B49184  43.266  36.359   6.750
 8199POPC   C3B49185  43.260  36.273   7.050
 8199POPC   C4B49186  43.304  36.343   7.350
 8200POPC   NC349187  43.905  34.564   5.550
 8200POPC   PO449188  43.919  34.549   5.850
 8200POPC   GL149189  43.891  34.554   6.150
 8200POPC   GL249190  43.957  34.685   6.150
 8200POPC   C1A49191  43.885  34.616   6.450
 8200POPC   D2A49192  43.891  34.591   6.750
 8200POPC   C3A49193  43.846  34.595   7.050
 8200POPC   C4A49194  43.840  34.532   7.350
 8200POPC   C1B49195  44.052  34.768   6.450
 8200POPC   C2B49196  43.989  34.746   6.750
 8200POPC   C3B49197  44.003  34.746   7.050
 8200POPC   C4B49198  43.990  34.757   7.350
 8201POPC   NC349199  43.116   9.706   5.550
 8201POPC   PO449200  43.114   9.773   5.850
 8201POPC   GL149201  43.150   9.750   6.150
 8201POPC   GL249202  43.089   9.650   6.150
 8201POPC   C1A49203  43.145   9.790   6.450
 8201POPC   D2A49204  43.074   9.712   6.750
 8201POPC   C3A49205  43.106   9.768   7.050
 8201POPC   C4A49206  43.104   9.795   7.350
 8201POPC   C1B49207  42.931   9.564   6.450
 8201POPC   C2B49208  42.980   9.547   6.750
 8201POPC   C3B49209  42.940   9.561   7.050
 8201POPC   C4B49210  42.966   9.554   7.350
 8202POPC   NC349211  42.308  44.659   5.550
 8202POPC   PO449212  42.294  44.669   5.850
 8202POPC   GL149213  42.303  44.682   6.150
 8202POPC   GL249214  42.235  44.529   6.150
 8202POPC   C1A49215  42.288  44.696   6.450
 8202POPC   D2A49216  42.306  44.680   6.750
 8202POPC   C3A49217  42.302  44.657   7.050
 8202POPC   C4A49218  42.302  44.616   7.350
 8202POPC   C1B49219  42.162  44.493   6.450
 8202POPC   C2B49220  42.190  44.443   6.750
 8202POPC   C3B49221  42.174  44.487   7.050
 8202POPC   C4B49222  42.141  44.423   7.350
 8203POPC   NC349223  15.202  18.281   5.550
 8203POPC   PO449224  15.205  18.314   5.850
 8203POPC   GL149225  15.171  18.299   6.150
 8203POPC   GL249226  15.113  18.144   6.150
 8203POPC   C1A49227  15.221  18.260   6.450
 8203POPC   D2A49228  15.152  18.332   6.750
 8203POPC   C3A49229  15.153  18.332   7.050
 8203POPC   C4A49230  15.134  18.270   7.350
 8203POPC   C1B49231  15.160  18.052   6.450
 8203POPC   C2B49232  15.072  18.051   6.750
 8203POPC   C3B49233  15.099  18.038   7.050
 8203POPC   C4B49234  15.120  18.085   7.350
 8204POPC   NC349235  39.980   7.372   5.550
 8204POPC   PO449236  39.958   7.422   5.850
 8204POPC   GL149237  39.998   7.374   6.150
 8204POPC   GL249238  39.952   7.563   6.150
 8204POPC   C1A49239  39.969   7.452   6.450
 8204POPC   D2A49240  39.984   7.445   6.750
 8204POPC   C3A49241  40.009   7.467   7.050
 8204POPC   C4A49242  40.022   7.457   7.350
 8204POPC   C1B49243  39.944   7.703   6.450
 8204POPC   C2B49244  39.932   7.688   6.750
 8204POPC   C3B49245  39.943   7.676   7.050
 8204POPC   C4B49246  39.952   7.706   7.350
 8205POPC   NC349247  19.048  26.841   5.550
 8205POPC   PO449248  19.060  26.819   5.850
 8205POPC   GL149249  19.069  26.800   6.150
 8205POPC   GL249250  19.099  26.959   6.150
 8205POPC   C1A49251  19.079  26.835   6.450
 8205POPC   D2A49252  19.103  26.768   6.750
 8205POPC   C3A49253  19.022  26.843   7.050
 8205POPC   C4A49254  19.098  26.822   7.350
 8205POPC   C1B49255  19.177  27.054   6.450
 8205POPC   C2B49256  19.104  27.088   6.750
 8205POPC   C3B49257  19.122  27.069   7.050
 8205POPC   C4B49258  19.138  27.097   7.350
 8206POPC   NC349259  22.896  22.896   5.550
 8206POPC   PO449260  22.983  22.973   5.850
 8206POPC   GL149261  22.909  22.921   6.150
 8206POPC   GL249262  23.048  23.028   6.150
 8206POPC   C1A49263  22.986  22.891   6.450
 8206POPC   D2A49264  22.933  22.945   6.750
 8206POPC   C3A49265  22.893  22.949   7.050
 8206POPC   C4A49266  22.926  22.976   7.350
 8206POPC   C1B49267  23.164  23.153   6.450
 8206POPC   C2B49268  23.102  23.117   6.750
 8206POPC   C3B49269  23.127  23.130   7.050
 8206POPC   C4B49270  23.145  23.067   7.350
 8207POPC   NC349271  27.587  33.007   5.550
 8207POPC   PO449272  27.606  33.053   5.850
 8207POPC   GL149273  27.621  33.009   6.150
 8207POPC   GL249274  27.627  32.946   6.150
 8207POPC   C1A49275  27.607  33.071   6.450
 8207POPC   D2A49276  27.634  32.999   6.750
 8207POPC   C3A49277  27.563  33.020   7.050
 8207POPC   C4A49278  27.558  33.058   7.350
 8207POPC   C1B49279  27.683  32.833   6.450
 8207POPC   C2B49280  27.661  32.765   6.750
 8207POPC   C3B49281  27.650  32.805   7.050
 8207POPC   C4B49282  27.699  32.785   7.350
 8208POPC   NC349283  29.895   6.668   5.550
 8208POPC   PO449284  29.877   6.679   5.850
 8208POPC   GL149285  29.907   6.614   6.150
 8208POPC   GL249286  29.940   6.494   6.150
 8208POPC   C1A49287  29.951   6.646   6.450
 8208POPC   D2A49288  29.881   6.657   6.750
 8208POPC   C3A49289  29.880   6.634   7.050
 8208POPC   C4A49290  29.922   6.617   7.350
 8208POPC   C1B49291  29.949   6.396   6.450
 8208POPC   C2B49292  29.898   6.426   6.750
 8208POPC   C3B49293  29.996   6.422   7.050
 8208POPC   C4B49294  29.962   6.429   7.350
 8209POPC   NC349295   0.479  20.626   5.550
 8209POPC   PO449296   0.436  20.580   5.850
 8209POPC   GL149297   0.463  20.644   6.150
 8209POPC   GL249298   0.552  20.615   6.150
 8209POPC   C1A49299   0.439  20.597   6.450
 8209POPC   D2A49300   0.436  20.659   6.750
 8209POPC   C3A49301   0.438  20.637   7.050
 8209POPC   C4A49302   0.468  20.602   7.350
 8209POPC   C1B49303   0.658  20.639   6.450
 8209POPC   C2B49304   0.692  20.680   6.750
 8209POPC   C3B49305   0.668  20.608   7.050
 8209POPC   C4B49306   0.642  20.671   7.350
 8210POPC   NC349307   1.972  31.466   5.550
 8210POPC   PO449308   1.953  31.440   5.850
 8210POPC   GL149309   1.953  31.513   6.150
 8210POPC   GL249310   2.085  31.555   6.150
 8210POPC   C1A49311   1.948  31.498   6.450
 8210POPC   D2A49312   2.011  31.430   6.750
 8210POPC   C3A49313   2.013  31.433   7.050
 8210POPC   C4A49314   2.019  31.468   7.350
 8210POPC   C1B49315   2.147  31.737   6.450
 8210POPC   C2B49316   2.111  31.703   6.750
 8210POPC   C3B49317   2.106  31.651   7.050
 8210POPC   C4B49318   2.136  31.733   7.350
 8211POPC   NC349319  30.724   6.651   5.550
 8211POPC   PO449320  30.745   6.673   5.850
 8211POPC   GL149321  30.657   6.615   6.150
 8211POPC   GL249322  30.622   6.606   6.150
 8211POPC   C1A49323  30.686   6.668   6.450
 8211POPC   D2A49324  30.710   6.604   6.750
 8211POPC   C3A49325  30.732   6.625   7.050
 8211POPC   C4A49326  30.734   6.627   7.350
 8211POPC   C1B49327  30.498   6.468   6.450
 8211POPC   C2B49328  30.552   6.509   6.750
 8211POPC   C3B49329  30.460   6.505   7.050
 8211POPC   C4B49330  30.469   6.449   7.350
 8212POPC   NC349331  21.368  43.844   5.550
 8212POPC   PO449332  21.408  43.930   5.850
 8212POPC   GL149333  21.411  43.888   6.150
 8212POPC   GL249334  21.531  43.922   6.150
 8212POPC   C1A49335  21.425  43.861   6.450
 8212POPC   D2A49336  21.407  43.885   6.750
 8212POPC   C3A49337  21.419  43.912   7.050
 8212POPC   C4A49338  21.377  43.902   7.350
 8212POPC   C1B49339  21.627  43.897   6.450
 8212POPC   C2B49340  21.590  43.921   6.750
 8212POPC   C3B49341  21.676  43.903   7.050
 8212POPC   C4B49342  21.644  43.946   7.350
 8213POPC   NC349343   7.402  43.123   5.550
 8213POPC   PO449344   7.442  43.099   5.850
 8213POPC   GL149345   7.384  43.117   6.150
 8213POPC   GL249346   7.408  42.995   6.150
 8213POPC   C1A49347   7.429  43.070   6.450
 8213POPC   D2A49348   7.405  43.068   6.750
 8213POPC   C3A49349   7.424  43.083   7.050
 8213POPC   C4A49350   7.426  43.067   7.350
 8213POPC   C1B49351   7.382  42.898   6.450
 8213POPC   C2B49352   7.364  42.907   6.750
 8213POPC   C3B49353   7.345  42.853   7.050
 8213POPC   C4B49354   7.392  42.831   7.350
 8214POPC   NC349355   6.666  26.018   5.550
 8214POPC   PO449356   6.634  26.086   5.850
 8214POPC   GL149357   6.683  26.075   6.150
 8214POPC   GL249358   6.810  26.028   6.150
 8214POPC   C1A49359   6.596  26.057   6.450
 8214POPC   D2A49360   6.666  26.091   6.750
 8214POPC   C3A49361   6.615  26.073   7.050
 8214POPC   C4A49362   6.663  26.036   7.350
 8214POPC   C1B49363   6.838  25.996   6.450
 8214POPC   C2B49364   6.905  25.966   6.750
 8214POPC   C3B49365   6.871  25.966   7.050
 8214POPC   C4B49366   6.905  25.961   7.350
 8215POPC   NC349367  15.990  39.993   5.550
 8215POPC   PO449368  15.929  39.967   5.850
 8215POPC   GL149369  15.971  40.026   6.150
 8215POPC   GL249370  15.887  40.114   6.150
 8215POPC   C1A49371  15.998  39.986   6.450
 8215POPC   D2A49372  15.946  39.989   6.750
 8215POPC   C3A49373  16.004  40.050   7.050
 8215POPC   C4A49374  15.988  39.963   7.350
 8215POPC   C1B49375  15.798  40.155   6.450
 8215POPC   C2B49376  15.745  40.176   6.750
 8215POPC   C3B49377  15.817  40.163   7.050
 8215POPC   C4B49378  15.754  40.204   7.350
 8216POPC   NC349379  42.326   3.534   5.550
 8216POPC   PO449380  42.379   3.562   5.850
 8216POPC   GL149381  42.293   3.502   6.150
 8216POPC   GL249382  42.326   3.617   6.150
 8216POPC   C1A49383  42.346   3.513   6.450
 8216POPC   D2A49384  42.297   3.575   6.750
 8216POPC   C3A49385  42.332   3.493   7.050
 8216POPC   C4A49386  42.318   3.539   7.350
 8216POPC   C1B49387  42.317   3.805   6.450
 8216POPC   C2B49388  42.380   3.807   6.750
 8216POPC   C3B49389  42.388   3.803   7.050
 8216POPC   C4B49390  42.317   3.772   7.350
 8217POPC   NC349391   3.553  35.339   5.550
 8217POPC   PO449392   3.578  35.324   5.850
 8217POPC   GL149393   3.512  35.368   6.150
 8217POPC   GL249394   3.492  35.190   6.150
 8217POPC   C1A49395   3.495  35.399   6.450
 8217POPC   D2A49396   3.566  35.371   6.750
 8217POPC   C3A49397   3.548  35.340   7.050
 8217POPC   C4A49398   3.564  35.399   7.350
 8217POPC   C1B49399   3.584  35.060   6.450
 8217POPC   C2B49400   3.537  35.066   6.750
 8217POPC   C3B49401   3.543  35.088   7.050
 8217POPC   C4B49402   3.555  35.128   7.350
 8218POPC   NC349403   5.861  15.216   5.550
 8218POPC   PO449404   5.872  15.212   5.850
 8218POPC   GL149405   5.868  15.201   6.150
 8218POPC   GL249406   5.945  15.223   6.150
 8218POPC   C1A49407   5.911  15.214   6.450
 8218POPC   D2A49408   5.898  15.201   6.750
 8218POPC   C3A49409   5.821  15.209   7.050
 8218POPC   C4A49410   5.826  15.131   7.350
 8218POPC   C1B49411   6.043  15.292   6.450
 8218POPC   C2B49412   6.087  15.318   6.750
 8218POPC   C3B49413   6.052  15.278   7.050
 8218POPC   C4B49414   6.112  15.293   7.350
 8219POPC   NC349415  32.217  25.291   5.550
 8219POPC   PO449416  32.276  25.257   5.850
 8219POPC   GL149417  32.269  25.284   6.150
 8219POPC   GL249418  32.131  25.213   6.150
 8219POPC   C1A49419  32.200  25.232   6.450
 8219POPC   D2A49420  32.294  25.263   6.750
 8219POPC   C3A49421  32.256  25.280   7.050
 8219POPC   C4A49422  32.287  25.232   7.350
 8219POPC   C1B49423  32.035  25.255   6.450
 8219POPC   C2B49424  32.030  25.203   6.750
 8219POPC   C3B49425  32.006  25.209   7.050
 8219POPC   C4B49426  32.048  25.230   7.350
 8220POPC   NC349427  37.681   0.435   5.550
 8220POPC   PO449428  37.722   0.453   5.850
 8220POPC   GL149429  37.678   0.439   6.150
 8220POPC   GL249430  37.731   0.571   6.150
 8220POPC   C1A49431  37.712   0.462   6.450
 8220POPC   D2A49432  37.690   0.446   6.750
 8220POPC   C3A49433  37.649   0.486   7.050
 8220POPC   C4A49434  37.688   0.422   7.350
 8220POPC   C1B49435  37.805   0.586   6.450
 8220POPC   C2B49436  37.805   0.602   6.750
 8220POPC   C3B49437  37.872   0.650   7.050
 8220POPC   C4B49438  37.828   0.588   7.350
 8221POPC   NC349439  31.492   8.181   5.550
 8221POPC   PO449440  31.518   8.226   5.850
 8221POPC   GL149441  31.470   8.179   6.150
 8221POPC   GL249442  31.577   8.121   6.150
 8221POPC   C1A49443  31.426   8.241   6.450
 8221POPC   D2A49444  31.486   8.163   6.750
 8221POPC   C3A49445  31.517   8.182   7.050
 8221POPC   C4A49446  31.454   8.211   7.350
 8221POPC   C1B49447  31.673   8.012   6.450
 8221POPC   C2B49448  31.663   8.056   6.750
 8221POPC   C3B49449  31.635   8.056   7.050
 8221POPC   C4B49450  31.625   8.030   7.350
 8222POPC   NC349451  37.718  29.935   5.550
 8222POPC   PO449452  37.723  29.962   5.850
 8222POPC   GL149453  37.636  29.909   6.150
 8222POPC   GL249454  37.763  29.921   6.150
 8222POPC   C1A49455  37.659  29.873   6.450
 8222POPC   D2A49456  37.668  29.897   6.750
 8222POPC   C3A49457  37.654  29.966   7.050
 8222POPC   C4A49458  37.652  29.952   7.350
 8222POPC   C1B49459  37.949  30.036   6.450
 8222POPC   C2B49460  37.922  30.016   6.750
 8222POPC   C3B49461  37.934  29.977   7.050
 8222POPC   C4B49462  37.923  30.024   7.350
 8223POPC   NC349463  32.273  41.578   5.550
 8223POPC   PO449464  32.228  41.547   5.850
 8223POPC   GL149465  32.270  41.573   6.150
 8223POPC   GL249466  32.179  41.654   6.150
 8223POPC   C1A49467  32.259  41.601   6.450
 8223POPC   D2A49468  32.216  41.521   6.750
 8223POPC   C3A49469  32.244  41.549   7.050
 8223POPC   C4A49470  32.295  41.516   7.350
 8223POPC   C1B49471  32.061  41.700   6.450
 8223POPC   C2B49472  32.019  41.638   6.750
 8223POPC   C3B49473  32.026  41.665   7.050
 8223POPC   C4B49474  32.039  41.636   7.350
 8224POPC   NC349475   1.225  17.474   5.550
 8224POPC   PO449476   1.262  17.479   5.850
 8224POPC   GL149477   1.234  17.470   6.150
 8224POPC   GL249478   1.134  17.363   6.150
 8224POPC   C1A49479   1.230  17.475   6.450
 8224POPC   D2A49480   1.225  17.555   6.750
 8224POPC   C3A49481   1.255  17.551   7.050
 8224POPC   C4A49482   1.227  17.492   7.350
 8224POPC   C1B49483   1.040  17.248   6.450
 8224POPC   C2B49484   1.108  17.295   6.750
 8224POPC   C3B49485   1.054  17.257   7.050
 8224POPC   C4B49486   1.032  17.260   7.350
 8225POPC   NC349487  15.166  36.890   5.550
 8225POPC   PO449488  15.159  36.903   5.850
 8225POPC   GL149489  15.149  36.863   6.150
 8225POPC   GL249490  15.183  36.995   6.150
 8225POPC   C1A49491  15.216  36.876   6.450
 8225POPC   D2A49492  15.225  36.920   6.750
 8225POPC   C3A49493  15.191  36.950   7.050
 8225POPC   C4A49494  15.180  36.916   7.350
 8225POPC   C1B49495  15.166  37.142   6.450
 8225POPC   C2B49496  15.167  37.186   6.750
 8225POPC   C3B49497  15.163  37.144   7.050
 8225POPC   C4B49498  15.171  37.139   7.350
 8226POPC   NC349499  24.445  37.683   5.550
 8226POPC   PO449500  24.492  37.728   5.850
 8226POPC   GL149501  24.522  37.662   6.150
 8226POPC   GL249502  24.368  37.638   6.150
 8226POPC   C1A49503  24.514  37.630   6.450
 8226POPC   D2A49504  24.495  37.713   6.750
 8226POPC   C3A49505  24.474  37.650   7.050
 8226POPC   C4A49506  24.491  37.668   7.350
 8226POPC   C1B49507  24.243  37.639   6.450
 8226POPC   C2B49508  24.254  37.635   6.750
 8226POPC   C3B49509  24.254  37.584   7.050
 8226POPC   C4B49510  24.220  37.604   7.350
 8227POPC   NC349511   6.623  20.591   5.550
 8227POPC   PO449512   6.614  20.654   5.850
 8227POPC   GL149513   6.684  20.576   6.150
 8227POPC   GL249514   6.722  20.494   6.150
 8227POPC   C1A49515   6.610  20.654   6.450
 8227POPC   D2A49516   6.651  20.573   6.750
 8227POPC   C3A49517   6.649  20.618   7.050
 8227POPC   C4A49518   6.641  20.575   7.350
 8227POPC   C1B49519   6.847  20.436   6.450
 8227POPC   C2B49520   6.800  20.425   6.750
 8227POPC   C3B49521   6.799  20.438   7.050
 8227POPC   C4B49522   6.813  20.372   7.350
 8228POPC   NC349523  21.417  41.519   5.550
 8228POPC   PO449524  21.420  41.534   5.850
 8228POPC   GL149525  21.365  41.594   6.150
 8228POPC   GL249526  21.530  41.463   6.150
 8228POPC   C1A49527  21.361  41.582   6.450
 8228POPC   D2A49528  21.352  41.551   6.750
 8228POPC   C3A49529  21.399  41.559   7.050
 8228POPC   C4A49530  21.436  41.591   7.350
 8228POPC   C1B49531  21.613  41.358   6.450
 8228POPC   C2B49532  21.587  41.362   6.750
 8228POPC   C3B49533  21.538  41.435   7.050
 8228POPC   C4B49534  21.603  41.386   7.350
 8229POPC   NC349535  26.032   4.306   5.550
 8229POPC   PO449536  26.063   4.345   5.850
 8229POPC   GL149537  26.067   4.362   6.150
 8229POPC   GL249538  26.099   4.258   6.150
 8229POPC   C1A49539  26.063   4.322   6.450
 8229POPC   D2A49540  26.053   4.303   6.750
 8229POPC   C3A49541  26.055   4.291   7.050
 8229POPC   C4A49542  26.054   4.286   7.350
 8229POPC   C1B49543  26.237   4.196   6.450
 8229POPC   C2B49544  26.212   4.171   6.750
 8229POPC   C3B49545  26.252   4.176   7.050
 8229POPC   C4B49546  26.276   4.194   7.350
 8230POPC   NC349547  24.523  11.301   5.550
 8230POPC   PO449548  24.450  11.331   5.850
 8230POPC   GL149549  24.471  11.345   6.150
 8230POPC   GL249550  24.397  11.222   6.150
 8230POPC   C1A49551  24.528  11.281   6.450
 8230POPC   D2A49552  24.503  11.315   6.750
 8230POPC   C3A49553  24.482  11.263   7.050
 8230POPC   C4A49554  24.495  11.329   7.350
 8230POPC   C1B49555  24.364  11.098   6.450
 8230POPC   C2B49556  24.396  11.070   6.750
 8230POPC   C3B49557  24.373  11.030   7.050
 8230POPC   C4B49558  24.398  11.031   7.350
 8231POPC   NC349559  25.282  32.253   5.550
 8231POPC   PO449560  25.220  32.238   5.850
 8231POPC   GL149561  25.228  32.247   6.150
 8231POPC   GL249562  25.331  32.362   6.150
 8231POPC   C1A49563  25.298  32.287   6.450
 8231POPC   D2A49564  25.303  32.250   6.750
 8231POPC   C3A49565  25.248  32.222   7.050
 8231POPC   C4A49566  25.295  32.219   7.350
 8231POPC   C1B49567  25.300  32.541   6.450
 8231POPC   C2B49568  25.328  32.507   6.750
 8231POPC   C3B49569  25.349  32.529   7.050
 8231POPC   C4B49570  25.350  32.516   7.350
 8232POPC   NC349571  22.117  26.081   5.550
 8232POPC   PO449572  22.150  26.024   5.850
 8232POPC   GL149573  22.162  26.007   6.150
 8232POPC   GL249574  22.027  25.914   6.150
 8232POPC   C1A49575  22.168  26.002   6.450
 8232POPC   D2A49576  22.177  25.998   6.750
 8232POPC   C3A49577  22.199  26.086   7.050
 8232POPC   C4A49578  22.172  26.090   7.350
 8232POPC   C1B49579  22.029  25.819   6.450
 8232POPC   C2B49580  22.030  25.885   6.750
 8232POPC   C3B49581  21.994  25.826   7.050
 8232POPC   C4B49582  21.942  25.857   7.350
 8233POPC   NC349583  32.246  34.602   5.550
 8233POPC   PO449584  32.234  34.581   5.850
 8233POPC   GL149585  32.257  34.607   6.150
 8233POPC   GL249586  32.202  34.683   6.150
 8233POPC   C1A49587  32.202  34.588   6.450
 8233POPC   D2A49588  32.295  34.540   6.750
 8233POPC   C3A49589  32.258  34.594   7.050
 8233POPC   C4A49590  32.273  34.588   7.350
 8233POPC   C1B49591  32.169  34.814   6.450
 8233POPC   C2B49592  32.254  34.851   6.750
 8233POPC   C3B49593  32.233  34.812   7.050
 8233POPC   C4B49594  32.186  34.858   7.350
 8234POPC   NC349595  38.468   0.448   5.550
 8234POPC   PO449596  38.493   0.469   5.850
 8234POPC   GL149597  38.417   0.416   6.150
 8234POPC   GL249598  38.419   0.362   6.150
 8234POPC   C1A49599  38.454   0.479   6.450
 8234POPC   D2A49600  38.429   0.420   6.750
 8234POPC   C3A49601  38.426   0.405   7.050
 8234POPC   C4A49602  38.457   0.434   7.350
 8234POPC   C1B49603  38.449   0.215   6.450
 8234POPC   C2B49604  38.402   0.185   6.750
 8234POPC   C3B49605  38.419   0.203   7.050
 8234POPC   C4B49606  38.366   0.223   7.350
 8235POPC   NC349607  36.095  24.514   5.550
 8235POPC   PO449608  36.122  24.495   5.850
 8235POPC   GL149609  36.140  24.516   6.150
 8235POPC   GL249610  36.218  24.359   6.150
 8235POPC   C1A49611  36.153  24.450   6.450
 8235POPC   D2A49612  36.112  24.446   6.750
 8235POPC   C3A49613  36.143  24.536   7.050
 8235POPC   C4A49614  36.131  24.457   7.350
 8235POPC   C1B49615  36.292  24.289   6.450
 8235POPC   C2B49616  36.282  24.314   6.750
 8235POPC   C3B49617  36.280  24.283   7.050
 8235POPC   C4B49618  36.282  24.323   7.350
 8236POPC   NC349619  43.149  12.803   5.550
 8236POPC   PO449620  43.133  12.806   5.850
 8236POPC   GL149621  43.147  12.880   6.150
 8236POPC   GL249622  43.025  12.876   6.150
 8236POPC   C1A49623  43.112  12.810   6.450
 8236POPC   D2A49624  43.140  12.888   6.750
 8236POPC   C3A49625  43.126  12.804   7.050
 8236POPC   C4A49626  43.147  12.862   7.350
 8236POPC   C1B49627  42.877  13.016   6.450
 8236POPC   C2B49628  42.878  13.021   6.750
 8236POPC   C3B49629  42.856  12.941   7.050
 8236POPC   C4B49630  42.866  13.024   7.350
 8237POPC   NC349631  30.729   4.317   5.550
 8237POPC   PO449632  30.665   4.329   5.850
 8237POPC   GL149633  30.703   4.334   6.150
 8237POPC   GL249634  30.665   4.171   6.150
 8237POPC   C1A49635  30.700   4.311   6.450
 8237POPC   D2A49636  30.692   4.273   6.750
 8237POPC   C3A49637  30.693   4.316   7.050
 8237POPC   C4A49638  30.701   4.285   7.350
 8237POPC   C1B49639  30.568   4.118   6.450
 8237POPC   C2B49640  30.588   4.108   6.750
 8237POPC   C3B49641  30.569   4.046   7.050
 8237POPC   C4B49642  30.581   4.063   7.350
 8238POPC   NC349643  12.027  42.352   5.550
 8238POPC   PO449644  12.116  42.343   5.850
 8238POPC   GL149645  12.109  42.304   6.150
 8238POPC   GL249646  12.175  42.223   6.150
 8238POPC   C1A49647  12.078  42.347   6.450
 8238POPC   D2A49648  12.068  42.347   6.750
 8238POPC   C3A49649  12.042  42.327   7.050
 8238POPC   C4A49650  12.113  42.303   7.350
 8238POPC   C1B49651  12.264  42.187   6.450
 8238POPC   C2B49652  12.227  42.115   6.750
 8238POPC   C3B49653  12.242  42.123   7.050
 8238POPC   C4B49654  12.203  42.123   7.350
 8239POPC   NC349655  32.229   8.156   5.550
 8239POPC   PO449656  32.280   8.214   5.850
 8239POPC   GL149657  32.273   8.225   6.150
 8239POPC   GL249658  32.251   8.114   6.150
 8239POPC   C1A49659  32.283   8.187   6.450
 8239POPC   D2A49660  32.269   8.160   6.750
 8239POPC   C3A49661  32.206   8.238   7.050
 8239POPC   C4A49662  32.253   8.193   7.350
 8239POPC   C1B49663  32.213   7.948   6.450
 8239POPC   C2B49664  32.204   7.942   6.750
 8239POPC   C3B49665  32.172   7.987   7.050
 8239POPC   C4B49666  32.175   7.941   7.350
 8240POPC   NC349667   3.545   4.351   5.550
 8240POPC   PO449668   3.535   4.363   5.850
 8240POPC   GL149669   3.544   4.291   6.150
 8240POPC   GL249670   3.607   4.451   6.150
 8240POPC   C1A49671   3.519   4.322   6.450
 8240POPC   D2A49672   3.549   4.361   6.750
 8240POPC   C3A49673   3.547   4.327   7.050
 8240POPC   C4A49674   3.533   4.313   7.350
 8240POPC   C1B49675   3.668   4.472   6.450
 8240POPC   C2B49676   3.691   4.517   6.750
 8240POPC   C3B49677   3.726   4.455   7.050
 8240POPC   C4B49678   3.739   4.489   7.350
 8241POPC   NC349679  21.422   3.530   5.550
 8241POPC   PO449680  21.368   3.499   5.850
 8241POPC   GL149681  21.362   3.554   6.150
 8241POPC   GL249682  21.476   3.646   6.150
 8241POPC   C1A49683  21.374   3.499   6.450
 8241POPC   D2A49684  21.363   3.523   6.750
 8241POPC   C3A49685  21.363   3.552   7.050
 8241POPC   C4A49686  21.370   3.513   7.350
 8241POPC   C1B49687  21.458   3.802   6.450
 8241POPC   C2B49688  21.509   3.768   6.750
 8241POPC   C3B49689  21.520   3.771   7.050
 8241POPC   C4B49690  21.534   3.748   7.350
 8242POPC   NC349691  29.906  36.931   5.550
 8242POPC   PO449692  29.920  36.923   5.850
 8242POPC   GL149693  29.942  36.941   6.150
 8242POPC   GL249694  30.012  36.840   6.150
 8242POPC   C1A49695  29.965  36.896   6.450
 8242POPC   D2A49696  29.877  36.897   6.750
 8242POPC   C3A49697  29.897  36.909   7.050
 8242POPC   C4A49698  29.950  36.911   7.350
 8242POPC   C1B49699  30.206  36.840   6.450
 8242POPC   C2B49700  30.151  36.828   6.750
 8242POPC   C3B49701  30.144  36.873   7.050
 8242POPC   C4B49702  30.174  36.844   7.350
 8243POPC   NC349703  16.696  27.635   5.550
 8243POPC   PO449704  16.690  27.618   5.850
 8243POPC   GL149705  16.752  27.586   6.150
 8243POPC   GL249706  16.796  27.512   6.150
 8243POPC   C1A49707  16.711  27.626   6.450
 8243POPC   D2A49708  16.767  27.550   6.750
 8243POPC   C3A49709  16.730  27.596   7.050
 8243POPC   C4A49710  16.686  27.599   7.350
 8243POPC   C1B49711  16.792  27.344   6.450
 8243POPC   C2B49712  16.756  27.356   6.750
 8243POPC   C3B49713  16.750  27.352   7.050
 8243POPC   C4B49714  16.778  27.354   7.350
 8244POPC   NC349715  42.298  14.419   5.550
 8244POPC   PO449716  42.348  14.367   5.850
 8244POPC   GL149717  42.316  14.442   6.150
 8244POPC   GL249718  42.418  14.441   6.150
 8244POPC   C1A49719  42.318  14.434   6.450
 8244POPC   D2A49720  42.291  14.355   6.750
 8244POPC   C3A49721  42.305  14.380   7.050
 8244POPC   C4A49722  42.364  14.407   7.350
 8244POPC   C1B49723  42.541  14.530   6.450
 8244POPC   C2B49724  42.599  14.498   6.750
 8244POPC   C3B49725  42.572  14.510   7.050
 8244POPC   C4B49726  42.569  14.560   7.350
 8245POPC   NC349727  24.485  21.424   5.550
 8245POPC   PO449728  24.515  21.378   5.850
 8245POPC   GL149729  24.490  21.370   6.150
 8245POPC   GL249730  24.376  21.349   6.150
 8245POPC   C1A49731  24.522  21.424   6.450
 8245POPC   D2A49732  24.445  21.355   6.750
 8245POPC   C3A49733  24.529  21.377   7.050
 8245POPC   C4A49734  24.512  21.382   7.350
 8245POPC   C1B49735  24.251  21.289   6.450
 8245POPC   C2B49736  24.295  21.237   6.750
 8245POPC   C3B49737  24.264  21.261   7.050
 8245POPC   C4B49738  24.288  21.309   7.350
 8246POPC   NC349739  42.285  10.491   5.550
 8246POPC   PO449740  42.313  10.569   5.850
 8246POPC   GL149741  42.364  10.499   6.150
 8246POPC   GL249742  42.194  10.434   6.150
 8246POPC   C1A49743  42.347  10.522   6.450
 8246POPC   D2A49744  42.305  10.533   6.750
 8246POPC   C3A49745  42.301  10.535   7.050
 8246POPC   C4A49746  42.374  10.525   7.350
 8246POPC   C1B49747  42.150  10.319   6.450
 8246POPC   C2B49748  42.195  10.316   6.750
 8246POPC   C3B49749  42.137  10.305   7.050
 8246POPC   C4B49750  42.178  10.366   7.350
 8247POPC   NC349751  11.327  37.700   5.550
 8247POPC   PO449752  11.329  37.697   5.850
 8247POPC   GL149753  11.261  37.697   6.150
 8247POPC   GL249754  11.185  37.584   6.150
 8247POPC   C1A49755  11.337  37.691   6.450
 8247POPC   D2A49756  11.337  37.718   6.750
 8247POPC   C3A49757  11.318  37.726   7.050
 8247POPC   C4A49758  11.283  37.719   7.350
 8247POPC   C1B49759  11.122  37.501   6.450
 8247POPC   C2B49760  11.136  37.584   6.750
 8247POPC   C3B49761  11.091  37.494   7.050
 8247POPC   C4B49762  11.042  37.569   7.350
 8248POPC   NC349763  36.925  15.189   5.550
 8248POPC   PO449764  36.891  15.170   5.850
 8248POPC   GL149765  36.945  15.204   6.150
 8248POPC   GL249766  36.976  15.123   6.150
 8248POPC   C1A49767  36.885  15.201   6.450
 8248POPC   D2A49768  36.902  15.208   6.750
 8248POPC   C3A49769  36.920  15.161   7.050
 8248POPC   C4A49770  36.950  15.216   7.350
 8248POPC   C1B49771  37.032  15.040   6.450
 8248POPC   C2B49772  37.075  15.011   6.750
 8248POPC   C3B49773  37.038  15.018   7.050
 8248POPC   C4B49774  37.094  15.050   7.350
 8249POPC   NC349775  43.128  12.042   5.550
 8249POPC   PO449776  43.107  12.116   5.850
 8249POPC   GL149777  43.141  12.029   6.150
 8249POPC   GL249778  42.963  12.104   6.150
 8249POPC   C1A49779  43.128  12.104   6.450
 8249POPC   D2A49780  43.061  12.104   6.750
 8249POPC   C3A49781  43.139  12.074   7.050
 8249POPC   C4A49782  43.130  12.027   7.350
 8249POPC   C1B49783  42.902  12.087   6.450
 8249POPC   C2B49784  42.855  12.056   6.750
 8249POPC   C3B49785  42.909  12.038   7.050
 8249POPC   C4B49786  42.880  12.047   7.350
 8250POPC   NC349787   8.236   1.177   5.550
 8250POPC   PO449788   8.184   1.226   5.850
 8250POPC   GL149789   8.232   1.244   6.150
 8250POPC   GL249790   8.273   1.166   6.150
 8250POPC   C1A49791   8.176   1.183   6.450
 8250POPC   D2A49792   8.167   1.223   6.750
 8250POPC   C3A49793   8.228   1.224   7.050
 8250POPC   C4A49794   8.198   1.206   7.350
 8250POPC   C1B49795   8.340   1.004   6.450
 8250POPC   C2B49796   8.330   1.039   6.750
 8250POPC   C3B49797   8.350   1.071   7.050
 8250POPC   C4B49798   8.364   1.085   7.350
 8251POPC   NC349799   9.701  43.106   5.550
 8251POPC   PO449800   9.764  43.127   5.850
 8251POPC   GL149801   9.780  43.064   6.150
 8251POPC   GL249802   9.755  43.266   6.150
 8251POPC   C1A49803   9.782  43.128   6.450
 8251POPC   D2A49804   9.740  43.104   6.750
 8251POPC   C3A49805   9.753  43.149   7.050
 8251POPC   C4A49806   9.744  43.112   7.350
 8251POPC   C1B49807   9.766  43.380   6.450
 8251POPC   C2B49808   9.771  43.386   6.750
 8251POPC   C3B49809   9.739  43.385   7.050
 8251POPC   C4B49810   9.802  43.343   7.350
 8252POPC   NC349811  40.017  35.401   5.550
 8252POPC   PO449812  40.032  35.372   5.850
 8252POPC   GL149813  39.959  35.338   6.150
 8252POPC   GL249814  40.022  35.511   6.150
 8252POPC   C1A49815  39.986  35.306   6.450
 8252POPC   D2A49816  40.050  35.384   6.750
 8252POPC   C3A49817  39.958  35.338   7.050
 8252POPC   C4A49818  40.047  35.321   7.350
 8252POPC   C1B49819  40.073  35.606   6.450
 8252POPC   C2B49820  40.070  35.633   6.750
 8252POPC   C3B49821  40.047  35.561   7.050
 8252POPC   C4B49822  40.024  35.571   7.350
 8253POPC   NC349823  29.147  12.099   5.550
 8253POPC   PO449824  29.159  12.027   5.850
 8253POPC   GL149825  29.100  12.059   6.150
 8253POPC   GL249826  29.096  12.020   6.150
 8253POPC   C1A49827  29.128  12.093   6.450
 8253POPC   D2A49828  29.109  12.121   6.750
 8253POPC   C3A49829  29.103  12.119   7.050
 8253POPC   C4A49830  29.147  12.036   7.350
 8253POPC   C1B49831  29.003  11.858   6.450
 8253POPC   C2B49832  28.981  11.877   6.750
 8253POPC   C3B49833  28.930  11.903   7.050
 8253POPC   C4B49834  29.025  11.848   7.350
 8254POPC   NC349835  37.643  15.205   5.550
 8254POPC   PO449836  37.717  15.190   5.850
 8254POPC   GL149837  37.662  15.167   6.150
 8254POPC   GL249838  37.645  15.041   6.150
 8254POPC   C1A49839  37.659  15.132   6.450
 8254POPC   D2A49840  37.656  15.223   6.750
 8254POPC   C3A49841  37.636  15.209   7.050
 8254POPC   C4A49842  37.632  15.210   7.350
 8254POPC   C1B49843  37.545  14.987   6.450
 8254POPC   C2B49844  37.558  14.987   6.750
 8254POPC   C3B49845  37.632  14.916   7.050
 8254POPC   C4B49846  37.633  14.955   7.350
 8255POPC   NC349847  42.379   8.236   5.550
 8255POPC   PO449848  42.301   8.178   5.850
 8255POPC   GL149849  42.351   8.162   6.150
 8255POPC   GL249850  42.260   8.231   6.150
 8255POPC   C1A49851  42.335   8.178   6.450
 8255POPC   D2A49852  42.295   8.235   6.750
 8255POPC   C3A49853  42.288   8.216   7.050
 8255POPC   C4A49854  42.373   8.233   7.350
 8255POPC   C1B49855  42.110   8.209   6.450
 8255POPC   C2B49856  42.037   8.201   6.750
 8255POPC   C3B49857  42.082   8.147   7.050
 8255POPC   C4B49858  42.117   8.197   7.350
 8256POPC   NC349859  28.379  25.241   5.550
 8256POPC   PO449860  28.416  25.231   5.850
 8256POPC   GL149861  28.334  25.250   6.150
 8256POPC   GL249862  28.446  25.225   6.150
 8256POPC   C1A49863  28.406  25.271   6.450
 8256POPC   D2A49864  28.356  25.304   6.750
 8256POPC   C3A49865  28.345  25.282   7.050
 8256POPC   C4A49866  28.360  25.263   7.350
 8256POPC   C1B49867  28.628  25.154   6.450
 8256POPC   C2B49868  28.615  25.171   6.750
 8256POPC   C3B49869  28.562  25.226   7.050
 8256POPC   C4B49870  28.579  25.217   7.350
 8257POPC   NC349871   1.165  36.884   5.550
 8257POPC   PO449872   1.199  36.875   5.850
 8257POPC   GL149873   1.235  36.865   6.150
 8257POPC   GL249874   1.280  37.029   6.150
 8257POPC   C1A49875   1.206  36.909   6.450
 8257POPC   D2A49876   1.242  36.937   6.750
 8257POPC   C3A49877   1.184  36.894   7.050
 8257POPC   C4A49878   1.193  36.857   7.350
 8257POPC   C1B49879   1.305  37.153   6.450
 8257POPC   C2B49880   1.318  37.107   6.750
 8257POPC   C3B49881   1.285  37.111   7.050
 8257POPC   C4B49882   1.309  37.147   7.350
 8258POPC   NC349883  21.377  11.270   5.550
 8258POPC   PO449884  21.435  11.348   5.850
 8258POPC   GL149885  21.434  11.297   6.150
 8258POPC   GL249886  21.465  11.202   6.150
 8258POPC   C1A49887  21.398  11.340   6.450
 8258POPC   D2A49888  21.403  11.321   6.750
 8258POPC   C3A49889  21.345  11.321   7.050
 8258POPC   C4A49890  21.346  11.298   7.350
 8258POPC   C1B49891  21.594  11.150   6.450
 8258POPC   C2B49892  21.611  11.161   6.750
 8258POPC   C3B49893  21.589  11.193   7.050
 8258POPC   C4B49894  21.539  11.105   7.350
 8259POPC   NC349895  23.701  27.605   5.550
 8259POPC   PO449896  23.691  27.632   5.850
 8259POPC   GL149897  23.744  27.629   6.150
 8259POPC   GL249898  23.616  27.585   6.150
 8259POPC   C1A49899  23.712  27.581   6.450
 8259POPC   D2A49900  23.676  27.557   6.750
 8259POPC   C3A49901  23.729  27.624   7.050
 8259POPC   C4A49902  23.736  27.598   7.350
 8259POPC   C1B49903  23.505  27.614   6.450
 8259POPC   C2B49904  23.425  27.575   6.750
 8259POPC   C3B49905  23.457  27.644   7.050
 8259POPC   C4B49906  23.431  27.596   7.350
 8260POPC   NC349907  29.125  28.373   5.550
 8260POPC   PO449908  29.135  28.353   5.850
 8260POPC   GL149909  29.186  28.328   6.150
 8260POPC   GL249910  29.300  28.378   6.150
 8260POPC   C1A49911  29.156  28.350   6.450
 8260POPC   D2A49912  29.126  28.330   6.750
 8260POPC   C3A49913  29.095  28.405   7.050
 8260POPC   C4A49914  29.157  28.327   7.350
 8260POPC   C1B49915  29.374  28.376   6.450
 8260POPC   C2B49916  29.384  28.445   6.750
 8260POPC   C3B49917  29.374  28.363   7.050
 8260POPC   C4B49918  29.416  28.433   7.350
 8261POPC   NC349919  43.104  18.282   5.550
 8261POPC   PO449920  43.071  18.295   5.850
 8261POPC   GL149921  43.152  18.253   6.150
 8261POPC   GL249922  43.273  18.259   6.150
 8261POPC   C1A49923  43.137  18.313   6.450
 8261POPC   D2A49924  43.099  18.293   6.750
 8261POPC   C3A49925  43.110  18.323   7.050
 8261POPC   C4A49926  43.114  18.316   7.350
 8261POPC   C1B49927  43.324  18.343   6.450
 8261POPC   C2B49928  43.408  18.318   6.750
 8261POPC   C3B49929  43.321  18.292   7.050
 8261POPC   C4B49930  43.317  18.300   7.350
 8262POPC   NC349931  28.341  34.601   5.550
 8262POPC   PO449932  28.347  34.542   5.850
 8262POPC   GL149933  28.366  34.538   6.150
 8262POPC   GL249934  28.410  34.623   6.150
 8262POPC   C1A49935  28.410  34.595   6.450
 8262POPC   D2A49936  28.379  34.623   6.750
 8262POPC   C3A49937  28.325  34.538   7.050
 8262POPC   C4A49938  28.403  34.622   7.350
 8262POPC   C1B49939  28.555  34.715   6.450
 8262POPC   C2B49940  28.541  34.766   6.750
 8262POPC   C3B49941  28.533  34.781   7.050
 8262POPC   C4B49942  28.550  34.762   7.350
 8263POPC   NC349943  33.036   7.452   5.550
 8263POPC   PO449944  33.060   7.415   5.850
 8263POPC   GL149945  32.985   7.406   6.150
 8263POPC   GL249946  32.873   7.459   6.150
 8263POPC   C1A49947  33.056   7.389   6.450
 8263POPC   D2A49948  32.979   7.374   6.750
 8263POPC   C3A49949  33.012   7.375   7.050
 8263POPC   C4A49950  33.008   7.453   7.350
 8263POPC   C1B49951  32.765   7.485   6.450
 8263POPC   C2B49952  32.742   7.535   6.750
 8263POPC   C3B49953  32.825   7.487   7.050
 8263POPC   C4B49954  32.778   7.462   7.350
 8264POPC   NC349955  43.897   9.741   5.550
 8264POPC   PO449956  43.936   9.726   5.850
 8264POPC   GL149957  43.844   9.710   6.150
 8264POPC   GL249958  44.034   9.779   6.150
 8264POPC   C1A49959  43.892   9.724   6.450
 8264POPC   D2A49960  43.866   9.718   6.750
 8264POPC   C3A49961  43.855   9.703   7.050
 8264POPC   C4A49962  43.884   9.699   7.350
 8264POPC   C1B49963  44.040   9.930   6.450
 8264POPC   C2B49964  44.076   9.890   6.750
 8264POPC   C3B49965  44.074   9.857   7.050
 8264POPC   C4B49966  44.053   9.920   7.350
 8265POPC   NC349967  24.519  33.005   5.550
 8265POPC   PO449968  24.499  32.999   5.850
 8265POPC   GL149969  24.527  32.988   6.150
 8265POPC   GL249970  24.632  33.008   6.150
 8265POPC   C1A49971  24.492  33.060   6.450
 8265POPC   D2A49972  24.508  33.027   6.750
 8265POPC   C3A49973  24.469  32.989   7.050
 8265POPC   C4A49974  24.533  32.983   7.350
 8265POPC   C1B49975  24.760  33.086   6.450
 8265POPC   C2B49976  24.738  33.083   6.750
 8265POPC   C3B49977  24.733  33.095   7.050
 8265POPC   C4B49978  24.762  33.080   7.350
 8266POPC   NC349979  36.913  42.383   5.550
 8266POPC   PO449980  36.910  42.326   5.850
 8266POPC   GL149981  36.923  42.331   6.150
 8266POPC   GL249982  36.909  42.226   6.150
 8266POPC   C1A49983  36.931  42.376   6.450
 8266POPC   D2A49984  36.879  42.327   6.750
 8266POPC   C3A49985  36.946  42.369   7.050
 8266POPC   C4A49986  36.926  42.296   7.350
 8266POPC   C1B49987  36.886  42.087   6.450
 8266POPC   C2B49988  36.868  42.054   6.750
 8266POPC   C3B49989  36.924  42.079   7.050
 8266POPC   C4B49990  36.925  42.086   7.350
 8267POPC   NC349991  41.545  31.443   5.550
 8267POPC   PO449992  41.568  31.448   5.850
 8267POPC   GL149993  41.565  31.435   6.150
 8267POPC   GL249994  41.627  31.576   6.150
 8267POPC   C1A49995  41.540  31.474   6.450
 8267POPC   D2A49996  41.528  31.515   6.750
 8267POPC   C3A49997  41.540  31.462   7.050
 8267POPC   C4A49998  41.582  31.508   7.350
 8267POPC   C1B49999  41.698  31.730   6.450
 8267POPC   C2B50000  41.640  31.698   6.750
 8267POPC   C3B50001  41.686  31.722   7.050
 8267POPC   C4B50002  41.677  31.695   7.350
 8268POPC   NC350003  15.145  37.664   5.550
 8268POPC   PO450004  15.136  37.635   5.850
 8268POPC   GL150005  15.199  37.665   6.150
 8268POPC   GL250006  15.205  37.764   6.150
 8268POPC   C1A50007  15.194  37.722   6.450
 8268POPC   D2A50008  15.190  37.691   6.750
 8268POPC   C3A50009  15.157  37.689   7.050
 8268POPC   C4A50010  15.167  37.728   7.350
 8268POPC   C1B50011  15.342  37.900   6.450
 8268POPC   C2B50012  15.309  37.891   6.750
 8268POPC   C3B50013  15.285  37.846   7.050
 8268POPC   C4B50014  15.352  37.858   7.350
 8269POPC   NC350015   2.755  39.221   5.550
 8269POPC   PO450016   2.777  39.241   5.850
 8269POPC   GL150017   2.772  39.265   6.150
 8269POPC   GL250018   2.685  39.359   6.150
 8269POPC   C1A50019   2.784  39.216   6.450
 8269POPC   D2A50020   2.798  39.242   6.750
 8269POPC   C3A50021   2.767  39.253   7.050
 8269POPC   C4A50022   2.725  39.243   7.350
 8269POPC   C1B50023   2.650  39.464   6.450
 8269POPC   C2B50024   2.676  39.497   6.750
 8269POPC   C3B50025   2.690  39.415   7.050
 8269POPC   C4B50026   2.701  39.476   7.350
 8270POPC   NC350027  28.383  11.321   5.550
 8270POPC   PO450028  28.369  11.319   5.850
 8270POPC   GL150029  28.362  11.253   6.150
 8270POPC   GL250030  28.450  11.425   6.150
 8270POPC   C1A50031  28.325  11.340   6.450
 8270POPC   D2A50032  28.355  11.296   6.750
 8270POPC   C3A50033  28.327  11.318   7.050
 8270POPC   C4A50034  28.335  11.323   7.350
 8270POPC   C1B50035  28.509  11.447   6.450
 8270POPC   C2B50036  28.477  11.502   6.750
 8270POPC   C3B50037  28.487  11.542   7.050
 8270POPC   C4B50038  28.523  11.457   7.350
 8271POPC   NC350039  16.708   2.002   5.550
 8271POPC   PO450040  16.730   1.949   5.850
 8271POPC   GL150041  16.717   1.991   6.150
 8271POPC   GL250042  16.636   2.131   6.150
 8271POPC   C1A50043  16.684   2.019   6.450
 8271POPC   D2A50044  16.754   1.951   6.750
 8271POPC   C3A50045  16.730   2.012   7.050
 8271POPC   C4A50046  16.685   2.035   7.350
 8271POPC   C1B50047  16.562   2.138   6.450
 8271POPC   C2B50048  16.587   2.156   6.750
 8271POPC   C3B50049  16.519   2.180   7.050
 8271POPC   C4B50050  16.547   2.180   7.350
 8272POPC   NC350051   2.750   1.197   5.550
 8272POPC   PO450052   2.768   1.177   5.850
 8272POPC   GL150053   2.720   1.256   6.150
 8272POPC   GL250054   2.805   1.342   6.150
 8272POPC   C1A50055   2.728   1.170   6.450
 8272POPC   D2A50056   2.779   1.188   6.750
 8272POPC   C3A50057   2.722   1.190   7.050
 8272POPC   C4A50058   2.813   1.168   7.350
 8272POPC   C1B50059   2.822   1.492   6.450
 8272POPC   C2B50060   2.875   1.454   6.750
 8272POPC   C3B50061   2.835   1.458   7.050
 8272POPC   C4B50062   2.861   1.466   7.350
 8273POPC   NC350063   8.202   6.683   5.550
 8273POPC   PO450064   8.189   6.641   5.850
 8273POPC   GL150065   8.158   6.665   6.150
 8273POPC   GL250066   8.170   6.812   6.150
 8273POPC   C1A50067   8.213   6.626   6.450
 8273POPC   D2A50068   8.164   6.634   6.750
 8273POPC   C3A50069   8.180   6.608   7.050
 8273POPC   C4A50070   8.186   6.615   7.350
 8273POPC   C1B50071   8.104   6.911   6.450
 8273POPC   C2B50072   8.167   6.920   6.750
 8273POPC   C3B50073   8.126   6.863   7.050
 8273POPC   C4B50074   8.097   6.914   7.350
 8274POPC   NC350075   7.374  23.706   5.550
 8274POPC   PO450076   7.457  23.709   5.850
 8274POPC   GL150077   7.432  23.752   6.150
 8274POPC   GL250078   7.369  23.837   6.150
 8274POPC   C1A50079   7.398  23.726   6.450
 8274POPC   D2A50080   7.378  23.676   6.750
 8274POPC   C3A50081   7.465  23.750   7.050
 8274POPC   C4A50082   7.449  23.700   7.350
 8274POPC   C1B50083   7.434  23.971   6.450
 8274POPC   C2B50084   7.444  23.930   6.750
 8274POPC   C3B50085   7.440  23.943   7.050
 8274POPC   C4B50086   7.423  24.007   7.350
 8275POPC   NC350087  41.536  18.304   5.550
 8275POPC   PO450088  41.528  18.243   5.850
 8275POPC   GL150089  41.580  18.327   6.150
 8275POPC   GL250090  41.473  18.328   6.150
 8275POPC   C1A50091  41.533  18.329   6.450
 8275POPC   D2A50092  41.561  18.239   6.750
 8275POPC   C3A50093  41.538  18.264   7.050
 8275POPC   C4A50094  41.595  18.243   7.350
 8275POPC   C1B50095  41.357  18.314   6.450
 8275POPC   C2B50096  41.341  18.285   6.750
 8275POPC   C3B50097  41.276  18.337   7.050
 8275POPC   C4B50098  41.315  18.294   7.350
 8276POPC   NC350099   4.339  33.847   5.550
 8276POPC   PO450100   4.321  33.814   5.850
 8276POPC   GL150101   4.339  33.757   6.150
 8276POPC   GL250102   4.258  33.939   6.150
 8276POPC   C1A50103   4.353  33.826   6.450
 8276POPC   D2A50104   4.340  33.846   6.750
 8276POPC   C3A50105   4.303  33.757   7.050
 8276POPC   C4A50106   4.310  33.833   7.350
 8276POPC   C1B50107   4.215  34.021   6.450
 8276POPC   C2B50108   4.257  34.060   6.750
 8276POPC   C3B50109   4.211  34.008   7.050
 8276POPC   C4B50110   4.191  34.063   7.350
 8277POPC   NC350111  13.668  27.632   5.550
 8277POPC   PO450112  13.584  27.579   5.850
 8277POPC   GL150113  13.582  27.619   6.150
 8277POPC   GL250114  13.552  27.633   6.150
 8277POPC   C1A50115  13.673  27.600   6.450
 8277POPC   D2A50116  13.653  27.614   6.750
 8277POPC   C3A50117  13.637  27.606   7.050
 8277POPC   C4A50118  13.596  27.638   7.350
 8277POPC   C1B50119  13.381  27.607   6.450
 8277POPC   C2B50120  13.390  27.680   6.750
 8277POPC   C3B50121  13.416  27.602   7.050
 8277POPC   C4B50122  13.409  27.619   7.350
 8278POPC   NC350123  12.076  24.522   5.550
 8278POPC   PO450124  12.036  24.536   5.850
 8278POPC   GL150125  12.070  24.442   6.150
 8278POPC   GL250126  11.914  24.508   6.150
 8278POPC   C1A50127  12.101  24.463   6.450
 8278POPC   D2A50128  12.031  24.486   6.750
 8278POPC   C3A50129  12.065  24.499   7.050
 8278POPC   C4A50130  12.064  24.457   7.350
 8278POPC   C1B50131  11.806  24.553   6.450
 8278POPC   C2B50132  11.838  24.514   6.750
 8278POPC   C3B50133  11.800  24.582   7.050
 8278POPC   C4B50134  11.878  24.565   7.350
 8279POPC   NC350135   5.904  40.002   5.550
 8279POPC   PO450136   5.913  39.969   5.850
 8279POPC   GL150137   5.824  39.987   6.150
 8279POPC   GL250138   5.787  39.866   6.150
 8279POPC   C1A50139   5.858  40.025   6.450
 8279POPC   D2A50140   5.899  39.958   6.750
 8279POPC   C3A50141   5.897  39.974   7.050
 8279POPC   C4A50142   5.908  40.041   7.350
 8279POPC   C1B50143   5.706  39.835   6.450
 8279POPC   C2B50144   5.754  39.843   6.750
 8279POPC   C3B50145   5.716  39.755   7.050
 8279POPC   C4B50146   5.698  39.808   7.350
 8280POPC   NC350147  14.429  15.933   5.550
 8280POPC   PO450148  14.400  15.989   5.850
 8280POPC   GL150149  14.362  15.923   6.150
 8280POPC   GL250150  14.502  15.923   6.150
 8280POPC   C1A50151  14.417  15.923   6.450
 8280POPC   D2A50152  14.434  15.910   6.750
 8280POPC   C3A50153  14.385  15.956   7.050
 8280POPC   C4A50154  14.373  15.957   7.350
 8280POPC   C1B50155  14.598  15.850   6.450
 8280POPC   C2B50156  14.654  15.903   6.750
 8280POPC   C3B50157  14.625  15.882   7.050
 8280POPC   C4B50158  14.660  15.912   7.350
 8281POPC   NC350159  13.612  12.040   5.550
 8281POPC   PO450160  13.665  12.085   5.850
 8281POPC   GL150161  13.668  12.115   6.150
 8281POPC   GL250162  13.562  11.917   6.150
 8281POPC   C1A50163  13.627  12.066   6.450
 8281POPC   D2A50164  13.584  12.087   6.750
 8281POPC   C3A50165  13.643  12.108   7.050
 8281POPC   C4A50166  13.591  12.087   7.350
 8281POPC   C1B50167  13.549  11.879   6.450
 8281POPC   C2B50168  13.484  11.849   6.750
 8281POPC   C3B50169  13.528  11.849   7.050
 8281POPC   C4B50170  13.462  11.859   7.350
 8282POPC   NC350171   8.175  42.368   5.550
 8282POPC   PO450172   8.178  42.344   5.850
 8282POPC   GL150173   8.190  42.331   6.150
 8282POPC   GL250174   8.182  42.233   6.150
 8282POPC   C1A50175   8.198  42.296   6.450
 8282POPC   D2A50176   8.157  42.382   6.750
 8282POPC   C3A50177   8.153  42.378   7.050
 8282POPC   C4A50178   8.234  42.326   7.350
 8282POPC   C1B50179   8.207  42.090   6.450
 8282POPC   C2B50180   8.229  42.121   6.750
 8282POPC   C3B50181   8.215  42.088   7.050
 8282POPC   C4B50182   8.162  42.131   7.350
 8283POPC   NC350183  40.818   1.252   5.550
 8283POPC   PO450184  40.804   1.212   5.850
 8283POPC   GL150185  40.804   1.241   6.150
 8283POPC   GL250186  40.893   1.167   6.150
 8283POPC   C1A50187  40.745   1.217   6.450
 8283POPC   D2A50188  40.776   1.191   6.750
 8283POPC   C3A50189  40.815   1.177   7.050
 8283POPC   C4A50190  40.817   1.209   7.350
 8283POPC   C1B50191  40.929   1.082   6.450
 8283POPC   C2B50192  40.944   1.059   6.750
 8283POPC   C3B50193  40.956   1.070   7.050
 8283POPC   C4B50194  40.994   1.094   7.350
 8284POPC   NC350195  37.683  15.942   5.550
 8284POPC   PO450196  37.653  15.923   5.850
 8284POPC   GL150197  37.635  15.936   6.150
 8284POPC   GL250198  37.551  15.980   6.150
 8284POPC   C1A50199  37.711  15.932   6.450
 8284POPC   D2A50200  37.637  15.983   6.750
 8284POPC   C3A50201  37.654  15.971   7.050
 8284POPC   C4A50202  37.710  15.982   7.350
 8284POPC   C1B50203  37.455  16.017   6.450
 8284POPC   C2B50204  37.471  16.018   6.750
 8284POPC   C3B50205  37.452  16.006   7.050
 8284POPC   C4B50206  37.404  15.986   7.350
 8285POPC   NC350207  25.312  22.130   5.550
 8285POPC   PO450208  25.226  22.151   5.850
 8285POPC   GL150209  25.239  22.122   6.150
 8285POPC   GL250210  25.310  22.276   6.150
 8285POPC   C1A50211  25.244  22.196   6.450
 8285POPC   D2A50212  25.287  22.196   6.750
 8285POPC   C3A50213  25.286  22.164   7.050
 8285POPC   C4A50214  25.304  22.175   7.350
 8285POPC   C1B50215  25.270  22.435   6.450
 8285POPC   C2B50216  25.255  22.365   6.750
 8285POPC   C3B50217  25.272  22.367   7.050
 8285POPC   C4B50218  25.253  22.375   7.350
 8286POPC   NC350219   5.855   8.209   5.550
 8286POPC   PO450220   5.850   8.246   5.850
 8286POPC   GL150221   5.842   8.181   6.150
 8286POPC   GL250222   5.932   8.339   6.150
 8286POPC   C1A50223   5.882   8.194   6.450
 8286POPC   D2A50224   5.846   8.167   6.750
 8286POPC   C3A50225   5.898   8.171   7.050
 8286POPC   C4A50226   5.914   8.194   7.350
 8286POPC   C1B50227   5.988   8.406   6.450
 8286POPC   C2B50228   6.031   8.369   6.750
 8286POPC   C3B50229   6.076   8.375   7.050
 8286POPC   C4B50230   6.026   8.384   7.350
 8287POPC   NC350231  16.777  17.540   5.550
 8287POPC   PO450232  16.732  17.496   5.850
 8287POPC   GL150233  16.734  17.540   6.150
 8287POPC   GL250234  16.611  17.491   6.150
 8287POPC   C1A50235  16.709  17.510   6.450
 8287POPC   D2A50236  16.683  17.480   6.750
 8287POPC   C3A50237  16.777  17.544   7.050
 8287POPC   C4A50238  16.759  17.528   7.350
 8287POPC   C1B50239  16.449  17.552   6.450
 8287POPC   C2B50240  16.440  17.609   6.750
 8287POPC   C3B50241  16.505  17.522   7.050
 8287POPC   C4B50242  16.478  17.578   7.350
 8288POPC   NC350243  12.103  12.830   5.550
 8288POPC   PO450244  12.045  12.868   5.850
 8288POPC   GL150245  12.120  12.869   6.150
 8288POPC   GL250246  11.965  12.800   6.150
 8288POPC   C1A50247  12.070  12.836   6.450
 8288POPC   D2A50248  12.111  12.869   6.750
 8288POPC   C3A50249  12.119  12.852   7.050
 8288POPC   C4A50250  12.125  12.808   7.350
 8288POPC   C1B50251  11.790  12.859   6.450
 8288POPC   C2B50252  11.829  12.784   6.750
 8288POPC   C3B50253  11.790  12.767   7.050
 8288POPC   C4B50254  11.819  12.767   7.350
 8289POPC   NC350255  27.606  35.309   5.550
 8289POPC   PO450256  27.571  35.316   5.850
 8289POPC   GL150257  27.581  35.343   6.150
 8289POPC   GL250258  27.581  35.521   6.150
 8289POPC   C1A50259  27.584  35.359   6.450
 8289POPC   D2A50260  27.575  35.396   6.750
 8289POPC   C3A50261  27.596  35.327   7.050
 8289POPC   C4A50262  27.569  35.369   7.350
 8289POPC   C1B50263  27.614  35.638   6.450
 8289POPC   C2B50264  27.585  35.606   6.750
 8289POPC   C3B50265  27.576  35.553   7.050
 8289POPC   C4B50266  27.643  35.585   7.350
 8290POPC   NC350267  10.488  35.328   5.550
 8290POPC   PO450268  10.483  35.342   5.850
 8290POPC   GL150269  10.571  35.364   6.150
 8290POPC   GL250270  10.439  35.375   6.150
 8290POPC   C1A50271  10.494  35.318   6.450
 8290POPC   D2A50272  10.567  35.393   6.750
 8290POPC   C3A50273  10.566  35.367   7.050
 8290POPC   C4A50274  10.496  35.339   7.350
 8290POPC   C1B50275  10.258  35.342   6.450
 8290POPC   C2B50276  10.253  35.322   6.750
 8290POPC   C3B50277  10.317  35.414   7.050
 8290POPC   C4B50278  10.297  35.353   7.350
 8291POPC   NC350279   6.649  24.505   5.550
 8291POPC   PO450280   6.646  24.453   5.850
 8291POPC   GL150281   6.666  24.450   6.150
 8291POPC   GL250282   6.535  24.556   6.150
 8291POPC   C1A50283   6.692  24.477   6.450
 8291POPC   D2A50284   6.618  24.529   6.750
 8291POPC   C3A50285   6.652  24.526   7.050
 8291POPC   C4A50286   6.625  24.461   7.350
 8291POPC   C1B50287   6.457  24.584   6.450
 8291POPC   C2B50288   6.361  24.613   6.750
 8291POPC   C3B50289   6.366  24.569   7.050
 8291POPC   C4B50290   6.395  24.582   7.350
 8292POPC   NC350291  40.769  43.935   5.550
 8292POPC   PO450292  40.762  43.922   5.850
 8292POPC   GL150293  40.779  43.868   6.150
 8292POPC   GL250294  40.884  43.877   6.150
 8292POPC   C1A50295  40.815  43.910   6.450
 8292POPC   D2A50296  40.760  43.916   6.750
 8292POPC   C3A50297  40.778  43.863   7.050
 8292POPC   C4A50298  40.743  43.925   7.350
 8292POPC   C1B50299  40.999  43.861   6.450
 8292POPC   C2B50300  41.063  43.947   6.750
 8292POPC   C3B50301  40.999  43.907   7.050
 8292POPC   C4B50302  41.041  43.895   7.350
 8293POPC   NC350303   8.198  22.908   5.550
 8293POPC   PO450304   8.199  22.976   5.850
 8293POPC   GL150305   8.182  22.986   6.150
 8293POPC   GL250306   8.133  23.058   6.150
 8293POPC   C1A50307   8.229  22.984   6.450
 8293POPC   D2A50308   8.169  22.957   6.750
 8293POPC   C3A50309   8.178  22.916   7.050
 8293POPC   C4A50310   8.228  22.929   7.350
 8293POPC   C1B50311   8.048  23.148   6.450
 8293POPC   C2B50312   8.052  23.178   6.750
 8293POPC   C3B50313   8.064  23.087   7.050
 8293POPC   C4B50314   8.037  23.130   7.350
 8294POPC   NC350315  43.878  26.818   5.550
 8294POPC   PO450316  43.933  26.844   5.850
 8294POPC   GL150317  43.891  26.844   6.150
 8294POPC   GL250318  43.757  26.737   6.150
 8294POPC   C1A50319  43.896  26.858   6.450
 8294POPC   D2A50320  43.888  26.800   6.750
 8294POPC   C3A50321  43.912  26.853   7.050
 8294POPC   C4A50322  43.920  26.832   7.350
 8294POPC   C1B50323  43.665  26.734   6.450
 8294POPC   C2B50324  43.630  26.674   6.750
 8294POPC   C3B50325  43.666  26.710   7.050
 8294POPC   C4B50326  43.618  26.757   7.350
 8295POPC   NC350327  30.700  26.047   5.550
 8295POPC   PO450328  30.745  26.026   5.850
 8295POPC   GL150329  30.697  26.036   6.150
 8295POPC   GL250330  30.675  26.174   6.150
 8295POPC   C1A50331  30.648  26.030   6.450
 8295POPC   D2A50332  30.734  26.069   6.750
 8295POPC   C3A50333  30.677  26.043   7.050
 8295POPC   C4A50334  30.661  26.064   7.350
 8295POPC   C1B50335  30.687  26.253   6.450
 8295POPC   C2B50336  30.698  26.316   6.750
 8295POPC   C3B50337  30.683  26.320   7.050
 8295POPC   C4B50338  30.653  26.265   7.350
 8296POPC   NC350339  26.803   3.520   5.550
 8296POPC   PO450340  26.801   3.535   5.850
 8296POPC   GL150341  26.785   3.509   6.150
 8296POPC   GL250342  26.939   3.515   6.150
 8296POPC   C1A50343  26.811   3.491   6.450
 8296POPC   D2A50344  26.823   3.504   6.750
 8296POPC   C3A50345  26.855   3.546   7.050
 8296POPC   C4A50346  26.799   3.571   7.350
 8296POPC   C1B50347  27.047   3.407   6.450
 8296POPC   C2B50348  27.000   3.404   6.750
 8296POPC   C3B50349  27.031   3.406   7.050
 8296POPC   C4B50350  27.005   3.430   7.350
 8297POPC   NC350351   1.964  34.606   5.550
 8297POPC   PO450352   2.014  34.551   5.850
 8297POPC   GL150353   2.013  34.586   6.150
 8297POPC   GL250354   1.913  34.661   6.150
 8297POPC   C1A50355   2.021  34.546   6.450
 8297POPC   D2A50356   1.988  34.537   6.750
 8297POPC   C3A50357   1.984  34.540   7.050
 8297POPC   C4A50358   2.030  34.558   7.350
 8297POPC   C1B50359   1.854  34.786   6.450
 8297POPC   C2B50360   1.892  34.834   6.750
 8297POPC   C3B50361   1.901  34.838   7.050
 8297POPC   C4B50362   1.923  34.857   7.350
 8298POPC   NC350363  10.515  40.052   5.550
 8298POPC   PO450364  10.568  40.056   5.850
 8298POPC   GL150365  10.556  39.980   6.150
 8298POPC   GL250366  10.618  39.886   6.150
 8298POPC   C1A50367  10.497  39.959   6.450
 8298POPC   D2A50368  10.559  40.026   6.750
 8298POPC   C3A50369  10.499  39.982   7.050
 8298POPC   C4A50370  10.476  40.040   7.350
 8298POPC   C1B50371  10.614  39.796   6.450
 8298POPC   C2B50372  10.629  39.771   6.750
 8298POPC   C3B50373  10.663  39.809   7.050
 8298POPC   C4B50374  10.626  39.813   7.350
 8299POPC   NC350375  19.076  35.335   5.550
 8299POPC   PO450376  19.037  35.329   5.850
 8299POPC   GL150377  19.013  35.375   6.150
 8299POPC   GL250378  18.974  35.412   6.150
 8299POPC   C1A50379  19.068  35.353   6.450
 8299POPC   D2A50380  19.051  35.310   6.750
 8299POPC   C3A50381  19.105  35.310   7.050
 8299POPC   C4A50382  19.067  35.391   7.350
 8299POPC   C1B50383  18.800  35.389   6.450
 8299POPC   C2B50384  18.822  35.385   6.750
 8299POPC   C3B50385  18.847  35.392   7.050
 8299POPC   C4B50386  18.815  35.407   7.350
 8300POPC   NC350387  36.113   8.175   5.550
 8300POPC   PO450388  36.147   8.152   5.850
 8300POPC   GL150389  36.169   8.244   6.150
 8300POPC   GL250390  35.988   8.269   6.150
 8300POPC   C1A50391  36.086   8.210   6.450
 8300POPC   D2A50392  36.138   8.164   6.750
 8300POPC   C3A50393  36.174   8.158   7.050
 8300POPC   C4A50394  36.087   8.200   7.350
 8300POPC   C1B50395  35.855   8.260   6.450
 8300POPC   C2B50396  35.848   8.324   6.750
 8300POPC   C3B50397  35.945   8.303   7.050
 8300POPC   C4B50398  35.874   8.261   7.350
 8301POPC   NC350399   2.787  43.849   5.550
 8301POPC   PO450400   2.779  43.884   5.850
 8301POPC   GL150401   2.747  43.918   6.150
 8301POPC   GL250402   2.685  43.875   6.150
 8301POPC   C1A50403   2.789  43.865   6.450
 8301POPC   D2A50404   2.744  43.841   6.750
 8301POPC   C3A50405   2.788  43.934   7.050
 8301POPC   C4A50406   2.772  43.899   7.350
 8301POPC   C1B50407   2.527  43.752   6.450
 8301POPC   C2B50408   2.562  43.826   6.750
 8301POPC   C3B50409   2.565  43.824   7.050
 8301POPC   C4B50410   2.494  43.729   7.350
 8302POPC   NC350411  34.544   0.405   5.550
 8302POPC   PO450412  34.576   0.401   5.850
 8302POPC   GL150413  34.614   0.415   6.150
 8302POPC   GL250414  34.471   0.549   6.150
 8302POPC   C1A50415  34.541   0.456   6.450
 8302POPC   D2A50416  34.583   0.441   6.750
 8302POPC   C3A50417  34.567   0.397   7.050
 8302POPC   C4A50418  34.620   0.470   7.350
 8302POPC   C1B50419  34.377   0.603   6.450
 8302POPC   C2B50420  34.373   0.563   6.750
 8302POPC   C3B50421  34.336   0.586   7.050
 8302POPC   C4B50422  34.357   0.599   7.350
 8303POPC   NC350423  40.787  40.763   5.550
 8303POPC   PO450424  40.739  40.828   5.850
 8303POPC   GL150425  40.733  40.760   6.150
 8303POPC   GL250426  40.740  40.692   6.150
 8303POPC   C1A50427  40.759  40.825   6.450
 8303POPC   D2A50428  40.802  40.773   6.750
 8303POPC   C3A50429  40.783  40.765   7.050
 8303POPC   C4A50430  40.771  40.828   7.350
 8303POPC   C1B50431  40.677  40.573   6.450
 8303POPC   C2B50432  40.698  40.522   6.750
 8303POPC   C3B50433  40.718  40.586   7.050
 8303POPC   C4B50434  40.706  40.554   7.350
 8304POPC   NC350435  39.235  11.343   5.550
 8304POPC   PO450436  39.223  11.275   5.850
 8304POPC   GL150437  39.271  11.281   6.150
 8304POPC   GL250438  39.369  11.212   6.150
 8304POPC   C1A50439  39.209  11.331   6.450
 8304POPC   D2A50440  39.226  11.318   6.750
 8304POPC   C3A50441  39.235  11.254   7.050
 8304POPC   C4A50442  39.203  11.322   7.350
 8304POPC   C1B50443  39.391  11.148   6.450
 8304POPC   C2B50444  39.409  11.181   6.750
 8304POPC   C3B50445  39.406  11.146   7.050
 8304POPC   C4B50446  39.452  11.175   7.350
 8305POPC   NC350447  35.373  43.087   5.550
 8305POPC   PO450448  35.344  43.141   5.850
 8305POPC   GL150449  35.303  43.080   6.150
 8305POPC   GL250450  35.488  43.069   6.150
 8305POPC   C1A50451  35.371  43.101   6.450
 8305POPC   D2A50452  35.384  43.074   6.750
 8305POPC   C3A50453  35.306  43.072   7.050
 8305POPC   C4A50454  35.353  43.134   7.350
 8305POPC   C1B50455  35.602  43.020   6.450
 8305POPC   C2B50456  35.523  42.959   6.750
 8305POPC   C3B50457  35.561  42.993   7.050
 8305POPC   C4B50458  35.575  42.994   7.350
 8306POPC   NC350459  26.792  22.947   5.550
 8306POPC   PO450460  26.830  22.931   5.850
 8306POPC   GL150461  26.820  22.901   6.150
 8306POPC   GL250462  26.803  23.070   6.150
 8306POPC   C1A50463  26.856  22.965   6.450
 8306POPC   D2A50464  26.846  22.950   6.750
 8306POPC   C3A50465  26.866  22.903   7.050
 8306POPC   C4A50466  26.833  22.981   7.350
 8306POPC   C1B50467  26.864  23.146   6.450
 8306POPC   C2B50468  26.869  23.190   6.750
 8306POPC   C3B50469  26.902  23.162   7.050
 8306POPC   C4B50470  26.873  23.148   7.350
 8307POPC   NC350471   7.425  22.930   5.550
 8307POPC   PO450472   7.430  22.903   5.850
 8307POPC   GL150473   7.390  22.959   6.150
 8307POPC   GL250474   7.377  22.840   6.150
 8307POPC   C1A50475   7.454  22.945   6.450
 8307POPC   D2A50476   7.433  22.955   6.750
 8307POPC   C3A50477   7.404  22.922   7.050
 8307POPC   C4A50478   7.450  22.968   7.350
 8307POPC   C1B50479   7.460  22.666   6.450
 8307POPC   C2B50480   7.449  22.667   6.750
 8307POPC   C3B50481   7.439  22.675   7.050
 8307POPC   C4B50482   7.401  22.719   7.350
 8308POPC   NC350483   4.321  35.356   5.550
 8308POPC   PO450484   4.366  35.375   5.850
 8308POPC   GL150485   4.269  35.339   6.150
 8308POPC   GL250486   4.405  35.318   6.150
 8308POPC   C1A50487   4.353  35.387   6.450
 8308POPC   D2A50488   4.295  35.331   6.750
 8308POPC   C3A50489   4.355  35.322   7.050
 8308POPC   C4A50490   4.303  35.397   7.350
 8308POPC   C1B50491   4.494  35.167   6.450
 8308POPC   C2B50492   4.463  35.222   6.750
 8308POPC   C3B50493   4.478  35.216   7.050
 8308POPC   C4B50494   4.519  35.211   7.350
 8309POPC   NC350495   1.198  35.350   5.550
 8309POPC   PO450496   1.239  35.366   5.850
 8309POPC   GL150497   1.193  35.357   6.150
 8309POPC   GL250498   1.209  35.270   6.150
 8309POPC   C1A50499   1.167  35.360   6.450
 8309POPC   D2A50500   1.228  35.397   6.750
 8309POPC   C3A50501   1.185  35.371   7.050
 8309POPC   C4A50502   1.190  35.349   7.350
 8309POPC   C1B50503   1.191  35.088   6.450
 8309POPC   C2B50504   1.230  35.083   6.750
 8309POPC   C3B50505   1.186  35.118   7.050
 8309POPC   C4B50506   1.138  35.089   7.350
 8310POPC   NC350507   6.621  33.820   5.550
 8310POPC   PO450508   6.621  33.799   5.850
 8310POPC   GL150509   6.642  33.842   6.150
 8310POPC   GL250510   6.540  33.717   6.150
 8310POPC   C1A50511   6.601  33.804   6.450
 8310POPC   D2A50512   6.648  33.848   6.750
 8310POPC   C3A50513   6.618  33.763   7.050
 8310POPC   C4A50514   6.629  33.842   7.350
 8310POPC   C1B50515   6.436  33.676   6.450
 8310POPC   C2B50516   6.484  33.656   6.750
 8310POPC   C3B50517   6.462  33.610   7.050
 8310POPC   C4B50518   6.494  33.643   7.350
 8311POPC   NC350519  26.837  29.174   5.550
 8311POPC   PO450520  26.781  29.125   5.850
 8311POPC   GL150521  26.860  29.187   6.150
 8311POPC   GL250522  26.731  29.171   6.150
 8311POPC   C1A50523  26.769  29.153   6.450
 8311POPC   D2A50524  26.853  29.109   6.750
 8311POPC   C3A50525  26.861  29.129   7.050
 8311POPC   C4A50526  26.845  29.098   7.350
 8311POPC   C1B50527  26.547  29.261   6.450
 8311POPC   C2B50528  26.620  29.212   6.750
 8311POPC   C3B50529  26.563  29.210   7.050
 8311POPC   C4B50530  26.565  29.263   7.350
 8312POPC   NC350531   3.500  22.980   5.550
 8312POPC   PO450532   3.549  22.918   5.850
 8312POPC   GL150533   3.516  22.962   6.150
 8312POPC   GL250534   3.439  22.822   6.150
 8312POPC   C1A50535   3.510  22.916   6.450
 8312POPC   D2A50536   3.554  22.928   6.750
 8312POPC   C3A50537   3.530  22.972   7.050
 8312POPC   C4A50538   3.539  22.930   7.350
 8312POPC   C1B50539   3.426  22.703   6.450
 8312POPC   C2B50540   3.368  22.706   6.750
 8312POPC   C3B50541   3.404  22.741   7.050
 8312POPC   C4B50542   3.344  22.765   7.350
 8313POPC   NC350543  37.727  26.824   5.550
 8313POPC   PO450544  37.674  26.813   5.850
 8313POPC   GL150545  37.653  26.853   6.150
 8313POPC   GL250546  37.521  26.849   6.150
 8313POPC   C1A50547  37.718  26.846   6.450
 8313POPC   D2A50548  37.728  26.865   6.750
 8313POPC   C3A50549  37.698  26.826   7.050
 8313POPC   C4A50550  37.649  26.841   7.350
 8313POPC   C1B50551  37.443  26.857   6.450
 8313POPC   C2B50552  37.445  26.848   6.750
 8313POPC   C3B50553  37.427  26.872   7.050
 8313POPC   C4B50554  37.437  26.826   7.350
 8314POPC   NC350555   8.953   8.998   5.550
 8314POPC   PO450556   8.994   8.976   5.850
 8314POPC   GL150557   8.995   8.983   6.150
 8314POPC   GL250558   9.080   9.099   6.150
 8314POPC   C1A50559   8.924   8.964   6.450
 8314POPC   D2A50560   8.962   8.949   6.750
 8314POPC   C3A50561   9.021   8.997   7.050
 8314POPC   C4A50562   8.942   8.986   7.350
 8314POPC   C1B50563   9.109   9.198   6.450
 8314POPC   C2B50564   9.146   9.187   6.750
 8314POPC   C3B50565   9.116   9.208   7.050
 8314POPC   C4B50566   9.065   9.150   7.350
 8315POPC   NC350567   6.674  11.326   5.550
 8315POPC   PO450568   6.629  11.311   5.850
 8315POPC   GL150569   6.676  11.335   6.150
 8315POPC   GL250570   6.614  11.178   6.150
 8315POPC   C1A50571   6.674  11.335   6.450
 8315POPC   D2A50572   6.635  11.314   6.750
 8315POPC   C3A50573   6.662  11.257   7.050
 8315POPC   C4A50574   6.653  11.345   7.350
 8315POPC   C1B50575   6.628  11.049   6.450
 8315POPC   C2B50576   6.610  11.091   6.750
 8315POPC   C3B50577   6.638  11.069   7.050
 8315POPC   C4B50578   6.702  11.018   7.350
 8316POPC   NC350579  10.481  36.855   5.550
 8316POPC   PO450580  10.532  36.930   5.850
 8316POPC   GL150581  10.552  36.909   6.150
 8316POPC   GL250582  10.426  36.796   6.150
 8316POPC   C1A50583  10.477  36.863   6.450
 8316POPC   D2A50584  10.484  36.914   6.750
 8316POPC   C3A50585  10.565  36.924   7.050
 8316POPC   C4A50586  10.564  36.906   7.350
 8316POPC   C1B50587  10.301  36.747   6.450
 8316POPC   C2B50588  10.331  36.757   6.750
 8316POPC   C3B50589  10.278  36.799   7.050
 8316POPC   C4B50590  10.311  36.778   7.350
 8317POPC   NC350591   1.204  37.683   5.550
 8317POPC   PO450592   1.225  37.672   5.850
 8317POPC   GL150593   1.198  37.635   6.150
 8317POPC   GL250594   1.189  37.563   6.150
 8317POPC   C1A50595   1.230  37.657   6.450
 8317POPC   D2A50596   1.166  37.701   6.750
 8317POPC   C3A50597   1.187  37.726   7.050
 8317POPC   C4A50598   1.198  37.662   7.350
 8317POPC   C1B50599   1.280  37.447   6.450
 8317POPC   C2B50600   1.281  37.462   6.750
 8317POPC   C3B50601   1.220  37.450   7.050
 8317POPC   C4B50602   1.252  37.416   7.350
 8318POPC   NC350603  38.406  12.098   5.550
 8318POPC   PO450604  38.458  12.072   5.850
 8318POPC   GL150605  38.468  12.117   6.150
 8318POPC   GL250606  38.369  12.003   6.150
 8318POPC   C1A50607  38.419  12.101   6.450
 8318POPC   D2A50608  38.409  12.111   6.750
 8318POPC   C3A50609  38.501  12.049   7.050
 8318POPC   C4A50610  38.485  12.125   7.350
 8318POPC   C1B50611  38.325  11.895   6.450
 8318POPC   C2B50612  38.295  11.815   6.750
 8318POPC   C3B50613  38.333  11.841   7.050
 8318POPC   C4B50614  38.317  11.899   7.350
 8319POPC   NC350615  24.539  43.860   5.550
 8319POPC   PO450616  24.516  43.905   5.850
 8319POPC   GL150617  24.528  43.906   6.150
 8319POPC   GL250618  24.544  43.783   6.150
 8319POPC   C1A50619  24.473  43.864   6.450
 8319POPC   D2A50620  24.462  43.867   6.750
 8319POPC   C3A50621  24.499  43.910   7.050
 8319POPC   C4A50622  24.487  43.854   7.350
 8319POPC   C1B50623  24.487  43.629   6.450
 8319POPC   C2B50624  24.524  43.667   6.750
 8319POPC   C3B50625  24.557  43.637   7.050
 8319POPC   C4B50626  24.483  43.647   7.350
 8320POPC   NC350627  37.663  30.709   5.550
 8320POPC   PO450628  37.649  30.741   5.850
 8320POPC   GL150629  37.702  30.709   6.150
 8320POPC   GL250630  37.690  30.553   6.150
 8320POPC   C1A50631  37.641  30.734   6.450
 8320POPC   D2A50632  37.689  30.657   6.750
 8320POPC   C3A50633  37.633  30.734   7.050
 8320POPC   C4A50634  37.629  30.679   7.350
 8320POPC   C1B50635  37.677  30.434   6.450
 8320POPC   C2B50636  37.662  30.400   6.750
 8320POPC   C3B50637  37.666  30.434   7.050
 8320POPC   C4B50638  37.669  30.413   7.350
 8321POPC   NC350639  29.096  35.303   5.550
 8321POPC   PO450640  29.171  35.355   5.850
 8321POPC   GL150641  29.184  35.302   6.150
 8321POPC   GL250642  29.135  35.178   6.150
 8321POPC   C1A50643  29.114  35.321   6.450
 8321POPC   D2A50644  29.138  35.377   6.750
 8321POPC   C3A50645  29.112  35.335   7.050
 8321POPC   C4A50646  29.186  35.372   7.350
 8321POPC   C1B50647  29.148  35.056   6.450
 8321POPC   C2B50648  29.128  35.154   6.750
 8321POPC   C3B50649  29.155  35.137   7.050
 8321POPC   C4B50650  29.101  35.151   7.350
 8322POPC   NC350651  29.145  33.776   5.550
 8322POPC   PO450652  29.158  33.786   5.850
 8322POPC   GL150653  29.130  33.806   6.150
 8322POPC   GL250654  29.021  33.727   6.150
 8322POPC   C1A50655  29.155  33.771   6.450
 8322POPC   D2A50656  29.132  33.816   6.750
 8322POPC   C3A50657  29.115  33.750   7.050
 8322POPC   C4A50658  29.192  33.815   7.350
 8322POPC   C1B50659  28.978  33.630   6.450
 8322POPC   C2B50660  28.945  33.688   6.750
 8322POPC   C3B50661  28.913  33.708   7.050
 8322POPC   C4B50662  28.944  33.624   7.350
 8323POPC   NC350663  42.357  12.810   5.550
 8323POPC   PO450664  42.302  12.827   5.850
 8323POPC   GL150665  42.340  12.818   6.150
 8323POPC   GL250666  42.382  13.016   6.150
 8323POPC   C1A50667  42.372  12.838   6.450
 8323POPC   D2A50668  42.382  12.869   6.750
 8323POPC   C3A50669  42.364  12.872   7.050
 8323POPC   C4A50670  42.348  12.817   7.350
 8323POPC   C1B50671  42.374  13.075   6.450
 8323POPC   C2B50672  42.319  13.069   6.750
 8323POPC   C3B50673  42.367  13.066   7.050
 8323POPC   C4B50674  42.339  13.087   7.350
 8324POPC   NC350675   5.095  13.643   5.550
 8324POPC   PO450676   5.101  13.588   5.850
 8324POPC   GL150677   5.062  13.608   6.150
 8324POPC   GL250678   5.183  13.559   6.150
 8324POPC   C1A50679   5.071  13.646   6.450
 8324POPC   D2A50680   5.067  13.624   6.750
 8324POPC   C3A50681   5.133  13.643   7.050
 8324POPC   C4A50682   5.118  13.644   7.350
 8324POPC   C1B50683   5.292  13.440   6.450
 8324POPC   C2B50684   5.296  13.426   6.750
 8324POPC   C3B50685   5.331  13.496   7.050
 8324POPC   C4B50686   5.334  13.462   7.350
 8325POPC   NC350687   1.989  15.921   5.550
 8325POPC   PO450688   1.969  15.930   5.850
 8325POPC   GL150689   2.018  15.978   6.150
 8325POPC   GL250690   2.107  15.870   6.150
 8325POPC   C1A50691   2.033  15.932   6.450
 8325POPC   D2A50692   2.001  15.959   6.750
 8325POPC   C3A50693   2.034  15.981   7.050
 8325POPC   C4A50694   2.009  15.924   7.350
 8325POPC   C1B50695   2.202  15.820   6.450
 8325POPC   C2B50696   2.210  15.819   6.750
 8325POPC   C3B50697   2.157  15.751   7.050
 8325POPC   C4B50698   2.126  15.733   7.350
 8326POPC   NC350699  20.624   9.736   5.550
 8326POPC   PO450700  20.569   9.760   5.850
 8326POPC   GL150701  20.611   9.788   6.150
 8326POPC   GL250702  20.582   9.869   6.150
 8326POPC   C1A50703  20.642   9.713   6.450
 8326POPC   D2A50704  20.573   9.736   6.750
 8326POPC   C3A50705  20.592   9.755   7.050
 8326POPC   C4A50706  20.623   9.752   7.350
 8326POPC   C1B50707  20.515   9.959   6.450
 8326POPC   C2B50708  20.513   9.962   6.750
 8326POPC   C3B50709  20.499   9.976   7.050
 8326POPC   C4B50710  20.425   9.966   7.350
 8327POPC   NC350711  26.034  20.568   5.550
 8327POPC   PO450712  26.060  20.643   5.850
 8327POPC   GL150713  26.091  20.608   6.150
 8327POPC   GL250714  25.979  20.524   6.150
 8327POPC   C1A50715  26.052  20.597   6.450
 8327POPC   D2A50716  25.994  20.625   6.750
 8327POPC   C3A50717  26.039  20.634   7.050
 8327POPC   C4A50718  26.012  20.660   7.350
 8327POPC   C1B50719  25.953  20.388   6.450
 8327POPC   C2B50720  25.933  20.347   6.750
 8327POPC   C3B50721  25.960  20.352   7.050
 8327POPC   C4B50722  25.997  20.404   7.350
 8328POPC   NC350723  41.518  14.353   5.550
 8328POPC   PO450724  41.510  14.435   5.850
 8328POPC   GL150725  41.599  14.392   6.150
 8328POPC   GL250726  41.592  14.308   6.150
 8328POPC   C1A50727  41.536  14.453   6.450
 8328POPC   D2A50728  41.600  14.396   6.750
 8328POPC   C3A50729  41.554  14.388   7.050
 8328POPC   C4A50730  41.606  14.394   7.350
 8328POPC   C1B50731  41.681  14.148   6.450
 8328POPC   C2B50732  41.662  14.170   6.750
 8328POPC   C3B50733  41.648  14.232   7.050
 8328POPC   C4B50734  41.660  14.198   7.350
 8329POPC   NC350735  22.130  43.076   5.550
 8329POPC   PO450736  22.185  43.131   5.850
 8329POPC   GL150737  22.118  43.109   6.150
 8329POPC   GL250738  22.012  43.038   6.150
 8329POPC   C1A50739  22.137  43.077   6.450
 8329POPC   D2A50740  22.131  43.075   6.750
 8329POPC   C3A50741  22.174  43.139   7.050
 8329POPC   C4A50742  22.115  43.137   7.350
 8329POPC   C1B50743  21.945  43.042   6.450
 8329POPC   C2B50744  21.963  43.076   6.750
 8329POPC   C3B50745  21.910  42.997   7.050
 8329POPC   C4B50746  21.963  43.032   7.350
 8330POPC   NC350747   5.905  26.079   5.550
 8330POPC   PO450748   5.898  26.065   5.850
 8330POPC   GL150749   5.854  25.995   6.150
 8330POPC   GL250750   5.800  25.905   6.150
 8330POPC   C1A50751   5.826  26.020   6.450
 8330POPC   D2A50752   5.904  26.002   6.750
 8330POPC   C3A50753   5.839  25.993   7.050
 8330POPC   C4A50754   5.892  26.009   7.350
 8330POPC   C1B50755   5.711  25.796   6.450
 8330POPC   C2B50756   5.710  25.847   6.750
 8330POPC   C3B50757   5.745  25.816   7.050
 8330POPC   C4B50758   5.764  25.824   7.350
 8331POPC   NC350759  17.496  28.339   5.550
 8331POPC   PO450760  17.515  28.377   5.850
 8331POPC   GL150761  17.508  28.339   6.150
 8331POPC   GL250762  17.567  28.448   6.150
 8331POPC   C1A50763  17.516  28.350   6.450
 8331POPC   D2A50764  17.530  28.339   6.750
 8331POPC   C3A50765  17.499  28.378   7.050
 8331POPC   C4A50766  17.540  28.341   7.350
 8331POPC   C1B50767  17.537  28.611   6.450
 8331POPC   C2B50768  17.583  28.581   6.750
 8331POPC   C3B50769  17.573  28.605   7.050
 8331POPC   C4B50770  17.624  28.575   7.350
 8332POPC   NC350771   9.714  42.357   5.550
 8332POPC   PO450772   9.735  42.306   5.850
 8332POPC   GL150773   9.713  42.349   6.150
 8332POPC   GL250774   9.837  42.410   6.150
 8332POPC   C1A50775   9.765  42.308   6.450
 8332POPC   D2A50776   9.704  42.293   6.750
 8332POPC   C3A50777   9.721  42.315   7.050
 8332POPC   C4A50778   9.754  42.343   7.350
 8332POPC   C1B50779   9.937  42.482   6.450
 8332POPC   C2B50780   9.982  42.497   6.750
 8332POPC   C3B50781   9.917  42.480   7.050
 8332POPC   C4B50782   9.962  42.509   7.350
 8333POPC   NC350783  30.647   8.170   5.550
 8333POPC   PO450784  30.746   8.156   5.850
 8333POPC   GL150785  30.698   8.168   6.150
 8333POPC   GL250786  30.616   8.097   6.150
 8333POPC   C1A50787  30.670   8.149   6.450
 8333POPC   D2A50788  30.719   8.239   6.750
 8333POPC   C3A50789  30.725   8.216   7.050
 8333POPC   C4A50790  30.746   8.240   7.350
 8333POPC   C1B50791  30.613   7.962   6.450
 8333POPC   C2B50792  30.623   7.931   6.750
 8333POPC   C3B50793  30.609   7.918   7.050
 8333POPC   C4B50794  30.651   7.913   7.350
 8334POPC   NC350795  12.845   6.617   5.550
 8334POPC   PO450796  12.878   6.685   5.850
 8334POPC   GL150797  12.864   6.677   6.150
 8334POPC   GL250798  12.953   6.557   6.150
 8334POPC   C1A50799  12.868   6.625   6.450
 8334POPC   D2A50800  12.825   6.691   6.750
 8334POPC   C3A50801  12.835   6.602   7.050
 8334POPC   C4A50802  12.813   6.674   7.350
 8334POPC   C1B50803  13.076   6.446   6.450
 8334POPC   C2B50804  13.080   6.542   6.750
 8334POPC   C3B50805  13.059   6.476   7.050
 8334POPC   C4B50806  13.018   6.537   7.350
 8335POPC   NC350807  14.383  23.764   5.550
 8335POPC   PO450808  14.358  23.683   5.850
 8335POPC   GL150809  14.405  23.746   6.150
 8335POPC   GL250810  14.420  23.605   6.150
 8335POPC   C1A50811  14.406  23.729   6.450
 8335POPC   D2A50812  14.364  23.763   6.750
 8335POPC   C3A50813  14.373  23.706   7.050
 8335POPC   C4A50814  14.379  23.672   7.350
 8335POPC   C1B50815  14.452  23.476   6.450
 8335POPC   C2B50816  14.529  23.437   6.750
 8335POPC   C3B50817  14.507  23.464   7.050
 8335POPC   C4B50818  14.525  23.456   7.350
 8336POPC   NC350819  22.155  19.795   5.550
 8336POPC   PO450820  22.161  19.876   5.850
 8336POPC   GL150821  22.138  19.787   6.150
 8336POPC   GL250822  22.218  19.706   6.150
 8336POPC   C1A50823  22.192  19.786   6.450
 8336POPC   D2A50824  22.113  19.817   6.750
 8336POPC   C3A50825  22.137  19.797   7.050
 8336POPC   C4A50826  22.129  19.858   7.350
 8336POPC   C1B50827  22.310  19.629   6.450
 8336POPC   C2B50828  22.391  19.687   6.750
 8336POPC   C3B50829  22.317  19.647   7.050
 8336POPC   C4B50830  22.343  19.683   7.350
 8337POPC   NC350831   5.047  41.512   5.550
 8337POPC   PO450832   5.141  41.589   5.850
 8337POPC   GL150833   5.143  41.521   6.150
 8337POPC   GL250834   5.167  41.525   6.150
 8337POPC   C1A50835   5.126  41.533   6.450
 8337POPC   D2A50836   5.044  41.528   6.750
 8337POPC   C3A50837   5.133  41.556   7.050
 8337POPC   C4A50838   5.092  41.566   7.350
 8337POPC   C1B50839   5.321  41.425   6.450
 8337POPC   C2B50840   5.330  41.418   6.750
 8337POPC   C3B50841   5.326  41.438   7.050
 8337POPC   C4B50842   5.360  41.495   7.350
 8338POPC   NC350843   0.472   9.768   5.550
 8338POPC   PO450844   0.476   9.726   5.850
 8338POPC   GL150845   0.480   9.734   6.150
 8338POPC   GL250846   0.538   9.819   6.150
 8338POPC   C1A50847   0.458   9.721   6.450
 8338POPC   D2A50848   0.450   9.784   6.750
 8338POPC   C3A50849   0.456   9.753   7.050
 8338POPC   C4A50850   0.452   9.755   7.350
 8338POPC   C1B50851   0.655   9.870   6.450
 8338POPC   C2B50852   0.636   9.904   6.750
 8338POPC   C3B50853   0.699   9.898   7.050
 8338POPC   C4B50854   0.643   9.895   7.350
 8339POPC   NC350855  25.231  26.018   5.550
 8339POPC   PO450856  25.306  26.059   5.850
 8339POPC   GL150857  25.292  26.048   6.150
 8339POPC   GL250858  25.399  26.030   6.150
 8339POPC   C1A50859  25.302  26.058   6.450
 8339POPC   D2A50860  25.248  26.067   6.750
 8339POPC   C3A50861  25.286  26.087   7.050
 8339POPC   C4A50862  25.281  26.062   7.350
 8339POPC   C1B50863  25.490  26.063   6.450
 8339POPC   C2B50864  25.476  26.070   6.750
 8339POPC   C3B50865  25.482  26.092   7.050
 8339POPC   C4B50866  25.517  26.078   7.350
 8340POPC   NC350867   6.605  35.380   5.550
 8340POPC   PO450868   6.680  35.304   5.850
 8340POPC   GL150869   6.600  35.337   6.150
 8340POPC   GL250870   6.683  35.498   6.150
 8340POPC   C1A50871   6.636  35.363   6.450
 8340POPC   D2A50872   6.627  35.350   6.750
 8340POPC   C3A50873   6.674  35.388   7.050
 8340POPC   C4A50874   6.609  35.376   7.350
 8340POPC   C1B50875   6.735  35.532   6.450
 8340POPC   C2B50876   6.781  35.605   6.750
 8340POPC   C3B50877   6.795  35.617   7.050
 8340POPC   C4B50878   6.774  35.581   7.350
 8341POPC   NC350879  26.791  21.346   5.550
 8341POPC   PO450880  26.786  21.424   5.850
 8341POPC   GL150881  26.773  21.375   6.150
 8341POPC   GL250882  26.924  21.335   6.150
 8341POPC   C1A50883  26.844  21.410   6.450
 8341POPC   D2A50884  26.862  21.392   6.750
 8341POPC   C3A50885  26.808  21.382   7.050
 8341POPC   C4A50886  26.841  21.374   7.350
 8341POPC   C1B50887  27.077  21.257   6.450
 8341POPC   C2B50888  27.015  21.259   6.750
 8341POPC   C3B50889  27.044  21.311   7.050
 8341POPC   C4B50890  27.091  21.277   7.350
 8342POPC   NC350891  44.688  23.711   5.550
 8342POPC   PO450892  44.633  23.725   5.850
 8342POPC   GL150893  44.659  23.750   6.150
 8342POPC   GL250894  44.665  23.848   6.150
 8342POPC   C1A50895  44.676  23.667   6.450
 8342POPC   D2A50896  44.709  23.704   6.750
 8342POPC   C3A50897  44.693  23.715   7.050
 8342POPC   C4A50898  44.678  23.723   7.350
 8342POPC   C1B50899  44.765  23.900   6.450
 8342POPC   C2B50900  44.756  23.914   6.750
 8342POPC   C3B50901  44.752  23.948   7.050
 8342POPC   C4B50902  44.805  23.899   7.350
 8343POPC   NC350903  33.782  40.045   5.550
 8343POPC   PO450904  33.809  39.958   5.850
 8343POPC   GL150905  33.800  39.967   6.150
 8343POPC   GL250906  33.814  39.904   6.150
 8343POPC   C1A50907  33.821  40.030   6.450
 8343POPC   D2A50908  33.805  40.023   6.750
 8343POPC   C3A50909  33.840  40.030   7.050
 8343POPC   C4A50910  33.844  39.994   7.350
 8343POPC   C1B50911  33.871  39.795   6.450
 8343POPC   C2B50912  33.825  39.779   6.750
 8343POPC   C3B50913  33.871  39.793   7.050
 8343POPC   C4B50914  33.817  39.735   7.350
 8344POPC   NC350915  16.755  44.707   5.550
 8344POPC   PO450916  16.780  44.709   5.850
 8344POPC   GL150917  16.699  44.709   6.150
 8344POPC   GL250918  16.585  44.613   6.150
 8344POPC   C1A50919  16.695  44.669   6.450
 8344POPC   D2A50920  16.730  44.631   6.750
 8344POPC   C3A50921  16.767  44.655   7.050
 8344POPC   C4A50922  16.736  44.709   7.350
 8344POPC   C1B50923  16.468  44.594   6.450
 8344POPC   C2B50924  16.483  44.583   6.750
 8344POPC   C3B50925  16.504  44.605   7.050
 8344POPC   C4B50926  16.478  44.579   7.350
 8345POPC   NC350927   8.954  33.814   5.550
 8345POPC   PO450928   8.939  33.769   5.850
 8345POPC   GL150929   8.955  33.757   6.150
 8345POPC   GL250930   8.839  33.758   6.150
 8345POPC   C1A50931   8.962  33.848   6.450
 8345POPC   D2A50932   9.007  33.757   6.750
 8345POPC   C3A50933   9.022  33.775   7.050
 8345POPC   C4A50934   8.938  33.800   7.350
 8345POPC   C1B50935   8.782  33.661   6.450
 8345POPC   C2B50936   8.794  33.735   6.750
 8345POPC   C3B50937   8.706  33.674   7.050
 8345POPC   C4B50938   8.714  33.733   7.350
 8346POPC   NC350939  19.842  42.339   5.550
 8346POPC   PO450940  19.881  42.346   5.850
 8346POPC   GL150941  19.801  42.336   6.150
 8346POPC   GL250942  19.763  42.392   6.150
 8346POPC   C1A50943  19.833  42.384   6.450
 8346POPC   D2A50944  19.794  42.382   6.750
 8346POPC   C3A50945  19.880  42.372   7.050
 8346POPC   C4A50946  19.879  42.375   7.350
 8346POPC   C1B50947  19.665  42.464   6.450
 8346POPC   C2B50948  19.628  42.521   6.750
 8346POPC   C3B50949  19.656  42.475   7.050
 8346POPC   C4B50950  19.673  42.499   7.350
 8347POPC   NC350951  30.713  27.615   5.550
 8347POPC   PO450952  30.729  27.636   5.850
 8347POPC   GL150953  30.681  27.637   6.150
 8347POPC   GL250954  30.761  27.456   6.150
 8347POPC   C1A50955  30.661  27.570   6.450
 8347POPC   D2A50956  30.680  27.600   6.750
 8347POPC   C3A50957  30.666  27.631   7.050
 8347POPC   C4A50958  30.662  27.631   7.350
 8347POPC   C1B50959  30.727  27.395   6.450
 8347POPC   C2B50960  30.751  27.302   6.750
 8347POPC   C3B50961  30.708  27.379   7.050
 8347POPC   C4B50962  30.726  27.327   7.350
 8348POPC   NC350963  34.596  21.420   5.550
 8348POPC   PO450964  34.618  21.397   5.850
 8348POPC   GL150965  34.604  21.397   6.150
 8348POPC   GL250966  34.646  21.290   6.150
 8348POPC   C1A50967  34.580  21.402   6.450
 8348POPC   D2A50968  34.597  21.344   6.750
 8348POPC   C3A50969  34.563  21.363   7.050
 8348POPC   C4A50970  34.598  21.378   7.350
 8348POPC   C1B50971  34.653  21.143   6.450
 8348POPC   C2B50972  34.653  21.112   6.750
 8348POPC   C3B50973  34.638  21.152   7.050
 8348POPC   C4B50974  34.670  21.195   7.350
 8349POPC   NC350975  34.559  22.201   5.550
 8349POPC   PO450976  34.535  22.182   5.850
 8349POPC   GL150977  34.585  22.193   6.150
 8349POPC   GL250978  34.594  22.053   6.150
 8349POPC   C1A50979  34.609  22.134   6.450
 8349POPC   D2A50980  34.568  22.200   6.750
 8349POPC   C3A50981  34.580  22.188   7.050
 8349POPC   C4A50982  34.565  22.180   7.350
 8349POPC   C1B50983  34.546  21.956   6.450
 8349POPC   C2B50984  34.534  21.965   6.750
 8349POPC   C3B50985  34.520  21.872   7.050
 8349POPC   C4B50986  34.548  21.926   7.350
 8350POPC   NC350987  44.628  15.977   5.550
 8350POPC   PO450988  44.692  15.950   5.850
 8350POPC   GL150989  44.645  15.905   6.150
 8350POPC   GL250990  44.733  15.889   6.150
 8350POPC   C1A50991  44.710  15.988   6.450
 8350POPC   D2A50992  44.694  15.957   6.750
 8350POPC   C3A50993  44.626  15.982   7.050
 8350POPC   C4A50994  44.639  15.907   7.350
 8350POPC   C1B50995  44.789  15.722   6.450
 8350POPC   C2B50996  44.750  15.750   6.750
 8350POPC   C3B50997  44.788  15.701   7.050
 8350POPC   C4B50998  44.825  15.720   7.350
 8351POPC   NC350999  44.679  25.271   5.550
 8351POPC   PO451000  44.692  25.240   5.850
 8351POPC   GL151001  44.684  25.258   6.150
 8351POPC   GL251002  44.696  25.181   6.150
 8351POPC   C1A51003  44.684  25.257   6.450
 8351POPC   D2A51004  44.630  25.302   6.750
 8351POPC   C3A51005  44.672  25.229   7.050
 8351POPC   C4A51006  44.694  25.310   7.350
 8351POPC   C1B51007  44.704  24.978   6.450
 8351POPC   C2B51008  44.712  25.056   6.750
 8351POPC   C3B51009  44.760  25.011   7.050
 8351POPC   C4B51010  44.755  24.981   7.350
 8352POPC   NC351011  39.238  35.400   5.550
 8352POPC   PO451012  39.217  35.391   5.850
 8352POPC   GL151013  39.246  35.338   6.150
 8352POPC   GL251014  39.231  35.501   6.150
 8352POPC   C1A51015  39.254  35.328   6.450
 8352POPC   D2A51016  39.238  35.367   6.750
 8352POPC   C3A51017  39.272  35.320   7.050
 8352POPC   C4A51018  39.251  35.323   7.350
 8352POPC   C1B51019  39.250  35.570   6.450
 8352POPC   C2B51020  39.284  35.635   6.750
 8352POPC   C3B51021  39.277  35.581   7.050
 8352POPC   C4B51022  39.204  35.598   7.350
 8353POPC   NC351023  31.507  13.648   5.550
 8353POPC   PO451024  31.441  13.667   5.850
 8353POPC   GL151025  31.522  13.673   6.150
 8353POPC   GL251026  31.299  13.579   6.150
 8353POPC   C1A51027  31.485  13.675   6.450
 8353POPC   D2A51028  31.442  13.603   6.750
 8353POPC   C3A51029  31.482  13.597   7.050
 8353POPC   C4A51030  31.468  13.626   7.350
 8353POPC   C1B51031  31.248  13.604   6.450
 8353POPC   C2B51032  31.184  13.634   6.750
 8353POPC   C3B51033  31.242  13.596   7.050
 8353POPC   C4B51034  31.201  13.584   7.350
 8354POPC   NC351035   5.860  10.515   5.550
 8354POPC   PO451036   5.864  10.530   5.850
 8354POPC   GL151037   5.884  10.553   6.150
 8354POPC   GL251038   5.812  10.621   6.150
 8354POPC   C1A51039   5.850  10.530   6.450
 8354POPC   D2A51040   5.917  10.476   6.750
 8354POPC   C3A51041   5.900  10.542   7.050
 8354POPC   C4A51042   5.914  10.574   7.350
 8354POPC   C1B51043   5.893  10.729   6.450
 8354POPC   C2B51044   5.816  10.811   6.750
 8354POPC   C3B51045   5.887  10.786   7.050
 8354POPC   C4B51046   5.897  10.818   7.350
 8355POPC   NC351047  15.192  20.602   5.550
 8355POPC   PO451048  15.201  20.642   5.850
 8355POPC   GL151049  15.178  20.599   6.150
 8355POPC   GL251050  15.089  20.596   6.150
 8355POPC   C1A51051  15.179  20.586   6.450
 8355POPC   D2A51052  15.194  20.584   6.750
 8355POPC   C3A51053  15.133  20.638   7.050
 8355POPC   C4A51054  15.154  20.606   7.350
 8355POPC   C1B51055  14.943  20.472   6.450
 8355POPC   C2B51056  14.952  20.477   6.750
 8355POPC   C3B51057  15.004  20.463   7.050
 8355POPC   C4B51058  14.923  20.469   7.350
 8356POPC   NC351059  23.739   6.684   5.550
 8356POPC   PO451060  23.755   6.633   5.850
 8356POPC   GL151061  23.691   6.689   6.150
 8356POPC   GL251062  23.845   6.594   6.150
 8356POPC   C1A51063  23.700   6.680   6.450
 8356POPC   D2A51064  23.737   6.637   6.750
 8356POPC   C3A51065  23.763   6.624   7.050
 8356POPC   C4A51066  23.755   6.679   7.350
 8356POPC   C1B51067  23.976   6.534   6.450
 8356POPC   C2B51068  23.941   6.522   6.750
 8356POPC   C3B51069  23.936   6.557   7.050
 8356POPC   C4B51070  23.954   6.576   7.350
 8357POPC   NC351071   8.949  26.000   5.550
 8357POPC   PO451072   9.010  26.048   5.850
 8357POPC   GL151073   9.009  26.014   6.150
 8357POPC   GL251074   8.956  25.927   6.150
 8357POPC   C1A51075   8.942  26.066   6.450
 8357POPC   D2A51076   8.992  26.024   6.750
 8357POPC   C3A51077   8.960  26.039   7.050
 8357POPC   C4A51078   9.008  26.049   7.350
 8357POPC   C1B51079   8.958  25.757   6.450
 8357POPC   C2B51080   9.039  25.787   6.750
 8357POPC   C3B51081   8.977  25.822   7.050
 8357POPC   C4B51082   9.043  25.752   7.350
 8358POPC   NC351083  22.961  42.362   5.550
 8358POPC   PO451084  22.946  42.308   5.850
 8358POPC   GL151085  22.912  42.326   6.150
 8358POPC   GL251086  22.973  42.501   6.150
 8358POPC   C1A51087  22.926  42.306   6.450
 8358POPC   D2A51088  22.959  42.316   6.750
 8358POPC   C3A51089  22.954  42.292   7.050
 8358POPC   C4A51090  22.970  42.351   7.350
 8358POPC   C1B51091  22.951  42.552   6.450
 8358POPC   C2B51092  23.042  42.554   6.750
 8358POPC   C3B51093  22.973  42.539   7.050
 8358POPC   C4B51094  22.974  42.617   7.350
 8359POPC   NC351095  39.257  36.121   5.550
 8359POPC   PO451096  39.263  36.085   5.850
 8359POPC   GL151097  39.248  36.160   6.150
 8359POPC   GL251098  39.182  36.036   6.150
 8359POPC   C1A51099  39.214  36.177   6.450
 8359POPC   D2A51100  39.204  36.139   6.750
 8359POPC   C3A51101  39.235  36.114   7.050
 8359POPC   C4A51102  39.219  36.135   7.350
 8359POPC   C1B51103  39.149  35.898   6.450
 8359POPC   C2B51104  39.160  35.934   6.750
 8359POPC   C3B51105  39.192  35.862   7.050
 8359POPC   C4B51106  39.146  35.848   7.350
 8360POPC   NC351107   9.765   1.940   5.550
 8360POPC   PO451108   9.734   1.947   5.850
 8360POPC   GL151109   9.768   1.980   6.150
 8360POPC   GL251110   9.633   2.051   6.150
 8360POPC   C1A51111   9.759   1.951   6.450
 8360POPC   D2A51112   9.784   2.006   6.750
 8360POPC   C3A51113   9.717   1.976   7.050
 8360POPC   C4A51114   9.736   2.011   7.350
 8360POPC   C1B51115   9.450   1.973   6.450
 8360POPC   C2B51116   9.549   1.996   6.750
 8360POPC   C3B51117   9.467   1.982   7.050
 8360POPC   C4B51118   9.529   2.000   7.350
 8361POPC   NC351119   1.220  29.874   5.550
 8361POPC   PO451120   1.231  29.965   5.850
 8361POPC   GL151121   1.243  29.921   6.150
 8361POPC   GL251122   1.288  30.002   6.150
 8361POPC   C1A51123   1.167  29.965   6.450
 8361POPC   D2A51124   1.175  29.939   6.750
 8361POPC   C3A51125   1.191  29.941   7.050
 8361POPC   C4A51126   1.186  29.967   7.350
 8361POPC   C1B51127   1.393  30.060   6.450
 8361POPC   C2B51128   1.438  30.104   6.750
 8361POPC   C3B51129   1.416  30.038   7.050
 8361POPC   C4B51130   1.427  30.104   7.350
 8362POPC   NC351131  37.727  40.784   5.550
 8362POPC   PO451132  37.638  40.750   5.850
 8362POPC   GL151133  37.705  40.739   6.150
 8362POPC   GL251134  37.727  40.928   6.150
 8362POPC   C1A51135  37.696  40.759   6.450
 8362POPC   D2A51136  37.677  40.775   6.750
 8362POPC   C3A51137  37.641  40.832   7.050
 8362POPC   C4A51138  37.713  40.741   7.350
 8362POPC   C1B51139  37.777  41.013   6.450
 8362POPC   C2B51140  37.834  40.979   6.750
 8362POPC   C3B51141  37.800  40.997   7.050
 8362POPC   C4B51142  37.812  41.014   7.350
 8363POPC   NC351143  36.912  31.450   5.550
 8363POPC   PO451144  36.864  31.516   5.850
 8363POPC   GL151145  36.904  31.451   6.150
 8363POPC   GL251146  37.050  31.440   6.150
 8363POPC   C1A51147  36.950  31.429   6.450
 8363POPC   D2A51148  36.950  31.424   6.750
 8363POPC   C3A51149  36.917  31.519   7.050
 8363POPC   C4A51150  36.859  31.480   7.350
 8363POPC   C1B51151  37.137  31.420   6.450
 8363POPC   C2B51152  37.180  31.381   6.750
 8363POPC   C3B51153  37.116  31.438   7.050
 8363POPC   C4B51154  37.151  31.364   7.350
 8364POPC   NC351155  35.391   8.989   5.550
 8364POPC   PO451156  35.305   8.956   5.850
 8364POPC   GL151157  35.353   8.987   6.150
 8364POPC   GL251158  35.219   8.948   6.150
 8364POPC   C1A51159  35.322   9.014   6.450
 8364POPC   D2A51160  35.374   8.955   6.750
 8364POPC   C3A51161  35.371   8.962   7.050
 8364POPC   C4A51162  35.365   8.969   7.350
 8364POPC   C1B51163  35.089   8.935   6.450
 8364POPC   C2B51164  35.069   9.027   6.750
 8364POPC   C3B51165  35.104   8.967   7.050
 8364POPC   C4B51166  35.152   8.976   7.350
 8365POPC   NC351167  11.257  33.837   5.550
 8365POPC   PO451168  11.308  33.775   5.850
 8365POPC   GL151169  11.267  33.809   6.150
 8365POPC   GL251170  11.259  33.642   6.150
 8365POPC   C1A51171  11.262  33.780   6.450
 8365POPC   D2A51172  11.298  33.839   6.750
 8365POPC   C3A51173  11.338  33.776   7.050
 8365POPC   C4A51174  11.322  33.829   7.350
 8365POPC   C1B51175  11.181  33.575   6.450
 8365POPC   C2B51176  11.170  33.580   6.750
 8365POPC   C3B51177  11.176  33.540   7.050
 8365POPC   C4B51178  11.178  33.535   7.350
 8366POPC   NC351179  29.145  11.313   5.550
 8366POPC   PO451180  29.115  11.260   5.850
 8366POPC   GL151181  29.163  11.254   6.150
 8366POPC   GL251182  29.152  11.367   6.150
 8366POPC   C1A51183  29.133  11.258   6.450
 8366POPC   D2A51184  29.147  11.339   6.750
 8366POPC   C3A51185  29.096  11.348   7.050
 8366POPC   C4A51186  29.185  11.330   7.350
 8366POPC   C1B51187  29.218  11.533   6.450
 8366POPC   C2B51188  29.212  11.494   6.750
 8366POPC   C3B51189  29.229  11.492   7.050
 8366POPC   C4B51190  29.275  11.565   7.350
 8367POPC   NC351191  36.123  29.950   5.550
 8367POPC   PO451192  36.112  29.878   5.850
 8367POPC   GL151193  36.157  29.878   6.150
 8367POPC   GL251194  36.083  29.788   6.150
 8367POPC   C1A51195  36.119  29.894   6.450
 8367POPC   D2A51196  36.159  29.941   6.750
 8367POPC   C3A51197  36.150  29.886   7.050
 8367POPC   C4A51198  36.117  29.964   7.350
 8367POPC   C1B51199  36.132  29.698   6.450
 8367POPC   C2B51200  36.148  29.651   6.750
 8367POPC   C3B51201  36.153  29.647   7.050
 8367POPC   C4B51202  36.115  29.720   7.350
 8368POPC   NC351203  42.340  20.610   5.550
 8368POPC   PO451204  42.355  20.591   5.850
 8368POPC   GL151205  42.338  20.624   6.150
 8368POPC   GL251206  42.252  20.661   6.150
 8368POPC   C1A51207  42.367  20.636   6.450
 8368POPC   D2A51208  42.336  20.628   6.750
 8368POPC   C3A51209  42.299  20.592   7.050
 8368POPC   C4A51210  42.345  20.611   7.350
 8368POPC   C1B51211  42.085  20.586   6.450
 8368POPC   C2B51212  42.044  20.609   6.750
 8368POPC   C3B51213  42.133  20.597   7.050
 8368POPC   C4B51214  42.040  20.597   7.350
 8369POPC   NC351215  33.840   7.458   5.550
 8369POPC   PO451216  33.837   7.443   5.850
 8369POPC   GL151217  33.816   7.381   6.150
 8369POPC   GL251218  33.879   7.541   6.150
 8369POPC   C1A51219  33.764   7.375   6.450
 8369POPC   D2A51220  33.830   7.429   6.750
 8369POPC   C3A51221  33.811   7.448   7.050
 8369POPC   C4A51222  33.803   7.428   7.350
 8369POPC   C1B51223  33.890   7.601   6.450
 8369POPC   C2B51224  33.914   7.625   6.750
 8369POPC   C3B51225  33.972   7.597   7.050
 8369POPC   C4B51226  33.920   7.665   7.350
 8370POPC   NC351227  40.733  35.383   5.550
 8370POPC   PO451228  40.757  35.388   5.850
 8370POPC   GL151229  40.770  35.322   6.150
 8370POPC   GL251230  40.625  35.338   6.150
 8370POPC   C1A51231  40.737  35.367   6.450
 8370POPC   D2A51232  40.760  35.396   6.750
 8370POPC   C3A51233  40.789  35.313   7.050
 8370POPC   C4A51234  40.812  35.323   7.350
 8370POPC   C1B51235  40.546  35.324   6.450
 8370POPC   C2B51236  40.558  35.400   6.750
 8370POPC   C3B51237  40.518  35.379   7.050
 8370POPC   C4B51238  40.502  35.365   7.350
 8371POPC   NC351239  24.538   4.333   5.550
 8371POPC   PO451240  24.519   4.315   5.850
 8371POPC   GL151241  24.512   4.362   6.150
 8371POPC   GL251242  24.366   4.213   6.150
 8371POPC   C1A51243  24.526   4.324   6.450
 8371POPC   D2A51244  24.451   4.316   6.750
 8371POPC   C3A51245  24.537   4.326   7.050
 8371POPC   C4A51246  24.538   4.324   7.350
 8371POPC   C1B51247  24.341   4.113   6.450
 8371POPC   C2B51248  24.361   4.081   6.750
 8371POPC   C3B51249  24.360   4.110   7.050
 8371POPC   C4B51250  24.366   4.077   7.350
 8372POPC   NC351251  29.104   5.839   5.550
 8372POPC   PO451252  29.153   5.852   5.850
 8372POPC   GL151253  29.146   5.838   6.150
 8372POPC   GL251254  29.061   6.006   6.150
 8372POPC   C1A51255  29.189   5.877   6.450
 8372POPC   D2A51256  29.169   5.912   6.750
 8372POPC   C3A51257  29.127   5.900   7.050
 8372POPC   C4A51258  29.181   5.857   7.350
 8372POPC   C1B51259  29.037   6.111   6.450
 8372POPC   C2B51260  29.041   6.066   6.750
 8372POPC   C3B51261  28.978   6.039   7.050
 8372POPC   C4B51262  29.034   6.069   7.350
 8373POPC   NC351263  36.127  26.838   5.550
 8373POPC   PO451264  36.165  26.817   5.850
 8373POPC   GL151265  36.092  26.796   6.150
 8373POPC   GL251266  36.070  26.888   6.150
 8373POPC   C1A51267  36.099  26.767   6.450
 8373POPC   D2A51268  36.166  26.795   6.750
 8373POPC   C3A51269  36.173  26.836   7.050
 8373POPC   C4A51270  36.084  26.808   7.350
 8373POPC   C1B51271  35.946  27.064   6.450
 8373POPC   C2B51272  35.969  26.987   6.750
 8373POPC   C3B51273  35.987  26.988   7.050
 8373POPC   C4B51274  35.995  26.977   7.350
 8374POPC   NC351275  14.424  39.182   5.550
 8374POPC   PO451276  14.357  39.252   5.850
 8374POPC   GL151277  14.442  39.193   6.150
 8374POPC   GL251278  14.463  39.340   6.150
 8374POPC   C1A51279  14.399  39.245   6.450
 8374POPC   D2A51280  14.403  39.191   6.750
 8374POPC   C3A51281  14.370  39.209   7.050
 8374POPC   C4A51282  14.443  39.280   7.350
 8374POPC   C1B51283  14.553  39.434   6.450
 8374POPC   C2B51284  14.590  39.445   6.750
 8374POPC   C3B51285  14.545  39.422   7.050
 8374POPC   C4B51286  14.540  39.390   7.350
 8375POPC   NC351287  10.487   7.451   5.550
 8375POPC   PO451288  10.491   7.445   5.850
 8375POPC   GL151289  10.570   7.431   6.150
 8375POPC   GL251290  10.482   7.536   6.150
 8375POPC   C1A51291  10.573   7.416   6.450
 8375POPC   D2A51292  10.489   7.402   6.750
 8375POPC   C3A51293  10.510   7.433   7.050
 8375POPC   C4A51294  10.558   7.455   7.350
 8375POPC   C1B51295  10.498   7.686   6.450
 8375POPC   C2B51296  10.494   7.687   6.750
 8375POPC   C3B51297  10.495   7.695   7.050
 8375POPC   C4B51298  10.486   7.653   7.350
 8376POPC   NC351299  43.870  15.164   5.550
 8376POPC   PO451300  43.900  15.189   5.850
 8376POPC   GL151301  43.917  15.131   6.150
 8376POPC   GL251302  43.905  15.029   6.150
 8376POPC   C1A51303  43.864  15.151   6.450
 8376POPC   D2A51304  43.892  15.163   6.750
 8376POPC   C3A51305  43.909  15.219   7.050
 8376POPC   C4A51306  43.841  15.181   7.350
 8376POPC   C1B51307  43.944  14.955   6.450
 8376POPC   C2B51308  43.910  14.914   6.750
 8376POPC   C3B51309  43.907  14.914   7.050
 8376POPC   C4B51310  43.959  14.910   7.350
 8377POPC   NC351311  35.303   1.947   5.550
 8377POPC   PO451312  35.345   1.968   5.850
 8377POPC   GL151313  35.316   2.020   6.150
 8377POPC   GL251314  35.351   2.115   6.150
 8377POPC   C1A51315  35.350   1.998   6.450
 8377POPC   D2A51316  35.336   2.034   6.750
 8377POPC   C3A51317  35.376   1.976   7.050
 8377POPC   C4A51318  35.356   2.016   7.350
 8377POPC   C1B51319  35.308   2.254   6.450
 8377POPC   C2B51320  35.344   2.222   6.750
 8377POPC   C3B51321  35.327   2.190   7.050
 8377POPC   C4B51322  35.306   2.219   7.350
 8378POPC   NC351323   5.825   6.654   5.550
 8378POPC   PO451324   5.831   6.670   5.850
 8378POPC   GL151325   5.842   6.638   6.150
 8378POPC   GL251326   5.943   6.749   6.150
 8378POPC   C1A51327   5.827   6.644   6.450
 8378POPC   D2A51328   5.861   6.692   6.750
 8378POPC   C3A51329   5.826   6.633   7.050
 8378POPC   C4A51330   5.867   6.639   7.350
 8378POPC   C1B51331   5.902   6.848   6.450
 8378POPC   C2B51332   5.939   6.841   6.750
 8378POPC   C3B51333   5.963   6.843   7.050
 8378POPC   C4B51334   5.973   6.892   7.350
 8379POPC   NC351335  39.189   8.224   5.550
 8379POPC   PO451336  39.199   8.242   5.850
 8379POPC   GL151337  39.195   8.187   6.150
 8379POPC   GL251338  39.212   8.357   6.150
 8379POPC   C1A51339  39.221   8.159   6.450
 8379POPC   D2A51340  39.226   8.179   6.750
 8379POPC   C3A51341  39.248   8.168   7.050
 8379POPC   C4A51342  39.257   8.185   7.350
 8379POPC   C1B51343  39.173   8.410   6.450
 8379POPC   C2B51344  39.122   8.481   6.750
 8379POPC   C3B51345  39.136   8.464   7.050
 8379POPC   C4B51346  39.163   8.397   7.350
 8380POPC   NC351347  39.248  30.662   5.550
 8380POPC   PO451348  39.190  30.664   5.850
 8380POPC   GL151349  39.265  30.741   6.150
 8380POPC   GL251350  39.208  30.601   6.150
 8380POPC   C1A51351  39.268  30.654   6.450
 8380POPC   D2A51352  39.193  30.712   6.750
 8380POPC   C3A51353  39.232  30.742   7.050
 8380POPC   C4A51354  39.275  30.688   7.350
 8380POPC   C1B51355  39.148  30.481   6.450
 8380POPC   C2B51356  39.114  30.488   6.750
 8380POPC   C3B51357  39.158  30.479   7.050
 8380POPC   C4B51358  39.124  30.510   7.350
 8381POPC   NC351359   9.784  44.674   5.550
 8381POPC   PO451360   9.750  44.658   5.850
 8381POPC   GL151361   9.721  44.642   6.150
 8381POPC   GL251362   9.672  44.567   6.150
 8381POPC   C1A51363   9.735  44.644   6.450
 8381POPC   D2A51364   9.771  44.689   6.750
 8381POPC   C3A51365   9.774  44.651   7.050
 8381POPC   C4A51366   9.710  44.668   7.350
 8381POPC   C1B51367   9.612  44.424   6.450
 8381POPC   C2B51368   9.600  44.468   6.750
 8381POPC   C3B51369   9.587  44.445   7.050
 8381POPC   C4B51370   9.614  44.416   7.350
 8382POPC   NC351371   2.032   2.808   5.550
 8382POPC   PO451372   1.941   2.722   5.850
 8382POPC   GL151373   1.940   2.800   6.150
 8382POPC   GL251374   2.087   2.775   6.150
 8382POPC   C1A51375   1.966   2.719   6.450
 8382POPC   D2A51376   2.020   2.794   6.750
 8382POPC   C3A51377   2.017   2.719   7.050
 8382POPC   C4A51378   1.969   2.748   7.350
 8382POPC   C1B51379   2.212   2.767   6.450
 8382POPC   C2B51380   2.195   2.748   6.750
 8382POPC   C3B51381   2.199   2.710   7.050
 8382POPC   C4B51382   2.263   2.780   7.350
 8383POPC   NC351383  15.226  39.202   5.550
 8383POPC   PO451384  15.142  39.189   5.850
 8383POPC   GL151385  15.173  39.213   6.150
 8383POPC   GL251386  15.200  39.133   6.150
 8383POPC   C1A51387  15.215  39.277   6.450
 8383POPC   D2A51388  15.207  39.269   6.750
 8383POPC   C3A51389  15.226  39.274   7.050
 8383POPC   C4A51390  15.201  39.209   7.350
 8383POPC   C1B51391  15.313  39.038   6.450
 8383POPC   C2B51392  15.277  39.016   6.750
 8383POPC   C3B51393  15.268  38.960   7.050
 8383POPC   C4B51394  15.284  39.031   7.350
 8384POPC   NC351395   4.273  44.673   5.550
 8384POPC   PO451396   4.275  44.703   5.850
 8384POPC   GL151397   4.358  44.643   6.150
 8384POPC   GL251398   4.383  44.786   6.150
 8384POPC   C1A51399   4.289  44.640   6.450
 8384POPC   D2A51400   4.269  44.712   6.750
 8384POPC   C3A51401   4.300  44.644   7.050
 8384POPC   C4A51402   4.315  44.673   7.350
 8384POPC   C1B51403   4.423  44.873   6.450
 8384POPC   C2B51404   4.431  44.873   6.750
 8384POPC   C3B51405   4.470  44.826   7.050
 8384POPC   C4B51406   4.487  44.852   7.350
 8385POPC   NC351407  38.503  33.785   5.550
 8385POPC   PO451408  38.481  33.815   5.850
 8385POPC   GL151409  38.425  33.763   6.150
 8385POPC   GL251410  38.531  33.944   6.150
 8385POPC   C1A51411  38.409  33.815   6.450
 8385POPC   D2A51412  38.443  33.841   6.750
 8385POPC   C3A51413  38.458  33.796   7.050
 8385POPC   C4A51414  38.412  33.799   7.350
 8385POPC   C1B51415  38.504  34.054   6.450
 8385POPC   C2B51416  38.582  34.081   6.750
 8385POPC   C3B51417  38.551  34.041   7.050
 8385POPC   C4B51418  38.552  34.080   7.350
 8386POPC   NC351419   6.680  39.991   5.550
 8386POPC   PO451420   6.689  40.014   5.850
 8386POPC   GL151421   6.650  40.006   6.150
 8386POPC   GL251422   6.531  39.976   6.150
 8386POPC   C1A51423   6.631  40.051   6.450
 8386POPC   D2A51424   6.623  39.965   6.750
 8386POPC   C3A51425   6.661  40.053   7.050
 8386POPC   C4A51426   6.667  39.977   7.350
 8386POPC   C1B51427   6.392  39.841   6.450
 8386POPC   C2B51428   6.468  39.823   6.750
 8386POPC   C3B51429   6.400  39.848   7.050
 8386POPC   C4B51430   6.460  39.869   7.350
 8387POPC   NC351431  34.590   5.103   5.550
 8387POPC   PO451432  34.562   5.116   5.850
 8387POPC   GL151433  34.589   5.053   6.150
 8387POPC   GL251434  34.651   4.956   6.150
 8387POPC   C1A51435  34.558   5.097   6.450
 8387POPC   D2A51436  34.580   5.057   6.750
 8387POPC   C3A51437  34.562   5.122   7.050
 8387POPC   C4A51438  34.527   5.117   7.350
 8387POPC   C1B51439  34.650   4.821   6.450
 8387POPC   C2B51440  34.639   4.834   6.750
 8387POPC   C3B51441  34.597   4.817   7.050
 8387POPC   C4B51442  34.656   4.828   7.350
 8388POPC   NC351443  25.279   9.723   5.550
 8388POPC   PO451444  25.284   9.761   5.850
 8388POPC   GL151445  25.243   9.796   6.150
 8388POPC   GL251446  25.357   9.649   6.150
 8388POPC   C1A51447  25.305   9.739   6.450
 8388POPC   D2A51448  25.309   9.756   6.750
 8388POPC   C3A51449  25.230   9.773   7.050
 8388POPC   C4A51450  25.224   9.788   7.350
 8388POPC   C1B51451  25.381   9.521   6.450
 8388POPC   C2B51452  25.379   9.521   6.750
 8388POPC   C3B51453  25.362   9.528   7.050
 8388POPC   C4B51454  25.364   9.538   7.350
 8389POPC   NC351455  23.668  29.940   5.550
 8389POPC   PO451456  23.750  29.903   5.850
 8389POPC   GL151457  23.682  29.943   6.150
 8389POPC   GL251458  23.558  29.842   6.150
 8389POPC   C1A51459  23.760  29.937   6.450
 8389POPC   D2A51460  23.702  29.937   6.750
 8389POPC   C3A51461  23.735  29.965   7.050
 8389POPC   C4A51462  23.709  29.967   7.350
 8389POPC   C1B51463  23.466  29.816   6.450
 8389POPC   C2B51464  23.525  29.836   6.750
 8389POPC   C3B51465  23.453  29.846   7.050
 8389POPC   C4B51466  23.436  29.807   7.350
 8390POPC   NC351467  28.361   5.101   5.550
 8390POPC   PO451468  28.325   5.120   5.850
 8390POPC   GL151469  28.354   5.120   6.150
 8390POPC   GL251470  28.428   5.173   6.150
 8390POPC   C1A51471  28.345   5.120   6.450
 8390POPC   D2A51472  28.327   5.083   6.750
 8390POPC   C3A51473  28.323   5.065   7.050
 8390POPC   C4A51474  28.391   5.137   7.350
 8390POPC   C1B51475  28.503   5.346   6.450
 8390POPC   C2B51476  28.520   5.276   6.750
 8390POPC   C3B51477  28.507   5.342   7.050
 8390POPC   C4B51478  28.516   5.272   7.350
 8391POPC   NC351479   5.125  43.125   5.550
 8391POPC   PO451480   5.134  43.082   5.850
 8391POPC   GL151481   5.078  43.160   6.150
 8391POPC   GL251482   5.017  43.160   6.150
 8391POPC   C1A51483   5.094  43.076   6.450
 8391POPC   D2A51484   5.056  43.124   6.750
 8391POPC   C3A51485   5.102  43.127   7.050
 8391POPC   C4A51486   5.114  43.157   7.350
 8391POPC   C1B51487   4.860  43.219   6.450
 8391POPC   C2B51488   4.894  43.193   6.750
 8391POPC   C3B51489   4.831  43.232   7.050
 8391POPC   C4B51490   4.889  43.167   7.350
 8392POPC   NC351491  19.090  44.640   5.550
 8392POPC   PO451492  19.079  44.653   5.850
 8392POPC   GL151493  19.026  44.676   6.150
 8392POPC   GL251494  18.993  44.758   6.150
 8392POPC   C1A51495  19.051  44.674   6.450
 8392POPC   D2A51496  19.093  44.648   6.750
 8392POPC   C3A51497  19.101  44.708   7.050
 8392POPC   C4A51498  19.075  44.698   7.350
 8392POPC   C1B51499  18.870  44.800   6.450
 8392POPC   C2B51500  18.850  44.746   6.750
 8392POPC   C3B51501  18.818  44.821   7.050
 8392POPC   C4B51502  18.798  44.786   7.350
 8393POPC   NC351503  42.375  31.469   5.550
 8393POPC   PO451504  42.325  31.516   5.850
 8393POPC   GL151505  42.326  31.458   6.150
 8393POPC   GL251506  42.373  31.332   6.150
 8393POPC   C1A51507  42.329  31.429   6.450
 8393POPC   D2A51508  42.332  31.434   6.750
 8393POPC   C3A51509  42.331  31.480   7.050
 8393POPC   C4A51510  42.381  31.444   7.350
 8393POPC   C1B51511  42.446  31.225   6.450
 8393POPC   C2B51512  42.523  31.299   6.750
 8393POPC   C3B51513  42.469  31.221   7.050
 8393POPC   C4B51514  42.496  31.266   7.350
 8394POPC   NC351515   1.190   9.008   5.550
 8394POPC   PO451516   1.227   8.956   5.850
 8394POPC   GL151517   1.207   8.986   6.150
 8394POPC   GL251518   1.139   8.942   6.150
 8394POPC   C1A51519   1.206   8.936   6.450
 8394POPC   D2A51520   1.176   8.957   6.750
 8394POPC   C3A51521   1.242   9.021   7.050
 8394POPC   C4A51522   1.183   8.949   7.350
 8394POPC   C1B51523   0.917   8.939   6.450
 8394POPC   C2B51524   0.954   8.918   6.750
 8394POPC   C3B51525   0.919   8.950   7.050
 8394POPC   C4B51526   0.963   8.972   7.350
 8395POPC   NC351527  27.614   6.606   5.550
 8395POPC   PO451528  27.562   6.596   5.850
 8395POPC   GL151529  27.587   6.644   6.150
 8395POPC   GL251530  27.486   6.518   6.150
 8395POPC   C1A51531  27.582   6.613   6.450
 8395POPC   D2A51532  27.548   6.651   6.750
 8395POPC   C3A51533  27.576   6.638   7.050
 8395POPC   C4A51534  27.611   6.601   7.350
 8395POPC   C1B51535  27.450   6.450   6.450
 8395POPC   C2B51536  27.418   6.468   6.750
 8395POPC   C3B51537  27.480   6.422   7.050
 8395POPC   C4B51538  27.449   6.418   7.350
 8396POPC   NC351539  28.381   3.549   5.550
 8396POPC   PO451540  28.333   3.544   5.850
 8396POPC   GL151541  28.321   3.562   6.150
 8396POPC   GL251542  28.247   3.537   6.150
 8396POPC   C1A51543  28.408   3.522   6.450
 8396POPC   D2A51544  28.330   3.549   6.750
 8396POPC   C3A51545  28.342   3.507   7.050
 8396POPC   C4A51546  28.363   3.545   7.350
 8396POPC   C1B51547  28.133   3.493   6.450
 8396POPC   C2B51548  28.168   3.511   6.750
 8396POPC   C3B51549  28.127   3.564   7.050
 8396POPC   C4B51550  28.088   3.508   7.350
 8397POPC   NC351551   2.723  31.515   5.550
 8397POPC   PO451552   2.749  31.451   5.850
 8397POPC   GL151553   2.809  31.522   6.150
 8397POPC   GL251554   2.698  31.572   6.150
 8397POPC   C1A51555   2.791  31.505   6.450
 8397POPC   D2A51556   2.769  31.435   6.750
 8397POPC   C3A51557   2.747  31.508   7.050
 8397POPC   C4A51558   2.754  31.436   7.350
 8397POPC   C1B51559   2.655  31.639   6.450
 8397POPC   C2B51560   2.581  31.703   6.750
 8397POPC   C3B51561   2.584  31.687   7.050
 8397POPC   C4B51562   2.582  31.707   7.350
 8398POPC   NC351563  33.791  40.752   5.550
 8398POPC   PO451564  33.765  40.757   5.850
 8398POPC   GL151565  33.804  40.808   6.150
 8398POPC   GL251566  33.919  40.661   6.150
 8398POPC   C1A51567  33.801  40.784   6.450
 8398POPC   D2A51568  33.764  40.792   6.750
 8398POPC   C3A51569  33.832  40.820   7.050
 8398POPC   C4A51570  33.774  40.814   7.350
 8398POPC   C1B51571  33.972  40.607   6.450
 8398POPC   C2B51572  33.948  40.601   6.750
 8398POPC   C3B51573  33.908  40.576   7.050
 8398POPC   C4B51574  33.990  40.619   7.350
 8399POPC   NC351575   8.956   6.606   5.550
 8399POPC   PO451576   8.958   6.654   5.850
 8399POPC   GL151577   8.947   6.673   6.150
 8399POPC   GL251578   9.047   6.783   6.150
 8399POPC   C1A51579   8.929   6.664   6.450
 8399POPC   D2A51580   8.926   6.603   6.750
 8399POPC   C3A51581   8.942   6.693   7.050
 8399POPC   C4A51582   9.009   6.622   7.350
 8399POPC   C1B51583   9.082   6.845   6.450
 8399POPC   C2B51584   9.109   6.814   6.750
 8399POPC   C3B51585   9.103   6.869   7.050
 8399POPC   C4B51586   9.059   6.875   7.350
 8400POPC   NC351587   2.729  17.493   5.550
 8400POPC   PO451588   2.759  17.529   5.850
 8400POPC   GL151589   2.782  17.493   6.150
 8400POPC   GL251590   2.826  17.336   6.150
 8400POPC   C1A51591   2.775  17.498   6.450
 8400POPC   D2A51592   2.761  17.517   6.750
 8400POPC   C3A51593   2.784  17.500   7.050
 8400POPC   C4A51594   2.753  17.511   7.350
 8400POPC   C1B51595   2.805  17.218   6.450
 8400POPC   C2B51596   2.816  17.266   6.750
 8400POPC   C3B51597   2.844  17.260   7.050
 8400POPC   C4B51598   2.851  17.287   7.350
 8401POPC   NC351599  26.817  26.782   5.550
 8401POPC   PO451600  26.856  26.811   5.850
 8401POPC   GL151601  26.815  26.787   6.150
 8401POPC   GL251602  26.669  26.769   6.150
 8401POPC   C1A51603  26.829  26.789   6.450
 8401POPC   D2A51604  26.812  26.829   6.750
 8401POPC   C3A51605  26.834  26.840   7.050
 8401POPC   C4A51606  26.784  26.801   7.350
 8401POPC   C1B51607  26.600  26.759   6.450
 8401POPC   C2B51608  26.592  26.829   6.750
 8401POPC   C3B51609  26.555  26.820   7.050
 8401POPC   C4B51610  26.603  26.849   7.350
 8402POPC   NC351611   2.037  43.926   5.550
 8402POPC   PO451612   1.969  43.905   5.850
 8402POPC   GL151613   1.987  43.854   6.150
 8402POPC   GL251614   1.977  43.748   6.150
 8402POPC   C1A51615   2.022  43.847   6.450
 8402POPC   D2A51616   1.967  43.881   6.750
 8402POPC   C3A51617   2.013  43.890   7.050
 8402POPC   C4A51618   2.021  43.888   7.350
 8402POPC   C1B51619   1.956  43.611   6.450
 8402POPC   C2B51620   1.944  43.672   6.750
 8402POPC   C3B51621   1.969  43.648   7.050
 8402POPC   C4B51622   2.005  43.596   7.350
 8403POPC   NC351623  36.138  38.477   5.550
 8403POPC   PO451624  36.138  38.438   5.850
 8403POPC   GL151625  36.082  38.454   6.150
 8403POPC   GL251626  36.195  38.584   6.150
 8403POPC   C1A51627  36.087  38.449   6.450
 8403POPC   D2A51628  36.147  38.490   6.750
 8403POPC   C3A51629  36.132  38.461   7.050
 8403POPC   C4A51630  36.146  38.416   7.350
 8403POPC   C1B51631  36.353  38.609   6.450
 8403POPC   C2B51632  36.331  38.671   6.750
 8403POPC   C3B51633  36.267  38.625   7.050
 8403POPC   C4B51634  36.356  38.578   7.350
 8404POPC   NC351635  38.486  29.893   5.550
 8404POPC   PO451636  38.411  29.926   5.850
 8404POPC   GL151637  38.451  29.942   6.150
 8404POPC   GL251638  38.325  29.904   6.150
 8404POPC   C1A51639  38.413  29.874   6.450
 8404POPC   D2A51640  38.463  29.968   6.750
 8404POPC   C3A51641  38.473  29.893   7.050
 8404POPC   C4A51642  38.411  29.922   7.350
 8404POPC   C1B51643  38.187  29.847   6.450
 8404POPC   C2B51644  38.181  29.859   6.750
 8404POPC   C3B51645  38.174  29.875   7.050
 8404POPC   C4B51646  38.214  29.849   7.350
 8405POPC   NC351647   5.083   4.274   5.550
 8405POPC   PO451648   5.087   4.320   5.850
 8405POPC   GL151649   5.137   4.299   6.150
 8405POPC   GL251650   5.042   4.205   6.150
 8405POPC   C1A51651   5.132   4.356   6.450
 8405POPC   D2A51652   5.074   4.344   6.750
 8405POPC   C3A51653   5.065   4.315   7.050
 8405POPC   C4A51654   5.139   4.328   7.350
 8405POPC   C1B51655   4.971   4.077   6.450
 8405POPC   C2B51656   5.029   4.085   6.750
 8405POPC   C3B51657   4.950   4.095   7.050
 8405POPC   C4B51658   5.014   4.108   7.350
 8406POPC   NC351659  40.762  28.381   5.550
 8406POPC   PO451660  40.794  28.350   5.850
 8406POPC   GL151661  40.791  28.372   6.150
 8406POPC   GL251662  40.800  28.455   6.150
 8406POPC   C1A51663  40.822  28.376   6.450
 8406POPC   D2A51664  40.734  28.415   6.750
 8406POPC   C3A51665  40.763  28.336   7.050
 8406POPC   C4A51666  40.824  28.384   7.350
 8406POPC   C1B51667  40.756  28.614   6.450
 8406POPC   C2B51668  40.719  28.666   6.750
 8406POPC   C3B51669  40.720  28.581   7.050
 8406POPC   C4B51670  40.711  28.648   7.350
 8407POPC   NC351671   8.988  20.564   5.550
 8407POPC   PO451672   8.980  20.617   5.850
 8407POPC   GL151673   9.005  20.615   6.150
 8407POPC   GL251674   9.041  20.694   6.150
 8407POPC   C1A51675   8.953  20.647   6.450
 8407POPC   D2A51676   8.979  20.562   6.750
 8407POPC   C3A51677   8.943  20.570   7.050
 8407POPC   C4A51678   8.934  20.628   7.350
 8407POPC   C1B51679   9.059  20.849   6.450
 8407POPC   C2B51680   9.080  20.811   6.750
 8407POPC   C3B51681   9.068  20.825   7.050
 8407POPC   C4B51682   9.040  20.848   7.350
 8408POPC   NC351683  18.237   2.720   5.550
 8408POPC   PO451684  18.283   2.756   5.850
 8408POPC   GL151685  18.246   2.796   6.150
 8408POPC   GL251686  18.412   2.706   6.150
 8408POPC   C1A51687  18.281   2.783   6.450
 8408POPC   D2A51688  18.233   2.747   6.750
 8408POPC   C3A51689  18.297   2.758   7.050
 8408POPC   C4A51690  18.314   2.760   7.350
 8408POPC   C1B51691  18.568   2.767   6.450
 8408POPC   C2B51692  18.531   2.703   6.750
 8408POPC   C3B51693  18.486   2.677   7.050
 8408POPC   C4B51694  18.553   2.732   7.350
 8409POPC   NC351695   6.629  36.940   5.550
 8409POPC   PO451696   6.644  36.952   5.850
 8409POPC   GL151697   6.626  36.870   6.150
 8409POPC   GL251698   6.727  36.907   6.150
 8409POPC   C1A51699   6.626  36.888   6.450
 8409POPC   D2A51700   6.667  36.903   6.750
 8409POPC   C3A51701   6.596  36.919   7.050
 8409POPC   C4A51702   6.661  36.881   7.350
 8409POPC   C1B51703   6.919  36.887   6.450
 8409POPC   C2B51704   6.847  36.923   6.750
 8409POPC   C3B51705   6.850  36.873   7.050
 8409POPC   C4B51706   6.863  36.901   7.350
 8410POPC   NC351707  21.360  15.215   5.550
 8410POPC   PO451708  21.370  15.194   5.850
 8410POPC   GL151709  21.356  15.224   6.150
 8410POPC   GL251710  21.540  15.129   6.150
 8410POPC   C1A51711  21.433  15.193   6.450
 8410POPC   D2A51712  21.369  15.161   6.750
 8410POPC   C3A51713  21.370  15.185   7.050
 8410POPC   C4A51714  21.395  15.165   7.350
 8410POPC   C1B51715  21.639  15.077   6.450
 8410POPC   C2B51716  21.617  15.070   6.750
 8410POPC   C3B51717  21.653  15.072   7.050
 8410POPC   C4B51718  21.601  15.123   7.350
 8411POPC   NC351719  29.965  12.879   5.550
 8411POPC   PO451720  29.957  12.899   5.850
 8411POPC   GL151721  29.936  12.842   6.150
 8411POPC   GL251722  30.028  12.928   6.150
 8411POPC   C1A51723  29.962  12.839   6.450
 8411POPC   D2A51724  29.879  12.861   6.750
 8411POPC   C3A51725  29.913  12.843   7.050
 8411POPC   C4A51726  29.959  12.879   7.350
 8411POPC   C1B51727  30.154  13.006   6.450
 8411POPC   C2B51728  30.162  12.957   6.750
 8411POPC   C3B51729  30.083  12.968   7.050
 8411POPC   C4B51730  30.134  12.950   7.350
 8412POPC   NC351731  27.569   2.027   5.550
 8412POPC   PO451732  27.550   1.959   5.850
 8412POPC   GL151733  27.608   2.033   6.150
 8412POPC   GL251734  27.719   1.985   6.150
 8412POPC   C1A51735  27.603   2.021   6.450
 8412POPC   D2A51736  27.575   2.034   6.750
 8412POPC   C3A51737  27.630   2.018   7.050
 8412POPC   C4A51738  27.599   2.038   7.350
 8412POPC   C1B51739  27.848   1.852   6.450
 8412POPC   C2B51740  27.858   1.900   6.750
 8412POPC   C3B51741  27.830   1.934   7.050
 8412POPC   C4B51742  27.858   1.906   7.350
 8413POPC   NC351743  21.430   5.064   5.550
 8413POPC   PO451744  21.429   5.125   5.850
 8413POPC   GL151745  21.418   5.065   6.150
 8413POPC   GL251746  21.294   5.159   6.150
 8413POPC   C1A51747  21.428   5.107   6.450
 8413POPC   D2A51748  21.353   5.133   6.750
 8413POPC   C3A51749  21.433   5.094   7.050
 8413POPC   C4A51750  21.375   5.044   7.350
 8413POPC   C1B51751  21.305   5.319   6.450
 8413POPC   C2B51752  21.245   5.299   6.750
 8413POPC   C3B51753  21.218   5.267   7.050
 8413POPC   C4B51754  21.305   5.282   7.350
 8414POPC   NC351755  16.774  12.092   5.550
 8414POPC   PO451756  16.688  12.082   5.850
 8414POPC   GL151757  16.716  12.106   6.150
 8414POPC   GL251758  16.660  12.072   6.150
 8414POPC   C1A51759  16.719  12.121   6.450
 8414POPC   D2A51760  16.734  12.119   6.750
 8414POPC   C3A51761  16.757  12.057   7.050
 8414POPC   C4A51762  16.705  12.060   7.350
 8414POPC   C1B51763  16.461  12.122   6.450
 8414POPC   C2B51764  16.490  12.188   6.750
 8414POPC   C3B51765  16.521  12.105   7.050
 8414POPC   C4B51766  16.449  12.096   7.350
 8415POPC   NC351767  19.013  19.811   5.550
 8415POPC   PO451768  19.014  19.834   5.850
 8415POPC   GL151769  19.084  19.865   6.150
 8415POPC   GL251770  19.034  19.889   6.150
 8415POPC   C1A51771  19.016  19.833   6.450
 8415POPC   D2A51772  19.060  19.817   6.750
 8415POPC   C3A51773  19.063  19.882   7.050
 8415POPC   C4A51774  19.011  19.864   7.350
 8415POPC   C1B51775  18.952  20.050   6.450
 8415POPC   C2B51776  18.890  20.046   6.750
 8415POPC   C3B51777  18.901  19.996   7.050
 8415POPC   C4B51778  18.929  20.052   7.350
 8416POPC   NC351779   5.890  22.912   5.550
 8416POPC   PO451780   5.840  22.962   5.850
 8416POPC   GL151781   5.850  22.893   6.150
 8416POPC   GL251782   5.945  22.939   6.150
 8416POPC   C1A51783   5.861  22.985   6.450
 8416POPC   D2A51784   5.846  22.971   6.750
 8416POPC   C3A51785   5.838  22.922   7.050
 8416POPC   C4A51786   5.918  22.965   7.350
 8416POPC   C1B51787   6.085  22.863   6.450
 8416POPC   C2B51788   6.144  22.926   6.750
 8416POPC   C3B51789   6.099  22.905   7.050
 8416POPC   C4B51790   6.100  22.945   7.350
 8417POPC   NC351791  17.465  13.579   5.550
 8417POPC   PO451792  17.520  13.637   5.850
 8417POPC   GL151793  17.504  13.614   6.150
 8417POPC   GL251794  17.562  13.756   6.150
 8417POPC   C1A51795  17.461  13.639   6.450
 8417POPC   D2A51796  17.532  13.597   6.750
 8417POPC   C3A51797  17.513  13.595   7.050
 8417POPC   C4A51798  17.479  13.652   7.350
 8417POPC   C1B51799  17.615  13.838   6.450
 8417POPC   C2B51800  17.618  13.819   6.750
 8417POPC   C3B51801  17.566  13.909   7.050
 8417POPC   C4B51802  17.540  13.887   7.350
 8418POPC   NC351803  12.049  34.566   5.550
 8418POPC   PO451804  12.116  34.576   5.850
 8418POPC   GL151805  12.062  34.572   6.150
 8418POPC   GL251806  12.101  34.509   6.150
 8418POPC   C1A51807  12.046  34.588   6.450
 8418POPC   D2A51808  12.096  34.565   6.750
 8418POPC   C3A51809  12.058  34.531   7.050
 8418POPC   C4A51810  12.094  34.563   7.350
 8418POPC   C1B51811  12.217  34.380   6.450
 8418POPC   C2B51812  12.243  34.365   6.750
 8418POPC   C3B51813  12.201  34.373   7.050
 8418POPC   C4B51814  12.162  34.399   7.350
 8419POPC   NC351815   8.175  10.514   5.550
 8419POPC   PO451816   8.150  10.524   5.850
 8419POPC   GL151817   8.218  10.501   6.150
 8419POPC   GL251818   8.207  10.663   6.150
 8419POPC   C1A51819   8.220  10.475   6.450
 8419POPC   D2A51820   8.223  10.549   6.750
 8419POPC   C3A51821   8.217  10.494   7.050
 8419POPC   C4A51822   8.199  10.537   7.350
 8419POPC   C1B51823   8.214  10.756   6.450
 8419POPC   C2B51824   8.179  10.750   6.750
 8419POPC   C3B51825   8.235  10.776   7.050
 8419POPC   C4B51826   8.186  10.801   7.350
 8420POPC   NC351827  32.253   6.613   5.550
 8420POPC   PO451828  32.294   6.675   5.850
 8420POPC   GL151829  32.231   6.633   6.150
 8420POPC   GL251830  32.136   6.579   6.150
 8420POPC   C1A51831  32.222   6.605   6.450
 8420POPC   D2A51832  32.246   6.625   6.750
 8420POPC   C3A51833  32.247   6.607   7.050
 8420POPC   C4A51834  32.277   6.677   7.350
 8420POPC   C1B51835  32.066   6.450   6.450
 8420POPC   C2B51836  32.071   6.475   6.750
 8420POPC   C3B51837  32.101   6.418   7.050
 8420POPC   C4B51838  32.061   6.423   7.350
 8421POPC   NC351839  36.165  35.355   5.550
 8421POPC   PO451840  36.131  35.303   5.850
 8421POPC   GL151841  36.142  35.309   6.150
 8421POPC   GL251842  36.199  35.272   6.150
 8421POPC   C1A51843  36.129  35.343   6.450
 8421POPC   D2A51844  36.154  35.307   6.750
 8421POPC   C3A51845  36.131  35.330   7.050
 8421POPC   C4A51846  36.082  35.375   7.350
 8421POPC   C1B51847  36.311  35.134   6.450
 8421POPC   C2B51848  36.248  35.139   6.750
 8421POPC   C3B51849  36.298  35.185   7.050
 8421POPC   C4B51850  36.240  35.125   7.350
 8422POPC   NC351851  21.389  33.050   5.550
 8422POPC   PO451852  21.364  33.028   5.850
 8422POPC   GL151853  21.417  33.013   6.150
 8422POPC   GL251854  21.443  33.132   6.150
 8422POPC   C1A51855  21.373  33.056   6.450
 8422POPC   D2A51856  21.354  33.058   6.750
 8422POPC   C3A51857  21.402  32.999   7.050
 8422POPC   C4A51858  21.383  32.990   7.350
 8422POPC   C1B51859  21.418  33.248   6.450
 8422POPC   C2B51860  21.407  33.262   6.750
 8422POPC   C3B51861  21.473  33.318   7.050
 8422POPC   C4B51862  21.438  33.297   7.350
 8423POPC   NC351863   1.205   9.718   5.550
 8423POPC   PO451864   1.233   9.737   5.850
 8423POPC   GL151865   1.180   9.725   6.150
 8423POPC   GL251866   1.302   9.714   6.150
 8423POPC   C1A51867   1.222   9.788   6.450
 8423POPC   D2A51868   1.241   9.773   6.750
 8423POPC   C3A51869   1.248   9.733   7.050
 8423POPC   C4A51870   1.253   9.739   7.350
 8423POPC   C1B51871   1.403   9.645   6.450
 8423POPC   C2B51872   1.448   9.629   6.750
 8423POPC   C3B51873   1.449   9.611   7.050
 8423POPC   C4B51874   1.452   9.622   7.350
 8424POPC   NC351875   5.047  19.803   5.550
 8424POPC   PO451876   5.085  19.849   5.850
 8424POPC   GL151877   5.089  19.877   6.150
 8424POPC   GL251878   5.229  19.736   6.150
 8424POPC   C1A51879   5.092  19.842   6.450
 8424POPC   D2A51880   5.098  19.848   6.750
 8424POPC   C3A51881   5.065  19.869   7.050
 8424POPC   C4A51882   5.133  19.805   7.350
 8424POPC   C1B51883   5.238  19.666   6.450
 8424POPC   C2B51884   5.282  19.630   6.750
 8424POPC   C3B51885   5.231  19.699   7.050
 8424POPC   C4B51886   5.245  19.627   7.350
 8425POPC   NC351887  29.167  36.097   5.550
 8425POPC   PO451888  29.140  36.167   5.850
 8425POPC   GL151889  29.115  36.167   6.150
 8425POPC   GL251890  29.162  36.264   6.150
 8425POPC   C1A51891  29.122  36.146   6.450
 8425POPC   D2A51892  29.160  36.118   6.750
 8425POPC   C3A51893  29.173  36.097   7.050
 8425POPC   C4A51894  29.145  36.169   7.350
 8425POPC   C1B51895  29.086  36.347   6.450
 8425POPC   C2B51896  29.127  36.350   6.750
 8425POPC   C3B51897  29.106  36.418   7.050
 8425POPC   C4B51898  29.112  36.350   7.350
 8426POPC   NC351899   8.166  39.959   5.550
 8426POPC   PO451900   8.167  40.044   5.850
 8426POPC   GL151901   8.180  39.988   6.150
 8426POPC   GL251902   8.218  40.161   6.150
 8426POPC   C1A51903   8.168  39.982   6.450
 8426POPC   D2A51904   8.162  40.040   6.750
 8426POPC   C3A51905   8.241  40.027   7.050
 8426POPC   C4A51906   8.166  39.984   7.350
 8426POPC   C1B51907   8.303  40.238   6.450
 8426POPC   C2B51908   8.330  40.276   6.750
 8426POPC   C3B51909   8.256  40.231   7.050
 8426POPC   C4B51910   8.316  40.208   7.350
 8427POPC   NC351911  40.829  15.932   5.550
 8427POPC   PO451912  40.814  15.928   5.850
 8427POPC   GL151913  40.786  15.917   6.150
 8427POPC   GL251914  40.790  15.790   6.150
 8427POPC   C1A51915  40.789  15.924   6.450
 8427POPC   D2A51916  40.782  15.928   6.750
 8427POPC   C3A51917  40.821  15.905   7.050
 8427POPC   C4A51918  40.815  15.966   7.350
 8427POPC   C1B51919  40.816  15.733   6.450
 8427POPC   C2B51920  40.850  15.672   6.750
 8427POPC   C3B51921  40.848  15.701   7.050
 8427POPC   C4B51922  40.806  15.716   7.350
 8428POPC   NC351923   7.456  36.904   5.550
 8428POPC   PO451924   7.464  36.920   5.850
 8428POPC   GL151925   7.403  36.859   6.150
 8428POPC   GL251926   7.405  36.807   6.150
 8428POPC   C1A51927   7.415  36.907   6.450
 8428POPC   D2A51928   7.394  36.933   6.750
 8428POPC   C3A51929   7.394  36.919   7.050
 8428POPC   C4A51930   7.388  36.953   7.350
 8428POPC   C1B51931   7.397  36.610   6.450
 8428POPC   C2B51932   7.489  36.623   6.750
 8428POPC   C3B51933   7.423  36.642   7.050
 8428POPC   C4B51934   7.407  36.674   7.350
 8429POPC   NC351935  21.413  42.355   5.550
 8429POPC   PO451936  21.390  42.364   5.850
 8429POPC   GL151937  21.405  42.304   6.150
 8429POPC   GL251938  21.538  42.365   6.150
 8429POPC   C1A51939  21.370  42.294   6.450
 8429POPC   D2A51940  21.397  42.324   6.750
 8429POPC   C3A51941  21.424  42.359   7.050
 8429POPC   C4A51942  21.396  42.330   7.350
 8429POPC   C1B51943  21.637  42.375   6.450
 8429POPC   C2B51944  21.607  42.342   6.750
 8429POPC   C3B51945  21.621  42.360   7.050
 8429POPC   C4B51946  21.589  42.396   7.350
 8430POPC   NC351947  43.858  33.838   5.550
 8430POPC   PO451948  43.861  33.827   5.850
 8430POPC   GL151949  43.897  33.793   6.150
 8430POPC   GL251950  43.926  33.722   6.150
 8430POPC   C1A51951  43.894  33.785   6.450
 8430POPC   D2A51952  43.912  33.834   6.750
 8430POPC   C3A51953  43.854  33.833   7.050
 8430POPC   C4A51954  43.855  33.791   7.350
 8430POPC   C1B51955  44.011  33.635   6.450
 8430POPC   C2B51956  43.992  33.561   6.750
 8430POPC   C3B51957  44.023  33.583   7.050
 8430POPC   C4B51958  43.981  33.613   7.350
 8431POPC   NC351959  43.901  43.156   5.550
 8431POPC   PO451960  43.880  43.140   5.850
 8431POPC   GL151961  43.878  43.113   6.150
 8431POPC   GL251962  43.879  43.190   6.150
 8431POPC   C1A51963  43.934  43.086   6.450
 8431POPC   D2A51964  43.839  43.128   6.750
 8431POPC   C3A51965  43.913  43.102   7.050
 8431POPC   C4A51966  43.936  43.137   7.350
 8431POPC   C1B51967  43.949  43.314   6.450
 8431POPC   C2B51968  43.919  43.351   6.750
 8431POPC   C3B51969  43.914  43.349   7.050
 8431POPC   C4B51970  43.905  43.318   7.350
 8432POPC   NC351971   1.235  26.084   5.550
 8432POPC   PO451972   1.230  26.046   5.850
 8432POPC   GL151973   1.165  26.051   6.150
 8432POPC   GL251974   1.241  25.915   6.150
 8432POPC   C1A51975   1.192  26.007   6.450
 8432POPC   D2A51976   1.240  26.011   6.750
 8432POPC   C3A51977   1.227  26.006   7.050
 8432POPC   C4A51978   1.208  26.085   7.350
 8432POPC   C1B51979   1.305  25.839   6.450
 8432POPC   C2B51980   1.240  25.810   6.750
 8432POPC   C3B51981   1.282  25.761   7.050
 8432POPC   C4B51982   1.316  25.795   7.350
 8433POPC   NC351983  36.176  10.519   5.550
 8433POPC   PO451984  36.128  10.526   5.850
 8433POPC   GL151985  36.164  10.502   6.150
 8433POPC   GL251986  35.958  10.553   6.150
 8433POPC   C1A51987  36.104  10.531   6.450
 8433POPC   D2A51988  36.166  10.553   6.750
 8433POPC   C3A51989  36.078  10.505   7.050
 8433POPC   C4A51990  36.087  10.528   7.350
 8433POPC   C1B51991  35.856  10.533   6.450
 8433POPC   C2B51992  35.852  10.578   6.750
 8433POPC   C3B51993  35.897  10.561   7.050
 8433POPC   C4B51994  35.913  10.596   7.350
 8434POPC   NC351995  31.444  40.035   5.550
 8434POPC   PO451996  31.451  39.994   5.850
 8434POPC   GL151997  31.502  40.033   6.150
 8434POPC   GL251998  31.434  40.112   6.150
 8434POPC   C1A51999  31.508  40.009   6.450
 8434POPC   D2A52000  31.505  39.958   6.750
 8434POPC   C3A52001  31.493  40.006   7.050
 8434POPC   C4A52002  31.458  40.013   7.350
 8434POPC   C1B52003  31.352  40.192   6.450
 8434POPC   C2B52004  31.398  40.264   6.750
 8434POPC   C3B52005  31.341  40.193   7.050
 8434POPC   C4B52006  31.403  40.253   7.350
 8435POPC   NC352007  19.043  37.640   5.550
 8435POPC   PO452008  19.078  37.711   5.850
 8435POPC   GL152009  19.071  37.681   6.150
 8435POPC   GL252010  19.200  37.632   6.150
 8435POPC   C1A52011  19.083  37.684   6.450
 8435POPC   D2A52012  19.076  37.640   6.750
 8435POPC   C3A52013  19.049  37.639   7.050
 8435POPC   C4A52014  19.101  37.668   7.350
 8435POPC   C1B52015  19.291  37.567   6.450
 8435POPC   C2B52016  19.244  37.593   6.750
 8435POPC   C3B52017  19.241  37.596   7.050
 8435POPC   C4B52018  19.257  37.553   7.350
 8436POPC   NC352019  22.931  11.336   5.550
 8436POPC   PO452020  22.984  11.278   5.850
 8436POPC   GL152021  22.940  11.288   6.150
 8436POPC   GL252022  22.947  11.427   6.150
 8436POPC   C1A52023  22.978  11.308   6.450
 8436POPC   D2A52024  22.939  11.349   6.750
 8436POPC   C3A52025  22.933  11.282   7.050
 8436POPC   C4A52026  22.955  11.302   7.350
 8436POPC   C1B52027  23.018  11.504   6.450
 8436POPC   C2B52028  22.976  11.506   6.750
 8436POPC   C3B52029  23.053  11.517   7.050
 8436POPC   C4B52030  23.067  11.539   7.350
 8437POPC   NC352031  32.992  36.130   5.550
 8437POPC   PO452032  33.026  36.095   5.850
 8437POPC   GL152033  32.982  36.122   6.150
 8437POPC   GL252034  32.951  36.098   6.150
 8437POPC   C1A52035  32.983  36.143   6.450
 8437POPC   D2A52036  33.051  36.089   6.750
 8437POPC   C3A52037  33.004  36.120   7.050
 8437POPC   C4A52038  33.071  36.089   7.350
 8437POPC   C1B52039  32.755  36.117   6.450
 8437POPC   C2B52040  32.746  36.200   6.750
 8437POPC   C3B52041  32.821  36.169   7.050
 8437POPC   C4B52042  32.736  36.193   7.350
 8438POPC   NC352043  32.245   7.459   5.550
 8438POPC   PO452044  32.286   7.466   5.850
 8438POPC   GL152045  32.243   7.438   6.150
 8438POPC   GL252046  32.083   7.364   6.150
 8438POPC   C1A52047  32.289   7.452   6.450
 8438POPC   D2A52048  32.290   7.430   6.750
 8438POPC   C3A52049  32.275   7.428   7.050
 8438POPC   C4A52050  32.276   7.465   7.350
 8438POPC   C1B52051  32.034   7.386   6.450
 8438POPC   C2B52052  31.981   7.391   6.750
 8438POPC   C3B52053  32.026   7.422   7.050
 8438POPC   C4B52054  32.045   7.375   7.350
 8439POPC   NC352055  35.328   1.242   5.550
 8439POPC   PO452056  35.323   1.241   5.850
 8439POPC   GL152057  35.346   1.261   6.150
 8439POPC   GL252058  35.256   1.147   6.150
 8439POPC   C1A52059  35.337   1.173   6.450
 8439POPC   D2A52060  35.363   1.213   6.750
 8439POPC   C3A52061  35.305   1.188   7.050
 8439POPC   C4A52062  35.313   1.242   7.350
 8439POPC   C1B52063  35.160   1.056   6.450
 8439POPC   C2B52064  35.245   0.972   6.750
 8439POPC   C3B52065  35.169   0.972   7.050
 8439POPC   C4B52066  35.162   1.029   7.350
 8440POPC   NC352067  16.705  26.817   5.550
 8440POPC   PO452068  16.736  26.796   5.850
 8440POPC   GL152069  16.736  26.803   6.150
 8440POPC   GL252070  16.810  26.814   6.150
 8440POPC   C1A52071  16.759  26.798   6.450
 8440POPC   D2A52072  16.732  26.845   6.750
 8440POPC   C3A52073  16.716  26.779   7.050
 8440POPC   C4A52074  16.743  26.799   7.350
 8440POPC   C1B52075  16.980  26.808   6.450
 8440POPC   C2B52076  17.015  26.792   6.750
 8440POPC   C3B52077  17.020  26.741   7.050
 8440POPC   C4B52078  16.993  26.799   7.350
 8441POPC   NC352079   1.235  43.868   5.550
 8441POPC   PO452080   1.228  43.856   5.850
 8441POPC   GL152081   1.196  43.876   6.150
 8441POPC   GL252082   1.115  43.928   6.150
 8441POPC   C1A52083   1.198  43.904   6.450
 8441POPC   D2A52084   1.256  43.916   6.750
 8441POPC   C3A52085   1.251  43.920   7.050
 8441POPC   C4A52086   1.232  43.930   7.350
 8441POPC   C1B52087   1.029  43.998   6.450
 8441POPC   C2B52088   0.990  43.957   6.750
 8441POPC   C3B52089   0.967  43.942   7.050
 8441POPC   C4B52090   1.001  43.997   7.350
 8442POPC   NC352091  24.469  27.551   5.550
 8442POPC   PO452092  24.441  27.609   5.850
 8442POPC   GL152093  24.443  27.594   6.150
 8442POPC   GL252094  24.552  27.533   6.150
 8442POPC   C1A52095  24.459  27.555   6.450
 8442POPC   D2A52096  24.491  27.544   6.750
 8442POPC   C3A52097  24.509  27.621   7.050
 8442POPC   C4A52098  24.469  27.614   7.350
 8442POPC   C1B52099  24.652  27.414   6.450
 8442POPC   C2B52100  24.567  27.337   6.750
 8442POPC   C3B52101  24.599  27.343   7.050
 8442POPC   C4B52102  24.598  27.342   7.350
 8443POPC   NC352103   1.234  42.344   5.550
 8443POPC   PO452104   1.186  42.297   5.850
 8443POPC   GL152105   1.262  42.353   6.150
 8443POPC   GL252106   1.297  42.447   6.150
 8443POPC   C1A52107   1.219  42.319   6.450
 8443POPC   D2A52108   1.217  42.307   6.750
 8443POPC   C3A52109   1.208  42.344   7.050
 8443POPC   C4A52110   1.174  42.380   7.350
 8443POPC   C1B52111   1.374  42.517   6.450
 8443POPC   C2B52112   1.434  42.463   6.750
 8443POPC   C3B52113   1.466  42.478   7.050
 8443POPC   C4B52114   1.444  42.522   7.350
 8444POPC   NC352115  44.619   3.505   5.550
 8444POPC   PO452116  44.629   3.585   5.850
 8444POPC   GL152117  44.613   3.535   6.150
 8444POPC   GL252118  44.580   3.508   6.150
 8444POPC   C1A52119  44.624   3.501   6.450
 8444POPC   D2A52120  44.699   3.558   6.750
 8444POPC   C3A52121  44.666   3.510   7.050
 8444POPC   C4A52122  44.640   3.531   7.350
 8444POPC   C1B52123  44.440   3.430   6.450
 8444POPC   C2B52124  44.413   3.441   6.750
 8444POPC   C3B52125  44.456   3.463   7.050
 8444POPC   C4B52126  44.484   3.401   7.350
 8445POPC   NC352127  30.726  43.853   5.550
 8445POPC   PO452128  30.741  43.844   5.850
 8445POPC   GL152129  30.662  43.872   6.150
 8445POPC   GL252130  30.826  43.942   6.150
 8445POPC   C1A52131  30.705  43.932   6.450
 8445POPC   D2A52132  30.725  43.880   6.750
 8445POPC   C3A52133  30.699  43.889   7.050
 8445POPC   C4A52134  30.727  43.898   7.350
 8445POPC   C1B52135  30.924  43.941   6.450
 8445POPC   C2B52136  30.875  44.027   6.750
 8445POPC   C3B52137  30.923  44.006   7.050
 8445POPC   C4B52138  30.875  43.963   7.350
 8446POPC   NC352139   2.005  19.797   5.550
 8446POPC   PO452140   1.961  19.824   5.850
 8446POPC   GL152141   1.948  19.793   6.150
 8446POPC   GL252142   2.086  19.924   6.150
 8446POPC   C1A52143   1.996  19.806   6.450
 8446POPC   D2A52144   1.992  19.808   6.750
 8446POPC   C3A52145   2.035  19.838   7.050
 8446POPC   C4A52146   2.033  19.834   7.350
 8446POPC   C1B52147   2.101  20.017   6.450
 8446POPC   C2B52148   2.119  19.993   6.750
 8446POPC   C3B52149   2.090  19.999   7.050
 8446POPC   C4B52150   2.102  20.030   7.350
 8447POPC   NC352151   9.015  33.070   5.550
 8447POPC   PO452152   9.005  33.036   5.850
 8447POPC   GL152153   8.991  32.988   6.150
 8447POPC   GL252154   8.929  33.123   6.150
 8447POPC   C1A52155   9.010  33.069   6.450
 8447POPC   D2A52156   8.931  33.071   6.750
 8447POPC   C3A52157   8.961  33.043   7.050
 8447POPC   C4A52158   8.996  33.054   7.350
 8447POPC   C1B52159   8.792  33.189   6.450
 8447POPC   C2B52160   8.820  33.239   6.750
 8447POPC   C3B52161   8.764  33.189   7.050
 8447POPC   C4B52162   8.809  33.163   7.350
 8448POPC   NC352163  31.433  15.218   5.550
 8448POPC   PO452164  31.455  15.137   5.850
 8448POPC   GL152165  31.494  15.219   6.150
 8448POPC   GL252166  31.542  15.087   6.150
 8448POPC   C1A52167  31.486  15.218   6.450
 8448POPC   D2A52168  31.441  15.208   6.750
 8448POPC   C3A52169  31.510  15.208   7.050
 8448POPC   C4A52170  31.428  15.150   7.350
 8448POPC   C1B52171  31.724  15.054   6.450
 8448POPC   C2B52172  31.720  15.088   6.750
 8448POPC   C3B52173  31.733  15.089   7.050
 8448POPC   C4B52174  31.653  15.095   7.350
 8449POPC   NC352175  26.012  36.921   5.550
 8449POPC   PO452176  26.036  36.940   5.850
 8449POPC   GL152177  26.036  36.935   6.150
 8449POPC   GL252178  25.871  36.880   6.150
 8449POPC   C1A52179  26.019  36.868   6.450
 8449POPC   D2A52180  26.082  36.857   6.750
 8449POPC   C3A52181  26.064  36.871   7.050
 8449POPC   C4A52182  26.048  36.889   7.350
 8449POPC   C1B52183  25.796  36.934   6.450
 8449POPC   C2B52184  25.791  36.900   6.750
 8449POPC   C3B52185  25.826  36.931   7.050
 8449POPC   C4B52186  25.774  36.881   7.350
 8450POPC   NC352187  11.282  25.244   5.550
 8450POPC   PO452188  11.263  25.222   5.850
 8450POPC   GL152189  11.264  25.311   6.150
 8450POPC   GL252190  11.293  25.359   6.150
 8450POPC   C1A52191  11.306  25.314   6.450
 8450POPC   D2A52192  11.340  25.299   6.750
 8450POPC   C3A52193  11.327  25.254   7.050
 8450POPC   C4A52194  11.331  25.248   7.350
 8450POPC   C1B52195  11.297  25.468   6.450
 8450POPC   C2B52196  11.318  25.526   6.750
 8450POPC   C3B52197  11.294  25.562   7.050
 8450POPC   C4B52198  11.288  25.482   7.350
 8451POPC   NC352199  12.875  12.806   5.550
 8451POPC   PO452200  12.880  12.884   5.850
 8451POPC   GL152201  12.848  12.889   6.150
 8451POPC   GL252202  12.970  12.850   6.150
 8451POPC   C1A52203  12.818  12.864   6.450
 8451POPC   D2A52204  12.845  12.864   6.750
 8451POPC   C3A52205  12.847  12.861   7.050
 8451POPC   C4A52206  12.838  12.868   7.350
 8451POPC   C1B52207  13.114  12.858   6.450
 8451POPC   C2B52208  13.095  12.798   6.750
 8451POPC   C3B52209  13.077  12.835   7.050
 8451POPC   C4B52210  13.053  12.800   7.350
 8452POPC   NC352211  12.894  22.192   5.550
 8452POPC   PO452212  12.874  22.173   5.850
 8452POPC   GL152213  12.827  22.209   6.150
 8452POPC   GL252214  12.990  22.106   6.150
 8452POPC   C1A52215  12.890  22.165   6.450
 8452POPC   D2A52216  12.874  22.145   6.750
 8452POPC   C3A52217  12.874  22.132   7.050
 8452POPC   C4A52218  12.831  22.194   7.350
 8452POPC   C1B52219  12.998  21.998   6.450
 8452POPC   C2B52220  13.003  21.960   6.750
 8452POPC   C3B52221  13.034  22.038   7.050
 8452POPC   C4B52222  13.004  22.039   7.350
 8453POPC   NC352223   3.555  15.924   5.550
 8453POPC   PO452224   3.584  15.957   5.850
 8453POPC   GL152225   3.540  15.960   6.150
 8453POPC   GL252226   3.648  16.071   6.150
 8453POPC   C1A52227   3.572  15.978   6.450
 8453POPC   D2A52228   3.497  15.969   6.750
 8453POPC   C3A52229   3.577  15.935   7.050
 8453POPC   C4A52230   3.555  15.950   7.350
 8453POPC   C1B52231   3.717  16.135   6.450
 8453POPC   C2B52232   3.715  16.081   6.750
 8453POPC   C3B52233   3.738  16.128   7.050
 8453POPC   C4B52234   3.752  16.107   7.350
 8454POPC   NC352235  13.602  36.948   5.550
 8454POPC   PO452236  13.638  36.891   5.850
 8454POPC   GL152237  13.641  36.880   6.150
 8454POPC   GL252238  13.471  36.960   6.150
 8454POPC   C1A52239  13.672  36.952   6.450
 8454POPC   D2A52240  13.660  36.876   6.750
 8454POPC   C3A52241  13.609  36.884   7.050
 8454POPC   C4A52242  13.670  36.949   7.350
 8454POPC   C1B52243  13.355  37.015   6.450
 8454POPC   C2B52244  13.374  36.957   6.750
 8454POPC   C3B52245  13.390  37.045   7.050
 8454POPC   C4B52246  13.361  37.009   7.350
 8455POPC   NC352247  23.748  14.362   5.550
 8455POPC   PO452248  23.671  14.400   5.850
 8455POPC   GL152249  23.740  14.440   6.150
 8455POPC   GL252250  23.785  14.402   6.150
 8455POPC   C1A52251  23.751  14.401   6.450
 8455POPC   D2A52252  23.722  14.358   6.750
 8455POPC   C3A52253  23.752  14.419   7.050
 8455POPC   C4A52254  23.673  14.385   7.350
 8455POPC   C1B52255  23.992  14.429   6.450
 8455POPC   C2B52256  23.928  14.436   6.750
 8455POPC   C3B52257  23.995  14.484   7.050
 8455POPC   C4B52258  23.920  14.471   7.350
 8456POPC   NC352259  31.486  36.112   5.550
 8456POPC   PO452260  31.510  36.102   5.850
 8456POPC   GL152261  31.432  36.162   6.150
 8456POPC   GL252262  31.633  36.120   6.150
 8456POPC   C1A52263  31.464  36.136   6.450
 8456POPC   D2A52264  31.506  36.081   6.750
 8456POPC   C3A52265  31.438  36.120   7.050
 8456POPC   C4A52266  31.471  36.170   7.350
 8456POPC   C1B52267  31.691  36.077   6.450
 8456POPC   C2B52268  31.748  36.041   6.750
 8456POPC   C3B52269  31.702  36.066   7.050
 8456POPC   C4B52270  31.718  36.054   7.350
 8457POPC   NC352271  26.073   6.687   5.550
 8457POPC   PO452272  26.059   6.661   5.850
 8457POPC   GL152273  26.055   6.612   6.150
 8457POPC   GL252274  26.081   6.798   6.150
 8457POPC   C1A52275  26.060   6.679   6.450
 8457POPC   D2A52276  26.074   6.601   6.750
 8457POPC   C3A52277  26.029   6.679   7.050
 8457POPC   C4A52278  25.993   6.663   7.350
 8457POPC   C1B52279  26.080   6.932   6.450
 8457POPC   C2B52280  26.127   6.898   6.750
 8457POPC   C3B52281  26.078   6.941   7.050
 8457POPC   C4B52282  26.051   6.852   7.350
 8458POPC   NC352283  14.432  19.793   5.550
 8458POPC   PO452284  14.367  19.855   5.850
 8458POPC   GL152285  14.363  19.831   6.150
 8458POPC   GL252286  14.342  19.757   6.150
 8458POPC   C1A52287  14.446  19.848   6.450
 8458POPC   D2A52288  14.439  19.788   6.750
 8458POPC   C3A52289  14.367  19.823   7.050
 8458POPC   C4A52290  14.369  19.808   7.350
 8458POPC   C1B52291  14.175  19.744   6.450
 8458POPC   C2B52292  14.171  19.707   6.750
 8458POPC   C3B52293  14.178  19.756   7.050
 8458POPC   C4B52294  14.232  19.696   7.350
 8459POPC   NC352295   9.717  41.509   5.550
 8459POPC   PO452296   9.712  41.549   5.850
 8459POPC   GL152297   9.743  41.523   6.150
 8459POPC   GL252298   9.881  41.538   6.150
 8459POPC   C1A52299   9.796  41.586   6.450
 8459POPC   D2A52300   9.775  41.598   6.750
 8459POPC   C3A52301   9.759  41.601   7.050
 8459POPC   C4A52302   9.713  41.576   7.350
 8459POPC   C1B52303  10.036  41.493   6.450
 8459POPC   C2B52304   9.943  41.477   6.750
 8459POPC   C3B52305   9.963  41.463   7.050
 8459POPC   C4B52306  10.017  41.532   7.350
 8460POPC   NC352307  43.850  25.250   5.550
 8460POPC   PO452308  43.886  25.231   5.850
 8460POPC   GL152309  43.858  25.231   6.150
 8460POPC   GL252310  43.929  25.373   6.150
 8460POPC   C1A52311  43.906  25.242   6.450
 8460POPC   D2A52312  43.933  25.290   6.750
 8460POPC   C3A52313  43.898  25.287   7.050
 8460POPC   C4A52314  43.843  25.264   7.350
 8460POPC   C1B52315  44.077  25.442   6.450
 8460POPC   C2B52316  44.020  25.424   6.750
 8460POPC   C3B52317  44.069  25.444   7.050
 8460POPC   C4B52318  44.011  25.419   7.350
 8461POPC   NC352319  22.192   7.392   5.550
 8461POPC   PO452320  22.160   7.412   5.850
 8461POPC   GL152321  22.117   7.376   6.150
 8461POPC   GL252322  22.275   7.507   6.150
 8461POPC   C1A52323  22.145   7.409   6.450
 8461POPC   D2A52324  22.187   7.379   6.750
 8461POPC   C3A52325  22.169   7.413   7.050
 8461POPC   C4A52326  22.122   7.458   7.350
 8461POPC   C1B52327  22.321   7.615   6.450
 8461POPC   C2B52328  22.335   7.627   6.750
 8461POPC   C3B52329  22.349   7.594   7.050
 8461POPC   C4B52330  22.375   7.638   7.350
 8462POPC   NC352331   7.425  35.355   5.550
 8462POPC   PO452332   7.438  35.335   5.850
 8462POPC   GL152333   7.425  35.391   6.150
 8462POPC   GL252334   7.407  35.459   6.150
 8462POPC   C1A52335   7.371  35.340   6.450
 8462POPC   D2A52336   7.442  35.347   6.750
 8462POPC   C3A52337   7.392  35.399   7.050
 8462POPC   C4A52338   7.436  35.396   7.350
 8462POPC   C1B52339   7.451  35.602   6.450
 8462POPC   C2B52340   7.438  35.612   6.750
 8462POPC   C3B52341   7.453  35.638   7.050
 8462POPC   C4B52342   7.376  35.600   7.350
 8463POPC   NC352343  20.593  35.377   5.550
 8463POPC   PO452344  20.569  35.324   5.850
 8463POPC   GL152345  20.576  35.303   6.150
 8463POPC   GL252346  20.723  35.242   6.150
 8463POPC   C1A52347  20.622  35.364   6.450
 8463POPC   D2A52348  20.659  35.396   6.750
 8463POPC   C3A52349  20.647  35.303   7.050
 8463POPC   C4A52350  20.571  35.329   7.350
 8463POPC   C1B52351  20.740  35.172   6.450
 8463POPC   C2B52352  20.797  35.218   6.750
 8463POPC   C3B52353  20.741  35.156   7.050
 8463POPC   C4B52354  20.764  35.192   7.350
 8464POPC   NC352355   2.776  27.589   5.550
 8464POPC   PO452356   2.768  27.637   5.850
 8464POPC   GL152357   2.811  27.630   6.150
 8464POPC   GL252358   2.876  27.619   6.150
 8464POPC   C1A52359   2.771  27.626   6.450
 8464POPC   D2A52360   2.809  27.556   6.750
 8464POPC   C3A52361   2.797  27.580   7.050
 8464POPC   C4A52362   2.760  27.606   7.350
 8464POPC   C1B52363   3.026  27.614   6.450
 8464POPC   C2B52364   2.966  27.622   6.750
 8464POPC   C3B52365   3.013  27.629   7.050
 8464POPC   C4B52366   2.970  27.609   7.350
 8465POPC   NC352367  36.104  34.533   5.550
 8465POPC   PO452368  36.109  34.591   5.850
 8465POPC   GL152369  36.091  34.531   6.150
 8465POPC   GL252370  35.973  34.632   6.150
 8465POPC   C1A52371  36.089  34.540   6.450
 8465POPC   D2A52372  36.146  34.547   6.750
 8465POPC   C3A52373  36.137  34.624   7.050
 8465POPC   C4A52374  36.090  34.604   7.350
 8465POPC   C1B52375  35.903  34.686   6.450
 8465POPC   C2B52376  35.851  34.666   6.750
 8465POPC   C3B52377  35.900  34.657   7.050
 8465POPC   C4B52378  35.909  34.648   7.350
 8466POPC   NC352379  23.751  23.710   5.550
 8466POPC   PO452380  23.732  23.686   5.850
 8466POPC   GL152381  23.711  23.701   6.150
 8466POPC   GL252382  23.819  23.715   6.150
 8466POPC   C1A52383  23.695  23.679   6.450
 8466POPC   D2A52384  23.677  23.757   6.750
 8466POPC   C3A52385  23.702  23.691   7.050
 8466POPC   C4A52386  23.717  23.673   7.350
 8466POPC   C1B52387  23.917  23.681   6.450
 8466POPC   C2B52388  23.945  23.679   6.750
 8466POPC   C3B52389  23.935  23.731   7.050
 8466POPC   C4B52390  23.962  23.659   7.350
 8467POPC   NC352391  22.937  25.261   5.550
 8467POPC   PO452392  22.969  25.233   5.850
 8467POPC   GL152393  22.934  25.259   6.150
 8467POPC   GL252394  23.094  25.303   6.150
 8467POPC   C1A52395  22.913  25.275   6.450
 8467POPC   D2A52396  22.900  25.292   6.750
 8467POPC   C3A52397  22.976  25.221   7.050
 8467POPC   C4A52398  22.894  25.308   7.350
 8467POPC   C1B52399  23.144  25.237   6.450
 8467POPC   C2B52400  23.198  25.210   6.750
 8467POPC   C3B52401  23.189  25.285   7.050
 8467POPC   C4B52402  23.226  25.224   7.350
 8468POPC   NC352403  13.618  44.711   5.550
 8468POPC   PO452404  13.616  44.637   5.850
 8468POPC   GL152405  13.605  44.650   6.150
 8468POPC   GL252406  13.582  44.820   6.150
 8468POPC   C1A52407  13.599  44.657   6.450
 8468POPC   D2A52408  13.646  44.695   6.750
 8468POPC   C3A52409  13.634  44.690   7.050
 8468POPC   C4A52410  13.619  44.637   7.350
 8468POPC   C1B52411  13.491  44.868   6.450
 8468POPC   C2B52412  13.562  44.899   6.750
 8468POPC   C3B52413  13.509  44.855   7.050
 8468POPC   C4B52414  13.547  44.886   7.350
 8469POPC   NC352415  34.553  16.715   5.550
 8469POPC   PO452416  34.576  16.765   5.850
 8469POPC   GL152417  34.558  16.765   6.150
 8469POPC   GL252418  34.464  16.702   6.150
 8469POPC   C1A52419  34.549  16.705   6.450
 8469POPC   D2A52420  34.625  16.702   6.750
 8469POPC   C3A52421  34.545  16.689   7.050
 8469POPC   C4A52422  34.618  16.713   7.350
 8469POPC   C1B52423  34.388  16.622   6.450
 8469POPC   C2B52424  34.374  16.598   6.750
 8469POPC   C3B52425  34.322  16.608   7.050
 8469POPC   C4B52426  34.319  16.607   7.350
 8470POPC   NC352427  39.993  12.052   5.550
 8470POPC   PO452428  39.989  12.110   5.850
 8470POPC   GL152429  39.998  12.069   6.150
 8470POPC   GL252430  40.006  12.225   6.150
 8470POPC   C1A52431  39.999  12.065   6.450
 8470POPC   D2A52432  39.999  12.109   6.750
 8470POPC   C3A52433  40.048  12.117   7.050
 8470POPC   C4A52434  39.975  12.117   7.350
 8470POPC   C1B52435  40.089  12.278   6.450
 8470POPC   C2B52436  40.141  12.264   6.750
 8470POPC   C3B52437  40.130  12.334   7.050
 8470POPC   C4B52438  40.149  12.290   7.350
 8471POPC   NC352439  29.884   3.497   5.550
 8471POPC   PO452440  29.897   3.554   5.850
 8471POPC   GL152441  29.888   3.564   6.150
 8471POPC   GL252442  29.813   3.590   6.150
 8471POPC   C1A52443  29.910   3.498   6.450
 8471POPC   D2A52444  29.904   3.521   6.750
 8471POPC   C3A52445  29.960   3.578   7.050
 8471POPC   C4A52446  29.882   3.572   7.350
 8471POPC   C1B52447  29.690   3.715   6.450
 8471POPC   C2B52448  29.706   3.746   6.750
 8471POPC   C3B52449  29.741   3.668   7.050
 8471POPC   C4B52450  29.732   3.691   7.350
 8472POPC   NC352451  22.948  36.165   5.550
 8472POPC   PO452452  22.963  36.078   5.850
 8472POPC   GL152453  22.944  36.142   6.150
 8472POPC   GL252454  22.851  36.175   6.150
 8472POPC   C1A52455  22.987  36.171   6.450
 8472POPC   D2A52456  22.905  36.172   6.750
 8472POPC   C3A52457  22.901  36.106   7.050
 8472POPC   C4A52458  22.889  36.141   7.350
 8472POPC   C1B52459  22.714  36.311   6.450
 8472POPC   C2B52460  22.789  36.284   6.750
 8472POPC   C3B52461  22.772  36.345   7.050
 8472POPC   C4B52462  22.728  36.344   7.350
 8473POPC   NC352463  13.676  22.896   5.550
 8473POPC   PO452464  13.674  22.944   5.850
 8473POPC   GL152465  13.584  22.981   6.150
 8473POPC   GL252466  13.524  22.959   6.150
 8473POPC   C1A52467  13.637  22.973   6.450
 8473POPC   D2A52468  13.675  22.932   6.750
 8473POPC   C3A52469  13.616  22.968   7.050
 8473POPC   C4A52470  13.642  22.899   7.350
 8473POPC   C1B52471  13.374  23.014   6.450
 8473POPC   C2B52472  13.385  22.994   6.750
 8473POPC   C3B52473  13.338  23.028   7.050
 8473POPC   C4B52474  13.348  23.045   7.350
 8474POPC   NC352475  33.065   2.774   5.550
 8474POPC   PO452476  33.042   2.801   5.850
 8474POPC   GL152477  33.026   2.753   6.150
 8474POPC   GL252478  33.002   2.639   6.150
 8474POPC   C1A52479  33.002   2.784   6.450
 8474POPC   D2A52480  33.062   2.791   6.750
 8474POPC   C3A52481  32.989   2.754   7.050
 8474POPC   C4A52482  33.027   2.814   7.350
 8474POPC   C1B52483  32.971   2.545   6.450
 8474POPC   C2B52484  33.002   2.518   6.750
 8474POPC   C3B52485  32.979   2.485   7.050
 8474POPC   C4B52486  32.986   2.467   7.350
 8475POPC   NC352487  25.310   1.235   5.550
 8475POPC   PO452488  25.264   1.182   5.850
 8475POPC   GL152489  25.264   1.253   6.150
 8475POPC   GL252490  25.269   1.287   6.150
 8475POPC   C1A52491  25.275   1.235   6.450
 8475POPC   D2A52492  25.262   1.252   6.750
 8475POPC   C3A52493  25.294   1.172   7.050
 8475POPC   C4A52494  25.277   1.215   7.350
 8475POPC   C1B52495  25.334   1.483   6.450
 8475POPC   C2B52496  25.367   1.458   6.750
 8475POPC   C3B52497  25.388   1.417   7.050
 8475POPC   C4B52498  25.294   1.488   7.350
 8476POPC   NC352499  15.161  29.874   5.550
 8476POPC   PO452500  15.223  29.873   5.850
 8476POPC   GL152501  15.170  29.884   6.150
 8476POPC   GL252502  15.202  29.825   6.150
 8476POPC   C1A52503  15.165  29.968   6.450
 8476POPC   D2A52504  15.161  29.908   6.750
 8476POPC   C3A52505  15.146  29.921   7.050
 8476POPC   C4A52506  15.178  29.906   7.350
 8476POPC   C1B52507  15.320  29.667   6.450
 8476POPC   C2B52508  15.325  29.656   6.750
 8476POPC   C3B52509  15.286  29.655   7.050
 8476POPC   C4B52510  15.343  29.672   7.350
 8477POPC   NC352511  20.618  44.664   5.550
 8477POPC   PO452512  20.616  44.699   5.850
 8477POPC   GL152513  20.621  44.681   6.150
 8477POPC   GL252514  20.605  44.833   6.150
 8477POPC   C1A52515  20.569  44.644   6.450
 8477POPC   D2A52516  20.620  44.613   6.750
 8477POPC   C3A52517  20.630  44.639   7.050
 8477POPC   C4A52518  20.596  44.655   7.350
 8477POPC   C1B52519  20.603  44.926   6.450
 8477POPC   C2B52520  20.541  44.869   6.750
 8477POPC   C3B52521  20.614  44.901   7.050
 8477POPC   C4B52522  20.549  44.957   7.350
 8478POPC   NC352523  17.493   1.962   5.550
 8478POPC   PO452524  17.531   2.005   5.850
 8478POPC   GL152525  17.514   1.976   6.150
 8478POPC   GL252526  17.340   2.019   6.150
 8478POPC   C1A52527  17.510   2.017   6.450
 8478POPC   D2A52528  17.519   1.974   6.750
 8478POPC   C3A52529  17.494   2.004   7.050
 8478POPC   C4A52530  17.548   2.015   7.350
 8478POPC   C1B52531  17.316   2.058   6.450
 8478POPC   C2B52532  17.293   2.066   6.750
 8478POPC   C3B52533  17.238   2.045   7.050
 8478POPC   C4B52534  17.273   2.074   7.350
 8479POPC   NC352535   9.773  35.388   5.550
 8479POPC   PO452536   9.793  35.313   5.850
 8479POPC   GL152537   9.764  35.351   6.150
 8479POPC   GL252538   9.797  35.235   6.150
 8479POPC   C1A52539   9.698  35.305   6.450
 8479POPC   D2A52540   9.717  35.357   6.750
 8479POPC   C3A52541   9.706  35.366   7.050
 8479POPC   C4A52542   9.781  35.322   7.350
 8479POPC   C1B52543   9.905  35.195   6.450
 8479POPC   C2B52544   9.917  35.206   6.750
 8479POPC   C3B52545   9.932  35.204   7.050
 8479POPC   C4B52546   9.957  35.197   7.350
 8480POPC   NC352547  16.738   2.772   5.550
 8480POPC   PO452548  16.707   2.746   5.850
 8480POPC   GL152549  16.739   2.762   6.150
 8480POPC   GL252550  16.633   2.630   6.150
 8480POPC   C1A52551  16.747   2.778   6.450
 8480POPC   D2A52552  16.775   2.779   6.750
 8480POPC   C3A52553  16.722   2.799   7.050
 8480POPC   C4A52554  16.717   2.734   7.350
 8480POPC   C1B52555  16.556   2.605   6.450
 8480POPC   C2B52556  16.557   2.613   6.750
 8480POPC   C3B52557  16.613   2.590   7.050
 8480POPC   C4B52558  16.616   2.584   7.350
 8481POPC   NC352559  41.576   0.440   5.550
 8481POPC   PO452560  41.572   0.410   5.850
 8481POPC   GL152561  41.601   0.403   6.150
 8481POPC   GL252562  41.452   0.332   6.150
 8481POPC   C1A52563  41.554   0.486   6.450
 8481POPC   D2A52564  41.564   0.464   6.750
 8481POPC   C3A52565  41.578   0.451   7.050
 8481POPC   C4A52566  41.570   0.440   7.350
 8481POPC   C1B52567  41.428   0.269   6.450
 8481POPC   C2B52568  41.438   0.197   6.750
 8481POPC   C3B52569  41.372   0.235   7.050
 8481POPC   C4B52570  41.376   0.199   7.350
 8482POPC   NC352571  40.796  36.890   5.550
 8482POPC   PO452572  40.795  36.874   5.850
 8482POPC   GL152573  40.778  36.922   6.150
 8482POPC   GL252574  40.724  37.025   6.150
 8482POPC   C1A52575  40.807  36.906   6.450
 8482POPC   D2A52576  40.794  36.953   6.750
 8482POPC   C3A52577  40.772  36.938   7.050
 8482POPC   C4A52578  40.756  36.925   7.350
 8482POPC   C1B52579  40.627  37.057   6.450
 8482POPC   C2B52580  40.675  37.135   6.750
 8482POPC   C3B52581  40.634  37.072   7.050
 8482POPC   C4B52582  40.588  37.129   7.350
 8483POPC   NC352583  16.777  14.451   5.550
 8483POPC   PO452584  16.753  14.385   5.850
 8483POPC   GL152585  16.708  14.445   6.150
 8483POPC   GL252586  16.645  14.313   6.150
 8483POPC   C1A52587  16.744  14.432   6.450
 8483POPC   D2A52588  16.743  14.406   6.750
 8483POPC   C3A52589  16.765  14.450   7.050
 8483POPC   C4A52590  16.759  14.414   7.350
 8483POPC   C1B52591  16.576  14.193   6.450
 8483POPC   C2B52592  16.581  14.271   6.750
 8483POPC   C3B52593  16.593  14.231   7.050
 8483POPC   C4B52594  16.509  14.287   7.350
 8484POPC   NC352595   3.579  16.762   5.550
 8484POPC   PO452596   3.530  16.682   5.850
 8484POPC   GL152597   3.575  16.694   6.150
 8484POPC   GL252598   3.698  16.765   6.150
 8484POPC   C1A52599   3.515  16.739   6.450
 8484POPC   D2A52600   3.577  16.732   6.750
 8484POPC   C3A52601   3.590  16.754   7.050
 8484POPC   C4A52602   3.530  16.778   7.350
 8484POPC   C1B52603   3.764  16.693   6.450
 8484POPC   C2B52604   3.804  16.711   6.750
 8484POPC   C3B52605   3.797  16.698   7.050
 8484POPC   C4B52606   3.839  16.704   7.350
 8485POPC   NC352607  34.557  27.581   5.550
 8485POPC   PO452608  34.539  27.602   5.850
 8485POPC   GL152609  34.597  27.613   6.150
 8485POPC   GL252610  34.707  27.583   6.150
 8485POPC   C1A52611  34.547  27.547   6.450
 8485POPC   D2A52612  34.551  27.614   6.750
 8485POPC   C3A52613  34.599  27.587   7.050
 8485POPC   C4A52614  34.624  27.600   7.350
 8485POPC   C1B52615  34.802  27.651   6.450
 8485POPC   C2B52616  34.848  27.591   6.750
 8485POPC   C3B52617  34.851  27.580   7.050
 8485POPC   C4B52618  34.849  27.574   7.350
 8486POPC   NC352619  13.638  42.310   5.550
 8486POPC   PO452620  13.650  42.348   5.850
 8486POPC   GL152621  13.601  42.360   6.150
 8486POPC   GL252622  13.588  42.508   6.150
 8486POPC   C1A52623  13.607  42.351   6.450
 8486POPC   D2A52624  13.610  42.348   6.750
 8486POPC   C3A52625  13.616  42.326   7.050
 8486POPC   C4A52626  13.619  42.380   7.350
 8486POPC   C1B52627  13.620  42.607   6.450
 8486POPC   C2B52628  13.612  42.598   6.750
 8486POPC   C3B52629  13.592  42.610   7.050
 8486POPC   C4B52630  13.644  42.607   7.350
 8487POPC   NC352631   6.619  40.809   5.550
 8487POPC   PO452632   6.641  40.787   5.850
 8487POPC   GL152633   6.693  40.822   6.150
 8487POPC   GL252634   6.522  40.722   6.150
 8487POPC   C1A52635   6.598  40.802   6.450
 8487POPC   D2A52636   6.611  40.797   6.750
 8487POPC   C3A52637   6.621  40.822   7.050
 8487POPC   C4A52638   6.659  40.789   7.350
 8487POPC   C1B52639   6.457  40.687   6.450
 8487POPC   C2B52640   6.443  40.646   6.750
 8487POPC   C3B52641   6.459  40.662   7.050
 8487POPC   C4B52642   6.472  40.683   7.350
 8488POPC   NC352643  22.167  25.223   5.550
 8488POPC   PO452644  22.189  25.261   5.850
 8488POPC   GL152645  22.197  25.308   6.150
 8488POPC   GL252646  22.031  25.292   6.150
 8488POPC   C1A52647  22.196  25.224   6.450
 8488POPC   D2A52648  22.146  25.276   6.750
 8488POPC   C3A52649  22.204  25.280   7.050
 8488POPC   C4A52650  22.179  25.230   7.350
 8488POPC   C1B52651  21.876  25.216   6.450
 8488POPC   C2B52652  21.932  25.195   6.750
 8488POPC   C3B52653  21.959  25.282   7.050
 8488POPC   C4B52654  21.911  25.277   7.350
 8489POPC   NC352655   9.713  20.639   5.550
 8489POPC   PO452656   9.728  20.571   5.850
 8489POPC   GL152657   9.772  20.581   6.150
 8489POPC   GL252658   9.634  20.554   6.150
 8489POPC   C1A52659   9.754  20.579   6.450
 8489POPC   D2A52660   9.777  20.616   6.750
 8489POPC   C3A52661   9.753  20.599   7.050
 8489POPC   C4A52662   9.729  20.605   7.350
 8489POPC   C1B52663   9.613  20.448   6.450
 8489POPC   C2B52664   9.575  20.405   6.750
 8489POPC   C3B52665   9.564  20.466   7.050
 8489POPC   C4B52666   9.606  20.443   7.350
 8490POPC   NC352667   0.436  34.618   5.550
 8490POPC   PO452668   0.433  34.555   5.850
 8490POPC   GL152669   0.443  34.603   6.150
 8490POPC   GL252670   0.481  34.676   6.150
 8490POPC   C1A52671   0.457  34.608   6.450
 8490POPC   D2A52672   0.436  34.546   6.750
 8490POPC   C3A52673   0.473  34.588   7.050
 8490POPC   C4A52674   0.416  34.528   7.350
 8490POPC   C1B52675   0.472  34.807   6.450
 8490POPC   C2B52676   0.537  34.826   6.750
 8490POPC   C3B52677   0.475  34.842   7.050
 8490POPC   C4B52678   0.549  34.846   7.350
 8491POPC   NC352679  36.870  12.853   5.550
 8491POPC   PO452680  36.868  12.889   5.850
 8491POPC   GL152681  36.869  12.896   6.150
 8491POPC   GL252682  37.058  12.797   6.150
 8491POPC   C1A52683  36.917  12.900   6.450
 8491POPC   D2A52684  36.908  12.825   6.750
 8491POPC   C3A52685  36.889  12.856   7.050
 8491POPC   C4A52686  36.857  12.866   7.350
 8491POPC   C1B52687  37.158  12.769   6.450
 8491POPC   C2B52688  37.150  12.839   6.750
 8491POPC   C3B52689  37.185  12.788   7.050
 8491POPC   C4B52690  37.119  12.842   7.350
 8492POPC   NC352691  38.496  30.700   5.550
 8492POPC   PO452692  38.445  30.690   5.850
 8492POPC   GL152693  38.485  30.694   6.150
 8492POPC   GL252694  38.379  30.822   6.150
 8492POPC   C1A52695  38.422  30.669   6.450
 8492POPC   D2A52696  38.496  30.725   6.750
 8492POPC   C3A52697  38.468  30.732   7.050
 8492POPC   C4A52698  38.462  30.691   7.350
 8492POPC   C1B52699  38.291  30.902   6.450
 8492POPC   C2B52700  38.286  30.853   6.750
 8492POPC   C3B52701  38.242  30.903   7.050
 8492POPC   C4B52702  38.281  30.859   7.350
 8493POPC   NC352703  32.257  12.809   5.550
 8493POPC   PO452704  32.284  12.832   5.850
 8493POPC   GL152705  32.276  12.892   6.150
 8493POPC   GL252706  32.363  12.789   6.150
 8493POPC   C1A52707  32.286  12.825   6.450
 8493POPC   D2A52708  32.202  12.854   6.750
 8493POPC   C3A52709  32.230  12.884   7.050
 8493POPC   C4A52710  32.215  12.888   7.350
 8493POPC   C1B52711  32.410  12.632   6.450
 8493POPC   C2B52712  32.423  12.696   6.750
 8493POPC   C3B52713  32.360  12.613   7.050
 8493POPC   C4B52714  32.432  12.668   7.350
 8494POPC   NC352715  32.253  29.964   5.550
 8494POPC   PO452716  32.267  29.915   5.850
 8494POPC   GL152717  32.268  29.932   6.150
 8494POPC   GL252718  32.351  29.840   6.150
 8494POPC   C1A52719  32.232  29.906   6.450
 8494POPC   D2A52720  32.226  29.876   6.750
 8494POPC   C3A52721  32.249  29.908   7.050
 8494POPC   C4A52722  32.205  29.912   7.350
 8494POPC   C1B52723  32.356  29.709   6.450
 8494POPC   C2B52724  32.345  29.722   6.750
 8494POPC   C3B52725  32.410  29.672   7.050
 8494POPC   C4B52726  32.412  29.743   7.350
 8495POPC   NC352727   5.140  40.038   5.550
 8495POPC   PO452728   5.140  39.987   5.850
 8495POPC   GL152729   5.134  39.999   6.150
 8495POPC   GL252730   5.055  39.879   6.150
 8495POPC   C1A52731   5.117  40.009   6.450
 8495POPC   D2A52732   5.121  40.003   6.750
 8495POPC   C3A52733   5.108  40.044   7.050
 8495POPC   C4A52734   5.125  39.999   7.350
 8495POPC   C1B52735   4.969  39.766   6.450
 8495POPC   C2B52736   4.954  39.823   6.750
 8495POPC   C3B52737   5.026  39.744   7.050
 8495POPC   C4B52738   4.991  39.791   7.350
 8496POPC   NC352739   8.955  38.461   5.550
 8496POPC   PO452740   8.941  38.447   5.850
 8496POPC   GL152741   8.986  38.490   6.150
 8496POPC   GL252742   9.021  38.613   6.150
 8496POPC   C1A52743   9.012  38.425   6.450
 8496POPC   D2A52744   9.013  38.463   6.750
 8496POPC   C3A52745   8.945  38.417   7.050
 8496POPC   C4A52746   9.009  38.452   7.350
 8496POPC   C1B52747   9.042  38.720   6.450
 8496POPC   C2B52748   9.060  38.669   6.750
 8496POPC   C3B52749   9.067  38.693   7.050
 8496POPC   C4B52750   9.097  38.650   7.350
 8497POPC   NC352751  19.801  40.033   5.550
 8497POPC   PO452752  19.820  39.968   5.850
 8497POPC   GL152753  19.829  39.961   6.150
 8497POPC   GL252754  20.003  39.956   6.150
 8497POPC   C1A52755  19.831  39.976   6.450
 8497POPC   D2A52756  19.865  39.999   6.750
 8497POPC   C3A52757  19.786  39.996   7.050
 8497POPC   C4A52758  19.851  40.034   7.350
 8497POPC   C1B52759  20.070  39.964   6.450
 8497POPC   C2B52760  20.057  40.027   6.750
 8497POPC   C3B52761  20.095  39.968   7.050
 8497POPC   C4B52762  20.091  40.008   7.350
 8498POPC   NC352763  10.567  19.829   5.550
 8498POPC   PO452764  10.484  19.816   5.850
 8498POPC   GL152765  10.479  19.860   6.150
 8498POPC   GL252766  10.471  19.907   6.150
 8498POPC   C1A52767  10.539  19.828   6.450
 8498POPC   D2A52768  10.563  19.791   6.750
 8498POPC   C3A52769  10.493  19.845   7.050
 8498POPC   C4A52770  10.545  19.863   7.350
 8498POPC   C1B52771  10.431  20.017   6.450
 8498POPC   C2B52772  10.372  20.010   6.750
 8498POPC   C3B52773  10.351  20.071   7.050
 8498POPC   C4B52774  10.365  20.036   7.350
 8499POPC   NC352775  12.883  29.161   5.550
 8499POPC   PO452776  12.865  29.184   5.850
 8499POPC   GL152777  12.897  29.161   6.150
 8499POPC   GL252778  12.788  29.140   6.150
 8499POPC   C1A52779  12.824  29.182   6.450
 8499POPC   D2A52780  12.874  29.140   6.750
 8499POPC   C3A52781  12.895  29.132   7.050
 8499POPC   C4A52782  12.807  29.160   7.350
 8499POPC   C1B52783  12.664  28.993   6.450
 8499POPC   C2B52784  12.648  29.071   6.750
 8499POPC   C3B52785  12.630  29.019   7.050
 8499POPC   C4B52786  12.627  29.043   7.350
 8500POPC   NC352787  37.679  36.105   5.550
 8500POPC   PO452788  37.686  36.120   5.850
 8500POPC   GL152789  37.638  36.087   6.150
 8500POPC   GL252790  37.802  36.030   6.150
 8500POPC   C1A52791  37.696  36.154   6.450
 8500POPC   D2A52792  37.673  36.138   6.750
 8500POPC   C3A52793  37.715  36.102   7.050
 8500POPC   C4A52794  37.688  36.151   7.350
 8500POPC   C1B52795  37.915  36.028   6.450
 8500POPC   C2B52796  37.899  35.954   6.750
 8500POPC   C3B52797  37.854  36.019   7.050
 8500POPC   C4B52798  37.886  35.964   7.350
 8501POPC   NC352799  10.505   1.180   5.550
 8501POPC   PO452800  10.500   1.213   5.850
 8501POPC   GL152801  10.565   1.182   6.150
 8501POPC   GL252802  10.658   1.267   6.150
 8501POPC   C1A52803  10.568   1.248   6.450
 8501POPC   D2A52804  10.565   1.170   6.750
 8501POPC   C3A52805  10.499   1.216   7.050
 8501POPC   C4A52806  10.543   1.212   7.350
 8501POPC   C1B52807  10.738   1.325   6.450
 8501POPC   C2B52808  10.774   1.281   6.750
 8501POPC   C3B52809  10.782   1.320   7.050
 8501POPC   C4B52810  10.801   1.288   7.350
 8502POPC   NC352811  30.675  12.866   5.550
 8502POPC   PO452812  30.745  12.823   5.850
 8502POPC   GL152813  30.735  12.822   6.150
 8502POPC   GL252814  30.758  12.903   6.150
 8502POPC   C1A52815  30.693  12.832   6.450
 8502POPC   D2A52816  30.702  12.896   6.750
 8502POPC   C3A52817  30.727  12.878   7.050
 8502POPC   C4A52818  30.717  12.898   7.350
 8502POPC   C1B52819  30.884  13.041   6.450
 8502POPC   C2B52820  30.874  13.056   6.750
 8502POPC   C3B52821  30.861  13.082   7.050
 8502POPC   C4B52822  30.815  13.017   7.350
 8503POPC   NC352823  18.238  13.653   5.550
 8503POPC   PO452824  18.293  13.627   5.850
 8503POPC   GL152825  18.315  13.645   6.150
 8503POPC   GL252826  18.202  13.658   6.150
 8503POPC   C1A52827  18.322  13.624   6.450
 8503POPC   D2A52828  18.269  13.615   6.750
 8503POPC   C3A52829  18.286  13.644   7.050
 8503POPC   C4A52830  18.315  13.595   7.350
 8503POPC   C1B52831  18.036  13.633   6.450
 8503POPC   C2B52832  18.042  13.609   6.750
 8503POPC   C3B52833  18.082  13.628   7.050
 8503POPC   C4B52834  18.069  13.619   7.350
 8504POPC   NC352835  14.424  20.619   5.550
 8504POPC   PO452836  14.391  20.561   5.850
 8504POPC   GL152837  14.356  20.623   6.150
 8504POPC   GL252838  14.438  20.501   6.150
 8504POPC   C1A52839  14.444  20.606   6.450
 8504POPC   D2A52840  14.421  20.566   6.750
 8504POPC   C3A52841  14.414  20.571   7.050
 8504POPC   C4A52842  14.374  20.619   7.350
 8504POPC   C1B52843  14.470  20.378   6.450
 8504POPC   C2B52844  14.491  20.325   6.750
 8504POPC   C3B52845  14.448  20.349   7.050
 8504POPC   C4B52846  14.466  20.418   7.350
 8505POPC   NC352847  19.861  37.726   5.550
 8505POPC   PO452848  19.835  37.635   5.850
 8505POPC   GL152849  19.870  37.632   6.150
 8505POPC   GL252850  19.882  37.755   6.150
 8505POPC   C1A52851  19.858  37.653   6.450
 8505POPC   D2A52852  19.884  37.655   6.750
 8505POPC   C3A52853  19.820  37.638   7.050
 8505POPC   C4A52854  19.802  37.685   7.350
 8505POPC   C1B52855  20.030  37.863   6.450
 8505POPC   C2B52856  20.002  37.845   6.750
 8505POPC   C3B52857  20.021  37.830   7.050
 8505POPC   C4B52858  19.973  37.829   7.350
 8506POPC   NC352859   5.820  34.535   5.550
 8506POPC   PO452860   5.822  34.588   5.850
 8506POPC   GL152861   5.891  34.588   6.150
 8506POPC   GL252862   5.947  34.521   6.150
 8506POPC   C1A52863   5.828  34.548   6.450
 8506POPC   D2A52864   5.919  34.545   6.750
 8506POPC   C3A52865   5.837  34.562   7.050
 8506POPC   C4A52866   5.823  34.530   7.350
 8506POPC   C1B52867   6.043  34.392   6.450
 8506POPC   C2B52868   6.066  34.404   6.750
 8506POPC   C3B52869   6.050  34.436   7.050
 8506POPC   C4B52870   6.112  34.426   7.350
 8507POPC   NC352871  18.239  19.011   5.550
 8507POPC   PO452872  18.290  19.021   5.850
 8507POPC   GL152873  18.269  19.080   6.150
 8507POPC   GL252874  18.184  19.130   6.150
 8507POPC   C1A52875  18.266  19.071   6.450
 8507POPC   D2A52876  18.249  19.024   6.750
 8507POPC   C3A52877  18.239  19.024   7.050
 8507POPC   C4A52878  18.241  19.108   7.350
 8507POPC   C1B52879  18.025  19.101   6.450
 8507POPC   C2B52880  18.041  19.110   6.750
 8507POPC   C3B52881  18.080  19.136   7.050
 8507POPC   C4B52882  18.095  19.152   7.350
 8508POPC   NC352883   0.430  26.806   5.550
 8508POPC   PO452884   0.437  26.792   5.850
 8508POPC   GL152885   0.454  26.785   6.150
 8508POPC   GL252886   0.392  26.748   6.150
 8508POPC   C1A52887   0.420  26.790   6.450
 8508POPC   D2A52888   0.468  26.812   6.750
 8508POPC   C3A52889   0.410  26.833   7.050
 8508POPC   C4A52890   0.434  26.783   7.350
 8508POPC   C1B52891   0.382  26.544   6.450
 8508POPC   C2B52892   0.354  26.603   6.750
 8508POPC   C3B52893   0.378  26.580   7.050
 8508POPC   C4B52894   0.346  26.605   7.350
 8509POPC   NC352895  17.498  39.229   5.550
 8509POPC   PO452896  17.491  39.253   5.850
 8509POPC   GL152897  17.542  39.238   6.150
 8509POPC   GL252898  17.573  39.374   6.150
 8509POPC   C1A52899  17.546  39.194   6.450
 8509POPC   D2A52900  17.508  39.222   6.750
 8509POPC   C3A52901  17.496  39.221   7.050
 8509POPC   C4A52902  17.486  39.253   7.350
 8509POPC   C1B52903  17.606  39.401   6.450
 8509POPC   C2B52904  17.587  39.419   6.750
 8509POPC   C3B52905  17.613  39.455   7.050
 8509POPC   C4B52906  17.644  39.427   7.350
 8510POPC   NC352907  12.830  11.274   5.550
 8510POPC   PO452908  12.858  11.269   5.850
 8510POPC   GL152909  12.830  11.347   6.150
 8510POPC   GL252910  12.916  11.197   6.150
 8510POPC   C1A52911  12.889  11.345   6.450
 8510POPC   D2A52912  12.805  11.335   6.750
 8510POPC   C3A52913  12.846  11.321   7.050
 8510POPC   C4A52914  12.834  11.330   7.350
 8510POPC   C1B52915  13.004  11.149   6.450
 8510POPC   C2B52916  12.989  11.137   6.750
 8510POPC   C3B52917  13.068  11.118   7.050
 8510POPC   C4B52918  13.055  11.127   7.350
 8511POPC   NC352919  26.089   3.567   5.550
 8511POPC   PO452920  26.071   3.589   5.850
 8511POPC   GL152921  26.084   3.561   6.150
 8511POPC   GL252922  26.086   3.683   6.150
 8511POPC   C1A52923  26.083   3.528   6.450
 8511POPC   D2A52924  26.048   3.498   6.750
 8511POPC   C3A52925  26.035   3.545   7.050
 8511POPC   C4A52926  26.046   3.570   7.350
 8511POPC   C1B52927  26.213   3.733   6.450
 8511POPC   C2B52928  26.165   3.728   6.750
 8511POPC   C3B52929  26.166   3.752   7.050
 8511POPC   C4B52930  26.151   3.747   7.350
 8512POPC   NC352931  33.819  43.067   5.550
 8512POPC   PO452932  33.792  43.115   5.850
 8512POPC   GL152933  33.800  43.120   6.150
 8512POPC   GL252934  33.688  43.023   6.150
 8512POPC   C1A52935  33.762  43.061   6.450
 8512POPC   D2A52936  33.757  43.074   6.750
 8512POPC   C3A52937  33.792  43.111   7.050
 8512POPC   C4A52938  33.818  43.149   7.350
 8512POPC   C1B52939  33.592  42.906   6.450
 8512POPC   C2B52940  33.667  42.925   6.750
 8512POPC   C3B52941  33.673  42.926   7.050
 8512POPC   C4B52942  33.681  42.872   7.350
 8513POPC   NC352943  10.556  33.025   5.550
 8513POPC   PO452944  10.561  33.046   5.850
 8513POPC   GL152945  10.555  33.030   6.150
 8513POPC   GL252946  10.561  32.909   6.150
 8513POPC   C1A52947  10.506  33.038   6.450
 8513POPC   D2A52948  10.548  33.001   6.750
 8513POPC   C3A52949  10.474  33.071   7.050
 8513POPC   C4A52950  10.572  33.054   7.350
 8513POPC   C1B52951  10.527  32.800   6.450
 8513POPC   C2B52952  10.588  32.732   6.750
 8513POPC   C3B52953  10.604  32.741   7.050
 8513POPC   C4B52954  10.583  32.735   7.350
 8514POPC   NC352955  44.690  43.881   5.550
 8514POPC   PO452956  44.649  43.849   5.850
 8514POPC   GL152957  44.680  43.871   6.150
 8514POPC   GL252958  44.742  44.012   6.150
 8514POPC   C1A52959  44.620  43.889   6.450
 8514POPC   D2A52960  44.711  43.924   6.750
 8514POPC   C3A52961  44.653  43.846   7.050
 8514POPC   C4A52962  44.637  43.927   7.350
 8514POPC   C1B52963  44.768  44.148   6.450
 8514POPC   C2B52964  44.694  44.170   6.750
 8514POPC   C3B52965  44.752  44.177   7.050
 8514POPC   C4B52966  44.715  44.122   7.350
 8515POPC   NC352967  29.907  28.404   5.550
 8515POPC   PO452968  29.884  28.385   5.850
 8515POPC   GL152969  29.930  28.398   6.150
 8515POPC   GL252970  29.770  28.326   6.150
 8515POPC   C1A52971  29.883  28.357   6.450
 8515POPC   D2A52972  29.903  28.375   6.750
 8515POPC   C3A52973  29.872  28.320   7.050
 8515POPC   C4A52974  29.958  28.363   7.350
 8515POPC   C1B52975  29.697  28.259   6.450
 8515POPC   C2B52976  29.661  28.250   6.750
 8515POPC   C3B52977  29.706  28.296   7.050
 8515POPC   C4B52978  29.723  28.320   7.350
 8516POPC   NC352979  28.391  24.513   5.550
 8516POPC   PO452980  28.375  24.538   5.850
 8516POPC   GL152981  28.401  24.508   6.150
 8516POPC   GL252982  28.361  24.570   6.150
 8516POPC   C1A52983  28.381  24.483   6.450
 8516POPC   D2A52984  28.383  24.471   6.750
 8516POPC   C3A52985  28.336  24.456   7.050
 8516POPC   C4A52986  28.375  24.523   7.350
 8516POPC   C1B52987  28.370  24.772   6.450
 8516POPC   C2B52988  28.304  24.773   6.750
 8516POPC   C3B52989  28.363  24.738   7.050
 8516POPC   C4B52990  28.360  24.719   7.350
 8517POPC   NC352991  28.406   2.794   5.550
 8517POPC   PO452992  28.371   2.811   5.850
 8517POPC   GL152993  28.412   2.717   6.150
 8517POPC   GL252994  28.323   2.908   6.150
 8517POPC   C1A52995  28.349   2.719   6.450
 8517POPC   D2A52996  28.350   2.733   6.750
 8517POPC   C3A52997  28.375   2.807   7.050
 8517POPC   C4A52998  28.384   2.740   7.350
 8517POPC   C1B52999  28.236   3.022   6.450
 8517POPC   C2B53000  28.228   3.037   6.750
 8517POPC   C3B53001  28.254   2.991   7.050
 8517POPC   C4B53002  28.296   2.952   7.350
 8518POPC   NC353003  23.760  34.574   5.550
 8518POPC   PO453004  23.732  34.528   5.850
 8518POPC   GL153005  23.733  34.532   6.150
 8518POPC   GL253006  23.588  34.564   6.150
 8518POPC   C1A53007  23.702  34.586   6.450
 8518POPC   D2A53008  23.684  34.625   6.750
 8518POPC   C3A53009  23.693  34.603   7.050
 8518POPC   C4A53010  23.747  34.620   7.350
 8518POPC   C1B53011  23.498  34.450   6.450
 8518POPC   C2B53012  23.455  34.493   6.750
 8518POPC   C3B53013  23.513  34.462   7.050
 8518POPC   C4B53014  23.518  34.439   7.350
 8519POPC   NC353015  20.619  39.229   5.550
 8519POPC   PO453016  20.659  39.242   5.850
 8519POPC   GL153017  20.638  39.270   6.150
 8519POPC   GL253018  20.611  39.116   6.150
 8519POPC   C1A53019  20.616  39.269   6.450
 8519POPC   D2A53020  20.655  39.272   6.750
 8519POPC   C3A53021  20.565  39.237   7.050
 8519POPC   C4A53022  20.615  39.271   7.350
 8519POPC   C1B53023  20.593  38.968   6.450
 8519POPC   C2B53024  20.642  39.004   6.750
 8519POPC   C3B53025  20.626  38.945   7.050
 8519POPC   C4B53026  20.585  39.024   7.350
 8520POPC   NC353027  31.441  26.835   5.550
 8520POPC   PO453028  31.463  26.815   5.850
 8520POPC   GL153029  31.472  26.789   6.150
 8520POPC   GL253030  31.602  26.833   6.150
 8520POPC   C1A53031  31.463  26.815   6.450
 8520POPC   D2A53032  31.481  26.822   6.750
 8520POPC   C3A53033  31.463  26.777   7.050
 8520POPC   C4A53034  31.429  26.833   7.350
 8520POPC   C1B53035  31.695  26.837   6.450
 8520POPC   C2B53036  31.751  26.843   6.750
 8520POPC   C3B53037  31.669  26.838   7.050
 8520POPC   C4B53038  31.716  26.851   7.350
 8521POPC   NC353039   3.557  44.649   5.550
 8521POPC   PO453040   3.587  44.681   5.850
 8521POPC   GL153041   3.563  44.700   6.150
 8521POPC   GL253042   3.552  44.572   6.150
 8521POPC   C1A53043   3.535  44.636   6.450
 8521POPC   D2A53044   3.512  44.633   6.750
 8521POPC   C3A53045   3.508  44.649   7.050
 8521POPC   C4A53046   3.509  44.691   7.350
 8521POPC   C1B53047   3.586  44.392   6.450
 8521POPC   C2B53048   3.623  44.400   6.750
 8521POPC   C3B53049   3.660  44.441   7.050
 8521POPC   C4B53050   3.620  44.446   7.350
 8522POPC   NC353051  21.412   1.258   5.550
 8522POPC   PO453052  21.363   1.239   5.850
 8522POPC   GL153053  21.415   1.201   6.150
 8522POPC   GL253054  21.501   1.119   6.150
 8522POPC   C1A53055  21.338   1.178   6.450
 8522POPC   D2A53056  21.387   1.175   6.750
 8522POPC   C3A53057  21.375   1.204   7.050
 8522POPC   C4A53058  21.376   1.170   7.350
 8522POPC   C1B53059  21.537   1.062   6.450
 8522POPC   C2B53060  21.570   1.084   6.750
 8522POPC   C3B53061  21.545   1.058   7.050
 8522POPC   C4B53062  21.618   0.996   7.350
 8523POPC   NC353063  43.934  41.535   5.550
 8523POPC   PO453064  43.924  41.596   5.850
 8523POPC   GL153065  43.914  41.519   6.150
 8523POPC   GL253066  43.797  41.640   6.150
 8523POPC   C1A53067  43.921  41.540   6.450
 8523POPC   D2A53068  43.863  41.608   6.750
 8523POPC   C3A53069  43.884  41.509   7.050
 8523POPC   C4A53070  43.872  41.534   7.350
 8523POPC   C1B53071  43.709  41.783   6.450
 8523POPC   C2B53072  43.761  41.765   6.750
 8523POPC   C3B53073  43.724  41.725   7.050
 8523POPC   C4B53074  43.749  41.739   7.350
 8524POPC   NC353075  34.592  35.395   5.550
 8524POPC   PO453076  34.625  35.371   5.850
 8524POPC   GL153077  34.559  35.369   6.150
 8524POPC   GL253078  34.721  35.440   6.150
 8524POPC   C1A53079  34.584  35.383   6.450
 8524POPC   D2A53080  34.593  35.385   6.750
 8524POPC   C3A53081  34.554  35.368   7.050
 8524POPC   C4A53082  34.555  35.400   7.350
 8524POPC   C1B53083  34.801  35.514   6.450
 8524POPC   C2B53084  34.810  35.460   6.750
 8524POPC   C3B53085  34.811  35.451   7.050
 8524POPC   C4B53086  34.809  35.469   7.350
 8525POPC   NC353087  43.099   5.877   5.550
 8525POPC   PO453088  43.121   5.896   5.850
 8525POPC   GL153089  43.110   5.906   6.150
 8525POPC   GL253090  43.198   5.821   6.150
 8525POPC   C1A53091  43.073   5.883   6.450
 8525POPC   D2A53092  43.097   5.909   6.750
 8525POPC   C3A53093  43.086   5.919   7.050
 8525POPC   C4A53094  43.141   5.867   7.350
 8525POPC   C1B53095  43.302   5.663   6.450
 8525POPC   C2B53096  43.303   5.673   6.750
 8525POPC   C3B53097  43.283   5.688   7.050
 8525POPC   C4B53098  43.298   5.673   7.350
 8526POPC   NC353099   5.047  44.651   5.550
 8526POPC   PO453100   5.059  44.689   5.850
 8526POPC   GL153101   5.044  44.711   6.150
 8526POPC   GL253102   5.227  44.672   6.150
 8526POPC   C1A53103   5.095  44.649   6.450
 8526POPC   D2A53104   5.140  44.637   6.750
 8526POPC   C3A53105   5.112  44.635   7.050
 8526POPC   C4A53106   5.054  44.659   7.350
 8526POPC   C1B53107   5.344  44.719   6.450
 8526POPC   C2B53108   5.366  44.712   6.750
 8526POPC   C3B53109   5.315  44.666   7.050
 8526POPC   C4B53110   5.340  44.712   7.350
 8527POPC   NC353111  32.248  13.582   5.550
 8527POPC   PO453112  32.228  13.651   5.850
 8527POPC   GL153113  32.201  13.604   6.150
 8527POPC   GL253114  32.291  13.584   6.150
 8527POPC   C1A53115  32.269  13.593   6.450
 8527POPC   D2A53116  32.231  13.663   6.750
 8527POPC   C3A53117  32.243  13.630   7.050
 8527POPC   C4A53118  32.287  13.636   7.350
 8527POPC   C1B53119  32.380  13.424   6.450
 8527POPC   C2B53120  32.444  13.467   6.750
 8527POPC   C3B53121  32.377  13.396   7.050
 8527POPC   C4B53122  32.399  13.465   7.350
 8528POPC   NC353123  21.341   9.779   5.550
 8528POPC   PO453124  21.408   9.789   5.850
 8528POPC   GL153125  21.420   9.797   6.150
 8528POPC   GL253126  21.366   9.593   6.150
 8528POPC   C1A53127  21.386   9.777   6.450
 8528POPC   D2A53128  21.401   9.716   6.750
 8528POPC   C3A53129  21.428   9.795   7.050
 8528POPC   C4A53130  21.404   9.741   7.350
 8528POPC   C1B53131  21.381   9.542   6.450
 8528POPC   C2B53132  21.422   9.545   6.750
 8528POPC   C3B53133  21.394   9.488   7.050
 8528POPC   C4B53134  21.430   9.527   7.350
 8529POPC   NC353135  12.126   6.685   5.550
 8529POPC   PO453136  12.039   6.686   5.850
 8529POPC   GL153137  12.116   6.653   6.150
 8529POPC   GL253138  11.973   6.550   6.150
 8529POPC   C1A53139  12.046   6.641   6.450
 8529POPC   D2A53140  12.052   6.611   6.750
 8529POPC   C3A53141  12.039   6.691   7.050
 8529POPC   C4A53142  12.058   6.628   7.350
 8529POPC   C1B53143  11.890   6.506   6.450
 8529POPC   C2B53144  11.832   6.509   6.750
 8529POPC   C3B53145  11.884   6.511   7.050
 8529POPC   C4B53146  11.919   6.530   7.350
 8530POPC   NC353147  13.662  20.625   5.550
 8530POPC   PO453148  13.622  20.639   5.850
 8530POPC   GL153149  13.610  20.644   6.150
 8530POPC   GL253150  13.693  20.533   6.150
 8530POPC   C1A53151  13.673  20.629   6.450
 8530POPC   D2A53152  13.613  20.626   6.750
 8530POPC   C3A53153  13.661  20.619   7.050
 8530POPC   C4A53154  13.599  20.647   7.350
 8530POPC   C1B53155  13.713  20.375   6.450
 8530POPC   C2B53156  13.681  20.362   6.750
 8530POPC   C3B53157  13.729  20.363   7.050
 8530POPC   C4B53158  13.689  20.399   7.350
 8531POPC   NC353159   4.268  28.406   5.550
 8531POPC   PO453160   4.310  28.340   5.850
 8531POPC   GL153161   4.289  28.366   6.150
 8531POPC   GL253162   4.204  28.374   6.150
 8531POPC   C1A53163   4.365  28.402   6.450
 8531POPC   D2A53164   4.278  28.408   6.750
 8531POPC   C3A53165   4.341  28.375   7.050
 8531POPC   C4A53166   4.320  28.357   7.350
 8531POPC   C1B53167   4.077  28.301   6.450
 8531POPC   C2B53168   4.083  28.255   6.750
 8531POPC   C3B53169   4.087  28.310   7.050
 8531POPC   C4B53170   4.120  28.340   7.350
 8532POPC   NC353171   4.327   1.230   5.550
 8532POPC   PO453172   4.345   1.198   5.850
 8532POPC   GL153173   4.326   1.236   6.150
 8532POPC   GL253174   4.221   1.111   6.150
 8532POPC   C1A53175   4.363   1.208   6.450
 8532POPC   D2A53176   4.300   1.179   6.750
 8532POPC   C3A53177   4.335   1.205   7.050
 8532POPC   C4A53178   4.334   1.238   7.350
 8532POPC   C1B53179   4.158   1.089   6.450
 8532POPC   C2B53180   4.110   1.010   6.750
 8532POPC   C3B53181   4.148   1.077   7.050
 8532POPC   C4B53182   4.089   1.032   7.350
 8533POPC   NC353183  21.359  19.010   5.550
 8533POPC   PO453184  21.429  19.101   5.850
 8533POPC   GL153185  21.434  19.025   6.150
 8533POPC   GL253186  21.298  18.983   6.150
 8533POPC   C1A53187  21.339  19.069   6.450
 8533POPC   D2A53188  21.413  19.068   6.750
 8533POPC   C3A53189  21.357  19.073   7.050
 8533POPC   C4A53190  21.428  19.066   7.350
 8533POPC   C1B53191  21.174  18.826   6.450
 8533POPC   C2B53192  21.222  18.877   6.750
 8533POPC   C3B53193  21.212  18.895   7.050
 8533POPC   C4B53194  21.177  18.895   7.350
 8534POPC   NC353195  36.913  22.167   5.550
 8534POPC   PO453196  36.887  22.146   5.850
 8534POPC   GL153197  36.922  22.168   6.150
 8534POPC   GL253198  36.959  22.027   6.150
 8534POPC   C1A53199  36.917  22.169   6.450
 8534POPC   D2A53200  36.951  22.154   6.750
 8534POPC   C3A53201  36.894  22.207   7.050
 8534POPC   C4A53202  36.933  22.157   7.350
 8534POPC   C1B53203  36.874  21.885   6.450
 8534POPC   C2B53204  36.961  21.915   6.750
 8534POPC   C3B53205  36.955  21.872   7.050
 8534POPC   C4B53206  36.954  21.904   7.350
 8535POPC   NC353207  10.492   5.906   5.550
 8535POPC   PO453208  10.553   5.884   5.850
 8535POPC   GL153209  10.573   5.826   6.150
 8535POPC   GL253210  10.607   5.960   6.150
 8535POPC   C1A53211  10.566   5.834   6.450
 8535POPC   D2A53212  10.499   5.855   6.750
 8535POPC   C3A53213  10.520   5.847   7.050
 8535POPC   C4A53214  10.556   5.860   7.350
 8535POPC   C1B53215  10.702   6.074   6.450
 8535POPC   C2B53216  10.711   6.098   6.750
 8535POPC   C3B53217  10.726   6.070   7.050
 8535POPC   C4B53218  10.710   6.075   7.350
 8536POPC   NC353219   9.704  33.764   5.550
 8536POPC   PO453220   9.721  33.839   5.850
 8536POPC   GL153221   9.730  33.794   6.150
 8536POPC   GL253222   9.852  33.873   6.150
 8536POPC   C1A53223   9.773  33.837   6.450
 8536POPC   D2A53224   9.797  33.830   6.750
 8536POPC   C3A53225   9.798  33.778   7.050
 8536POPC   C4A53226   9.730  33.751   7.350
 8536POPC   C1B53227   9.887  33.984   6.450
 8536POPC   C2B53228   9.935  33.983   6.750
 8536POPC   C3B53229   9.973  34.001   7.050
 8536POPC   C4B53230   9.900  33.945   7.350
 8537POPC   NC353231   5.824  13.643   5.550
 8537POPC   PO453232   5.888  13.626   5.850
 8537POPC   GL153233   5.910  13.640   6.150
 8537POPC   GL253234   6.012  13.636   6.150
 8537POPC   C1A53235   5.828  13.673   6.450
 8537POPC   D2A53236   5.889  13.676   6.750
 8537POPC   C3A53237   5.821  13.614   7.050
 8537POPC   C4A53238   5.912  13.614   7.350
 8537POPC   C1B53239   6.102  13.603   6.450
 8537POPC   C2B53240   6.087  13.551   6.750
 8537POPC   C3B53241   6.126  13.569   7.050
 8537POPC   C4B53242   6.084  13.612   7.350
 8538POPC   NC353243  15.168  15.952   5.550
 8538POPC   PO453244  15.225  15.989   5.850
 8538POPC   GL153245  15.211  15.964   6.150
 8538POPC   GL253246  15.067  16.056   6.150
 8538POPC   C1A53247  15.137  15.958   6.450
 8538POPC   D2A53248  15.210  15.995   6.750
 8538POPC   C3A53249  15.218  15.955   7.050
 8538POPC   C4A53250  15.139  15.950   7.350
 8538POPC   C1B53251  14.992  16.118   6.450
 8538POPC   C2B53252  14.951  16.094   6.750
 8538POPC   C3B53253  14.965  16.136   7.050
 8538POPC   C4B53254  14.922  16.090   7.350
 8539POPC   NC353255  26.837  35.339   5.550
 8539POPC   PO453256  26.864  35.322   5.850
 8539POPC   GL153257  26.832  35.348   6.150
 8539POPC   GL253258  26.674  35.414   6.150
 8539POPC   C1A53259  26.809  35.399   6.450
 8539POPC   D2A53260  26.819  35.329   6.750
 8539POPC   C3A53261  26.862  35.370   7.050
 8539POPC   C4A53262  26.815  35.398   7.350
 8539POPC   C1B53263  26.573  35.509   6.450
 8539POPC   C2B53264  26.596  35.488   6.750
 8539POPC   C3B53265  26.570  35.458   7.050
 8539POPC   C4B53266  26.617  35.466   7.350
 8540POPC   NC353267  31.423  11.347   5.550
 8540POPC   PO453268  31.505  11.341   5.850
 8540POPC   GL153269  31.430  11.340   6.150
 8540POPC   GL253270  31.379  11.278   6.150
 8540POPC   C1A53271  31.501  11.328   6.450
 8540POPC   D2A53272  31.491  11.344   6.750
 8540POPC   C3A53273  31.454  11.321   7.050
 8540POPC   C4A53274  31.424  11.333   7.350
 8540POPC   C1B53275  31.254  11.116   6.450
 8540POPC   C2B53276  31.278  11.186   6.750
 8540POPC   C3B53277  31.311  11.121   7.050
 8540POPC   C4B53278  31.224  11.188   7.350
 8541POPC   NC353279   1.184   2.788   5.550
 8541POPC   PO453280   1.203   2.803   5.850
 8541POPC   GL153281   1.185   2.793   6.150
 8541POPC   GL253282   1.114   2.830   6.150
 8541POPC   C1A53283   1.173   2.779   6.450
 8541POPC   D2A53284   1.250   2.753   6.750
 8541POPC   C3A53285   1.204   2.787   7.050
 8541POPC   C4A53286   1.175   2.721   7.350
 8541POPC   C1B53287   0.953   2.883   6.450
 8541POPC   C2B53288   1.039   2.885   6.750
 8541POPC   C3B53289   0.982   2.878   7.050
 8541POPC   C4B53290   1.028   2.867   7.350
 8542POPC   NC353291  25.251   5.106   5.550
 8542POPC   PO453292  25.293   5.058   5.850
 8542POPC   GL153293  25.314   5.092   6.150
 8542POPC   GL253294  25.380   5.047   6.150
 8542POPC   C1A53295  25.220   5.105   6.450
 8542POPC   D2A53296  25.281   5.099   6.750
 8542POPC   C3A53297  25.302   5.095   7.050
 8542POPC   C4A53298  25.232   5.076   7.350
 8542POPC   C1B53299  25.479   4.926   6.450
 8542POPC   C2B53300  25.457   4.977   6.750
 8542POPC   C3B53301  25.429   4.981   7.050
 8542POPC   C4B53302  25.433   4.956   7.350
 8543POPC   NC353303  16.770  18.322   5.550
 8543POPC   PO453304  16.732  18.314   5.850
 8543POPC   GL153305  16.771  18.268   6.150
 8543POPC   GL253306  16.878  18.224   6.150
 8543POPC   C1A53307  16.776  18.329   6.450
 8543POPC   D2A53308  16.750  18.325   6.750
 8543POPC   C3A53309  16.753  18.297   7.050
 8543POPC   C4A53310  16.771  18.304   7.350
 8543POPC   C1B53311  16.950  18.112   6.450
 8543POPC   C2B53312  16.900  18.115   6.750
 8543POPC   C3B53313  16.992  18.164   7.050
 8543POPC   C4B53314  16.905  18.152   7.350
 8544POPC   NC353315  23.669  37.718   5.550
 8544POPC   PO453316  23.666  37.682   5.850
 8544POPC   GL153317  23.751  37.725   6.150
 8544POPC   GL253318  23.584  37.741   6.150
 8544POPC   C1A53319  23.707  37.688   6.450
 8544POPC   D2A53320  23.750  37.631   6.750
 8544POPC   C3A53321  23.758  37.647   7.050
 8544POPC   C4A53322  23.741  37.659   7.350
 8544POPC   C1B53323  23.529  37.908   6.450
 8544POPC   C2B53324  23.529  37.888   6.750
 8544POPC   C3B53325  23.548  37.848   7.050
 8544POPC   C4B53326  23.577  37.906   7.350
 8545POPC   NC353327  20.643  34.572   5.550
 8545POPC   PO453328  20.640  34.621   5.850
 8545POPC   GL153329  20.596  34.567   6.150
 8545POPC   GL253330  20.687  34.505   6.150
 8545POPC   C1A53331  20.601  34.568   6.450
 8545POPC   D2A53332  20.587  34.609   6.750
 8545POPC   C3A53333  20.618  34.550   7.050
 8545POPC   C4A53334  20.582  34.577   7.350
 8545POPC   C1B53335  20.772  34.341   6.450
 8545POPC   C2B53336  20.735  34.384   6.750
 8545POPC   C3B53337  20.783  34.370   7.050
 8545POPC   C4B53338  20.726  34.330   7.350
 8546POPC   NC353339  12.870  25.238   5.550
 8546POPC   PO453340  12.878  25.305   5.850
 8546POPC   GL153341  12.869  25.221   6.150
 8546POPC   GL253342  12.963  25.332   6.150
 8546POPC   C1A53343  12.857  25.311   6.450
 8546POPC   D2A53344  12.893  25.218   6.750
 8546POPC   C3A53345  12.869  25.278   7.050
 8546POPC   C4A53346  12.855  25.315   7.350
 8546POPC   C1B53347  13.036  25.472   6.450
 8546POPC   C2B53348  13.031  25.497   6.750
 8546POPC   C3B53349  13.013  25.519   7.050
 8546POPC   C4B53350  13.044  25.490   7.350
 8547POPC   NC353351   8.239   8.958   5.550
 8547POPC   PO453352   8.239   8.944   5.850
 8547POPC   GL153353   8.147   8.963   6.150
 8547POPC   GL253354   8.266   8.914   6.150
 8547POPC   C1A53355   8.244   8.950   6.450
 8547POPC   D2A53356   8.204   8.930   6.750
 8547POPC   C3A53357   8.242   8.936   7.050
 8547POPC   C4A53358   8.229   9.021   7.350
 8547POPC   C1B53359   8.399   8.837   6.450
 8547POPC   C2B53360   8.408   8.828   6.750
 8547POPC   C3B53361   8.443   8.896   7.050
 8547POPC   C4B53362   8.462   8.891   7.350
 8548POPC   NC353363  35.370  10.488   5.550
 8548POPC   PO453364  35.314  10.483   5.850
 8548POPC   GL153365  35.343  10.498   6.150
 8548POPC   GL253366  35.503  10.503   6.150
 8548POPC   C1A53367  35.366  10.516   6.450
 8548POPC   D2A53368  35.308  10.525   6.750
 8548POPC   C3A53369  35.341  10.523   7.050
 8548POPC   C4A53370  35.352  10.548   7.350
 8548POPC   C1B53371  35.616  10.561   6.450
 8548POPC   C2B53372  35.598  10.537   6.750
 8548POPC   C3B53373  35.608  10.484   7.050
 8548POPC   C4B53374  35.641  10.574   7.350
 8549POPC   NC353375  11.349  16.004   5.550
 8549POPC   PO453376  11.331  15.947   5.850
 8549POPC   GL153377  11.291  15.941   6.150
 8549POPC   GL253378  11.188  15.897   6.150
 8549POPC   C1A53379  11.317  15.960   6.450
 8549POPC   D2A53380  11.331  16.003   6.750
 8549POPC   C3A53381  11.312  15.971   7.050
 8549POPC   C4A53382  11.280  15.929   7.350
 8549POPC   C1B53383  11.176  15.714   6.450
 8549POPC   C2B53384  11.133  15.728   6.750
 8549POPC   C3B53385  11.172  15.754   7.050
 8549POPC   C4B53386  11.181  15.803   7.350
 8550POPC   NC353387  39.241  26.015   5.550
 8550POPC   PO453388  39.236  26.031   5.850
 8550POPC   GL153389  39.199  26.047   6.150
 8550POPC   GL253390  39.271  25.964   6.150
 8550POPC   C1A53391  39.211  26.076   6.450
 8550POPC   D2A53392  39.256  25.996   6.750
 8550POPC   C3A53393  39.275  26.051   7.050
 8550POPC   C4A53394  39.232  25.999   7.350
 8550POPC   C1B53395  39.300  25.835   6.450
 8550POPC   C2B53396  39.305  25.801   6.750
 8550POPC   C3B53397  39.234  25.810   7.050
 8550POPC   C4B53398  39.250  25.841   7.350
 8551POPC   NC353399  41.546  13.604   5.550
 8551POPC   PO453400  41.584  13.652   5.850
 8551POPC   GL153401  41.530  13.642   6.150
 8551POPC   GL253402  41.429  13.493   6.150
 8551POPC   C1A53403  41.582  13.578   6.450
 8551POPC   D2A53404  41.550  13.616   6.750
 8551POPC   C3A53405  41.579  13.608   7.050
 8551POPC   C4A53406  41.524  13.655   7.350
 8551POPC   C1B53407  41.436  13.450   6.450
 8551POPC   C2B53408  41.404  13.463   6.750
 8551POPC   C3B53409  41.432  13.462   7.050
 8551POPC   C4B53410  41.357  13.495   7.350
 8552POPC   NC353411  33.769  34.622   5.550
 8552POPC   PO453412  33.801  34.569   5.850
 8552POPC   GL153413  33.831  34.541   6.150
 8552POPC   GL253414  33.898  34.488   6.150
 8552POPC   C1A53415  33.797  34.535   6.450
 8552POPC   D2A53416  33.767  34.565   6.750
 8552POPC   C3A53417  33.844  34.581   7.050
 8552POPC   C4A53418  33.820  34.625   7.350
 8552POPC   C1B53419  34.031  34.448   6.450
 8552POPC   C2B53420  34.004  34.470   6.750
 8552POPC   C3B53421  34.025  34.438   7.050
 8552POPC   C4B53422  34.013  34.488   7.350
 8553POPC   NC353423  44.657  35.332   5.550
 8553POPC   PO453424  44.651  35.369   5.850
 8553POPC   GL153425  44.705  35.365   6.150
 8553POPC   GL253426  44.624  35.395   6.150
 8553POPC   C1A53427  44.698  35.396   6.450
 8553POPC   D2A53428  44.690  35.394   6.750
 8553POPC   C3A53429  44.701  35.322   7.050
 8553POPC   C4A53430  44.696  35.346   7.350
 8553POPC   C1B53431  44.527  35.570   6.450
 8553POPC   C2B53432  44.440  35.568   6.750
 8553POPC   C3B53433  44.491  35.549   7.050
 8553POPC   C4B53434  44.457  35.491   7.350
 8554POPC   NC353435  19.072  12.812   5.550
 8554POPC   PO453436  19.078  12.869   5.850
 8554POPC   GL153437  19.026  12.897   6.150
 8554POPC   GL253438  18.934  12.947   6.150
 8554POPC   C1A53439  19.012  12.823   6.450
 8554POPC   D2A53440  19.021  12.879   6.750
 8554POPC   C3A53441  19.015  12.873   7.050
 8554POPC   C4A53442  19.039  12.862   7.350
 8554POPC   C1B53443  18.865  13.023   6.450
 8554POPC   C2B53444  18.853  13.007   6.750
 8554POPC   C3B53445  18.911  12.995   7.050
 8554POPC   C4B53446  18.839  13.055   7.350
 8555POPC   NC353447  32.275  17.465   5.550
 8555POPC   PO453448  32.268  17.545   5.850
 8555POPC   GL153449  32.204  17.556   6.150
 8555POPC   GL253450  32.297  17.605   6.150
 8555POPC   C1A53451  32.270  17.545   6.450
 8555POPC   D2A53452  32.244  17.552   6.750
 8555POPC   C3A53453  32.264  17.464   7.050
 8555POPC   C4A53454  32.274  17.493   7.350
 8555POPC   C1B53455  32.240  17.758   6.450
 8555POPC   C2B53456  32.209  17.731   6.750
 8555POPC   C3B53457  32.294  17.786   7.050
 8555POPC   C4B53458  32.229  17.754   7.350
 8556POPC   NC353459  19.068  17.504   5.550
 8556POPC   PO453460  19.096  17.460   5.850
 8556POPC   GL153461  19.079  17.479   6.150
 8556POPC   GL253462  18.971  17.438   6.150
 8556POPC   C1A53463  19.043  17.474   6.450
 8556POPC   D2A53464  19.042  17.530   6.750
 8556POPC   C3A53465  19.047  17.532   7.050
 8556POPC   C4A53466  19.080  17.492   7.350
 8556POPC   C1B53467  18.956  17.306   6.450
 8556POPC   C2B53468  18.950  17.313   6.750
 8556POPC   C3B53469  18.963  17.301   7.050
 8556POPC   C4B53470  18.947  17.324   7.350
 8557POPC   NC353471  36.938  17.467   5.550
 8557POPC   PO453472  36.922  17.457   5.850
 8557POPC   GL153473  36.928  17.465   6.150
 8557POPC   GL253474  36.784  17.562   6.150
 8557POPC   C1A53475  36.909  17.542   6.450
 8557POPC   D2A53476  36.942  17.521   6.750
 8557POPC   C3A53477  36.901  17.523   7.050
 8557POPC   C4A53478  36.948  17.502   7.350
 8557POPC   C1B53479  36.667  17.520   6.450
 8557POPC   C2B53480  36.674  17.503   6.750
 8557POPC   C3B53481  36.610  17.485   7.050
 8557POPC   C4B53482  36.674  17.546   7.350
 8558POPC   NC353483  29.115   2.036   5.550
 8558POPC   PO453484  29.109   1.994   5.850
 8558POPC   GL153485  29.133   1.955   6.150
 8558POPC   GL253486  29.286   1.953   6.150
 8558POPC   C1A53487  29.165   1.957   6.450
 8558POPC   D2A53488  29.104   2.032   6.750
 8558POPC   C3A53489  29.187   1.953   7.050
 8558POPC   C4A53490  29.185   1.969   7.350
 8558POPC   C1B53491  29.374   2.041   6.450
 8558POPC   C2B53492  29.393   2.039   6.750
 8558POPC   C3B53493  29.376   1.970   7.050
 8558POPC   C4B53494  29.437   1.983   7.350
 8559POPC   NC353495  30.654  15.219   5.550
 8559POPC   PO453496  30.697  15.207   5.850
 8559POPC   GL153497  30.724  15.151   6.150
 8559POPC   GL253498  30.630  15.018   6.150
 8559POPC   C1A53499  30.744  15.136   6.450
 8559POPC   D2A53500  30.733  15.227   6.750
 8559POPC   C3A53501  30.664  15.188   7.050
 8559POPC   C4A53502  30.657  15.159   7.350
 8559POPC   C1B53503  30.593  14.948   6.450
 8559POPC   C2B53504  30.582  14.972   6.750
 8559POPC   C3B53505  30.664  14.903   7.050
 8559POPC   C4B53506  30.630  14.936   7.350
 8560POPC   NC353507  22.943  33.829   5.550
 8560POPC   PO453508  22.928  33.759   5.850
 8560POPC   GL153509  22.947  33.806   6.150
 8560POPC   GL253510  22.955  33.928   6.150
 8560POPC   C1A53511  22.926  33.761   6.450
 8560POPC   D2A53512  22.976  33.772   6.750
 8560POPC   C3A53513  22.922  33.846   7.050
 8560POPC   C4A53514  22.919  33.822   7.350
 8560POPC   C1B53515  22.887  34.045   6.450
 8560POPC   C2B53516  22.924  34.039   6.750
 8560POPC   C3B53517  22.874  34.005   7.050
 8560POPC   C4B53518  22.898  34.073   7.350
 8561POPC   NC353519  11.310  26.835   5.550
 8561POPC   PO453520  11.345  26.793   5.850
 8561POPC   GL153521  11.264  26.815   6.150
 8561POPC   GL253522  11.278  26.681   6.150
 8561POPC   C1A53523  11.310  26.811   6.450
 8561POPC   D2A53524  11.251  26.773   6.750
 8561POPC   C3A53525  11.251  26.864   7.050
 8561POPC   C4A53526  11.285  26.798   7.350
 8561POPC   C1B53527  11.325  26.547   6.450
 8561POPC   C2B53528  11.282  26.610   6.750
 8561POPC   C3B53529  11.290  26.586   7.050
 8561POPC   C4B53530  11.266  26.604   7.350
 8562POPC   NC353531  26.009  17.530   5.550
 8562POPC   PO453532  25.998  17.457   5.850
 8562POPC   GL153533  26.024  17.510   6.150
 8562POPC   GL253534  26.008  17.637   6.150
 8562POPC   C1A53535  26.086  17.539   6.450
 8562POPC   D2A53536  25.999  17.466   6.750
 8562POPC   C3A53537  26.040  17.546   7.050
 8562POPC   C4A53538  26.004  17.540   7.350
 8562POPC   C1B53539  25.915  17.741   6.450
 8562POPC   C2B53540  25.849  17.713   6.750
 8562POPC   C3B53541  25.923  17.710   7.050
 8562POPC   C4B53542  25.901  17.688   7.350
 8563POPC   NC353543   7.380  33.848   5.550
 8563POPC   PO453544   7.441  33.760   5.850
 8563POPC   GL153545   7.390  33.824   6.150
 8563POPC   GL253546   7.534  33.709   6.150
 8563POPC   C1A53547   7.420  33.766   6.450
 8563POPC   D2A53548   7.400  33.804   6.750
 8563POPC   C3A53549   7.443  33.845   7.050
 8563POPC   C4A53550   7.446  33.783   7.350
 8563POPC   C1B53551   7.630  33.675   6.450
 8563POPC   C2B53552   7.643  33.670   6.750
 8563POPC   C3B53553   7.659  33.668   7.050
 8563POPC   C4B53554   7.674  33.697   7.350
 8564POPC   NC353555  41.571   5.874   5.550
 8564POPC   PO453556  41.535   5.904   5.850
 8564POPC   GL153557  41.523   5.856   6.150
 8564POPC   GL253558  41.533   5.943   6.150
 8564POPC   C1A53559  41.598   5.903   6.450
 8564POPC   D2A53560  41.563   5.901   6.750
 8564POPC   C3A53561  41.568   5.885   7.050
 8564POPC   C4A53562  41.569   5.871   7.350
 8564POPC   C1B53563  41.479   6.135   6.450
 8564POPC   C2B53564  41.486   6.128   6.750
 8564POPC   C3B53565  41.541   6.145   7.050
 8564POPC   C4B53566  41.561   6.122   7.350
 8565POPC   NC353567   6.665  39.181   5.550
 8565POPC   PO453568   6.605  39.227   5.850
 8565POPC   GL153569   6.637  39.202   6.150
 8565POPC   GL253570   6.747  39.136   6.150
 8565POPC   C1A53571   6.630  39.218   6.450
 8565POPC   D2A53572   6.606  39.266   6.750
 8565POPC   C3A53573   6.643  39.216   7.050
 8565POPC   C4A53574   6.623  39.260   7.350
 8565POPC   C1B53575   6.797  39.007   6.450
 8565POPC   C2B53576   6.801  39.087   6.750
 8565POPC   C3B53577   6.861  39.072   7.050
 8565POPC   C4B53578   6.812  39.061   7.350
 8566POPC   NC353579   9.011  22.958   5.550
 8566POPC   PO453580   8.991  22.984   5.850
 8566POPC   GL153581   9.009  22.944   6.150
 8566POPC   GL253582   9.007  22.818   6.150
 8566POPC   C1A53583   8.995  22.961   6.450
 8566POPC   D2A53584   8.934  22.900   6.750
 8566POPC   C3A53585   8.942  22.966   7.050
 8566POPC   C4A53586   8.928  22.971   7.350
 8566POPC   C1B53587   8.949  22.709   6.450
 8566POPC   C2B53588   8.973  22.675   6.750
 8566POPC   C3B53589   8.960  22.704   7.050
 8566POPC   C4B53590   9.022  22.687   7.350
 8567POPC   NC353591  12.879  31.515   5.550
 8567POPC   PO453592  12.827  31.459   5.850
 8567POPC   GL153593  12.858  31.452   6.150
 8567POPC   GL253594  12.899  31.542   6.150
 8567POPC   C1A53595  12.810  31.430   6.450
 8567POPC   D2A53596  12.879  31.446   6.750
 8567POPC   C3A53597  12.809  31.503   7.050
 8567POPC   C4A53598  12.863  31.491   7.350
 8567POPC   C1B53599  12.970  31.614   6.450
 8567POPC   C2B53600  13.033  31.684   6.750
 8567POPC   C3B53601  12.988  31.680   7.050
 8567POPC   C4B53602  13.030  31.709   7.350
 8568POPC   NC353603   6.621  42.366   5.550
 8568POPC   PO453604   6.651  42.314   5.850
 8568POPC   GL153605   6.634  42.326   6.150
 8568POPC   GL253606   6.485  42.376   6.150
 8568POPC   C1A53607   6.689  42.328   6.450
 8568POPC   D2A53608   6.691  42.301   6.750
 8568POPC   C3A53609   6.637  42.330   7.050
 8568POPC   C4A53610   6.611  42.327   7.350
 8568POPC   C1B53611   6.387  42.388   6.450
 8568POPC   C2B53612   6.434  42.395   6.750
 8568POPC   C3B53613   6.411  42.404   7.050
 8568POPC   C4B53614   6.370  42.480   7.350
 8569POPC   NC353615  22.944  33.023   5.550
 8569POPC   PO453616  22.970  32.998   5.850
 8569POPC   GL153617  22.922  33.049   6.150
 8569POPC   GL253618  22.864  33.107   6.150
 8569POPC   C1A53619  22.960  33.040   6.450
 8569POPC   D2A53620  22.988  32.978   6.750
 8569POPC   C3A53621  22.897  33.060   7.050
 8569POPC   C4A53622  22.970  33.019   7.350
 8569POPC   C1B53623  22.758  33.180   6.450
 8569POPC   C2B53624  22.678  33.088   6.750
 8569POPC   C3B53625  22.721  33.152   7.050
 8569POPC   C4B53626  22.710  33.142   7.350
 8570POPC   NC353627  32.220  11.298   5.550
 8570POPC   PO453628  32.282  11.262   5.850
 8570POPC   GL153629  32.203  11.307   6.150
 8570POPC   GL253630  32.226  11.395   6.150
 8570POPC   C1A53631  32.201  11.290   6.450
 8570POPC   D2A53632  32.291  11.310   6.750
 8570POPC   C3A53633  32.289  11.331   7.050
 8570POPC   C4A53634  32.277  11.341   7.350
 8570POPC   C1B53635  32.227  11.529   6.450
 8570POPC   C2B53636  32.184  11.573   6.750
 8570POPC   C3B53637  32.149  11.499   7.050
 8570POPC   C4B53638  32.141  11.555   7.350
 8571POPC   NC353639  37.685  22.901   5.550
 8571POPC   PO453640  37.643  22.896   5.850
 8571POPC   GL153641  37.726  22.933   6.150
 8571POPC   GL253642  37.757  23.000   6.150
 8571POPC   C1A53643  37.640  22.961   6.450
 8571POPC   D2A53644  37.653  22.949   6.750
 8571POPC   C3A53645  37.635  22.939   7.050
 8571POPC   C4A53646  37.630  22.917   7.350
 8571POPC   C1B53647  37.771  23.187   6.450
 8571POPC   C2B53648  37.770  23.120   6.750
 8571POPC   C3B53649  37.861  23.197   7.050
 8571POPC   C4B53650  37.825  23.118   7.350
 8572POPC   NC353651  43.854   4.286   5.550
 8572POPC   PO453652  43.907   4.286   5.850
 8572POPC   GL153653  43.904   4.365   6.150
 8572POPC   GL253654  43.807   4.221   6.150
 8572POPC   C1A53655  43.921   4.363   6.450
 8572POPC   D2A53656  43.882   4.363   6.750
 8572POPC   C3A53657  43.863   4.336   7.050
 8572POPC   C4A53658  43.873   4.331   7.350
 8572POPC   C1B53659  43.695   4.104   6.450
 8572POPC   C2B53660  43.670   4.176   6.750
 8572POPC   C3B53661  43.663   4.174   7.050
 8572POPC   C4B53662  43.701   4.120   7.350
 8573POPC   NC353663  12.870  40.028   5.550
 8573POPC   PO453664  12.819  39.966   5.850
 8573POPC   GL153665  12.803  40.007   6.150
 8573POPC   GL253666  12.842  40.136   6.150
 8573POPC   C1A53667  12.840  40.033   6.450
 8573POPC   D2A53668  12.861  40.047   6.750
 8573POPC   C3A53669  12.868  40.025   7.050
 8573POPC   C4A53670  12.809  40.023   7.350
 8573POPC   C1B53671  12.879  40.248   6.450
 8573POPC   C2B53672  12.885  40.237   6.750
 8573POPC   C3B53673  12.899  40.224   7.050
 8573POPC   C4B53674  12.907  40.230   7.350
 8574POPC   NC353675  33.813  13.662   5.550
 8574POPC   PO453676  33.825  13.613   5.850
 8574POPC   GL153677  33.763  13.610   6.150
 8574POPC   GL253678  33.898  13.545   6.150
 8574POPC   C1A53679  33.799  13.593   6.450
 8574POPC   D2A53680  33.769  13.583   6.750
 8574POPC   C3A53681  33.786  13.596   7.050
 8574POPC   C4A53682  33.847  13.656   7.350
 8574POPC   C1B53683  34.027  13.480   6.450
 8574POPC   C2B53684  34.012  13.492   6.750
 8574POPC   C3B53685  34.045  13.446   7.050
 8574POPC   C4B53686  33.975  13.471   7.350
 8575POPC   NC353687  25.992   9.709   5.550
 8575POPC   PO453688  26.037   9.728   5.850
 8575POPC   GL153689  26.025   9.721   6.150
 8575POPC   GL253690  25.955   9.690   6.150
 8575POPC   C1A53691  26.022   9.716   6.450
 8575POPC   D2A53692  26.073   9.703   6.750
 8575POPC   C3A53693  25.998   9.797   7.050
 8575POPC   C4A53694  26.032   9.777   7.350
 8575POPC   C1B53695  25.940   9.532   6.450
 8575POPC   C2B53696  25.937   9.585   6.750
 8575POPC   C3B53697  25.852   9.582   7.050
 8575POPC   C4B53698  25.896   9.564   7.350
 8576POPC   NC353699  43.886  38.447   5.550
 8576POPC   PO453700  43.913  38.471   5.850
 8576POPC   GL153701  43.867  38.407   6.150
 8576POPC   GL253702  43.945  38.379   6.150
 8576POPC   C1A53703  43.910  38.466   6.450
 8576POPC   D2A53704  43.921  38.456   6.750
 8576POPC   C3A53705  43.853  38.408   7.050
 8576POPC   C4A53706  43.903  38.448   7.350
 8576POPC   C1B53707  44.013  38.200   6.450
 8576POPC   C2B53708  43.976  38.182   6.750
 8576POPC   C3B53709  43.937  38.231   7.050
 8576POPC   C4B53710  43.940  38.196   7.350
 8577POPC   NC353711   8.186   4.353   5.550
 8577POPC   PO453712   8.169   4.331   5.850
 8577POPC   GL153713   8.193   4.334   6.150
 8577POPC   GL253714   8.304   4.290   6.150
 8577POPC   C1A53715   8.225   4.284   6.450
 8577POPC   D2A53716   8.172   4.303   6.750
 8577POPC   C3A53717   8.147   4.308   7.050
 8577POPC   C4A53718   8.185   4.319   7.350
 8577POPC   C1B53719   8.424   4.270   6.450
 8577POPC   C2B53720   8.475   4.279   6.750
 8577POPC   C3B53721   8.464   4.350   7.050
 8577POPC   C4B53722   8.434   4.340   7.350
 8578POPC   NC353723  11.267  12.825   5.550
 8578POPC   PO453724  11.330  12.897   5.850
 8578POPC   GL153725  11.329  12.822   6.150
 8578POPC   GL253726  11.259  12.717   6.150
 8578POPC   C1A53727  11.334  12.803   6.450
 8578POPC   D2A53728  11.253  12.855   6.750
 8578POPC   C3A53729  11.349  12.877   7.050
 8578POPC   C4A53730  11.308  12.882   7.350
 8578POPC   C1B53731  11.232  12.603   6.450
 8578POPC   C2B53732  11.217  12.581   6.750
 8578POPC   C3B53733  11.195  12.579   7.050
 8578POPC   C4B53734  11.221  12.675   7.350
 8579POPC   NC353735  35.365  44.627   5.550
 8579POPC   PO453736  35.393  44.672   5.850
 8579POPC   GL153737  35.325  44.636   6.150
 8579POPC   GL253738  35.337  44.780   6.150
 8579POPC   C1A53739  35.340  44.670   6.450
 8579POPC   D2A53740  35.334  44.629   6.750
 8579POPC   C3A53741  35.355  44.613   7.050
 8579POPC   C4A53742  35.342  44.680   7.350
 8579POPC   C1B53743  35.317  44.958   6.450
 8579POPC   C2B53744  35.336  44.900   6.750
 8579POPC   C3B53745  35.368  44.888   7.050
 8579POPC   C4B53746  35.293  44.933   7.350
 8580POPC   NC353747  40.026  33.004   5.550
 8580POPC   PO453748  39.971  32.999   5.850
 8580POPC   GL153749  39.962  33.054   6.150
 8580POPC   GL253750  39.923  33.142   6.150
 8580POPC   C1A53751  39.961  32.976   6.450
 8580POPC   D2A53752  39.959  32.980   6.750
 8580POPC   C3A53753  39.982  33.026   7.050
 8580POPC   C4A53754  39.990  32.979   7.350
 8580POPC   C1B53755  39.894  33.239   6.450
 8580POPC   C2B53756  39.904  33.199   6.750
 8580POPC   C3B53757  39.886  33.196   7.050
 8580POPC   C4B53758  39.911  33.236   7.350
 8581POPC   NC353759   4.362  39.215   5.550
 8581POPC   PO453760   4.355  39.242   5.850
 8581POPC   GL153761   4.327  39.186   6.150
 8581POPC   GL253762   4.307  39.132   6.150
 8581POPC   C1A53763   4.339  39.221   6.450
 8581POPC   D2A53764   4.282  39.248   6.750
 8581POPC   C3A53765   4.315  39.227   7.050
 8581POPC   C4A53766   4.328  39.261   7.350
 8581POPC   C1B53767   4.330  38.964   6.450
 8581POPC   C2B53768   4.350  39.012   6.750
 8581POPC   C3B53769   4.339  38.955   7.050
 8581POPC   C4B53770   4.356  38.957   7.350
 8582POPC   NC353771  27.629   1.185   5.550
 8582POPC   PO453772  27.570   1.210   5.850
 8582POPC   GL153773  27.591   1.172   6.150
 8582POPC   GL253774  27.739   1.204   6.150
 8582POPC   C1A53775  27.566   1.242   6.450
 8582POPC   D2A53776  27.553   1.249   6.750
 8582POPC   C3A53777  27.551   1.190   7.050
 8582POPC   C4A53778  27.564   1.164   7.350
 8582POPC   C1B53779  27.781   1.147   6.450
 8582POPC   C2B53780  27.815   1.114   6.750
 8582POPC   C3B53781  27.810   1.106   7.050
 8582POPC   C4B53782  27.787   1.120   7.350
 8583POPC   NC353783   8.984  37.713   5.550
 8583POPC   PO453784   8.958  37.657   5.850
 8583POPC   GL153785   8.941  37.727   6.150
 8583POPC   GL253786   8.945  37.580   6.150
 8583POPC   C1A53787   8.938  37.692   6.450
 8583POPC   D2A53788   8.967  37.644   6.750
 8583POPC   C3A53789   8.988  37.714   7.050
 8583POPC   C4A53790   8.984  37.639   7.350
 8583POPC   C1B53791   9.029  37.389   6.450
 8583POPC   C2B53792   8.998  37.427   6.750
 8583POPC   C3B53793   8.957  37.422   7.050
 8583POPC   C4B53794   9.011  37.420   7.350
 8584POPC   NC353795   5.850  42.336   5.550
 8584POPC   PO453796   5.840  42.377   5.850
 8584POPC   GL153797   5.900  42.314   6.150
 8584POPC   GL253798   5.828  42.211   6.150
 8584POPC   C1A53799   5.875  42.352   6.450
 8584POPC   D2A53800   5.871  42.381   6.750
 8584POPC   C3A53801   5.843  42.285   7.050
 8584POPC   C4A53802   5.869  42.293   7.350
 8584POPC   C1B53803   5.711  42.140   6.450
 8584POPC   C2B53804   5.744  42.129   6.750
 8584POPC   C3B53805   5.708  42.086   7.050
 8584POPC   C4B53806   5.746  42.119   7.350
 8585POPC   NC353807   8.234  22.172   5.550
 8585POPC   PO453808   8.207  22.122   5.850
 8585POPC   GL153809   8.153  22.127   6.150
 8585POPC   GL253810   8.146  22.019   6.150
 8585POPC   C1A53811   8.226  22.209   6.450
 8585POPC   D2A53812   8.150  22.123   6.750
 8585POPC   C3A53813   8.177  22.175   7.050
 8585POPC   C4A53814   8.216  22.186   7.350
 8585POPC   C1B53815   7.989  21.928   6.450
 8585POPC   C2B53816   8.029  21.981   6.750
 8585POPC   C3B53817   8.062  21.975   7.050
 8585POPC   C4B53818   7.991  21.962   7.350
 8586POPC   NC353819  44.655  22.169   5.550
 8586POPC   PO453820  44.628  22.137   5.850
 8586POPC   GL153821  44.672  22.207   6.150
 8586POPC   GL253822  44.635  22.285   6.150
 8586POPC   C1A53823  44.661  22.198   6.450
 8586POPC   D2A53824  44.657  22.209   6.750
 8586POPC   C3A53825  44.660  22.126   7.050
 8586POPC   C4A53826  44.642  22.119   7.350
 8586POPC   C1B53827  44.659  22.415   6.450
 8586POPC   C2B53828  44.630  22.369   6.750
 8586POPC   C3B53829  44.621  22.422   7.050
 8586POPC   C4B53830  44.667  22.436   7.350
 8587POPC   NC353831   5.892  41.579   5.550
 8587POPC   PO453832   5.866  41.597   5.850
 8587POPC   GL153833   5.904  41.576   6.150
 8587POPC   GL253834   5.707  41.588   6.150
 8587POPC   C1A53835   5.875  41.586   6.450
 8587POPC   D2A53836   5.826  41.540   6.750
 8587POPC   C3A53837   5.892  41.587   7.050
 8587POPC   C4A53838   5.905  41.583   7.350
 8587POPC   C1B53839   5.643  41.635   6.450
 8587POPC   C2B53840   5.612  41.619   6.750
 8587POPC   C3B53841   5.663  41.602   7.050
 8587POPC   C4B53842   5.608  41.624   7.350
 8588POPC   NC353843  21.400  19.835   5.550
 8588POPC   PO453844  21.384  19.798   5.850
 8588POPC   GL153845  21.428  19.871   6.150
 8588POPC   GL253846  21.427  19.703   6.150
 8588POPC   C1A53847  21.393  19.846   6.450
 8588POPC   D2A53848  21.404  19.873   6.750
 8588POPC   C3A53849  21.360  19.844   7.050
 8588POPC   C4A53850  21.338  19.854   7.350
 8588POPC   C1B53851  21.531  19.647   6.450
 8588POPC   C2B53852  21.491  19.625   6.750
 8588POPC   C3B53853  21.466  19.609   7.050
 8588POPC   C4B53854  21.473  19.606   7.350
 8589POPC   NC353855  29.097  27.609   5.550
 8589POPC   PO453856  29.138  27.639   5.850
 8589POPC   GL153857  29.173  27.582   6.150
 8589POPC   GL253858  29.147  27.484   6.150
 8589POPC   C1A53859  29.173  27.573   6.450
 8589POPC   D2A53860  29.189  27.577   6.750
 8589POPC   C3A53861  29.151  27.574   7.050
 8589POPC   C4A53862  29.133  27.567   7.350
 8589POPC   C1B53863  29.143  27.318   6.450
 8589POPC   C2B53864  29.208  27.319   6.750
 8589POPC   C3B53865  29.160  27.377   7.050
 8589POPC   C4B53866  29.195  27.336   7.350
 8590POPC   NC353867  20.646   2.717   5.550
 8590POPC   PO453868  20.607   2.762   5.850
 8590POPC   GL153869  20.639   2.743   6.150
 8590POPC   GL253870  20.582   2.616   6.150
 8590POPC   C1A53871  20.647   2.808   6.450
 8590POPC   D2A53872  20.630   2.767   6.750
 8590POPC   C3A53873  20.610   2.745   7.050
 8590POPC   C4A53874  20.566   2.802   7.350
 8590POPC   C1B53875  20.465   2.591   6.450
 8590POPC   C2B53876  20.444   2.535   6.750
 8590POPC   C3B53877  20.474   2.577   7.050
 8590POPC   C4B53878  20.461   2.539   7.350
 8591POPC   NC353879  32.977   5.094   5.550
 8591POPC   PO453880  33.034   5.121   5.850
 8591POPC   GL153881  32.986   5.126   6.150
 8591POPC   GL253882  33.163   5.153   6.150
 8591POPC   C1A53883  33.067   5.060   6.450
 8591POPC   D2A53884  33.011   5.060   6.750
 8591POPC   C3A53885  33.009   5.088   7.050
 8591POPC   C4A53886  33.016   5.079   7.350
 8591POPC   C1B53887  33.285   5.200   6.450
 8591POPC   C2B53888  33.282   5.170   6.750
 8591POPC   C3B53889  33.220   5.193   7.050
 8591POPC   C4B53890  33.284   5.145   7.350
 8592POPC   NC353891   0.403   3.587   5.550
 8592POPC   PO453892   0.409   3.507   5.850
 8592POPC   GL153893   0.417   3.588   6.150
 8592POPC   GL253894   0.399   3.407   6.150
 8592POPC   C1A53895   0.408   3.510   6.450
 8592POPC   D2A53896   0.460   3.507   6.750
 8592POPC   C3A53897   0.475   3.590   7.050
 8592POPC   C4A53898   0.444   3.584   7.350
 8592POPC   C1B53899   0.347   3.322   6.450
 8592POPC   C2B53900   0.275   3.279   6.750
 8592POPC   C3B53901   0.354   3.318   7.050
 8592POPC   C4B53902   0.321   3.350   7.350
 8593POPC   NC353903  25.234  25.279   5.550
 8593POPC   PO453904  25.252  25.276   5.850
 8593POPC   GL153905  25.285  25.268   6.150
 8593POPC   GL253906  25.123  25.163   6.150
 8593POPC   C1A53907  25.241  25.268   6.450
 8593POPC   D2A53908  25.294  25.298   6.750
 8593POPC   C3A53909  25.277  25.302   7.050
 8593POPC   C4A53910  25.220  25.270   7.350
 8593POPC   C1B53911  25.054  25.128   6.450
 8593POPC   C2B53912  25.053  25.174   6.750
 8593POPC   C3B53913  25.017  25.152   7.050
 8593POPC   C4B53914  25.050  25.118   7.350
 8594POPC   NC353915  42.361  12.115   5.550
 8594POPC   PO453916  42.337  12.072   5.850
 8594POPC   GL153917  42.335  12.063   6.150
 8594POPC   GL253918  42.475  12.085   6.150
 8594POPC   C1A53919  42.379  12.034   6.450
 8594POPC   D2A53920  42.377  12.112   6.750
 8594POPC   C3A53921  42.295  12.059   7.050
 8594POPC   C4A53922  42.341  12.118   7.350
 8594POPC   C1B53923  42.567  12.142   6.450
 8594POPC   C2B53924  42.585  12.169   6.750
 8594POPC   C3B53925  42.577  12.172   7.050
 8594POPC   C4B53926  42.592  12.177   7.350
 8595POPC   NC353927  14.395   4.272   5.550
 8595POPC   PO453928  14.359   4.268   5.850
 8595POPC   GL153929  14.437   4.300   6.150
 8595POPC   GL253930  14.477   4.169   6.150
 8595POPC   C1A53931  14.448   4.298   6.450
 8595POPC   D2A53932  14.402   4.340   6.750
 8595POPC   C3A53933  14.451   4.303   7.050
 8595POPC   C4A53934  14.422   4.356   7.350
 8595POPC   C1B53935  14.516   4.113   6.450
 8595POPC   C2B53936  14.519   4.104   6.750
 8595POPC   C3B53937  14.460   4.122   7.050
 8595POPC   C4B53938  14.516   4.084   7.350
 8596POPC   NC353939  24.526  28.356   5.550
 8596POPC   PO453940  24.501  28.369   5.850
 8596POPC   GL153941  24.495  28.413   6.150
 8596POPC   GL253942  24.408  28.448   6.150
 8596POPC   C1A53943  24.494  28.366   6.450
 8596POPC   D2A53944  24.534  28.349   6.750
 8596POPC   C3A53945  24.490  28.347   7.050
 8596POPC   C4A53946  24.455  28.381   7.350
 8596POPC   C1B53947  24.336  28.627   6.450
 8596POPC   C2B53948  24.362  28.602   6.750
 8596POPC   C3B53949  24.384  28.619   7.050
 8596POPC   C4B53950  24.347  28.602   7.350
 8597POPC   NC353951   2.766  30.656   5.550
 8597POPC   PO453952   2.731  30.666   5.850
 8597POPC   GL153953   2.756  30.702   6.150
 8597POPC   GL253954   2.811  30.818   6.150
 8597POPC   C1A53955   2.733  30.689   6.450
 8597POPC   D2A53956   2.758  30.732   6.750
 8597POPC   C3A53957   2.777  30.680   7.050
 8597POPC   C4A53958   2.733  30.708   7.350
 8597POPC   C1B53959   2.737  30.975   6.450
 8597POPC   C2B53960   2.732  30.918   6.750
 8597POPC   C3B53961   2.772  30.957   7.050
 8597POPC   C4B53962   2.737  30.947   7.350
 8598POPC   NC353963   5.126  28.337   5.550
 8598POPC   PO453964   5.082  28.328   5.850
 8598POPC   GL153965   5.116  28.404   6.150
 8598POPC   GL253966   5.151  28.286   6.150
 8598POPC   C1A53967   5.135  28.344   6.450
 8598POPC   D2A53968   5.138  28.401   6.750
 8598POPC   C3A53969   5.123  28.397   7.050
 8598POPC   C4A53970   5.104  28.355   7.350
 8598POPC   C1B53971   5.229  28.214   6.450
 8598POPC   C2B53972   5.214  28.225   6.750
 8598POPC   C3B53973   5.289  28.180   7.050
 8598POPC   C4B53974   5.270  28.178   7.350
 8599POPC   NC353975  33.835  43.885   5.550
 8599POPC   PO453976  33.760  43.910   5.850
 8599POPC   GL153977  33.809  43.852   6.150
 8599POPC   GL253978  33.826  43.749   6.150
 8599POPC   C1A53979  33.792  43.926   6.450
 8599POPC   D2A53980  33.819  43.935   6.750
 8599POPC   C3A53981  33.778  43.930   7.050
 8599POPC   C4A53982  33.835  43.912   7.350
 8599POPC   C1B53983  33.858  43.591   6.450
 8599POPC   C2B53984  33.848  43.597   6.750
 8599POPC   C3B53985  33.853  43.665   7.050
 8599POPC   C4B53986  33.815  43.666   7.350
 8600POPC   NC353987  32.230  22.186   5.550
 8600POPC   PO453988  32.203  22.163   5.850
 8600POPC   GL153989  32.232  22.126   6.150
 8600POPC   GL253990  32.258  22.004   6.150
 8600POPC   C1A53991  32.226  22.209   6.450
 8600POPC   D2A53992  32.242  22.174   6.750
 8600POPC   C3A53993  32.225  22.120   7.050
 8600POPC   C4A53994  32.251  22.164   7.350
 8600POPC   C1B53995  32.248  21.912   6.450
 8600POPC   C2B53996  32.170  21.896   6.750
 8600POPC   C3B53997  32.209  21.961   7.050
 8600POPC   C4B53998  32.199  21.939   7.350
 8601POPC   NC353999  31.447  35.372   5.550
 8601POPC   PO454000  31.484  35.343   5.850
 8601POPC   GL154001  31.459  35.322   6.150
 8601POPC   GL254002  31.341  35.426   6.150
 8601POPC   C1A54003  31.481  35.314   6.450
 8601POPC   D2A54004  31.522  35.327   6.750
 8601POPC   C3A54005  31.429  35.321   7.050
 8601POPC   C4A54006  31.481  35.397   7.350
 8601POPC   C1B54007  31.255  35.585   6.450
 8601POPC   C2B54008  31.308  35.560   6.750
 8601POPC   C3B54009  31.290  35.527   7.050
 8601POPC   C4B54010  31.279  35.510   7.350
 8602POPC   NC354011  15.948  21.368   5.550
 8602POPC   PO454012  15.973  21.428   5.850
 8602POPC   GL154013  15.914  21.411   6.150
 8602POPC   GL254014  16.063  21.371   6.150
 8602POPC   C1A54015  15.967  21.433   6.450
 8602POPC   D2A54016  15.983  21.430   6.750
 8602POPC   C3A54017  15.954  21.363   7.050
 8602POPC   C4A54018  15.934  21.359   7.350
 8602POPC   C1B54019  16.142  21.226   6.450
 8602POPC   C2B54020  16.165  21.311   6.750
 8602POPC   C3B54021  16.213  21.295   7.050
 8602POPC   C4B54022  16.146  21.242   7.350
 8603POPC   NC354023  33.000  22.155   5.550
 8603POPC   PO454024  33.045  22.191   5.850
 8603POPC   GL154025  33.021  22.142   6.150
 8603POPC   GL254026  32.976  22.036   6.150
 8603POPC   C1A54027  32.989  22.195   6.450
 8603POPC   D2A54028  33.020  22.159   6.750
 8603POPC   C3A54029  33.005  22.122   7.050
 8603POPC   C4A54030  33.052  22.207   7.350
 8603POPC   C1B54031  32.787  22.028   6.450
 8603POPC   C2B54032  32.788  21.963   6.750
 8603POPC   C3B54033  32.866  21.995   7.050
 8603POPC   C4B54034  32.820  21.959   7.350
 8604POPC   NC354035  20.631  12.097   5.550
 8604POPC   PO454036  20.586  12.115   5.850
 8604POPC   GL154037  20.654  12.105   6.150
 8604POPC   GL254038  20.586  12.178   6.150
 8604POPC   C1A54039  20.561  12.074   6.450
 8604POPC   D2A54040  20.610  12.095   6.750
 8604POPC   C3A54041  20.637  12.081   7.050
 8604POPC   C4A54042  20.591  12.093   7.350
 8604POPC   C1B54043  20.577  12.295   6.450
 8604POPC   C2B54044  20.538  12.346   6.750
 8604POPC   C3B54045  20.567  12.297   7.050
 8604POPC   C4B54046  20.547  12.369   7.350
 8605POPC   NC354047  14.405  21.370   5.550
 8605POPC   PO454048  14.354  21.370   5.850
 8605POPC   GL154049  14.453  21.360   6.150
 8605POPC   GL254050  14.308  21.427   6.150
 8605POPC   C1A54051  14.433  21.376   6.450
 8605POPC   D2A54052  14.381  21.436   6.750
 8605POPC   C3A54053  14.354  21.391   7.050
 8605POPC   C4A54054  14.426  21.397   7.350
 8605POPC   C1B54055  14.138  21.400   6.450
 8605POPC   C2B54056  14.165  21.456   6.750
 8605POPC   C3B54057  14.188  21.460   7.050
 8605POPC   C4B54058  14.139  21.406   7.350
 8606POPC   NC354059  10.502   4.295   5.550
 8606POPC   PO454060  10.515   4.341   5.850
 8606POPC   GL154061  10.540   4.307   6.150
 8606POPC   GL254062  10.652   4.345   6.150
 8606POPC   C1A54063  10.527   4.360   6.450
 8606POPC   D2A54064  10.492   4.271   6.750
 8606POPC   C3A54065  10.535   4.338   7.050
 8606POPC   C4A54066  10.485   4.338   7.350
 8606POPC   C1B54067  10.743   4.355   6.450
 8606POPC   C2B54068  10.756   4.387   6.750
 8606POPC   C3B54069  10.772   4.343   7.050
 8606POPC   C4B54070  10.786   4.382   7.350
 8607POPC   NC354071  27.634  29.183   5.550
 8607POPC   PO454072  27.592  29.182   5.850
 8607POPC   GL154073  27.603  29.108   6.150
 8607POPC   GL254074  27.499  29.095   6.150
 8607POPC   C1A54075  27.579  29.108   6.450
 8607POPC   D2A54076  27.571  29.180   6.750
 8607POPC   C3A54077  27.565  29.189   7.050
 8607POPC   C4A54078  27.608  29.172   7.350
 8607POPC   C1B54079  27.344  29.035   6.450
 8607POPC   C2B54080  27.341  29.026   6.750
 8607POPC   C3B54081  27.418  28.972   7.050
 8607POPC   C4B54082  27.408  28.995   7.350
 8608POPC   NC354083  29.883   8.927   5.550
 8608POPC   PO454084  29.954   9.020   5.850
 8608POPC   GL154085  29.938   8.938   6.150
 8608POPC   GL254086  29.861   9.068   6.150
 8608POPC   C1A54087  29.898   8.983   6.450
 8608POPC   D2A54088  29.903   9.004   6.750
 8608POPC   C3A54089  29.897   8.980   7.050
 8608POPC   C4A54090  29.902   8.967   7.350
 8608POPC   C1B54091  29.832   9.183   6.450
 8608POPC   C2B54092  29.894   9.170   6.750
 8608POPC   C3B54093  29.827   9.237   7.050
 8608POPC   C4B54094  29.838   9.203   7.350
 8609POPC   NC354095  10.489  13.595   5.550
 8609POPC   PO454096  10.497  13.639   5.850
 8609POPC   GL154097  10.564  13.625   6.150
 8609POPC   GL254098  10.446  13.516   6.150
 8609POPC   C1A54099  10.549  13.673   6.450
 8609POPC   D2A54100  10.525  13.653   6.750
 8609POPC   C3A54101  10.499  13.669   7.050
 8609POPC   C4A54102  10.502  13.616   7.350
 8609POPC   C1B54103  10.339  13.443   6.450
 8609POPC   C2B54104  10.313  13.481   6.750
 8609POPC   C3B54105  10.355  13.500   7.050
 8609POPC   C4B54106  10.369  13.438   7.350
 8610POPC   NC354107  13.616   9.743   5.550
 8610POPC   PO454108  13.586   9.786   5.850
 8610POPC   GL154109  13.663   9.751   6.150
 8610POPC   GL254110  13.547   9.660   6.150
 8610POPC   C1A54111  13.675   9.703   6.450
 8610POPC   D2A54112  13.635   9.755   6.750
 8610POPC   C3A54113  13.642   9.747   7.050
 8610POPC   C4A54114  13.582   9.747   7.350
 8610POPC   C1B54115  13.423   9.609   6.450
 8610POPC   C2B54116  13.424   9.611   6.750
 8610POPC   C3B54117  13.445   9.604   7.050
 8610POPC   C4B54118  13.425   9.602   7.350
 8611POPC   NC354119  36.124  42.382   5.550
 8611POPC   PO454120  36.136  42.359   5.850
 8611POPC   GL154121  36.165  42.352   6.150
 8611POPC   GL254122  35.967  42.324   6.150
 8611POPC   C1A54123  36.120  42.349   6.450
 8611POPC   D2A54124  36.174  42.306   6.750
 8611POPC   C3A54125  36.092  42.370   7.050
 8611POPC   C4A54126  36.086  42.338   7.350
 8611POPC   C1B54127  35.926  42.200   6.450
 8611POPC   C2B54128  35.896  42.267   6.750
 8611POPC   C3B54129  35.871  42.234   7.050
 8611POPC   C4B54130  35.878  42.249   7.350
 8612POPC   NC354131  32.202   3.536   5.550
 8612POPC   PO454132  32.273   3.512   5.850
 8612POPC   GL154133  32.271   3.538   6.150
 8612POPC   GL254134  32.167   3.665   6.150
 8612POPC   C1A54135  32.198   3.494   6.450
 8612POPC   D2A54136  32.236   3.527   6.750
 8612POPC   C3A54137  32.268   3.531   7.050
 8612POPC   C4A54138  32.226   3.546   7.350
 8612POPC   C1B54139  32.018   3.659   6.450
 8612POPC   C2B54140  32.083   3.693   6.750
 8612POPC   C3B54141  32.031   3.721   7.050
 8612POPC   C4B54142  32.083   3.718   7.350
 8613POPC   NC354143  19.841   5.090   5.550
 8613POPC   PO454144  19.841   5.081   5.850
 8613POPC   GL154145  19.844   5.107   6.150
 8613POPC   GL254146  19.967   5.075   6.150
 8613POPC   C1A54147  19.835   5.056   6.450
 8613POPC   D2A54148  19.875   5.090   6.750
 8613POPC   C3A54149  19.788   5.051   7.050
 8613POPC   C4A54150  19.819   5.045   7.350
 8613POPC   C1B54151  20.047   5.081   6.450
 8613POPC   C2B54152  20.121   5.140   6.750
 8613POPC   C3B54153  20.074   5.102   7.050
 8613POPC   C4B54154  20.112   5.142   7.350
 8614POPC   NC354155  28.344  36.913   5.550
 8614POPC   PO454156  28.366  36.912   5.850
 8614POPC   GL154157  28.415  36.902   6.150
 8614POPC   GL254158  28.355  37.046   6.150
 8614POPC   C1A54159  28.396  36.858   6.450
 8614POPC   D2A54160  28.413  36.873   6.750
 8614POPC   C3A54161  28.413  36.950   7.050
 8614POPC   C4A54162  28.322  36.856   7.350
 8614POPC   C1B54163  28.352  37.177   6.450
 8614POPC   C2B54164  28.363  37.188   6.750
 8614POPC   C3B54165  28.372  37.120   7.050
 8614POPC   C4B54166  28.348  37.124   7.350
 8615POPC   NC354167  40.016  14.452   5.550
 8615POPC   PO454168  39.964  14.381   5.850
 8615POPC   GL154169  40.050  14.393   6.150
 8615POPC   GL254170  39.906  14.366   6.150
 8615POPC   C1A54171  40.024  14.354   6.450
 8615POPC   D2A54172  39.979  14.438   6.750
 8615POPC   C3A54173  39.979  14.365   7.050
 8615POPC   C4A54174  40.054  14.413   7.350
 8615POPC   C1B54175  39.750  14.307   6.450
 8615POPC   C2B54176  39.733  14.302   6.750
 8615POPC   C3B54177  39.730  14.284   7.050
 8615POPC   C4B54178  39.749  14.316   7.350
 8616POPC   NC354179  11.329   8.959   5.550
 8616POPC   PO454180  11.275   8.980   5.850
 8616POPC   GL154181  11.287   8.930   6.150
 8616POPC   GL254182  11.428   8.858   6.150
 8616POPC   C1A54183  11.346   8.928   6.450
 8616POPC   D2A54184  11.257   8.927   6.750
 8616POPC   C3A54185  11.347   8.929   7.050
 8616POPC   C4A54186  11.284   8.943   7.350
 8616POPC   C1B54187  11.509   8.815   6.450
 8616POPC   C2B54188  11.459   8.783   6.750
 8616POPC   C3B54189  11.463   8.767   7.050
 8616POPC   C4B54190  11.437   8.834   7.350
 8617POPC   NC354191  12.091  26.072   5.550
 8617POPC   PO454192  12.050  26.087   5.850
 8617POPC   GL154193  12.060  26.088   6.150
 8617POPC   GL254194  12.210  26.104   6.150
 8617POPC   C1A54195  12.032  26.025   6.450
 8617POPC   D2A54196  12.034  26.002   6.750
 8617POPC   C3A54197  12.052  26.086   7.050
 8617POPC   C4A54198  12.082  26.042   7.350
 8617POPC   C1B54199  12.289  26.113   6.450
 8617POPC   C2B54200  12.304  26.156   6.750
 8617POPC   C3B54201  12.349  26.168   7.050
 8617POPC   C4B54202  12.269  26.103   7.350
 8618POPC   NC354203   3.582  21.406   5.550
 8618POPC   PO454204   3.496  21.400   5.850
 8618POPC   GL154205   3.548  21.354   6.150
 8618POPC   GL254206   3.499  21.504   6.150
 8618POPC   C1A54207   3.591  21.428   6.450
 8618POPC   D2A54208   3.567  21.369   6.750
 8618POPC   C3A54209   3.561  21.400   7.050
 8618POPC   C4A54210   3.505  21.421   7.350
 8618POPC   C1B54211   3.445  21.658   6.450
 8618POPC   C2B54212   3.426  21.664   6.750
 8618POPC   C3B54213   3.458  21.643   7.050
 8618POPC   C4B54214   3.415  21.657   7.350
 8619POPC   NC354215  42.384  38.413   5.550
 8619POPC   PO454216  42.381  38.485   5.850
 8619POPC   GL154217  42.342  38.466   6.150
 8619POPC   GL254218  42.229  38.315   6.150
 8619POPC   C1A54219  42.380  38.499   6.450
 8619POPC   D2A54220  42.351  38.499   6.750
 8619POPC   C3A54221  42.311  38.502   7.050
 8619POPC   C4A54222  42.332  38.464   7.350
 8619POPC   C1B54223  42.199  38.301   6.450
 8619POPC   C2B54224  42.194  38.276   6.750
 8619POPC   C3B54225  42.171  38.255   7.050
 8619POPC   C4B54226  42.140  38.282   7.350
 8620POPC   NC354227   1.982   1.978   5.550
 8620POPC   PO454228   1.976   1.969   5.850
 8620POPC   GL154229   1.994   1.975   6.150
 8620POPC   GL254230   2.024   1.903   6.150
 8620POPC   C1A54231   2.019   2.024   6.450
 8620POPC   D2A54232   2.015   1.944   6.750
 8620POPC   C3A54233   1.973   1.988   7.050
 8620POPC   C4A54234   1.944   2.024   7.350
 8620POPC   C1B54235   2.115   1.800   6.450
 8620POPC   C2B54236   2.117   1.771   6.750
 8620POPC   C3B54237   2.092   1.751   7.050
 8620POPC   C4B54238   2.082   1.786   7.350
 8621POPC   NC354239  22.962   5.113   5.550
 8621POPC   PO454240  22.935   5.079   5.850
 8621POPC   GL154241  22.959   5.057   6.150
 8621POPC   GL254242  22.783   5.024   6.150
 8621POPC   C1A54243  22.902   5.140   6.450
 8621POPC   D2A54244  22.938   5.066   6.750
 8621POPC   C3A54245  22.957   5.123   7.050
 8621POPC   C4A54246  22.910   5.136   7.350
 8621POPC   C1B54247  22.709   5.040   6.450
 8621POPC   C2B54248  22.719   5.025   6.750
 8621POPC   C3B54249  22.663   5.080   7.050
 8621POPC   C4B54250  22.741   5.019   7.350
 8622POPC   NC354251  22.946  43.923   5.550
 8622POPC   PO454252  22.889  43.921   5.850
 8622POPC   GL154253  22.930  43.856   6.150
 8622POPC   GL254254  22.872  44.044   6.150
 8622POPC   C1A54255  22.960  43.918   6.450
 8622POPC   D2A54256  22.944  43.921   6.750
 8622POPC   C3A54257  22.895  43.886   7.050
 8622POPC   C4A54258  22.974  43.882   7.350
 8622POPC   C1B54259  22.839  44.127   6.450
 8622POPC   C2B54260  22.803  44.122   6.750
 8622POPC   C3B54261  22.832  44.136   7.050
 8622POPC   C4B54262  22.817  44.103   7.350
 8623POPC   NC354263  33.822  26.820   5.550
 8623POPC   PO454264  33.815  26.822   5.850
 8623POPC   GL154265  33.770  26.825   6.150
 8623POPC   GL254266  33.724  26.710   6.150
 8623POPC   C1A54267  33.819  26.840   6.450
 8623POPC   D2A54268  33.779  26.861   6.750
 8623POPC   C3A54269  33.814  26.810   7.050
 8623POPC   C4A54270  33.809  26.824   7.350
 8623POPC   C1B54271  33.767  26.537   6.450
 8623POPC   C2B54272  33.765  26.548   6.750
 8623POPC   C3B54273  33.715  26.619   7.050
 8623POPC   C4B54274  33.722  26.572   7.350
 8624POPC   NC354275  41.522  29.173   5.550
 8624POPC   PO454276  41.601  29.097   5.850
 8624POPC   GL154277  41.542  29.138   6.150
 8624POPC   GL254278  41.500  29.273   6.150
 8624POPC   C1A54279  41.595  29.142   6.450
 8624POPC   D2A54280  41.534  29.125   6.750
 8624POPC   C3A54281  41.510  29.157   7.050
 8624POPC   C4A54282  41.550  29.186   7.350
 8624POPC   C1B54283  41.408  29.316   6.450
 8624POPC   C2B54284  41.377  29.396   6.750
 8624POPC   C3B54285  41.380  29.352   7.050
 8624POPC   C4B54286  41.444  29.400   7.350
 8625POPC   NC354287  13.580  15.913   5.550
 8625POPC   PO454288  13.599  15.913   5.850
 8625POPC   GL154289  13.608  15.919   6.150
 8625POPC   GL254290  13.522  16.013   6.150
 8625POPC   C1A54291  13.602  15.918   6.450
 8625POPC   D2A54292  13.625  15.913   6.750
 8625POPC   C3A54293  13.579  15.990   7.050
 8625POPC   C4A54294  13.629  15.920   7.350
 8625POPC   C1B54295  13.456  16.114   6.450
 8625POPC   C2B54296  13.523  16.105   6.750
 8625POPC   C3B54297  13.506  16.196   7.050
 8625POPC   C4B54298  13.506  16.162   7.350
 8626POPC   NC354299  28.346  12.835   5.550
 8626POPC   PO454300  28.320  12.888   5.850
 8626POPC   GL154301  28.415  12.851   6.150
 8626POPC   GL254302  28.290  12.912   6.150
 8626POPC   C1A54303  28.406  12.865   6.450
 8626POPC   D2A54304  28.342  12.807   6.750
 8626POPC   C3A54305  28.390  12.888   7.050
 8626POPC   C4A54306  28.416  12.802   7.350
 8626POPC   C1B54307  28.129  13.050   6.450
 8626POPC   C2B54308  28.177  12.997   6.750
 8626POPC   C3B54309  28.211  13.047   7.050
 8626POPC   C4B54310  28.123  12.994   7.350
 8627POPC   NC354311  33.819   5.097   5.550
 8627POPC   PO454312  33.774   5.115   5.850
 8627POPC   GL154313  33.808   5.052   6.150
 8627POPC   GL254314  33.701   5.152   6.150
 8627POPC   C1A54315  33.823   5.107   6.450
 8627POPC   D2A54316  33.765   5.087   6.750
 8627POPC   C3A54317  33.779   5.121   7.050
 8627POPC   C4A54318  33.764   5.066   7.350
 8627POPC   C1B54319  33.656   5.299   6.450
 8627POPC   C2B54320  33.573   5.243   6.750
 8627POPC   C3B54321  33.656   5.256   7.050
 8627POPC   C4B54322  33.635   5.280   7.350
 8628POPC   NC354323  26.815  24.452   5.550
 8628POPC   PO454324  26.849  24.521   5.850
 8628POPC   GL154325  26.795  24.445   6.150
 8628POPC   GL254326  26.916  24.502   6.150
 8628POPC   C1A54327  26.808  24.493   6.450
 8628POPC   D2A54328  26.860  24.497   6.750
 8628POPC   C3A54329  26.839  24.517   7.050
 8628POPC   C4A54330  26.773  24.522   7.350
 8628POPC   C1B54331  27.010  24.582   6.450
 8628POPC   C2B54332  27.009  24.599   6.750
 8628POPC   C3B54333  27.074  24.565   7.050
 8628POPC   C4B54334  27.064  24.642   7.350
 8629POPC   NC354335   4.352  10.546   5.550
 8629POPC   PO454336   4.295  10.569   5.850
 8629POPC   GL154337   4.343  10.521   6.150
 8629POPC   GL254338   4.320  10.450   6.150
 8629POPC   C1A54339   4.338  10.539   6.450
 8629POPC   D2A54340   4.271  10.486   6.750
 8629POPC   C3A54341   4.277  10.519   7.050
 8629POPC   C4A54342   4.354  10.568   7.350
 8629POPC   C1B54343   4.346  10.263   6.450
 8629POPC   C2B54344   4.403  10.235   6.750
 8629POPC   C3B54345   4.372  10.278   7.050
 8629POPC   C4B54346   4.353  10.282   7.350
 8630POPC   NC354347  42.353  23.693   5.550
 8630POPC   PO454348  42.377  23.703   5.850
 8630POPC   GL154349  42.376  23.710   6.150
 8630POPC   GL254350  42.264  23.832   6.150
 8630POPC   C1A54351  42.295  23.717   6.450
 8630POPC   D2A54352  42.343  23.744   6.750
 8630POPC   C3A54353  42.299  23.683   7.050
 8630POPC   C4A54354  42.366  23.680   7.350
 8630POPC   C1B54355  42.262  23.928   6.450
 8630POPC   C2B54356  42.250  23.921   6.750
 8630POPC   C3B54357  42.287  23.963   7.050
 8630POPC   C4B54358  42.213  23.908   7.350
 8631POPC   NC354359   5.082   0.465   5.550
 8631POPC   PO454360   5.075   0.389   5.850
 8631POPC   GL154361   5.086   0.427   6.150
 8631POPC   GL254362   5.104   0.565   6.150
 8631POPC   C1A54363   5.064   0.450   6.450
 8631POPC   D2A54364   5.111   0.396   6.750
 8631POPC   C3A54365   5.060   0.459   7.050
 8631POPC   C4A54366   5.075   0.473   7.350
 8631POPC   C1B54367   5.070   0.690   6.450
 8631POPC   C2B54368   5.068   0.701   6.750
 8631POPC   C3B54369   5.051   0.668   7.050
 8631POPC   C4B54370   5.059   0.643   7.350
 8632POPC   NC354371  26.026  26.865   5.550
 8632POPC   PO454372  26.012  26.863   5.850
 8632POPC   GL154373  26.075  26.807   6.150
 8632POPC   GL254374  25.980  26.721   6.150
 8632POPC   C1A54375  26.084  26.866   6.450
 8632POPC   D2A54376  26.027  26.849   6.750
 8632POPC   C3A54377  26.045  26.825   7.050
 8632POPC   C4A54378  26.076  26.841   7.350
 8632POPC   C1B54379  25.943  26.571   6.450
 8632POPC   C2B54380  25.998  26.540   6.750
 8632POPC   C3B54381  25.960  26.578   7.050
 8632POPC   C4B54382  25.940  26.590   7.350
 8633POPC   NC354383   8.985  10.545   5.550
 8633POPC   PO454384   8.995  10.549   5.850
 8633POPC   GL154385   8.933  10.492   6.150
 8633POPC   GL254386   9.070  10.623   6.150
 8633POPC   C1A54387   8.989  10.509   6.450
 8633POPC   D2A54388   8.950  10.540   6.750
 8633POPC   C3A54389   8.930  10.525   7.050
 8633POPC   C4A54390   9.018  10.538   7.350
 8633POPC   C1B54391   9.141  10.682   6.450
 8633POPC   C2B54392   9.074  10.700   6.750
 8633POPC   C3B54393   9.157  10.766   7.050
 8633POPC   C4B54394   9.103  10.753   7.350
 8634POPC   NC354395  15.193  16.695   5.550
 8634POPC   PO454396  15.205  16.705   5.850
 8634POPC   GL154397  15.216  16.685   6.150
 8634POPC   GL254398  15.226  16.851   6.150
 8634POPC   C1A54399  15.140  16.725   6.450
 8634POPC   D2A54400  15.199  16.761   6.750
 8634POPC   C3A54401  15.174  16.738   7.050
 8634POPC   C4A54402  15.186  16.768   7.350
 8634POPC   C1B54403  15.235  17.000   6.450
 8634POPC   C2B54404  15.227  16.921   6.750
 8634POPC   C3B54405  15.233  16.964   7.050
 8634POPC   C4B54406  15.292  16.936   7.350
 8635POPC   NC354407  29.165   8.963   5.550
 8635POPC   PO454408  29.192   8.963   5.850
 8635POPC   GL154409  29.128   8.996   6.150
 8635POPC   GL254410  29.153   8.810   6.150
 8635POPC   C1A54411  29.150   8.966   6.450
 8635POPC   D2A54412  29.166   8.982   6.750
 8635POPC   C3A54413  29.168   8.992   7.050
 8635POPC   C4A54414  29.183   9.002   7.350
 8635POPC   C1B54415  29.220   8.711   6.450
 8635POPC   C2B54416  29.173   8.707   6.750
 8635POPC   C3B54417  29.152   8.691   7.050
 8635POPC   C4B54418  29.188   8.736   7.350
 8636POPC   NC354419  15.179  22.193   5.550
 8636POPC   PO454420  15.200  22.142   5.850
 8636POPC   GL154421  15.224  22.142   6.150
 8636POPC   GL254422  15.207  22.309   6.150
 8636POPC   C1A54423  15.129  22.114   6.450
 8636POPC   D2A54424  15.203  22.189   6.750
 8636POPC   C3A54425  15.179  22.201   7.050
 8636POPC   C4A54426  15.182  22.116   7.350
 8636POPC   C1B54427  15.257  22.400   6.450
 8636POPC   C2B54428  15.241  22.422   6.750
 8636POPC   C3B54429  15.184  22.443   7.050
 8636POPC   C4B54430  15.213  22.428   7.350
 8637POPC   NC354431  44.653  28.326   5.550
 8637POPC   PO454432  44.693  28.403   5.850
 8637POPC   GL154433  44.665  28.343   6.150
 8637POPC   GL254434  44.660  28.482   6.150
 8637POPC   C1A54435  44.628  28.365   6.450
 8637POPC   D2A54436  44.695  28.340   6.750
 8637POPC   C3A54437  44.668  28.357   7.050
 8637POPC   C4A54438  44.641  28.330   7.350
 8637POPC   C1B54439  44.652  28.646   6.450
 8637POPC   C2B54440  44.628  28.653   6.750
 8637POPC   C3B54441  44.610  28.619   7.050
 8637POPC   C4B54442  44.659  28.661   7.350
 8638POPC   NC354443  27.585  44.669   5.550
 8638POPC   PO454444  27.580  44.673   5.850
 8638POPC   GL154445  27.638  44.662   6.150
 8638POPC   GL254446  27.643  44.571   6.150
 8638POPC   C1A54447  27.568  44.638   6.450
 8638POPC   D2A54448  27.574  44.627   6.750
 8638POPC   C3A54449  27.564  44.674   7.050
 8638POPC   C4A54450  27.567  44.657   7.350
 8638POPC   C1B54451  27.706  44.388   6.450
 8638POPC   C2B54452  27.631  44.411   6.750
 8638POPC   C3B54453  27.668  44.455   7.050
 8638POPC   C4B54454  27.683  44.377   7.350
 8639POPC   NC354455  16.689  39.191   5.550
 8639POPC   PO454456  16.698  39.206   5.850
 8639POPC   GL154457  16.746  39.183   6.150
 8639POPC   GL254458  16.752  39.314   6.150
 8639POPC   C1A54459  16.775  39.200   6.450
 8639POPC   D2A54460  16.702  39.225   6.750
 8639POPC   C3A54461  16.751  39.201   7.050
 8639POPC   C4A54462  16.756  39.210   7.350
 8639POPC   C1B54463  16.749  39.441   6.450
 8639POPC   C2B54464  16.748  39.438   6.750
 8639POPC   C3B54465  16.846  39.521   7.050
 8639POPC   C4B54466  16.794  39.475   7.350
 8640POPC   NC354467  12.123   3.590   5.550
 8640POPC   PO454468  12.029   3.511   5.850
 8640POPC   GL154469  12.031   3.566   6.150
 8640POPC   GL254470  12.010   3.399   6.150
 8640POPC   C1A54471  12.086   3.581   6.450
 8640POPC   D2A54472  12.029   3.529   6.750
 8640POPC   C3A54473  12.124   3.492   7.050
 8640POPC   C4A54474  12.099   3.582   7.350
 8640POPC   C1B54475  12.071   3.330   6.450
 8640POPC   C2B54476  12.009   3.267   6.750
 8640POPC   C3B54477  12.027   3.278   7.050
 8640POPC   C4B54478  12.055   3.270   7.350
 8641POPC   NC354479  39.997  13.636   5.550
 8641POPC   PO454480  40.003  13.579   5.850
 8641POPC   GL154481  40.031  13.598   6.150
 8641POPC   GL254482  39.837  13.645   6.150
 8641POPC   C1A54483  40.051  13.578   6.450
 8641POPC   D2A54484  39.997  13.593   6.750
 8641POPC   C3A54485  40.019  13.641   7.050
 8641POPC   C4A54486  40.022  13.594   7.350
 8641POPC   C1B54487  39.769  13.609   6.450
 8641POPC   C2B54488  39.732  13.591   6.750
 8641POPC   C3B54489  39.712  13.633   7.050
 8641POPC   C4B54490  39.745  13.647   7.350
 8642POPC   NC354491  42.333  26.045   5.550
 8642POPC   PO454492  42.307  26.019   5.850
 8642POPC   GL154493  42.314  26.079   6.150
 8642POPC   GL254494  42.439  25.995   6.150
 8642POPC   C1A54495  42.383  26.001   6.450
 8642POPC   D2A54496  42.315  26.045   6.750
 8642POPC   C3A54497  42.315  26.058   7.050
 8642POPC   C4A54498  42.359  26.017   7.350
 8642POPC   C1B54499  42.606  25.994   6.450
 8642POPC   C2B54500  42.574  26.049   6.750
 8642POPC   C3B54501  42.625  25.998   7.050
 8642POPC   C4B54502  42.542  26.026   7.350
 8643POPC   NC354503  23.690  28.355   5.550
 8643POPC   PO454504  23.734  28.407   5.850
 8643POPC   GL154505  23.740  28.385   6.150
 8643POPC   GL254506  23.728  28.197   6.150
 8643POPC   C1A54507  23.728  28.389   6.450
 8643POPC   D2A54508  23.726  28.352   6.750
 8643POPC   C3A54509  23.710  28.401   7.050
 8643POPC   C4A54510  23.740  28.412   7.350
 8643POPC   C1B54511  23.632  28.124   6.450
 8643POPC   C2B54512  23.697  28.095   6.750
 8643POPC   C3B54513  23.698  28.149   7.050
 8643POPC   C4B54514  23.657  28.174   7.350
 8644POPC   NC354515   2.787  11.317   5.550
 8644POPC   PO454516   2.751  11.263   5.850
 8644POPC   GL154517   2.738  11.333   6.150
 8644POPC   GL254518   2.750  11.419   6.150
 8644POPC   C1A54519   2.796  11.324   6.450
 8644POPC   D2A54520   2.770  11.318   6.750
 8644POPC   C3A54521   2.787  11.288   7.050
 8644POPC   C4A54522   2.753  11.277   7.350
 8644POPC   C1B54523   2.740  11.509   6.450
 8644POPC   C2B54524   2.676  11.544   6.750
 8644POPC   C3B54525   2.712  11.531   7.050
 8644POPC   C4B54526   2.756  11.498   7.350
 8645POPC   NC354527  41.608  10.526   5.550
 8645POPC   PO454528  41.565  10.509   5.850
 8645POPC   GL154529  41.558  10.486   6.150
 8645POPC   GL254530  41.479  10.409   6.150
 8645POPC   C1A54531  41.548  10.501   6.450
 8645POPC   D2A54532  41.513  10.547   6.750
 8645POPC   C3A54533  41.553  10.523   7.050
 8645POPC   C4A54534  41.559  10.572   7.350
 8645POPC   C1B54535  41.386  10.354   6.450
 8645POPC   C2B54536  41.379  10.360   6.750
 8645POPC   C3B54537  41.404  10.398   7.050
 8645POPC   C4B54538  41.359  10.372   7.350
 8646POPC   NC354539  29.964  43.082   5.550
 8646POPC   PO454540  29.946  43.112   5.850
 8646POPC   GL154541  29.933  43.112   6.150
 8646POPC   GL254542  29.920  43.282   6.150
 8646POPC   C1A54543  29.896  43.130   6.450
 8646POPC   D2A54544  29.883  43.125   6.750
 8646POPC   C3A54545  29.902  43.152   7.050
 8646POPC   C4A54546  29.951  43.061   7.350
 8646POPC   C1B54547  29.935  43.368   6.450
 8646POPC   C2B54548  29.940  43.379   6.750
 8646POPC   C3B54549  29.952  43.310   7.050
 8646POPC   C4B54550  29.871  43.373   7.350
 8647POPC   NC354551  36.118  25.227   5.550
 8647POPC   PO454552  36.101  25.293   5.850
 8647POPC   GL154553  36.167  25.251   6.150
 8647POPC   GL254554  35.993  25.258   6.150
 8647POPC   C1A54555  36.175  25.296   6.450
 8647POPC   D2A54556  36.169  25.226   6.750
 8647POPC   C3A54557  36.092  25.253   7.050
 8647POPC   C4A54558  36.152  25.225   7.350
 8647POPC   C1B54559  35.869  25.171   6.450
 8647POPC   C2B54560  35.915  25.220   6.750
 8647POPC   C3B54561  35.923  25.177   7.050
 8647POPC   C4B54562  35.860  25.205   7.350
 8648POPC   NC354563  21.340  15.996   5.550
 8648POPC   PO454564  21.435  15.981   5.850
 8648POPC   GL154565  21.411  15.946   6.150
 8648POPC   GL254566  21.513  15.871   6.150
 8648POPC   C1A54567  21.400  15.940   6.450
 8648POPC   D2A54568  21.350  15.977   6.750
 8648POPC   C3A54569  21.408  15.961   7.050
 8648POPC   C4A54570  21.360  16.004   7.350
 8648POPC   C1B54571  21.608  15.873   6.450
 8648POPC   C2B54572  21.637  15.852   6.750
 8648POPC   C3B54573  21.645  15.909   7.050
 8648POPC   C4B54574  21.570  15.858   7.350
 8649POPC   NC354575  40.017  42.295   5.550
 8649POPC   PO454576  39.978  42.353   5.850
 8649POPC   GL154577  39.963  42.291   6.150
 8649POPC   GL254578  40.083  42.380   6.150
 8649POPC   C1A54579  40.048  42.335   6.450
 8649POPC   D2A54580  40.015  42.289   6.750
 8649POPC   C3A54581  40.051  42.323   7.050
 8649POPC   C4A54582  39.998  42.292   7.350
 8649POPC   C1B54583  40.285  42.432   6.450
 8649POPC   C2B54584  40.271  42.400   6.750
 8649POPC   C3B54585  40.237  42.465   7.050
 8649POPC   C4B54586  40.226  42.377   7.350
 8650POPC   NC354587  30.682  36.130   5.550
 8650POPC   PO454588  30.665  36.161   5.850
 8650POPC   GL154589  30.694  36.117   6.150
 8650POPC   GL254590  30.562  36.178   6.150
 8650POPC   C1A54591  30.731  36.156   6.450
 8650POPC   D2A54592  30.659  36.171   6.750
 8650POPC   C3A54593  30.700  36.173   7.050
 8650POPC   C4A54594  30.675  36.111   7.350
 8650POPC   C1B54595  30.484  36.253   6.450
 8650POPC   C2B54596  30.501  36.185   6.750
 8650POPC   C3B54597  30.417  36.243   7.050
 8650POPC   C4B54598  30.488  36.222   7.350
 8651POPC   NC354599  39.262  31.454   5.550
 8651POPC   PO454600  39.242  31.443   5.850
 8651POPC   GL154601  39.218  31.489   6.150
 8651POPC   GL254602  39.315  31.571   6.150
 8651POPC   C1A54603  39.185  31.486   6.450
 8651POPC   D2A54604  39.268  31.459   6.750
 8651POPC   C3A54605  39.221  31.473   7.050
 8651POPC   C4A54606  39.224  31.462   7.350
 8651POPC   C1B54607  39.334  31.724   6.450
 8651POPC   C2B54608  39.354  31.697   6.750
 8651POPC   C3B54609  39.378  31.659   7.050
 8651POPC   C4B54610  39.294  31.702   7.350
 8652POPC   NC354611  43.880   2.014   5.550
 8652POPC   PO454612  43.926   1.985   5.850
 8652POPC   GL154613  43.891   1.950   6.150
 8652POPC   GL254614  43.825   1.917   6.150
 8652POPC   C1A54615  43.935   1.947   6.450
 8652POPC   D2A54616  43.843   1.973   6.750
 8652POPC   C3A54617  43.885   1.991   7.050
 8652POPC   C4A54618  43.932   1.981   7.350
 8652POPC   C1B54619  43.803   1.753   6.450
 8652POPC   C2B54620  43.798   1.717   6.750
 8652POPC   C3B54621  43.773   1.729   7.050
 8652POPC   C4B54622  43.767   1.720   7.350
 8653POPC   NC354623  35.371  40.009   5.550
 8653POPC   PO454624  35.359  39.965   5.850
 8653POPC   GL154625  35.310  40.007   6.150
 8653POPC   GL254626  35.252  39.937   6.150
 8653POPC   C1A54627  35.304  40.050   6.450
 8653POPC   D2A54628  35.317  40.044   6.750
 8653POPC   C3A54629  35.324  40.022   7.050
 8653POPC   C4A54630  35.394  40.039   7.350
 8653POPC   C1B54631  35.112  39.828   6.450
 8653POPC   C2B54632  35.197  39.850   6.750
 8653POPC   C3B54633  35.194  39.803   7.050
 8653POPC   C4B54634  35.115  39.847   7.350
 8654POPC   NC354635  37.637  12.114   5.550
 8654POPC   PO454636  37.708  12.096   5.850
 8654POPC   GL154637  37.704  12.086   6.150
 8654POPC   GL254638  37.758  12.067   6.150
 8654POPC   C1A54639  37.706  12.055   6.450
 8654POPC   D2A54640  37.653  12.091   6.750
 8654POPC   C3A54641  37.692  12.027   7.050
 8654POPC   C4A54642  37.678  12.052   7.350
 8654POPC   C1B54643  37.910  12.090   6.450
 8654POPC   C2B54644  37.921  12.088   6.750
 8654POPC   C3B54645  37.918  12.114   7.050
 8654POPC   C4B54646  37.957  12.132   7.350
 8655POPC   NC354647  32.232  14.429   5.550
 8655POPC   PO454648  32.240  14.400   5.850
 8655POPC   GL154649  32.245  14.430   6.150
 8655POPC   GL254650  32.334  14.343   6.150
 8655POPC   C1A54651  32.226  14.378   6.450
 8655POPC   D2A54652  32.287  14.365   6.750
 8655POPC   C3A54653  32.203  14.358   7.050
 8655POPC   C4A54654  32.232  14.360   7.350
 8655POPC   C1B54655  32.430  14.155   6.450
 8655POPC   C2B54656  32.350  14.243   6.750
 8655POPC   C3B54657  32.425  14.190   7.050
 8655POPC   C4B54658  32.390  14.194   7.350
 8656POPC   NC354659  18.252  15.960   5.550
 8656POPC   PO454660  18.330  15.932   5.850
 8656POPC   GL154661  18.266  15.915   6.150
 8656POPC   GL254662  18.207  16.099   6.150
 8656POPC   C1A54663  18.234  15.987   6.450
 8656POPC   D2A54664  18.328  15.964   6.750
 8656POPC   C3A54665  18.241  15.910   7.050
 8656POPC   C4A54666  18.246  15.925   7.350
 8656POPC   C1B54667  18.191  16.155   6.450
 8656POPC   C2B54668  18.113  16.130   6.750
 8656POPC   C3B54669  18.102  16.144   7.050
 8656POPC   C4B54670  18.116  16.185   7.350
 8657POPC   NC354671  25.290  42.375   5.550
 8657POPC   PO454672  25.242  42.377   5.850
 8657POPC   GL154673  25.226  42.304   6.150
 8657POPC   GL254674  25.405  42.406   6.150
 8657POPC   C1A54675  25.254  42.314   6.450
 8657POPC   D2A54676  25.237  42.290   6.750
 8657POPC   C3A54677  25.217  42.328   7.050
 8657POPC   C4A54678  25.287  42.373   7.350
 8657POPC   C1B54679  25.465  42.422   6.450
 8657POPC   C2B54680  25.472  42.394   6.750
 8657POPC   C3B54681  25.499  42.393   7.050
 8657POPC   C4B54682  25.521  42.381   7.350
 8658POPC   NC354683  33.837  32.240   5.550
 8658POPC   PO454684  33.758  32.293   5.850
 8658POPC   GL154685  33.802  32.295   6.150
 8658POPC   GL254686  33.735  32.203   6.150
 8658POPC   C1A54687  33.796  32.249   6.450
 8658POPC   D2A54688  33.764  32.277   6.750
 8658POPC   C3A54689  33.766  32.297   7.050
 8658POPC   C4A54690  33.794  32.296   7.350
 8658POPC   C1B54691  33.586  32.092   6.450
 8658POPC   C2B54692  33.552  32.072   6.750
 8658POPC   C3B54693  33.632  32.121   7.050
 8658POPC   C4B54694  33.535  32.091   7.350
 8659POPC   NC354695  24.492   5.915   5.550
 8659POPC   PO454696  24.530   5.887   5.850
 8659POPC   GL154697  24.492   5.912   6.150
 8659POPC   GL254698  24.565   5.994   6.150
 8659POPC   C1A54699  24.444   5.881   6.450
 8659POPC   D2A54700  24.480   5.826   6.750
 8659POPC   C3A54701  24.443   5.858   7.050
 8659POPC   C4A54702  24.492   5.819   7.350
 8659POPC   C1B54703  24.667   6.125   6.450
 8659POPC   C2B54704  24.612   6.083   6.750
 8659POPC   C3B54705  24.629   6.115   7.050
 8659POPC   C4B54706  24.591   6.060   7.350
 8660POPC   NC354707  17.556  36.129   5.550
 8660POPC   PO454708  17.539  36.101   5.850
 8660POPC   GL154709  17.474  36.149   6.150
 8660POPC   GL254710  17.421  36.220   6.150
 8660POPC   C1A54711  17.532  36.146   6.450
 8660POPC   D2A54712  17.532  36.122   6.750
 8660POPC   C3A54713  17.543  36.106   7.050
 8660POPC   C4A54714  17.475  36.171   7.350
 8660POPC   C1B54715  17.369  36.283   6.450
 8660POPC   C2B54716  17.379  36.283   6.750
 8660POPC   C3B54717  17.334  36.307   7.050
 8660POPC   C4B54718  17.388  36.290   7.350
 8661POPC   NC354719  38.450  33.067   5.550
 8661POPC   PO454720  38.454  33.025   5.850
 8661POPC   GL154721  38.503  32.987   6.150
 8661POPC   GL254722  38.515  32.942   6.150
 8661POPC   C1A54723  38.438  33.019   6.450
 8661POPC   D2A54724  38.467  32.976   6.750
 8661POPC   C3A54725  38.495  32.980   7.050
 8661POPC   C4A54726  38.463  33.029   7.350
 8661POPC   C1B54727  38.637  32.895   6.450
 8661POPC   C2B54728  38.660  32.919   6.750
 8661POPC   C3B54729  38.640  32.933   7.050
 8661POPC   C4B54730  38.674  32.880   7.350
 8662POPC   NC354731  31.443  31.460   5.550
 8662POPC   PO454732  31.485  31.458   5.850
 8662POPC   GL154733  31.478  31.463   6.150
 8662POPC   GL254734  31.557  31.468   6.150
 8662POPC   C1A54735  31.509  31.443   6.450
 8662POPC   D2A54736  31.482  31.455   6.750
 8662POPC   C3A54737  31.469  31.490   7.050
 8662POPC   C4A54738  31.432  31.473   7.350
 8662POPC   C1B54739  31.736  31.390   6.450
 8662POPC   C2B54740  31.670  31.384   6.750
 8662POPC   C3B54741  31.748  31.402   7.050
 8662POPC   C4B54742  31.725  31.325   7.350
 8663POPC   NC354743  36.156  28.414   5.550
 8663POPC   PO454744  36.081  28.404   5.850
 8663POPC   GL154745  36.101  28.389   6.150
 8663POPC   GL254746  36.282  28.411   6.150
 8663POPC   C1A54747  36.175  28.370   6.450
 8663POPC   D2A54748  36.174  28.418   6.750
 8663POPC   C3A54749  36.124  28.358   7.050
 8663POPC   C4A54750  36.168  28.403   7.350
 8663POPC   C1B54751  36.405  28.399   6.450
 8663POPC   C2B54752  36.340  28.469   6.750
 8663POPC   C3B54753  36.330  28.435   7.050
 8663POPC   C4B54754  36.346  28.448   7.350
 8664POPC   NC354755  10.565  43.885   5.550
 8664POPC   PO454756  10.480  43.844   5.850
 8664POPC   GL154757  10.482  43.880   6.150
 8664POPC   GL254758  10.594  43.812   6.150
 8664POPC   C1A54759  10.484  43.850   6.450
 8664POPC   D2A54760  10.491  43.856   6.750
 8664POPC   C3A54761  10.495  43.852   7.050
 8664POPC   C4A54762  10.543  43.856   7.350
 8664POPC   C1B54763  10.703  43.800   6.450
 8664POPC   C2B54764  10.727  43.770   6.750
 8664POPC   C3B54765  10.754  43.784   7.050
 8664POPC   C4B54766  10.694  43.780   7.350
 8665POPC   NC354767  14.400  11.330   5.550
 8665POPC   PO454768  14.354  11.346   5.850
 8665POPC   GL154769  14.357  11.330   6.150
 8665POPC   GL254770  14.447  11.468   6.150
 8665POPC   C1A54771  14.372  11.292   6.450
 8665POPC   D2A54772  14.383  11.262   6.750
 8665POPC   C3A54773  14.441  11.300   7.050
 8665POPC   C4A54774  14.445  11.343   7.350
 8665POPC   C1B54775  14.477  11.504   6.450
 8665POPC   C2B54776  14.486  11.549   6.750
 8665POPC   C3B54777  14.466  11.523   7.050
 8665POPC   C4B54778  14.462  11.579   7.350
 8666POPC   NC354779   0.487  11.325   5.550
 8666POPC   PO454780   0.457  11.293   5.850
 8666POPC   GL154781   0.440  11.280   6.150
 8666POPC   GL254782   0.515  11.402   6.150
 8666POPC   C1A54783   0.391  11.272   6.450
 8666POPC   D2A54784   0.432  11.289   6.750
 8666POPC   C3A54785   0.478  11.259   7.050
 8666POPC   C4A54786   0.458  11.284   7.350
 8666POPC   C1B54787   0.649  11.489   6.450
 8666POPC   C2B54788   0.642  11.428   6.750
 8666POPC   C3B54789   0.578  11.458   7.050
 8666POPC   C4B54790   0.594  11.442   7.350
 8667POPC   NC354791  35.364  41.562   5.550
 8667POPC   PO454792  35.311  41.592   5.850
 8667POPC   GL154793  35.343  41.600   6.150
 8667POPC   GL254794  35.277  41.514   6.150
 8667POPC   C1A54795  35.336  41.591   6.450
 8667POPC   D2A54796  35.365  41.518   6.750
 8667POPC   C3A54797  35.343  41.571   7.050
 8667POPC   C4A54798  35.360  41.526   7.350
 8667POPC   C1B54799  35.073  41.515   6.450
 8667POPC   C2B54800  35.134  41.544   6.750
 8667POPC   C3B54801  35.136  41.489   7.050
 8667POPC   C4B54802  35.061  41.537   7.350
 8668POPC   NC354803  30.675  25.232   5.550
 8668POPC   PO454804  30.733  25.220   5.850
 8668POPC   GL154805  30.730  25.254   6.150
 8668POPC   GL254806  30.635  25.219   6.150
 8668POPC   C1A54807  30.656  25.275   6.450
 8668POPC   D2A54808  30.729  25.286   6.750
 8668POPC   C3A54809  30.713  25.233   7.050
 8668POPC   C4A54810  30.659  25.310   7.350
 8668POPC   C1B54811  30.485  25.127   6.450
 8668POPC   C2B54812  30.570  25.103   6.750
 8668POPC   C3B54813  30.527  25.067   7.050
 8668POPC   C4B54814  30.557  25.131   7.350
 8669POPC   NC354815  40.830  44.628   5.550
 8669POPC   PO454816  40.797  44.661   5.850
 8669POPC   GL154817  40.798  44.687   6.150
 8669POPC   GL254818  40.819  44.790   6.150
 8669POPC   C1A54819  40.795  44.619   6.450
 8669POPC   D2A54820  40.799  44.675   6.750
 8669POPC   C3A54821  40.784  44.653   7.050
 8669POPC   C4A54822  40.754  44.660   7.350
 8669POPC   C1B54823  40.747  44.956   6.450
 8669POPC   C2B54824  40.739  44.923   6.750
 8669POPC   C3B54825  40.743  44.878   7.050
 8669POPC   C4B54826  40.825  44.899   7.350
 8670POPC   NC354827  37.655  42.292   5.550
 8670POPC   PO454828  37.668  42.324   5.850
 8670POPC   GL154829  37.667  42.337   6.150
 8670POPC   GL254830  37.610  42.394   6.150
 8670POPC   C1A54831  37.715  42.363   6.450
 8670POPC   D2A54832  37.704  42.314   6.750
 8670POPC   C3A54833  37.715  42.318   7.050
 8670POPC   C4A54834  37.647  42.316   7.350
 8670POPC   C1B54835  37.495  42.495   6.450
 8670POPC   C2B54836  37.442  42.404   6.750
 8670POPC   C3B54837  37.483  42.433   7.050
 8670POPC   C4B54838  37.452  42.423   7.350
 8671POPC   NC354839  32.254  18.326   5.550
 8671POPC   PO454840  32.277  18.290   5.850
 8671POPC   GL154841  32.270  18.280   6.150
 8671POPC   GL254842  32.284  18.431   6.150
 8671POPC   C1A54843  32.211  18.284   6.450
 8671POPC   D2A54844  32.257  18.307   6.750
 8671POPC   C3A54845  32.215  18.287   7.050
 8671POPC   C4A54846  32.286  18.272   7.350
 8671POPC   C1B54847  32.233  18.551   6.450
 8671POPC   C2B54848  32.201  18.528   6.750
 8671POPC   C3B54849  32.194  18.574   7.050
 8671POPC   C4B54850  32.184  18.531   7.350
 8672POPC   NC354851  34.616  38.425   5.550
 8672POPC   PO454852  34.621  38.436   5.850
 8672POPC   GL154853  34.539  38.485   6.150
 8672POPC   GL254854  34.569  38.339   6.150
 8672POPC   C1A54855  34.530  38.417   6.450
 8672POPC   D2A54856  34.602  38.481   6.750
 8672POPC   C3A54857  34.548  38.450   7.050
 8672POPC   C4A54858  34.566  38.458   7.350
 8672POPC   C1B54859  34.462  38.221   6.450
 8672POPC   C2B54860  34.514  38.231   6.750
 8672POPC   C3B54861  34.513  38.206   7.050
 8672POPC   C4B54862  34.517  38.182   7.350
 8673POPC   NC354863  16.687  26.050   5.550
 8673POPC   PO454864  16.769  26.018   5.850
 8673POPC   GL154865  16.725  26.068   6.150
 8673POPC   GL254866  16.732  26.119   6.150
 8673POPC   C1A54867  16.780  26.017   6.450
 8673POPC   D2A54868  16.724  26.060   6.750
 8673POPC   C3A54869  16.712  26.030   7.050
 8673POPC   C4A54870  16.741  26.036   7.350
 8673POPC   C1B54871  16.715  26.327   6.450
 8673POPC   C2B54872  16.770  26.263   6.750
 8673POPC   C3B54873  16.721  26.314   7.050
 8673POPC   C4B54874  16.755  26.341   7.350
 8674POPC   NC354875  37.649  11.340   5.550
 8674POPC   PO454876  37.662  11.273   5.850
 8674POPC   GL154877  37.634  11.258   6.150
 8674POPC   GL254878  37.641  11.173   6.150
 8674POPC   C1A54879  37.712  11.273   6.450
 8674POPC   D2A54880  37.727  11.266   6.750
 8674POPC   C3A54881  37.662  11.295   7.050
 8674POPC   C4A54882  37.668  11.281   7.350
 8674POPC   C1B54883  37.517  11.080   6.450
 8674POPC   C2B54884  37.599  11.108   6.750
 8674POPC   C3B54885  37.605  11.098   7.050
 8674POPC   C4B54886  37.514  11.103   7.350
 8675POPC   NC354887  25.298  14.409   5.550
 8675POPC   PO454888  25.244  14.438   5.850
 8675POPC   GL154889  25.266  14.375   6.150
 8675POPC   GL254890  25.337  14.274   6.150
 8675POPC   C1A54891  25.277  14.397   6.450
 8675POPC   D2A54892  25.255  14.386   6.750
 8675POPC   C3A54893  25.267  14.397   7.050
 8675POPC   C4A54894  25.254  14.393   7.350
 8675POPC   C1B54895  25.443  14.209   6.450
 8675POPC   C2B54896  25.411  14.254   6.750
 8675POPC   C3B54897  25.418  14.183   7.050
 8675POPC   C4B54898  25.399  14.239   7.350
 8676POPC   NC354899   7.394   1.244   5.550
 8676POPC   PO454900   7.419   1.186   5.850
 8676POPC   GL154901   7.372   1.217   6.150
 8676POPC   GL254902   7.342   1.143   6.150
 8676POPC   C1A54903   7.397   1.165   6.450
 8676POPC   D2A54904   7.383   1.175   6.750
 8676POPC   C3A54905   7.431   1.252   7.050
 8676POPC   C4A54906   7.461   1.236   7.350
 8676POPC   C1B54907   7.221   0.997   6.450
 8676POPC   C2B54908   7.211   1.000   6.750
 8676POPC   C3B54909   7.234   1.089   7.050
 8676POPC   C4B54910   7.271   1.004   7.350
 8677POPC   NC354911  15.214  12.839   5.550
 8677POPC   PO454912  15.216  12.869   5.850
 8677POPC   GL154913  15.184  12.822   6.150
 8677POPC   GL254914  15.069  12.753   6.150
 8677POPC   C1A54915  15.134  12.869   6.450
 8677POPC   D2A54916  15.135  12.890   6.750
 8677POPC   C3A54917  15.196  12.886   7.050
 8677POPC   C4A54918  15.186  12.902   7.350
 8677POPC   C1B54919  14.994  12.698   6.450
 8677POPC   C2B54920  14.953  12.747   6.750
 8677POPC   C3B54921  14.985  12.677   7.050
 8677POPC   C4B54922  14.926  12.727   7.350
 8678POPC   NC354923  41.558   1.203   5.550
 8678POPC   PO454924  41.518   1.199   5.850
 8678POPC   GL154925  41.561   1.182   6.150
 8678POPC   GL254926  41.623   1.265   6.150
 8678POPC   C1A54927  41.605   1.202   6.450
 8678POPC   D2A54928  41.536   1.259   6.750
 8678POPC   C3A54929  41.591   1.239   7.050
 8678POPC   C4A54930  41.526   1.186   7.350
 8678POPC   C1B54931  41.741   1.438   6.450
 8678POPC   C2B54932  41.731   1.358   6.750
 8678POPC   C3B54933  41.767   1.355   7.050
 8678POPC   C4B54934  41.720   1.358   7.350
 8679POPC   NC354935   5.101  22.889   5.550
 8679POPC   PO454936   5.090  22.911   5.850
 8679POPC   GL154937   5.143  22.923   6.150
 8679POPC   GL254938   5.132  22.817   6.150
 8679POPC   C1A54939   5.080  22.931   6.450
 8679POPC   D2A54940   5.103  22.949   6.750
 8679POPC   C3A54941   5.083  22.976   7.050
 8679POPC   C4A54942   5.132  22.963   7.350
 8679POPC   C1B54943   5.077  22.722   6.450
 8679POPC   C2B54944   5.095  22.733   6.750
 8679POPC   C3B54945   5.094  22.669   7.050
 8679POPC   C4B54946   5.157  22.736   7.350
 8680POPC   NC354947   8.203  36.168   5.550
 8680POPC   PO454948   8.222  36.090   5.850
 8680POPC   GL154949   8.209  36.165   6.150
 8680POPC   GL254950   8.075  36.194   6.150
 8680POPC   C1A54951   8.173  36.137   6.450
 8680POPC   D2A54952   8.151  36.176   6.750
 8680POPC   C3A54953   8.186  36.139   7.050
 8680POPC   C4A54954   8.202  36.149   7.350
 8680POPC   C1B54955   7.996  36.293   6.450
 8680POPC   C2B54956   8.024  36.322   6.750
 8680POPC   C3B54957   8.007  36.319   7.050
 8680POPC   C4B54958   7.994  36.321   7.350
 8681POPC   NC354959  17.498  40.046   5.550
 8681POPC   PO454960  17.514  39.957   5.850
 8681POPC   GL154961  17.495  39.997   6.150
 8681POPC   GL254962  17.627  40.098   6.150
 8681POPC   C1A54963  17.510  40.030   6.450
 8681POPC   D2A54964  17.472  39.982   6.750
 8681POPC   C3A54965  17.503  39.982   7.050
 8681POPC   C4A54966  17.542  40.004   7.350
 8681POPC   C1B54967  17.719  40.083   6.450
 8681POPC   C2B54968  17.749  40.125   6.750
 8681POPC   C3B54969  17.786  40.134   7.050
 8681POPC   C4B54970  17.708  40.108   7.350
 8682POPC   NC354971   3.497   1.997   5.550
 8682POPC   PO454972   3.527   2.027   5.850
 8682POPC   GL154973   3.578   1.998   6.150
 8682POPC   GL254974   3.482   2.105   6.150
 8682POPC   C1A54975   3.499   2.028   6.450
 8682POPC   D2A54976   3.557   1.962   6.750
 8682POPC   C3A54977   3.551   1.949   7.050
 8682POPC   C4A54978   3.543   2.029   7.350
 8682POPC   C1B54979   3.306   2.165   6.450
 8682POPC   C2B54980   3.375   2.185   6.750
 8682POPC   C3B54981   3.323   2.118   7.050
 8682POPC   C4B54982   3.331   2.163   7.350
 8683POPC   NC354983  22.890  30.661   5.550
 8683POPC   PO454984  22.923  30.733   5.850
 8683POPC   GL154985  22.898  30.657   6.150
 8683POPC   GL254986  22.796  30.667   6.150
 8683POPC   C1A54987  22.908  30.669   6.450
 8683POPC   D2A54988  22.902  30.725   6.750
 8683POPC   C3A54989  22.919  30.692   7.050
 8683POPC   C4A54990  22.914  30.649   7.350
 8683POPC   C1B54991  22.670  30.634   6.450
 8683POPC   C2B54992  22.680  30.682   6.750
 8683POPC   C3B54993  22.707  30.708   7.050
 8683POPC   C4B54994  22.643  30.635   7.350
 8684POPC   NC354995  41.544  19.076   5.550
 8684POPC   PO454996  41.549  19.083   5.850
 8684POPC   GL154997  41.545  19.032   6.150
 8684POPC   GL254998  41.407  19.035   6.150
 8684POPC   C1A54999  41.579  19.045   6.450
 8684POPC   D2A55000  41.560  19.037   6.750
 8684POPC   C3A55001  41.565  19.011   7.050
 8684POPC   C4A55002  41.545  19.066   7.350
 8684POPC   C1B55003  41.316  19.073   6.450
 8684POPC   C2B55004  41.347  19.004   6.750
 8684POPC   C3B55005  41.308  19.078   7.050
 8684POPC   C4B55006  41.351  19.002   7.350
 8685POPC   NC355007  12.844  19.857   5.550
 8685POPC   PO455008  12.854  19.883   5.850
 8685POPC   GL155009  12.829  19.833   6.150
 8685POPC   GL255010  12.922  19.852   6.150
 8685POPC   C1A55011  12.862  19.809   6.450
 8685POPC   D2A55012  12.857  19.800   6.750
 8685POPC   C3A55013  12.836  19.832   7.050
 8685POPC   C4A55014  12.886  19.859   7.350
 8685POPC   C1B55015  13.043  19.948   6.450
 8685POPC   C2B55016  13.123  19.934   6.750
 8685POPC   C3B55017  13.049  19.874   7.050
 8685POPC   C4B55018  13.070  19.953   7.350
 8686POPC   NC355019  43.070   8.195   5.550
 8686POPC   PO455020  43.156   8.213   5.850
 8686POPC   GL155021  43.087   8.220   6.150
 8686POPC   GL255022  43.085   8.127   6.150
 8686POPC   C1A55023  43.139   8.222   6.450
 8686POPC   D2A55024  43.109   8.172   6.750
 8686POPC   C3A55025  43.144   8.172   7.050
 8686POPC   C4A55026  43.158   8.184   7.350
 8686POPC   C1B55027  43.013   8.018   6.450
 8686POPC   C2B55028  42.968   7.985   6.750
 8686POPC   C3B55029  42.951   7.999   7.050
 8686POPC   C4B55030  42.957   7.977   7.350
 8687POPC   NC355031   8.211   7.411   5.550
 8687POPC   PO455032   8.169   7.405   5.850
 8687POPC   GL155033   8.218   7.447   6.150
 8687POPC   GL255034   8.082   7.314   6.150
 8687POPC   C1A55035   8.162   7.437   6.450
 8687POPC   D2A55036   8.161   7.442   6.750
 8687POPC   C3A55037   8.213   7.455   7.050
 8687POPC   C4A55038   8.219   7.437   7.350
 8687POPC   C1B55039   7.952   7.244   6.450
 8687POPC   C2B55040   7.976   7.307   6.750
 8687POPC   C3B55041   8.038   7.248   7.050
 8687POPC   C4B55042   7.962   7.235   7.350
 8688POPC   NC355043  35.348   5.894   5.550
 8688POPC   PO455044  35.316   5.896   5.850
 8688POPC   GL155045  35.388   5.894   6.150
 8688POPC   GL255046  35.488   5.843   6.150
 8688POPC   C1A55047  35.323   5.876   6.450
 8688POPC   D2A55048  35.304   5.886   6.750
 8688POPC   C3A55049  35.376   5.862   7.050
 8688POPC   C4A55050  35.306   5.822   7.350
 8688POPC   C1B55051  35.582   5.774   6.450
 8688POPC   C2B55052  35.528   5.711   6.750
 8688POPC   C3B55053  35.614   5.752   7.050
 8688POPC   C4B55054  35.599   5.748   7.350
 8689POPC   NC355055  43.922  42.333   5.550
 8689POPC   PO455056  43.899  42.323   5.850
 8689POPC   GL155057  43.894  42.298   6.150
 8689POPC   GL255058  44.001  42.400   6.150
 8689POPC   C1A55059  43.856  42.342   6.450
 8689POPC   D2A55060  43.879  42.313   6.750
 8689POPC   C3A55061  43.857  42.293   7.050
 8689POPC   C4A55062  43.881  42.341   7.350
 8689POPC   C1B55063  44.038  42.521   6.450
 8689POPC   C2B55064  44.036  42.485   6.750
 8689POPC   C3B55065  44.045  42.491   7.050
 8689POPC   C4B55066  44.113  42.501   7.350
 8690POPC   NC355067  26.063  27.617   5.550
 8690POPC   PO455068  26.065  27.619   5.850
 8690POPC   GL155069  26.014  27.566   6.150
 8690POPC   GL255070  26.102  27.516   6.150
 8690POPC   C1A55071  26.029  27.554   6.450
 8690POPC   D2A55072  26.063  27.586   6.750
 8690POPC   C3A55073  26.022  27.637   7.050
 8690POPC   C4A55074  26.009  27.550   7.350
 8690POPC   C1B55075  26.266  27.468   6.450
 8690POPC   C2B55076  26.245  27.508   6.750
 8690POPC   C3B55077  26.231  27.481   7.050
 8690POPC   C4B55078  26.289  27.518   7.350
 8691POPC   NC355079  15.929  14.442   5.550
 8691POPC   PO455080  15.917  14.385   5.850
 8691POPC   GL155081  16.001  14.415   6.150
 8691POPC   GL255082  16.075  14.508   6.150
 8691POPC   C1A55083  15.914  14.366   6.450
 8691POPC   D2A55084  15.946  14.381   6.750
 8691POPC   C3A55085  15.981  14.356   7.050
 8691POPC   C4A55086  15.937  14.392   7.350
 8691POPC   C1B55087  16.069  14.579   6.450
 8691POPC   C2B55088  16.128  14.653   6.750
 8691POPC   C3B55089  16.080  14.626   7.050
 8691POPC   C4B55090  16.107  14.624   7.350
 8692POPC   NC355091  39.186  12.069   5.550
 8692POPC   PO455092  39.246  12.112   5.850
 8692POPC   GL155093  39.211  12.125   6.150
 8692POPC   GL255094  39.330  11.990   6.150
 8692POPC   C1A55095  39.196  12.037   6.450
 8692POPC   D2A55096  39.214  12.062   6.750
 8692POPC   C3A55097  39.269  12.123   7.050
 8692POPC   C4A55098  39.228  12.119   7.350
 8692POPC   C1B55099  39.418  11.907   6.450
 8692POPC   C2B55100  39.354  11.878   6.750
 8692POPC   C3B55101  39.415  11.874   7.050
 8692POPC   C4B55102  39.419  11.863   7.350
 8693POPC   NC355103   8.171  32.994   5.550
 8693POPC   PO455104   8.186  33.060   5.850
 8693POPC   GL155105   8.224  33.051   6.150
 8693POPC   GL255106   8.089  33.135   6.150
 8693POPC   C1A55107   8.158  33.023   6.450
 8693POPC   D2A55108   8.170  33.032   6.750
 8693POPC   C3A55109   8.198  33.056   7.050
 8693POPC   C4A55110   8.194  33.004   7.350
 8693POPC   C1B55111   8.021  33.268   6.450
 8693POPC   C2B55112   8.087  33.244   6.750
 8693POPC   C3B55113   8.038  33.218   7.050
 8693POPC   C4B55114   8.019  33.218   7.350
 8694POPC   NC355115  38.473  11.274   5.550
 8694POPC   PO455116  38.418  11.300   5.850
 8694POPC   GL155117  38.442  11.304   6.150
 8694POPC   GL255118  38.396  11.386   6.150
 8694POPC   C1A55119  38.405  11.250   6.450
 8694POPC   D2A55120  38.464  11.300   6.750
 8694POPC   C3A55121  38.409  11.271   7.050
 8694POPC   C4A55122  38.455  11.323   7.350
 8694POPC   C1B55123  38.272  11.468   6.450
 8694POPC   C2B55124  38.242  11.485   6.750
 8694POPC   C3B55125  38.229  11.400   7.050
 8694POPC   C4B55126  38.241  11.399   7.350
 8695POPC   NC355127  36.087   0.456   5.550
 8695POPC   PO455128  36.176   0.454   5.850
 8695POPC   GL155129  36.100   0.393   6.150
 8695POPC   GL255130  36.029   0.481   6.150
 8695POPC   C1A55131  36.116   0.426   6.450
 8695POPC   D2A55132  36.148   0.394   6.750
 8695POPC   C3A55133  36.084   0.433   7.050
 8695POPC   C4A55134  36.092   0.472   7.350
 8695POPC   C1B55135  35.867   0.441   6.450
 8695POPC   C2B55136  35.894   0.435   6.750
 8695POPC   C3B55137  35.851   0.451   7.050
 8695POPC   C4B55138  35.901   0.446   7.350
 8696POPC   NC355139  11.323  23.671   5.550
 8696POPC   PO455140  11.300  23.717   5.850
 8696POPC   GL155141  11.322  23.714   6.150
 8696POPC   GL255142  11.241  23.883   6.150
 8696POPC   C1A55143  11.339  23.725   6.450
 8696POPC   D2A55144  11.296  23.683   6.750
 8696POPC   C3A55145  11.331  23.762   7.050
 8696POPC   C4A55146  11.250  23.695   7.350
 8696POPC   C1B55147  11.249  23.972   6.450
 8696POPC   C2B55148  11.269  23.933   6.750
 8696POPC   C3B55149  11.271  23.957   7.050
 8696POPC   C4B55150  11.269  23.935   7.350
 8697POPC   NC355151  11.321  32.221   5.550
 8697POPC   PO455152  11.258  32.234   5.850
 8697POPC   GL155153  11.291  32.288   6.150
 8697POPC   GL255154  11.256  32.153   6.150
 8697POPC   C1A55155  11.276  32.286   6.450
 8697POPC   D2A55156  11.293  32.200   6.750
 8697POPC   C3A55157  11.303  32.255   7.050
 8697POPC   C4A55158  11.306  32.235   7.350
 8697POPC   C1B55159  11.183  32.000   6.450
 8697POPC   C2B55160  11.183  32.055   6.750
 8697POPC   C3B55161  11.194  31.990   7.050
 8697POPC   C4B55162  11.197  31.982   7.350
 8698POPC   NC355163  36.138  26.072   5.550
 8698POPC   PO455164  36.084  26.082   5.850
 8698POPC   GL155165  36.148  26.039   6.150
 8698POPC   GL255166  36.200  26.091   6.150
 8698POPC   C1A55167  36.138  26.016   6.450
 8698POPC   D2A55168  36.081  26.039   6.750
 8698POPC   C3A55169  36.143  26.011   7.050
 8698POPC   C4A55170  36.113  26.011   7.350
 8698POPC   C1B55171  36.318  26.235   6.450
 8698POPC   C2B55172  36.313  26.207   6.750
 8698POPC   C3B55173  36.290  26.168   7.050
 8698POPC   C4B55174  36.337  26.225   7.350
 8699POPC   NC355175  23.671  35.343   5.550
 8699POPC   PO455176  23.699  35.390   5.850
 8699POPC   GL155177  23.737  35.396   6.150
 8699POPC   GL255178  23.670  35.511   6.150
 8699POPC   C1A55179  23.709  35.308   6.450
 8699POPC   D2A55180  23.755  35.328   6.750
 8699POPC   C3A55181  23.698  35.384   7.050
 8699POPC   C4A55182  23.717  35.344   7.350
 8699POPC   C1B55183  23.551  35.522   6.450
 8699POPC   C2B55184  23.613  35.529   6.750
 8699POPC   C3B55185  23.582  35.604   7.050
 8699POPC   C4B55186  23.571  35.612   7.350
 8700POPC   NC355187  37.684  19.824   5.550
 8700POPC   PO455188  37.713  19.805   5.850
 8700POPC   GL155189  37.697  19.811   6.150
 8700POPC   GL255190  37.593  19.801   6.150
 8700POPC   C1A55191  37.701  19.840   6.450
 8700POPC   D2A55192  37.663  19.846   6.750
 8700POPC   C3A55193  37.725  19.817   7.050
 8700POPC   C4A55194  37.640  19.794   7.350
 8700POPC   C1B55195  37.432  19.891   6.450
 8700POPC   C2B55196  37.436  19.914   6.750
 8700POPC   C3B55197  37.389  19.839   7.050
 8700POPC   C4B55198  37.402  19.849   7.350
 8701POPC   NC355199   6.646  22.146   5.550
 8701POPC   PO455200   6.631  22.150   5.850
 8701POPC   GL155201   6.645  22.132   6.150
 8701POPC   GL255202   6.518  22.197   6.150
 8701POPC   C1A55203   6.606  22.169   6.450
 8701POPC   D2A55204   6.609  22.159   6.750
 8701POPC   C3A55205   6.621  22.156   7.050
 8701POPC   C4A55206   6.604  22.180   7.350
 8701POPC   C1B55207   6.406  22.183   6.450
 8701POPC   C2B55208   6.427  22.177   6.750
 8701POPC   C3B55209   6.352  22.230   7.050
 8701POPC   C4B55210   6.403  22.171   7.350
 8702POPC   NC355211  17.459   0.430   5.550
 8702POPC   PO455212  17.520   0.400   5.850
 8702POPC   GL155213  17.486   0.426   6.150
 8702POPC   GL255214  17.435   0.337   6.150
 8702POPC   C1A55215  17.485   0.485   6.450
 8702POPC   D2A55216  17.534   0.469   6.750
 8702POPC   C3A55217  17.533   0.434   7.050
 8702POPC   C4A55218  17.490   0.457   7.350
 8702POPC   C1B55219  17.341   0.299   6.450
 8702POPC   C2B55220  17.366   0.311   6.750
 8702POPC   C3B55221  17.305   0.248   7.050
 8702POPC   C4B55222  17.292   0.225   7.350
 8703POPC   NC355223   8.238  20.578   5.550
 8703POPC   PO455224   8.178  20.565   5.850
 8703POPC   GL155225   8.168  20.584   6.150
 8703POPC   GL255226   8.206  20.473   6.150
 8703POPC   C1A55227   8.158  20.618   6.450
 8703POPC   D2A55228   8.177  20.577   6.750
 8703POPC   C3A55229   8.198  20.642   7.050
 8703POPC   C4A55230   8.172  20.601   7.350
 8703POPC   C1B55231   8.208  20.315   6.450
 8703POPC   C2B55232   8.236  20.335   6.750
 8703POPC   C3B55233   8.153  20.360   7.050
 8703POPC   C4B55234   8.168  20.381   7.350
 8704POPC   NC355235  43.928  16.686   5.550
 8704POPC   PO455236  43.877  16.695   5.850
 8704POPC   GL155237  43.864  16.761   6.150
 8704POPC   GL255238  43.777  16.799   6.150
 8704POPC   C1A55239  43.915  16.766   6.450
 8704POPC   D2A55240  43.935  16.765   6.750
 8704POPC   C3A55241  43.872  16.723   7.050
 8704POPC   C4A55242  43.904  16.719   7.350
 8704POPC   C1B55243  43.662  16.855   6.450
 8704POPC   C2B55244  43.703  16.825   6.750
 8704POPC   C3B55245  43.648  16.865   7.050
 8704POPC   C4B55246  43.706  16.841   7.350
 8705POPC   NC355247  40.800  22.914   5.550
 8705POPC   PO455248  40.826  22.986   5.850
 8705POPC   GL155249  40.760  22.908   6.150
 8705POPC   GL255250  40.909  23.074   6.150
 8705POPC   C1A55251  40.820  22.941   6.450
 8705POPC   D2A55252  40.767  22.895   6.750
 8705POPC   C3A55253  40.752  22.922   7.050
 8705POPC   C4A55254  40.773  22.977   7.350
 8705POPC   C1B55255  40.969  23.071   6.450
 8705POPC   C2B55256  40.939  23.089   6.750
 8705POPC   C3B55257  40.959  23.149   7.050
 8705POPC   C4B55258  40.979  23.066   7.350
 8706POPC   NC355259   7.393   7.403   5.550
 8706POPC   PO455260   7.431   7.437   5.850
 8706POPC   GL155261   7.451   7.371   6.150
 8706POPC   GL255262   7.311   7.388   6.150
 8706POPC   C1A55263   7.410   7.408   6.450
 8706POPC   D2A55264   7.459   7.373   6.750
 8706POPC   C3A55265   7.428   7.407   7.050
 8706POPC   C4A55266   7.381   7.405   7.350
 8706POPC   C1B55267   7.191   7.253   6.450
 8706POPC   C2B55268   7.204   7.323   6.750
 8706POPC   C3B55269   7.222   7.257   7.050
 8706POPC   C4B55270   7.200   7.304   7.350
 8707POPC   NC355271  25.273  43.062   5.550
 8707POPC   PO455272  25.284  43.079   5.850
 8707POPC   GL155273  25.312  43.068   6.150
 8707POPC   GL255274  25.331  43.215   6.150
 8707POPC   C1A55275  25.240  43.088   6.450
 8707POPC   D2A55276  25.243  43.109   6.750
 8707POPC   C3A55277  25.222  43.132   7.050
 8707POPC   C4A55278  25.237  43.131   7.350
 8707POPC   C1B55279  25.493  43.238   6.450
 8707POPC   C2B55280  25.488  43.232   6.750
 8707POPC   C3B55281  25.511  43.274   7.050
 8707POPC   C4B55282  25.495  43.285   7.350
 8708POPC   NC355283   2.721  25.264   5.550
 8708POPC   PO455284   2.781  25.268   5.850
 8708POPC   GL155285   2.741  25.291   6.150
 8708POPC   GL255286   2.593  25.228   6.150
 8708POPC   C1A55287   2.756  25.310   6.450
 8708POPC   D2A55288   2.733  25.265   6.750
 8708POPC   C3A55289   2.731  25.231   7.050
 8708POPC   C4A55290   2.771  25.232   7.350
 8708POPC   C1B55291   2.564  25.298   6.450
 8708POPC   C2B55292   2.466  25.310   6.750
 8708POPC   C3B55293   2.497  25.297   7.050
 8708POPC   C4B55294   2.505  25.245   7.350
 8709POPC   NC355295  41.536  26.055   5.550
 8709POPC   PO455296  41.522  26.051   5.850
 8709POPC   GL155297  41.607  26.042   6.150
 8709POPC   GL255298  41.509  25.876   6.150
 8709POPC   C1A55299  41.593  26.060   6.450
 8709POPC   D2A55300  41.538  25.997   6.750
 8709POPC   C3A55301  41.580  26.049   7.050
 8709POPC   C4A55302  41.565  26.025   7.350
 8709POPC   C1B55303  41.596  25.791   6.450
 8709POPC   C2B55304  41.514  25.768   6.750
 8709POPC   C3B55305  41.540  25.772   7.050
 8709POPC   C4B55306  41.533  25.817   7.350
 8710POPC   NC355307  22.199   8.246   5.550
 8710POPC   PO455308  22.115   8.184   5.850
 8710POPC   GL155309  22.158   8.227   6.150
 8710POPC   GL255310  22.029   8.208   6.150
 8710POPC   C1A55311  22.184   8.245   6.450
 8710POPC   D2A55312  22.181   8.196   6.750
 8710POPC   C3A55313  22.167   8.155   7.050
 8710POPC   C4A55314  22.178   8.164   7.350
 8710POPC   C1B55315  21.884   8.222   6.450
 8710POPC   C2B55316  21.940   8.247   6.750
 8710POPC   C3B55317  21.938   8.283   7.050
 8710POPC   C4B55318  21.965   8.233   7.350
 8711POPC   NC355319  40.773  33.004   5.550
 8711POPC   PO455320  40.743  32.989   5.850
 8711POPC   GL155321  40.735  33.019   6.150
 8711POPC   GL255322  40.940  33.022   6.150
 8711POPC   C1A55323  40.782  33.035   6.450
 8711POPC   D2A55324  40.757  33.020   6.750
 8711POPC   C3A55325  40.826  33.020   7.050
 8711POPC   C4A55326  40.740  33.072   7.350
 8711POPC   C1B55327  41.063  32.942   6.450
 8711POPC   C2B55328  40.997  33.017   6.750
 8711POPC   C3B55329  40.982  33.004   7.050
 8711POPC   C4B55330  41.029  32.996   7.350
 8712POPC   NC355331  13.632  21.393   5.550
 8712POPC   PO455332  13.588  21.409   5.850
 8712POPC   GL155333  13.641  21.362   6.150
 8712POPC   GL255334  13.515  21.471   6.150
 8712POPC   C1A55335  13.630  21.373   6.450
 8712POPC   D2A55336  13.644  21.344   6.750
 8712POPC   C3A55337  13.581  21.371   7.050
 8712POPC   C4A55338  13.622  21.408   7.350
 8712POPC   C1B55339  13.392  21.498   6.450
 8712POPC   C2B55340  13.438  21.438   6.750
 8712POPC   C3B55341  13.430  21.487   7.050
 8712POPC   C4B55342  13.405  21.463   7.350
 8713POPC   NC355343  22.147  43.881   5.550
 8713POPC   PO455344  22.119  43.877   5.850
 8713POPC   GL155345  22.153  43.912   6.150
 8713POPC   GL255346  22.126  43.740   6.150
 8713POPC   C1A55347  22.185  43.867   6.450
 8713POPC   D2A55348  22.136  43.871   6.750
 8713POPC   C3A55349  22.136  43.911   7.050
 8713POPC   C4A55350  22.205  43.875   7.350
 8713POPC   C1B55351  22.211  43.673   6.450
 8713POPC   C2B55352  22.211  43.625   6.750
 8713POPC   C3B55353  22.132  43.670   7.050
 8713POPC   C4B55354  22.189  43.686   7.350
 8714POPC   NC355355  19.036   5.142   5.550
 8714POPC   PO455356  19.063   5.102   5.850
 8714POPC   GL155357  19.084   5.137   6.150
 8714POPC   GL255358  19.126   5.203   6.150
 8714POPC   C1A55359  19.027   5.053   6.450
 8714POPC   D2A55360  19.037   5.106   6.750
 8714POPC   C3A55361  19.054   5.141   7.050
 8714POPC   C4A55362  19.044   5.106   7.350
 8714POPC   C1B55363  19.149   5.356   6.450
 8714POPC   C2B55364  19.117   5.305   6.750
 8714POPC   C3B55365  19.131   5.288   7.050
 8714POPC   C4B55366  19.085   5.294   7.350
 8715POPC   NC355367  11.288  43.837   5.550
 8715POPC   PO455368  11.339  43.854   5.850
 8715POPC   GL155369  11.339  43.850   6.150
 8715POPC   GL255370  11.176  43.841   6.150
 8715POPC   C1A55371  11.328  43.920   6.450
 8715POPC   D2A55372  11.341  43.839   6.750
 8715POPC   C3A55373  11.277  43.908   7.050
 8715POPC   C4A55374  11.270  43.932   7.350
 8715POPC   C1B55375  11.104  43.702   6.450
 8715POPC   C2B55376  11.122  43.718   6.750
 8715POPC   C3B55377  11.068  43.689   7.050
 8715POPC   C4B55378  11.070  43.726   7.350
 8716POPC   NC355379  10.507  22.117   5.550
 8716POPC   PO455380  10.517  22.129   5.850
 8716POPC   GL155381  10.496  22.196   6.150
 8716POPC   GL255382  10.465  22.099   6.150
 8716POPC   C1A55383  10.501  22.157   6.450
 8716POPC   D2A55384  10.568  22.171   6.750
 8716POPC   C3A55385  10.572  22.115   7.050
 8716POPC   C4A55386  10.541  22.200   7.350
 8716POPC   C1B55387  10.323  21.982   6.450
 8716POPC   C2B55388  10.335  21.959   6.750
 8716POPC   C3B55389  10.320  22.035   7.050
 8716POPC   C4B55390  10.388  21.946   7.350
 8717POPC   NC355391   4.325  27.583   5.550
 8717POPC   PO455392   4.324  27.571   5.850
 8717POPC   GL155393   4.331  27.637   6.150
 8717POPC   GL255394   4.268  27.522   6.150
 8717POPC   C1A55395   4.366  27.588   6.450
 8717POPC   D2A55396   4.314  27.591   6.750
 8717POPC   C3A55397   4.278  27.548   7.050
 8717POPC   C4A55398   4.275  27.561   7.350
 8717POPC   C1B55399   4.132  27.385   6.450
 8717POPC   C2B55400   4.162  27.372   6.750
 8717POPC   C3B55401   4.155  27.392   7.050
 8717POPC   C4B55402   4.140  27.387   7.350
 8718POPC   NC355403  36.177   1.202   5.550
 8718POPC   PO455404  36.177   1.226   5.850
 8718POPC   GL155405  36.117   1.165   6.150
 8718POPC   GL255406  36.219   1.266   6.150
 8718POPC   C1A55407  36.095   1.170   6.450
 8718POPC   D2A55408  36.123   1.196   6.750
 8718POPC   C3A55409  36.091   1.204   7.050
 8718POPC   C4A55410  36.106   1.219   7.350
 8718POPC   C1B55411  36.316   1.416   6.450
 8718POPC   C2B55412  36.286   1.384   6.750
 8718POPC   C3B55413  36.352   1.377   7.050
 8718POPC   C4B55414  36.333   1.330   7.350
 8719POPC   NC355415  40.038  26.021   5.550
 8719POPC   PO455416  39.962  26.056   5.850
 8719POPC   GL155417  40.032  26.035   6.150
 8719POPC   GL255418  40.084  25.965   6.150
 8719POPC   C1A55419  40.038  25.999   6.450
 8719POPC   D2A55420  39.995  26.014   6.750
 8719POPC   C3A55421  39.993  26.085   7.050
 8719POPC   C4A55422  39.986  26.039   7.350
 8719POPC   C1B55423  40.069  25.768   6.450
 8719POPC   C2B55424  40.100  25.770   6.750
 8719POPC   C3B55425  40.131  25.843   7.050
 8719POPC   C4B55426  40.080  25.850   7.350
 8720POPC   NC355427  30.682  42.293   5.550
 8720POPC   PO455428  30.675  42.383   5.850
 8720POPC   GL155429  30.735  42.381   6.150
 8720POPC   GL255430  30.619  42.259   6.150
 8720POPC   C1A55431  30.742  42.344   6.450
 8720POPC   D2A55432  30.706  42.377   6.750
 8720POPC   C3A55433  30.660  42.290   7.050
 8720POPC   C4A55434  30.662  42.381   7.350
 8720POPC   C1B55435  30.427  42.222   6.450
 8720POPC   C2B55436  30.484  42.205   6.750
 8720POPC   C3B55437  30.418  42.296   7.050
 8720POPC   C4B55438  30.429  42.254   7.350
 8721POPC   NC355439   5.836  44.641   5.550
 8721POPC   PO455440   5.825  44.629   5.850
 8721POPC   GL155441   5.825  44.694   6.150
 8721POPC   GL255442   5.887  44.730   6.150
 8721POPC   C1A55443   5.840  44.679   6.450
 8721POPC   D2A55444   5.850  44.617   6.750
 8721POPC   C3A55445   5.919  44.704   7.050
 8721POPC   C4A55446   5.868  44.646   7.350
 8721POPC   C1B55447   5.962  44.925   6.450
 8721POPC   C2B55448   5.949  44.932   6.750
 8721POPC   C3B55449   5.998  44.890   7.050
 8721POPC   C4B55450   6.025  44.921   7.350
 8722POPC   NC355451  37.707   8.155   5.550
 8722POPC   PO455452  37.653   8.210   5.850
 8722POPC   GL155453  37.689   8.189   6.150
 8722POPC   GL255454  37.522   8.164   6.150
 8722POPC   C1A55455  37.682   8.151   6.450
 8722POPC   D2A55456  37.707   8.236   6.750
 8722POPC   C3A55457  37.708   8.212   7.050
 8722POPC   C4A55458  37.687   8.225   7.350
 8722POPC   C1B55459  37.479   8.154   6.450
 8722POPC   C2B55460  37.473   8.185   6.750
 8722POPC   C3B55461  37.436   8.195   7.050
 8722POPC   C4B55462  37.405   8.205   7.350
 8723POPC   NC355463   8.229   9.784   5.550
 8723POPC   PO455464   8.183   9.792   5.850
 8723POPC   GL155465   8.187   9.762   6.150
 8723POPC   GL255466   8.329   9.696   6.150
 8723POPC   C1A55467   8.154   9.741   6.450
 8723POPC   D2A55468   8.187   9.748   6.750
 8723POPC   C3A55469   8.206   9.774   7.050
 8723POPC   C4A55470   8.243   9.708   7.350
 8723POPC   C1B55471   8.419   9.596   6.450
 8723POPC   C2B55472   8.399   9.677   6.750
 8723POPC   C3B55473   8.381   9.618   7.050
 8723POPC   C4B55474   8.451   9.663   7.350
 8724POPC   NC355475  23.757   5.109   5.550
 8724POPC   PO455476  23.760   5.096   5.850
 8724POPC   GL155477  23.762   5.128   6.150
 8724POPC   GL255478  23.854   5.203   6.150
 8724POPC   C1A55479  23.709   5.067   6.450
 8724POPC   D2A55480  23.678   5.074   6.750
 8724POPC   C3A55481  23.763   5.119   7.050
 8724POPC   C4A55482  23.683   5.105   7.350
 8724POPC   C1B55483  23.879   5.238   6.450
 8724POPC   C2B55484  23.876   5.283   6.750
 8724POPC   C3B55485  23.899   5.232   7.050
 8724POPC   C4B55486  23.910   5.283   7.350
 8725POPC   NC355487   4.285  31.473   5.550
 8725POPC   PO455488   4.332  31.462   5.850
 8725POPC   GL155489   4.332  31.483   6.150
 8725POPC   GL255490   4.458  31.408   6.150
 8725POPC   C1A55491   4.310  31.428   6.450
 8725POPC   D2A55492   4.285  31.464   6.750
 8725POPC   C3A55493   4.360  31.496   7.050
 8725POPC   C4A55494   4.304  31.465   7.350
 8725POPC   C1B55495   4.544  31.311   6.450
 8725POPC   C2B55496   4.552  31.342   6.750
 8725POPC   C3B55497   4.529  31.375   7.050
 8725POPC   C4B55498   4.514  31.361   7.350
 8726POPC   NC355499  29.927   5.840   5.550
 8726POPC   PO455500  29.939   5.846   5.850
 8726POPC   GL155501  29.938   5.871   6.150
 8726POPC   GL255502  29.972   6.003   6.150
 8726POPC   C1A55503  29.950   5.868   6.450
 8726POPC   D2A55504  29.969   5.845   6.750
 8726POPC   C3A55505  29.963   5.891   7.050
 8726POPC   C4A55506  29.899   5.829   7.350
 8726POPC   C1B55507  30.036   6.060   6.450
 8726POPC   C2B55508  29.996   6.120   6.750
 8726POPC   C3B55509  30.054   6.054   7.050
 8726POPC   C4B55510  29.982   6.088   7.350
 8727POPC   NC355511  31.505   2.753   5.550
 8727POPC   PO455512  31.483   2.759   5.850
 8727POPC   GL155513  31.488   2.755   6.150
 8727POPC   GL255514  31.598   2.667   6.150
 8727POPC   C1A55515  31.521   2.721   6.450
 8727POPC   D2A55516  31.505   2.725   6.750
 8727POPC   C3A55517  31.474   2.797   7.050
 8727POPC   C4A55518  31.473   2.777   7.350
 8727POPC   C1B55519  31.629   2.561   6.450
 8727POPC   C2B55520  31.621   2.640   6.750
 8727POPC   C3B55521  31.705   2.650   7.050
 8727POPC   C4B55522  31.624   2.570   7.350
 8728POPC   NC355523  15.951  12.815   5.550
 8728POPC   PO455524  15.945  12.848   5.850
 8728POPC   GL155525  15.949  12.831   6.150
 8728POPC   GL255526  15.982  12.721   6.150
 8728POPC   C1A55527  15.908  12.821   6.450
 8728POPC   D2A55528  15.976  12.837   6.750
 8728POPC   C3A55529  15.972  12.852   7.050
 8728POPC   C4A55530  15.967  12.819   7.350
 8728POPC   C1B55531  16.125  12.653   6.450
 8728POPC   C2B55532  16.124  12.688   6.750
 8728POPC   C3B55533  16.122  12.634   7.050
 8728POPC   C4B55534  16.075  12.671   7.350
 8729POPC   NC355535  17.536  12.097   5.550
 8729POPC   PO455536  17.511  12.125   5.850
 8729POPC   GL155537  17.535  12.098   6.150
 8729POPC   GL255538  17.613  12.137   6.150
 8729POPC   C1A55539  17.511  12.057   6.450
 8729POPC   D2A55540  17.483  12.048   6.750
 8729POPC   C3A55541  17.520  12.072   7.050
 8729POPC   C4A55542  17.489  12.113   7.350
 8729POPC   C1B55543  17.679  12.259   6.450
 8729POPC   C2B55544  17.626  12.236   6.750
 8729POPC   C3B55545  17.657  12.313   7.050
 8729POPC   C4B55546  17.655  12.267   7.350
 8730POPC   NC355547   5.084  33.802   5.550
 8730POPC   PO455548   5.117  33.849   5.850
 8730POPC   GL155549   5.064  33.751   6.150
 8730POPC   GL255550   4.992  33.776   6.150
 8730POPC   C1A55551   5.092  33.839   6.450
 8730POPC   D2A55552   5.106  33.850   6.750
 8730POPC   C3A55553   5.129  33.788   7.050
 8730POPC   C4A55554   5.124  33.766   7.350
 8730POPC   C1B55555   4.881  33.667   6.450
 8730POPC   C2B55556   4.848  33.688   6.750
 8730POPC   C3B55557   4.889  33.667   7.050
 8730POPC   C4B55558   4.902  33.670   7.350
 8731POPC   NC355559   9.715  10.494   5.550
 8731POPC   PO455560   9.728  10.479   5.850
 8731POPC   GL155561   9.701  10.510   6.150
 8731POPC   GL255562   9.743  10.667   6.150
 8731POPC   C1A55563   9.720  10.484   6.450
 8731POPC   D2A55564   9.730  10.574   6.750
 8731POPC   C3A55565   9.735  10.515   7.050
 8731POPC   C4A55566   9.759  10.564   7.350
 8731POPC   C1B55567   9.697  10.783   6.450
 8731POPC   C2B55568   9.697  10.739   6.750
 8731POPC   C3B55569   9.660  10.778   7.050
 8731POPC   C4B55570   9.621  10.714   7.350
 8732POPC   NC355571  37.658  32.262   5.550
 8732POPC   PO455572  37.714  32.202   5.850
 8732POPC   GL155573  37.671  32.262   6.150
 8732POPC   GL255574  37.644  32.317   6.150
 8732POPC   C1A55575  37.650  32.234   6.450
 8732POPC   D2A55576  37.696  32.265   6.750
 8732POPC   C3A55577  37.656  32.272   7.050
 8732POPC   C4A55578  37.719  32.264   7.350
 8732POPC   C1B55579  37.596  32.469   6.450
 8732POPC   C2B55580  37.554  32.531   6.750
 8732POPC   C3B55581  37.559  32.511   7.050
 8732POPC   C4B55582  37.624  32.468   7.350
 8733POPC   NC355583  31.454  19.844   5.550
 8733POPC   PO455584  31.519  19.850   5.850
 8733POPC   GL155585  31.424  19.833   6.150
 8733POPC   GL255586  31.424  19.747   6.150
 8733POPC   C1A55587  31.424  19.872   6.450
 8733POPC   D2A55588  31.485  19.867   6.750
 8733POPC   C3A55589  31.433  19.884   7.050
 8733POPC   C4A55590  31.494  19.872   7.350
 8733POPC   C1B55591  31.299  19.646   6.450
 8733POPC   C2B55592  31.322  19.636   6.750
 8733POPC   C3B55593  31.322  19.624   7.050
 8733POPC   C4B55594  31.298  19.582   7.350
 8734POPC   NC355595  22.141  30.660   5.550
 8734POPC   PO455596  22.157  30.654   5.850
 8734POPC   GL155597  22.207  30.732   6.150
 8734POPC   GL255598  22.075  30.624   6.150
 8734POPC   C1A55599  22.211  30.729   6.450
 8734POPC   D2A55600  22.149  30.683   6.750
 8734POPC   C3A55601  22.145  30.651   7.050
 8734POPC   C4A55602  22.113  30.724   7.350
 8734POPC   C1B55603  21.956  30.549   6.450
 8734POPC   C2B55604  21.983  30.586   6.750
 8734POPC   C3B55605  21.939  30.547   7.050
 8734POPC   C4B55606  22.010  30.503   7.350
 8735POPC   NC355607  12.818  19.070   5.550
 8735POPC   PO455608  12.819  19.073   5.850
 8735POPC   GL155609  12.858  19.101   6.150
 8735POPC   GL255610  12.913  18.903   6.150
 8735POPC   C1A55611  12.890  19.038   6.450
 8735POPC   D2A55612  12.889  19.053   6.750
 8735POPC   C3A55613  12.830  19.059   7.050
 8735POPC   C4A55614  12.866  19.014   7.350
 8735POPC   C1B55615  12.978  18.878   6.450
 8735POPC   C2B55616  12.950  18.870   6.750
 8735POPC   C3B55617  12.911  18.812   7.050
 8735POPC   C4B55618  12.974  18.821   7.350
 8736POPC   NC355619  13.597  38.459   5.550
 8736POPC   PO455620  13.622  38.413   5.850
 8736POPC   GL155621  13.618  38.481   6.150
 8736POPC   GL255622  13.629  38.594   6.150
 8736POPC   C1A55623  13.633  38.460   6.450
 8736POPC   D2A55624  13.619  38.438   6.750
 8736POPC   C3A55625  13.604  38.490   7.050
 8736POPC   C4A55626  13.673  38.467   7.350
 8736POPC   C1B55627  13.630  38.665   6.450
 8736POPC   C2B55628  13.613  38.658   6.750
 8736POPC   C3B55629  13.629  38.677   7.050
 8736POPC   C4B55630  13.669  38.719   7.350
 8737POPC   NC355631  19.812  36.949   5.550
 8737POPC   PO455632  19.852  36.914   5.850
 8737POPC   GL155633  19.870  36.862   6.150
 8737POPC   GL255634  19.842  37.069   6.150
 8737POPC   C1A55635  19.810  36.927   6.450
 8737POPC   D2A55636  19.861  36.892   6.750
 8737POPC   C3A55637  19.805  36.930   7.050
 8737POPC   C4A55638  19.790  36.942   7.350
 8737POPC   C1B55639  19.920  37.169   6.450
 8737POPC   C2B55640  19.886  37.156   6.750
 8737POPC   C3B55641  19.844  37.191   7.050
 8737POPC   C4B55642  19.890  37.121   7.350
 8738POPC   NC355643  40.771  30.688   5.550
 8738POPC   PO455644  40.736  30.734   5.850
 8738POPC   GL155645  40.810  30.709   6.150
 8738POPC   GL255646  40.674  30.689   6.150
 8738POPC   C1A55647  40.777  30.670   6.450
 8738POPC   D2A55648  40.735  30.736   6.750
 8738POPC   C3A55649  40.787  30.648   7.050
 8738POPC   C4A55650  40.830  30.665   7.350
 8738POPC   C1B55651  40.530  30.657   6.450
 8738POPC   C2B55652  40.560  30.655   6.750
 8738POPC   C3B55653  40.562  30.617   7.050
 8738POPC   C4B55654  40.526  30.594   7.350
 8739POPC   NC355655  37.657  33.805   5.550
 8739POPC   PO455656  37.649  33.774   5.850
 8739POPC   GL155657  37.676  33.796   6.150
 8739POPC   GL255658  37.601  33.901   6.150
 8739POPC   C1A55659  37.722  33.778   6.450
 8739POPC   D2A55660  37.688  33.782   6.750
 8739POPC   C3A55661  37.715  33.784   7.050
 8739POPC   C4A55662  37.644  33.759   7.350
 8739POPC   C1B55663  37.505  33.905   6.450
 8739POPC   C2B55664  37.449  33.985   6.750
 8739POPC   C3B55665  37.508  33.903   7.050
 8739POPC   C4B55666  37.427  33.958   7.350
 8740POPC   NC355667  29.897   2.008   5.550
 8740POPC   PO455668  29.960   1.957   5.850
 8740POPC   GL155669  29.924   2.002   6.150
 8740POPC   GL255670  29.866   1.901   6.150
 8740POPC   C1A55671  29.894   1.981   6.450
 8740POPC   D2A55672  29.961   1.945   6.750
 8740POPC   C3A55673  29.949   2.036   7.050
 8740POPC   C4A55674  29.875   2.012   7.350
 8740POPC   C1B55675  29.751   1.786   6.450
 8740POPC   C2B55676  29.805   1.815   6.750
 8740POPC   C3B55677  29.846   1.757   7.050
 8740POPC   C4B55678  29.803   1.739   7.350
 8741POPC   NC355679  15.914  39.231   5.550
 8741POPC   PO455680  15.968  39.233   5.850
 8741POPC   GL155681  15.960  39.226   6.150
 8741POPC   GL255682  16.041  39.153   6.150
 8741POPC   C1A55683  15.960  39.223   6.450
 8741POPC   D2A55684  15.986  39.225   6.750
 8741POPC   C3A55685  15.987  39.196   7.050
 8741POPC   C4A55686  15.960  39.219   7.350
 8741POPC   C1B55687  16.171  39.152   6.450
 8741POPC   C2B55688  16.238  39.113   6.750
 8741POPC   C3B55689  16.191  39.102   7.050
 8741POPC   C4B55690  16.232  39.190   7.350
 8742POPC   NC355691  22.907  23.709   5.550
 8742POPC   PO455692  22.952  23.677   5.850
 8742POPC   GL155693  22.918  23.730   6.150
 8742POPC   GL255694  22.961  23.818   6.150
 8742POPC   C1A55695  22.956  23.696   6.450
 8742POPC   D2A55696  22.985  23.683   6.750
 8742POPC   C3A55697  22.939  23.708   7.050
 8742POPC   C4A55698  22.928  23.759   7.350
 8742POPC   C1B55699  23.004  23.906   6.450
 8742POPC   C2B55700  22.964  23.939   6.750
 8742POPC   C3B55701  23.047  23.991   7.050
 8742POPC   C4B55702  22.951  23.912   7.350
 8743POPC   NC355703  29.969   5.105   5.550
 8743POPC   PO455704  29.928   5.130   5.850
 8743POPC   GL155705  29.884   5.082   6.150
 8743POPC   GL255706  29.892   4.966   6.150
 8743POPC   C1A55707  29.919   5.076   6.450
 8743POPC   D2A55708  29.952   5.088   6.750
 8743POPC   C3A55709  29.895   5.100   7.050
 8743POPC   C4A55710  29.915   5.109   7.350
 8743POPC   C1B55711  29.741   4.845   6.450
 8743POPC   C2B55712  29.822   4.883   6.750
 8743POPC   C3B55713  29.818   4.856   7.050
 8743POPC   C4B55714  29.771   4.925   7.350
 8744POPC   NC355715  35.396  11.303   5.550
 8744POPC   PO455716  35.339  11.276   5.850
 8744POPC   GL155717  35.306  11.309   6.150
 8744POPC   GL255718  35.430  11.218   6.150
 8744POPC   C1A55719  35.367  11.314   6.450
 8744POPC   D2A55720  35.390  11.331   6.750
 8744POPC   C3A55721  35.378  11.343   7.050
 8744POPC   C4A55722  35.325  11.312   7.350
 8744POPC   C1B55723  35.526  11.154   6.450
 8744POPC   C2B55724  35.530  11.228   6.750
 8744POPC   C3B55725  35.599  11.222   7.050
 8744POPC   C4B55726  35.560  11.216   7.350
 8745POPC   NC355727  19.012  29.118   5.550
 8745POPC   PO455728  19.088  29.121   5.850
 8745POPC   GL155729  19.039  29.148   6.150
 8745POPC   GL255730  18.964  29.067   6.150
 8745POPC   C1A55731  19.029  29.112   6.450
 8745POPC   D2A55732  19.070  29.105   6.750
 8745POPC   C3A55733  19.060  29.121   7.050
 8745POPC   C4A55734  19.065  29.135   7.350
 8745POPC   C1B55735  18.818  29.012   6.450
 8745POPC   C2B55736  18.883  29.023   6.750
 8745POPC   C3B55737  18.825  28.983   7.050
 8745POPC   C4B55738  18.851  29.029   7.350
 8746POPC   NC355739  15.187   4.348   5.550
 8746POPC   PO455740  15.179   4.347   5.850
 8746POPC   GL155741  15.171   4.332   6.150
 8746POPC   GL255742  15.086   4.244   6.150
 8746POPC   C1A55743  15.191   4.280   6.450
 8746POPC   D2A55744  15.195   4.365   6.750
 8746POPC   C3A55745  15.161   4.275   7.050
 8746POPC   C4A55746  15.176   4.330   7.350
 8746POPC   C1B55747  15.100   4.131   6.450
 8746POPC   C2B55748  15.051   4.096   6.750
 8746POPC   C3B55749  15.058   4.081   7.050
 8746POPC   C4B55750  15.110   4.103   7.350
 8747POPC   NC355751  15.981  29.963   5.550
 8747POPC   PO455752  15.978  29.917   5.850
 8747POPC   GL155753  15.950  29.966   6.150
 8747POPC   GL255754  16.017  29.809   6.150
 8747POPC   C1A55755  15.939  29.879   6.450
 8747POPC   D2A55756  15.920  29.938   6.750
 8747POPC   C3A55757  15.945  29.882   7.050
 8747POPC   C4A55758  15.967  29.958   7.350
 8747POPC   C1B55759  16.061  29.729   6.450
 8747POPC   C2B55760  16.043  29.664   6.750
 8747POPC   C3B55761  16.060  29.725   7.050
 8747POPC   C4B55762  16.112  29.681   7.350
 8748POPC   NC355763  15.970  31.445   5.550
 8748POPC   PO455764  15.981  31.479   5.850
 8748POPC   GL155765  16.002  31.512   6.150
 8748POPC   GL255766  16.024  31.367   6.150
 8748POPC   C1A55767  15.982  31.438   6.450
 8748POPC   D2A55768  15.967  31.497   6.750
 8748POPC   C3A55769  15.959  31.504   7.050
 8748POPC   C4A55770  15.957  31.446   7.350
 8748POPC   C1B55771  16.135  31.379   6.450
 8748POPC   C2B55772  16.169  31.351   6.750
 8748POPC   C3B55773  16.191  31.303   7.050
 8748POPC   C4B55774  16.132  31.314   7.350
 8749POPC   NC355775  23.717  30.654   5.550
 8749POPC   PO455776  23.731  30.676   5.850
 8749POPC   GL155777  23.718  30.673   6.150
 8749POPC   GL255778  23.699  30.864   6.150
 8749POPC   C1A55779  23.706  30.717   6.450
 8749POPC   D2A55780  23.721  30.685   6.750
 8749POPC   C3A55781  23.754  30.698   7.050
 8749POPC   C4A55782  23.747  30.678   7.350
 8749POPC   C1B55783  23.687  30.924   6.450
 8749POPC   C2B55784  23.650  30.954   6.750
 8749POPC   C3B55785  23.652  30.970   7.050
 8749POPC   C4B55786  23.700  30.894   7.350
 8750POPC   NC355787  23.701   2.031   5.550
 8750POPC   PO455788  23.680   2.005   5.850
 8750POPC   GL155789  23.686   2.006   6.150
 8750POPC   GL255790  23.599   1.892   6.150
 8750POPC   C1A55791  23.754   2.021   6.450
 8750POPC   D2A55792  23.744   2.000   6.750
 8750POPC   C3A55793  23.741   1.985   7.050
 8750POPC   C4A55794  23.711   2.021   7.350
 8750POPC   C1B55795  23.512   1.838   6.450
 8750POPC   C2B55796  23.485   1.805   6.750
 8750POPC   C3B55797  23.468   1.822   7.050
 8750POPC   C4B55798  23.491   1.844   7.350
 8751POPC   NC355799  33.779  27.575   5.550
 8751POPC   PO455800  33.798  27.567   5.850
 8751POPC   GL155801  33.770  27.564   6.150
 8751POPC   GL255802  33.652  27.627   6.150
 8751POPC   C1A55803  33.838  27.564   6.450
 8751POPC   D2A55804  33.824  27.638   6.750
 8751POPC   C3A55805  33.808  27.558   7.050
 8751POPC   C4A55806  33.768  27.565   7.350
 8751POPC   C1B55807  33.519  27.632   6.450
 8751POPC   C2B55808  33.581  27.601   6.750
 8751POPC   C3B55809  33.570  27.633   7.050
 8751POPC   C4B55810  33.588  27.623   7.350
 8752POPC   NC355811  18.297  40.833   5.550
 8752POPC   PO455812  18.248  40.750   5.850
 8752POPC   GL155813  18.311  40.814   6.150
 8752POPC   GL255814  18.421  40.877   6.150
 8752POPC   C1A55815  18.258  40.739   6.450
 8752POPC   D2A55816  18.328  40.764   6.750
 8752POPC   C3A55817  18.263  40.809   7.050
 8752POPC   C4A55818  18.311  40.783   7.350
 8752POPC   C1B55819  18.509  40.896   6.450
 8752POPC   C2B55820  18.467  40.898   6.750
 8752POPC   C3B55821  18.467  40.909   7.050
 8752POPC   C4B55822  18.492  40.948   7.350
 8753POPC   NC355823  25.218  31.497   5.550
 8753POPC   PO455824  25.244  31.515   5.850
 8753POPC   GL155825  25.291  31.425   6.150
 8753POPC   GL255826  25.338  31.555   6.150
 8753POPC   C1A55827  25.257  31.496   6.450
 8753POPC   D2A55828  25.222  31.446   6.750
 8753POPC   C3A55829  25.230  31.443   7.050
 8753POPC   C4A55830  25.302  31.425   7.350
 8753POPC   C1B55831  25.497  31.615   6.450
 8753POPC   C2B55832  25.411  31.672   6.750
 8753POPC   C3B55833  25.404  31.650   7.050
 8753POPC   C4B55834  25.471  31.673   7.350
 8754POPC   NC355835  23.678   8.159   5.550
 8754POPC   PO455836  23.698   8.184   5.850
 8754POPC   GL155837  23.676   8.168   6.150
 8754POPC   GL255838  23.596   8.316   6.150
 8754POPC   C1A55839  23.715   8.185   6.450
 8754POPC   D2A55840  23.666   8.198   6.750
 8754POPC   C3A55841  23.709   8.173   7.050
 8754POPC   C4A55842  23.667   8.221   7.350
 8754POPC   C1B55843  23.597   8.433   6.450
 8754POPC   C2B55844  23.558   8.387   6.750
 8754POPC   C3B55845  23.555   8.371   7.050
 8754POPC   C4B55846  23.566   8.403   7.350
 8755POPC   NC355847  32.997  43.919   5.550
 8755POPC   PO455848  32.988  43.889   5.850
 8755POPC   GL155849  33.023  43.859   6.150
 8755POPC   GL255850  33.103  43.817   6.150
 8755POPC   C1A55851  33.027  43.845   6.450
 8755POPC   D2A55852  32.983  43.876   6.750
 8755POPC   C3A55853  33.030  43.868   7.050
 8755POPC   C4A55854  33.000  43.890   7.350
 8755POPC   C1B55855  33.186  43.700   6.450
 8755POPC   C2B55856  33.189  43.721   6.750
 8755POPC   C3B55857  33.192  43.703   7.050
 8755POPC   C4B55858  33.193  43.652   7.350
 8756POPC   NC355859   4.352  11.254   5.550
 8756POPC   PO455860   4.281  11.277   5.850
 8756POPC   GL155861   4.291  11.264   6.150
 8756POPC   GL255862   4.382  11.425   6.150
 8756POPC   C1A55863   4.279  11.303   6.450
 8756POPC   D2A55864   4.310  11.300   6.750
 8756POPC   C3A55865   4.345  11.335   7.050
 8756POPC   C4A55866   4.300  11.334   7.350
 8756POPC   C1B55867   4.402  11.498   6.450
 8756POPC   C2B55868   4.474  11.538   6.750
 8756POPC   C3B55869   4.477  11.553   7.050
 8756POPC   C4B55870   4.429  11.490   7.350
 8757POPC   NC355871  43.070  11.267   5.550
 8757POPC   PO455872  43.102  11.271   5.850
 8757POPC   GL155873  43.112  11.262   6.150
 8757POPC   GL255874  43.176  11.183   6.150
 8757POPC   C1A55875  43.078  11.320   6.450
 8757POPC   D2A55876  43.109  11.326   6.750
 8757POPC   C3A55877  43.084  11.329   7.050
 8757POPC   C4A55878  43.112  11.277   7.350
 8757POPC   C1B55879  43.293  11.149   6.450
 8757POPC   C2B55880  43.327  11.191   6.750
 8757POPC   C3B55881  43.324  11.104   7.050
 8757POPC   C4B55882  43.326  11.148   7.350
 8758POPC   NC355883  32.246  12.088   5.550
 8758POPC   PO455884  32.231  12.043   5.850
 8758POPC   GL155885  32.296  12.070   6.150
 8758POPC   GL255886  32.412  12.035   6.150
 8758POPC   C1A55887  32.211  12.078   6.450
 8758POPC   D2A55888  32.202  12.043   6.750
 8758POPC   C3A55889  32.265  12.063   7.050
 8758POPC   C4A55890  32.232  12.061   7.350
 8758POPC   C1B55891  32.526  12.050   6.450
 8758POPC   C2B55892  32.451  12.017   6.750
 8758POPC   C3B55893  32.512  12.076   7.050
 8758POPC   C4B55894  32.536  12.058   7.350
 8759POPC   NC355895  18.328  19.852   5.550
 8759POPC   PO455896  18.295  19.785   5.850
 8759POPC   GL155897  18.325  19.818   6.150
 8759POPC   GL255898  18.137  19.827   6.150
 8759POPC   C1A55899  18.333  19.855   6.450
 8759POPC   D2A55900  18.255  19.830   6.750
 8759POPC   C3A55901  18.299  19.883   7.050
 8759POPC   C4A55902  18.302  19.847   7.350
 8759POPC   C1B55903  18.039  19.823   6.450
 8759POPC   C2B55904  18.036  19.777   6.750
 8759POPC   C3B55905  18.013  19.771   7.050
 8759POPC   C4B55906  18.014  19.799   7.350
 8760POPC   NC355907  36.952  15.957   5.550
 8760POPC   PO455908  36.878  15.931   5.850
 8760POPC   GL155909  36.880  15.991   6.150
 8760POPC   GL255910  36.802  16.077   6.150
 8760POPC   C1A55911  36.897  15.941   6.450
 8760POPC   D2A55912  36.895  15.963   6.750
 8760POPC   C3A55913  36.869  15.953   7.050
 8760POPC   C4A55914  36.933  15.914   7.350
 8760POPC   C1B55915  36.753  16.154   6.450
 8760POPC   C2B55916  36.717  16.125   6.750
 8760POPC   C3B55917  36.719  16.166   7.050
 8760POPC   C4B55918  36.721  16.161   7.350
 8761POPC   NC355919  38.436  24.483   5.550
 8761POPC   PO455920  38.420  24.504   5.850
 8761POPC   GL155921  38.470  24.489   6.150
 8761POPC   GL255922  38.378  24.606   6.150
 8761POPC   C1A55923  38.447  24.511   6.450
 8761POPC   D2A55924  38.493  24.496   6.750
 8761POPC   C3A55925  38.423  24.481   7.050
 8761POPC   C4A55926  38.410  24.488   7.350
 8761POPC   C1B55927  38.370  24.713   6.450
 8761POPC   C2B55928  38.343  24.711   6.750
 8761POPC   C3B55929  38.366  24.741   7.050
 8761POPC   C4B55930  38.389  24.759   7.350
 8762POPC   NC355931  39.241  12.825   5.550
 8762POPC   PO455932  39.232  12.858   5.850
 8762POPC   GL155933  39.266  12.878   6.150
 8762POPC   GL255934  39.086  12.849   6.150
 8762POPC   C1A55935  39.249  12.815   6.450
 8762POPC   D2A55936  39.214  12.859   6.750
 8762POPC   C3A55937  39.262  12.864   7.050
 8762POPC   C4A55938  39.262  12.805   7.350
 8762POPC   C1B55939  39.012  12.765   6.450
 8762POPC   C2B55940  38.984  12.784   6.750
 8762POPC   C3B55941  39.033  12.776   7.050
 8762POPC   C4B55942  39.042  12.808   7.350
 8763POPC   NC355943  12.117  33.029   5.550
 8763POPC   PO455944  12.047  33.038   5.850
 8763POPC   GL155945  12.043  33.047   6.150
 8763POPC   GL255946  12.004  32.873   6.150
 8763POPC   C1A55947  12.121  33.064   6.450
 8763POPC   D2A55948  12.114  33.072   6.750
 8763POPC   C3A55949  12.054  33.040   7.050
 8763POPC   C4A55950  12.053  32.994   7.350
 8763POPC   C1B55951  11.958  32.820   6.450
 8763POPC   C2B55952  11.951  32.769   6.750
 8763POPC   C3B55953  11.978  32.826   7.050
 8763POPC   C4B55954  11.984  32.789   7.350
 8764POPC   NC355955  42.300  25.249   5.550
 8764POPC   PO455956  42.374  25.298   5.850
 8764POPC   GL155957  42.375  25.268   6.150
 8764POPC   GL255958  42.499  25.268   6.150
 8764POPC   C1A55959  42.346  25.225   6.450
 8764POPC   D2A55960  42.286  25.293   6.750
 8764POPC   C3A55961  42.337  25.310   7.050
 8764POPC   C4A55962  42.376  25.289   7.350
 8764POPC   C1B55963  42.629  25.240   6.450
 8764POPC   C2B55964  42.627  25.251   6.750
 8764POPC   C3B55965  42.618  25.236   7.050
 8764POPC   C4B55966  42.580  25.256   7.350
 8765POPC   NC355967  15.989  42.329   5.550
 8765POPC   PO455968  15.950  42.322   5.850
 8765POPC   GL155969  15.991  42.316   6.150
 8765POPC   GL255970  15.809  42.280   6.150
 8765POPC   C1A55971  15.989  42.370   6.450
 8765POPC   D2A55972  15.997  42.332   6.750
 8765POPC   C3A55973  15.926  42.361   7.050
 8765POPC   C4A55974  15.916  42.372   7.350
 8765POPC   C1B55975  15.770  42.183   6.450
 8765POPC   C2B55976  15.783  42.239   6.750
 8765POPC   C3B55977  15.764  42.172   7.050
 8765POPC   C4B55978  15.713  42.214   7.350
 8766POPC   NC355979  43.145   1.981   5.550
 8766POPC   PO455980  43.099   2.031   5.850
 8766POPC   GL155981  43.113   1.961   6.150
 8766POPC   GL255982  43.026   2.011   6.150
 8766POPC   C1A55983  43.138   2.037   6.450
 8766POPC   D2A55984  43.145   1.963   6.750
 8766POPC   C3A55985  43.128   1.951   7.050
 8766POPC   C4A55986  43.149   1.977   7.350
 8766POPC   C1B55987  42.876   1.956   6.450
 8766POPC   C2B55988  42.835   1.958   6.750
 8766POPC   C3B55989  42.821   1.957   7.050
 8766POPC   C4B55990  42.842   1.948   7.350
 8767POPC   NC355991   3.545  33.788   5.550
 8767POPC   PO455992   3.579  33.801   5.850
 8767POPC   GL155993   3.573  33.770   6.150
 8767POPC   GL255994   3.590  33.710   6.150
 8767POPC   C1A55995   3.586  33.777   6.450
 8767POPC   D2A55996   3.513  33.840   6.750
 8767POPC   C3A55997   3.591  33.828   7.050
 8767POPC   C4A55998   3.519  33.771   7.350
 8767POPC   C1B55999   3.500  33.562   6.450
 8767POPC   C2B56000   3.541  33.509   6.750
 8767POPC   C3B56001   3.552  33.513   7.050
 8767POPC   C4B56002   3.517  33.553   7.350
 8768POPC   NC356003  40.795  10.478   5.550
 8768POPC   PO456004  40.806  10.513   5.850
 8768POPC   GL156005  40.735  10.518   6.150
 8768POPC   GL256006  40.867  10.414   6.150
 8768POPC   C1A56007  40.825  10.528   6.450
 8768POPC   D2A56008  40.813  10.485   6.750
 8768POPC   C3A56009  40.810  10.499   7.050
 8768POPC   C4A56010  40.771  10.541   7.350
 8768POPC   C1B56011  40.866  10.340   6.450
 8768POPC   C2B56012  40.912  10.333   6.750
 8768POPC   C3B56013  40.891  10.309   7.050
 8768POPC   C4B56014  40.888  10.310   7.350
 8769POPC   NC356015  39.206  25.311   5.550
 8769POPC   PO456016  39.249  25.266   5.850
 8769POPC   GL156017  39.209  25.268   6.150
 8769POPC   GL256018  39.219  25.401   6.150
 8769POPC   C1A56019  39.211  25.251   6.450
 8769POPC   D2A56020  39.272  25.314   6.750
 8769POPC   C3A56021  39.228  25.284   7.050
 8769POPC   C4A56022  39.202  25.241   7.350
 8769POPC   C1B56023  39.264  25.547   6.450
 8769POPC   C2B56024  39.216  25.535   6.750
 8769POPC   C3B56025  39.215  25.504   7.050
 8769POPC   C4B56026  39.258  25.564   7.350
 8770POPC   NC356027  40.743   9.738   5.550
 8770POPC   PO456028  40.740   9.728   5.850
 8770POPC   GL156029  40.780   9.776   6.150
 8770POPC   GL256030  40.797   9.888   6.150
 8770POPC   C1A56031  40.767   9.741   6.450
 8770POPC   D2A56032  40.801   9.792   6.750
 8770POPC   C3A56033  40.742   9.761   7.050
 8770POPC   C4A56034  40.758   9.702   7.350
 8770POPC   C1B56035  40.878  10.020   6.450
 8770POPC   C2B56036  40.929   9.937   6.750
 8770POPC   C3B56037  40.844   9.969   7.050
 8770POPC   C4B56038  40.844  10.025   7.350
 8771POPC   NC356039   4.296  17.488   5.550
 8771POPC   PO456040   4.340  17.459   5.850
 8771POPC   GL156041   4.347  17.544   6.150
 8771POPC   GL256042   4.179  17.581   6.150
 8771POPC   C1A56043   4.367  17.458   6.450
 8771POPC   D2A56044   4.273  17.539   6.750
 8771POPC   C3A56045   4.341  17.488   7.050
 8771POPC   C4A56046   4.345  17.482   7.350
 8771POPC   C1B56047   4.094  17.687   6.450
 8771POPC   C2B56048   4.071  17.608   6.750
 8771POPC   C3B56049   4.149  17.640   7.050
 8771POPC   C4B56050   4.069  17.632   7.350
 8772POPC   NC356051  23.675  40.056   5.550
 8772POPC   PO456052  23.717  40.019   5.850
 8772POPC   GL156053  23.719  40.025   6.150
 8772POPC   GL256054  23.694  39.853   6.150
 8772POPC   C1A56055  23.758  40.013   6.450
 8772POPC   D2A56056  23.732  40.028   6.750
 8772POPC   C3A56057  23.711  40.038   7.050
 8772POPC   C4A56058  23.670  39.964   7.350
 8772POPC   C1B56059  23.559  39.803   6.450
 8772POPC   C2B56060  23.624  39.808   6.750
 8772POPC   C3B56061  23.575  39.785   7.050
 8772POPC   C4B56062  23.578  39.754   7.350
 8773POPC   NC356063  19.073  15.925   5.550
 8773POPC   PO456064  19.012  15.970   5.850
 8773POPC   GL156065  19.102  15.927   6.150
 8773POPC   GL256066  19.167  16.008   6.150
 8773POPC   C1A56067  19.022  15.950   6.450
 8773POPC   D2A56068  19.031  15.936   6.750
 8773POPC   C3A56069  19.071  15.926   7.050
 8773POPC   C4A56070  19.108  15.922   7.350
 8773POPC   C1B56071  19.306  16.069   6.450
 8773POPC   C2B56072  19.250  16.062   6.750
 8773POPC   C3B56073  19.300  16.044   7.050
 8773POPC   C4B56074  19.321  16.062   7.350
 8774POPC   NC356075  29.132  24.519   5.550
 8774POPC   PO456076  29.185  24.537   5.850
 8774POPC   GL156077  29.161  24.449   6.150
 8774POPC   GL256078  29.229  24.356   6.150
 8774POPC   C1A56079  29.115  24.467   6.450
 8774POPC   D2A56080  29.126  24.512   6.750
 8774POPC   C3A56081  29.157  24.453   7.050
 8774POPC   C4A56082  29.118  24.453   7.350
 8774POPC   C1B56083  29.208  24.271   6.450
 8774POPC   C2B56084  29.178  24.249   6.750
 8774POPC   C3B56085  29.245  24.210   7.050
 8774POPC   C4B56086  29.187  24.293   7.350
 8775POPC   NC356087   3.550  31.466   5.550
 8775POPC   PO456088   3.573  31.470   5.850
 8775POPC   GL156089   3.569  31.498   6.150
 8775POPC   GL256090   3.526  31.372   6.150
 8775POPC   C1A56091   3.528  31.511   6.450
 8775POPC   D2A56092   3.579  31.479   6.750
 8775POPC   C3A56093   3.558  31.441   7.050
 8775POPC   C4A56094   3.568  31.457   7.350
 8775POPC   C1B56095   3.568  31.193   6.450
 8775POPC   C2B56096   3.557  31.233   6.750
 8775POPC   C3B56097   3.619  31.193   7.050
 8775POPC   C4B56098   3.560  31.251   7.350
 8776POPC   NC356099  27.590  13.639   5.550
 8776POPC   PO456100  27.543  13.633   5.850
 8776POPC   GL156101  27.588  13.675   6.150
 8776POPC   GL256102  27.562  13.528   6.150
 8776POPC   C1A56103  27.642  13.669   6.450
 8776POPC   D2A56104  27.560  13.634   6.750
 8776POPC   C3A56105  27.574  13.607   7.050
 8776POPC   C4A56106  27.630  13.597   7.350
 8776POPC   C1B56107  27.532  13.331   6.450
 8776POPC   C2B56108  27.542  13.390   6.750
 8776POPC   C3B56109  27.526  13.362   7.050
 8776POPC   C4B56110  27.588  13.367   7.350
 8777POPC   NC356111  12.036  27.637   5.550
 8777POPC   PO456112  12.034  27.628   5.850
 8777POPC   GL156113  12.065  27.556   6.150
 8777POPC   GL256114  11.998  27.703   6.150
 8777POPC   C1A56115  12.078  27.621   6.450
 8777POPC   D2A56116  12.061  27.590   6.750
 8777POPC   C3A56117  12.121  27.574   7.050
 8777POPC   C4A56118  12.085  27.581   7.350
 8777POPC   C1B56119  11.972  27.851   6.450
 8777POPC   C2B56120  11.991  27.853   6.750
 8777POPC   C3B56121  11.956  27.859   7.050
 8777POPC   C4B56122  12.008  27.821   7.350
 8778POPC   NC356123  24.498   7.427   5.550
 8778POPC   PO456124  24.501   7.410   5.850
 8778POPC   GL156125  24.473   7.466   6.150
 8778POPC   GL256126  24.588   7.560   6.150
 8778POPC   C1A56127  24.534   7.470   6.450
 8778POPC   D2A56128  24.485   7.432   6.750
 8778POPC   C3A56129  24.484   7.407   7.050
 8778POPC   C4A56130  24.451   7.425   7.350
 8778POPC   C1B56131  24.594   7.616   6.450
 8778POPC   C2B56132  24.574   7.614   6.750
 8778POPC   C3B56133  24.643   7.647   7.050
 8778POPC   C4B56134  24.650   7.635   7.350
 8779POPC   NC356135   9.788  19.796   5.550
 8779POPC   PO456136   9.790  19.861   5.850
 8779POPC   GL156137   9.712  19.884   6.150
 8779POPC   GL256138   9.843  19.843   6.150
 8779POPC   C1A56139   9.765  19.835   6.450
 8779POPC   D2A56140   9.797  19.800   6.750
 8779POPC   C3A56141   9.714  19.869   7.050
 8779POPC   C4A56142   9.700  19.866   7.350
 8779POPC   C1B56143   9.993  19.959   6.450
 8779POPC   C2B56144  10.000  19.903   6.750
 8779POPC   C3B56145   9.942  19.955   7.050
 8779POPC   C4B56146   9.931  19.899   7.350
 8780POPC   NC356147  42.339  43.922   5.550
 8780POPC   PO456148  42.356  43.918   5.850
 8780POPC   GL156149  42.345  43.914   6.150
 8780POPC   GL256150  42.470  43.868   6.150
 8780POPC   C1A56151  42.348  43.886   6.450
 8780POPC   D2A56152  42.316  43.853   6.750
 8780POPC   C3A56153  42.286  43.859   7.050
 8780POPC   C4A56154  42.325  43.904   7.350
 8780POPC   C1B56155  42.549  43.909   6.450
 8780POPC   C2B56156  42.572  43.831   6.750
 8780POPC   C3B56157  42.590  43.874   7.050
 8780POPC   C4B56158  42.601  43.871   7.350
 8781POPC   NC356159  33.823  16.740   5.550
 8781POPC   PO456160  33.833  16.763   5.850
 8781POPC   GL156161  33.790  16.752   6.150
 8781POPC   GL256162  33.867  16.635   6.150
 8781POPC   C1A56163  33.767  16.716   6.450
 8781POPC   D2A56164  33.797  16.697   6.750
 8781POPC   C3A56165  33.819  16.723   7.050
 8781POPC   C4A56166  33.847  16.700   7.350
 8781POPC   C1B56167  34.072  16.615   6.450
 8781POPC   C2B56168  34.029  16.587   6.750
 8781POPC   C3B56169  34.012  16.613   7.050
 8781POPC   C4B56170  34.035  16.672   7.350
 8782POPC   NC356171  26.809   5.845   5.550
 8782POPC   PO456172  26.787   5.845   5.850
 8782POPC   GL156173  26.824   5.864   6.150
 8782POPC   GL256174  26.771   6.019   6.150
 8782POPC   C1A56175  26.826   5.892   6.450
 8782POPC   D2A56176  26.799   5.825   6.750
 8782POPC   C3A56177  26.768   5.838   7.050
 8782POPC   C4A56178  26.825   5.857   7.350
 8782POPC   C1B56179  26.661   6.079   6.450
 8782POPC   C2B56180  26.744   6.131   6.750
 8782POPC   C3B56181  26.719   6.041   7.050
 8782POPC   C4B56182  26.662   6.040   7.350
 8783POPC   NC356183  33.814  11.286   5.550
 8783POPC   PO456184  33.818  11.335   5.850
 8783POPC   GL156185  33.845  11.324   6.150
 8783POPC   GL256186  33.821  11.458   6.150
 8783POPC   C1A56187  33.843  11.253   6.450
 8783POPC   D2A56188  33.812  11.263   6.750
 8783POPC   C3A56189  33.771  11.333   7.050
 8783POPC   C4A56190  33.772  11.263   7.350
 8783POPC   C1B56191  33.893  11.567   6.450
 8783POPC   C2B56192  33.851  11.518   6.750
 8783POPC   C3B56193  33.910  11.503   7.050
 8783POPC   C4B56194  33.872  11.529   7.350
 8784POPC   NC356195  44.647  18.292   5.550
 8784POPC   PO456196  44.677  18.244   5.850
 8784POPC   GL156197  44.704  18.273   6.150
 8784POPC   GL256198  44.522  18.196   6.150
 8784POPC   C1A56199  44.619  18.278   6.450
 8784POPC   D2A56200  44.640  18.330   6.750
 8784POPC   C3A56201  44.683  18.285   7.050
 8784POPC   C4A56202  44.681  18.277   7.350
 8784POPC   C1B56203  44.471  18.214   6.450
 8784POPC   C2B56204  44.473  18.203   6.750
 8784POPC   C3B56205  44.422  18.198   7.050
 8784POPC   C4B56206  44.383  18.211   7.350
 8785POPC   NC356207  22.126  22.166   5.550
 8785POPC   PO456208  22.173  22.207   5.850
 8785POPC   GL156209  22.170  22.174   6.150
 8785POPC   GL256210  22.109  22.277   6.150
 8785POPC   C1A56211  22.182  22.172   6.450
 8785POPC   D2A56212  22.121  22.115   6.750
 8785POPC   C3A56213  22.192  22.209   7.050
 8785POPC   C4A56214  22.144  22.201   7.350
 8785POPC   C1B56215  22.099  22.418   6.450
 8785POPC   C2B56216  22.144  22.455   6.750
 8785POPC   C3B56217  22.091  22.383   7.050
 8785POPC   C4B56218  22.118  22.358   7.350
 8786POPC   NC356219  22.971  36.913   5.550
 8786POPC   PO456220  22.969  36.952   5.850
 8786POPC   GL156221  22.946  36.909   6.150
 8786POPC   GL256222  23.027  37.034   6.150
 8786POPC   C1A56223  22.916  36.880   6.450
 8786POPC   D2A56224  22.968  36.924   6.750
 8786POPC   C3A56225  22.928  36.926   7.050
 8786POPC   C4A56226  22.905  36.931   7.350
 8786POPC   C1B56227  23.054  37.165   6.450
 8786POPC   C2B56228  23.005  37.177   6.750
 8786POPC   C3B56229  23.055  37.133   7.050
 8786POPC   C4B56230  23.000  37.097   7.350
 8787POPC   NC356231  22.917   8.983   5.550
 8787POPC   PO456232  22.890   9.003   5.850
 8787POPC   GL156233  22.924   9.003   6.150
 8787POPC   GL256234  22.954   9.055   6.150
 8787POPC   C1A56235  22.939   8.998   6.450
 8787POPC   D2A56236  22.986   8.979   6.750
 8787POPC   C3A56237  22.950   9.005   7.050
 8787POPC   C4A56238  22.908   8.986   7.350
 8787POPC   C1B56239  22.915   9.192   6.450
 8787POPC   C2B56240  22.896   9.195   6.750
 8787POPC   C3B56241  22.959   9.221   7.050
 8787POPC   C4B56242  22.878   9.242   7.350
 8788POPC   NC356243  35.398  19.798   5.550
 8788POPC   PO456244  35.317  19.794   5.850
 8788POPC   GL156245  35.326  19.855   6.150
 8788POPC   GL256246  35.301  19.870   6.150
 8788POPC   C1A56247  35.351  19.839   6.450
 8788POPC   D2A56248  35.348  19.843   6.750
 8788POPC   C3A56249  35.311  19.789   7.050
 8788POPC   C4A56250  35.372  19.818   7.350
 8788POPC   C1B56251  35.139  19.997   6.450
 8788POPC   C2B56252  35.194  19.994   6.750
 8788POPC   C3B56253  35.136  19.961   7.050
 8788POPC   C4B56254  35.160  20.041   7.350
 8789POPC   NC356255  39.269  22.209   5.550
 8789POPC   PO456256  39.254  22.124   5.850
 8789POPC   GL156257  39.271  22.136   6.150
 8789POPC   GL256258  39.072  22.224   6.150
 8789POPC   C1A56259  39.234  22.186   6.450
 8789POPC   D2A56260  39.213  22.142   6.750
 8789POPC   C3A56261  39.213  22.132   7.050
 8789POPC   C4A56262  39.182  22.160   7.350
 8789POPC   C1B56263  39.014  22.251   6.450
 8789POPC   C2B56264  39.021  22.241   6.750
 8789POPC   C3B56265  38.972  22.279   7.050
 8789POPC   C4B56266  38.967  22.272   7.350
 8790POPC   NC356267   0.422  29.884   5.550
 8790POPC   PO456268   0.404  29.884   5.850
 8790POPC   GL156269   0.471  29.952   6.150
 8790POPC   GL256270   0.305  29.878   6.150
 8790POPC   C1A56271   0.420  29.881   6.450
 8790POPC   D2A56272   0.474  29.885   6.750
 8790POPC   C3A56273   0.405  29.914   7.050
 8790POPC   C4A56274   0.421  29.968   7.350
 8790POPC   C1B56275   0.278  29.748   6.450
 8790POPC   C2B56276   0.247  29.772   6.750
 8790POPC   C3B56277   0.243  29.741   7.050
 8790POPC   C4B56278   0.295  29.773   7.350
 8791POPC   NC356279  43.905  30.674   5.550
 8791POPC   PO456280  43.842  30.670   5.850
 8791POPC   GL156281  43.864  30.726   6.150
 8791POPC   GL256282  43.756  30.775   6.150
 8791POPC   C1A56283  43.872  30.691   6.450
 8791POPC   D2A56284  43.889  30.647   6.750
 8791POPC   C3A56285  43.887  30.664   7.050
 8791POPC   C4A56286  43.887  30.727   7.350
 8791POPC   C1B56287  43.703  30.876   6.450
 8791POPC   C2B56288  43.658  30.828   6.750
 8791POPC   C3B56289  43.745  30.886   7.050
 8791POPC   C4B56290  43.735  30.891   7.350
 8792POPC   NC356291   1.985  39.277   5.550
 8792POPC   PO456292   1.983  39.234   5.850
 8792POPC   GL156293   1.959  39.190   6.150
 8792POPC   GL256294   2.143  39.218   6.150
 8792POPC   C1A56295   1.978  39.193   6.450
 8792POPC   D2A56296   1.979  39.186   6.750
 8792POPC   C3A56297   1.955  39.262   7.050
 8792POPC   C4A56298   1.999  39.265   7.350
 8792POPC   C1B56299   2.231  39.219   6.450
 8792POPC   C2B56300   2.252  39.252   6.750
 8792POPC   C3B56301   2.246  39.195   7.050
 8792POPC   C4B56302   2.244  39.177   7.350
 8793POPC   NC356303  42.341  26.783   5.550
 8793POPC   PO456304  42.369  26.833   5.850
 8793POPC   GL156305  42.361  26.846   6.150
 8793POPC   GL256306  42.269  26.946   6.150
 8793POPC   C1A56307  42.310  26.832   6.450
 8793POPC   D2A56308  42.316  26.823   6.750
 8793POPC   C3A56309  42.357  26.850   7.050
 8793POPC   C4A56310  42.370  26.845   7.350
 8793POPC   C1B56311  42.258  27.105   6.450
 8793POPC   C2B56312  42.277  27.065   6.750
 8793POPC   C3B56313  42.294  27.028   7.050
 8793POPC   C4B56314  42.336  27.099   7.350
 8794POPC   NC356315   7.391  10.485   5.550
 8794POPC   PO456316   7.420  10.496   5.850
 8794POPC   GL156317   7.407  10.554   6.150
 8794POPC   GL256318   7.345  10.407   6.150
 8794POPC   C1A56319   7.447  10.558   6.450
 8794POPC   D2A56320   7.389  10.544   6.750
 8794POPC   C3A56321   7.415  10.557   7.050
 8794POPC   C4A56322   7.393  10.496   7.350
 8794POPC   C1B56323   7.254  10.284   6.450
 8794POPC   C2B56324   7.234  10.309   6.750
 8794POPC   C3B56325   7.303  10.310   7.050
 8794POPC   C4B56326   7.250  10.361   7.350
 8795POPC   NC356327  33.839   2.777   5.550
 8795POPC   PO456328  33.780   2.726   5.850
 8795POPC   GL156329  33.780   2.807   6.150
 8795POPC   GL256330  33.835   2.852   6.150
 8795POPC   C1A56331  33.831   2.763   6.450
 8795POPC   D2A56332  33.808   2.782   6.750
 8795POPC   C3A56333  33.807   2.773   7.050
 8795POPC   C4A56334  33.848   2.723   7.350
 8795POPC   C1B56335  33.786   3.050   6.450
 8795POPC   C2B56336  33.833   3.000   6.750
 8795POPC   C3B56337  33.783   3.061   7.050
 8795POPC   C4B56338  33.763   3.024   7.350
 8796POPC   NC356339  40.051  15.990   5.550
 8796POPC   PO456340  39.986  15.958   5.850
 8796POPC   GL156341  40.037  15.992   6.150
 8796POPC   GL256342  39.941  16.052   6.150
 8796POPC   C1A56343  40.014  15.925   6.450
 8796POPC   D2A56344  39.963  15.917   6.750
 8796POPC   C3A56345  40.041  15.924   7.050
 8796POPC   C4A56346  39.981  15.936   7.350
 8796POPC   C1B56347  39.794  16.050   6.450
 8796POPC   C2B56348  39.748  16.107   6.750
 8796POPC   C3B56349  39.761  16.024   7.050
 8796POPC   C4B56350  39.768  16.056   7.350
 8797POPC   NC356351  24.459  19.813   5.550
 8797POPC   PO456352  24.511  19.881   5.850
 8797POPC   GL156353  24.472  19.844   6.150
 8797POPC   GL256354  24.325  19.748   6.150
 8797POPC   C1A56355  24.440  19.795   6.450
 8797POPC   D2A56356  24.452  19.823   6.750
 8797POPC   C3A56357  24.531  19.826   7.050
 8797POPC   C4A56358  24.490  19.866   7.350
 8797POPC   C1B56359  24.257  19.696   6.450
 8797POPC   C2B56360  24.259  19.721   6.750
 8797POPC   C3B56361  24.261  19.726   7.050
 8797POPC   C4B56362  24.253  19.692   7.350
 8798POPC   NC356363  36.105   9.705   5.550
 8798POPC   PO456364  36.126   9.729   5.850
 8798POPC   GL156365  36.140   9.717   6.150
 8798POPC   GL256366  36.194   9.866   6.150
 8798POPC   C1A56367  36.079   9.702   6.450
 8798POPC   D2A56368  36.079   9.784   6.750
 8798POPC   C3A56369  36.140   9.716   7.050
 8798POPC   C4A56370  36.128   9.708   7.350
 8798POPC   C1B56371  36.224   9.960   6.450
 8798POPC   C2B56372  36.143   9.965   6.750
 8798POPC   C3B56373  36.217   9.984   7.050
 8798POPC   C4B56374  36.194   9.993   7.350
 8799POPC   NC356375   5.075  36.124   5.550
 8799POPC   PO456376   5.059  36.166   5.850
 8799POPC   GL156377   5.092  36.105   6.150
 8799POPC   GL256378   4.964  36.159   6.150
 8799POPC   C1A56379   5.111  36.127   6.450
 8799POPC   D2A56380   5.101  36.079   6.750
 8799POPC   C3A56381   5.082  36.126   7.050
 8799POPC   C4A56382   5.107  36.104   7.350
 8799POPC   C1B56383   4.886  36.265   6.450
 8799POPC   C2B56384   4.911  36.246   6.750
 8799POPC   C3B56385   4.915  36.244   7.050
 8799POPC   C4B56386   4.889  36.219   7.350
 8800POPC   NC356387  11.285  10.557   5.550
 8800POPC   PO456388  11.267  10.538   5.850
 8800POPC   GL156389  11.323  10.540   6.150
 8800POPC   GL256390  11.373  10.361   6.150
 8800POPC   C1A56391  11.317  10.549   6.450
 8800POPC   D2A56392  11.258  10.498   6.750
 8800POPC   C3A56393  11.274  10.517   7.050
 8800POPC   C4A56394  11.292  10.537   7.350
 8800POPC   C1B56395  11.430  10.328   6.450
 8800POPC   C2B56396  11.396  10.260   6.750
 8800POPC   C3B56397  11.388  10.292   7.050
 8800POPC   C4B56398  11.384  10.257   7.350
 8801POPC   NC356399  20.640  10.478   5.550
 8801POPC   PO456400  20.561  10.483   5.850
 8801POPC   GL156401  20.621  10.563   6.150
 8801POPC   GL256402  20.651  10.391   6.150
 8801POPC   C1A56403  20.626  10.565   6.450
 8801POPC   D2A56404  20.581  10.549   6.750
 8801POPC   C3A56405  20.578  10.569   7.050
 8801POPC   C4A56406  20.597  10.504   7.350
 8801POPC   C1B56407  20.765  10.366   6.450
 8801POPC   C2B56408  20.800  10.324   6.750
 8801POPC   C3B56409  20.732  10.327   7.050
 8801POPC   C4B56410  20.763  10.339   7.350
 8802POPC   NC356411  14.364  39.957   5.550
 8802POPC   PO456412  14.432  39.972   5.850
 8802POPC   GL156413  14.419  40.035   6.150
 8802POPC   GL256414  14.537  39.949   6.150
 8802POPC   C1A56415  14.381  39.970   6.450
 8802POPC   D2A56416  14.430  39.991   6.750
 8802POPC   C3A56417  14.383  39.982   7.050
 8802POPC   C4A56418  14.410  40.051   7.350
 8802POPC   C1B56419  14.636  39.879   6.450
 8802POPC   C2B56420  14.662  39.902   6.750
 8802POPC   C3B56421  14.677  39.898   7.050
 8802POPC   C4B56422  14.626  39.932   7.350
 8803POPC   NC356423   5.053  11.269   5.550
 8803POPC   PO456424   5.139  11.310   5.850
 8803POPC   GL156425   5.063  11.272   6.150
 8803POPC   GL256426   5.070  11.384   6.150
 8803POPC   C1A56427   5.069  11.260   6.450
 8803POPC   D2A56428   5.086  11.271   6.750
 8803POPC   C3A56429   5.076  11.300   7.050
 8803POPC   C4A56430   5.112  11.277   7.350
 8803POPC   C1B56431   5.000  11.553   6.450
 8803POPC   C2B56432   5.009  11.522   6.750
 8803POPC   C3B56433   5.000  11.572   7.050
 8803POPC   C4B56434   5.006  11.551   7.350
 8804POPC   NC356435  13.666  11.330   5.550
 8804POPC   PO456436  13.586  11.250   5.850
 8804POPC   GL156437  13.590  11.262   6.150
 8804POPC   GL256438  13.609  11.141   6.150
 8804POPC   C1A56439  13.608  11.340   6.450
 8804POPC   D2A56440  13.650  11.254   6.750
 8804POPC   C3A56441  13.629  11.261   7.050
 8804POPC   C4A56442  13.654  11.253   7.350
 8804POPC   C1B56443  13.595  11.030   6.450
 8804POPC   C2B56444  13.517  11.095   6.750
 8804POPC   C3B56445  13.586  11.101   7.050
 8804POPC   C4B56446  13.527  11.103   7.350
 8805POPC   NC356447  13.668   5.837   5.550
 8805POPC   PO456448  13.578   5.821   5.850
 8805POPC   GL156449  13.634   5.894   6.150
 8805POPC   GL256450  13.698   5.702   6.150
 8805POPC   C1A56451  13.606   5.869   6.450
 8805POPC   D2A56452  13.626   5.833   6.750
 8805POPC   C3A56453  13.659   5.907   7.050
 8805POPC   C4A56454  13.618   5.831   7.350
 8805POPC   C1B56455  13.718   5.580   6.450
 8805POPC   C2B56456  13.662   5.575   6.750
 8805POPC   C3B56457  13.704   5.654   7.050
 8805POPC   C4B56458  13.647   5.626   7.350
 8806POPC   NC356459  40.001  28.383   5.550
 8806POPC   PO456460  40.004  28.325   5.850
 8806POPC   GL156461  40.013  28.388   6.150
 8806POPC   GL256462  39.968  28.247   6.150
 8806POPC   C1A56463  39.997  28.406   6.450
 8806POPC   D2A56464  39.971  28.371   6.750
 8806POPC   C3A56465  40.047  28.405   7.050
 8806POPC   C4A56466  39.968  28.353   7.350
 8806POPC   C1B56467  39.861  28.166   6.450
 8806POPC   C2B56468  39.869  28.146   6.750
 8806POPC   C3B56469  39.871  28.196   7.050
 8806POPC   C4B56470  39.867  28.151   7.350
 8807POPC   NC356471  26.070  11.281   5.550
 8807POPC   PO456472  26.076  11.269   5.850
 8807POPC   GL156473  26.070  11.304   6.150
 8807POPC   GL256474  26.195  11.267   6.150
 8807POPC   C1A56475  25.993  11.255   6.450
 8807POPC   D2A56476  26.090  11.345   6.750
 8807POPC   C3A56477  26.020  11.350   7.050
 8807POPC   C4A56478  26.051  11.307   7.350
 8807POPC   C1B56479  26.217  11.129   6.450
 8807POPC   C2B56480  26.257  11.176   6.750
 8807POPC   C3B56481  26.264  11.192   7.050
 8807POPC   C4B56482  26.255  11.207   7.350
 8808POPC   NC356483  36.905  44.692   5.550
 8808POPC   PO456484  36.924  44.623   5.850
 8808POPC   GL156485  36.912  44.656   6.150
 8808POPC   GL256486  36.856  44.784   6.150
 8808POPC   C1A56487  36.939  44.683   6.450
 8808POPC   D2A56488  36.912  44.656   6.750
 8808POPC   C3A56489  36.868  44.698   7.050
 8808POPC   C4A56490  36.913  44.646   7.350
 8808POPC   C1B56491  36.688  44.821   6.450
 8808POPC   C2B56492  36.760  44.849   6.750
 8808POPC   C3B56493  36.745  44.805   7.050
 8808POPC   C4B56494  36.734  44.852   7.350
 8809POPC   NC356495   5.114  22.178   5.550
 8809POPC   PO456496   5.125  22.141   5.850
 8809POPC   GL156497   5.112  22.117   6.150
 8809POPC   GL256498   5.083  22.072   6.150
 8809POPC   C1A56499   5.063  22.204   6.450
 8809POPC   D2A56500   5.101  22.127   6.750
 8809POPC   C3A56501   5.119  22.168   7.050
 8809POPC   C4A56502   5.068  22.164   7.350
 8809POPC   C1B56503   5.092  21.887   6.450
 8809POPC   C2B56504   5.129  21.899   6.750
 8809POPC   C3B56505   5.063  21.939   7.050
 8809POPC   C4B56506   5.130  21.928   7.350
 8810POPC   NC356507  21.377  20.564   5.550
 8810POPC   PO456508  21.359  20.592   5.850
 8810POPC   GL156509  21.371  20.633   6.150
 8810POPC   GL256510  21.365  20.732   6.150
 8810POPC   C1A56511  21.378  20.611   6.450
 8810POPC   D2A56512  21.422  20.594   6.750
 8810POPC   C3A56513  21.395  20.588   7.050
 8810POPC   C4A56514  21.435  20.590   7.350
 8810POPC   C1B56515  21.318  20.895   6.450
 8810POPC   C2B56516  21.391  20.814   6.750
 8810POPC   C3B56517  21.308  20.868   7.050
 8810POPC   C4B56518  21.337  20.809   7.350
 8811POPC   NC356519  27.617  43.845   5.550
 8811POPC   PO456520  27.599  43.915   5.850
 8811POPC   GL156521  27.591  43.921   6.150
 8811POPC   GL256522  27.564  43.980   6.150
 8811POPC   C1A56523  27.625  43.908   6.450
 8811POPC   D2A56524  27.573  43.837   6.750
 8811POPC   C3A56525  27.553  43.843   7.050
 8811POPC   C4A56526  27.609  43.931   7.350
 8811POPC   C1B56527  27.476  44.115   6.450
 8811POPC   C2B56528  27.510  44.160   6.750
 8811POPC   C3B56529  27.525  44.175   7.050
 8811POPC   C4B56530  27.561  44.165   7.350
 8812POPC   NC356531   4.289  38.439   5.550
 8812POPC   PO456532   4.282  38.500   5.850
 8812POPC   GL156533   4.338  38.421   6.150
 8812POPC   GL256534   4.436  38.354   6.150
 8812POPC   C1A56535   4.333  38.441   6.450
 8812POPC   D2A56536   4.330  38.468   6.750
 8812POPC   C3A56537   4.277  38.430   7.050
 8812POPC   C4A56538   4.292  38.425   7.350
 8812POPC   C1B56539   4.530  38.396   6.450
 8812POPC   C2B56540   4.517  38.332   6.750
 8812POPC   C3B56541   4.509  38.384   7.050
 8812POPC   C4B56542   4.520  38.377   7.350
 8813POPC   NC356543  14.453  37.726   5.550
 8813POPC   PO456544  14.442  37.634   5.850
 8813POPC   GL156545  14.396  37.678   6.150
 8813POPC   GL256546  14.359  37.815   6.150
 8813POPC   C1A56547  14.399  37.711   6.450
 8813POPC   D2A56548  14.402  37.674   6.750
 8813POPC   C3A56549  14.434  37.726   7.050
 8813POPC   C4A56550  14.420  37.724   7.350
 8813POPC   C1B56551  14.431  37.954   6.450
 8813POPC   C2B56552  14.393  37.977   6.750
 8813POPC   C3B56553  14.446  37.905   7.050
 8813POPC   C4B56554  14.413  37.907   7.350
 8814POPC   NC356555  39.187  28.406   5.550
 8814POPC   PO456556  39.206  28.393   5.850
 8814POPC   GL156557  39.243  28.397   6.150
 8814POPC   GL256558  39.212  28.481   6.150
 8814POPC   C1A56559  39.245  28.416   6.450
 8814POPC   D2A56560  39.191  28.357   6.750
 8814POPC   C3A56561  39.193  28.394   7.050
 8814POPC   C4A56562  39.246  28.394   7.350
 8814POPC   C1B56563  39.176  28.639   6.450
 8814POPC   C2B56564  39.204  28.595   6.750
 8814POPC   C3B56565  39.191  28.648   7.050
 8814POPC   C4B56566  39.194  28.636   7.350
 8815POPC   NC356567  12.865  40.780   5.550
 8815POPC   PO456568  12.869  40.815   5.850
 8815POPC   GL156569  12.819  40.746   6.150
 8815POPC   GL256570  12.781  40.675   6.150
 8815POPC   C1A56571  12.863  40.748   6.450
 8815POPC   D2A56572  12.828  40.744   6.750
 8815POPC   C3A56573  12.891  40.766   7.050
 8815POPC   C4A56574  12.852  40.745   7.350
 8815POPC   C1B56575  12.646  40.606   6.450
 8815POPC   C2B56576  12.674  40.632   6.750
 8815POPC   C3B56577  12.609  40.659   7.050
 8815POPC   C4B56578  12.617  40.596   7.350
 8816POPC   NC356579  20.637  16.694   5.550
 8816POPC   PO456580  20.584  16.683   5.850
 8816POPC   GL156581  20.635  16.762   6.150
 8816POPC   GL256582  20.713  16.601   6.150
 8816POPC   C1A56583  20.583  16.767   6.450
 8816POPC   D2A56584  20.648  16.689   6.750
 8816POPC   C3A56585  20.624  16.747   7.050
 8816POPC   C4A56586  20.612  16.776   7.350
 8816POPC   C1B56587  20.767  16.594   6.450
 8816POPC   C2B56588  20.804  16.585   6.750
 8816POPC   C3B56589  20.796  16.511   7.050
 8816POPC   C4B56590  20.811  16.576   7.350
 8817POPC   NC356591  14.392   3.512   5.550
 8817POPC   PO456592  14.442   3.573   5.850
 8817POPC   GL156593  14.374   3.564   6.150
 8817POPC   GL256594  14.440   3.625   6.150
 8817POPC   C1A56595  14.356   3.499   6.450
 8817POPC   D2A56596  14.354   3.498   6.750
 8817POPC   C3A56597  14.399   3.522   7.050
 8817POPC   C4A56598  14.399   3.568   7.350
 8817POPC   C1B56599  14.416   3.796   6.450
 8817POPC   C2B56600  14.452   3.822   6.750
 8817POPC   C3B56601  14.432   3.752   7.050
 8817POPC   C4B56602  14.409   3.816   7.350
 8818POPC   NC356603  21.346  25.272   5.550
 8818POPC   PO456604  21.368  25.239   5.850
 8818POPC   GL156605  21.357  25.305   6.150
 8818POPC   GL256606  21.311  25.397   6.150
 8818POPC   C1A56607  21.412  25.264   6.450
 8818POPC   D2A56608  21.368  25.239   6.750
 8818POPC   C3A56609  21.372  25.217   7.050
 8818POPC   C4A56610  21.367  25.235   7.350
 8818POPC   C1B56611  21.302  25.444   6.450
 8818POPC   C2B56612  21.205  25.454   6.750
 8818POPC   C3B56613  21.206  25.490   7.050
 8818POPC   C4B56614  21.294  25.520   7.350
 8819POPC   NC356615   7.428   1.966   5.550
 8819POPC   PO456616   7.386   1.977   5.850
 8819POPC   GL156617   7.422   2.023   6.150
 8819POPC   GL256618   7.354   1.903   6.150
 8819POPC   C1A56619   7.470   1.964   6.450
 8819POPC   D2A56620   7.399   1.945   6.750
 8819POPC   C3A56621   7.449   2.005   7.050
 8819POPC   C4A56622   7.383   1.977   7.350
 8819POPC   C1B56623   7.218   1.772   6.450
 8819POPC   C2B56624   7.240   1.765   6.750
 8819POPC   C3B56625   7.219   1.792   7.050
 8819POPC   C4B56626   7.291   1.801   7.350
 8820POPC   NC356627  16.748  29.150   5.550
 8820POPC   PO456628  16.743  29.171   5.850
 8820POPC   GL156629  16.695  29.188   6.150
 8820POPC   GL256630  16.860  29.257   6.150
 8820POPC   C1A56631  16.695  29.175   6.450
 8820POPC   D2A56632  16.716  29.180   6.750
 8820POPC   C3A56633  16.690  29.134   7.050
 8820POPC   C4A56634  16.775  29.110   7.350
 8820POPC   C1B56635  16.958  29.297   6.450
 8820POPC   C2B56636  16.954  29.274   6.750
 8820POPC   C3B56637  16.911  29.301   7.050
 8820POPC   C4B56638  16.950  29.308   7.350
 8821POPC   NC356639  12.069  36.932   5.550
 8821POPC   PO456640  12.067  36.891   5.850
 8821POPC   GL156641  12.054  36.918   6.150
 8821POPC   GL256642  12.160  36.754   6.150
 8821POPC   C1A56643  12.069  36.924   6.450
 8821POPC   D2A56644  12.115  36.917   6.750
 8821POPC   C3A56645  12.082  36.946   7.050
 8821POPC   C4A56646  12.032  36.916   7.350
 8821POPC   C1B56647  12.267  36.677   6.450
 8821POPC   C2B56648  12.267  36.737   6.750
 8821POPC   C3B56649  12.250  36.735   7.050
 8821POPC   C4B56650  12.217  36.741   7.350
 8822POPC   NC356651  39.981  19.868   5.550
 8822POPC   PO456652  39.970  19.835   5.850
 8822POPC   GL156653  40.024  19.852   6.150
 8822POPC   GL256654  39.933  19.933   6.150
 8822POPC   C1A56655  40.028  19.868   6.450
 8822POPC   D2A56656  39.987  19.826   6.750
 8822POPC   C3A56657  39.976  19.861   7.050
 8822POPC   C4A56658  39.997  19.841   7.350
 8822POPC   C1B56659  39.916  20.100   6.450
 8822POPC   C2B56660  39.892  20.118   6.750
 8822POPC   C3B56661  39.897  20.035   7.050
 8822POPC   C4B56662  39.925  20.095   7.350
 8823POPC   NC356663  28.414  10.493   5.550
 8823POPC   PO456664  28.418  10.565   5.850
 8823POPC   GL156665  28.386  10.547   6.150
 8823POPC   GL256666  28.298  10.484   6.150
 8823POPC   C1A56667  28.367  10.498   6.450
 8823POPC   D2A56668  28.319  10.561   6.750
 8823POPC   C3A56669  28.322  10.527   7.050
 8823POPC   C4A56670  28.334  10.516   7.350
 8823POPC   C1B56671  28.084  10.405   6.450
 8823POPC   C2B56672  28.163  10.462   6.750
 8823POPC   C3B56673  28.172  10.465   7.050
 8823POPC   C4B56674  28.171  10.417   7.350
 8824POPC   NC356675  44.674   1.946   5.550
 8824POPC   PO456676  44.632   2.006   5.850
 8824POPC   GL156677  44.655   1.981   6.150
 8824POPC   GL256678  44.812   1.969   6.150
 8824POPC   C1A56679  44.697   1.956   6.450
 8824POPC   D2A56680  44.681   2.034   6.750
 8824POPC   C3A56681  44.678   2.005   7.050
 8824POPC   C4A56682  44.689   1.964   7.350
 8824POPC   C1B56683  44.845   1.888   6.450
 8824POPC   C2B56684  44.890   1.831   6.750
 8824POPC   C3B56685  44.885   1.866   7.050
 8824POPC   C4B56686  44.848   1.880   7.350
 8825POPC   NC356687  28.367   8.984   5.550
 8825POPC   PO456688  28.384   8.957   5.850
 8825POPC   GL156689  28.345   8.971   6.150
 8825POPC   GL256690  28.478   9.084   6.150
 8825POPC   C1A56691  28.332   8.963   6.450
 8825POPC   D2A56692  28.368   8.963   6.750
 8825POPC   C3A56693  28.399   8.952   7.050
 8825POPC   C4A56694  28.348   8.977   7.350
 8825POPC   C1B56695  28.584   9.164   6.450
 8825POPC   C2B56696  28.515   9.180   6.750
 8825POPC   C3B56697  28.562   9.131   7.050
 8825POPC   C4B56698  28.587   9.142   7.350
 8826POPC   NC356699  43.113  33.843   5.550
 8826POPC   PO456700  43.155  33.757   5.850
 8826POPC   GL156701  43.079  33.773   6.150
 8826POPC   GL256702  43.236  33.774   6.150
 8826POPC   C1A56703  43.073  33.758   6.450
 8826POPC   D2A56704  43.083  33.752   6.750
 8826POPC   C3A56705  43.147  33.755   7.050
 8826POPC   C4A56706  43.117  33.764   7.350
 8826POPC   C1B56707  43.367  33.750   6.450
 8826POPC   C2B56708  43.357  33.792   6.750
 8826POPC   C3B56709  43.341  33.830   7.050
 8826POPC   C4B56710  43.360  33.813   7.350
 8827POPC   NC356711  27.589  11.331   5.550
 8827POPC   PO456712  27.604  11.264   5.850
 8827POPC   GL156713  27.572  11.293   6.150
 8827POPC   GL256714  27.570  11.227   6.150
 8827POPC   C1A56715  27.602  11.330   6.450
 8827POPC   D2A56716  27.565  11.270   6.750
 8827POPC   C3A56717  27.589  11.290   7.050
 8827POPC   C4A56718  27.630  11.329   7.350
 8827POPC   C1B56719  27.504  11.049   6.450
 8827POPC   C2B56720  27.558  11.040   6.750
 8827POPC   C3B56721  27.531  11.032   7.050
 8827POPC   C4B56722  27.468  11.048   7.350
 8828POPC   NC356723  37.648  39.185   5.550
 8828POPC   PO456724  37.630  39.258   5.850
 8828POPC   GL156725  37.674  39.203   6.150
 8828POPC   GL256726  37.792  39.209   6.150
 8828POPC   C1A56727  37.678  39.200   6.450
 8828POPC   D2A56728  37.670  39.232   6.750
 8828POPC   C3A56729  37.646  39.191   7.050
 8828POPC   C4A56730  37.640  39.189   7.350
 8828POPC   C1B56731  37.943  39.081   6.450
 8828POPC   C2B56732  37.955  39.152   6.750
 8828POPC   C3B56733  37.883  39.085   7.050
 8828POPC   C4B56734  37.901  39.109   7.350
 8829POPC   NC356735   5.875  26.798   5.550
 8829POPC   PO456736   5.897  26.862   5.850
 8829POPC   GL156737   5.887  26.795   6.150
 8829POPC   GL256738   5.698  26.830   6.150
 8829POPC   C1A56739   5.862  26.836   6.450
 8829POPC   D2A56740   5.918  26.846   6.750
 8829POPC   C3A56741   5.825  26.867   7.050
 8829POPC   C4A56742   5.860  26.857   7.350
 8829POPC   C1B56743   5.613  26.780   6.450
 8829POPC   C2B56744   5.594  26.797   6.750
 8829POPC   C3B56745   5.590  26.795   7.050
 8829POPC   C4B56746   5.612  26.745   7.350
 8830POPC   NC356747  36.863  21.401   5.550
 8830POPC   PO456748  36.889  21.435   5.850
 8830POPC   GL156749  36.882  21.366   6.150
 8830POPC   GL256750  36.796  21.509   6.150
 8830POPC   C1A56751  36.947  21.425   6.450
 8830POPC   D2A56752  36.936  21.351   6.750
 8830POPC   C3A56753  36.908  21.356   7.050
 8830POPC   C4A56754  36.895  21.413   7.350
 8830POPC   C1B56755  36.765  21.566   6.450
 8830POPC   C2B56756  36.744  21.621   6.750
 8830POPC   C3B56757  36.751  21.556   7.050
 8830POPC   C4B56758  36.741  21.573   7.350
 8831POPC   NC356759  43.876   1.260   5.550
 8831POPC   PO456760  43.925   1.215   5.850
 8831POPC   GL156761  43.886   1.225   6.150
 8831POPC   GL256762  43.812   1.126   6.150
 8831POPC   C1A56763  43.864   1.247   6.450
 8831POPC   D2A56764  43.882   1.242   6.750
 8831POPC   C3A56765  43.890   1.227   7.050
 8831POPC   C4A56766  43.847   1.168   7.350
 8831POPC   C1B56767  43.782   0.986   6.450
 8831POPC   C2B56768  43.789   0.950   6.750
 8831POPC   C3B56769  43.773   0.992   7.050
 8831POPC   C4B56770  43.794   0.985   7.350
 8832POPC   NC356771   4.272  29.095   5.550
 8832POPC   PO456772   4.328  29.141   5.850
 8832POPC   GL156773   4.287  29.155   6.150
 8832POPC   GL256774   4.229  29.071   6.150
 8832POPC   C1A56775   4.363  29.125   6.450
 8832POPC   D2A56776   4.364  29.110   6.750
 8832POPC   C3A56777   4.284  29.099   7.050
 8832POPC   C4A56778   4.310  29.170   7.350
 8832POPC   C1B56779   4.125  28.964   6.450
 8832POPC   C2B56780   4.090  29.041   6.750
 8832POPC   C3B56781   4.078  28.983   7.050
 8832POPC   C4B56782   4.069  29.039   7.350
 8833POPC   NC356783  18.280  41.568   5.550
 8833POPC   PO456784  18.258  41.533   5.850
 8833POPC   GL156785  18.256  41.562   6.150
 8833POPC   GL256786  18.444  41.523   6.150
 8833POPC   C1A56787  18.294  41.536   6.450
 8833POPC   D2A56788  18.237  41.564   6.750
 8833POPC   C3A56789  18.258  41.586   7.050
 8833POPC   C4A56790  18.291  41.554   7.350
 8833POPC   C1B56791  18.575  41.544   6.450
 8833POPC   C2B56792  18.539  41.536   6.750
 8833POPC   C3B56793  18.523  41.619   7.050
 8833POPC   C4B56794  18.518  41.613   7.350
 8834POPC   NC356795  30.714  22.961   5.550
 8834POPC   PO456796  30.742  22.952   5.850
 8834POPC   GL156797  30.717  22.913   6.150
 8834POPC   GL256798  30.712  23.017   6.150
 8834POPC   C1A56799  30.678  22.891   6.450
 8834POPC   D2A56800  30.688  22.939   6.750
 8834POPC   C3A56801  30.657  22.976   7.050
 8834POPC   C4A56802  30.694  22.956   7.350
 8834POPC   C1B56803  30.847  23.187   6.450
 8834POPC   C2B56804  30.783  23.144   6.750
 8834POPC   C3B56805  30.848  23.182   7.050
 8834POPC   C4B56806  30.854  23.199   7.350
 8835POPC   NC356807   8.231   3.522   5.550
 8835POPC   PO456808   8.215   3.540   5.850
 8835POPC   GL156809   8.196   3.580   6.150
 8835POPC   GL256810   8.354   3.579   6.150
 8835POPC   C1A56811   8.219   3.573   6.450
 8835POPC   D2A56812   8.171   3.568   6.750
 8835POPC   C3A56813   8.233   3.508   7.050
 8835POPC   C4A56814   8.154   3.572   7.350
 8835POPC   C1B56815   8.421   3.644   6.450
 8835POPC   C2B56816   8.401   3.639   6.750
 8835POPC   C3B56817   8.462   3.563   7.050
 8835POPC   C4B56818   8.412   3.635   7.350
 8836POPC   NC356819  31.469  15.922   5.550
 8836POPC   PO456820  31.442  15.958   5.850
 8836POPC   GL156821  31.462  15.961   6.150
 8836POPC   GL256822  31.417  15.806   6.150
 8836POPC   C1A56823  31.447  15.975   6.450
 8836POPC   D2A56824  31.488  15.958   6.750
 8836POPC   C3A56825  31.505  15.972   7.050
 8836POPC   C4A56826  31.485  15.972   7.350
 8836POPC   C1B56827  31.369  15.744   6.450
 8836POPC   C2B56828  31.367  15.753   6.750
 8836POPC   C3B56829  31.302  15.722   7.050
 8836POPC   C4B56830  31.300  15.777   7.350
 8837POPC   NC356831  29.190  10.505   5.550
 8837POPC   PO456832  29.108  10.499   5.850
 8837POPC   GL156833  29.123  10.522   6.150
 8837POPC   GL256834  29.223  10.508   6.150
 8837POPC   C1A56835  29.156  10.478   6.450
 8837POPC   D2A56836  29.125  10.556   6.750
 8837POPC   C3A56837  29.121  10.537   7.050
 8837POPC   C4A56838  29.104  10.569   7.350
 8837POPC   C1B56839  29.394  10.479   6.450
 8837POPC   C2B56840  29.381  10.516   6.750
 8837POPC   C3B56841  29.340  10.473   7.050
 8837POPC   C4B56842  29.370  10.491   7.350
 8838POPC   NC356843  29.170  26.809   5.550
 8838POPC   PO456844  29.184  26.775   5.850
 8838POPC   GL156845  29.146  26.830   6.150
 8838POPC   GL256846  29.101  26.675   6.150
 8838POPC   C1A56847  29.126  26.844   6.450
 8838POPC   D2A56848  29.112  26.826   6.750
 8838POPC   C3A56849  29.119  26.771   7.050
 8838POPC   C4A56850  29.121  26.848   7.350
 8838POPC   C1B56851  29.089  26.597   6.450
 8838POPC   C2B56852  29.121  26.544   6.750
 8838POPC   C3B56853  29.103  26.526   7.050
 8838POPC   C4B56854  29.083  26.594   7.350
 8839POPC   NC356855   5.832  35.394   5.550
 8839POPC   PO456856   5.883  35.308   5.850
 8839POPC   GL156857   5.839  35.305   6.150
 8839POPC   GL256858   5.957  35.435   6.150
 8839POPC   C1A56859   5.835  35.375   6.450
 8839POPC   D2A56860   5.885  35.324   6.750
 8839POPC   C3A56861   5.872  35.334   7.050
 8839POPC   C4A56862   5.839  35.358   7.350
 8839POPC   C1B56863   6.029  35.461   6.450
 8839POPC   C2B56864   6.061  35.457   6.750
 8839POPC   C3B56865   6.094  35.492   7.050
 8839POPC   C4B56866   6.113  35.478   7.350
 8840POPC   NC356867  15.975  15.200   5.550
 8840POPC   PO456868  15.912  15.142   5.850
 8840POPC   GL156869  15.976  15.154   6.150
 8840POPC   GL256870  15.989  15.075   6.150
 8840POPC   C1A56871  15.963  15.163   6.450
 8840POPC   D2A56872  15.979  15.185   6.750
 8840POPC   C3A56873  15.988  15.200   7.050
 8840POPC   C4A56874  15.908  15.229   7.350
 8840POPC   C1B56875  16.019  14.975   6.450
 8840POPC   C2B56876  16.037  14.909   6.750
 8840POPC   C3B56877  16.108  14.972   7.050
 8840POPC   C4B56878  16.108  14.963   7.350
 8841POPC   NC356879   2.744  29.130   5.550
 8841POPC   PO456880   2.738  29.179   5.850
 8841POPC   GL156881   2.797  29.124   6.150
 8841POPC   GL256882   2.675  29.143   6.150
 8841POPC   C1A56883   2.734  29.168   6.450
 8841POPC   D2A56884   2.723  29.132   6.750
 8841POPC   C3A56885   2.729  29.168   7.050
 8841POPC   C4A56886   2.732  29.134   7.350
 8841POPC   C1B56887   2.530  29.122   6.450
 8841POPC   C2B56888   2.542  29.123   6.750
 8841POPC   C3B56889   2.494  29.096   7.050
 8841POPC   C4B56890   2.571  29.100   7.350
 8842POPC   NC356891  16.682  36.869   5.550
 8842POPC   PO456892  16.757  36.941   5.850
 8842POPC   GL156893  16.702  36.863   6.150
 8842POPC   GL256894  16.811  37.051   6.150
 8842POPC   C1A56895  16.698  36.950   6.450
 8842POPC   D2A56896  16.720  36.950   6.750
 8842POPC   C3A56897  16.741  36.953   7.050
 8842POPC   C4A56898  16.734  36.913   7.350
 8842POPC   C1B56899  16.823  37.139   6.450
 8842POPC   C2B56900  16.850  37.175   6.750
 8842POPC   C3B56901  16.865  37.174   7.050
 8842POPC   C4B56902  16.790  37.131   7.350
 8843POPC   NC356903   3.581  26.054   5.550
 8843POPC   PO456904   3.538  26.082   5.850
 8843POPC   GL156905   3.572  26.079   6.150
 8843POPC   GL256906   3.399  25.986   6.150
 8843POPC   C1A56907   3.536  26.009   6.450
 8843POPC   D2A56908   3.579  26.075   6.750
 8843POPC   C3A56909   3.548  26.024   7.050
 8843POPC   C4A56910   3.541  26.064   7.350
 8843POPC   C1B56911   3.279  25.914   6.450
 8843POPC   C2B56912   3.315  25.957   6.750
 8843POPC   C3B56913   3.355  25.911   7.050
 8843POPC   C4B56914   3.348  25.897   7.350
 8844POPC   NC356915  40.005  33.829   5.550
 8844POPC   PO456916  39.974  33.778   5.850
 8844POPC   GL156917  40.035  33.771   6.150
 8844POPC   GL256918  40.124  33.903   6.150
 8844POPC   C1A56919  40.024  33.790   6.450
 8844POPC   D2A56920  40.022  33.765   6.750
 8844POPC   C3A56921  40.020  33.771   7.050
 8844POPC   C4A56922  40.046  33.809   7.350
 8844POPC   C1B56923  40.244  33.958   6.450
 8844POPC   C2B56924  40.186  33.940   6.750
 8844POPC   C3B56925  40.215  33.949   7.050
 8844POPC   C4B56926  40.240  33.958   7.350
 8845POPC   NC356927  26.067  13.641   5.550
 8845POPC   PO456928  26.054  13.607   5.850
 8845POPC   GL156929  26.091  13.640   6.150
 8845POPC   GL256930  26.132  13.514   6.150
 8845POPC   C1A56931  26.030  13.590   6.450
 8845POPC   D2A56932  26.085  13.606   6.750
 8845POPC   C3A56933  26.084  13.593   7.050
 8845POPC   C4A56934  26.088  13.642   7.350
 8845POPC   C1B56935  26.251  13.464   6.450
 8845POPC   C2B56936  26.258  13.441   6.750
 8845POPC   C3B56937  26.262  13.493   7.050
 8845POPC   C4B56938  26.201  13.526   7.350
 8846POPC   NC356939  29.965  33.834   5.550
 8846POPC   PO456940  29.965  33.789   5.850
 8846POPC   GL156941  29.956  33.844   6.150
 8846POPC   GL256942  29.902  33.967   6.150
 8846POPC   C1A56943  29.953  33.790   6.450
 8846POPC   D2A56944  29.960  33.786   6.750
 8846POPC   C3A56945  29.888  33.849   7.050
 8846POPC   C4A56946  29.970  33.764   7.350
 8846POPC   C1B56947  29.923  34.051   6.450
 8846POPC   C2B56948  29.878  34.092   6.750
 8846POPC   C3B56949  29.895  34.074   7.050
 8846POPC   C4B56950  29.955  34.040   7.350
 8847POPC   NC356951  19.865  39.232   5.550
 8847POPC   PO456952  19.832  39.274   5.850
 8847POPC   GL156953  19.868  39.198   6.150
 8847POPC   GL256954  19.848  39.125   6.150
 8847POPC   C1A56955  19.795  39.264   6.450
 8847POPC   D2A56956  19.864  39.221   6.750
 8847POPC   C3A56957  19.843  39.222   7.050
 8847POPC   C4A56958  19.844  39.209   7.350
 8847POPC   C1B56959  19.868  38.985   6.450
 8847POPC   C2B56960  19.824  38.987   6.750
 8847POPC   C3B56961  19.856  38.984   7.050
 8847POPC   C4B56962  19.851  38.954   7.350
 8848POPC   NC356963   3.590   1.170   5.550
 8848POPC   PO456964   3.519   1.204   5.850
 8848POPC   GL156965   3.570   1.192   6.150
 8848POPC   GL256966   3.460   1.169   6.150
 8848POPC   C1A56967   3.549   1.216   6.450
 8848POPC   D2A56968   3.505   1.242   6.750
 8848POPC   C3A56969   3.523   1.212   7.050
 8848POPC   C4A56970   3.573   1.182   7.350
 8848POPC   C1B56971   3.373   1.070   6.450
 8848POPC   C2B56972   3.333   1.061   6.750
 8848POPC   C3B56973   3.383   1.125   7.050
 8848POPC   C4B56974   3.347   1.038   7.350
 8849POPC   NC356975  41.554  32.270   5.550
 8849POPC   PO456976  41.601  32.241   5.850
 8849POPC   GL156977  41.509  32.200   6.150
 8849POPC   GL256978  41.598  32.090   6.150
 8849POPC   C1A56979  41.522  32.258   6.450
 8849POPC   D2A56980  41.547  32.281   6.750
 8849POPC   C3A56981  41.576  32.233   7.050
 8849POPC   C4A56982  41.607  32.260   7.350
 8849POPC   C1B56983  41.631  32.054   6.450
 8849POPC   C2B56984  41.634  32.050   6.750
 8849POPC   C3B56985  41.673  31.978   7.050
 8849POPC   C4B56986  41.697  32.049   7.350
 8850POPC   NC356987  41.554  28.360   5.550
 8850POPC   PO456988  41.596  28.355   5.850
 8850POPC   GL156989  41.535  28.348   6.150
 8850POPC   GL256990  41.618  28.468   6.150
 8850POPC   C1A56991  41.589  28.411   6.450
 8850POPC   D2A56992  41.519  28.387   6.750
 8850POPC   C3A56993  41.604  28.416   7.050
 8850POPC   C4A56994  41.592  28.397   7.350
 8850POPC   C1B56995  41.734  28.534   6.450
 8850POPC   C2B56996  41.696  28.566   6.750
 8850POPC   C3B56997  41.664  28.588   7.050
 8850POPC   C4B56998  41.714  28.520   7.350
 8851POPC   NC356999  12.121  20.593   5.550
 8851POPC   PO457000  12.087  20.603   5.850
 8851POPC   GL157001  12.088  20.609   6.150
 8851POPC   GL257002  12.040  20.690   6.150
 8851POPC   C1A57003  12.087  20.581   6.450
 8851POPC   D2A57004  12.122  20.628   6.750
 8851POPC   C3A57005  12.056  20.605   7.050
 8851POPC   C4A57006  12.038  20.634   7.350
 8851POPC   C1B57007  11.935  20.812   6.450
 8851POPC   C2B57008  11.882  20.784   6.750
 8851POPC   C3B57009  11.901  20.803   7.050
 8851POPC   C4B57010  11.953  20.825   7.350
 8852POPC   NC357011  44.682  17.478   5.550
 8852POPC   PO457012  44.666  17.507   5.850
 8852POPC   GL157013  44.674  17.504   6.150
 8852POPC   GL257014  44.697  17.669   6.150
 8852POPC   C1A57015  44.675  17.535   6.450
 8852POPC   D2A57016  44.644  17.553   6.750
 8852POPC   C3A57017  44.687  17.545   7.050
 8852POPC   C4A57018  44.661  17.481   7.350
 8852POPC   C1B57019  44.657  17.705   6.450
 8852POPC   C2B57020  44.671  17.747   6.750
 8852POPC   C3B57021  44.731  17.782   7.050
 8852POPC   C4B57022  44.742  17.751   7.350
 8853POPC   NC357023  20.660  13.590   5.550
 8853POPC   PO457024  20.614  13.617   5.850
 8853POPC   GL157025  20.639  13.581   6.150
 8853POPC   GL257026  20.640  13.682   6.150
 8853POPC   C1A57027  20.622  13.592   6.450
 8853POPC   D2A57028  20.574  13.581   6.750
 8853POPC   C3A57029  20.660  13.649   7.050
 8853POPC   C4A57030  20.624  13.579   7.350
 8853POPC   C1B57031  20.704  13.810   6.450
 8853POPC   C2B57032  20.708  13.850   6.750
 8853POPC   C3B57033  20.754  13.866   7.050
 8853POPC   C4B57034  20.796  13.801   7.350
 8854POPC   NC357035  36.945  38.496   5.550
 8854POPC   PO457036  36.948  38.504   5.850
 8854POPC   GL157037  36.883  38.419   6.150
 8854POPC   GL257038  36.930  38.312   6.150
 8854POPC   C1A57039  36.877  38.453   6.450
 8854POPC   D2A57040  36.903  38.477   6.750
 8854POPC   C3A57041  36.911  38.461   7.050
 8854POPC   C4A57042  36.936  38.472   7.350
 8854POPC   C1B57043  36.979  38.190   6.450
 8854POPC   C2B57044  36.941  38.240   6.750
 8854POPC   C3B57045  36.979  38.211   7.050
 8854POPC   C4B57046  36.968  38.255   7.350
 8855POPC   NC357047  25.308   7.412   5.550
 8855POPC   PO457048  25.259   7.452   5.850
 8855POPC   GL157049  25.285   7.444   6.150
 8855POPC   GL257050  25.362   7.380   6.150
 8855POPC   C1A57051  25.310   7.421   6.450
 8855POPC   D2A57052  25.294   7.417   6.750
 8855POPC   C3A57053  25.223   7.393   7.050
 8855POPC   C4A57054  25.233   7.411   7.350
 8855POPC   C1B57055  25.498   7.310   6.450
 8855POPC   C2B57056  25.517   7.336   6.750
 8855POPC   C3B57057  25.453   7.327   7.050
 8855POPC   C4B57058  25.528   7.329   7.350
 8856POPC   NC357059  30.672  12.038   5.550
 8856POPC   PO457060  30.662  12.051   5.850
 8856POPC   GL157061  30.735  12.062   6.150
 8856POPC   GL257062  30.610  11.960   6.150
 8856POPC   C1A57063  30.680  12.079   6.450
 8856POPC   D2A57064  30.676  12.085   6.750
 8856POPC   C3A57065  30.711  12.113   7.050
 8856POPC   C4A57066  30.727  12.088   7.350
 8856POPC   C1B57067  30.514  11.901   6.450
 8856POPC   C2B57068  30.466  11.908   6.750
 8856POPC   C3B57069  30.477  11.889   7.050
 8856POPC   C4B57070  30.457  11.962   7.350
 8857POPC   NC357071  18.253  27.550   5.550
 8857POPC   PO457072  18.315  27.576   5.850
 8857POPC   GL157073  18.327  27.623   6.150
 8857POPC   GL257074  18.420  27.630   6.150
 8857POPC   C1A57075  18.323  27.592   6.450
 8857POPC   D2A57076  18.296  27.616   6.750
 8857POPC   C3A57077  18.258  27.576   7.050
 8857POPC   C4A57078  18.327  27.564   7.350
 8857POPC   C1B57079  18.491  27.702   6.450
 8857POPC   C2B57080  18.532  27.755   6.750
 8857POPC   C3B57081  18.535  27.707   7.050
 8857POPC   C4B57082  18.440  27.755   7.350
 8858POPC   NC357083  32.986   2.039   5.550
 8858POPC   PO457084  32.979   2.027   5.850
 8858POPC   GL157085  33.015   1.993   6.150
 8858POPC   GL257086  33.123   2.069   6.150
 8858POPC   C1A57087  33.000   1.948   6.450
 8858POPC   D2A57088  33.001   1.970   6.750
 8858POPC   C3A57089  33.005   1.947   7.050
 8858POPC   C4A57090  33.038   1.960   7.350
 8858POPC   C1B57091  33.220   2.073   6.450
 8858POPC   C2B57092  33.217   2.116   6.750
 8858POPC   C3B57093  33.259   2.117   7.050
 8858POPC   C4B57094  33.240   2.075   7.350
 8859POPC   NC357095  44.619  37.673   5.550
 8859POPC   PO457096  44.644  37.679   5.850
 8859POPC   GL157097  44.658  37.710   6.150
 8859POPC   GL257098  44.612  37.599   6.150
 8859POPC   C1A57099  44.654  37.708   6.450
 8859POPC   D2A57100  44.618  37.641   6.750
 8859POPC   C3A57101  44.614  37.667   7.050
 8859POPC   C4A57102  44.625  37.650   7.350
 8859POPC   C1B57103  44.450  37.522   6.450
 8859POPC   C2B57104  44.470  37.488   6.750
 8859POPC   C3B57105  44.472  37.516   7.050
 8859POPC   C4B57106  44.500  37.494   7.350
 8860POPC   NC357107  32.297  31.458   5.550
 8860POPC   PO457108  32.263  31.492   5.850
 8860POPC   GL157109  32.202  31.457   6.150
 8860POPC   GL257110  32.368  31.363   6.150
 8860POPC   C1A57111  32.235  31.457   6.450
 8860POPC   D2A57112  32.264  31.494   6.750
 8860POPC   C3A57113  32.221  31.452   7.050
 8860POPC   C4A57114  32.280  31.499   7.350
 8860POPC   C1B57115  32.434  31.285   6.450
 8860POPC   C2B57116  32.403  31.240   6.750
 8860POPC   C3B57117  32.444  31.261   7.050
 8860POPC   C4B57118  32.384  31.313   7.350
 8861POPC   NC357119   5.060  17.522   5.550
 8861POPC   PO457120   5.092  17.461   5.850
 8861POPC   GL157121   5.054  17.494   6.150
 8861POPC   GL257122   4.928  17.489   6.150
 8861POPC   C1A57123   5.089  17.529   6.450
 8861POPC   D2A57124   5.074  17.510   6.750
 8861POPC   C3A57125   5.142  17.481   7.050
 8861POPC   C4A57126   5.070  17.476   7.350
 8861POPC   C1B57127   4.897  17.467   6.450
 8861POPC   C2B57128   4.848  17.393   6.750
 8861POPC   C3B57129   4.890  17.421   7.050
 8861POPC   C4B57130   4.878  17.434   7.350
 8862POPC   NC357131  37.718  23.677   5.550
 8862POPC   PO457132  37.657  23.690   5.850
 8862POPC   GL157133  37.715  23.710   6.150
 8862POPC   GL257134  37.784  23.708   6.150
 8862POPC   C1A57135  37.714  23.669   6.450
 8862POPC   D2A57136  37.715  23.719   6.750
 8862POPC   C3A57137  37.712  23.736   7.050
 8862POPC   C4A57138  37.727  23.720   7.350
 8862POPC   C1B57139  37.883  23.588   6.450
 8862POPC   C2B57140  37.930  23.623   6.750
 8862POPC   C3B57141  37.957  23.616   7.050
 8862POPC   C4B57142  37.892  23.630   7.350
 8863POPC   NC357143  25.230  44.680   5.550
 8863POPC   PO457144  25.314  44.617   5.850
 8863POPC   GL157145  25.226  44.692   6.150
 8863POPC   GL257146  25.360  44.596   6.150
 8863POPC   C1A57147  25.244  44.644   6.450
 8863POPC   D2A57148  25.295  44.623   6.750
 8863POPC   C3A57149  25.294  44.694   7.050
 8863POPC   C4A57150  25.278  44.679   7.350
 8863POPC   C1B57151  25.514  44.524   6.450
 8863POPC   C2B57152  25.525  44.490   6.750
 8863POPC   C3B57153  25.435  44.487   7.050
 8863POPC   C4B57154  25.444  44.490   7.350
 8864POPC   NC357155  36.869  33.783   5.550
 8864POPC   PO457156  36.913  33.820   5.850
 8864POPC   GL157157  36.889  33.775   6.150
 8864POPC   GL257158  36.826  33.847   6.150
 8864POPC   C1A57159  36.888  33.843   6.450
 8864POPC   D2A57160  36.905  33.753   6.750
 8864POPC   C3A57161  36.878  33.821   7.050
 8864POPC   C4A57162  36.921  33.817   7.350
 8864POPC   C1B57163  36.661  33.924   6.450
 8864POPC   C2B57164  36.714  33.978   6.750
 8864POPC   C3B57165  36.679  33.958   7.050
 8864POPC   C4B57166  36.693  33.988   7.350
 8865POPC   NC357167  32.236   0.402   5.550
 8865POPC   PO457168  32.275   0.391   5.850
 8865POPC   GL157169  32.223   0.438   6.150
 8865POPC   GL257170  32.267   0.597   6.150
 8865POPC   C1A57171  32.244   0.481   6.450
 8865POPC   D2A57172  32.288   0.435   6.750
 8865POPC   C3A57173  32.285   0.405   7.050
 8865POPC   C4A57174  32.227   0.402   7.350
 8865POPC   C1B57175  32.362   0.678   6.450
 8865POPC   C2B57176  32.305   0.679   6.750
 8865POPC   C3B57177  32.288   0.715   7.050
 8865POPC   C4B57178  32.277   0.651   7.350
 8866POPC   NC357179  43.102  19.050   5.550
 8866POPC   PO457180  43.149  19.091   5.850
 8866POPC   GL157181  43.147  19.090   6.150
 8866POPC   GL257182  43.183  19.029   6.150
 8866POPC   C1A57183  43.066  19.048   6.450
 8866POPC   D2A57184  43.123  19.037   6.750
 8866POPC   C3A57185  43.129  19.100   7.050
 8866POPC   C4A57186  43.080  19.087   7.350
 8866POPC   C1B57187  43.322  19.015   6.450
 8866POPC   C2B57188  43.300  18.926   6.750
 8866POPC   C3B57189  43.356  18.935   7.050
 8866POPC   C4B57190  43.355  19.011   7.350
 8867POPC   NC357191   6.687  43.139   5.550
 8867POPC   PO457192   6.652  43.158   5.850
 8867POPC   GL157193   6.605  43.062   6.150
 8867POPC   GL257194   6.700  43.181   6.150
 8867POPC   C1A57195   6.602  43.149   6.450
 8867POPC   D2A57196   6.645  43.100   6.750
 8867POPC   C3A57197   6.683  43.087   7.050
 8867POPC   C4A57198   6.664  43.079   7.350
 8867POPC   C1B57199   6.797  43.295   6.450
 8867POPC   C2B57200   6.844  43.248   6.750
 8867POPC   C3B57201   6.817  43.293   7.050
 8867POPC   C4B57202   6.852  43.278   7.350
 8868POPC   NC357203   9.698  22.180   5.550
 8868POPC   PO457204   9.714  22.184   5.850
 8868POPC   GL157205   9.793  22.165   6.150
 8868POPC   GL257206   9.649  22.071   6.150
 8868POPC   C1A57207   9.734  22.186   6.450
 8868POPC   D2A57208   9.795  22.116   6.750
 8868POPC   C3A57209   9.754  22.137   7.050
 8868POPC   C4A57210   9.790  22.137   7.350
 8868POPC   C1B57211   9.551  22.019   6.450
 8868POPC   C2B57212   9.608  21.958   6.750
 8868POPC   C3B57213   9.605  21.981   7.050
 8868POPC   C4B57214   9.533  21.984   7.350
 8869POPC   NC357215   7.460   8.960   5.550
 8869POPC   PO457216   7.389   8.993   5.850
 8869POPC   GL157217   7.448   8.943   6.150
 8869POPC   GL257218   7.478   8.857   6.150
 8869POPC   C1A57219   7.440   8.986   6.450
 8869POPC   D2A57220   7.401   8.943   6.750
 8869POPC   C3A57221   7.453   8.925   7.050
 8869POPC   C4A57222   7.426   8.974   7.350
 8869POPC   C1B57223   7.475   8.747   6.450
 8869POPC   C2B57224   7.512   8.722   6.750
 8869POPC   C3B57225   7.484   8.722   7.050
 8869POPC   C4B57226   7.421   8.775   7.350
 8870POPC   NC357227   7.402   6.651   5.550
 8870POPC   PO457228   7.394   6.676   5.850
 8870POPC   GL157229   7.470   6.623   6.150
 8870POPC   GL257230   7.370   6.771   6.150
 8870POPC   C1A57231   7.388   6.607   6.450
 8870POPC   D2A57232   7.427   6.674   6.750
 8870POPC   C3A57233   7.398   6.646   7.050
 8870POPC   C4A57234   7.443   6.684   7.350
 8870POPC   C1B57235   7.360   6.912   6.450
 8870POPC   C2B57236   7.319   6.835   6.750
 8870POPC   C3B57237   7.331   6.838   7.050
 8870POPC   C4B57238   7.299   6.860   7.350
 8871POPC   NC357239   0.463  12.028   5.550
 8871POPC   PO457240   0.455  12.111   5.850
 8871POPC   GL157241   0.402  12.085   6.150
 8871POPC   GL257242   0.599  12.107   6.150
 8871POPC   C1A57243   0.470  12.072   6.450
 8871POPC   D2A57244   0.436  12.088   6.750
 8871POPC   C3A57245   0.453  12.081   7.050
 8871POPC   C4A57246   0.408  12.079   7.350
 8871POPC   C1B57247   0.711  12.101   6.450
 8871POPC   C2B57248   0.673  12.136   6.750
 8871POPC   C3B57249   0.671  12.153   7.050
 8871POPC   C4B57250   0.652  12.076   7.350
 8872POPC   NC357251  15.985   4.346   5.550
 8872POPC   PO457252  15.906   4.354   5.850
 8872POPC   GL157253  15.979   4.282   6.150
 8872POPC   GL257254  15.871   4.379   6.150
 8872POPC   C1A57255  15.919   4.326   6.450
 8872POPC   D2A57256  15.926   4.298   6.750
 8872POPC   C3A57257  15.931   4.279   7.050
 8872POPC   C4A57258  15.937   4.359   7.350
 8872POPC   C1B57259  15.745   4.361   6.450
 8872POPC   C2B57260  15.691   4.328   6.750
 8872POPC   C3B57261  15.661   4.376   7.050
 8872POPC   C4B57262  15.682   4.391   7.350
 8873POPC   NC357263  44.616   6.674   5.550
 8873POPC   PO457264  44.659   6.650   5.850
 8873POPC   GL157265  44.696   6.680   6.150
 8873POPC   GL257266  44.739   6.580   6.150
 8873POPC   C1A57267  44.710   6.655   6.450
 8873POPC   D2A57268  44.626   6.637   6.750
 8873POPC   C3A57269  44.701   6.606   7.050
 8873POPC   C4A57270  44.673   6.668   7.350
 8873POPC   C1B57271  44.832   6.524   6.450
 8873POPC   C2B57272  44.847   6.448   6.750
 8873POPC   C3B57273  44.823   6.482   7.050
 8873POPC   C4B57274  44.821   6.447   7.350
 8874POPC   NC357275   2.801  44.617   5.550
 8874POPC   PO457276   2.759  44.649   5.850
 8874POPC   GL157277   2.738  44.622   6.150
 8874POPC   GL257278   2.801  44.510   6.150
 8874POPC   C1A57279   2.780  44.613   6.450
 8874POPC   D2A57280   2.732  44.635   6.750
 8874POPC   C3A57281   2.793  44.682   7.050
 8874POPC   C4A57282   2.792  44.618   7.350
 8874POPC   C1B57283   2.728  44.398   6.450
 8874POPC   C2B57284   2.784  44.390   6.750
 8874POPC   C3B57285   2.732  44.383   7.050
 8874POPC   C4B57286   2.774  44.389   7.350
 8875POPC   NC357287  32.256  33.847   5.550
 8875POPC   PO457288  32.249  33.810   5.850
 8875POPC   GL157289  32.234  33.754   6.150
 8875POPC   GL257290  32.372  33.796   6.150
 8875POPC   C1A57291  32.247  33.786   6.450
 8875POPC   D2A57292  32.292  33.750   6.750
 8875POPC   C3A57293  32.213  33.825   7.050
 8875POPC   C4A57294  32.199  33.784   7.350
 8875POPC   C1B57295  32.472  33.888   6.450
 8875POPC   C2B57296  32.529  33.857   6.750
 8875POPC   C3B57297  32.527  33.806   7.050
 8875POPC   C4B57298  32.510  33.861   7.350
 8876POPC   NC357299  43.902  33.052   5.550
 8876POPC   PO457300  43.902  33.063   5.850
 8876POPC   GL157301  43.898  32.999   6.150
 8876POPC   GL257302  43.798  33.036   6.150
 8876POPC   C1A57303  43.929  33.008   6.450
 8876POPC   D2A57304  43.908  32.996   6.750
 8876POPC   C3A57305  43.848  33.017   7.050
 8876POPC   C4A57306  43.909  32.993   7.350
 8876POPC   C1B57307  43.641  33.025   6.450
 8876POPC   C2B57308  43.650  33.015   6.750
 8876POPC   C3B57309  43.606  32.984   7.050
 8876POPC   C4B57310  43.592  33.021   7.350
 8877POPC   NC357311   3.561  38.446   5.550
 8877POPC   PO457312   3.499  38.496   5.850
 8877POPC   GL157313   3.529  38.454   6.150
 8877POPC   GL257314   3.504  38.623   6.150
 8877POPC   C1A57315   3.506  38.413   6.450
 8877POPC   D2A57316   3.563  38.407   6.750
 8877POPC   C3A57317   3.493  38.434   7.050
 8877POPC   C4A57318   3.515  38.455   7.350
 8877POPC   C1B57319   3.545  38.682   6.450
 8877POPC   C2B57320   3.460  38.696   6.750
 8877POPC   C3B57321   3.517  38.662   7.050
 8877POPC   C4B57322   3.465  38.666   7.350
 8878POPC   NC357323  43.898  40.819   5.550
 8878POPC   PO457324  43.870  40.770   5.850
 8878POPC   GL157325  43.867  40.826   6.150
 8878POPC   GL257326  43.829  40.859   6.150
 8878POPC   C1A57327  43.856  40.802   6.450
 8878POPC   D2A57328  43.936  40.765   6.750
 8878POPC   C3A57329  43.842  40.801   7.050
 8878POPC   C4A57330  43.933  40.796   7.350
 8878POPC   C1B57331  43.753  40.989   6.450
 8878POPC   C2B57332  43.850  41.010   6.750
 8878POPC   C3B57333  43.757  41.035   7.050
 8878POPC   C4B57334  43.813  41.057   7.350
 8879POPC   NC357335  12.080   4.270   5.550
 8879POPC   PO457336  12.028   4.337   5.850
 8879POPC   GL157337  12.031   4.340   6.150
 8879POPC   GL257338  12.043   4.248   6.150
 8879POPC   C1A57339  12.107   4.363   6.450
 8879POPC   D2A57340  12.065   4.283   6.750
 8879POPC   C3A57341  12.028   4.269   7.050
 8879POPC   C4A57342  12.075   4.297   7.350
 8879POPC   C1B57343  12.006   4.038   6.450
 8879POPC   C2B57344  11.999   4.093   6.750
 8879POPC   C3B57345  12.023   4.107   7.050
 8879POPC   C4B57346  11.955   4.116   7.350
 8880POPC   NC357347  18.308  38.473   5.550
 8880POPC   PO457348  18.293  38.412   5.850
 8880POPC   GL157349  18.240  38.415   6.150
 8880POPC   GL257350  18.420  38.418   6.150
 8880POPC   C1A57351  18.332  38.435   6.450
 8880POPC   D2A57352  18.324  38.450   6.750
 8880POPC   C3A57353  18.233  38.473   7.050
 8880POPC   C4A57354  18.327  38.494   7.350
 8880POPC   C1B57355  18.535  38.323   6.450
 8880POPC   C2B57356  18.484  38.323   6.750
 8880POPC   C3B57357  18.529  38.277   7.050
 8880POPC   C4B57358  18.444  38.333   7.350
 8881POPC   NC357359   8.976  24.506   5.550
 8881POPC   PO457360   8.984  24.479   5.850
 8881POPC   GL157361   8.925  24.461   6.150
 8881POPC   GL257362   8.894  24.586   6.150
 8881POPC   C1A57363   8.959  24.516   6.450
 8881POPC   D2A57364   8.997  24.508   6.750
 8881POPC   C3A57365   8.934  24.517   7.050
 8881POPC   C4A57366   8.927  24.473   7.350
 8881POPC   C1B57367   8.772  24.609   6.450
 8881POPC   C2B57368   8.762  24.589   6.750
 8881POPC   C3B57369   8.742  24.589   7.050
 8881POPC   C4B57370   8.777  24.580   7.350
 8882POPC   NC357371  26.046  25.996   5.550
 8882POPC   PO457372  26.091  26.064   5.850
 8882POPC   GL157373  26.082  26.091   6.150
 8882POPC   GL257374  25.974  26.159   6.150
 8882POPC   C1A57375  26.021  26.029   6.450
 8882POPC   D2A57376  26.029  26.039   6.750
 8882POPC   C3A57377  26.030  26.008   7.050
 8882POPC   C4A57378  26.085  26.003   7.350
 8882POPC   C1B57379  25.876  26.209   6.450
 8882POPC   C2B57380  25.912  26.240   6.750
 8882POPC   C3B57381  25.879  26.269   7.050
 8882POPC   C4B57382  25.878  26.274   7.350
 8883POPC   NC357383  16.699  16.753   5.550
 8883POPC   PO457384  16.687  16.747   5.850
 8883POPC   GL157385  16.686  16.707   6.150
 8883POPC   GL257386  16.832  16.613   6.150
 8883POPC   C1A57387  16.750  16.766   6.450
 8883POPC   D2A57388  16.726  16.763   6.750
 8883POPC   C3A57389  16.710  16.733   7.050
 8883POPC   C4A57390  16.692  16.756   7.350
 8883POPC   C1B57391  16.875  16.530   6.450
 8883POPC   C2B57392  16.922  16.522   6.750
 8883POPC   C3B57393  16.875  16.595   7.050
 8883POPC   C4B57394  16.928  16.554   7.350
 8884POPC   NC357395  44.704  36.917   5.550
 8884POPC   PO457396  44.639  36.889   5.850
 8884POPC   GL157397  44.684  36.933   6.150
 8884POPC   GL257398  44.710  36.793   6.150
 8884POPC   C1A57399  44.711  36.867   6.450
 8884POPC   D2A57400  44.648  36.916   6.750
 8884POPC   C3A57401  44.617  36.925   7.050
 8884POPC   C4A57402  44.626  36.859   7.350
 8884POPC   C1B57403  44.718  36.668   6.450
 8884POPC   C2B57404  44.781  36.681   6.750
 8884POPC   C3B57405  44.788  36.705   7.050
 8884POPC   C4B57406  44.721  36.697   7.350
 8885POPC   NC357407   1.195  31.472   5.550
 8885POPC   PO457408   1.196  31.484   5.850
 8885POPC   GL157409   1.262  31.519   6.150
 8885POPC   GL257410   1.128  31.446   6.150
 8885POPC   C1A57411   1.210  31.470   6.450
 8885POPC   D2A57412   1.204  31.491   6.750
 8885POPC   C3A57413   1.237  31.442   7.050
 8885POPC   C4A57414   1.241  31.447   7.350
 8885POPC   C1B57415   0.972  31.362   6.450
 8885POPC   C2B57416   0.990  31.401   6.750
 8885POPC   C3B57417   0.937  31.371   7.050
 8885POPC   C4B57418   1.007  31.435   7.350
 8886POPC   NC357419  19.795  15.137   5.550
 8886POPC   PO457420  19.856  15.201   5.850
 8886POPC   GL157421  19.831  15.187   6.150
 8886POPC   GL257422  19.747  15.173   6.150
 8886POPC   C1A57423  19.850  15.163   6.450
 8886POPC   D2A57424  19.876  15.148   6.750
 8886POPC   C3A57425  19.818  15.152   7.050
 8886POPC   C4A57426  19.802  15.134   7.350
 8886POPC   C1B57427  19.577  15.157   6.450
 8886POPC   C2B57428  19.618  15.214   6.750
 8886POPC   C3B57429  19.625  15.159   7.050
 8886POPC   C4B57430  19.614  15.161   7.350
 8887POPC   NC357431  22.950  12.091   5.550
 8887POPC   PO457432  22.905  12.053   5.850
 8887POPC   GL157433  22.898  12.061   6.150
 8887POPC   GL257434  23.049  12.058   6.150
 8887POPC   C1A57435  22.966  12.120   6.450
 8887POPC   D2A57436  22.962  12.078   6.750
 8887POPC   C3A57437  22.964  12.119   7.050
 8887POPC   C4A57438  22.931  12.046   7.350
 8887POPC   C1B57439  23.172  12.146   6.450
 8887POPC   C2B57440  23.229  12.122   6.750
 8887POPC   C3B57441  23.201  12.071   7.050
 8887POPC   C4B57442  23.173  12.097   7.350
 8888POPC   NC357443  30.720   2.794   5.550
 8888POPC   PO457444  30.702   2.739   5.850
 8888POPC   GL157445  30.725   2.736   6.150
 8888POPC   GL257446  30.648   2.813   6.150
 8888POPC   C1A57447  30.734   2.792   6.450
 8888POPC   D2A57448  30.715   2.724   6.750
 8888POPC   C3A57449  30.702   2.805   7.050
 8888POPC   C4A57450  30.725   2.815   7.350
 8888POPC   C1B57451  30.552   2.912   6.450
 8888POPC   C2B57452  30.490   2.981   6.750
 8888POPC   C3B57453  30.528   2.935   7.050
 8888POPC   C4B57454  30.562   2.930   7.350
 8889POPC   NC357455   0.428   1.976   5.550
 8889POPC   PO457456   0.412   1.955   5.850
 8889POPC   GL157457   0.408   1.951   6.150
 8889POPC   GL257458   0.377   2.069   6.150
 8889POPC   C1A57459   0.483   2.001   6.450
 8889POPC   D2A57460   0.419   2.024   6.750
 8889POPC   C3A57461   0.449   1.978   7.050
 8889POPC   C4A57462   0.420   2.017   7.350
 8889POPC   C1B57463   0.372   2.274   6.450
 8889POPC   C2B57464   0.386   2.244   6.750
 8889POPC   C3B57465   0.389   2.231   7.050
 8889POPC   C4B57466   0.398   2.259   7.350
 8890POPC   NC357467  40.056  16.707   5.550
 8890POPC   PO457468  39.991  16.743   5.850
 8890POPC   GL157469  39.993  16.761   6.150
 8890POPC   GL257470  40.013  16.886   6.150
 8890POPC   C1A57471  40.002  16.780   6.450
 8890POPC   D2A57472  39.977  16.690   6.750
 8890POPC   C3A57473  40.001  16.716   7.050
 8890POPC   C4A57474  40.032  16.771   7.350
 8890POPC   C1B57475  40.081  16.990   6.450
 8890POPC   C2B57476  40.081  16.943   6.750
 8890POPC   C3B57477  40.032  16.948   7.050
 8890POPC   C4B57478  40.008  16.972   7.350
 8891POPC   NC357479   2.728  22.966   5.550
 8891POPC   PO457480   2.744  22.940   5.850
 8891POPC   GL157481   2.735  22.974   6.150
 8891POPC   GL257482   2.839  22.795   6.150
 8891POPC   C1A57483   2.762  22.955   6.450
 8891POPC   D2A57484   2.810  22.951   6.750
 8891POPC   C3A57485   2.726  22.935   7.050
 8891POPC   C4A57486   2.760  22.929   7.350
 8891POPC   C1B57487   2.832  22.720   6.450
 8891POPC   C2B57488   2.802  22.725   6.750
 8891POPC   C3B57489   2.828  22.651   7.050
 8891POPC   C4B57490   2.836  22.646   7.350
 8892POPC   NC357491  44.651  26.812   5.550
 8892POPC   PO457492  44.636  26.783   5.850
 8892POPC   GL157493  44.631  26.813   6.150
 8892POPC   GL257494  44.667  26.670   6.150
 8892POPC   C1A57495  44.660  26.837   6.450
 8892POPC   D2A57496  44.697  26.778   6.750
 8892POPC   C3A57497  44.687  26.807   7.050
 8892POPC   C4A57498  44.679  26.795   7.350
 8892POPC   C1B57499  44.591  26.600   6.450
 8892POPC   C2B57500  44.548  26.609   6.750
 8892POPC   C3B57501  44.544  26.537   7.050
 8892POPC   C4B57502  44.607  26.531   7.350
 8893POPC   NC357503  32.288  44.710   5.550
 8893POPC   PO457504  32.291  44.686   5.850
 8893POPC   GL157505  32.225  44.616   6.150
 8893POPC   GL257506  32.272  44.741   6.150
 8893POPC   C1A57507  32.247  44.685   6.450
 8893POPC   D2A57508  32.217  44.613   6.750
 8893POPC   C3A57509  32.211  44.700   7.050
 8893POPC   C4A57510  32.249  44.641   7.350
 8893POPC   C1B57511  32.303  44.918   6.450
 8893POPC   C2B57512  32.279  44.930   6.750
 8893POPC   C3B57513  32.221  44.925   7.050
 8893POPC   C4B57514  32.268  44.958   7.350
 8894POPC   NC357515  19.836  31.508   5.550
 8894POPC   PO457516  19.815  31.431   5.850
 8894POPC   GL157517  19.836  31.474   6.150
 8894POPC   GL257518  19.757  31.592   6.150
 8894POPC   C1A57519  19.807  31.478   6.450
 8894POPC   D2A57520  19.794  31.477   6.750
 8894POPC   C3A57521  19.812  31.520   7.050
 8894POPC   C4A57522  19.840  31.459   7.350
 8894POPC   C1B57523  19.682  31.708   6.450
 8894POPC   C2B57524  19.706  31.653   6.750
 8894POPC   C3B57525  19.657  31.634   7.050
 8894POPC   C4B57526  19.631  31.710   7.350
 8895POPC   NC357527   4.346  34.613   5.550
 8895POPC   PO457528   4.314  34.561   5.850
 8895POPC   GL157529   4.292  34.536   6.150
 8895POPC   GL257530   4.240  34.702   6.150
 8895POPC   C1A57531   4.282  34.585   6.450
 8895POPC   D2A57532   4.304  34.621   6.750
 8895POPC   C3A57533   4.277  34.613   7.050
 8895POPC   C4A57534   4.294  34.532   7.350
 8895POPC   C1B57535   4.189  34.788   6.450
 8895POPC   C2B57536   4.149  34.810   6.750
 8895POPC   C3B57537   4.189  34.789   7.050
 8895POPC   C4B57538   4.197  34.777   7.350
 8896POPC   NC357539  36.148  11.330   5.550
 8896POPC   PO457540  36.134  11.327   5.850
 8896POPC   GL157541  36.091  11.276   6.150
 8896POPC   GL257542  36.051  11.224   6.150
 8896POPC   C1A57543  36.172  11.275   6.450
 8896POPC   D2A57544  36.143  11.284   6.750
 8896POPC   C3A57545  36.123  11.334   7.050
 8896POPC   C4A57546  36.177  11.297   7.350
 8896POPC   C1B57547  35.938  11.224   6.450
 8896POPC   C2B57548  35.892  11.227   6.750
 8896POPC   C3B57549  35.900  11.206   7.050
 8896POPC   C4B57550  35.898  11.204   7.350
 8897POPC   NC357551   9.753   2.779   5.550
 8897POPC   PO457552   9.788   2.749   5.850
 8897POPC   GL157553   9.735   2.795   6.150
 8897POPC   GL257554   9.742   2.901   6.150
 8897POPC   C1A57555   9.760   2.755   6.450
 8897POPC   D2A57556   9.739   2.764   6.750
 8897POPC   C3A57557   9.721   2.776   7.050
 8897POPC   C4A57558   9.759   2.805   7.350
 8897POPC   C1B57559   9.852   2.979   6.450
 8897POPC   C2B57560   9.795   2.991   6.750
 8897POPC   C3B57561   9.811   3.031   7.050
 8897POPC   C4B57562   9.813   3.037   7.350
 8898POPC   NC357563  44.628   5.063   5.550
 8898POPC   PO457564  44.665   5.139   5.850
 8898POPC   GL157565  44.663   5.052   6.150
 8898POPC   GL257566  44.624   5.259   6.150
 8898POPC   C1A57567  44.654   5.079   6.450
 8898POPC   D2A57568  44.657   5.113   6.750
 8898POPC   C3A57569  44.699   5.124   7.050
 8898POPC   C4A57570  44.708   5.054   7.350
 8898POPC   C1B57571  44.579   5.362   6.450
 8898POPC   C2B57572  44.578   5.356   6.750
 8898POPC   C3B57573  44.596   5.299   7.050
 8898POPC   C4B57574  44.599   5.344   7.350
 8899POPC   NC357575  44.663  15.214   5.550
 8899POPC   PO457576  44.697  15.197   5.850
 8899POPC   GL157577  44.686  15.210   6.150
 8899POPC   GL257578  44.654  15.331   6.150
 8899POPC   C1A57579  44.637  15.228   6.450
 8899POPC   D2A57580  44.687  15.211   6.750
 8899POPC   C3A57581  44.617  15.184   7.050
 8899POPC   C4A57582  44.686  15.176   7.350
 8899POPC   C1B57583  44.575  15.356   6.450
 8899POPC   C2B57584  44.604  15.448   6.750
 8899POPC   C3B57585  44.534  15.389   7.050
 8899POPC   C4B57586  44.517  15.415   7.350
 8900POPC   NC357587  40.022  41.537   5.550
 8900POPC   PO457588  39.994  41.580   5.850
 8900POPC   GL157589  39.979  41.588   6.150
 8900POPC   GL257590  39.982  41.476   6.150
 8900POPC   C1A57591  40.007  41.585   6.450
 8900POPC   D2A57592  40.002  41.597   6.750
 8900POPC   C3A57593  40.029  41.538   7.050
 8900POPC   C4A57594  40.004  41.577   7.350
 8900POPC   C1B57595  39.847  41.298   6.450
 8900POPC   C2B57596  39.858  41.288   6.750
 8900POPC   C3B57597  39.938  41.370   7.050
 8900POPC   C4B57598  39.873  41.328   7.350
 8901POPC   NC357599  40.781  17.501   5.550
 8901POPC   PO457600  40.793  17.532   5.850
 8901POPC   GL157601  40.782  17.508   6.150
 8901POPC   GL257602  40.883  17.443   6.150
 8901POPC   C1A57603  40.749  17.497   6.450
 8901POPC   D2A57604  40.779  17.498   6.750
 8901POPC   C3A57605  40.794  17.497   7.050
 8901POPC   C4A57606  40.782  17.550   7.350
 8901POPC   C1B57607  40.953  17.337   6.450
 8901POPC   C2B57608  40.996  17.390   6.750
 8901POPC   C3B57609  41.001  17.407   7.050
 8901POPC   C4B57610  40.943  17.369   7.350
 8902POPC   NC357611  24.498  15.981   5.550
 8902POPC   PO457612  24.452  15.986   5.850
 8902POPC   GL157613  24.448  15.968   6.150
 8902POPC   GL257614  24.401  15.870   6.150
 8902POPC   C1A57615  24.448  15.918   6.450
 8902POPC   D2A57616  24.525  15.909   6.750
 8902POPC   C3A57617  24.523  15.957   7.050
 8902POPC   C4A57618  24.498  15.942   7.350
 8902POPC   C1B57619  24.341  15.774   6.450
 8902POPC   C2B57620  24.353  15.703   6.750
 8902POPC   C3B57621  24.395  15.687   7.050
 8902POPC   C4B57622  24.415  15.735   7.350
 8903POPC   NC357623  12.819  26.061   5.550
 8903POPC   PO457624  12.834  26.089   5.850
 8903POPC   GL157625  12.839  26.062   6.150
 8903POPC   GL257626  12.958  25.935   6.150
 8903POPC   C1A57627  12.843  26.035   6.450
 8903POPC   D2A57628  12.826  26.068   6.750
 8903POPC   C3A57629  12.885  26.071   7.050
 8903POPC   C4A57630  12.827  26.017   7.350
 8903POPC   C1B57631  12.939  25.776   6.450
 8903POPC   C2B57632  12.927  25.835   6.750
 8903POPC   C3B57633  12.929  25.782   7.050
 8903POPC   C4B57634  12.964  25.780   7.350
 8904POPC   NC357635  32.975   6.626   5.550
 8904POPC   PO457636  33.021   6.678   5.850
 8904POPC   GL157637  33.067   6.685   6.150
 8904POPC   GL257638  33.082   6.741   6.150
 8904POPC   C1A57639  33.021   6.670   6.450
 8904POPC   D2A57640  33.072   6.627   6.750
 8904POPC   C3A57641  32.992   6.683   7.050
 8904POPC   C4A57642  33.054   6.617   7.350
 8904POPC   C1B57643  33.261   6.803   6.450
 8904POPC   C2B57644  33.174   6.770   6.750
 8904POPC   C3B57645  33.260   6.792   7.050
 8904POPC   C4B57646  33.215   6.821   7.350
 8905POPC   NC357647   8.948  21.376   5.550
 8905POPC   PO457648   8.928  21.371   5.850
 8905POPC   GL157649   9.022  21.360   6.150
 8905POPC   GL257650   8.998  21.266   6.150
 8905POPC   C1A57651   8.924  21.339   6.450
 8905POPC   D2A57652   8.978  21.360   6.750
 8905POPC   C3A57653   8.973  21.399   7.050
 8905POPC   C4A57654   9.002  21.410   7.350
 8905POPC   C1B57655   9.019  21.174   6.450
 8905POPC   C2B57656   9.002  21.152   6.750
 8905POPC   C3B57657   9.056  21.136   7.050
 8905POPC   C4B57658   9.057  21.164   7.350
 8906POPC   NC357659  27.636  24.440   5.550
 8906POPC   PO457660  27.557  24.445   5.850
 8906POPC   GL157661  27.610  24.508   6.150
 8906POPC   GL257662  27.674  24.428   6.150
 8906POPC   C1A57663  27.543  24.447   6.450
 8906POPC   D2A57664  27.623  24.507   6.750
 8906POPC   C3A57665  27.634  24.504   7.050
 8906POPC   C4A57666  27.597  24.529   7.350
 8906POPC   C1B57667  27.792  24.436   6.450
 8906POPC   C2B57668  27.877  24.429   6.750
 8906POPC   C3B57669  27.878  24.439   7.050
 8906POPC   C4B57670  27.883  24.440   7.350
 8907POPC   NC357671  43.888  12.075   5.550
 8907POPC   PO457672  43.884  12.077   5.850
 8907POPC   GL157673  43.931  12.048   6.150
 8907POPC   GL257674  43.996  12.104   6.150
 8907POPC   C1A57675  43.864  12.090   6.450
 8907POPC   D2A57676  43.928  12.117   6.750
 8907POPC   C3A57677  43.838  12.071   7.050
 8907POPC   C4A57678  43.845  12.068   7.350
 8907POPC   C1B57679  44.171  12.078   6.450
 8907POPC   C2B57680  44.168  12.061   6.750
 8907POPC   C3B57681  44.175  12.034   7.050
 8907POPC   C4B57682  44.175  12.032   7.350
 8908POPC   NC357683  22.157  26.822   5.550
 8908POPC   PO457684  22.134  26.861   5.850
 8908POPC   GL157685  22.158  26.820   6.150
 8908POPC   GL257686  22.043  26.679   6.150
 8908POPC   C1A57687  22.164  26.834   6.450
 8908POPC   D2A57688  22.128  26.823   6.750
 8908POPC   C3A57689  22.126  26.797   7.050
 8908POPC   C4A57690  22.115  26.798   7.350
 8908POPC   C1B57691  22.019  26.602   6.450
 8908POPC   C2B57692  22.028  26.641   6.750
 8908POPC   C3B57693  22.046  26.677   7.050
 8908POPC   C4B57694  21.951  26.654   7.350
 8909POPC   NC357695  33.051  13.627   5.550
 8909POPC   PO457696  33.019  13.649   5.850
 8909POPC   GL157697  33.006  13.610   6.150
 8909POPC   GL257698  33.127  13.740   6.150
 8909POPC   C1A57699  33.008  13.586   6.450
 8909POPC   D2A57700  33.047  13.619   6.750
 8909POPC   C3A57701  32.977  13.670   7.050
 8909POPC   C4A57702  33.016  13.659   7.350
 8909POPC   C1B57703  33.255  13.785   6.450
 8909POPC   C2B57704  33.229  13.797   6.750
 8909POPC   C3B57705  33.217  13.816   7.050
 8909POPC   C4B57706  33.206  13.741   7.350
 8910POPC   NC357707  36.143   7.410   5.550
 8910POPC   PO457708  36.138   7.445   5.850
 8910POPC   GL157709  36.174   7.459   6.150
 8910POPC   GL257710  36.032   7.569   6.150
 8910POPC   C1A57711  36.112   7.392   6.450
 8910POPC   D2A57712  36.104   7.432   6.750
 8910POPC   C3A57713  36.173   7.414   7.050
 8910POPC   C4A57714  36.146   7.469   7.350
 8910POPC   C1B57715  36.067   7.661   6.450
 8910POPC   C2B57716  36.056   7.695   6.750
 8910POPC   C3B57717  36.004   7.637   7.050
 8910POPC   C4B57718  35.995   7.637   7.350
 8911POPC   NC357719  13.603  29.912   5.550
 8911POPC   PO457720  13.659  29.879   5.850
 8911POPC   GL157721  13.625  29.915   6.150
 8911POPC   GL257722  13.501  29.861   6.150
 8911POPC   C1A57723  13.605  29.916   6.450
 8911POPC   D2A57724  13.599  29.875   6.750
 8911POPC   C3A57725  13.630  29.926   7.050
 8911POPC   C4A57726  13.634  29.941   7.350
 8911POPC   C1B57727  13.382  29.837   6.450
 8911POPC   C2B57728  13.383  29.855   6.750
 8911POPC   C3B57729  13.414  29.829   7.050
 8911POPC   C4B57730  13.434  29.821   7.350
 8912POPC   NC357731  23.751  15.211   5.550
 8912POPC   PO457732  23.675  15.216   5.850
 8912POPC   GL157733  23.690  15.157   6.150
 8912POPC   GL257734  23.783  15.305   6.150
 8912POPC   C1A57735  23.692  15.165   6.450
 8912POPC   D2A57736  23.709  15.170   6.750
 8912POPC   C3A57737  23.673  15.134   7.050
 8912POPC   C4A57738  23.679  15.207   7.350
 8912POPC   C1B57739  23.783  15.444   6.450
 8912POPC   C2B57740  23.822  15.394   6.750
 8912POPC   C3B57741  23.809  15.356   7.050
 8912POPC   C4B57742  23.850  15.396   7.350
 8913POPC   NC357743  24.453   2.814   5.550
 8913POPC   PO457744  24.460   2.733   5.850
 8913POPC   GL157745  24.465   2.731   6.150
 8913POPC   GL257746  24.627   2.646   6.150
 8913POPC   C1A57747  24.493   2.792   6.450
 8913POPC   D2A57748  24.533   2.722   6.750
 8913POPC   C3A57749  24.483   2.760   7.050
 8913POPC   C4A57750  24.452   2.746   7.350
 8913POPC   C1B57751  24.630   2.588   6.450
 8913POPC   C2B57752  24.662   2.602   6.750
 8913POPC   C3B57753  24.630   2.551   7.050
 8913POPC   C4B57754  24.680   2.549   7.350
 8914POPC   NC357755  34.624   5.892   5.550
 8914POPC   PO457756  34.542   5.894   5.850
 8914POPC   GL157757  34.596   5.820   6.150
 8914POPC   GL257758  34.530   6.034   6.150
 8914POPC   C1A57759  34.540   5.842   6.450
 8914POPC   D2A57760  34.551   5.857   6.750
 8914POPC   C3A57761  34.596   5.850   7.050
 8914POPC   C4A57762  34.610   5.867   7.350
 8914POPC   C1B57763  34.543   6.078   6.450
 8914POPC   C2B57764  34.526   6.164   6.750
 8914POPC   C3B57765  34.560   6.123   7.050
 8914POPC   C4B57766  34.519   6.130   7.350
 8915POPC   NC357767  31.492  26.050   5.550
 8915POPC   PO457768  31.502  26.023   5.850
 8915POPC   GL157769  31.495  26.039   6.150
 8915POPC   GL257770  31.334  26.113   6.150
 8915POPC   C1A57771  31.450  26.073   6.450
 8915POPC   D2A57772  31.520  26.020   6.750
 8915POPC   C3A57773  31.429  26.081   7.050
 8915POPC   C4A57774  31.429  26.015   7.350
 8915POPC   C1B57775  31.225  26.088   6.450
 8915POPC   C2B57776  31.249  26.090   6.750
 8915POPC   C3B57777  31.252  26.134   7.050
 8915POPC   C4B57778  31.240  26.086   7.350
 8916POPC   NC357779  44.639  39.192   5.550
 8916POPC   PO457780  44.658  39.212   5.850
 8916POPC   GL157781  44.671  39.241   6.150
 8916POPC   GL257782  44.650  39.144   6.150
 8916POPC   C1A57783  44.642  39.268   6.450
 8916POPC   D2A57784  44.644  39.237   6.750
 8916POPC   C3A57785  44.654  39.269   7.050
 8916POPC   C4A57786  44.633  39.219   7.350
 8916POPC   C1B57787  44.645  38.942   6.450
 8916POPC   C2B57788  44.631  38.942   6.750
 8916POPC   C3B57789  44.639  38.985   7.050
 8916POPC   C4B57790  44.585  38.965   7.350
 8917POPC   NC357791  37.714   9.732   5.550
 8917POPC   PO457792  37.673   9.742   5.850
 8917POPC   GL157793  37.693   9.774   6.150
 8917POPC   GL257794  37.719   9.614   6.150
 8917POPC   C1A57795  37.727   9.790   6.450
 8917POPC   D2A57796  37.656   9.707   6.750
 8917POPC   C3A57797  37.648   9.767   7.050
 8917POPC   C4A57798  37.689   9.722   7.350
 8917POPC   C1B57799  37.826   9.487   6.450
 8917POPC   C2B57800  37.782   9.487   6.750
 8917POPC   C3B57801  37.764   9.546   7.050
 8917POPC   C4B57802  37.748   9.549   7.350
 8918POPC   NC357803   1.253  39.268   5.550
 8918POPC   PO457804   1.196  39.212   5.850
 8918POPC   GL157805   1.207  39.186   6.150
 8918POPC   GL257806   1.162  39.160   6.150
 8918POPC   C1A57807   1.168  39.199   6.450
 8918POPC   D2A57808   1.193  39.190   6.750
 8918POPC   C3A57809   1.192  39.276   7.050
 8918POPC   C4A57810   1.241  39.208   7.350
 8918POPC   C1B57811   1.009  39.098   6.450
 8918POPC   C2B57812   1.023  39.095   6.750
 8918POPC   C3B57813   0.987  39.019   7.050
 8918POPC   C4B57814   1.009  39.087   7.350
 8919POPC   NC357815   4.363  26.848   5.550
 8919POPC   PO457816   4.270  26.788   5.850
 8919POPC   GL157817   4.293  26.805   6.150
 8919POPC   GL257818   4.173  26.789   6.150
 8919POPC   C1A57819   4.322  26.786   6.450
 8919POPC   D2A57820   4.365  26.779   6.750
 8919POPC   C3A57821   4.307  26.800   7.050
 8919POPC   C4A57822   4.356  26.791   7.350
 8919POPC   C1B57823   4.030  26.887   6.450
 8919POPC   C2B57824   4.067  26.859   6.750
 8919POPC   C3B57825   4.116  26.803   7.050
 8919POPC   C4B57826   4.107  26.886   7.350
 8920POPC   NC357827   3.513  12.082   5.550
 8920POPC   PO457828   3.577  12.105   5.850
 8920POPC   GL157829   3.526  12.063   6.150
 8920POPC   GL257830   3.496  12.243   6.150
 8920POPC   C1A57831   3.545  12.041   6.450
 8920POPC   D2A57832   3.525  12.059   6.750
 8920POPC   C3A57833   3.545  12.116   7.050
 8920POPC   C4A57834   3.571  12.122   7.350
 8920POPC   C1B57835   3.563  12.341   6.450
 8920POPC   C2B57836   3.509  12.281   6.750
 8920POPC   C3B57837   3.517  12.311   7.050
 8920POPC   C4B57838   3.513  12.321   7.350
 8921POPC   NC357839  17.497   3.523   5.550
 8921POPC   PO457840  17.463   3.582   5.850
 8921POPC   GL157841  17.534   3.574   6.150
 8921POPC   GL257842  17.531   3.647   6.150
 8921POPC   C1A57843  17.503   3.507   6.450
 8921POPC   D2A57844  17.518   3.531   6.750
 8921POPC   C3A57845  17.511   3.528   7.050
 8921POPC   C4A57846  17.496   3.533   7.350
 8921POPC   C1B57847  17.523   3.836   6.450
 8921POPC   C2B57848  17.535   3.780   6.750
 8921POPC   C3B57849  17.492   3.794   7.050
 8921POPC   C4B57850  17.476   3.794   7.350
 8922POPC   NC357851   3.518  28.344   5.550
 8922POPC   PO457852   3.541  28.401   5.850
 8922POPC   GL157853   3.552  28.395   6.150
 8922POPC   GL257854   3.610  28.263   6.150
 8922POPC   C1A57855   3.524  28.404   6.450
 8922POPC   D2A57856   3.517  28.343   6.750
 8922POPC   C3A57857   3.523  28.365   7.050
 8922POPC   C4A57858   3.569  28.358   7.350
 8922POPC   C1B57859   3.616  28.189   6.450
 8922POPC   C2B57860   3.645  28.107   6.750
 8922POPC   C3B57861   3.695  28.193   7.050
 8922POPC   C4B57862   3.701  28.186   7.350
 8923POPC   NC357863   5.858  24.527   5.550
 8923POPC   PO457864   5.826  24.489   5.850
 8923POPC   GL157865   5.826  24.457   6.150
 8923POPC   GL257866   5.981  24.572   6.150
 8923POPC   C1A57867   5.890  24.460   6.450
 8923POPC   D2A57868   5.895  24.503   6.750
 8923POPC   C3A57869   5.903  24.444   7.050
 8923POPC   C4A57870   5.896  24.479   7.350
 8923POPC   C1B57871   6.078  24.595   6.450
 8923POPC   C2B57872   6.098  24.577   6.750
 8923POPC   C3B57873   6.120  24.582   7.050
 8923POPC   C4B57874   6.140  24.545   7.350
 8924POPC   NC357875  39.248  20.611   5.550
 8924POPC   PO457876  39.186  20.584   5.850
 8924POPC   GL157877  39.215  20.585   6.150
 8924POPC   GL257878  39.150  20.477   6.150
 8924POPC   C1A57879  39.228  20.600   6.450
 8924POPC   D2A57880  39.254  20.611   6.750
 8924POPC   C3A57881  39.221  20.618   7.050
 8924POPC   C4A57882  39.200  20.600   7.350
 8924POPC   C1B57883  39.088  20.397   6.450
 8924POPC   C2B57884  39.030  20.464   6.750
 8924POPC   C3B57885  39.039  20.456   7.050
 8924POPC   C4B57886  39.073  20.462   7.350
 8925POPC   NC357887  20.592  40.002   5.550
 8925POPC   PO457888  20.565  39.986   5.850
 8925POPC   GL157889  20.598  40.017   6.150
 8925POPC   GL257890  20.722  39.947   6.150
 8925POPC   C1A57891  20.597  40.015   6.450
 8925POPC   D2A57892  20.623  40.033   6.750
 8925POPC   C3A57893  20.589  40.051   7.050
 8925POPC   C4A57894  20.654  40.035   7.350
 8925POPC   C1B57895  20.802  39.863   6.450
 8925POPC   C2B57896  20.770  39.852   6.750
 8925POPC   C3B57897  20.813  39.818   7.050
 8925POPC   C4B57898  20.807  39.876   7.350
 8926POPC   NC357899  11.256  43.100   5.550
 8926POPC   PO457900  11.294  43.067   5.850
 8926POPC   GL157901  11.345  43.069   6.150
 8926POPC   GL257902  11.193  43.152   6.150
 8926POPC   C1A57903  11.299  43.123   6.450
 8926POPC   D2A57904  11.267  43.157   6.750
 8926POPC   C3A57905  11.329  43.064   7.050
 8926POPC   C4A57906  11.266  43.127   7.350
 8926POPC   C1B57907  11.068  43.223   6.450
 8926POPC   C2B57908  11.052  43.251   6.750
 8926POPC   C3B57909  11.131  43.305   7.050
 8926POPC   C4B57910  11.139  43.224   7.350
 8927POPC   NC357911  39.212  16.729   5.550
 8927POPC   PO457912  39.182  16.702   5.850
 8927POPC   GL157913  39.226  16.743   6.150
 8927POPC   GL257914  39.236  16.560   6.150
 8927POPC   C1A57915  39.231  16.756   6.450
 8927POPC   D2A57916  39.197  16.749   6.750
 8927POPC   C3A57917  39.271  16.726   7.050
 8927POPC   C4A57918  39.189  16.758   7.350
 8927POPC   C1B57919  39.296  16.511   6.450
 8927POPC   C2B57920  39.328  16.501   6.750
 8927POPC   C3B57921  39.243  16.445   7.050
 8927POPC   C4B57922  39.303  16.464   7.350
 8928POPC   NC357923   9.792   5.873   5.550
 8928POPC   PO457924   9.783   5.862   5.850
 8928POPC   GL157925   9.706   5.829   6.150
 8928POPC   GL257926   9.776   5.748   6.150
 8928POPC   C1A57927   9.717   5.822   6.450
 8928POPC   D2A57928   9.768   5.885   6.750
 8928POPC   C3A57929   9.727   5.915   7.050
 8928POPC   C4A57930   9.759   5.863   7.350
 8928POPC   C1B57931   9.784   5.573   6.450
 8928POPC   C2B57932   9.783   5.604   6.750
 8928POPC   C3B57933   9.761   5.657   7.050
 8928POPC   C4B57934   9.820   5.646   7.350
 8929POPC   NC357935  35.376  33.801   5.550
 8929POPC   PO457936  35.354  33.845   5.850
 8929POPC   GL157937  35.345  33.829   6.150
 8929POPC   GL257938  35.426  33.714   6.150
 8929POPC   C1A57939  35.335  33.754   6.450
 8929POPC   D2A57940  35.327  33.826   6.750
 8929POPC   C3A57941  35.340  33.836   7.050
 8929POPC   C4A57942  35.334  33.795   7.350
 8929POPC   C1B57943  35.528  33.561   6.450
 8929POPC   C2B57944  35.498  33.557   6.750
 8929POPC   C3B57945  35.507  33.610   7.050
 8929POPC   C4B57946  35.467  33.551   7.350
 8930POPC   NC357947  27.628   4.290   5.550
 8930POPC   PO457948  27.599   4.281   5.850
 8930POPC   GL157949  27.594   4.272   6.150
 8930POPC   GL257950  27.725   4.425   6.150
 8930POPC   C1A57951  27.582   4.365   6.450
 8930POPC   D2A57952  27.632   4.274   6.750
 8930POPC   C3A57953  27.590   4.352   7.050
 8930POPC   C4A57954  27.611   4.317   7.350
 8930POPC   C1B57955  27.841   4.439   6.450
 8930POPC   C2B57956  27.831   4.438   6.750
 8930POPC   C3B57957  27.748   4.416   7.050
 8930POPC   C4B57958  27.789   4.425   7.350
 8931POPC   NC357959  41.601  34.583   5.550
 8931POPC   PO457960  41.545  34.533   5.850
 8931POPC   GL157961  41.591  34.584   6.150
 8931POPC   GL257962  41.429  34.686   6.150
 8931POPC   C1A57963  41.589  34.551   6.450
 8931POPC   D2A57964  41.567  34.610   6.750
 8931POPC   C3A57965  41.541  34.625   7.050
 8931POPC   C4A57966  41.598  34.537   7.350
 8931POPC   C1B57967  41.370  34.732   6.450
 8931POPC   C2B57968  41.390  34.793   6.750
 8931POPC   C3B57969  41.386  34.792   7.050
 8931POPC   C4B57970  41.339  34.713   7.350
 8932POPC   NC357971  11.254  24.453   5.550
 8932POPC   PO457972  11.317  24.480   5.850
 8932POPC   GL157973  11.336  24.480   6.150
 8932POPC   GL257974  11.228  24.453   6.150
 8932POPC   C1A57975  11.289  24.450   6.450
 8932POPC   D2A57976  11.347  24.534   6.750
 8932POPC   C3A57977  11.342  24.455   7.050
 8932POPC   C4A57978  11.292  24.471   7.350
 8932POPC   C1B57979  11.157  24.350   6.450
 8932POPC   C2B57980  11.099  24.370   6.750
 8932POPC   C3B57981  11.134  24.360   7.050
 8932POPC   C4B57982  11.138  24.286   7.350
 8933POPC   NC357983  33.814  26.055   5.550
 8933POPC   PO457984  33.781  26.066   5.850
 8933POPC   GL157985  33.844  26.043   6.150
 8933POPC   GL257986  33.964  26.027   6.150
 8933POPC   C1A57987  33.787  25.992   6.450
 8933POPC   D2A57988  33.754  26.073   6.750
 8933POPC   C3A57989  33.824  26.061   7.050
 8933POPC   C4A57990  33.775  26.035   7.350
 8933POPC   C1B57991  34.099  26.049   6.450
 8933POPC   C2B57992  34.049  26.025   6.750
 8933POPC   C3B57993  34.049  26.006   7.050
 8933POPC   C4B57994  34.017  26.000   7.350
 8934POPC   NC357995  42.358  30.649   5.550
 8934POPC   PO457996  42.306  30.670   5.850
 8934POPC   GL157997  42.352  30.716   6.150
 8934POPC   GL257998  42.445  30.610   6.150
 8934POPC   C1A57999  42.349  30.654   6.450
 8934POPC   D2A58000  42.322  30.664   6.750
 8934POPC   C3A58001  42.310  30.730   7.050
 8934POPC   C4A58002  42.372  30.668   7.350
 8934POPC   C1B58003  42.579  30.593   6.450
 8934POPC   C2B58004  42.592  30.649   6.750
 8934POPC   C3B58005  42.551  30.604   7.050
 8934POPC   C4B58006  42.564  30.594   7.350
 8935POPC   NC358007  26.068   0.395   5.550
 8935POPC   PO458008  26.020   0.446   5.850
 8935POPC   GL158009  26.062   0.413   6.150
 8935POPC   GL258010  26.059   0.274   6.150
 8935POPC   C1A58011  26.088   0.450   6.450
 8935POPC   D2A58012  26.091   0.450   6.750
 8935POPC   C3A58013  26.051   0.478   7.050
 8935POPC   C4A58014  26.066   0.443   7.350
 8935POPC   C1B58015  25.972   0.233   6.450
 8935POPC   C2B58016  26.034   0.176   6.750
 8935POPC   C3B58017  25.951   0.225   7.050
 8935POPC   C4B58018  25.992   0.227   7.350
 8936POPC   NC358019   6.680   5.136   5.550
 8936POPC   PO458020   6.643   5.069   5.850
 8936POPC   GL158021   6.666   5.068   6.150
 8936POPC   GL258022   6.790   5.070   6.150
 8936POPC   C1A58023   6.631   5.121   6.450
 8936POPC   D2A58024   6.596   5.045   6.750
 8936POPC   C3A58025   6.668   5.141   7.050
 8936POPC   C4A58026   6.609   5.051   7.350
 8936POPC   C1B58027   6.871   4.997   6.450
 8936POPC   C2B58028   6.895   5.032   6.750
 8936POPC   C3B58029   6.903   5.034   7.050
 8936POPC   C4B58030   6.850   5.026   7.350
 8937POPC   NC358031  39.208  26.832   5.550
 8937POPC   PO458032  39.246  26.781   5.850
 8937POPC   GL158033  39.213  26.851   6.150
 8937POPC   GL258034  39.396  26.861   6.150
 8937POPC   C1A58035  39.276  26.861   6.450
 8937POPC   D2A58036  39.227  26.771   6.750
 8937POPC   C3A58037  39.245  26.788   7.050
 8937POPC   C4A58038  39.260  26.815   7.350
 8937POPC   C1B58039  39.440  26.837   6.450
 8937POPC   C2B58040  39.473  26.767   6.750
 8937POPC   C3B58041  39.443  26.853   7.050
 8937POPC   C4B58042  39.506  26.787   7.350
 8938POPC   NC358043  40.010  29.192   5.550
 8938POPC   PO458044  40.052  29.096   5.850
 8938POPC   GL158045  40.052  29.132   6.150
 8938POPC   GL258046  39.912  29.238   6.150
 8938POPC   C1A58047  40.021  29.171   6.450
 8938POPC   D2A58048  40.048  29.097   6.750
 8938POPC   C3A58049  40.035  29.126   7.050
 8938POPC   C4A58050  39.962  29.136   7.350
 8938POPC   C1B58051  39.886  29.364   6.450
 8938POPC   C2B58052  39.831  29.319   6.750
 8938POPC   C3B58053  39.822  29.316   7.050
 8938POPC   C4B58054  39.887  29.352   7.350
 8939POPC   NC358055  24.445  18.290   5.550
 8939POPC   PO458056  24.446  18.262   5.850
 8939POPC   GL158057  24.498  18.303   6.150
 8939POPC   GL258058  24.466  18.133   6.150
 8939POPC   C1A58059  24.455  18.253   6.450
 8939POPC   D2A58060  24.532  18.294   6.750
 8939POPC   C3A58061  24.491  18.298   7.050
 8939POPC   C4A58062  24.516  18.305   7.350
 8939POPC   C1B58063  24.405  18.001   6.450
 8939POPC   C2B58064  24.417  18.053   6.750
 8939POPC   C3B58065  24.420  18.002   7.050
 8939POPC   C4B58066  24.451  18.011   7.350
 8940POPC   NC358067  25.285  29.145   5.550
 8940POPC   PO458068  25.314  29.164   5.850
 8940POPC   GL158069  25.286  29.107   6.150
 8940POPC   GL258070  25.161  29.051   6.150
 8940POPC   C1A58071  25.309  29.157   6.450
 8940POPC   D2A58072  25.303  29.154   6.750
 8940POPC   C3A58073  25.239  29.147   7.050
 8940POPC   C4A58074  25.259  29.156   7.350
 8940POPC   C1B58075  25.098  29.007   6.450
 8940POPC   C2B58076  25.076  28.978   6.750
 8940POPC   C3B58077  25.048  29.013   7.050
 8940POPC   C4B58078  25.073  29.005   7.350
 8941POPC   NC358079  24.496   1.175   5.550
 8941POPC   PO458080  24.532   1.190   5.850
 8941POPC   GL158081  24.504   1.234   6.150
 8941POPC   GL258082  24.484   1.334   6.150
 8941POPC   C1A58083  24.460   1.227   6.450
 8941POPC   D2A58084  24.477   1.202   6.750
 8941POPC   C3A58085  24.497   1.185   7.050
 8941POPC   C4A58086  24.448   1.193   7.350
 8941POPC   C1B58087  24.392   1.409   6.450
 8941POPC   C2B58088  24.420   1.464   6.750
 8941POPC   C3B58089  24.429   1.473   7.050
 8941POPC   C4B58090  24.385   1.484   7.350
 8942POPC   NC358091  38.455  36.163   5.550
 8942POPC   PO458092  38.409  36.110   5.850
 8942POPC   GL158093  38.495  36.089   6.150
 8942POPC   GL258094  38.328  36.129   6.150
 8942POPC   C1A58095  38.464  36.123   6.450
 8942POPC   D2A58096  38.444  36.129   6.750
 8942POPC   C3A58097  38.445  36.092   7.050
 8942POPC   C4A58098  38.499  36.090   7.350
 8942POPC   C1B58099  38.217  36.022   6.450
 8942POPC   C2B58100  38.265  36.064   6.750
 8942POPC   C3B58101  38.187  36.082   7.050
 8942POPC   C4B58102  38.246  36.071   7.350
 8943POPC   NC358103   4.268  42.313   5.550
 8943POPC   PO458104   4.272  42.319   5.850
 8943POPC   GL158105   4.316  42.380   6.150
 8943POPC   GL258106   4.191  42.339   6.150
 8943POPC   C1A58107   4.310  42.325   6.450
 8943POPC   D2A58108   4.357  42.302   6.750
 8943POPC   C3A58109   4.326  42.372   7.050
 8943POPC   C4A58110   4.274  42.325   7.350
 8943POPC   C1B58111   4.109  42.409   6.450
 8943POPC   C2B58112   4.057  42.402   6.750
 8943POPC   C3B58113   4.085  42.351   7.050
 8943POPC   C4B58114   4.041  42.397   7.350
 8944POPC   NC358115  36.110  44.698   5.550
 8944POPC   PO458116  36.174  44.662   5.850
 8944POPC   GL158117  36.119  44.650   6.150
 8944POPC   GL258118  36.208  44.629   6.150
 8944POPC   C1A58119  36.167  44.682   6.450
 8944POPC   D2A58120  36.118  44.667   6.750
 8944POPC   C3A58121  36.122  44.651   7.050
 8944POPC   C4A58122  36.140  44.669   7.350
 8944POPC   C1B58123  36.328  44.601   6.450
 8944POPC   C2B58124  36.359  44.565   6.750
 8944POPC   C3B58125  36.321  44.560   7.050
 8944POPC   C4B58126  36.392  44.620   7.350
 8945POPC   NC358127   8.197  32.252   5.550
 8945POPC   PO458128   8.205  32.215   5.850
 8945POPC   GL158129   8.238  32.235   6.150
 8945POPC   GL258130   8.081  32.331   6.150
 8945POPC   C1A58131   8.211  32.200   6.450
 8945POPC   D2A58132   8.157  32.230   6.750
 8945POPC   C3A58133   8.182  32.239   7.050
 8945POPC   C4A58134   8.219  32.220   7.350
 8945POPC   C1B58135   7.966  32.366   6.450
 8945POPC   C2B58136   7.959  32.371   6.750
 8945POPC   C3B58137   8.000  32.308   7.050
 8945POPC   C4B58138   8.003  32.286   7.350
 8946POPC   NC358139  22.171   3.525   5.550
 8946POPC   PO458140  22.118   3.547   5.850
 8946POPC   GL158141  22.114   3.499   6.150
 8946POPC   GL258142  22.043   3.486   6.150
 8946POPC   C1A58143  22.204   3.505   6.450
 8946POPC   D2A58144  22.154   3.562   6.750
 8946POPC   C3A58145  22.180   3.553   7.050
 8946POPC   C4A58146  22.161   3.506   7.350
 8946POPC   C1B58147  21.882   3.506   6.450
 8946POPC   C2B58148  21.895   3.437   6.750
 8946POPC   C3B58149  21.932   3.421   7.050
 8946POPC   C4B58150  21.938   3.486   7.350
 8947POPC   NC358151  21.397  31.517   5.550
 8947POPC   PO458152  21.371  31.431   5.850
 8947POPC   GL158153  21.396  31.516   6.150
 8947POPC   GL258154  21.315  31.340   6.150
 8947POPC   C1A58155  21.343  31.466   6.450
 8947POPC   D2A58156  21.416  31.444   6.750
 8947POPC   C3A58157  21.421  31.485   7.050
 8947POPC   C4A58158  21.370  31.518   7.350
 8947POPC   C1B58159  21.266  31.203   6.450
 8947POPC   C2B58160  21.330  31.244   6.750
 8947POPC   C3B58161  21.250  31.277   7.050
 8947POPC   C4B58162  21.317  31.262   7.350
 8948POPC   NC358163  22.909   3.505   5.550
 8948POPC   PO458164  22.924   3.493   5.850
 8948POPC   GL158165  22.899   3.523   6.150
 8948POPC   GL258166  23.030   3.451   6.150
 8948POPC   C1A58167  22.965   3.522   6.450
 8948POPC   D2A58168  22.928   3.509   6.750
 8948POPC   C3A58169  22.977   3.506   7.050
 8948POPC   C4A58170  22.956   3.591   7.350
 8948POPC   C1B58171  23.042   3.288   6.450
 8948POPC   C2B58172  23.073   3.261   6.750
 8948POPC   C3B58173  23.021   3.336   7.050
 8948POPC   C4B58174  23.001   3.306   7.350
 8949POPC   NC358175  26.777  30.661   5.550
 8949POPC   PO458176  26.794  30.672   5.850
 8949POPC   GL158177  26.865  30.716   6.150
 8949POPC   GL258178  26.834  30.583   6.150
 8949POPC   C1A58179  26.789  30.647   6.450
 8949POPC   D2A58180  26.791  30.701   6.750
 8949POPC   C3A58181  26.834  30.697   7.050
 8949POPC   C4A58182  26.852  30.680   7.350
 8949POPC   C1B58183  26.867  30.465   6.450
 8949POPC   C2B58184  26.906  30.467   6.750
 8949POPC   C3B58185  26.875  30.413   7.050
 8949POPC   C4B58186  26.847  30.466   7.350
 8950POPC   NC358187  25.268  15.920   5.550
 8950POPC   PO458188  25.309  15.984   5.850
 8950POPC   GL158189  25.245  15.944   6.150
 8950POPC   GL258190  25.337  16.048   6.150
 8950POPC   C1A58191  25.292  15.980   6.450
 8950POPC   D2A58192  25.259  15.976   6.750
 8950POPC   C3A58193  25.301  15.996   7.050
 8950POPC   C4A58194  25.237  15.925   7.350
 8950POPC   C1B58195  25.360  16.160   6.450
 8950POPC   C2B58196  25.286  16.152   6.750
 8950POPC   C3B58197  25.309  16.238   7.050
 8950POPC   C4B58198  25.311  16.163   7.350
 8951POPC   NC358199  17.549  44.618   5.550
 8951POPC   PO458200  17.535  44.684   5.850
 8951POPC   GL158201  17.488  44.642   6.150
 8951POPC   GL258202  17.473  44.582   6.150
 8951POPC   C1A58203  17.527  44.681   6.450
 8951POPC   D2A58204  17.550  44.683   6.750
 8951POPC   C3A58205  17.550  44.667   7.050
 8951POPC   C4A58206  17.522  44.621   7.350
 8951POPC   C1B58207  17.468  44.403   6.450
 8951POPC   C2B58208  17.462  44.467   6.750
 8951POPC   C3B58209  17.422  44.403   7.050
 8951POPC   C4B58210  17.439  44.412   7.350
 8952POPC   NC358211  30.709  31.474   5.550
 8952POPC   PO458212  30.693  31.494   5.850
 8952POPC   GL158213  30.718  31.451   6.150
 8952POPC   GL258214  30.619  31.340   6.150
 8952POPC   C1A58215  30.701  31.446   6.450
 8952POPC   D2A58216  30.693  31.436   6.750
 8952POPC   C3A58217  30.678  31.494   7.050
 8952POPC   C4A58218  30.650  31.503   7.350
 8952POPC   C1B58219  30.587  31.276   6.450
 8952POPC   C2B58220  30.578  31.235   6.750
 8952POPC   C3B58221  30.539  31.289   7.050
 8952POPC   C4B58222  30.570  31.275   7.350
 8953POPC   NC358223  15.191  41.570   5.550
 8953POPC   PO458224  15.172  41.518   5.850
 8953POPC   GL158225  15.177  41.565   6.150
 8953POPC   GL258226  15.053  41.534   6.150
 8953POPC   C1A58227  15.208  41.589   6.450
 8953POPC   D2A58228  15.178  41.525   6.750
 8953POPC   C3A58229  15.163  41.608   7.050
 8953POPC   C4A58230  15.145  41.598   7.350
 8953POPC   C1B58231  14.923  41.437   6.450
 8953POPC   C2B58232  14.932  41.435   6.750
 8953POPC   C3B58233  14.923  41.491   7.050
 8953POPC   C4B58234  15.000  41.434   7.350
 8954POPC   NC358235  42.298  19.801   5.550
 8954POPC   PO458236  42.286  19.883   5.850
 8954POPC   GL158237  42.367  19.872   6.150
 8954POPC   GL258238  42.417  19.770   6.150
 8954POPC   C1A58239  42.321  19.858   6.450
 8954POPC   D2A58240  42.312  19.803   6.750
 8954POPC   C3A58241  42.356  19.882   7.050
 8954POPC   C4A58242  42.289  19.863   7.350
 8954POPC   C1B58243  42.607  19.844   6.450
 8954POPC   C2B58244  42.550  19.799   6.750
 8954POPC   C3B58245  42.548  19.754   7.050
 8954POPC   C4B58246  42.555  19.831   7.350
 8955POPC   NC358247   7.427  21.426   5.550
 8955POPC   PO458248   7.450  21.423   5.850
 8955POPC   GL158249   7.430  21.435   6.150
 8955POPC   GL258250   7.373  21.505   6.150
 8955POPC   C1A58251   7.443  21.378   6.450
 8955POPC   D2A58252   7.449  21.404   6.750
 8955POPC   C3A58253   7.384  21.397   7.050
 8955POPC   C4A58254   7.464  21.344   7.350
 8955POPC   C1B58255   7.435  21.592   6.450
 8955POPC   C2B58256   7.444  21.654   6.750
 8955POPC   C3B58257   7.404  21.655   7.050
 8955POPC   C4B58258   7.385  21.616   7.350
 8956POPC   NC358259  37.712  39.961   5.550
 8956POPC   PO458260  37.635  40.048   5.850
 8956POPC   GL158261  37.713  39.974   6.150
 8956POPC   GL258262  37.748  40.012   6.150
 8956POPC   C1A58263  37.696  39.976   6.450
 8956POPC   D2A58264  37.710  40.005   6.750
 8956POPC   C3A58265  37.660  40.034   7.050
 8956POPC   C4A58266  37.695  39.994   7.350
 8956POPC   C1B58267  37.927  40.139   6.450
 8956POPC   C2B58268  37.887  40.094   6.750
 8956POPC   C3B58269  37.889  40.052   7.050
 8956POPC   C4B58270  37.895  40.099   7.350
 8957POPC   NC358271   1.986  36.141   5.550
 8957POPC   PO458272   1.944  36.109   5.850
 8957POPC   GL158273   2.028  36.097   6.150
 8957POPC   GL258274   1.919  36.031   6.150
 8957POPC   C1A58275   2.008  36.114   6.450
 8957POPC   D2A58276   1.993  36.123   6.750
 8957POPC   C3A58277   2.005  36.117   7.050
 8957POPC   C4A58278   1.957  36.149   7.350
 8957POPC   C1B58279   1.879  35.896   6.450
 8957POPC   C2B58280   1.949  35.930   6.750
 8957POPC   C3B58281   1.902  35.845   7.050
 8957POPC   C4B58282   1.860  35.932   7.350
 8958POPC   NC358283  36.866  35.400   5.550
 8958POPC   PO458284  36.870  35.353   5.850
 8958POPC   GL158285  36.897  35.362   6.150
 8958POPC   GL258286  36.937  35.469   6.150
 8958POPC   C1A58287  36.905  35.391   6.450
 8958POPC   D2A58288  36.953  35.305   6.750
 8958POPC   C3A58289  36.900  35.353   7.050
 8958POPC   C4A58290  36.870  35.388   7.350
 8958POPC   C1B58291  37.001  35.608   6.450
 8958POPC   C2B58292  37.037  35.519   6.750
 8958POPC   C3B58293  37.063  35.614   7.050
 8958POPC   C4B58294  37.059  35.555   7.350
 8959POPC   NC358295   5.898   4.345   5.550
 8959POPC   PO458296   5.897   4.333   5.850
 8959POPC   GL158297   5.834   4.315   6.150
 8959POPC   GL258298   6.036   4.281   6.150
 8959POPC   C1A58299   5.902   4.362   6.450
 8959POPC   D2A58300   5.891   4.315   6.750
 8959POPC   C3A58301   5.823   4.366   7.050
 8959POPC   C4A58302   5.831   4.270   7.350
 8959POPC   C1B58303   6.098   4.285   6.450
 8959POPC   C2B58304   6.166   4.341   6.750
 8959POPC   C3B58305   6.083   4.339   7.050
 8959POPC   C4B58306   6.146   4.354   7.350
 8960POPC   NC358307  34.586  29.160   5.550
 8960POPC   PO458308  34.611  29.123   5.850
 8960POPC   GL158309  34.615  29.158   6.150
 8960POPC   GL258310  34.602  29.309   6.150
 8960POPC   C1A58311  34.556  29.157   6.450
 8960POPC   D2A58312  34.620  29.124   6.750
 8960POPC   C3A58313  34.559  29.116   7.050
 8960POPC   C4A58314  34.533  29.175   7.350
 8960POPC   C1B58315  34.632  29.411   6.450
 8960POPC   C2B58316  34.596  29.428   6.750
 8960POPC   C3B58317  34.636  29.416   7.050
 8960POPC   C4B58318  34.617  29.405   7.350
 8961POPC   NC358319  15.967  15.960   5.550
 8961POPC   PO458320  15.981  15.909   5.850
 8961POPC   GL158321  15.952  15.974   6.150
 8961POPC   GL258322  16.096  15.997   6.150
 8961POPC   C1A58323  15.985  15.971   6.450
 8961POPC   D2A58324  15.911  15.938   6.750
 8961POPC   C3A58325  15.927  15.943   7.050
 8961POPC   C4A58326  15.937  15.995   7.350
 8961POPC   C1B58327  16.196  16.048   6.450
 8961POPC   C2B58328  16.191  16.108   6.750
 8961POPC   C3B58329  16.218  16.026   7.050
 8961POPC   C4B58330  16.199  16.091   7.350
 8962POPC   NC358331  25.242  22.956   5.550
 8962POPC   PO458332  25.298  22.941   5.850
 8962POPC   GL158333  25.240  22.913   6.150
 8962POPC   GL258334  25.398  22.814   6.150
 8962POPC   C1A58335  25.283  22.892   6.450
 8962POPC   D2A58336  25.242  22.951   6.750
 8962POPC   C3A58337  25.286  22.906   7.050
 8962POPC   C4A58338  25.260  22.968   7.350
 8962POPC   C1B58339  25.402  22.772   6.450
 8962POPC   C2B58340  25.477  22.804   6.750
 8962POPC   C3B58341  25.464  22.742   7.050
 8962POPC   C4B58342  25.462  22.760   7.350
 8963POPC   NC358343  19.068   1.187   5.550
 8963POPC   PO458344  19.042   1.238   5.850
 8963POPC   GL158345  19.017   1.199   6.150
 8963POPC   GL258346  19.203   1.212   6.150
 8963POPC   C1A58347  19.093   1.188   6.450
 8963POPC   D2A58348  19.084   1.189   6.750
 8963POPC   C3A58349  19.062   1.222   7.050
 8963POPC   C4A58350  19.029   1.215   7.350
 8963POPC   C1B58351  19.268   1.249   6.450
 8963POPC   C2B58352  19.251   1.314   6.750
 8963POPC   C3B58353  19.308   1.299   7.050
 8963POPC   C4B58354  19.256   1.307   7.350
 8964POPC   NC358355  30.666  44.623   5.550
 8964POPC   PO458356  30.697  44.692   5.850
 8964POPC   GL158357  30.706  44.622   6.150
 8964POPC   GL258358  30.546  44.599   6.150
 8964POPC   C1A58359  30.733  44.684   6.450
 8964POPC   D2A58360  30.681  44.620   6.750
 8964POPC   C3A58361  30.717  44.630   7.050
 8964POPC   C4A58362  30.670  44.679   7.350
 8964POPC   C1B58363  30.477  44.512   6.450
 8964POPC   C2B58364  30.532  44.571   6.750
 8964POPC   C3B58365  30.500  44.521   7.050
 8964POPC   C4B58366  30.436  44.522   7.350
 8965POPC   NC358367  21.425  37.702   5.550
 8965POPC   PO458368  21.362  37.641   5.850
 8965POPC   GL158369  21.387  37.638   6.150
 8965POPC   GL258370  21.272  37.605   6.150
 8965POPC   C1A58371  21.391  37.636   6.450
 8965POPC   D2A58372  21.380  37.691   6.750
 8965POPC   C3A58373  21.410  37.642   7.050
 8965POPC   C4A58374  21.435  37.701   7.350
 8965POPC   C1B58375  21.218  37.451   6.450
 8965POPC   C2B58376  21.194  37.472   6.750
 8965POPC   C3B58377  21.216  37.529   7.050
 8965POPC   C4B58378  21.171  37.477   7.350
 8966POPC   NC358379  28.356  43.876   5.550
 8966POPC   PO458380  28.392  43.909   5.850
 8966POPC   GL158381  28.344  43.879   6.150
 8966POPC   GL258382  28.371  43.735   6.150
 8966POPC   C1A58383  28.349  43.913   6.450
 8966POPC   D2A58384  28.358  43.846   6.750
 8966POPC   C3A58385  28.364  43.887   7.050
 8966POPC   C4A58386  28.382  43.839   7.350
 8966POPC   C1B58387  28.275  43.611   6.450
 8966POPC   C2B58388  28.291  43.632   6.750
 8966POPC   C3B58389  28.267  43.632   7.050
 8966POPC   C4B58390  28.288  43.630   7.350
 8967POPC   NC358391  43.852  10.512   5.550
 8967POPC   PO458392  43.886  10.528   5.850
 8967POPC   GL158393  43.917  10.530   6.150
 8967POPC   GL258394  43.816  10.587   6.150
 8967POPC   C1A58395  43.907  10.486   6.450
 8967POPC   D2A58396  43.870  10.504   6.750
 8967POPC   C3A58397  43.908  10.566   7.050
 8967POPC   C4A58398  43.858  10.506   7.350
 8967POPC   C1B58399  43.670  10.611   6.450
 8967POPC   C2B58400  43.682  10.616   6.750
 8967POPC   C3B58401  43.694  10.666   7.050
 8967POPC   C4B58402  43.681  10.616   7.350
 8968POPC   NC358403  29.918  22.970   5.550
 8968POPC   PO458404  29.943  22.983   5.850
 8968POPC   GL158405  29.877  22.892   6.150
 8968POPC   GL258406  30.031  23.044   6.150
 8968POPC   C1A58407  29.908  22.961   6.450
 8968POPC   D2A58408  29.967  22.987   6.750
 8968POPC   C3A58409  29.961  22.959   7.050
 8968POPC   C4A58410  29.947  22.931   7.350
 8968POPC   C1B58411  30.054  23.118   6.450
 8968POPC   C2B58412  30.100  23.122   6.750
 8968POPC   C3B58413  30.025  23.093   7.050
 8968POPC   C4B58414  30.109  23.116   7.350
 8969POPC   NC358415  12.125  23.762   5.550
 8969POPC   PO458416  12.116  23.711   5.850
 8969POPC   GL158417  12.121  23.725   6.150
 8969POPC   GL258418  12.098  23.632   6.150
 8969POPC   C1A58419  12.029  23.696   6.450
 8969POPC   D2A58420  12.125  23.749   6.750
 8969POPC   C3A58421  12.056  23.679   7.050
 8969POPC   C4A58422  12.093  23.725   7.350
 8969POPC   C1B58423  12.068  23.508   6.450
 8969POPC   C2B58424  12.072  23.429   6.750
 8969POPC   C3B58425  12.103  23.501   7.050
 8969POPC   C4B58426  12.090  23.499   7.350
 8970POPC   NC358427  41.525  16.728   5.550
 8970POPC   PO458428  41.521  16.691   5.850
 8970POPC   GL158429  41.565  16.771   6.150
 8970POPC   GL258430  41.669  16.605   6.150
 8970POPC   C1A58431  41.580  16.697   6.450
 8970POPC   D2A58432  41.560  16.756   6.750
 8970POPC   C3A58433  41.532  16.741   7.050
 8970POPC   C4A58434  41.593  16.738   7.350
 8970POPC   C1B58435  41.714  16.500   6.450
 8970POPC   C2B58436  41.742  16.498   6.750
 8970POPC   C3B58437  41.728  16.544   7.050
 8970POPC   C4B58438  41.717  16.491   7.350
 8971POPC   NC358439  12.877  43.119   5.550
 8971POPC   PO458440  12.881  43.157   5.850
 8971POPC   GL158441  12.887  43.119   6.150
 8971POPC   GL258442  12.779  43.186   6.150
 8971POPC   C1A58443  12.811  43.160   6.450
 8971POPC   D2A58444  12.812  43.114   6.750
 8971POPC   C3A58445  12.896  43.115   7.050
 8971POPC   C4A58446  12.852  43.119   7.350
 8971POPC   C1B58447  12.622  43.213   6.450
 8971POPC   C2B58448  12.638  43.224   6.750
 8971POPC   C3B58449  12.665  43.245   7.050
 8971POPC   C4B58450  12.645  43.248   7.350
 8972POPC   NC358451  40.793  12.883   5.550
 8972POPC   PO458452  40.785  12.810   5.850
 8972POPC   GL158453  40.758  12.871   6.150
 8972POPC   GL258454  40.803  12.696   6.150
 8972POPC   C1A58455  40.746  12.860   6.450
 8972POPC   D2A58456  40.771  12.900   6.750
 8972POPC   C3A58457  40.822  12.848   7.050
 8972POPC   C4A58458  40.820  12.874   7.350
 8972POPC   C1B58459  40.819  12.662   6.450
 8972POPC   C2B58460  40.865  12.660   6.750
 8972POPC   C3B58461  40.860  12.587   7.050
 8972POPC   C4B58462  40.886  12.613   7.350
 8973POPC   NC358463  43.909  24.462   5.550
 8973POPC   PO458464  43.899  24.504   5.850
 8973POPC   GL158465  43.863  24.504   6.150
 8973POPC   GL258466  43.953  24.587   6.150
 8973POPC   C1A58467  43.869  24.539   6.450
 8973POPC   D2A58468  43.887  24.489   6.750
 8973POPC   C3A58469  43.875  24.454   7.050
 8973POPC   C4A58470  43.872  24.507   7.350
 8973POPC   C1B58471  43.995  24.690   6.450
 8973POPC   C2B58472  44.018  24.725   6.750
 8973POPC   C3B58473  43.990  24.720   7.050
 8973POPC   C4B58474  43.982  24.724   7.350
 8974POPC   NC358475   9.720  12.884   5.550
 8974POPC   PO458476   9.703  12.817   5.850
 8974POPC   GL158477   9.768  12.884   6.150
 8974POPC   GL258478   9.815  12.766   6.150
 8974POPC   C1A58479   9.702  12.877   6.450
 8974POPC   D2A58480   9.699  12.848   6.750
 8974POPC   C3A58481   9.796  12.806   7.050
 8974POPC   C4A58482   9.794  12.899   7.350
 8974POPC   C1B58483   9.934  12.799   6.450
 8974POPC   C2B58484   9.930  12.758   6.750
 8974POPC   C3B58485   9.954  12.795   7.050
 8974POPC   C4B58486  10.018  12.739   7.350
 8975POPC   NC358487  21.337  10.563   5.550
 8975POPC   PO458488  21.425  10.570   5.850
 8975POPC   GL158489  21.412  10.573   6.150
 8975POPC   GL258490  21.416  10.683   6.150
 8975POPC   C1A58491  21.389  10.502   6.450
 8975POPC   D2A58492  21.396  10.543   6.750
 8975POPC   C3A58493  21.353  10.570   7.050
 8975POPC   C4A58494  21.351  10.535   7.350
 8975POPC   C1B58495  21.384  10.809   6.450
 8975POPC   C2B58496  21.311  10.735   6.750
 8975POPC   C3B58497  21.322  10.782   7.050
 8975POPC   C4B58498  21.318  10.727   7.350
 8976POPC   NC358499   0.456  25.223   5.550
 8976POPC   PO458500   0.412  25.282   5.850
 8976POPC   GL158501   0.447  25.286   6.150
 8976POPC   GL258502   0.378  25.356   6.150
 8976POPC   C1A58503   0.455  25.301   6.450
 8976POPC   D2A58504   0.452  25.307   6.750
 8976POPC   C3A58505   0.447  25.236   7.050
 8976POPC   C4A58506   0.475  25.249   7.350
 8976POPC   C1B58507   0.367  25.486   6.450
 8976POPC   C2B58508   0.405  25.531   6.750
 8976POPC   C3B58509   0.410  25.493   7.050
 8976POPC   C4B58510   0.383  25.514   7.350
 8977POPC   NC358511   1.173  19.096   5.550
 8977POPC   PO458512   1.255  19.081   5.850
 8977POPC   GL158513   1.193  19.091   6.150
 8977POPC   GL258514   1.163  19.144   6.150
 8977POPC   C1A58515   1.185  19.018   6.450
 8977POPC   D2A58516   1.250  19.026   6.750
 8977POPC   C3A58517   1.227  19.070   7.050
 8977POPC   C4A58518   1.183  19.085   7.350
 8977POPC   C1B58519   1.109  19.273   6.450
 8977POPC   C2B58520   1.082  19.268   6.750
 8977POPC   C3B58521   1.039  19.227   7.050
 8977POPC   C4B58522   1.067  19.218   7.350
 8978POPC   NC358523   7.467  13.628   5.550
 8978POPC   PO458524   7.408  13.603   5.850
 8978POPC   GL158525   7.404  13.630   6.150
 8978POPC   GL258526   7.318  13.542   6.150
 8978POPC   C1A58527   7.422  13.673   6.450
 8978POPC   D2A58528   7.461  13.660   6.750
 8978POPC   C3A58529   7.447  13.674   7.050
 8978POPC   C4A58530   7.464  13.589   7.350
 8978POPC   C1B58531   7.304  13.453   6.450
 8978POPC   C2B58532   7.306  13.359   6.750
 8978POPC   C3B58533   7.348  13.408   7.050
 8978POPC   C4B58534   7.286  13.396   7.350
 8979POPC   NC358535  20.611  28.346   5.550
 8979POPC   PO458536  20.622  28.349   5.850
 8979POPC   GL158537  20.652  28.354   6.150
 8979POPC   GL258538  20.666  28.211   6.150
 8979POPC   C1A58539  20.616  28.354   6.450
 8979POPC   D2A58540  20.582  28.341   6.750
 8979POPC   C3A58541  20.563  28.395   7.050
 8979POPC   C4A58542  20.599  28.365   7.350
 8979POPC   C1B58543  20.746  28.125   6.450
 8979POPC   C2B58544  20.730  28.128   6.750
 8979POPC   C3B58545  20.727  28.165   7.050
 8979POPC   C4B58546  20.696  28.171   7.350
 8980POPC   NC358547   5.848   8.975   5.550
 8980POPC   PO458548   5.845   9.013   5.850
 8980POPC   GL158549   5.840   9.008   6.150
 8980POPC   GL258550   5.814   9.136   6.150
 8980POPC   C1A58551   5.856   8.940   6.450
 8980POPC   D2A58552   5.871   8.965   6.750
 8980POPC   C3A58553   5.894   8.932   7.050
 8980POPC   C4A58554   5.892   9.003   7.350
 8980POPC   C1B58555   5.857   9.219   6.450
 8980POPC   C2B58556   5.835   9.202   6.750
 8980POPC   C3B58557   5.830   9.183   7.050
 8980POPC   C4B58558   5.872   9.188   7.350
 8981POPC   NC358559  43.846  32.269   5.550
 8981POPC   PO458560  43.933  32.290   5.850
 8981POPC   GL158561  43.856  32.199   6.150
 8981POPC   GL258562  43.928  32.136   6.150
 8981POPC   C1A58563  43.882  32.254   6.450
 8981POPC   D2A58564  43.881  32.281   6.750
 8981POPC   C3A58565  43.934  32.209   7.050
 8981POPC   C4A58566  43.848  32.276   7.350
 8981POPC   C1B58567  43.921  31.980   6.450
 8981POPC   C2B58568  43.926  32.037   6.750
 8981POPC   C3B58569  43.927  31.990   7.050
 8981POPC   C4B58570  43.925  31.981   7.350
 8982POPC   NC358571  35.354  21.340   5.550
 8982POPC   PO458572  35.343  21.413   5.850
 8982POPC   GL158573  35.382  21.413   6.150
 8982POPC   GL258574  35.336  21.552   6.150
 8982POPC   C1A58575  35.346  21.377   6.450
 8982POPC   D2A58576  35.390  21.351   6.750
 8982POPC   C3A58577  35.308  21.395   7.050
 8982POPC   C4A58578  35.387  21.381   7.350
 8982POPC   C1B58579  35.355  21.681   6.450
 8982POPC   C2B58580  35.294  21.618   6.750
 8982POPC   C3B58581  35.317  21.600   7.050
 8982POPC   C4B58582  35.328  21.628   7.350
 8983POPC   NC358583  33.071  36.871   5.550
 8983POPC   PO458584  32.994  36.866   5.850
 8983POPC   GL158585  33.017  36.881   6.150
 8983POPC   GL258586  33.001  36.743   6.150
 8983POPC   C1A58587  33.044  36.879   6.450
 8983POPC   D2A58588  33.038  36.944   6.750
 8983POPC   C3A58589  32.975  36.881   7.050
 8983POPC   C4A58590  33.027  36.926   7.350
 8983POPC   C1B58591  33.028  36.699   6.450
 8983POPC   C2B58592  33.031  36.619   6.750
 8983POPC   C3B58593  32.993  36.671   7.050
 8983POPC   C4B58594  33.027  36.638   7.350
 8984POPC   NC358595  40.752  29.948   5.550
 8984POPC   PO458596  40.774  29.895   5.850
 8984POPC   GL158597  40.755  29.893   6.150
 8984POPC   GL258598  40.762  29.997   6.150
 8984POPC   C1A58599  40.775  29.902   6.450
 8984POPC   D2A58600  40.757  29.912   6.750
 8984POPC   C3A58601  40.737  29.873   7.050
 8984POPC   C4A58602  40.741  29.885   7.350
 8984POPC   C1B58603  40.701  30.114   6.450
 8984POPC   C2B58604  40.699  30.199   6.750
 8984POPC   C3B58605  40.653  30.125   7.050
 8984POPC   C4B58606  40.733  30.175   7.350
 8985POPC   NC358607   6.679  16.704   5.550
 8985POPC   PO458608   6.692  16.730   5.850
 8985POPC   GL158609   6.601  16.687   6.150
 8985POPC   GL258610   6.703  16.613   6.150
 8985POPC   C1A58611   6.660  16.698   6.450
 8985POPC   D2A58612   6.625  16.709   6.750
 8985POPC   C3A58613   6.676  16.718   7.050
 8985POPC   C4A58614   6.654  16.770   7.350
 8985POPC   C1B58615   6.684  16.459   6.450
 8985POPC   C2B58616   6.643  16.526   6.750
 8985POPC   C3B58617   6.684  16.516   7.050
 8985POPC   C4B58618   6.657  16.507   7.350
 8986POPC   NC358619  43.905  23.668   5.550
 8986POPC   PO458620  43.897  23.690   5.850
 8986POPC   GL158621  43.903  23.752   6.150
 8986POPC   GL258622  43.769  23.682   6.150
 8986POPC   C1A58623  43.870  23.699   6.450
 8986POPC   D2A58624  43.928  23.682   6.750
 8986POPC   C3A58625  43.846  23.716   7.050
 8986POPC   C4A58626  43.923  23.717   7.350
 8986POPC   C1B58627  43.633  23.585   6.450
 8986POPC   C2B58628  43.696  23.661   6.750
 8986POPC   C3B58629  43.607  23.595   7.050
 8986POPC   C4B58630  43.627  23.670   7.350
 8987POPC   NC358631  22.888  26.805   5.550
 8987POPC   PO458632  22.905  26.852   5.850
 8987POPC   GL158633  22.922  26.769   6.150
 8987POPC   GL258634  22.894  26.707   6.150
 8987POPC   C1A58635  22.944  26.837   6.450
 8987POPC   D2A58636  22.958  26.777   6.750
 8987POPC   C3A58637  22.978  26.802   7.050
 8987POPC   C4A58638  22.900  26.812   7.350
 8987POPC   C1B58639  22.935  26.585   6.450
 8987POPC   C2B58640  22.877  26.584   6.750
 8987POPC   C3B58641  22.943  26.527   7.050
 8987POPC   C4B58642  22.868  26.586   7.350
 8988POPC   NC358643  43.865  29.879   5.550
 8988POPC   PO458644  43.864  29.945   5.850
 8988POPC   GL158645  43.856  29.925   6.150
 8988POPC   GL258646  43.900  29.816   6.150
 8988POPC   C1A58647  43.902  29.929   6.450
 8988POPC   D2A58648  43.923  29.881   6.750
 8988POPC   C3A58649  43.901  29.969   7.050
 8988POPC   C4A58650  43.916  29.879   7.350
 8988POPC   C1B58651  44.000  29.655   6.450
 8988POPC   C2B58652  43.965  29.647   6.750
 8988POPC   C3B58653  43.936  29.663   7.050
 8988POPC   C4B58654  43.924  29.709   7.350
 8989POPC   NC358655  44.647   4.301   5.550
 8989POPC   PO458656  44.664   4.353   5.850
 8989POPC   GL158657  44.630   4.364   6.150
 8989POPC   GL258658  44.571   4.367   6.150
 8989POPC   C1A58659  44.661   4.273   6.450
 8989POPC   D2A58660  44.617   4.357   6.750
 8989POPC   C3A58661  44.710   4.291   7.050
 8989POPC   C4A58662  44.666   4.351   7.350
 8989POPC   C1B58663  44.418   4.483   6.450
 8989POPC   C2B58664  44.451   4.407   6.750
 8989POPC   C3B58665  44.422   4.444   7.050
 8989POPC   C4B58666  44.429   4.432   7.350
 8990POPC   NC358667  27.584  10.512   5.550
 8990POPC   PO458668  27.569  10.514   5.850
 8990POPC   GL158669  27.634  10.542   6.150
 8990POPC   GL258670  27.566  10.425   6.150
 8990POPC   C1A58671  27.630  10.565   6.450
 8990POPC   D2A58672  27.608  10.537   6.750
 8990POPC   C3A58673  27.637  10.500   7.050
 8990POPC   C4A58674  27.619  10.522   7.350
 8990POPC   C1B58675  27.585  10.235   6.450
 8990POPC   C2B58676  27.630  10.272   6.750
 8990POPC   C3B58677  27.621  10.270   7.050
 8990POPC   C4B58678  27.593  10.274   7.350
 8991POPC   NC358679  29.195  15.156   5.550
 8991POPC   PO458680  29.187  15.182   5.850
 8991POPC   GL158681  29.156  15.151   6.150
 8991POPC   GL258682  29.244  15.170   6.150
 8991POPC   C1A58683  29.102  15.223   6.450
 8991POPC   D2A58684  29.118  15.178   6.750
 8991POPC   C3A58685  29.095  15.177   7.050
 8991POPC   C4A58686  29.134  15.221   7.350
 8991POPC   C1B58687  29.372  15.134   6.450
 8991POPC   C2B58688  29.398  15.161   6.750
 8991POPC   C3B58689  29.386  15.167   7.050
 8991POPC   C4B58690  29.407  15.218   7.350
 8992POPC   NC358691  38.479  19.874   5.550
 8992POPC   PO458692  38.462  19.819   5.850
 8992POPC   GL158693  38.491  19.870   6.150
 8992POPC   GL258694  38.303  19.874   6.150
 8992POPC   C1A58695  38.441  19.805   6.450
 8992POPC   D2A58696  38.470  19.792   6.750
 8992POPC   C3A58697  38.450  19.854   7.050
 8992POPC   C4A58698  38.425  19.874   7.350
 8992POPC   C1B58699  38.203  19.827   6.450
 8992POPC   C2B58700  38.231  19.807   6.750
 8992POPC   C3B58701  38.194  19.895   7.050
 8992POPC   C4B58702  38.208  19.830   7.350
 8993POPC   NC358703  21.425  12.831   5.550
 8993POPC   PO458704  21.363  12.830   5.850
 8993POPC   GL158705  21.417  12.813   6.150
 8993POPC   GL258706  21.470  12.753   6.150
 8993POPC   C1A58707  21.372  12.855   6.450
 8993POPC   D2A58708  21.372  12.824   6.750
 8993POPC   C3A58709  21.392  12.839   7.050
 8993POPC   C4A58710  21.392  12.878   7.350
 8993POPC   C1B58711  21.657  12.719   6.450
 8993POPC   C2B58712  21.586  12.744   6.750
 8993POPC   C3B58713  21.652  12.740   7.050
 8993POPC   C4B58714  21.635  12.756   7.350
 8994POPC   NC358715  40.818  19.807   5.550
 8994POPC   PO458716  40.829  19.826   5.850
 8994POPC   GL158717  40.735  19.840   6.150
 8994POPC   GL258718  40.769  19.971   6.150
 8994POPC   C1A58719  40.753  19.792   6.450
 8994POPC   D2A58720  40.806  19.823   6.750
 8994POPC   C3A58721  40.777  19.794   7.050
 8994POPC   C4A58722  40.785  19.829   7.350
 8994POPC   C1B58723  40.672  20.124   6.450
 8994POPC   C2B58724  40.697  20.027   6.750
 8994POPC   C3B58725  40.738  20.047   7.050
 8994POPC   C4B58726  40.696  20.123   7.350
 8995POPC   NC358727  16.762   3.571   5.550
 8995POPC   PO458728  16.692   3.591   5.850
 8995POPC   GL158729  16.705   3.496   6.150
 8995POPC   GL258730  16.897   3.597   6.150
 8995POPC   C1A58731  16.759   3.542   6.450
 8995POPC   D2A58732  16.730   3.583   6.750
 8995POPC   C3A58733  16.751   3.509   7.050
 8995POPC   C4A58734  16.731   3.501   7.350
 8995POPC   C1B58735  16.975   3.625   6.450
 8995POPC   C2B58736  16.933   3.595   6.750
 8995POPC   C3B58737  16.977   3.558   7.050
 8995POPC   C4B58738  17.014   3.555   7.350
 8996POPC   NC358739  28.319   0.442   5.550
 8996POPC   PO458740  28.368   0.486   5.850
 8996POPC   GL158741  28.404   0.486   6.150
 8996POPC   GL258742  28.364   0.328   6.150
 8996POPC   C1A58743  28.328   0.432   6.450
 8996POPC   D2A58744  28.357   0.453   6.750
 8996POPC   C3A58745  28.342   0.394   7.050
 8996POPC   C4A58746  28.400   0.449   7.350
 8996POPC   C1B58747  28.350   0.191   6.450
 8996POPC   C2B58748  28.361   0.157   6.750
 8996POPC   C3B58749  28.355   0.203   7.050
 8996POPC   C4B58750  28.359   0.232   7.350
 8997POPC   NC358751  19.099  11.340   5.550
 8997POPC   PO458752  19.055  11.281   5.850
 8997POPC   GL158753  19.042  11.295   6.150
 8997POPC   GL258754  18.984  11.241   6.150
 8997POPC   C1A58755  19.106  11.317   6.450
 8997POPC   D2A58756  19.062  11.349   6.750
 8997POPC   C3A58757  19.051  11.280   7.050
 8997POPC   C4A58758  19.104  11.254   7.350
 8997POPC   C1B58759  18.843  11.176   6.450
 8997POPC   C2B58760  18.878  11.140   6.750
 8997POPC   C3B58761  18.864  11.222   7.050
 8997POPC   C4B58762  18.799  11.164   7.350
 8998POPC   NC358763  13.661  41.578   5.550
 8998POPC   PO458764  13.639  41.537   5.850
 8998POPC   GL158765  13.644  41.560   6.150
 8998POPC   GL258766  13.696  41.465   6.150
 8998POPC   C1A58767  13.615  41.512   6.450
 8998POPC   D2A58768  13.649  41.552   6.750
 8998POPC   C3A58769  13.659  41.580   7.050
 8998POPC   C4A58770  13.623  41.595   7.350
 8998POPC   C1B58771  13.766  41.329   6.450
 8998POPC   C2B58772  13.768  41.345   6.750
 8998POPC   C3B58773  13.793  41.384   7.050
 8998POPC   C4B58774  13.792  41.315   7.350
 8999POPC   NC358775  19.096  14.437   5.550
 8999POPC   PO458776  19.052  14.453   5.850
 8999POPC   GL158777  19.029  14.411   6.150
 8999POPC   GL258778  19.176  14.497   6.150
 8999POPC   C1A58779  19.036  14.439   6.450
 8999POPC   D2A58780  19.009  14.367   6.750
 8999POPC   C3A58781  19.082  14.431   7.050
 8999POPC   C4A58782  19.092  14.400   7.350
 8999POPC   C1B58783  19.184  14.638   6.450
 8999POPC   C2B58784  19.234  14.625   6.750
 8999POPC   C3B58785  19.254  14.619   7.050
 8999POPC   C4B58786  19.254  14.580   7.350
 9000POPC   NC358787  15.984  27.618   5.550
 9000POPC   PO458788  15.947  27.639   5.850
 9000POPC   GL158789  15.920  27.631   6.150
 9000POPC   GL258790  16.062  27.623   6.150
 9000POPC   C1A58791  15.908  27.567   6.450
 9000POPC   D2A58792  15.966  27.589   6.750
 9000POPC   C3A58793  15.968  27.601   7.050
 9000POPC   C4A58794  15.939  27.600   7.350
 9000POPC   C1B58795  16.144  27.699   6.450
 9000POPC   C2B58796  16.180  27.637   6.750
 9000POPC   C3B58797  16.171  27.707   7.050
 9000POPC   C4B58798  16.161  27.711   7.350
 9001POPC   NC358799  24.486  30.710   5.550
 9001POPC   PO458800  24.518  30.732   5.850
 9001POPC   GL158801  24.499  30.716   6.150
 9001POPC   GL258802  24.572  30.713   6.150
 9001POPC   C1A58803  24.497  30.711   6.450
 9001POPC   D2A58804  24.467  30.735   6.750
 9001POPC   C3A58805  24.503  30.726   7.050
 9001POPC   C4A58806  24.449  30.707   7.350
 9001POPC   C1B58807  24.668  30.757   6.450
 9001POPC   C2B58808  24.719  30.775   6.750
 9001POPC   C3B58809  24.729  30.789   7.050
 9001POPC   C4B58810  24.740  30.813   7.350
 9002POPC   NC358811  22.163  18.288   5.550
 9002POPC   PO458812  22.123  18.293   5.850
 9002POPC   GL158813  22.176  18.310   6.150
 9002POPC   GL258814  22.197  18.177   6.150
 9002POPC   C1A58815  22.135  18.246   6.450
 9002POPC   D2A58816  22.117  18.309   6.750
 9002POPC   C3A58817  22.204  18.241   7.050
 9002POPC   C4A58818  22.189  18.315   7.350
 9002POPC   C1B58819  22.302  18.089   6.450
 9002POPC   C2B58820  22.288  18.097   6.750
 9002POPC   C3B58821  22.249  18.100   7.050
 9002POPC   C4B58822  22.327  18.109   7.350
 9003POPC   NC358823  36.141  23.763   5.550
 9003POPC   PO458824  36.098  23.701   5.850
 9003POPC   GL158825  36.172  23.740   6.150
 9003POPC   GL258826  36.141  23.618   6.150
 9003POPC   C1A58827  36.155  23.709   6.450
 9003POPC   D2A58828  36.079  23.679   6.750
 9003POPC   C3A58829  36.096  23.673   7.050
 9003POPC   C4A58830  36.089  23.741   7.350
 9003POPC   C1B58831  36.186  23.419   6.450
 9003POPC   C2B58832  36.190  23.448   6.750
 9003POPC   C3B58833  36.187  23.479   7.050
 9003POPC   C4B58834  36.144  23.485   7.350
 9004POPC   NC358835  27.630   8.205   5.550
 9004POPC   PO458836  27.565   8.153   5.850
 9004POPC   GL158837  27.550   8.192   6.150
 9004POPC   GL258838  27.726   8.087   6.150
 9004POPC   C1A58839  27.565   8.223   6.450
 9004POPC   D2A58840  27.602   8.202   6.750
 9004POPC   C3A58841  27.622   8.211   7.050
 9004POPC   C4A58842  27.585   8.155   7.350
 9004POPC   C1B58843  27.723   7.978   6.450
 9004POPC   C2B58844  27.727   8.041   6.750
 9004POPC   C3B58845  27.786   7.991   7.050
 9004POPC   C4B58846  27.759   8.003   7.350
 9005POPC   NC358847  43.125  23.695   5.550
 9005POPC   PO458848  43.156  23.700   5.850
 9005POPC   GL158849  43.109  23.681   6.150
 9005POPC   GL258850  43.274  23.713   6.150
 9005POPC   C1A58851  43.137  23.715   6.450
 9005POPC   D2A58852  43.132  23.700   6.750
 9005POPC   C3A58853  43.100  23.698   7.050
 9005POPC   C4A58854  43.134  23.707   7.350
 9005POPC   C1B58855  43.320  23.786   6.450
 9005POPC   C2B58856  43.337  23.753   6.750
 9005POPC   C3B58857  43.318  23.725   7.050
 9005POPC   C4B58858  43.402  23.791   7.350
 9006POPC   NC358859   8.996  25.270   5.550
 9006POPC   PO458860   9.021  25.285   5.850
 9006POPC   GL158861   8.970  25.263   6.150
 9006POPC   GL258862   9.035  25.166   6.150
 9006POPC   C1A58863   9.004  25.310   6.450
 9006POPC   D2A58864   8.945  25.254   6.750
 9006POPC   C3A58865   8.988  25.297   7.050
 9006POPC   C4A58866   8.983  25.315   7.350
 9006POPC   C1B58867   9.205  25.150   6.450
 9006POPC   C2B58868   9.185  25.086   6.750
 9006POPC   C3B58869   9.176  25.145   7.050
 9006POPC   C4B58870   9.211  25.153   7.350
 9007POPC   NC358871  11.275  41.601   5.550
 9007POPC   PO458872  11.320  41.560   5.850
 9007POPC   GL158873  11.311  41.525   6.150
 9007POPC   GL258874  11.377  41.659   6.150
 9007POPC   C1A58875  11.340  41.532   6.450
 9007POPC   D2A58876  11.272  41.569   6.750
 9007POPC   C3A58877  11.314  41.517   7.050
 9007POPC   C4A58878  11.273  41.545   7.350
 9007POPC   C1B58879  11.487  41.728   6.450
 9007POPC   C2B58880  11.472  41.689   6.750
 9007POPC   C3B58881  11.545  41.688   7.050
 9007POPC   C4B58882  11.542  41.746   7.350
 9008POPC   NC358883  43.097   1.229   5.550
 9008POPC   PO458884  43.087   1.180   5.850
 9008POPC   GL158885  43.151   1.205   6.150
 9008POPC   GL258886  43.194   1.248   6.150
 9008POPC   C1A58887  43.127   1.211   6.450
 9008POPC   D2A58888  43.137   1.202   6.750
 9008POPC   C3A58889  43.103   1.237   7.050
 9008POPC   C4A58890  43.143   1.208   7.350
 9008POPC   C1B58891  43.380   1.231   6.450
 9008POPC   C2B58892  43.319   1.221   6.750
 9008POPC   C3B58893  43.374   1.198   7.050
 9008POPC   C4B58894  43.388   1.233   7.350
 9009POPC   NC358895   1.969  41.532   5.550
 9009POPC   PO458896   2.004  41.529   5.850
 9009POPC   GL158897   1.980  41.554   6.150
 9009POPC   GL258898   2.110  41.520   6.150
 9009POPC   C1A58899   2.021  41.589   6.450
 9009POPC   D2A58900   2.009  41.568   6.750
 9009POPC   C3A58901   1.945  41.535   7.050
 9009POPC   C4A58902   1.993  41.578   7.350
 9009POPC   C1B58903   2.198  41.556   6.450
 9009POPC   C2B58904   2.257  41.539   6.750
 9009POPC   C3B58905   2.237  41.555   7.050
 9009POPC   C4B58906   2.286  41.503   7.350
 9010POPC   NC358907  20.594   5.136   5.550
 9010POPC   PO458908  20.609   5.076   5.850
 9010POPC   GL158909  20.644   5.073   6.150
 9010POPC   GL258910  20.679   5.178   6.150
 9010POPC   C1A58911  20.654   5.057   6.450
 9010POPC   D2A58912  20.592   5.091   6.750
 9010POPC   C3A58913  20.596   5.128   7.050
 9010POPC   C4A58914  20.598   5.051   7.350
 9010POPC   C1B58915  20.734   5.311   6.450
 9010POPC   C2B58916  20.705   5.262   6.750
 9010POPC   C3B58917  20.719   5.323   7.050
 9010POPC   C4B58918  20.724   5.255   7.350
 9011POPC   NC358919  37.639  28.321   5.550
 9011POPC   PO458920  37.683  28.397   5.850
 9011POPC   GL158921  37.715  28.368   6.150
 9011POPC   GL258922  37.641  28.276   6.150
 9011POPC   C1A58923  37.713  28.344   6.450
 9011POPC   D2A58924  37.630  28.372   6.750
 9011POPC   C3A58925  37.634  28.409   7.050
 9011POPC   C4A58926  37.655  28.398   7.350
 9011POPC   C1B58927  37.643  28.094   6.450
 9011POPC   C2B58928  37.610  28.075   6.750
 9011POPC   C3B58929  37.630  28.097   7.050
 9011POPC   C4B58930  37.642  28.128   7.350
 9012POPC   NC358931  20.655   5.881   5.550
 9012POPC   PO458932  20.584   5.838   5.850
 9012POPC   GL158933  20.619   5.857   6.150
 9012POPC   GL258934  20.755   5.839   6.150
 9012POPC   C1A58935  20.652   5.898   6.450
 9012POPC   D2A58936  20.602   5.821   6.750
 9012POPC   C3A58937  20.646   5.845   7.050
 9012POPC   C4A58938  20.600   5.851   7.350
 9012POPC   C1B58939  20.833   5.756   6.450
 9012POPC   C2B58940  20.828   5.781   6.750
 9012POPC   C3B58941  20.795   5.748   7.050
 9012POPC   C4B58942  20.813   5.763   7.350
 9013POPC   NC358943   2.767  40.772   5.550
 9013POPC   PO458944   2.780  40.784   5.850
 9013POPC   GL158945   2.784  40.812   6.150
 9013POPC   GL258946   2.761  40.668   6.150
 9013POPC   C1A58947   2.799  40.775   6.450
 9013POPC   D2A58948   2.728  40.790   6.750
 9013POPC   C3A58949   2.785  40.746   7.050
 9013POPC   C4A58950   2.760  40.807   7.350
 9013POPC   C1B58951   2.807  40.582   6.450
 9013POPC   C2B58952   2.836  40.586   6.750
 9013POPC   C3B58953   2.802  40.569   7.050
 9013POPC   C4B58954   2.833  40.582   7.350
 9014POPC   NC358955  25.290  23.712   5.550
 9014POPC   PO458956  25.296  23.762   5.850
 9014POPC   GL158957  25.267  23.688   6.150
 9014POPC   GL258958  25.360  23.665   6.150
 9014POPC   C1A58959  25.248  23.719   6.450
 9014POPC   D2A58960  25.311  23.716   6.750
 9014POPC   C3A58961  25.226  23.684   7.050
 9014POPC   C4A58962  25.268  23.751   7.350
 9014POPC   C1B58963  25.446  23.606   6.450
 9014POPC   C2B58964  25.442  23.604   6.750
 9014POPC   C3B58965  25.509  23.545   7.050
 9014POPC   C4B58966  25.432  23.629   7.350
 9015POPC   NC358967  38.456  31.465   5.550
 9015POPC   PO458968  38.438  31.511   5.850
 9015POPC   GL158969  38.504  31.492   6.150
 9015POPC   GL258970  38.522  31.434   6.150
 9015POPC   C1A58971  38.503  31.504   6.450
 9015POPC   D2A58972  38.464  31.497   6.750
 9015POPC   C3A58973  38.430  31.501   7.050
 9015POPC   C4A58974  38.485  31.495   7.350
 9015POPC   C1B58975  38.622  31.355   6.450
 9015POPC   C2B58976  38.650  31.312   6.750
 9015POPC   C3B58977  38.633  31.276   7.050
 9015POPC   C4B58978  38.659  31.355   7.350
 9016POPC   NC358979  19.056  38.489   5.550
 9016POPC   PO458980  19.019  38.501   5.850
 9016POPC   GL158981  19.036  38.418   6.150
 9016POPC   GL258982  18.976  38.438   6.150
 9016POPC   C1A58983  19.020  38.471   6.450
 9016POPC   D2A58984  19.047  38.475   6.750
 9016POPC   C3A58985  19.099  38.410   7.050
 9016POPC   C4A58986  19.067  38.500   7.350
 9016POPC   C1B58987  18.786  38.318   6.450
 9016POPC   C2B58988  18.796  38.299   6.750
 9016POPC   C3B58989  18.878  38.301   7.050
 9016POPC   C4B58990  18.841  38.323   7.350
 9017POPC   NC358991  42.356  27.630   5.550
 9017POPC   PO458992  42.302  27.553   5.850
 9017POPC   GL158993  42.330  27.561   6.150
 9017POPC   GL258994  42.405  27.482   6.150
 9017POPC   C1A58995  42.338  27.576   6.450
 9017POPC   D2A58996  42.344  27.618   6.750
 9017POPC   C3A58997  42.303  27.618   7.050
 9017POPC   C4A58998  42.337  27.603   7.350
 9017POPC   C1B58999  42.415  27.325   6.450
 9017POPC   C2B59000  42.438  27.327   6.750
 9017POPC   C3B59001  42.450  27.374   7.050
 9017POPC   C4B59002  42.426  27.367   7.350
 9018POPC   NC359003  38.445  13.676   5.550
 9018POPC   PO459004  38.481  13.625   5.850
 9018POPC   GL159005  38.415  13.609   6.150
 9018POPC   GL259006  38.541  13.685   6.150
 9018POPC   C1A59007  38.466  13.630   6.450
 9018POPC   D2A59008  38.415  13.676   6.750
 9018POPC   C3A59009  38.452  13.620   7.050
 9018POPC   C4A59010  38.474  13.676   7.350
 9018POPC   C1B59011  38.672  13.772   6.450
 9018POPC   C2B59012  38.621  13.810   6.750
 9018POPC   C3B59013  38.591  13.771   7.050
 9018POPC   C4B59014  38.582  13.801   7.350
 9019POPC   NC359015   4.324  29.954   5.550
 9019POPC   PO459016   4.301  29.894   5.850
 9019POPC   GL159017   4.298  29.884   6.150
 9019POPC   GL259018   4.251  29.820   6.150
 9019POPC   C1A59019   4.326  29.903   6.450
 9019POPC   D2A59020   4.330  29.928   6.750
 9019POPC   C3A59021   4.297  29.912   7.050
 9019POPC   C4A59022   4.365  29.882   7.350
 9019POPC   C1B59023   4.206  29.673   6.450
 9019POPC   C2B59024   4.172  29.765   6.750
 9019POPC   C3B59025   4.154  29.764   7.050
 9019POPC   C4B59026   4.180  29.743   7.350
 9020POPC   NC359027  32.226  43.895   5.550
 9020POPC   PO459028  32.232  43.853   5.850
 9020POPC   GL159029  32.256  43.889   6.150
 9020POPC   GL259030  32.201  43.804   6.150
 9020POPC   C1A59031  32.208  43.866   6.450
 9020POPC   D2A59032  32.247  43.915   6.750
 9020POPC   C3A59033  32.211  43.904   7.050
 9020POPC   C4A59034  32.216  43.925   7.350
 9020POPC   C1B59035  32.247  43.672   6.450
 9020POPC   C2B59036  32.276  43.655   6.750
 9020POPC   C3B59037  32.269  43.669   7.050
 9020POPC   C4B59038  32.260  43.594   7.350
 9021POPC   NC359039   8.982  35.314   5.550
 9021POPC   PO459040   8.980  35.392   5.850
 9021POPC   GL159041   8.937  35.334   6.150
 9021POPC   GL259042   9.021  35.458   6.150
 9021POPC   C1A59043   8.957  35.308   6.450
 9021POPC   D2A59044   8.952  35.361   6.750
 9021POPC   C3A59045   9.013  35.387   7.050
 9021POPC   C4A59046   8.974  35.392   7.350
 9021POPC   C1B59047   9.057  35.555   6.450
 9021POPC   C2B59048   9.073  35.569   6.750
 9021POPC   C3B59049   9.034  35.596   7.050
 9021POPC   C4B59050   9.112  35.552   7.350
 9022POPC   NC359051  36.941  40.807   5.550
 9022POPC   PO459052  36.923  40.769   5.850
 9022POPC   GL159053  36.920  40.750   6.150
 9022POPC   GL259054  37.002  40.838   6.150
 9022POPC   C1A59055  36.913  40.758   6.450
 9022POPC   D2A59056  36.936  40.826   6.750
 9022POPC   C3A59057  36.884  40.735   7.050
 9022POPC   C4A59058  36.889  40.807   7.350
 9022POPC   C1B59059  37.069  40.921   6.450
 9022POPC   C2B59060  37.152  40.911   6.750
 9022POPC   C3B59061  37.106  40.951   7.050
 9022POPC   C4B59062  37.135  40.892   7.350
 9023POPC   NC359063  41.584  23.691   5.550
 9023POPC   PO459064  41.595  23.676   5.850
 9023POPC   GL159065  41.601  23.731   6.150
 9023POPC   GL259066  41.727  23.753   6.150
 9023POPC   C1A59067  41.532  23.709   6.450
 9023POPC   D2A59068  41.592  23.670   6.750
 9023POPC   C3A59069  41.588  23.727   7.050
 9023POPC   C4A59070  41.527  23.694   7.350
 9023POPC   C1B59071  41.772  23.664   6.450
 9023POPC   C2B59072  41.805  23.732   6.750
 9023POPC   C3B59073  41.810  23.713   7.050
 9023POPC   C4B59074  41.770  23.732   7.350
 9024POPC   NC359075   0.397  18.236   5.550
 9024POPC   PO459076   0.409  18.285   5.850
 9024POPC   GL159077   0.477  18.297   6.150
 9024POPC   GL259078   0.269  18.232   6.150
 9024POPC   C1A59079   0.472  18.332   6.450
 9024POPC   D2A59080   0.455  18.306   6.750
 9024POPC   C3A59081   0.456  18.289   7.050
 9024POPC   C4A59082   0.424  18.320   7.350
 9024POPC   C1B59083   0.203  18.273   6.450
 9024POPC   C2B59084   0.157  18.278   6.750
 9024POPC   C3B59085   0.205  18.273   7.050
 9024POPC   C4B59086   0.235  18.183   7.350
 9025POPC   NC359087  44.690  19.025   5.550
 9025POPC   PO459088  44.699  19.033   5.850
 9025POPC   GL159089  44.652  19.071   6.150
 9025POPC   GL259090  44.534  18.996   6.150
 9025POPC   C1A59091  44.627  19.012   6.450
 9025POPC   D2A59092  44.669  19.040   6.750
 9025POPC   C3A59093  44.661  19.022   7.050
 9025POPC   C4A59094  44.675  19.010   7.350
 9025POPC   C1B59095  44.428  18.907   6.450
 9025POPC   C2B59096  44.465  18.903   6.750
 9025POPC   C3B59097  44.426  18.919   7.050
 9025POPC   C4B59098  44.425  18.957   7.350
 9026POPC   NC359099  36.087  13.646   5.550
 9026POPC   PO459100  36.139  13.591   5.850
 9026POPC   GL159101  36.107  13.647   6.150
 9026POPC   GL259102  36.036  13.676   6.150
 9026POPC   C1A59103  36.150  13.629   6.450
 9026POPC   D2A59104  36.176  13.630   6.750
 9026POPC   C3A59105  36.088  13.649   7.050
 9026POPC   C4A59106  36.081  13.599   7.350
 9026POPC   C1B59107  35.870  13.632   6.450
 9026POPC   C2B59108  35.912  13.682   6.750
 9026POPC   C3B59109  35.919  13.633   7.050
 9026POPC   C4B59110  35.897  13.659   7.350
 9027POPC   NC359111  42.307  32.282   5.550
 9027POPC   PO459112  42.296  32.208   5.850
 9027POPC   GL159113  42.311  32.223   6.150
 9027POPC   GL259114  42.339  32.377   6.150
 9027POPC   C1A59115  42.296  32.209   6.450
 9027POPC   D2A59116  42.316  32.206   6.750
 9027POPC   C3A59117  42.317  32.298   7.050
 9027POPC   C4A59118  42.289  32.268   7.350
 9027POPC   C1B59119  42.325  32.454   6.450
 9027POPC   C2B59120  42.411  32.531   6.750
 9027POPC   C3B59121  42.340  32.516   7.050
 9027POPC   C4B59122  42.344  32.545   7.350
 9028POPC   NC359123   6.599  18.310   5.550
 9028POPC   PO459124   6.683  18.307   5.850
 9028POPC   GL159125   6.657  18.279   6.150
 9028POPC   GL259126   6.716  18.361   6.150
 9028POPC   C1A59127   6.692  18.309   6.450
 9028POPC   D2A59128   6.690  18.282   6.750
 9028POPC   C3A59129   6.653  18.285   7.050
 9028POPC   C4A59130   6.659  18.296   7.350
 9028POPC   C1B59131   6.711  18.504   6.450
 9028POPC   C2B59132   6.755  18.520   6.750
 9028POPC   C3B59133   6.708  18.559   7.050
 9028POPC   C4B59134   6.693  18.505   7.350
 9029POPC   NC359135  34.623  26.833   5.550
 9029POPC   PO459136  34.540  26.782   5.850
 9029POPC   GL159137  34.550  26.838   6.150
 9029POPC   GL259138  34.674  26.843   6.150
 9029POPC   C1A59139  34.570  26.835   6.450
 9029POPC   D2A59140  34.556  26.848   6.750
 9029POPC   C3A59141  34.572  26.843   7.050
 9029POPC   C4A59142  34.537  26.796   7.350
 9029POPC   C1B59143  34.817  26.902   6.450
 9029POPC   C2B59144  34.867  26.828   6.750
 9029POPC   C3B59145  34.773  26.821   7.050
 9029POPC   C4B59146  34.832  26.806   7.350
 9030POPC   NC359147  44.646  26.046   5.550
 9030POPC   PO459148  44.665  26.046   5.850
 9030POPC   GL159149  44.686  26.048   6.150
 9030POPC   GL259150  44.729  26.190   6.150
 9030POPC   C1A59151  44.664  26.040   6.450
 9030POPC   D2A59152  44.711  26.075   6.750
 9030POPC   C3A59153  44.687  25.994   7.050
 9030POPC   C4A59154  44.629  26.029   7.350
 9030POPC   C1B59155  44.690  26.283   6.450
 9030POPC   C2B59156  44.683  26.314   6.750
 9030POPC   C3B59157  44.742  26.282   7.050
 9030POPC   C4B59158  44.705  26.264   7.350
 9031POPC   NC359159  43.866   0.407   5.550
 9031POPC   PO459160  43.861   0.480   5.850
 9031POPC   GL159161  43.867   0.409   6.150
 9031POPC   GL259162  43.808   0.448   6.150
 9031POPC   C1A59163  43.850   0.438   6.450
 9031POPC   D2A59164  43.877   0.469   6.750
 9031POPC   C3A59165  43.886   0.418   7.050
 9031POPC   C4A59166  43.867   0.395   7.350
 9031POPC   C1B59167  43.656   0.455   6.450
 9031POPC   C2B59168  43.632   0.513   6.750
 9031POPC   C3B59169  43.689   0.524   7.050
 9031POPC   C4B59170  43.619   0.519   7.350
 9032POPC   NC359171  12.069  13.660   5.550
 9032POPC   PO459172  12.035  13.662   5.850
 9032POPC   GL159173  12.079  13.640   6.150
 9032POPC   GL259174  11.934  13.588   6.150
 9032POPC   C1A59175  12.043  13.579   6.450
 9032POPC   D2A59176  12.084  13.634   6.750
 9032POPC   C3A59177  12.084  13.592   7.050
 9032POPC   C4A59178  12.103  13.643   7.350
 9032POPC   C1B59179  11.790  13.647   6.450
 9032POPC   C2B59180  11.828  13.618   6.750
 9032POPC   C3B59181  11.854  13.574   7.050
 9032POPC   C4B59182  11.790  13.653   7.350
 9033POPC   NC359183   0.412  43.885   5.550
 9033POPC   PO459184   0.408  43.889   5.850
 9033POPC   GL159185   0.433  43.878   6.150
 9033POPC   GL259186   0.495  44.038   6.150
 9033POPC   C1A59187   0.442  43.864   6.450
 9033POPC   D2A59188   0.395  43.929   6.750
 9033POPC   C3A59189   0.412  43.929   7.050
 9033POPC   C4A59190   0.388  43.858   7.350
 9033POPC   C1B59191   0.489  44.085   6.450
 9033POPC   C2B59192   0.490  44.084   6.750
 9033POPC   C3B59193   0.517  44.165   7.050
 9033POPC   C4B59194   0.446  44.148   7.350
 9034POPC   NC359195  35.355   9.728   5.550
 9034POPC   PO459196  35.340   9.793   5.850
 9034POPC   GL159197  35.354   9.794   6.150
 9034POPC   GL259198  35.413   9.703   6.150
 9034POPC   C1A59199  35.391   9.722   6.450
 9034POPC   D2A59200  35.399   9.729   6.750
 9034POPC   C3A59201  35.373   9.786   7.050
 9034POPC   C4A59202  35.351   9.731   7.350
 9034POPC   C1B59203  35.529   9.563   6.450
 9034POPC   C2B59204  35.502   9.625   6.750
 9034POPC   C3B59205  35.571   9.587   7.050
 9034POPC   C4B59206  35.585   9.550   7.350
 9035POPC   NC359207  12.845  17.465   5.550
 9035POPC   PO459208  12.802  17.495   5.850
 9035POPC   GL159209  12.834  17.479   6.150
 9035POPC   GL259210  12.790  17.604   6.150
 9035POPC   C1A59211  12.825  17.464   6.450
 9035POPC   D2A59212  12.835  17.533   6.750
 9035POPC   C3A59213  12.811  17.517   7.050
 9035POPC   C4A59214  12.805  17.482   7.350
 9035POPC   C1B59215  12.656  17.666   6.450
 9035POPC   C2B59216  12.599  17.694   6.750
 9035POPC   C3B59217  12.597  17.627   7.050
 9035POPC   C4B59218  12.682  17.656   7.350
 9036POPC   NC359219  28.359   7.435   5.550
 9036POPC   PO459220  28.414   7.455   5.850
 9036POPC   GL159221  28.324   7.446   6.150
 9036POPC   GL259222  28.280   7.458   6.150
 9036POPC   C1A59223  28.324   7.405   6.450
 9036POPC   D2A59224  28.355   7.423   6.750
 9036POPC   C3A59225  28.347   7.401   7.050
 9036POPC   C4A59226  28.392   7.403   7.350
 9036POPC   C1B59227  28.170   7.577   6.450
 9036POPC   C2B59228  28.201   7.534   6.750
 9036POPC   C3B59229  28.210   7.596   7.050
 9036POPC   C4B59230  28.163   7.584   7.350
 9037POPC   NC359231   1.965  25.236   5.550
 9037POPC   PO459232   1.942  25.300   5.850
 9037POPC   GL159233   2.021  25.253   6.150
 9037POPC   GL259234   2.010  25.399   6.150
 9037POPC   C1A59235   1.942  25.240   6.450
 9037POPC   D2A59236   1.952  25.250   6.750
 9037POPC   C3A59237   2.015  25.294   7.050
 9037POPC   C4A59238   1.962  25.252   7.350
 9037POPC   C1B59239   1.942  25.478   6.450
 9037POPC   C2B59240   1.983  25.500   6.750
 9037POPC   C3B59241   1.958  25.540   7.050
 9037POPC   C4B59242   1.919  25.558   7.350
 9038POPC   NC359243  25.300  28.371   5.550
 9038POPC   PO459244  25.263  28.338   5.850
 9038POPC   GL159245  25.272  28.333   6.150
 9038POPC   GL259246  25.334  28.226   6.150
 9038POPC   C1A59247  25.220  28.394   6.450
 9038POPC   D2A59248  25.223  28.375   6.750
 9038POPC   C3A59249  25.310  28.341   7.050
 9038POPC   C4A59250  25.246  28.393   7.350
 9038POPC   C1B59251  25.397  28.101   6.450
 9038POPC   C2B59252  25.364  28.102   6.750
 9038POPC   C3B59253  25.322  28.180   7.050
 9038POPC   C4B59254  25.371  28.107   7.350
 9039POPC   NC359255  14.451  38.458   5.550
 9039POPC   PO459256  14.436  38.497   5.850
 9039POPC   GL159257  14.411  38.411   6.150
 9039POPC   GL259258  14.402  38.581   6.150
 9039POPC   C1A59259  14.433  38.475   6.450
 9039POPC   D2A59260  14.376  38.415   6.750
 9039POPC   C3A59261  14.447  38.466   7.050
 9039POPC   C4A59262  14.417  38.454   7.350
 9039POPC   C1B59263  14.386  38.679   6.450
 9039POPC   C2B59264  14.425  38.679   6.750
 9039POPC   C3B59265  14.392  38.741   7.050
 9039POPC   C4B59266  14.356  38.657   7.350
 9040POPC   NC359267   9.708  36.110   5.550
 9040POPC   PO459268   9.710  36.161   5.850
 9040POPC   GL159269   9.718  36.165   6.150
 9040POPC   GL259270   9.670  36.074   6.150
 9040POPC   C1A59271   9.715  36.094   6.450
 9040POPC   D2A59272   9.789  36.171   6.750
 9040POPC   C3A59273   9.764  36.158   7.050
 9040POPC   C4A59274   9.740  36.113   7.350
 9040POPC   C1B59275   9.529  36.057   6.450
 9040POPC   C2B59276   9.525  36.079   6.750
 9040POPC   C3B59277   9.545  36.056   7.050
 9040POPC   C4B59278   9.533  36.070   7.350
 9041POPC   NC359279   1.191  36.132   5.550
 9041POPC   PO459280   1.171  36.110   5.850
 9041POPC   GL159281   1.239  36.105   6.150
 9041POPC   GL259282   1.187  36.287   6.150
 9041POPC   C1A59283   1.185  36.099   6.450
 9041POPC   D2A59284   1.166  36.096   6.750
 9041POPC   C3A59285   1.170  36.114   7.050
 9041POPC   C4A59286   1.227  36.166   7.350
 9041POPC   C1B59287   1.300  36.327   6.450
 9041POPC   C2B59288   1.262  36.398   6.750
 9041POPC   C3B59289   1.227  36.402   7.050
 9041POPC   C4B59290   1.270  36.372   7.350
 9042POPC   NC359291  31.484   6.637   5.550
 9042POPC   PO459292  31.427   6.693   5.850
 9042POPC   GL159293  31.456   6.628   6.150
 9042POPC   GL259294  31.469   6.489   6.150
 9042POPC   C1A59295  31.443   6.651   6.450
 9042POPC   D2A59296  31.457   6.692   6.750
 9042POPC   C3A59297  31.493   6.649   7.050
 9042POPC   C4A59298  31.501   6.622   7.350
 9042POPC   C1B59299  31.469   6.364   6.450
 9042POPC   C2B59300  31.409   6.448   6.750
 9042POPC   C3B59301  31.385   6.423   7.050
 9042POPC   C4B59302  31.416   6.415   7.350
 9043POPC   NC359303  32.251  24.533   5.550
 9043POPC   PO459304  32.270  24.514   5.850
 9043POPC   GL159305  32.259  24.468   6.150
 9043POPC   GL259306  32.282  24.368   6.150
 9043POPC   C1A59307  32.280  24.460   6.450
 9043POPC   D2A59308  32.252  24.465   6.750
 9043POPC   C3A59309  32.249  24.465   7.050
 9043POPC   C4A59310  32.244  24.516   7.350
 9043POPC   C1B59311  32.336  24.250   6.450
 9043POPC   C2B59312  32.283  24.208   6.750
 9043POPC   C3B59313  32.248  24.214   7.050
 9043POPC   C4B59314  32.309  24.230   7.350
 9044POPC   NC359315  12.890  21.411   5.550
 9044POPC   PO459316  12.829  21.402   5.850
 9044POPC   GL159317  12.894  21.344   6.150
 9044POPC   GL259318  12.981  21.397   6.150
 9044POPC   C1A59319  12.821  21.427   6.450
 9044POPC   D2A59320  12.810  21.409   6.750
 9044POPC   C3A59321  12.844  21.362   7.050
 9044POPC   C4A59322  12.842  21.359   7.350
 9044POPC   C1B59323  13.114  21.509   6.450
 9044POPC   C2B59324  13.047  21.444   6.750
 9044POPC   C3B59325  13.069  21.450   7.050
 9044POPC   C4B59326  13.111  21.479   7.350
 9045POPC   NC359327  14.359  30.670   5.550
 9045POPC   PO459328  14.396  30.681   5.850
 9045POPC   GL159329  14.404  30.657   6.150
 9045POPC   GL259330  14.516  30.793   6.150
 9045POPC   C1A59331  14.385  30.648   6.450
 9045POPC   D2A59332  14.375  30.727   6.750
 9045POPC   C3A59333  14.441  30.701   7.050
 9045POPC   C4A59334  14.409  30.648   7.350
 9045POPC   C1B59335  14.589  30.859   6.450
 9045POPC   C2B59336  14.568  30.864   6.750
 9045POPC   C3B59337  14.648  30.883   7.050
 9045POPC   C4B59338  14.595  30.877   7.350
 9046POPC   NC359339  31.462  29.898   5.550
 9046POPC   PO459340  31.458  29.909   5.850
 9046POPC   GL159341  31.445  29.905   6.150
 9046POPC   GL259342  31.398  30.062   6.150
 9046POPC   C1A59343  31.428  29.885   6.450
 9046POPC   D2A59344  31.469  29.889   6.750
 9046POPC   C3A59345  31.468  29.961   7.050
 9046POPC   C4A59346  31.468  29.904   7.350
 9046POPC   C1B59347  31.315  30.157   6.450
 9046POPC   C2B59348  31.333  30.137   6.750
 9046POPC   C3B59349  31.362  30.134   7.050
 9046POPC   C4B59350  31.373  30.135   7.350
 9047POPC   NC359351  17.538  43.848   5.550
 9047POPC   PO459352  17.497  43.924   5.850
 9047POPC   GL159353  17.482  43.932   6.150
 9047POPC   GL259354  17.399  43.858   6.150
 9047POPC   C1A59355  17.547  43.851   6.450
 9047POPC   D2A59356  17.522  43.918   6.750
 9047POPC   C3A59357  17.465  43.862   7.050
 9047POPC   C4A59358  17.468  43.874   7.350
 9047POPC   C1B59359  17.278  43.851   6.450
 9047POPC   C2B59360  17.262  43.857   6.750
 9047POPC   C3B59361  17.296  43.909   7.050
 9047POPC   C4B59362  17.222  43.892   7.350
 9048POPC   NC359363  41.512   9.782   5.550
 9048POPC   PO459364  41.552   9.748   5.850
 9048POPC   GL159365  41.590   9.793   6.150
 9048POPC   GL259366  41.678   9.833   6.150
 9048POPC   C1A59367  41.545   9.793   6.450
 9048POPC   D2A59368  41.570   9.794   6.750
 9048POPC   C3A59369  41.563   9.745   7.050
 9048POPC   C4A59370  41.547   9.753   7.350
 9048POPC   C1B59371  41.742   9.911   6.450
 9048POPC   C2B59372  41.802   9.818   6.750
 9048POPC   C3B59373  41.803   9.820   7.050
 9048POPC   C4B59374  41.793   9.877   7.350
 9049POPC   NC359375  19.862  43.874   5.550
 9049POPC   PO459376  19.792  43.876   5.850
 9049POPC   GL159377  19.825  43.860   6.150
 9049POPC   GL259378  19.677  43.906   6.150
 9049POPC   C1A59379  19.867  43.841   6.450
 9049POPC   D2A59380  19.796  43.845   6.750
 9049POPC   C3A59381  19.836  43.895   7.050
 9049POPC   C4A59382  19.855  43.915   7.350
 9049POPC   C1B59383  19.615  43.889   6.450
 9049POPC   C2B59384  19.552  43.907   6.750
 9049POPC   C3B59385  19.602  43.969   7.050
 9049POPC   C4B59386  19.566  43.916   7.350
 9050POPC   NC359387  30.704   3.530   5.550
 9050POPC   PO459388  30.661   3.547   5.850
 9050POPC   GL159389  30.671   3.509   6.150
 9050POPC   GL259390  30.640   3.693   6.150
 9050POPC   C1A59391  30.744   3.558   6.450
 9050POPC   D2A59392  30.688   3.510   6.750
 9050POPC   C3A59393  30.746   3.495   7.050
 9050POPC   C4A59394  30.744   3.530   7.350
 9050POPC   C1B59395  30.624   3.797   6.450
 9050POPC   C2B59396  30.613   3.735   6.750
 9050POPC   C3B59397  30.558   3.730   7.050
 9050POPC   C4B59398  30.566   3.805   7.350
 9051POPC   NC359399   1.953  21.361   5.550
 9051POPC   PO459400   1.941  21.345   5.850
 9051POPC   GL159401   1.987  21.383   6.150
 9051POPC   GL259402   1.820  21.419   6.150
 9051POPC   C1A59403   2.027  21.352   6.450
 9051POPC   D2A59404   2.036  21.337   6.750
 9051POPC   C3A59405   2.002  21.340   7.050
 9051POPC   C4A59406   1.996  21.395   7.350
 9051POPC   C1B59407   1.718  21.375   6.450
 9051POPC   C2B59408   1.714  21.323   6.750
 9051POPC   C3B59409   1.702  21.395   7.050
 9051POPC   C4B59410   1.718  21.402   7.350
 9052POPC   NC359411  29.938  20.619   5.550
 9052POPC   PO459412  29.954  20.636   5.850
 9052POPC   GL159413  29.923  20.570   6.150
 9052POPC   GL259414  29.780  20.644   6.150
 9052POPC   C1A59415  29.924  20.564   6.450
 9052POPC   D2A59416  29.902  20.624   6.750
 9052POPC   C3A59417  29.951  20.640   7.050
 9052POPC   C4A59418  29.968  20.604   7.350
 9052POPC   C1B59419  29.669  20.586   6.450
 9052POPC   C2B59420  29.718  20.597   6.750
 9052POPC   C3B59421  29.670  20.640   7.050
 9052POPC   C4B59422  29.652  20.614   7.350
 9053POPC   NC359423  15.950  19.808   5.550
 9053POPC   PO459424  16.003  19.812   5.850
 9053POPC   GL159425  15.915  19.831   6.150
 9053POPC   GL259426  16.123  19.803   6.150
 9053POPC   C1A59427  15.936  19.803   6.450
 9053POPC   D2A59428  15.950  19.849   6.750
 9053POPC   C3A59429  15.943  19.878   7.050
 9053POPC   C4A59430  15.953  19.807   7.350
 9053POPC   C1B59431  16.149  19.738   6.450
 9053POPC   C2B59432  16.237  19.802   6.750
 9053POPC   C3B59433  16.148  19.793   7.050
 9053POPC   C4B59434  16.233  19.750   7.350
 9054POPC   NC359435   4.289  26.022   5.550
 9054POPC   PO459436   4.310  26.072   5.850
 9054POPC   GL159437   4.304  25.997   6.150
 9054POPC   GL259438   4.367  26.150   6.150
 9054POPC   C1A59439   4.353  26.007   6.450
 9054POPC   D2A59440   4.326  26.083   6.750
 9054POPC   C3A59441   4.344  26.006   7.050
 9054POPC   C4A59442   4.348  25.998   7.350
 9054POPC   C1B59443   4.443  26.200   6.450
 9054POPC   C2B59444   4.427  26.264   6.750
 9054POPC   C3B59445   4.415  26.261   7.050
 9054POPC   C4B59446   4.486  26.255   7.350
 9055POPC   NC359447   5.914   1.971   5.550
 9055POPC   PO459448   5.915   1.993   5.850
 9055POPC   GL159449   5.827   1.949   6.150
 9055POPC   GL259450   5.974   1.971   6.150
 9055POPC   C1A59451   5.862   2.006   6.450
 9055POPC   D2A59452   5.856   2.017   6.750
 9055POPC   C3A59453   5.876   1.944   7.050
 9055POPC   C4A59454   5.846   2.028   7.350
 9055POPC   C1B59455   6.069   1.980   6.450
 9055POPC   C2B59456   6.072   1.992   6.750
 9055POPC   C3B59457   6.074   1.984   7.050
 9055POPC   C4B59458   6.143   2.006   7.350
 9056POPC   NC359459  12.039  22.957   5.550
 9056POPC   PO459460  12.058  22.951   5.850
 9056POPC   GL159461  12.091  22.965   6.150
 9056POPC   GL259462  11.981  22.819   6.150
 9056POPC   C1A59463  12.095  22.894   6.450
 9056POPC   D2A59464  12.063  22.919   6.750
 9056POPC   C3A59465  12.047  22.983   7.050
 9056POPC   C4A59466  12.072  22.978   7.350
 9056POPC   C1B59467  11.866  22.703   6.450
 9056POPC   C2B59468  11.890  22.765   6.750
 9056POPC   C3B59469  11.952  22.774   7.050
 9056POPC   C4B59470  11.865  22.780   7.350
 9057POPC   NC359471   6.653  31.441   5.550
 9057POPC   PO459472   6.679  31.503   5.850
 9057POPC   GL159473   6.616  31.517   6.150
 9057POPC   GL259474   6.487  31.542   6.150
 9057POPC   C1A59475   6.683  31.471   6.450
 9057POPC   D2A59476   6.637  31.522   6.750
 9057POPC   C3A59477   6.603  31.441   7.050
 9057POPC   C4A59478   6.633  31.489   7.350
 9057POPC   C1B59479   6.401  31.561   6.450
 9057POPC   C2B59480   6.383  31.495   6.750
 9057POPC   C3B59481   6.387  31.499   7.050
 9057POPC   C4B59482   6.370  31.524   7.350
 9058POPC   NC359483  42.331   6.656   5.550
 9058POPC   PO459484  42.363   6.595   5.850
 9058POPC   GL159485  42.362   6.619   6.150
 9058POPC   GL259486  42.305   6.732   6.150
 9058POPC   C1A59487  42.367   6.685   6.450
 9058POPC   D2A59488  42.318   6.678   6.750
 9058POPC   C3A59489  42.307   6.656   7.050
 9058POPC   C4A59490  42.298   6.608   7.350
 9058POPC   C1B59491  42.136   6.827   6.450
 9058POPC   C2B59492  42.178   6.848   6.750
 9058POPC   C3B59493  42.203   6.842   7.050
 9058POPC   C4B59494  42.213   6.797   7.350
 9059POPC   NC359495   3.519  18.250   5.550
 9059POPC   PO459496   3.529  18.279   5.850
 9059POPC   GL159497   3.555  18.287   6.150
 9059POPC   GL259498   3.615  18.264   6.150
 9059POPC   C1A59499   3.588  18.309   6.450
 9059POPC   D2A59500   3.496  18.278   6.750
 9059POPC   C3A59501   3.507  18.260   7.050
 9059POPC   C4A59502   3.559  18.266   7.350
 9059POPC   C1B59503   3.752  18.159   6.450
 9059POPC   C2B59504   3.720  18.167   6.750
 9059POPC   C3B59505   3.788  18.197   7.050
 9059POPC   C4B59506   3.777  18.221   7.350
 9060POPC   NC359507   5.046   1.177   5.550
 9060POPC   PO459508   5.141   1.210   5.850
 9060POPC   GL159509   5.096   1.176   6.150
 9060POPC   GL259510   5.067   1.318   6.150
 9060POPC   C1A59511   5.048   1.198   6.450
 9060POPC   D2A59512   5.053   1.185   6.750
 9060POPC   C3A59513   5.115   1.185   7.050
 9060POPC   C4A59514   5.132   1.207   7.350
 9060POPC   C1B59515   4.989   1.463   6.450
 9060POPC   C2B59516   4.988   1.413   6.750
 9060POPC   C3B59517   4.976   1.455   7.050
 9060POPC   C4B59518   4.972   1.456   7.350
 9061POPC   NC359519  38.421  17.518   5.550
 9061POPC   PO459520  38.482  17.551   5.850
 9061POPC   GL159521  38.467  17.469   6.150
 9061POPC   GL259522  38.555  17.503   6.150
 9061POPC   C1A59523  38.417  17.522   6.450
 9061POPC   D2A59524  38.492  17.553   6.750
 9061POPC   C3A59525  38.455  17.497   7.050
 9061POPC   C4A59526  38.472  17.497   7.350
 9061POPC   C1B59527  38.752  17.530   6.450
 9061POPC   C2B59528  38.681  17.477   6.750
 9061POPC   C3B59529  38.717  17.533   7.050
 9061POPC   C4B59530  38.686  17.492   7.350
 9062POPC   NC359531   1.232  13.606   5.550
 9062POPC   PO459532   1.194  13.627   5.850
 9062POPC   GL159533   1.236  13.628   6.150
 9062POPC   GL259534   1.350  13.527   6.150
 9062POPC   C1A59535   1.190  13.640   6.450
 9062POPC   D2A59536   1.205  13.612   6.750
 9062POPC   C3A59537   1.187  13.636   7.050
 9062POPC   C4A59538   1.170  13.651   7.350
 9062POPC   C1B59539   1.381  13.441   6.450
 9062POPC   C2B59540   1.349  13.480   6.750
 9062POPC   C3B59541   1.402  13.445   7.050
 9062POPC   C4B59542   1.376  13.457   7.350
 9063POPC   NC359543  39.247  40.747   5.550
 9063POPC   PO459544  39.237  40.782   5.850
 9063POPC   GL159545  39.252  40.770   6.150
 9063POPC   GL259546  39.320  40.672   6.150
 9063POPC   C1A59547  39.201  40.820   6.450
 9063POPC   D2A59548  39.214  40.804   6.750
 9063POPC   C3A59549  39.281  40.814   7.050
 9063POPC   C4A59550  39.271  40.777   7.350
 9063POPC   C1B59551  39.447  40.623   6.450
 9063POPC   C2B59552  39.444  40.581   6.750
 9063POPC   C3B59553  39.378  40.646   7.050
 9063POPC   C4B59554  39.448  40.587   7.350
 9064POPC   NC359555  27.605   2.737   5.550
 9064POPC   PO459556  27.610   2.795   5.850
 9064POPC   GL159557  27.602   2.775   6.150
 9064POPC   GL259558  27.674   2.834   6.150
 9064POPC   C1A59559  27.550   2.771   6.450
 9064POPC   D2A59560  27.615   2.746   6.750
 9064POPC   C3A59561  27.603   2.725   7.050
 9064POPC   C4A59562  27.554   2.783   7.350
 9064POPC   C1B59563  27.799   2.784   6.450
 9064POPC   C2B59564  27.838   2.853   6.750
 9064POPC   C3B59565  27.803   2.803   7.050
 9064POPC   C4B59566  27.832   2.777   7.350
 9065POPC   NC359567   7.424   5.130   5.550
 9065POPC   PO459568   7.404   5.116   5.850
 9065POPC   GL159569   7.441   5.072   6.150
 9065POPC   GL259570   7.478   5.165   6.150
 9065POPC   C1A59571   7.410   5.102   6.450
 9065POPC   D2A59572   7.416   5.054   6.750
 9065POPC   C3A59573   7.449   5.133   7.050
 9065POPC   C4A59574   7.420   5.135   7.350
 9065POPC   C1B59575   7.561   5.303   6.450
 9065POPC   C2B59576   7.522   5.294   6.750
 9065POPC   C3B59577   7.558   5.364   7.050
 9065POPC   C4B59578   7.475   5.309   7.350
 9066POPC   NC359579  22.916  26.048   5.550
 9066POPC   PO459580  22.955  26.028   5.850
 9066POPC   GL159581  22.896  26.028   6.150
 9066POPC   GL259582  23.053  26.017   6.150
 9066POPC   C1A59583  22.970  26.052   6.450
 9066POPC   D2A59584  22.891  26.087   6.750
 9066POPC   C3A59585  22.969  25.998   7.050
 9066POPC   C4A59586  22.932  26.002   7.350
 9066POPC   C1B59587  23.222  26.127   6.450
 9066POPC   C2B59588  23.199  26.103   6.750
 9066POPC   C3B59589  23.163  26.048   7.050
 9066POPC   C4B59590  23.222  26.079   7.350
 9067POPC   NC359591   2.730  19.083   5.550
 9067POPC   PO459592   2.814  19.018   5.850
 9067POPC   GL159593   2.801  19.019   6.150
 9067POPC   GL259594   2.716  18.987   6.150
 9067POPC   C1A59595   2.756  19.049   6.450
 9067POPC   D2A59596   2.780  19.105   6.750
 9067POPC   C3A59597   2.761  19.033   7.050
 9067POPC   C4A59598   2.806  19.101   7.350
 9067POPC   C1B59599   2.619  18.901   6.450
 9067POPC   C2B59600   2.543  18.910   6.750
 9067POPC   C3B59601   2.599  18.927   7.050
 9067POPC   C4B59602   2.527  18.867   7.350
 9068POPC   NC359603  22.152   4.344   5.550
 9068POPC   PO459604  22.118   4.363   5.850
 9068POPC   GL159605  22.113   4.292   6.150
 9068POPC   GL259606  21.991   4.297   6.150
 9068POPC   C1A59607  22.179   4.346   6.450
 9068POPC   D2A59608  22.198   4.331   6.750
 9068POPC   C3A59609  22.170   4.316   7.050
 9068POPC   C4A59610  22.161   4.359   7.350
 9068POPC   C1B59611  21.920   4.321   6.450
 9068POPC   C2B59612  21.891   4.325   6.750
 9068POPC   C3B59613  21.892   4.280   7.050
 9068POPC   C4B59614  21.920   4.277   7.350
 9069POPC   NC359615   0.413  25.994   5.550
 9069POPC   PO459616   0.469  26.060   5.850
 9069POPC   GL159617   0.390  26.015   6.150
 9069POPC   GL259618   0.344  26.128   6.150
 9069POPC   C1A59619   0.429  26.030   6.450
 9069POPC   D2A59620   0.460  26.090   6.750
 9069POPC   C3A59621   0.408  26.041   7.050
 9069POPC   C4A59622   0.451  26.077   7.350
 9069POPC   C1B59623   0.239  26.142   6.450
 9069POPC   C2B59624   0.186  26.141   6.750
 9069POPC   C3B59625   0.248  26.151   7.050
 9069POPC   C4B59626   0.271  26.205   7.350
 9070POPC   NC359627   2.745  28.330   5.550
 9070POPC   PO459628   2.770  28.415   5.850
 9070POPC   GL159629   2.745  28.366   6.150
 9070POPC   GL259630   2.743  28.237   6.150
 9070POPC   C1A59631   2.766  28.384   6.450
 9070POPC   D2A59632   2.811  28.413   6.750
 9070POPC   C3A59633   2.768  28.417   7.050
 9070POPC   C4A59634   2.799  28.324   7.350
 9070POPC   C1B59635   2.790  28.134   6.450
 9070POPC   C2B59636   2.731  28.089   6.750
 9070POPC   C3B59637   2.780  28.094   7.050
 9070POPC   C4B59638   2.766  28.167   7.350
 9071POPC   NC359639  20.617  36.856   5.550
 9071POPC   PO459640  20.573  36.930   5.850
 9071POPC   GL159641  20.656  36.889   6.150
 9071POPC   GL259642  20.448  36.891   6.150
 9071POPC   C1A59643  20.603  36.920   6.450
 9071POPC   D2A59644  20.650  36.934   6.750
 9071POPC   C3A59645  20.616  36.863   7.050
 9071POPC   C4A59646  20.583  36.929   7.350
 9071POPC   C1B59647  20.363  36.953   6.450
 9071POPC   C2B59648  20.356  36.910   6.750
 9071POPC   C3B59649  20.374  36.928   7.050
 9071POPC   C4B59650  20.407  36.946   7.350
 9072POPC   NC359651  32.985  40.038   5.550
 9072POPC   PO459652  32.989  40.049   5.850
 9072POPC   GL159653  33.063  39.958   6.150
 9072POPC   GL259654  33.107  40.038   6.150
 9072POPC   C1A59655  33.012  39.964   6.450
 9072POPC   D2A59656  33.060  40.003   6.750
 9072POPC   C3A59657  32.998  40.035   7.050
 9072POPC   C4A59658  33.048  40.051   7.350
 9072POPC   C1B59659  33.284  40.106   6.450
 9072POPC   C2B59660  33.295  40.113   6.750
 9072POPC   C3B59661  33.253  40.123   7.050
 9072POPC   C4B59662  33.308  40.035   7.350
 9073POPC   NC359663  14.404  41.535   5.550
 9073POPC   PO459664  14.398  41.540   5.850
 9073POPC   GL159665  14.398  41.600   6.150
 9073POPC   GL259666  14.374  41.420   6.150
 9073POPC   C1A59667  14.362  41.561   6.450
 9073POPC   D2A59668  14.374  41.604   6.750
 9073POPC   C3A59669  14.362  41.593   7.050
 9073POPC   C4A59670  14.389  41.509   7.350
 9073POPC   C1B59671  14.400  41.276   6.450
 9073POPC   C2B59672  14.414  41.282   6.750
 9073POPC   C3B59673  14.358  41.307   7.050
 9073POPC   C4B59674  14.364  41.273   7.350
 9074POPC   NC359675  22.180   9.770   5.550
 9074POPC   PO459676  22.198   9.720   5.850
 9074POPC   GL159677  22.144   9.729   6.150
 9074POPC   GL259678  22.045   9.801   6.150
 9074POPC   C1A59679  22.209   9.795   6.450
 9074POPC   D2A59680  22.201   9.706   6.750
 9074POPC   C3A59681  22.174   9.781   7.050
 9074POPC   C4A59682  22.168   9.751   7.350
 9074POPC   C1B59683  21.925   9.794   6.450
 9074POPC   C2B59684  21.897   9.841   6.750
 9074POPC   C3B59685  21.953   9.879   7.050
 9074POPC   C4B59686  21.969   9.838   7.350
 9075POPC   NC359687   3.574  29.912   5.550
 9075POPC   PO459688   3.583  29.962   5.850
 9075POPC   GL159689   3.517  29.951   6.150
 9075POPC   GL259690   3.462  30.009   6.150
 9075POPC   C1A59691   3.560  29.913   6.450
 9075POPC   D2A59692   3.501  29.903   6.750
 9075POPC   C3A59693   3.552  29.930   7.050
 9075POPC   C4A59694   3.545  29.946   7.350
 9075POPC   C1B59695   3.462  30.155   6.450
 9075POPC   C2B59696   3.428  30.130   6.750
 9075POPC   C3B59697   3.428  30.148   7.050
 9075POPC   C4B59698   3.429  30.187   7.350
 9076POPC   NC359699  36.151  14.373   5.550
 9076POPC   PO459700  36.126  14.409   5.850
 9076POPC   GL159701  36.107  14.357   6.150
 9076POPC   GL259702  36.049  14.491   6.150
 9076POPC   C1A59703  36.127  14.432   6.450
 9076POPC   D2A59704  36.079  14.425   6.750
 9076POPC   C3A59705  36.129  14.442   7.050
 9076POPC   C4A59706  36.149  14.365   7.350
 9076POPC   C1B59707  35.934  14.546   6.450
 9076POPC   C2B59708  35.923  14.588   6.750
 9076POPC   C3B59709  35.907  14.572   7.050
 9076POPC   C4B59710  35.908  14.551   7.350
 9077POPC   NC359711   0.458  28.408   5.550
 9077POPC   PO459712   0.397  28.412   5.850
 9077POPC   GL159713   0.403  28.334   6.150
 9077POPC   GL259714   0.453  28.464   6.150
 9077POPC   C1A59715   0.422  28.400   6.450
 9077POPC   D2A59716   0.411  28.402   6.750
 9077POPC   C3A59717   0.445  28.348   7.050
 9077POPC   C4A59718   0.390  28.324   7.350
 9077POPC   C1B59719   0.535  28.597   6.450
 9077POPC   C2B59720   0.531  28.633   6.750
 9077POPC   C3B59721   0.488  28.581   7.050
 9077POPC   C4B59722   0.556  28.584   7.350
 9078POPC   NC359723  19.809   0.411   5.550
 9078POPC   PO459724  19.868   0.438   5.850
 9078POPC   GL159725  19.883   0.435   6.150
 9078POPC   GL259726  19.950   0.396   6.150
 9078POPC   C1A59727  19.841   0.442   6.450
 9078POPC   D2A59728  19.844   0.424   6.750
 9078POPC   C3A59729  19.825   0.445   7.050
 9078POPC   C4A59730  19.809   0.443   7.350
 9078POPC   C1B59731  19.963   0.240   6.450
 9078POPC   C2B59732  20.028   0.228   6.750
 9078POPC   C3B59733  20.042   0.297   7.050
 9078POPC   C4B59734  19.961   0.249   7.350
 9079POPC   NC359735  17.518  27.630   5.550
 9079POPC   PO459736  17.487  27.626   5.850
 9079POPC   GL159737  17.484  27.621   6.150
 9079POPC   GL259738  17.387  27.675   6.150
 9079POPC   C1A59739  17.542  27.583   6.450
 9079POPC   D2A59740  17.488  27.633   6.750
 9079POPC   C3A59741  17.541  27.591   7.050
 9079POPC   C4A59742  17.520  27.627   7.350
 9079POPC   C1B59743  17.288  27.679   6.450
 9079POPC   C2B59744  17.267  27.701   6.750
 9079POPC   C3B59745  17.305  27.695   7.050
 9079POPC   C4B59746  17.246  27.678   7.350
 9080POPC   NC359747   9.743  34.595   5.550
 9080POPC   PO459748   9.749  34.571   5.850
 9080POPC   GL159749   9.753  34.575   6.150
 9080POPC   GL259750   9.891  34.536   6.150
 9080POPC   C1A59751   9.705  34.559   6.450
 9080POPC   D2A59752   9.751  34.623   6.750
 9080POPC   C3A59753   9.760  34.530   7.050
 9080POPC   C4A59754   9.757  34.600   7.350
 9080POPC   C1B59755   9.987  34.461   6.450
 9080POPC   C2B59756   9.954  34.426   6.750
 9080POPC   C3B59757  10.013  34.488   7.050
 9080POPC   C4B59758  10.006  34.443   7.350
 9081POPC   NC359759  11.299  33.025   5.550
 9081POPC   PO459760  11.270  33.068   5.850
 9081POPC   GL159761  11.320  33.070   6.150
 9081POPC   GL259762  11.456  33.024   6.150
 9081POPC   C1A59763  11.262  33.067   6.450
 9081POPC   D2A59764  11.332  33.038   6.750
 9081POPC   C3A59765  11.252  33.035   7.050
 9081POPC   C4A59766  11.338  33.018   7.350
 9081POPC   C1B59767  11.554  32.990   6.450
 9081POPC   C2B59768  11.508  33.042   6.750
 9081POPC   C3B59769  11.527  33.027   7.050
 9081POPC   C4B59770  11.502  33.057   7.350
 9082POPC   NC359771  39.974  34.588   5.550
 9082POPC   PO459772  40.018  34.577   5.850
 9082POPC   GL159773  40.010  34.533   6.150
 9082POPC   GL259774  39.875  34.624   6.150
 9082POPC   C1A59775  40.026  34.624   6.450
 9082POPC   D2A59776  39.997  34.587   6.750
 9082POPC   C3A59777  40.014  34.605   7.050
 9082POPC   C4A59778  40.002  34.589   7.350
 9082POPC   C1B59779  39.727  34.572   6.450
 9082POPC   C2B59780  39.747  34.557   6.750
 9082POPC   C3B59781  39.800  34.622   7.050
 9082POPC   C4B59782  39.763  34.536   7.350
 9083POPC   NC359783  22.129  21.399   5.550
 9083POPC   PO459784  22.170  21.369   5.850
 9083POPC   GL159785  22.158  21.409   6.150
 9083POPC   GL259786  21.998  21.380   6.150
 9083POPC   C1A59787  22.119  21.375   6.450
 9083POPC   D2A59788  22.155  21.361   6.750
 9083POPC   C3A59789  22.139  21.341   7.050
 9083POPC   C4A59790  22.119  21.345   7.350
 9083POPC   C1B59791  21.920  21.479   6.450
 9083POPC   C2B59792  21.879  21.433   6.750
 9083POPC   C3B59793  21.888  21.422   7.050
 9083POPC   C4B59794  21.942  21.439   7.350
 9084POPC   NC359795  26.001  35.374   5.550
 9084POPC   PO459796  26.017  35.370   5.850
 9084POPC   GL159797  26.066  35.334   6.150
 9084POPC   GL259798  25.981  35.425   6.150
 9084POPC   C1A59799  26.041  35.316   6.450
 9084POPC   D2A59800  26.063  35.394   6.750
 9084POPC   C3A59801  26.089  35.335   7.050
 9084POPC   C4A59802  26.023  35.347   7.350
 9084POPC   C1B59803  25.880  35.595   6.450
 9084POPC   C2B59804  25.885  35.529   6.750
 9084POPC   C3B59805  25.938  35.523   7.050
 9084POPC   C4B59806  25.876  35.518   7.350
 9085POPC   NC359807  32.253  10.547   5.550
 9085POPC   PO459808  32.232  10.543   5.850
 9085POPC   GL159809  32.272  10.509   6.150
 9085POPC   GL259810  32.174  10.654   6.150
 9085POPC   C1A59811  32.246  10.518   6.450
 9085POPC   D2A59812  32.231  10.486   6.750
 9085POPC   C3A59813  32.260  10.488   7.050
 9085POPC   C4A59814  32.273  10.549   7.350
 9085POPC   C1B59815  32.025  10.749   6.450
 9085POPC   C2B59816  32.112  10.702   6.750
 9085POPC   C3B59817  32.033  10.702   7.050
 9085POPC   C4B59818  32.096  10.740   7.350
 9086POPC   NC359819   9.718  22.915   5.550
 9086POPC   PO459820   9.767  22.894   5.850
 9086POPC   GL159821   9.767  22.928   6.150
 9086POPC   GL259822   9.890  22.866   6.150
 9086POPC   C1A59823   9.794  22.977   6.450
 9086POPC   D2A59824   9.748  22.902   6.750
 9086POPC   C3A59825   9.753  22.952   7.050
 9086POPC   C4A59826   9.705  22.949   7.350
 9086POPC   C1B59827   9.986  22.796   6.450
 9086POPC   C2B59828  10.019  22.886   6.750
 9086POPC   C3B59829   9.993  22.819   7.050
 9086POPC   C4B59830  10.009  22.881   7.350
 9087POPC   NC359831  37.707  43.101   5.550
 9087POPC   PO459832  37.727  43.094   5.850
 9087POPC   GL159833  37.713  43.149   6.150
 9087POPC   GL259834  37.637  43.228   6.150
 9087POPC   C1A59835  37.696  43.126   6.450
 9087POPC   D2A59836  37.704  43.066   6.750
 9087POPC   C3A59837  37.729  43.158   7.050
 9087POPC   C4A59838  37.654  43.149   7.350
 9087POPC   C1B59839  37.601  43.370   6.450
 9087POPC   C2B59840  37.608  43.309   6.750
 9087POPC   C3B59841  37.558  43.335   7.050
 9087POPC   C4B59842  37.606  43.379   7.350
 9088POPC   NC359843   1.999  26.796   5.550
 9088POPC   PO459844   1.976  26.811   5.850
 9088POPC   GL159845   2.039  26.810   6.150
 9088POPC   GL259846   2.128  26.914   6.150
 9088POPC   C1A59847   2.034  26.781   6.450
 9088POPC   D2A59848   1.973  26.825   6.750
 9088POPC   C3A59849   1.975  26.851   7.050
 9088POPC   C4A59850   1.980  26.819   7.350
 9088POPC   C1B59851   2.172  27.013   6.450
 9088POPC   C2B59852   2.217  26.977   6.750
 9088POPC   C3B59853   2.222  26.992   7.050
 9088POPC   C4B59854   2.223  27.014   7.350
 9089POPC   NC359855  22.936  39.261   5.550
 9089POPC   PO459856  22.960  39.236   5.850
 9089POPC   GL159857  22.939  39.272   6.150
 9089POPC   GL259858  22.823  39.264   6.150
 9089POPC   C1A59859  22.916  39.233   6.450
 9089POPC   D2A59860  22.981  39.240   6.750
 9089POPC   C3A59861  22.936  39.257   7.050
 9089POPC   C4A59862  22.919  39.191   7.350
 9089POPC   C1B59863  22.665  39.232   6.450
 9089POPC   C2B59864  22.659  39.172   6.750
 9089POPC   C3B59865  22.644  39.181   7.050
 9089POPC   C4B59866  22.736  39.206   7.350
 9090POPC   NC359867   8.995   3.591   5.550
 9090POPC   PO459868   8.942   3.566   5.850
 9090POPC   GL159869   8.995   3.527   6.150
 9090POPC   GL259870   9.032   3.622   6.150
 9090POPC   C1A59871   8.940   3.530   6.450
 9090POPC   D2A59872   8.982   3.544   6.750
 9090POPC   C3A59873   8.963   3.579   7.050
 9090POPC   C4A59874   8.998   3.498   7.350
 9090POPC   C1B59875   9.096   3.786   6.450
 9090POPC   C2B59876   9.052   3.811   6.750
 9090POPC   C3B59877   9.091   3.759   7.050
 9090POPC   C4B59878   9.058   3.743   7.350
 9091POPC   NC359879  41.603  26.837   5.550
 9091POPC   PO459880  41.514  26.797   5.850
 9091POPC   GL159881  41.565  26.778   6.150
 9091POPC   GL259882  41.634  26.923   6.150
 9091POPC   C1A59883  41.590  26.802   6.450
 9091POPC   D2A59884  41.570  26.863   6.750
 9091POPC   C3A59885  41.574  26.806   7.050
 9091POPC   C4A59886  41.515  26.826   7.350
 9091POPC   C1B59887  41.774  26.964   6.450
 9091POPC   C2B59888  41.751  26.937   6.750
 9091POPC   C3B59889  41.740  26.967   7.050
 9091POPC   C4B59890  41.702  27.029   7.350
 9092POPC   NC359891   6.596  44.711   5.550
 9092POPC   PO459892   6.623  44.649   5.850
 9092POPC   GL159893   6.672  44.685   6.150
 9092POPC   GL259894   6.772  44.569   6.150
 9092POPC   C1A59895   6.596  44.625   6.450
 9092POPC   D2A59896   6.642  44.635   6.750
 9092POPC   C3A59897   6.648  44.656   7.050
 9092POPC   C4A59898   6.694  44.652   7.350
 9092POPC   C1B59899   6.833  44.542   6.450
 9092POPC   C2B59900   6.919  44.531   6.750
 9092POPC   C3B59901   6.856  44.571   7.050
 9092POPC   C4B59902   6.912  44.616   7.350
 9093POPC   NC359903  26.080  15.184   5.550
 9093POPC   PO459904  26.077  15.212   5.850
 9093POPC   GL159905  26.049  15.172   6.150
 9093POPC   GL259906  26.098  15.346   6.150
 9093POPC   C1A59907  26.015  15.210   6.450
 9093POPC   D2A59908  26.058  15.205   6.750
 9093POPC   C3A59909  25.999  15.138   7.050
 9093POPC   C4A59910  25.997  15.183   7.350
 9093POPC   C1B59911  26.123  15.476   6.450
 9093POPC   C2B59912  26.057  15.454   6.750
 9093POPC   C3B59913  26.077  15.393   7.050
 9093POPC   C4B59914  26.108  15.402   7.350
 9094POPC   NC359915   1.979  29.135   5.550
 9094POPC   PO459916   1.971  29.096   5.850
 9094POPC   GL159917   2.005  29.128   6.150
 9094POPC   GL259918   2.079  29.124   6.150
 9094POPC   C1A59919   1.984  29.111   6.450
 9094POPC   D2A59920   1.978  29.101   6.750
 9094POPC   C3A59921   1.963  29.164   7.050
 9094POPC   C4A59922   2.016  29.099   7.350
 9094POPC   C1B59923   2.212  29.130   6.450
 9094POPC   C2B59924   2.271  29.141   6.750
 9094POPC   C3B59925   2.246  29.185   7.050
 9094POPC   C4B59926   2.242  29.098   7.350
 9095POPC   NC359927  41.594  39.182   5.550
 9095POPC   PO459928  41.576  39.206   5.850
 9095POPC   GL159929  41.606  39.217   6.150
 9095POPC   GL259930  41.576  39.072   6.150
 9095POPC   C1A59931  41.554  39.258   6.450
 9095POPC   D2A59932  41.528  39.226   6.750
 9095POPC   C3A59933  41.517  39.220   7.050
 9095POPC   C4A59934  41.532  39.205   7.350
 9095POPC   C1B59935  41.711  39.017   6.450
 9095POPC   C2B59936  41.686  39.012   6.750
 9095POPC   C3B59937  41.630  38.990   7.050
 9095POPC   C4B59938  41.617  38.986   7.350
 9096POPC   NC359939  12.847   9.725   5.550
 9096POPC   PO459940  12.894   9.748   5.850
 9096POPC   GL159941  12.874   9.791   6.150
 9096POPC   GL259942  12.940   9.775   6.150
 9096POPC   C1A59943  12.877   9.734   6.450
 9096POPC   D2A59944  12.840   9.760   6.750
 9096POPC   C3A59945  12.866   9.740   7.050
 9096POPC   C4A59946  12.875   9.752   7.350
 9096POPC   C1B59947  13.090   9.792   6.450
 9096POPC   C2B59948  13.071   9.866   6.750
 9096POPC   C3B59949  13.102   9.830   7.050
 9096POPC   C4B59950  13.056   9.809   7.350
 9097POPC   NC359951  36.920  26.053   5.550
 9097POPC   PO459952  36.873  26.054   5.850
 9097POPC   GL159953  36.941  26.008   6.150
 9097POPC   GL259954  36.827  25.954   6.150
 9097POPC   C1A59955  36.854  26.049   6.450
 9097POPC   D2A59956  36.916  26.053   6.750
 9097POPC   C3A59957  36.890  26.053   7.050
 9097POPC   C4A59958  36.918  26.041   7.350
 9097POPC   C1B59959  36.778  25.872   6.450
 9097POPC   C2B59960  36.721  25.806   6.750
 9097POPC   C3B59961  36.701  25.821   7.050
 9097POPC   C4B59962  36.751  25.882   7.350
 9098POPC   NC359963  21.386  21.407   5.550
 9098POPC   PO459964  21.339  21.385   5.850
 9098POPC   GL159965  21.428  21.358   6.150
 9098POPC   GL259966  21.378  21.522   6.150
 9098POPC   C1A59967  21.390  21.426   6.450
 9098POPC   D2A59968  21.353  21.367   6.750
 9098POPC   C3A59969  21.352  21.426   7.050
 9098POPC   C4A59970  21.391  21.413   7.350
 9098POPC   C1B59971  21.262  21.596   6.450
 9098POPC   C2B59972  21.300  21.635   6.750
 9098POPC   C3B59973  21.227  21.641   7.050
 9098POPC   C4B59974  21.252  21.654   7.350
 9099POPC   NC359975  19.831  38.427   5.550
 9099POPC   PO459976  19.854  38.460   5.850
 9099POPC   GL159977  19.791  38.429   6.150
 9099POPC   GL259978  19.933  38.413   6.150
 9099POPC   C1A59979  19.871  38.498   6.450
 9099POPC   D2A59980  19.846  38.413   6.750
 9099POPC   C3A59981  19.804  38.465   7.050
 9099POPC   C4A59982  19.881  38.477   7.350
 9099POPC   C1B59983  20.047  38.334   6.450
 9099POPC   C2B59984  20.012  38.311   6.750
 9099POPC   C3B59985  20.046  38.361   7.050
 9099POPC   C4B59986  20.084  38.352   7.350
 9100POPC   NC359987   2.814  10.504   5.550
 9100POPC   PO459988   2.725  10.542   5.850
 9100POPC   GL159989   2.719  10.515   6.150
 9100POPC   GL259990   2.717  10.605   6.150
 9100POPC   C1A59991   2.787  10.527   6.450
 9100POPC   D2A59992   2.815  10.528   6.750
 9100POPC   C3A59993   2.724  10.491   7.050
 9100POPC   C4A59994   2.721  10.484   7.350
 9100POPC   C1B59995   2.548  10.701   6.450
 9100POPC   C2B59996   2.589  10.708   6.750
 9100POPC   C3B59997   2.529  10.698   7.050
 9100POPC   C4B59998   2.560  10.702   7.350
 9101POPC   NC359999  15.207  11.350   5.550
 9101POPC   PO460000  15.207  11.264   5.850
 9101POPC   GL160001  15.200  11.342   6.150
 9101POPC   GL260002  15.033  11.327   6.150
 9101POPC   C1A60003  15.219  11.292   6.450
 9101POPC   D2A60004  15.164  11.294   6.750
 9101POPC   C3A60005  15.167  11.330   7.050
 9101POPC   C4A60006  15.150  11.344   7.350
 9101POPC   C1B60007  14.917  11.448   6.450
 9101POPC   C2B60008  14.922  11.392   6.750
 9101POPC   C3B60009  14.959  11.362   7.050
 9101POPC   C4B60010  14.936  11.393   7.350
 9102POPC   NC360011  26.775  29.943   5.550
 9102POPC   PO460012  26.833  29.955   5.850
 9102POPC   GL160013  26.829  29.884   6.150
 9102POPC   GL260014  26.919  29.773   6.150
 9102POPC   C1A60015  26.804  29.923   6.450
 9102POPC   D2A60016  26.832  29.928   6.750
 9102POPC   C3A60017  26.848  29.882   7.050
 9102POPC   C4A60018  26.787  29.903   7.350
 9102POPC   C1B60019  26.991  29.737   6.450
 9102POPC   C2B60020  26.910  29.716   6.750
 9102POPC   C3B60021  26.998  29.690   7.050
 9102POPC   C4B60022  26.997  29.718   7.350
 9103POPC   NC360023  10.482  22.954   5.550
 9103POPC   PO460024  10.546  22.894   5.850
 9103POPC   GL160025  10.499  22.966   6.150
 9103POPC   GL260026  10.673  22.940   6.150
 9103POPC   C1A60027  10.500  22.909   6.450
 9103POPC   D2A60028  10.533  22.985   6.750
 9103POPC   C3A60029  10.481  22.978   7.050
 9103POPC   C4A60030  10.573  22.891   7.350
 9103POPC   C1B60031  10.763  22.899   6.450
 9103POPC   C2B60032  10.730  22.857   6.750
 9103POPC   C3B60033  10.816  22.845   7.050
 9103POPC   C4B60034  10.754  22.903   7.350
 9104POPC   NC360035  29.194   1.196   5.550
 9104POPC   PO460036  29.120   1.236   5.850
 9104POPC   GL160037  29.152   1.165   6.150
 9104POPC   GL260038  29.208   1.306   6.150
 9104POPC   C1A60039  29.172   1.166   6.450
 9104POPC   D2A60040  29.183   1.224   6.750
 9104POPC   C3A60041  29.127   1.210   7.050
 9104POPC   C4A60042  29.179   1.234   7.350
 9104POPC   C1B60043  29.308   1.335   6.450
 9104POPC   C2B60044  29.333   1.330   6.750
 9104POPC   C3B60045  29.327   1.372   7.050
 9104POPC   C4B60046  29.379   1.382   7.350
 9105POPC   NC360047   1.199  14.442   5.550
 9105POPC   PO460048   1.178  14.414   5.850
 9105POPC   GL160049   1.166  14.446   6.150
 9105POPC   GL260050   1.319  14.296   6.150
 9105POPC   C1A60051   1.194  14.378   6.450
 9105POPC   D2A60052   1.239  14.354   6.750
 9105POPC   C3A60053   1.207  14.358   7.050
 9105POPC   C4A60054   1.190  14.414   7.350
 9105POPC   C1B60055   1.412  14.199   6.450
 9105POPC   C2B60056   1.415  14.237   6.750
 9105POPC   C3B60057   1.401  14.186   7.050
 9105POPC   C4B60058   1.346  14.211   7.350
 9106POPC   NC360059   0.413  38.485   5.550
 9106POPC   PO460060   0.444  38.452   5.850
 9106POPC   GL160061   0.450  38.441   6.150
 9106POPC   GL260062   0.410  38.358   6.150
 9106POPC   C1A60063   0.423  38.460   6.450
 9106POPC   D2A60064   0.435  38.488   6.750
 9106POPC   C3A60065   0.444  38.476   7.050
 9106POPC   C4A60066   0.449  38.408   7.350
 9106POPC   C1B60067   0.242  38.276   6.450
 9106POPC   C2B60068   0.294  38.216   6.750
 9106POPC   C3B60069   0.317  38.290   7.050
 9106POPC   C4B60070   0.271  38.238   7.350
 9107POPC   NC360071  36.078  33.750   5.550
 9107POPC   PO460072  36.175  33.826   5.850
 9107POPC   GL160073  36.136  33.773   6.150
 9107POPC   GL260074  36.211  33.665   6.150
 9107POPC   C1A60075  36.096  33.791   6.450
 9107POPC   D2A60076  36.088  33.776   6.750
 9107POPC   C3A60077  36.112  33.784   7.050
 9107POPC   C4A60078  36.087  33.814   7.350
 9107POPC   C1B60079  36.232  33.532   6.450
 9107POPC   C2B60080  36.223  33.591   6.750
 9107POPC   C3B60081  36.162  33.533   7.050
 9107POPC   C4B60082  36.214  33.512   7.350
 9108POPC   NC360083  25.995  38.422   5.550
 9108POPC   PO460084  26.085  38.426   5.850
 9108POPC   GL160085  26.049  38.461   6.150
 9108POPC   GL260086  26.189  38.411   6.150
 9108POPC   C1A60087  26.073  38.411   6.450
 9108POPC   D2A60088  26.051  38.442   6.750
 9108POPC   C3A60089  26.046  38.487   7.050
 9108POPC   C4A60090  26.074  38.434   7.350
 9108POPC   C1B60091  26.322  38.377   6.450
 9108POPC   C2B60092  26.272  38.334   6.750
 9108POPC   C3B60093  26.296  38.366   7.050
 9108POPC   C4B60094  26.270  38.383   7.350
 9109POPC   NC360095  42.331  13.633   5.550
 9109POPC   PO460096  42.353  13.647   5.850
 9109POPC   GL160097  42.292  13.658   6.150
 9109POPC   GL260098  42.262  13.568   6.150
 9109POPC   C1A60099  42.285  13.651   6.450
 9109POPC   D2A60100  42.310  13.677   6.750
 9109POPC   C3A60101  42.363  13.592   7.050
 9109POPC   C4A60102  42.357  13.673   7.350
 9109POPC   C1B60103  42.202  13.445   6.450
 9109POPC   C2B60104  42.144  13.429   6.750
 9109POPC   C3B60105  42.178  13.421   7.050
 9109POPC   C4B60106  42.157  13.422   7.350
 9110POPC   NC360107   9.008  36.083   5.550
 9110POPC   PO460108   8.938  36.163   5.850
 9110POPC   GL160109   8.939  36.132   6.150
 9110POPC   GL260110   9.038  36.180   6.150
 9110POPC   C1A60111   9.007  36.127   6.450
 9110POPC   D2A60112   9.019  36.092   6.750
 9110POPC   C3A60113   9.001  36.161   7.050
 9110POPC   C4A60114   9.004  36.097   7.350
 9110POPC   C1B60115   9.147  36.318   6.450
 9110POPC   C2B60116   9.176  36.290   6.750
 9110POPC   C3B60117   9.217  36.238   7.050
 9110POPC   C4B60118   9.140  36.245   7.350
 9111POPC   NC360119  44.668  16.709   5.550
 9111POPC   PO460120  44.623  16.759   5.850
 9111POPC   GL160121  44.620  16.780   6.150
 9111POPC   GL260122  44.710  16.831   6.150
 9111POPC   C1A60123  44.638  16.733   6.450
 9111POPC   D2A60124  44.698  16.698   6.750
 9111POPC   C3A60125  44.630  16.700   7.050
 9111POPC   C4A60126  44.647  16.728   7.350
 9111POPC   C1B60127  44.866  16.914   6.450
 9111POPC   C2B60128  44.846  16.937   6.750
 9111POPC   C3B60129  44.851  16.929   7.050
 9111POPC   C4B60130  44.801  16.941   7.350
 9112POPC   NC360131   8.987   2.028   5.550
 9112POPC   PO460132   8.962   1.943   5.850
 9112POPC   GL160133   9.019   2.013   6.150
 9112POPC   GL260134   8.867   1.979   6.150
 9112POPC   C1A60135   8.988   1.973   6.450
 9112POPC   D2A60136   8.987   1.954   6.750
 9112POPC   C3A60137   8.934   1.964   7.050
 9112POPC   C4A60138   9.019   1.998   7.350
 9112POPC   C1B60139   8.687   1.953   6.450
 9112POPC   C2B60140   8.759   1.928   6.750
 9112POPC   C3B60141   8.689   1.944   7.050
 9112POPC   C4B60142   8.752   1.950   7.350
 9113POPC   NC360143   5.070  40.773   5.550
 9113POPC   PO460144   5.046  40.791   5.850
 9113POPC   GL160145   5.068  40.795   6.150
 9113POPC   GL260146   5.204  40.818   6.150
 9113POPC   C1A60147   5.077  40.831   6.450
 9113POPC   D2A60148   5.096  40.782   6.750
 9113POPC   C3A60149   5.057  40.757   7.050
 9113POPC   C4A60150   5.075  40.811   7.350
 9113POPC   C1B60151   5.275  40.892   6.450
 9113POPC   C2B60152   5.267  40.892   6.750
 9113POPC   C3B60153   5.290  40.924   7.050
 9113POPC   C4B60154   5.312  40.851   7.350
 9114POPC   NC360155  37.723  36.917   5.550
 9114POPC   PO460156  37.630  36.873   5.850
 9114POPC   GL160157  37.683  36.902   6.150
 9114POPC   GL260158  37.718  37.052   6.150
 9114POPC   C1A60159  37.653  36.930   6.450
 9114POPC   D2A60160  37.630  36.934   6.750
 9114POPC   C3A60161  37.634  36.888   7.050
 9114POPC   C4A60162  37.684  36.884   7.350
 9114POPC   C1B60163  37.671  37.189   6.450
 9114POPC   C2B60164  37.696  37.191   6.750
 9114POPC   C3B60165  37.761  37.101   7.050
 9114POPC   C4B60166  37.742  37.187   7.350
 9115POPC   NC360167  35.386  42.371   5.550
 9115POPC   PO460168  35.374  42.330   5.850
 9115POPC   GL160169  35.350  42.370   6.150
 9115POPC   GL260170  35.290  42.358   6.150
 9115POPC   C1A60171  35.374  42.332   6.450
 9115POPC   D2A60172  35.310  42.310   6.750
 9115POPC   C3A60173  35.374  42.333   7.050
 9115POPC   C4A60174  35.361  42.341   7.350
 9115POPC   C1B60175  35.125  42.485   6.450
 9115POPC   C2B60176  35.178  42.433   6.750
 9115POPC   C3B60177  35.105  42.468   7.050
 9115POPC   C4B60178  35.168  42.450   7.350
 9116POPC   NC360179  43.114  15.972   5.550
 9116POPC   PO460180  43.068  15.912   5.850
 9116POPC   GL160181  43.068  15.965   6.150
 9116POPC   GL260182  43.236  15.981   6.150
 9116POPC   C1A60183  43.127  15.944   6.450
 9116POPC   D2A60184  43.137  15.982   6.750
 9116POPC   C3A60185  43.155  15.960   7.050
 9116POPC   C4A60186  43.106  15.942   7.350
 9116POPC   C1B60187  43.375  15.940   6.450
 9116POPC   C2B60188  43.322  16.002   6.750
 9116POPC   C3B60189  43.339  15.984   7.050
 9116POPC   C4B60190  43.395  16.009   7.350
 9117POPC   NC360191  31.456  19.101   5.550
 9117POPC   PO460192  31.472  19.075   5.850
 9117POPC   GL160193  31.424  19.014   6.150
 9117POPC   GL260194  31.572  19.115   6.150
 9117POPC   C1A60195  31.445  19.104   6.450
 9117POPC   D2A60196  31.522  19.027   6.750
 9117POPC   C3A60197  31.429  19.092   7.050
 9117POPC   C4A60198  31.511  19.076   7.350
 9117POPC   C1B60199  31.633  19.260   6.450
 9117POPC   C2B60200  31.640  19.220   6.750
 9117POPC   C3B60201  31.628  19.294   7.050
 9117POPC   C4B60202  31.649  19.236   7.350
 9118POPC   NC360203  43.127  36.923   5.550
 9118POPC   PO460204  43.100  36.903   5.850
 9118POPC   GL160205  43.104  36.952   6.150
 9118POPC   GL260206  43.219  36.896   6.150
 9118POPC   C1A60207  43.115  36.928   6.450
 9118POPC   D2A60208  43.148  36.938   6.750
 9118POPC   C3A60209  43.135  36.930   7.050
 9118POPC   C4A60210  43.139  36.896   7.350
 9118POPC   C1B60211  43.403  36.976   6.450
 9118POPC   C2B60212  43.311  36.965   6.750
 9118POPC   C3B60213  43.371  36.957   7.050
 9118POPC   C4B60214  43.309  36.930   7.350
 9119POPC   NC360215  22.140  15.916   5.550
 9119POPC   PO460216  22.180  15.997   5.850
 9119POPC   GL160217  22.121  15.976   6.150
 9119POPC   GL260218  22.232  16.056   6.150
 9119POPC   C1A60219  22.186  16.000   6.450
 9119POPC   D2A60220  22.154  15.924   6.750
 9119POPC   C3A60221  22.167  15.928   7.050
 9119POPC   C4A60222  22.150  15.997   7.350
 9119POPC   C1B60223  22.257  16.180   6.450
 9119POPC   C2B60224  22.219  16.217   6.750
 9119POPC   C3B60225  22.288  16.156   7.050
 9119POPC   C4B60226  22.244  16.227   7.350
 9120POPC   NC360227   2.007  13.633   5.550
 9120POPC   PO460228   1.958  13.672   5.850
 9120POPC   GL160229   1.970  13.647   6.150
 9120POPC   GL260230   1.957  13.721   6.150
 9120POPC   C1A60231   2.014  13.631   6.450
 9120POPC   D2A60232   1.949  13.594   6.750
 9120POPC   C3A60233   1.949  13.615   7.050
 9120POPC   C4A60234   2.019  13.656   7.350
 9120POPC   C1B60235   1.889  13.842   6.450
 9120POPC   C2B60236   1.890  13.844   6.750
 9120POPC   C3B60237   1.814  13.856   7.050
 9120POPC   C4B60238   1.842  13.803   7.350
 9121POPC   NC360239   5.104   5.135   5.550
 9121POPC   PO460240   5.066   5.142   5.850
 9121POPC   GL160241   5.083   5.087   6.150
 9121POPC   GL260242   5.005   5.015   6.150
 9121POPC   C1A60243   5.113   5.086   6.450
 9121POPC   D2A60244   5.136   5.122   6.750
 9121POPC   C3A60245   5.135   5.082   7.050
 9121POPC   C4A60246   5.142   5.108   7.350
 9121POPC   C1B60247   4.905   4.921   6.450
 9121POPC   C2B60248   4.956   4.969   6.750
 9121POPC   C3B60249   4.902   4.939   7.050
 9121POPC   C4B60250   4.944   4.902   7.350
 9122POPC   NC360251  41.607  36.912   5.550
 9122POPC   PO460252  41.587  36.917   5.850
 9122POPC   GL160253  41.594  36.874   6.150
 9122POPC   GL260254  41.579  37.054   6.150
 9122POPC   C1A60255  41.596  36.889   6.450
 9122POPC   D2A60256  41.526  36.920   6.750
 9122POPC   C3A60257  41.537  36.890   7.050
 9122POPC   C4A60258  41.535  36.948   7.350
 9122POPC   C1B60259  41.602  37.120   6.450
 9122POPC   C2B60260  41.613  37.184   6.750
 9122POPC   C3B60261  41.585  37.190   7.050
 9122POPC   C4B60262  41.534  37.185   7.350
 9123POPC   NC360263  32.975  16.690   5.550
 9123POPC   PO460264  33.039  16.774   5.850
 9123POPC   GL160265  32.989  16.697   6.150
 9123POPC   GL260266  33.048  16.633   6.150
 9123POPC   C1A60267  33.003  16.755   6.450
 9123POPC   D2A60268  33.009  16.741   6.750
 9123POPC   C3A60269  33.073  16.753   7.050
 9123POPC   C4A60270  33.044  16.775   7.350
 9123POPC   C1B60271  33.062  16.463   6.450
 9123POPC   C2B60272  33.153  16.475   6.750
 9123POPC   C3B60273  33.138  16.515   7.050
 9123POPC   C4B60274  33.121  16.484   7.350
 9124POPC   NC360275  38.492  34.559   5.550
 9124POPC   PO460276  38.460  34.599   5.850
 9124POPC   GL160277  38.407  34.545   6.150
 9124POPC   GL260278  38.558  34.500   6.150
 9124POPC   C1A60279  38.485  34.553   6.450
 9124POPC   D2A60280  38.490  34.603   6.750
 9124POPC   C3A60281  38.486  34.625   7.050
 9124POPC   C4A60282  38.426  34.589   7.350
 9124POPC   C1B60283  38.733  34.502   6.450
 9124POPC   C2B60284  38.720  34.450   6.750
 9124POPC   C3B60285  38.692  34.477   7.050
 9124POPC   C4B60286  38.650  34.520   7.350
 9125POPC   NC360287  10.506  20.601   5.550
 9125POPC   PO460288  10.488  20.609   5.850
 9125POPC   GL160289  10.488  20.566   6.150
 9125POPC   GL260290  10.552  20.513   6.150
 9125POPC   C1A60291  10.536  20.580   6.450
 9125POPC   D2A60292  10.570  20.660   6.750
 9125POPC   C3A60293  10.538  20.650   7.050
 9125POPC   C4A60294  10.564  20.626   7.350
 9125POPC   C1B60295  10.443  20.333   6.450
 9125POPC   C2B60296  10.453  20.386   6.750
 9125POPC   C3B60297  10.516  20.401   7.050
 9125POPC   C4B60298  10.453  20.351   7.350
 9126POPC   NC360299  35.307  39.279   5.550
 9126POPC   PO460300  35.329  39.253   5.850
 9126POPC   GL160301  35.380  39.182   6.150
 9126POPC   GL260302  35.348  39.138   6.150
 9126POPC   C1A60303  35.368  39.229   6.450
 9126POPC   D2A60304  35.327  39.239   6.750
 9126POPC   C3A60305  35.359  39.188   7.050
 9126POPC   C4A60306  35.319  39.267   7.350
 9126POPC   C1B60307  35.265  38.968   6.450
 9126POPC   C2B60308  35.214  38.980   6.750
 9126POPC   C3B60309  35.265  39.040   7.050
 9126POPC   C4B60310  35.287  38.990   7.350
 9127POPC   NC360311  40.032   8.197   5.550
 9127POPC   PO460312  40.038   8.181   5.850
 9127POPC   GL160313  40.031   8.178   6.150
 9127POPC   GL260314  40.092   8.309   6.150
 9127POPC   C1A60315  40.001   8.165   6.450
 9127POPC   D2A60316  40.026   8.223   6.750
 9127POPC   C3A60317  39.965   8.155   7.050
 9127POPC   C4A60318  40.009   8.242   7.350
 9127POPC   C1B60319  40.147   8.383   6.450
 9127POPC   C2B60320  40.094   8.387   6.750
 9127POPC   C3B60321  40.164   8.431   7.050
 9127POPC   C4B60322  40.133   8.443   7.350
 9128POPC   NC360323   1.232  12.034   5.550
 9128POPC   PO460324   1.179  12.035   5.850
 9128POPC   GL160325   1.225  12.061   6.150
 9128POPC   GL260326   1.138  12.201   6.150
 9128POPC   C1A60327   1.187  12.072   6.450
 9128POPC   D2A60328   1.231  12.056   6.750
 9128POPC   C3A60329   1.235  12.104   7.050
 9128POPC   C4A60330   1.237  12.082   7.350
 9128POPC   C1B60331   1.019  12.231   6.450
 9128POPC   C2B60332   1.079  12.231   6.750
 9128POPC   C3B60333   1.056  12.262   7.050
 9128POPC   C4B60334   1.036  12.318   7.350
 9129POPC   NC360335   5.885  11.254   5.550
 9129POPC   PO460336   5.822  11.253   5.850
 9129POPC   GL160337   5.836  11.251   6.150
 9129POPC   GL260338   5.768  11.243   6.150
 9129POPC   C1A60339   5.832  11.336   6.450
 9129POPC   D2A60340   5.903  11.312   6.750
 9129POPC   C3A60341   5.875  11.346   7.050
 9129POPC   C4A60342   5.889  11.310   7.350
 9129POPC   C1B60343   5.629  11.241   6.450
 9129POPC   C2B60344   5.588  11.199   6.750
 9129POPC   C3B60345   5.635  11.216   7.050
 9129POPC   C4B60346   5.609  11.208   7.350
 9130POPC   NC360347  21.410  28.391   5.550
 9130POPC   PO460348  21.348  28.385   5.850
 9130POPC   GL160349  21.426  28.413   6.150
 9130POPC   GL260350  21.474  28.426   6.150
 9130POPC   C1A60351  21.343  28.377   6.450
 9130POPC   D2A60352  21.368  28.378   6.750
 9130POPC   C3A60353  21.415  28.404   7.050
 9130POPC   C4A60354  21.401  28.358   7.350
 9130POPC   C1B60355  21.613  28.406   6.450
 9130POPC   C2B60356  21.592  28.380   6.750
 9130POPC   C3B60357  21.599  28.406   7.050
 9130POPC   C4B60358  21.595  28.383   7.350
 9131POPC   NC360359  37.665  12.890   5.550
 9131POPC   PO460360  37.717  12.812   5.850
 9131POPC   GL160361  37.685  12.830   6.150
 9131POPC   GL260362  37.727  12.752   6.150
 9131POPC   C1A60363  37.633  12.880   6.450
 9131POPC   D2A60364  37.707  12.888   6.750
 9131POPC   C3A60365  37.723  12.816   7.050
 9131POPC   C4A60366  37.688  12.850   7.350
 9131POPC   C1B60367  37.796  12.659   6.450
 9131POPC   C2B60368  37.791  12.669   6.750
 9131POPC   C3B60369  37.791  12.596   7.050
 9131POPC   C4B60370  37.792  12.639   7.350
 9132POPC   NC360371  26.037  42.364   5.550
 9132POPC   PO460372  26.006  42.381   5.850
 9132POPC   GL160373  26.004  42.363   6.150
 9132POPC   GL260374  25.897  42.337   6.150
 9132POPC   C1A60375  25.996  42.350   6.450
 9132POPC   D2A60376  26.007  42.342   6.750
 9132POPC   C3A60377  26.050  42.369   7.050
 9132POPC   C4A60378  26.004  42.320   7.350
 9132POPC   C1B60379  25.814  42.383   6.450
 9132POPC   C2B60380  25.833  42.423   6.750
 9132POPC   C3B60381  25.751  42.395   7.050
 9132POPC   C4B60382  25.780  42.409   7.350
 9133POPC   NC360383  33.032  12.899   5.550
 9133POPC   PO460384  33.044  12.809   5.850
 9133POPC   GL160385  32.989  12.892   6.150
 9133POPC   GL260386  32.929  12.793   6.150
 9133POPC   C1A60387  32.999  12.829   6.450
 9133POPC   D2A60388  33.052  12.818   6.750
 9133POPC   C3A60389  33.040  12.829   7.050
 9133POPC   C4A60390  33.062  12.873   7.350
 9133POPC   C1B60391  32.820  12.786   6.450
 9133POPC   C2B60392  32.835  12.726   6.750
 9133POPC   C3B60393  32.833  12.729   7.050
 9133POPC   C4B60394  32.784  12.723   7.350
 9134POPC   NC360395  33.043  40.766   5.550
 9134POPC   PO460396  32.987  40.780   5.850
 9134POPC   GL160397  33.037  40.755   6.150
 9134POPC   GL260398  33.170  40.745   6.150
 9134POPC   C1A60399  33.000  40.747   6.450
 9134POPC   D2A60400  33.027  40.802   6.750
 9134POPC   C3A60401  33.039  40.750   7.050
 9134POPC   C4A60402  33.030  40.775   7.350
 9134POPC   C1B60403  33.261  40.763   6.450
 9134POPC   C2B60404  33.268  40.756   6.750
 9134POPC   C3B60405  33.228  40.782   7.050
 9134POPC   C4B60406  33.225  40.738   7.350
 9135POPC   NC360407  22.199  14.398   5.550
 9135POPC   PO460408  22.161  14.435   5.850
 9135POPC   GL160409  22.138  14.386   6.150
 9135POPC   GL260410  22.051  14.507   6.150
 9135POPC   C1A60411  22.139  14.387   6.450
 9135POPC   D2A60412  22.142  14.403   6.750
 9135POPC   C3A60413  22.191  14.419   7.050
 9135POPC   C4A60414  22.117  14.358   7.350
 9135POPC   C1B60415  21.958  14.505   6.450
 9135POPC   C2B60416  21.993  14.490   6.750
 9135POPC   C3B60417  21.936  14.514   7.050
 9135POPC   C4B60418  21.979  14.525   7.350
 9136POPC   NC360419  15.148  10.532   5.550
 9136POPC   PO460420  15.139  10.557   5.850
 9136POPC   GL160421  15.158  10.554   6.150
 9136POPC   GL260422  15.263  10.494   6.150
 9136POPC   C1A60423  15.190  10.573   6.450
 9136POPC   D2A60424  15.207  10.491   6.750
 9136POPC   C3A60425  15.137  10.567   7.050
 9136POPC   C4A60426  15.227  10.513   7.350
 9136POPC   C1B60427  15.375  10.401   6.450
 9136POPC   C2B60428  15.385  10.398   6.750
 9136POPC   C3B60429  15.388  10.391   7.050
 9136POPC   C4B60430  15.389  10.402   7.350
 9137POPC   NC360431  18.238  12.844   5.550
 9137POPC   PO460432  18.297  12.802   5.850
 9137POPC   GL160433  18.234  12.841   6.150
 9137POPC   GL260434  18.145  12.896   6.150
 9137POPC   C1A60435  18.247  12.836   6.450
 9137POPC   D2A60436  18.292  12.823   6.750
 9137POPC   C3A60437  18.329  12.862   7.050
 9137POPC   C4A60438  18.267  12.848   7.350
 9137POPC   C1B60439  18.022  12.869   6.450
 9137POPC   C2B60440  18.029  12.835   6.750
 9137POPC   C3B60441  18.002  12.880   7.050
 9137POPC   C4B60442  18.024  12.834   7.350
 9138POPC   NC360443  38.407  36.953   5.550
 9138POPC   PO460444  38.479  36.943   5.850
 9138POPC   GL160445  38.462  36.863   6.150
 9138POPC   GL260446  38.462  37.056   6.150
 9138POPC   C1A60447  38.448  36.924   6.450
 9138POPC   D2A60448  38.428  36.923   6.750
 9138POPC   C3A60449  38.486  36.862   7.050
 9138POPC   C4A60450  38.415  36.901   7.350
 9138POPC   C1B60451  38.595  37.142   6.450
 9138POPC   C2B60452  38.527  37.163   6.750
 9138POPC   C3B60453  38.588  37.136   7.050
 9138POPC   C4B60454  38.564  37.113   7.350
 9139POPC   NC360455  19.809  26.856   5.550
 9139POPC   PO460456  19.842  26.825   5.850
 9139POPC   GL160457  19.837  26.780   6.150
 9139POPC   GL260458  19.720  26.863   6.150
 9139POPC   C1A60459  19.807  26.778   6.450
 9139POPC   D2A60460  19.785  26.851   6.750
 9139POPC   C3A60461  19.794  26.802   7.050
 9139POPC   C4A60462  19.785  26.805   7.350
 9139POPC   C1B60463  19.627  26.934   6.450
 9139POPC   C2B60464  19.629  26.916   6.750
 9139POPC   C3B60465  19.603  26.898   7.050
 9139POPC   C4B60466  19.649  26.912   7.350
 9140POPC   NC360467  13.601  17.491   5.550
 9140POPC   PO460468  13.606  17.497   5.850
 9140POPC   GL160469  13.587  17.473   6.150
 9140POPC   GL260470  13.666  17.601   6.150
 9140POPC   C1A60471  13.592  17.514   6.450
 9140POPC   D2A60472  13.604  17.514   6.750
 9140POPC   C3A60473  13.629  17.538   7.050
 9140POPC   C4A60474  13.599  17.527   7.350
 9140POPC   C1B60475  13.625  17.761   6.450
 9140POPC   C2B60476  13.660  17.738   6.750
 9140POPC   C3B60477  13.593  17.718   7.050
 9140POPC   C4B60478  13.629  17.789   7.350
 9141POPC   NC360479  32.986  31.433   5.550
 9141POPC   PO460480  32.987  31.458   5.850
 9141POPC   GL160481  32.979  31.493   6.150
 9141POPC   GL260482  33.032  31.326   6.150
 9141POPC   C1A60483  32.984  31.429   6.450
 9141POPC   D2A60484  32.982  31.496   6.750
 9141POPC   C3A60485  33.000  31.521   7.050
 9141POPC   C4A60486  33.055  31.447   7.350
 9141POPC   C1B60487  33.109  31.201   6.450
 9141POPC   C2B60488  33.081  31.259   6.750
 9141POPC   C3B60489  33.108  31.206   7.050
 9141POPC   C4B60490  33.103  31.253   7.350
 9142POPC   NC360491  20.580  19.840   5.550
 9142POPC   PO460492  20.563  19.874   5.850
 9142POPC   GL160493  20.614  19.790   6.150
 9142POPC   GL260494  20.749  19.893   6.150
 9142POPC   C1A60495  20.608  19.858   6.450
 9142POPC   D2A60496  20.633  19.879   6.750
 9142POPC   C3A60497  20.606  19.872   7.050
 9142POPC   C4A60498  20.591  19.818   7.350
 9142POPC   C1B60499  20.781  20.023   6.450
 9142POPC   C2B60500  20.786  20.055   6.750
 9142POPC   C3B60501  20.836  19.987   7.050
 9142POPC   C4B60502  20.743  20.004   7.350
 9143POPC   NC360503  29.921  43.919   5.550
 9143POPC   PO460504  29.916  43.879   5.850
 9143POPC   GL160505  29.882  43.858   6.150
 9143POPC   GL260506  29.795  43.911   6.150
 9143POPC   C1A60507  29.898  43.911   6.450
 9143POPC   D2A60508  29.897  43.913   6.750
 9143POPC   C3A60509  29.885  43.931   7.050
 9143POPC   C4A60510  29.958  43.854   7.350
 9143POPC   C1B60511  29.711  43.912   6.450
 9143POPC   C2B60512  29.701  43.944   6.750
 9143POPC   C3B60513  29.641  43.938   7.050
 9143POPC   C4B60514  29.623  43.878   7.350
 9144POPC   NC360515  33.054  30.734   5.550
 9144POPC   PO460516  33.009  30.707   5.850
 9144POPC   GL160517  33.007  30.647   6.150
 9144POPC   GL260518  32.886  30.644   6.150
 9144POPC   C1A60519  33.051  30.693   6.450
 9144POPC   D2A60520  33.050  30.717   6.750
 9144POPC   C3A60521  33.003  30.655   7.050
 9144POPC   C4A60522  32.983  30.674   7.350
 9144POPC   C1B60523  32.777  30.597   6.450
 9144POPC   C2B60524  32.801  30.540   6.750
 9144POPC   C3B60525  32.812  30.582   7.050
 9144POPC   C4B60526  32.801  30.524   7.350
 9145POPC   NC360527  29.917  32.246   5.550
 9145POPC   PO460528  29.903  32.248   5.850
 9145POPC   GL160529  29.964  32.291   6.150
 9145POPC   GL260530  30.056  32.375   6.150
 9145POPC   C1A60531  29.913  32.239   6.450
 9145POPC   D2A60532  29.923  32.292   6.750
 9145POPC   C3A60533  29.948  32.238   7.050
 9145POPC   C4A60534  29.873  32.228   7.350
 9145POPC   C1B60535  30.084  32.365   6.450
 9145POPC   C2B60536  30.135  32.359   6.750
 9145POPC   C3B60537  30.104  32.363   7.050
 9145POPC   C4B60538  30.147  32.393   7.350
 9146POPC   NC360539  36.102  16.004   5.550
 9146POPC   PO460540  36.126  15.988   5.850
 9146POPC   GL160541  36.131  15.966   6.150
 9146POPC   GL260542  36.230  15.961   6.150
 9146POPC   C1A60543  36.158  15.978   6.450
 9146POPC   D2A60544  36.092  15.971   6.750
 9146POPC   C3A60545  36.101  15.949   7.050
 9146POPC   C4A60546  36.159  15.907   7.350
 9146POPC   C1B60547  36.402  15.977   6.450
 9146POPC   C2B60548  36.330  15.966   6.750
 9146POPC   C3B60549  36.372  16.005   7.050
 9146POPC   C4B60550  36.328  15.990   7.350
 9147POPC   NC360551   5.079  16.766   5.550
 9147POPC   PO460552   5.045  16.755   5.850
 9147POPC   GL160553   5.044  16.697   6.150
 9147POPC   GL260554   4.986  16.588   6.150
 9147POPC   C1A60555   5.088  16.724   6.450
 9147POPC   D2A60556   5.057  16.696   6.750
 9147POPC   C3A60557   5.120  16.701   7.050
 9147POPC   C4A60558   5.103  16.694   7.350
 9147POPC   C1B60559   4.929  16.505   6.450
 9147POPC   C2B60560   4.946  16.558   6.750
 9147POPC   C3B60561   4.973  16.559   7.050
 9147POPC   C4B60562   4.931  16.532   7.350
 9148POPC   NC360563  12.885  12.114   5.550
 9148POPC   PO460564  12.892  12.110   5.850
 9148POPC   GL160565  12.820  12.065   6.150
 9148POPC   GL260566  12.739  12.145   6.150
 9148POPC   C1A60567  12.819  12.064   6.450
 9148POPC   D2A60568  12.832  12.062   6.750
 9148POPC   C3A60569  12.872  12.095   7.050
 9148POPC   C4A60570  12.830  12.058   7.350
 9148POPC   C1B60571  12.646  12.214   6.450
 9148POPC   C2B60572  12.593  12.157   6.750
 9148POPC   C3B60573  12.644  12.200   7.050
 9148POPC   C4B60574  12.602  12.175   7.350
 9149POPC   NC360575   7.455  32.222   5.550
 9149POPC   PO460576   7.463  32.200   5.850
 9149POPC   GL160577   7.412  32.230   6.150
 9149POPC   GL260578   7.542  32.186   6.150
 9149POPC   C1A60579   7.431  32.273   6.450
 9149POPC   D2A60580   7.427  32.277   6.750
 9149POPC   C3A60581   7.380  32.273   7.050
 9149POPC   C4A60582   7.462  32.215   7.350
 9149POPC   C1B60583   7.597  32.091   6.450
 9149POPC   C2B60584   7.595  32.103   6.750
 9149POPC   C3B60585   7.659  32.158   7.050
 9149POPC   C4B60586   7.669  32.081   7.350
 9150POPC   NC360587   5.830  32.220   5.550
 9150POPC   PO460588   5.890  32.249   5.850
 9150POPC   GL160589   5.910  32.222   6.150
 9150POPC   GL260590   5.825  32.081   6.150
 9150POPC   C1A60591   5.882  32.253   6.450
 9150POPC   D2A60592   5.915  32.223   6.750
 9150POPC   C3A60593   5.874  32.284   7.050
 9150POPC   C4A60594   5.853  32.294   7.350
 9150POPC   C1B60595   5.863  32.044   6.450
 9150POPC   C2B60596   5.839  32.016   6.750
 9150POPC   C3B60597   5.900  31.957   7.050
 9150POPC   C4B60598   5.850  31.972   7.350
 9151POPC   NC360599   5.897  40.750   5.550
 9151POPC   PO460600   5.879  40.819   5.850
 9151POPC   GL160601   5.862  40.759   6.150
 9151POPC   GL260602   5.808  40.617   6.150
 9151POPC   C1A60603   5.918  40.794   6.450
 9151POPC   D2A60604   5.918  40.778   6.750
 9151POPC   C3A60605   5.872  40.751   7.050
 9151POPC   C4A60606   5.843  40.820   7.350
 9151POPC   C1B60607   5.748  40.546   6.450
 9151POPC   C2B60608   5.813  40.586   6.750
 9151POPC   C3B60609   5.808  40.560   7.050
 9151POPC   C4B60610   5.811  40.509   7.350
 9152POPC   NC360611   3.513  12.810   5.550
 9152POPC   PO460612   3.520  12.851   5.850
 9152POPC   GL160613   3.577  12.883   6.150
 9152POPC   GL260614   3.529  12.733   6.150
 9152POPC   C1A60615   3.564  12.887   6.450
 9152POPC   D2A60616   3.542  12.834   6.750
 9152POPC   C3A60617   3.590  12.901   7.050
 9152POPC   C4A60618   3.501  12.868   7.350
 9152POPC   C1B60619   3.499  12.645   6.450
 9152POPC   C2B60620   3.443  12.620   6.750
 9152POPC   C3B60621   3.463  12.644   7.050
 9152POPC   C4B60622   3.467  12.590   7.350
 9153POPC   NC360623  33.776   3.561   5.550
 9153POPC   PO460624  33.779   3.527   5.850
 9153POPC   GL160625  33.771   3.571   6.150
 9153POPC   GL260626  33.913   3.611   6.150
 9153POPC   C1A60627  33.757   3.519   6.450
 9153POPC   D2A60628  33.845   3.568   6.750
 9153POPC   C3A60629  33.833   3.559   7.050
 9153POPC   C4A60630  33.804   3.573   7.350
 9153POPC   C1B60631  34.064   3.585   6.450
 9153POPC   C2B60632  34.039   3.630   6.750
 9153POPC   C3B60633  34.091   3.550   7.050
 9153POPC   C4B60634  34.007   3.631   7.350
 9154POPC   NC360635  18.303  14.436   5.550
 9154POPC   PO460636  18.311  14.431   5.850
 9154POPC   GL160637  18.264  14.382   6.150
 9154POPC   GL260638  18.338  14.501   6.150
 9154POPC   C1A60639  18.282  14.354   6.450
 9154POPC   D2A60640  18.239  14.388   6.750
 9154POPC   C3A60641  18.311  14.395   7.050
 9154POPC   C4A60642  18.323  14.377   7.350
 9154POPC   C1B60643  18.324  14.684   6.450
 9154POPC   C2B60644  18.385  14.627   6.750
 9154POPC   C3B60645  18.318  14.681   7.050
 9154POPC   C4B60646  18.387  14.683   7.350
 9155POPC   NC360647  42.374  33.071   5.550
 9155POPC   PO460648  42.382  33.029   5.850
 9155POPC   GL160649  42.350  32.979   6.150
 9155POPC   GL260650  42.243  32.951   6.150
 9155POPC   C1A60651  42.361  33.046   6.450
 9155POPC   D2A60652  42.342  33.068   6.750
 9155POPC   C3A60653  42.366  33.028   7.050
 9155POPC   C4A60654  42.372  33.025   7.350
 9155POPC   C1B60655  42.133  32.858   6.450
 9155POPC   C2B60656  42.151  32.811   6.750
 9155POPC   C3B60657  42.189  32.835   7.050
 9155POPC   C4B60658  42.131  32.835   7.350
 9156POPC   NC360659   1.222   1.244   5.550
 9156POPC   PO460660   1.181   1.255   5.850
 9156POPC   GL160661   1.178   1.176   6.150
 9156POPC   GL260662   1.161   1.262   6.150
 9156POPC   C1A60663   1.255   1.255   6.450
 9156POPC   D2A60664   1.207   1.206   6.750
 9156POPC   C3A60665   1.261   1.251   7.050
 9156POPC   C4A60666   1.212   1.203   7.350
 9156POPC   C1B60667   1.033   1.357   6.450
 9156POPC   C2B60668   1.022   1.403   6.750
 9156POPC   C3B60669   1.076   1.404   7.050
 9156POPC   C4B60670   1.049   1.370   7.350
 9157POPC   NC360671  21.419   9.021   5.550
 9157POPC   PO460672  21.373   9.000   5.850
 9157POPC   GL160673  21.402   8.932   6.150
 9157POPC   GL260674  21.304   8.945   6.150
 9157POPC   C1A60675  21.382   9.016   6.450
 9157POPC   D2A60676  21.388   9.019   6.750
 9157POPC   C3A60677  21.393   8.964   7.050
 9157POPC   C4A60678  21.406   8.972   7.350
 9157POPC   C1B60679  21.193   8.835   6.450
 9157POPC   C2B60680  21.131   8.881   6.750
 9157POPC   C3B60681  21.159   8.873   7.050
 9157POPC   C4B60682  21.165   8.881   7.350
 9158POPC   NC360683  19.805  28.390   5.550
 9158POPC   PO460684  19.858  28.357   5.850
 9158POPC   GL160685  19.857  28.410   6.150
 9158POPC   GL260686  19.915  28.385   6.150
 9158POPC   C1A60687  19.816  28.411   6.450
 9158POPC   D2A60688  19.804  28.413   6.750
 9158POPC   C3A60689  19.853  28.327   7.050
 9158POPC   C4A60690  19.798  28.415   7.350
 9158POPC   C1B60691  20.073  28.326   6.450
 9158POPC   C2B60692  20.093  28.304   6.750
 9158POPC   C3B60693  20.084  28.309   7.050
 9158POPC   C4B60694  20.033  28.253   7.350
 9159POPC   NC360695  26.793  20.615   5.550
 9159POPC   PO460696  26.836  20.585   5.850
 9159POPC   GL160697  26.843  20.640   6.150
 9159POPC   GL260698  26.927  20.615   6.150
 9159POPC   C1A60699  26.854  20.616   6.450
 9159POPC   D2A60700  26.855  20.645   6.750
 9159POPC   C3A60701  26.821  20.569   7.050
 9159POPC   C4A60702  26.799  20.564   7.350
 9159POPC   C1B60703  27.032  20.639   6.450
 9159POPC   C2B60704  27.057  20.600   6.750
 9159POPC   C3B60705  27.058  20.570   7.050
 9159POPC   C4B60706  27.026  20.642   7.350
 9160POPC   NC360707   3.541  43.903   5.550
 9160POPC   PO460708   3.585  43.915   5.850
 9160POPC   GL160709   3.576  43.901   6.150
 9160POPC   GL260710   3.518  43.975   6.150
 9160POPC   C1A60711   3.492  43.860   6.450
 9160POPC   D2A60712   3.515  43.902   6.750
 9160POPC   C3A60713   3.524  43.926   7.050
 9160POPC   C4A60714   3.569  43.929   7.350
 9160POPC   C1B60715   3.520  44.110   6.450
 9160POPC   C2B60716   3.471  44.130   6.750
 9160POPC   C3B60717   3.460  44.124   7.050
 9160POPC   C4B60718   3.483  44.155   7.350
 9161POPC   NC360719  21.394  33.833   5.550
 9161POPC   PO460720  21.427  33.806   5.850
 9161POPC   GL160721  21.355  33.843   6.150
 9161POPC   GL260722  21.501  33.820   6.150
 9161POPC   C1A60723  21.379  33.792   6.450
 9161POPC   D2A60724  21.348  33.758   6.750
 9161POPC   C3A60725  21.372  33.840   7.050
 9161POPC   C4A60726  21.416  33.769   7.350
 9161POPC   C1B60727  21.578  33.895   6.450
 9161POPC   C2B60728  21.631  33.942   6.750
 9161POPC   C3B60729  21.578  33.908   7.050
 9161POPC   C4B60730  21.628  33.937   7.350
 9162POPC   NC360731  34.595  36.171   5.550
 9162POPC   PO460732  34.570  36.091   5.850
 9162POPC   GL160733  34.603  36.163   6.150
 9162POPC   GL260734  34.675  36.191   6.150
 9162POPC   C1A60735  34.608  36.124   6.450
 9162POPC   D2A60736  34.576  36.098   6.750
 9162POPC   C3A60737  34.611  36.092   7.050
 9162POPC   C4A60738  34.581  36.148   7.350
 9162POPC   C1B60739  34.813  36.155   6.450
 9162POPC   C2B60740  34.804  36.231   6.750
 9162POPC   C3B60741  34.796  36.163   7.050
 9162POPC   C4B60742  34.865  36.236   7.350
 9163POPC   NC360743  32.275   2.762   5.550
 9163POPC   PO460744  32.236   2.727   5.850
 9163POPC   GL160745  32.245   2.723   6.150
 9163POPC   GL260746  32.400   2.710   6.150
 9163POPC   C1A60747  32.284   2.808   6.450
 9163POPC   D2A60748  32.204   2.801   6.750
 9163POPC   C3A60749  32.235   2.810   7.050
 9163POPC   C4A60750  32.267   2.726   7.350
 9163POPC   C1B60751  32.461   2.746   6.450
 9163POPC   C2B60752  32.498   2.700   6.750
 9163POPC   C3B60753  32.465   2.712   7.050
 9163POPC   C4B60754  32.514   2.768   7.350
 9164POPC   NC360755  36.177   5.846   5.550
 9164POPC   PO460756  36.175   5.911   5.850
 9164POPC   GL160757  36.165   5.889   6.150
 9164POPC   GL260758  36.096   6.009   6.150
 9164POPC   C1A60759  36.173   5.885   6.450
 9164POPC   D2A60760  36.124   5.901   6.750
 9164POPC   C3A60761  36.078   5.852   7.050
 9164POPC   C4A60762  36.095   5.830   7.350
 9164POPC   C1B60763  36.110   6.095   6.450
 9164POPC   C2B60764  36.147   6.157   6.750
 9164POPC   C3B60765  36.107   6.095   7.050
 9164POPC   C4B60766  36.098   6.152   7.350
 9165POPC   NC360767  41.558   7.419   5.550
 9165POPC   PO460768  41.586   7.388   5.850
 9165POPC   GL160769  41.577   7.446   6.150
 9165POPC   GL260770  41.460   7.524   6.150
 9165POPC   C1A60771  41.562   7.394   6.450
 9165POPC   D2A60772  41.570   7.413   6.750
 9165POPC   C3A60773  41.526   7.430   7.050
 9165POPC   C4A60774  41.517   7.466   7.350
 9165POPC   C1B60775  41.434   7.649   6.450
 9165POPC   C2B60776  41.488   7.689   6.750
 9165POPC   C3B60777  41.431   7.676   7.050
 9165POPC   C4B60778  41.416   7.599   7.350
 9166POPC   NC360779  43.107   6.688   5.550
 9166POPC   PO460780  43.061   6.674   5.850
 9166POPC   GL160781  43.075   6.599   6.150
 9166POPC   GL260782  43.078   6.791   6.150
 9166POPC   C1A60783  43.135   6.636   6.450
 9166POPC   D2A60784  43.074   6.613   6.750
 9166POPC   C3A60785  43.132   6.681   7.050
 9166POPC   C4A60786  43.069   6.672   7.350
 9166POPC   C1B60787  43.082   6.887   6.450
 9166POPC   C2B60788  42.995   6.855   6.750
 9166POPC   C3B60789  43.001   6.870   7.050
 9166POPC   C4B60790  43.078   6.869   7.350
 9167POPC   NC360791  42.367   1.221   5.550
 9167POPC   PO460792  42.315   1.254   5.850
 9167POPC   GL160793  42.377   1.188   6.150
 9167POPC   GL260794  42.206   1.327   6.150
 9167POPC   C1A60795  42.357   1.207   6.450
 9167POPC   D2A60796  42.308   1.236   6.750
 9167POPC   C3A60797  42.384   1.240   7.050
 9167POPC   C4A60798  42.307   1.174   7.350
 9167POPC   C1B60799  42.196   1.400   6.450
 9167POPC   C2B60800  42.146   1.350   6.750
 9167POPC   C3B60801  42.172   1.357   7.050
 9167POPC   C4B60802  42.122   1.430   7.350
 9168POPC   NC360803   9.005   5.076   5.550
 9168POPC   PO460804   8.923   5.078   5.850
 9168POPC   GL160805   8.948   5.056   6.150
 9168POPC   GL260806   8.904   5.200   6.150
 9168POPC   C1A60807   8.930   5.119   6.450
 9168POPC   D2A60808   8.954   5.075   6.750
 9168POPC   C3A60809   8.989   5.076   7.050
 9168POPC   C4A60810   8.966   5.061   7.350
 9168POPC   C1B60811   8.905   5.302   6.450
 9168POPC   C2B60812   8.937   5.352   6.750
 9168POPC   C3B60813   8.883   5.331   7.050
 9168POPC   C4B60814   8.918   5.329   7.350
 9169POPC   NC360815  19.077  16.697   5.550
 9169POPC   PO460816  19.060  16.734   5.850
 9169POPC   GL160817  19.052  16.737   6.150
 9169POPC   GL260818  18.918  16.847   6.150
 9169POPC   C1A60819  19.101  16.725   6.450
 9169POPC   D2A60820  19.061  16.718   6.750
 9169POPC   C3A60821  19.018  16.697   7.050
 9169POPC   C4A60822  19.048  16.737   7.350
 9169POPC   C1B60823  18.846  16.873   6.450
 9169POPC   C2B60824  18.886  16.905   6.750
 9169POPC   C3B60825  18.816  16.929   7.050
 9169POPC   C4B60826  18.848  16.837   7.350
 9170POPC   NC360827   8.187   0.451   5.550
 9170POPC   PO460828   8.169   0.457   5.850
 9170POPC   GL160829   8.189   0.388   6.150
 9170POPC   GL260830   8.342   0.416   6.150
 9170POPC   C1A60831   8.148   0.487   6.450
 9170POPC   D2A60832   8.153   0.486   6.750
 9170POPC   C3A60833   8.172   0.470   7.050
 9170POPC   C4A60834   8.155   0.471   7.350
 9170POPC   C1B60835   8.447   0.314   6.450
 9170POPC   C2B60836   8.411   0.251   6.750
 9170POPC   C3B60837   8.406   0.317   7.050
 9170POPC   C4B60838   8.452   0.298   7.350
 9171POPC   NC360839  26.803   7.462   5.550
 9171POPC   PO460840  26.853   7.453   5.850
 9171POPC   GL160841  26.857   7.390   6.150
 9171POPC   GL260842  26.892   7.346   6.150
 9171POPC   C1A60843  26.789   7.431   6.450
 9171POPC   D2A60844  26.820   7.411   6.750
 9171POPC   C3A60845  26.779   7.376   7.050
 9171POPC   C4A60846  26.793   7.467   7.350
 9171POPC   C1B60847  27.047   7.241   6.450
 9171POPC   C2B60848  27.013   7.285   6.750
 9171POPC   C3B60849  27.050   7.296   7.050
 9171POPC   C4B60850  27.020   7.287   7.350
 9172POPC   NC360851  15.981  19.035   5.550
 9172POPC   PO460852  15.995  19.108   5.850
 9172POPC   GL160853  15.996  19.033   6.150
 9172POPC   GL260854  15.907  19.152   6.150
 9172POPC   C1A60855  15.928  19.050   6.450
 9172POPC   D2A60856  15.995  19.033   6.750
 9172POPC   C3A60857  15.968  19.060   7.050
 9172POPC   C4A60858  16.001  19.094   7.350
 9172POPC   C1B60859  15.845  19.249   6.450
 9172POPC   C2B60860  15.878  19.307   6.750
 9172POPC   C3B60861  15.827  19.275   7.050
 9172POPC   C4B60862  15.857  19.340   7.350
 9173POPC   NC360863  37.710  43.869   5.550
 9173POPC   PO460864  37.630  43.868   5.850
 9173POPC   GL160865  37.705  43.841   6.150
 9173POPC   GL260866  37.651  44.012   6.150
 9173POPC   C1A60867  37.689  43.897   6.450
 9173POPC   D2A60868  37.634  43.935   6.750
 9173POPC   C3A60869  37.675  43.929   7.050
 9173POPC   C4A60870  37.644  43.919   7.350
 9173POPC   C1B60871  37.649  44.128   6.450
 9173POPC   C2B60872  37.666  44.156   6.750
 9173POPC   C3B60873  37.667  44.122   7.050
 9173POPC   C4B60874  37.652  44.167   7.350
 9174POPC   NC360875  24.469  13.586   5.550
 9174POPC   PO460876  24.457  13.582   5.850
 9174POPC   GL160877  24.537  13.624   6.150
 9174POPC   GL260878  24.415  13.578   6.150
 9174POPC   C1A60879  24.488  13.585   6.450
 9174POPC   D2A60880  24.448  13.608   6.750
 9174POPC   C3A60881  24.509  13.581   7.050
 9174POPC   C4A60882  24.450  13.665   7.350
 9174POPC   C1B60883  24.246  13.653   6.450
 9174POPC   C2B60884  24.218  13.628   6.750
 9174POPC   C3B60885  24.232  13.630   7.050
 9174POPC   C4B60886  24.223  13.626   7.350
 9175POPC   NC360887  32.210  16.776   5.550
 9175POPC   PO460888  32.278  16.748   5.850
 9175POPC   GL160889  32.201  16.723   6.150
 9175POPC   GL260890  32.357  16.728   6.150
 9175POPC   C1A60891  32.261  16.716   6.450
 9175POPC   D2A60892  32.206  16.726   6.750
 9175POPC   C3A60893  32.208  16.715   7.050
 9175POPC   C4A60894  32.249  16.723   7.350
 9175POPC   C1B60895  32.513  16.666   6.450
 9175POPC   C2B60896  32.537  16.663   6.750
 9175POPC   C3B60897  32.444  16.641   7.050
 9175POPC   C4B60898  32.490  16.646   7.350
 9176POPC   NC360899  11.346  21.351   5.550
 9176POPC   PO460900  11.335  21.426   5.850
 9176POPC   GL160901  11.262  21.413   6.150
 9176POPC   GL260902  11.197  21.404   6.150
 9176POPC   C1A60903  11.285  21.355   6.450
 9176POPC   D2A60904  11.327  21.419   6.750
 9176POPC   C3A60905  11.303  21.417   7.050
 9176POPC   C4A60906  11.255  21.358   7.350
 9176POPC   C1B60907  11.065  21.495   6.450
 9176POPC   C2B60908  11.036  21.462   6.750
 9176POPC   C3B60909  11.043  21.491   7.050
 9176POPC   C4B60910  11.082  21.455   7.350
 9177POPC   NC360911  22.976   0.488   5.550
 9177POPC   PO460912  22.987   0.435   5.850
 9177POPC   GL160913  22.903   0.466   6.150
 9177POPC   GL260914  22.966   0.540   6.150
 9177POPC   C1A60915  22.921   0.423   6.450
 9177POPC   D2A60916  22.907   0.401   6.750
 9177POPC   C3A60917  22.974   0.441   7.050
 9177POPC   C4A60918  22.957   0.461   7.350
 9177POPC   C1B60919  22.925   0.677   6.450
 9177POPC   C2B60920  22.949   0.705   6.750
 9177POPC   C3B60921  22.945   0.703   7.050
 9177POPC   C4B60922  22.933   0.682   7.350
 9178POPC   NC360923   8.155   2.002   5.550
 9178POPC   PO460924   8.178   1.974   5.850
 9178POPC   GL160925   8.232   1.957   6.150
 9178POPC   GL260926   8.318   1.912   6.150
 9178POPC   C1A60927   8.234   1.974   6.450
 9178POPC   D2A60928   8.163   2.009   6.750
 9178POPC   C3A60929   8.216   2.036   7.050
 9178POPC   C4A60930   8.239   1.980   7.350
 9178POPC   C1B60931   8.455   1.871   6.450
 9178POPC   C2B60932   8.470   1.875   6.750
 9178POPC   C3B60933   8.453   1.872   7.050
 9178POPC   C4B60934   8.457   1.936   7.350
 9179POPC   NC360935  24.461   1.991   5.550
 9179POPC   PO460936  24.463   2.034   5.850
 9179POPC   GL160937  24.509   2.034   6.150
 9179POPC   GL260938  24.571   2.129   6.150
 9179POPC   C1A60939  24.448   1.980   6.450
 9179POPC   D2A60940  24.467   2.028   6.750
 9179POPC   C3A60941  24.486   2.003   7.050
 9179POPC   C4A60942  24.518   1.967   7.350
 9179POPC   C1B60943  24.606   2.276   6.450
 9179POPC   C2B60944  24.557   2.197   6.750
 9179POPC   C3B60945  24.531   2.213   7.050
 9179POPC   C4B60946  24.582   2.197   7.350
 9180POPC   NC360947  30.685   8.958   5.550
 9180POPC   PO460948  30.741   8.931   5.850
 9180POPC   GL160949  30.722   9.006   6.150
 9180POPC   GL260950  30.762   8.955   6.150
 9180POPC   C1A60951  30.715   9.011   6.450
 9180POPC   D2A60952  30.692   8.945   6.750
 9180POPC   C3A60953  30.683   9.009   7.050
 9180POPC   C4A60954  30.660   8.988   7.350
 9180POPC   C1B60955  30.911   8.859   6.450
 9180POPC   C2B60956  30.922   8.822   6.750
 9180POPC   C3B60957  30.888   8.900   7.050
 9180POPC   C4B60958  30.945   8.836   7.350
 9181POPC   NC360959  24.452  29.921   5.550
 9181POPC   PO460960  24.467  29.922   5.850
 9181POPC   GL160961  24.485  29.955   6.150
 9181POPC   GL260962  24.489  30.007   6.150
 9181POPC   C1A60963  24.461  29.924   6.450
 9181POPC   D2A60964  24.487  29.887   6.750
 9181POPC   C3A60965  24.526  29.966   7.050
 9181POPC   C4A60966  24.456  29.903   7.350
 9181POPC   C1B60967  24.424  30.199   6.450
 9181POPC   C2B60968  24.418  30.122   6.750
 9181POPC   C3B60969  24.409  30.120   7.050
 9181POPC   C4B60970  24.394  30.200   7.350
 9182POPC   NC360971  20.630  19.093   5.550
 9182POPC   PO460972  20.628  19.011   5.850
 9182POPC   GL160973  20.603  19.045   6.150
 9182POPC   GL260974  20.534  19.190   6.150
 9182POPC   C1A60975  20.622  19.056   6.450
 9182POPC   D2A60976  20.563  19.071   6.750
 9182POPC   C3A60977  20.614  19.035   7.050
 9182POPC   C4A60978  20.596  19.065   7.350
 9182POPC   C1B60979  20.494  19.247   6.450
 9182POPC   C2B60980  20.487  19.234   6.750
 9182POPC   C3B60981  20.425  19.282   7.050
 9182POPC   C4B60982  20.478  19.239   7.350
 9183POPC   NC360983   5.126  18.269   5.550
 9183POPC   PO460984   5.143  18.311   5.850
 9183POPC   GL160985   5.106  18.234   6.150
 9183POPC   GL260986   5.117  18.156   6.150
 9183POPC   C1A60987   5.103  18.324   6.450
 9183POPC   D2A60988   5.113  18.242   6.750
 9183POPC   C3A60989   5.090  18.303   7.050
 9183POPC   C4A60990   5.050  18.313   7.350
 9183POPC   C1B60991   5.178  18.042   6.450
 9183POPC   C2B60992   5.169  18.003   6.750
 9183POPC   C3B60993   5.148  18.025   7.050
 9183POPC   C4B60994   5.165  18.066   7.350
 9184POPC   NC360995  22.207  42.329   5.550
 9184POPC   PO460996  22.139  42.347   5.850
 9184POPC   GL160997  22.143  42.302   6.150
 9184POPC   GL260998  22.265  42.447   6.150
 9184POPC   C1A60999  22.147  42.326   6.450
 9184POPC   D2A61000  22.125  42.371   6.750
 9184POPC   C3A61001  22.187  42.319   7.050
 9184POPC   C4A61002  22.126  42.332   7.350
 9184POPC   C1B61003  22.363  42.464   6.450
 9184POPC   C2B61004  22.320  42.446   6.750
 9184POPC   C3B61005  22.374  42.491   7.050
 9184POPC   C4B61006  22.321  42.465   7.350
 9185POPC   NC361007   0.487  17.506   5.550
 9185POPC   PO461008   0.449  17.531   5.850
 9185POPC   GL161009   0.427  17.472   6.150
 9185POPC   GL261010   0.408  17.588   6.150
 9185POPC   C1A61011   0.419  17.548   6.450
 9185POPC   D2A61012   0.432  17.499   6.750
 9185POPC   C3A61013   0.443  17.527   7.050
 9185POPC   C4A61014   0.461  17.498   7.350
 9185POPC   C1B61015   0.355  17.742   6.450
 9185POPC   C2B61016   0.386  17.725   6.750
 9185POPC   C3B61017   0.349  17.717   7.050
 9185POPC   C4B61018   0.384  17.725   7.350
 9186POPC   NC361019   7.421  24.440   5.550
 9186POPC   PO461020   7.385  24.499   5.850
 9186POPC   GL161021   7.393  24.446   6.150
 9186POPC   GL261022   7.471  24.413   6.150
 9186POPC   C1A61023   7.468  24.498   6.450
 9186POPC   D2A61024   7.377  24.526   6.750
 9186POPC   C3A61025   7.381  24.481   7.050
 9186POPC   C4A61026   7.384  24.490   7.350
 9186POPC   C1B61027   7.546  24.300   6.450
 9186POPC   C2B61028   7.534  24.215   6.750
 9186POPC   C3B61029   7.534  24.260   7.050
 9186POPC   C4B61030   7.509  24.250   7.350
 9187POPC   NC361031   2.748  36.870   5.550
 9187POPC   PO461032   2.787  36.910   5.850
 9187POPC   GL161033   2.723  36.854   6.150
 9187POPC   GL261034   2.848  36.952   6.150
 9187POPC   C1A61035   2.739  36.856   6.450
 9187POPC   D2A61036   2.731  36.922   6.750
 9187POPC   C3A61037   2.797  36.884   7.050
 9187POPC   C4A61038   2.730  36.922   7.350
 9187POPC   C1B61039   2.968  37.084   6.450
 9187POPC   C2B61040   2.896  37.058   6.750
 9187POPC   C3B61041   2.938  37.146   7.050
 9187POPC   C4B61042   2.893  37.136   7.350
 9188POPC   NC361043   8.221  38.459   5.550
 9188POPC   PO461044   8.245  38.444   5.850
 9188POPC   GL161045   8.197  38.461   6.150
 9188POPC   GL261046   8.247  38.336   6.150
 9188POPC   C1A61047   8.167  38.427   6.450
 9188POPC   D2A61048   8.229  38.441   6.750
 9188POPC   C3A61049   8.242  38.471   7.050
 9188POPC   C4A61050   8.153  38.481   7.350
 9188POPC   C1B61051   8.195  38.222   6.450
 9188POPC   C2B61052   8.197  38.205   6.750
 9188POPC   C3B61053   8.212  38.180   7.050
 9188POPC   C4B61054   8.265  38.175   7.350
 9189POPC   NC361055   6.660   7.422   5.550
 9189POPC   PO461056   6.611   7.470   5.850
 9189POPC   GL161057   6.693   7.438   6.150
 9189POPC   GL261058   6.737   7.407   6.150
 9189POPC   C1A61059   6.648   7.435   6.450
 9189POPC   D2A61060   6.677   7.439   6.750
 9189POPC   C3A61061   6.597   7.383   7.050
 9189POPC   C4A61062   6.639   7.404   7.350
 9189POPC   C1B61063   6.841   7.264   6.450
 9189POPC   C2B61064   6.886   7.280   6.750
 9189POPC   C3B61065   6.896   7.348   7.050
 9189POPC   C4B61066   6.907   7.334   7.350
 9190POPC   NC361067  39.209   9.737   5.550
 9190POPC   PO461068  39.219   9.796   5.850
 9190POPC   GL161069  39.189   9.719   6.150
 9190POPC   GL261070  39.081   9.789   6.150
 9190POPC   C1A61071  39.239   9.757   6.450
 9190POPC   D2A61072  39.189   9.699   6.750
 9190POPC   C3A61073  39.267   9.775   7.050
 9190POPC   C4A61074  39.200   9.772   7.350
 9190POPC   C1B61075  38.973   9.796   6.450
 9190POPC   C2B61076  39.025   9.765   6.750
 9190POPC   C3B61077  38.983   9.735   7.050
 9190POPC   C4B61078  39.029   9.790   7.350
 9191POPC   NC361079  43.840  35.378   5.550
 9191POPC   PO461080  43.889  35.381   5.850
 9191POPC   GL161081  43.911  35.382   6.150
 9191POPC   GL261082  43.766  35.326   6.150
 9191POPC   C1A61083  43.885  35.350   6.450
 9191POPC   D2A61084  43.844  35.346   6.750
 9191POPC   C3A61085  43.888  35.350   7.050
 9191POPC   C4A61086  43.840  35.335   7.350
 9191POPC   C1B61087  43.622  35.361   6.450
 9191POPC   C2B61088  43.680  35.363   6.750
 9191POPC   C3B61089  43.598  35.366   7.050
 9191POPC   C4B61090  43.602  35.364   7.350
 9192POPC   NC361091  35.376  35.363   5.550
 9192POPC   PO461092  35.402  35.373   5.850
 9192POPC   GL161093  35.357  35.305   6.150
 9192POPC   GL261094  35.350  35.489   6.150
 9192POPC   C1A61095  35.355  35.371   6.450
 9192POPC   D2A61096  35.321  35.318   6.750
 9192POPC   C3A61097  35.358  35.382   7.050
 9192POPC   C4A61098  35.399  35.368   7.350
 9192POPC   C1B61099  35.370  35.582   6.450
 9192POPC   C2B61100  35.413  35.600   6.750
 9192POPC   C3B61101  35.417  35.648   7.050
 9192POPC   C4B61102  35.341  35.644   7.350
 9193POPC   NC361103   7.384  25.242   5.550
 9193POPC   PO461104   7.394  25.290   5.850
 9193POPC   GL161105   7.374  25.309   6.150
 9193POPC   GL261106   7.563  25.197   6.150
 9193POPC   C1A61107   7.408  25.273   6.450
 9193POPC   D2A61108   7.392  25.232   6.750
 9193POPC   C3A61109   7.430  25.251   7.050
 9193POPC   C4A61110   7.453  25.249   7.350
 9193POPC   C1B61111   7.693  25.224   6.450
 9193POPC   C2B61112   7.679  25.228   6.750
 9193POPC   C3B61113   7.643  25.218   7.050
 9193POPC   C4B61114   7.705  25.209   7.350
 9194POPC   NC361115  24.506  25.309   5.550
 9194POPC   PO461116  24.532  25.284   5.850
 9194POPC   GL161117  24.537  25.261   6.150
 9194POPC   GL261118  24.546  25.332   6.150
 9194POPC   C1A61119  24.495  25.248   6.450
 9194POPC   D2A61120  24.483  25.227   6.750
 9194POPC   C3A61121  24.482  25.293   7.050
 9194POPC   C4A61122  24.440  25.263   7.350
 9194POPC   C1B61123  24.647  25.440   6.450
 9194POPC   C2B61124  24.652  25.426   6.750
 9194POPC   C3B61125  24.670  25.463   7.050
 9194POPC   C4B61126  24.646  25.454   7.350
 9195POPC   NC361127  20.632  15.218   5.550
 9195POPC   PO461128  20.625  15.148   5.850
 9195POPC   GL161129  20.564  15.228   6.150
 9195POPC   GL261130  20.514  15.069   6.150
 9195POPC   C1A61131  20.605  15.201   6.450
 9195POPC   D2A61132  20.596  15.144   6.750
 9195POPC   C3A61133  20.650  15.220   7.050
 9195POPC   C4A61134  20.590  15.163   7.350
 9195POPC   C1B61135  20.431  14.944   6.450
 9195POPC   C2B61136  20.440  14.965   6.750
 9195POPC   C3B61137  20.413  14.980   7.050
 9195POPC   C4B61138  20.478  14.970   7.350
 9196POPC   NC361139  35.359   0.398   5.550
 9196POPC   PO461140  35.385   0.476   5.850
 9196POPC   GL161141  35.333   0.479   6.150
 9196POPC   GL261142  35.365   0.524   6.150
 9196POPC   C1A61143  35.332   0.414   6.450
 9196POPC   D2A61144  35.387   0.436   6.750
 9196POPC   C3A61145  35.371   0.423   7.050
 9196POPC   C4A61146  35.318   0.462   7.350
 9196POPC   C1B61147  35.430   0.632   6.450
 9196POPC   C2B61148  35.413   0.641   6.750
 9196POPC   C3B61149  35.508   0.636   7.050
 9196POPC   C4B61150  35.465   0.667   7.350
 9197POPC   NC361151  20.614  20.589   5.550
 9197POPC   PO461152  20.591  20.594   5.850
 9197POPC   GL161153  20.650  20.620   6.150
 9197POPC   GL261154  20.515  20.701   6.150
 9197POPC   C1A61155  20.591  20.575   6.450
 9197POPC   D2A61156  20.631  20.633   6.750
 9197POPC   C3A61157  20.636  20.659   7.050
 9197POPC   C4A61158  20.651  20.644   7.350
 9197POPC   C1B61159  20.445  20.794   6.450
 9197POPC   C2B61160  20.532  20.857   6.750
 9197POPC   C3B61161  20.462  20.867   7.050
 9197POPC   C4B61162  20.453  20.825   7.350
 9198POPC   NC361163  29.151  34.564   5.550
 9198POPC   PO461164  29.185  34.545   5.850
 9198POPC   GL161165  29.161  34.602   6.150
 9198POPC   GL261166  29.295  34.526   6.150
 9198POPC   C1A61167  29.102  34.559   6.450
 9198POPC   D2A61168  29.155  34.614   6.750
 9198POPC   C3A61169  29.177  34.580   7.050
 9198POPC   C4A61170  29.136  34.591   7.350
 9198POPC   C1B61171  29.363  34.483   6.450
 9198POPC   C2B61172  29.402  34.463   6.750
 9198POPC   C3B61173  29.384  34.463   7.050
 9198POPC   C4B61174  29.353  34.498   7.350
 9199POPC   NC361175  10.498   3.503   5.550
 9199POPC   PO461176  10.535   3.562   5.850
 9199POPC   GL161177  10.479   3.546   6.150
 9199POPC   GL261178  10.430   3.605   6.150
 9199POPC   C1A61179  10.500   3.581   6.450
 9199POPC   D2A61180  10.503   3.515   6.750
 9199POPC   C3A61181  10.571   3.555   7.050
 9199POPC   C4A61182  10.501   3.519   7.350
 9199POPC   C1B61183  10.298   3.694   6.450
 9199POPC   C2B61184  10.344   3.717   6.750
 9199POPC   C3B61185  10.295   3.646   7.050
 9199POPC   C4B61186  10.344   3.706   7.350
 9200POPC   NC361187  25.281  12.101   5.550
 9200POPC   PO461188  25.293  12.120   5.850
 9200POPC   GL161189  25.280  12.046   6.150
 9200POPC   GL261190  25.098  12.078   6.150
 9200POPC   C1A61191  25.257  12.056   6.450
 9200POPC   D2A61192  25.254  12.088   6.750
 9200POPC   C3A61193  25.290  12.118   7.050
 9200POPC   C4A61194  25.250  12.123   7.350
 9200POPC   C1B61195  25.013  12.042   6.450
 9200POPC   C2B61196  25.024  12.045   6.750
 9200POPC   C3B61197  25.044  12.064   7.050
 9200POPC   C4B61198  25.004  11.995   7.350
 9201POPC   NC361199  38.502  39.996   5.550
 9201POPC   PO461200  38.474  40.017   5.850
 9201POPC   GL161201  38.419  40.003   6.150
 9201POPC   GL261202  38.539  40.142   6.150
 9201POPC   C1A61203  38.413  40.054   6.450
 9201POPC   D2A61204  38.490  39.958   6.750
 9201POPC   C3A61205  38.480  39.986   7.050
 9201POPC   C4A61206  38.462  40.044   7.350
 9201POPC   C1B61207  38.605  40.209   6.450
 9201POPC   C2B61208  38.551  40.224   6.750
 9201POPC   C3B61209  38.573  40.187   7.050
 9201POPC   C4B61210  38.643  40.206   7.350
 9202POPC   NC361211  37.630   1.185   5.550
 9202POPC   PO461212  37.715   1.223   5.850
 9202POPC   GL161213  37.706   1.230   6.150
 9202POPC   GL261214  37.698   1.323   6.150
 9202POPC   C1A61215  37.630   1.228   6.450
 9202POPC   D2A61216  37.634   1.194   6.750
 9202POPC   C3A61217  37.650   1.217   7.050
 9202POPC   C4A61218  37.729   1.165   7.350
 9202POPC   C1B61219  37.800   1.454   6.450
 9202POPC   C2B61220  37.703   1.428   6.750
 9202POPC   C3B61221  37.753   1.488   7.050
 9202POPC   C4B61222  37.765   1.460   7.350
 9203POPC   NC361223  26.054  44.673   5.550
 9203POPC   PO461224  26.067  44.651   5.850
 9203POPC   GL161225  26.027  44.689   6.150
 9203POPC   GL261226  25.957  44.749   6.150
 9203POPC   C1A61227  26.035  44.614   6.450
 9203POPC   D2A61228  26.077  44.709   6.750
 9203POPC   C3A61229  26.007  44.614   7.050
 9203POPC   C4A61230  26.045  44.631   7.350
 9203POPC   C1B61231  25.846  44.856   6.450
 9203POPC   C2B61232  25.922  44.840   6.750
 9203POPC   C3B61233  25.941  44.887   7.050
 9203POPC   C4B61234  25.939  44.825   7.350
 9204POPC   NC361235  14.364  42.314   5.550
 9204POPC   PO461236  14.366  42.342   5.850
 9204POPC   GL161237  14.362  42.295   6.150
 9204POPC   GL261238  14.318  42.438   6.150
 9204POPC   C1A61239  14.365  42.365   6.450
 9204POPC   D2A61240  14.370  42.341   6.750
 9204POPC   C3A61241  14.384  42.317   7.050
 9204POPC   C4A61242  14.403  42.373   7.350
 9204POPC   C1B61243  14.276  42.574   6.450
 9204POPC   C2B61244  14.282  42.503   6.750
 9204POPC   C3B61245  14.221  42.485   7.050
 9204POPC   C4B61246  14.248  42.496   7.350
 9205POPC   NC361247   9.722  38.418   5.550
 9205POPC   PO461248   9.784  38.453   5.850
 9205POPC   GL161249   9.792  38.438   6.150
 9205POPC   GL261250   9.832  38.321   6.150
 9205POPC   C1A61251   9.699  38.459   6.450
 9205POPC   D2A61252   9.788  38.490   6.750
 9205POPC   C3A61253   9.781  38.454   7.050
 9205POPC   C4A61254   9.727  38.471   7.350
 9205POPC   C1B61255   9.915  38.274   6.450
 9205POPC   C2B61256   9.903  38.230   6.750
 9205POPC   C3B61257   9.969  38.298   7.050
 9205POPC   C4B61258   9.927  38.294   7.350
 9206POPC   NC361259  25.228   5.829   5.550
 9206POPC   PO461260  25.307   5.899   5.850
 9206POPC   GL161261  25.294   5.887   6.150
 9206POPC   GL261262  25.343   5.777   6.150
 9206POPC   C1A61263  25.265   5.903   6.450
 9206POPC   D2A61264  25.303   5.893   6.750
 9206POPC   C3A61265  25.219   5.913   7.050
 9206POPC   C4A61266  25.296   5.842   7.350
 9206POPC   C1B61267  25.418   5.664   6.450
 9206POPC   C2B61268  25.410   5.693   6.750
 9206POPC   C3B61269  25.374   5.647   7.050
 9206POPC   C4B61270  25.390   5.597   7.350
 9207POPC   NC361271  21.339  16.743   5.550
 9207POPC   PO461272  21.369  16.726   5.850
 9207POPC   GL161273  21.426  16.703   6.150
 9207POPC   GL261274  21.276  16.667   6.150
 9207POPC   C1A61275  21.374  16.712   6.450
 9207POPC   D2A61276  21.415  16.765   6.750
 9207POPC   C3A61277  21.356  16.698   7.050
 9207POPC   C4A61278  21.394  16.719   7.350
 9207POPC   C1B61279  21.196  16.639   6.450
 9207POPC   C2B61280  21.134  16.666   6.750
 9207POPC   C3B61281  21.174  16.661   7.050
 9207POPC   C4B61282  21.202  16.622   7.350
 9208POPC   NC361283  36.130  22.157   5.550
 9208POPC   PO461284  36.140  22.115   5.850
 9208POPC   GL161285  36.121  22.188   6.150
 9208POPC   GL261286  36.017  22.194   6.150
 9208POPC   C1A61287  36.172  22.148   6.450
 9208POPC   D2A61288  36.108  22.188   6.750
 9208POPC   C3A61289  36.110  22.207   7.050
 9208POPC   C4A61290  36.090  22.207   7.350
 9208POPC   C1B61291  35.924  22.221   6.450
 9208POPC   C2B61292  35.904  22.199   6.750
 9208POPC   C3B61293  35.870  22.228   7.050
 9208POPC   C4B61294  35.926  22.227   7.350
 9209POPC   NC361295  36.141  39.246   5.550
 9209POPC   PO461296  36.152  39.264   5.850
 9209POPC   GL161297  36.148  39.193   6.150
 9209POPC   GL261298  36.081  39.142   6.150
 9209POPC   C1A61299  36.173  39.200   6.450
 9209POPC   D2A61300  36.136  39.280   6.750
 9209POPC   C3A61301  36.164  39.214   7.050
 9209POPC   C4A61302  36.127  39.204   7.350
 9209POPC   C1B61303  36.136  39.026   6.450
 9209POPC   C2B61304  36.149  39.022   6.750
 9209POPC   C3B61305  36.144  38.993   7.050
 9209POPC   C4B61306  36.132  38.942   7.350
 9210POPC   NC361307  27.623  30.717   5.550
 9210POPC   PO461308  27.631  30.724   5.850
 9210POPC   GL161309  27.610  30.698   6.150
 9210POPC   GL261310  27.626  30.594   6.150
 9210POPC   C1A61311  27.565  30.647   6.450
 9210POPC   D2A61312  27.634  30.696   6.750
 9210POPC   C3A61313  27.595  30.683   7.050
 9210POPC   C4A61314  27.551  30.675   7.350
 9210POPC   C1B61315  27.765  30.477   6.450
 9210POPC   C2B61316  27.700  30.488   6.750
 9210POPC   C3B61317  27.742  30.491   7.050
 9210POPC   C4B61318  27.771  30.537   7.350
 9211POPC   NC361319  44.710  39.963   5.550
 9211POPC   PO461320  44.678  39.959   5.850
 9211POPC   GL161321  44.663  40.027   6.150
 9211POPC   GL261322  44.586  40.084   6.150
 9211POPC   C1A61323  44.632  39.980   6.450
 9211POPC   D2A61324  44.711  40.002   6.750
 9211POPC   C3A61325  44.647  39.992   7.050
 9211POPC   C4A61326  44.677  40.057   7.350
 9211POPC   C1B61327  44.403  40.109   6.450
 9211POPC   C2B61328  44.494  40.173   6.750
 9211POPC   C3B61329  44.410  40.129   7.050
 9211POPC   C4B61330  44.488  40.132   7.350
 9212POPC   NC361331  23.712  18.305   5.550
 9212POPC   PO461332  23.702  18.325   5.850
 9212POPC   GL161333  23.697  18.332   6.150
 9212POPC   GL261334  23.787  18.400   6.150
 9212POPC   C1A61335  23.701  18.318   6.450
 9212POPC   D2A61336  23.692  18.243   6.750
 9212POPC   C3A61337  23.692  18.286   7.050
 9212POPC   C4A61338  23.755  18.324   7.350
 9212POPC   C1B61339  23.864  18.437   6.450
 9212POPC   C2B61340  23.834  18.475   6.750
 9212POPC   C3B61341  23.876  18.460   7.050
 9212POPC   C4B61342  23.915  18.481   7.350
 9213POPC   NC361343  22.191  13.613   5.550
 9213POPC   PO461344  22.191  13.599   5.850
 9213POPC   GL161345  22.179  13.669   6.150
 9213POPC   GL261346  22.022  13.600   6.150
 9213POPC   C1A61347  22.172  13.633   6.450
 9213POPC   D2A61348  22.158  13.596   6.750
 9213POPC   C3A61349  22.121  13.636   7.050
 9213POPC   C4A61350  22.162  13.627   7.350
 9213POPC   C1B61351  21.904  13.692   6.450
 9213POPC   C2B61352  21.950  13.648   6.750
 9213POPC   C3B61353  21.887  13.612   7.050
 9213POPC   C4B61354  21.926  13.666   7.350
 9214POPC   NC361355  31.489  25.301   5.550
 9214POPC   PO461356  31.426  25.309   5.850
 9214POPC   GL161357  31.483  25.278   6.150
 9214POPC   GL261358  31.396  25.287   6.150
 9214POPC   C1A61359  31.428  25.231   6.450
 9214POPC   D2A61360  31.484  25.309   6.750
 9214POPC   C3A61361  31.440  25.232   7.050
 9214POPC   C4A61362  31.486  25.242   7.350
 9214POPC   C1B61363  31.243  25.378   6.450
 9214POPC   C2B61364  31.269  25.388   6.750
 9214POPC   C3B61365  31.254  25.312   7.050
 9214POPC   C4B61366  31.254  25.385   7.350
 9215POPC   NC361367   3.491   8.936   5.550
 9215POPC   PO461368   3.509   8.932   5.850
 9215POPC   GL161369   3.520   8.987   6.150
 9215POPC   GL261370   3.541   9.129   6.150
 9215POPC   C1A61371   3.581   8.955   6.450
 9215POPC   D2A61372   3.555   8.967   6.750
 9215POPC   C3A61373   3.519   8.940   7.050
 9215POPC   C4A61374   3.567   8.980   7.350
 9215POPC   C1B61375   3.451   9.176   6.450
 9215POPC   C2B61376   3.423   9.180   6.750
 9215POPC   C3B61377   3.481   9.161   7.050
 9215POPC   C4B61378   3.435   9.172   7.350
 9216POPC   NC361379  20.576  26.816   5.550
 9216POPC   PO461380  20.601  26.774   5.850
 9216POPC   GL161381  20.589  26.775   6.150
 9216POPC   GL261382  20.691  26.782   6.150
 9216POPC   C1A61383  20.613  26.781   6.450
 9216POPC   D2A61384  20.567  26.783   6.750
 9216POPC   C3A61385  20.628  26.801   7.050
 9216POPC   C4A61386  20.631  26.839   7.350
 9216POPC   C1B61387  20.847  26.881   6.450
 9216POPC   C2B61388  20.896  26.840   6.750
 9216POPC   C3B61389  20.868  26.788   7.050
 9216POPC   C4B61390  20.854  26.875   7.350
 9217POPC   NC361391  19.043  15.203   5.550
 9217POPC   PO461392  19.086  15.197   5.850
 9217POPC   GL161393  19.040  15.167   6.150
 9217POPC   GL261394  18.998  15.293   6.150
 9217POPC   C1A61395  19.085  15.218   6.450
 9217POPC   D2A61396  19.085  15.159   6.750
 9217POPC   C3A61397  19.021  15.198   7.050
 9217POPC   C4A61398  19.014  15.186   7.350
 9217POPC   C1B61399  18.931  15.414   6.450
 9217POPC   C2B61400  18.905  15.426   6.750
 9217POPC   C3B61401  18.881  15.438   7.050
 9217POPC   C4B61402  18.946  15.393   7.350
 9218POPC   NC361403  34.569  19.800   5.550
 9218POPC   PO461404  34.595  19.787   5.850
 9218POPC   GL161405  34.543  19.805   6.150
 9218POPC   GL261406  34.453  19.789   6.150
 9218POPC   C1A61407  34.605  19.794   6.450
 9218POPC   D2A61408  34.553  19.866   6.750
 9218POPC   C3A61409  34.604  19.857   7.050
 9218POPC   C4A61410  34.582  19.798   7.350
 9218POPC   C1B61411  34.310  19.741   6.450
 9218POPC   C2B61412  34.314  19.751   6.750
 9218POPC   C3B61413  34.355  19.763   7.050
 9218POPC   C4B61414  34.371  19.793   7.350
 9219POPC   NC361415  36.120  36.865   5.550
 9219POPC   PO461416  36.106  36.872   5.850
 9219POPC   GL161417  36.151  36.943   6.150
 9219POPC   GL261418  36.301  36.934   6.150
 9219POPC   C1A61419  36.159  36.902   6.450
 9219POPC   D2A61420  36.082  36.923   6.750
 9219POPC   C3A61421  36.175  36.925   7.050
 9219POPC   C4A61422  36.113  36.888   7.350
 9219POPC   C1B61423  36.409  36.890   6.450
 9219POPC   C2B61424  36.416  36.910   6.750
 9219POPC   C3B61425  36.372  36.964   7.050
 9219POPC   C4B61426  36.393  36.934   7.350
 9220POPC   NC361427  40.003  39.270   5.550
 9220POPC   PO461428  40.018  39.238   5.850
 9220POPC   GL161429  40.049  39.201   6.150
 9220POPC   GL261430  40.017  39.369   6.150
 9220POPC   C1A61431  39.974  39.202   6.450
 9220POPC   D2A61432  39.999  39.261   6.750
 9220POPC   C3A61433  40.019  39.265   7.050
 9220POPC   C4A61434  40.017  39.235   7.350
 9220POPC   C1B61435  40.009  39.444   6.450
 9220POPC   C2B61436  40.030  39.519   6.750
 9220POPC   C3B61437  40.019  39.492   7.050
 9220POPC   C4B61438  39.967  39.530   7.350
 9221POPC   NC361439  17.527  15.187   5.550
 9221POPC   PO461440  17.522  15.160   5.850
 9221POPC   GL161441  17.527  15.169   6.150
 9221POPC   GL261442  17.463  15.301   6.150
 9221POPC   C1A61443  17.488  15.158   6.450
 9221POPC   D2A61444  17.475  15.212   6.750
 9221POPC   C3A61445  17.489  15.134   7.050
 9221POPC   C4A61446  17.541  15.146   7.350
 9221POPC   C1B61447  17.397  15.424   6.450
 9221POPC   C2B61448  17.466  15.402   6.750
 9221POPC   C3B61449  17.381  15.423   7.050
 9221POPC   C4B61450  17.385  15.366   7.350
 9222POPC   NC361451  42.378   7.391   5.550
 9222POPC   PO461452  42.288   7.410   5.850
 9222POPC   GL161453  42.375   7.374   6.150
 9222POPC   GL261454  42.219   7.278   6.150
 9222POPC   C1A61455  42.362   7.423   6.450
 9222POPC   D2A61456  42.358   7.383   6.750
 9222POPC   C3A61457  42.310   7.373   7.050
 9222POPC   C4A61458  42.378   7.387   7.350
 9222POPC   C1B61459  42.237   7.177   6.450
 9222POPC   C2B61460  42.189   7.263   6.750
 9222POPC   C3B61461  42.164   7.228   7.050
 9222POPC   C4B61462  42.223   7.199   7.350
 9223POPC   NC361463  19.038  39.235   5.550
 9223POPC   PO461464  19.107  39.257   5.850
 9223POPC   GL161465  19.040  39.272   6.150
 9223POPC   GL261466  19.016  39.322   6.150
 9223POPC   C1A61467  19.067  39.280   6.450
 9223POPC   D2A61468  19.013  39.246   6.750
 9223POPC   C3A61469  19.048  39.254   7.050
 9223POPC   C4A61470  19.023  39.267   7.350
 9223POPC   C1B61471  19.050  39.523   6.450
 9223POPC   C2B61472  19.001  39.494   6.750
 9223POPC   C3B61473  19.040  39.509   7.050
 9223POPC   C4B61474  19.021  39.480   7.350
 9224POPC   NC361475  19.830  32.262   5.550
 9224POPC   PO461476  19.824  32.217   5.850
 9224POPC   GL161477  19.863  32.207   6.150
 9224POPC   GL261478  19.806  32.156   6.150
 9224POPC   C1A61479  19.820  32.211   6.450
 9224POPC   D2A61480  19.826  32.272   6.750
 9224POPC   C3A61481  19.869  32.222   7.050
 9224POPC   C4A61482  19.873  32.265   7.350
 9224POPC   C1B61483  19.714  32.040   6.450
 9224POPC   C2B61484  19.688  32.072   6.750
 9224POPC   C3B61485  19.669  32.087   7.050
 9224POPC   C4B61486  19.696  32.037   7.350
 9225POPC   NC361487   1.971  42.340   5.550
 9225POPC   PO461488   1.967  42.288   5.850
 9225POPC   GL161489   1.973  42.314   6.150
 9225POPC   GL261490   2.154  42.300   6.150
 9225POPC   C1A61491   2.015  42.379   6.450
 9225POPC   D2A61492   1.946  42.363   6.750
 9225POPC   C3A61493   1.993  42.326   7.050
 9225POPC   C4A61494   1.995  42.308   7.350
 9225POPC   C1B61495   2.210  42.254   6.450
 9225POPC   C2B61496   2.265  42.240   6.750
 9225POPC   C3B61497   2.180  42.237   7.050
 9225POPC   C4B61498   2.266  42.240   7.350
 9226POPC   NC361499   3.505  25.234   5.550
 9226POPC   PO461500   3.525  25.222   5.850
 9226POPC   GL161501   3.528  25.294   6.150
 9226POPC   GL261502   3.529  25.366   6.150
 9226POPC   C1A61503   3.587  25.303   6.450
 9226POPC   D2A61504   3.569  25.300   6.750
 9226POPC   C3A61505   3.525  25.259   7.050
 9226POPC   C4A61506   3.515  25.298   7.350
 9226POPC   C1B61507   3.403  25.455   6.450
 9226POPC   C2B61508   3.467  25.463   6.750
 9226POPC   C3B61509   3.422  25.524   7.050
 9226POPC   C4B61510   3.473  25.503   7.350
 9227POPC   NC361511  42.371  15.161   5.550
 9227POPC   PO461512  42.291  15.184   5.850
 9227POPC   GL161513  42.356  15.162   6.150
 9227POPC   GL261514  42.200  15.126   6.150
 9227POPC   C1A61515  42.343  15.158   6.450
 9227POPC   D2A61516  42.292  15.173   6.750
 9227POPC   C3A61517  42.292  15.206   7.050
 9227POPC   C4A61518  42.299  15.168   7.350
 9227POPC   C1B61519  42.096  15.014   6.450
 9227POPC   C2B61520  42.120  15.038   6.750
 9227POPC   C3B61521  42.120  15.021   7.050
 9227POPC   C4B61522  42.085  15.072   7.350
 9228POPC   NC361523  20.600  38.434   5.550
 9228POPC   PO461524  20.651  38.476   5.850
 9228POPC   GL161525  20.634  38.468   6.150
 9228POPC   GL261526  20.638  38.615   6.150
 9228POPC   C1A61527  20.655  38.502   6.450
 9228POPC   D2A61528  20.566  38.417   6.750
 9228POPC   C3A61529  20.608  38.483   7.050
 9228POPC   C4A61530  20.571  38.444   7.350
 9228POPC   C1B61531  20.598  38.689   6.450
 9228POPC   C2B61532  20.615  38.743   6.750
 9228POPC   C3B61533  20.601  38.718   7.050
 9228POPC   C4B61534  20.683  38.657   7.350
 9229POPC   NC361535  31.475  10.559   5.550
 9229POPC   PO461536  31.434  10.512   5.850
 9229POPC   GL161537  31.494  10.482   6.150
 9229POPC   GL261538  31.620  10.620   6.150
 9229POPC   C1A61539  31.461  10.544   6.450
 9229POPC   D2A61540  31.480  10.486   6.750
 9229POPC   C3A61541  31.428  10.522   7.050
 9229POPC   C4A61542  31.469  10.503   7.350
 9229POPC   C1B61543  31.707  10.611   6.450
 9229POPC   C2B61544  31.670  10.641   6.750
 9229POPC   C3B61545  31.647  10.648   7.050
 9229POPC   C4B61546  31.698  10.651   7.350
 9230POPC   NC361547   5.059  23.740   5.550
 9230POPC   PO461548   5.105  23.733   5.850
 9230POPC   GL161549   5.092  23.759   6.150
 9230POPC   GL261550   5.157  23.616   6.150
 9230POPC   C1A61551   5.133  23.677   6.450
 9230POPC   D2A61552   5.098  23.691   6.750
 9230POPC   C3A61553   5.068  23.764   7.050
 9230POPC   C4A61554   5.068  23.667   7.350
 9230POPC   C1B61555   5.300  23.566   6.450
 9230POPC   C2B61556   5.310  23.541   6.750
 9230POPC   C3B61557   5.302  23.491   7.050
 9230POPC   C4B61558   5.302  23.519   7.350
 9231POPC   NC361559  24.479  22.208   5.550
 9231POPC   PO461560  24.441  22.184   5.850
 9231POPC   GL161561  24.456  22.196   6.150
 9231POPC   GL261562  24.415  22.250   6.150
 9231POPC   C1A61563  24.488  22.152   6.450
 9231POPC   D2A61564  24.458  22.197   6.750
 9231POPC   C3A61565  24.537  22.206   7.050
 9231POPC   C4A61566  24.473  22.203   7.350
 9231POPC   C1B61567  24.384  22.346   6.450
 9231POPC   C2B61568  24.398  22.383   6.750
 9231POPC   C3B61569  24.345  22.368   7.050
 9231POPC   C4B61570  24.384  22.399   7.350
 9232POPC   NC361571  32.260   1.952   5.550
 9232POPC   PO461572  32.220   1.986   5.850
 9232POPC   GL161573  32.243   1.986   6.150
 9232POPC   GL261574  32.282   1.823   6.150
 9232POPC   C1A61575  32.210   2.019   6.450
 9232POPC   D2A61576  32.277   1.995   6.750
 9232POPC   C3A61577  32.245   1.970   7.050
 9232POPC   C4A61578  32.277   2.020   7.350
 9232POPC   C1B61579  32.360   1.780   6.450
 9232POPC   C2B61580  32.374   1.765   6.750
 9232POPC   C3B61581  32.302   1.784   7.050
 9232POPC   C4B61582  32.323   1.783   7.350
 9233POPC   NC361583  29.175  43.888   5.550
 9233POPC   PO461584  29.162  43.908   5.850
 9233POPC   GL161585  29.132  43.888   6.150
 9233POPC   GL261586  29.015  43.893   6.150
 9233POPC   C1A61587  29.116  43.872   6.450
 9233POPC   D2A61588  29.100  43.892   6.750
 9233POPC   C3A61589  29.183  43.837   7.050
 9233POPC   C4A61590  29.153  43.866   7.350
 9233POPC   C1B61591  28.954  44.001   6.450
 9233POPC   C2B61592  28.941  44.017   6.750
 9233POPC   C3B61593  28.885  43.954   7.050
 9233POPC   C4B61594  28.908  44.034   7.350
 9234POPC   NC361595  15.190  42.300   5.550
 9234POPC   PO461596  15.161  42.364   5.850
 9234POPC   GL161597  15.207  42.383   6.150
 9234POPC   GL261598  15.242  42.477   6.150
 9234POPC   C1A61599  15.171  42.320   6.450
 9234POPC   D2A61600  15.147  42.313   6.750
 9234POPC   C3A61601  15.185  42.334   7.050
 9234POPC   C4A61602  15.144  42.348   7.350
 9234POPC   C1B61603  15.196  42.560   6.450
 9234POPC   C2B61604  15.192  42.623   6.750
 9234POPC   C3B61605  15.188  42.563   7.050
 9234POPC   C4B61606  15.212  42.580   7.350
 9235POPC   NC361607   6.661  10.569   5.550
 9235POPC   PO461608   6.602  10.550   5.850
 9235POPC   GL161609   6.686  10.512   6.150
 9235POPC   GL261610   6.680  10.414   6.150
 9235POPC   C1A61611   6.679  10.533   6.450
 9235POPC   D2A61612   6.642  10.551   6.750
 9235POPC   C3A61613   6.641  10.556   7.050
 9235POPC   C4A61614   6.599  10.481   7.350
 9235POPC   C1B61615   6.735  10.267   6.450
 9235POPC   C2B61616   6.712  10.276   6.750
 9235POPC   C3B61617   6.690  10.249   7.050
 9235POPC   C4B61618   6.714  10.240   7.350
 9236POPC   NC361619  27.586  21.373   5.550
 9236POPC   PO461620  27.637  21.434   5.850
 9236POPC   GL161621  27.616  21.386   6.150
 9236POPC   GL261622  27.550  21.492   6.150
 9236POPC   C1A61623  27.589  21.380   6.450
 9236POPC   D2A61624  27.630  21.373   6.750
 9236POPC   C3A61625  27.616  21.359   7.050
 9236POPC   C4A61626  27.575  21.409   7.350
 9236POPC   C1B61627  27.392  21.573   6.450
 9236POPC   C2B61628  27.444  21.542   6.750
 9236POPC   C3B61629  27.381  21.593   7.050
 9236POPC   C4B61630  27.445  21.572   7.350
 9237POPC   NC361631  12.852  15.159   5.550
 9237POPC   PO461632  12.835  15.165   5.850
 9237POPC   GL161633  12.815  15.152   6.150
 9237POPC   GL261634  12.731  15.148   6.150
 9237POPC   C1A61635  12.886  15.132   6.450
 9237POPC   D2A61636  12.845  15.210   6.750
 9237POPC   C3A61637  12.848  15.132   7.050
 9237POPC   C4A61638  12.818  15.144   7.350
 9237POPC   C1B61639  12.610  15.194   6.450
 9237POPC   C2B61640  12.625  15.175   6.750
 9237POPC   C3B61641  12.586  15.156   7.050
 9237POPC   C4B61642  12.585  15.147   7.350
 9238POPC   NC361643  21.351  12.126   5.550
 9238POPC   PO461644  21.427  12.037   5.850
 9238POPC   GL161645  21.373  12.050   6.150
 9238POPC   GL261646  21.507  12.064   6.150
 9238POPC   C1A61647  21.397  12.075   6.450
 9238POPC   D2A61648  21.354  12.066   6.750
 9238POPC   C3A61649  21.431  12.118   7.050
 9238POPC   C4A61650  21.386  12.045   7.350
 9238POPC   C1B61651  21.583  12.089   6.450
 9238POPC   C2B61652  21.634  12.168   6.750
 9238POPC   C3B61653  21.653  12.117   7.050
 9238POPC   C4B61654  21.628  12.141   7.350
 9239POPC   NC361655  35.374  25.284   5.550
 9239POPC   PO461656  35.310  25.219   5.850
 9239POPC   GL161657  35.360  25.235   6.150
 9239POPC   GL261658  35.225  25.209   6.150
 9239POPC   C1A61659  35.374  25.287   6.450
 9239POPC   D2A61660  35.338  25.238   6.750
 9239POPC   C3A61661  35.345  25.246   7.050
 9239POPC   C4A61662  35.390  25.281   7.350
 9239POPC   C1B61663  35.186  25.120   6.450
 9239POPC   C2B61664  35.223  25.095   6.750
 9239POPC   C3B61665  35.164  25.113   7.050
 9239POPC   C4B61666  35.173  25.108   7.350
 9240POPC   NC361667  44.640  12.832   5.550
 9240POPC   PO461668  44.613  12.884   5.850
 9240POPC   GL161669  44.616  12.902   6.150
 9240POPC   GL261670  44.740  12.764   6.150
 9240POPC   C1A61671  44.655  12.886   6.450
 9240POPC   D2A61672  44.673  12.856   6.750
 9240POPC   C3A61673  44.664  12.829   7.050
 9240POPC   C4A61674  44.671  12.900   7.350
 9240POPC   C1B61675  44.765  12.622   6.450
 9240POPC   C2B61676  44.749  12.673   6.750
 9240POPC   C3B61677  44.818  12.649   7.050
 9240POPC   C4B61678  44.772  12.590   7.350
 9241POPC   NC361679  43.911  37.724   5.550
 9241POPC   PO461680  43.903  37.701   5.850
 9241POPC   GL161681  43.891  37.649   6.150
 9241POPC   GL261682  43.786  37.647   6.150
 9241POPC   C1A61683  43.855  37.694   6.450
 9241POPC   D2A61684  43.935  37.681   6.750
 9241POPC   C3A61685  43.885  37.695   7.050
 9241POPC   C4A61686  43.845  37.664   7.350
 9241POPC   C1B61687  43.629  37.618   6.450
 9241POPC   C2B61688  43.616  37.624   6.750
 9241POPC   C3B61689  43.625  37.627   7.050
 9241POPC   C4B61690  43.680  37.591   7.350
 9242POPC   NC361691  15.192  28.353   5.550
 9242POPC   PO461692  15.132  28.372   5.850
 9242POPC   GL161693  15.157  28.345   6.150
 9242POPC   GL261694  15.169  28.500   6.150
 9242POPC   C1A61695  15.157  28.411   6.450
 9242POPC   D2A61696  15.157  28.338   6.750
 9242POPC   C3A61697  15.197  28.405   7.050
 9242POPC   C4A61698  15.159  28.362   7.350
 9242POPC   C1B61699  15.182  28.648   6.450
 9242POPC   C2B61700  15.169  28.650   6.750
 9242POPC   C3B61701  15.218  28.579   7.050
 9242POPC   C4B61702  15.203  28.586   7.350
 9243POPC   NC361703   5.104   3.494   5.550
 9243POPC   PO461704   5.102   3.528   5.850
 9243POPC   GL161705   5.060   3.582   6.150
 9243POPC   GL261706   5.019   3.613   6.150
 9243POPC   C1A61707   5.136   3.562   6.450
 9243POPC   D2A61708   5.092   3.560   6.750
 9243POPC   C3A61709   5.141   3.545   7.050
 9243POPC   C4A61710   5.059   3.504   7.350
 9243POPC   C1B61711   4.944   3.738   6.450
 9243POPC   C2B61712   4.890   3.736   6.750
 9243POPC   C3B61713   4.920   3.692   7.050
 9243POPC   C4B61714   4.869   3.737   7.350
 9244POPC   NC361715   5.099  26.832   5.550
 9244POPC   PO461716   5.090  26.810   5.850
 9244POPC   GL161717   5.084  26.855   6.150
 9244POPC   GL261718   5.186  26.904   6.150
 9244POPC   C1A61719   5.128  26.787   6.450
 9244POPC   D2A61720   5.087  26.819   6.750
 9244POPC   C3A61721   5.077  26.792   7.050
 9244POPC   C4A61722   5.068  26.862   7.350
 9244POPC   C1B61723   5.281  26.951   6.450
 9244POPC   C2B61724   5.297  26.938   6.750
 9244POPC   C3B61725   5.339  26.935   7.050
 9244POPC   C4B61726   5.326  26.861   7.350
 9245POPC   NC361727   7.375   4.329   5.550
 9245POPC   PO461728   7.462   4.344   5.850
 9245POPC   GL161729   7.424   4.289   6.150
 9245POPC   GL261730   7.251   4.331   6.150
 9245POPC   C1A61731   7.409   4.311   6.450
 9245POPC   D2A61732   7.457   4.287   6.750
 9245POPC   C3A61733   7.401   4.303   7.050
 9245POPC   C4A61734   7.464   4.329   7.350
 9245POPC   C1B61735   7.186   4.310   6.450
 9245POPC   C2B61736   7.185   4.324   6.750
 9245POPC   C3B61737   7.191   4.354   7.050
 9245POPC   C4B61738   7.176   4.333   7.350
 9246POPC   NC361739  23.709  42.364   5.550
 9246POPC   PO461740  23.752  42.306   5.850
 9246POPC   GL161741  23.721  42.337   6.150
 9246POPC   GL261742  23.836  42.259   6.150
 9246POPC   C1A61743  23.686  42.331   6.450
 9246POPC   D2A61744  23.706  42.291   6.750
 9246POPC   C3A61745  23.735  42.329   7.050
 9246POPC   C4A61746  23.722  42.349   7.350
 9246POPC   C1B61747  23.912  42.134   6.450
 9246POPC   C2B61748  23.890  42.183   6.750
 9246POPC   C3B61749  23.935  42.137   7.050
 9246POPC   C4B61750  23.943  42.221   7.350
 9247POPC   NC361751   9.000  36.947   5.550
 9247POPC   PO461752   8.982  36.866   5.850
 9247POPC   GL161753   8.942  36.885   6.150
 9247POPC   GL261754   8.940  37.000   6.150
 9247POPC   C1A61755   9.012  36.860   6.450
 9247POPC   D2A61756   9.018  36.938   6.750
 9247POPC   C3A61757   9.008  36.887   7.050
 9247POPC   C4A61758   8.958  36.952   7.350
 9247POPC   C1B61759   8.913  37.143   6.450
 9247POPC   C2B61760   8.921  37.129   6.750
 9247POPC   C3B61761   8.953  37.148   7.050
 9247POPC   C4B61762   8.933  37.165   7.350
 9248POPC   NC361763   7.412  22.149   5.550
 9248POPC   PO461764   7.423  22.129   5.850
 9248POPC   GL161765   7.462  22.191   6.150
 9248POPC   GL261766   7.304  22.059   6.150
 9248POPC   C1A61767   7.393  22.155   6.450
 9248POPC   D2A61768   7.379  22.199   6.750
 9248POPC   C3A61769   7.439  22.152   7.050
 9248POPC   C4A61770   7.436  22.158   7.350
 9248POPC   C1B61771   7.264  22.056   6.450
 9248POPC   C2B61772   7.173  22.033   6.750
 9248POPC   C3B61773   7.253  21.986   7.050
 9248POPC   C4B61774   7.176  22.006   7.350
 9249POPC   NC361775  26.058  29.135   5.550
 9249POPC   PO461776  26.030  29.136   5.850
 9249POPC   GL161777  26.015  29.110   6.150
 9249POPC   GL261778  25.980  29.287   6.150
 9249POPC   C1A61779  26.060  29.161   6.450
 9249POPC   D2A61780  26.030  29.172   6.750
 9249POPC   C3A61781  26.015  29.182   7.050
 9249POPC   C4A61782  26.078  29.138   7.350
 9249POPC   C1B61783  25.969  29.339   6.450
 9249POPC   C2B61784  25.937  29.405   6.750
 9249POPC   C3B61785  25.942  29.374   7.050
 9249POPC   C4B61786  25.978  29.354   7.350
 9250POPC   NC361787   7.462   9.758   5.550
 9250POPC   PO461788   7.464   9.792   5.850
 9250POPC   GL161789   7.401   9.775   6.150
 9250POPC   GL261790   7.539   9.733   6.150
 9250POPC   C1A61791   7.387   9.699   6.450
 9250POPC   D2A61792   7.409   9.753   6.750
 9250POPC   C3A61793   7.391   9.793   7.050
 9250POPC   C4A61794   7.454   9.759   7.350
 9250POPC   C1B61795   7.700   9.813   6.450
 9250POPC   C2B61796   7.685   9.809   6.750
 9250POPC   C3B61797   7.626   9.740   7.050
 9250POPC   C4B61798   7.618   9.744   7.350
 9251POPC   NC361799  19.107  20.628   5.550
 9251POPC   PO461800  19.029  20.605   5.850
 9251POPC   GL161801  19.009  20.601   6.150
 9251POPC   GL261802  19.203  20.706   6.150
 9251POPC   C1A61803  19.083  20.623   6.450
 9251POPC   D2A61804  19.104  20.632   6.750
 9251POPC   C3A61805  19.015  20.566   7.050
 9251POPC   C4A61806  19.018  20.591   7.350
 9251POPC   C1B61807  19.231  20.777   6.450
 9251POPC   C2B61808  19.287  20.792   6.750
 9251POPC   C3B61809  19.267  20.744   7.050
 9251POPC   C4B61810  19.233  20.796   7.350
 9252POPC   NC361811  29.099  23.724   5.550
 9252POPC   PO461812  29.112  23.731   5.850
 9252POPC   GL161813  29.164  23.686   6.150
 9252POPC   GL261814  29.057  23.629   6.150
 9252POPC   C1A61815  29.113  23.697   6.450
 9252POPC   D2A61816  29.186  23.711   6.750
 9252POPC   C3A61817  29.116  23.749   7.050
 9252POPC   C4A61818  29.141  23.693   7.350
 9252POPC   C1B61819  28.977  23.583   6.450
 9252POPC   C2B61820  28.920  23.595   6.750
 9252POPC   C3B61821  28.896  23.542   7.050
 9252POPC   C4B61822  28.986  23.581   7.350
 9253POPC   NC361823  17.497  43.115   5.550
 9253POPC   PO461824  17.548  43.122   5.850
 9253POPC   GL161825  17.550  43.135   6.150
 9253POPC   GL261826  17.411  43.037   6.150
 9253POPC   C1A61827  17.506  43.142   6.450
 9253POPC   D2A61828  17.543  43.114   6.750
 9253POPC   C3A61829  17.552  43.100   7.050
 9253POPC   C4A61830  17.503  43.136   7.350
 9253POPC   C1B61831  17.221  42.999   6.450
 9253POPC   C2B61832  17.294  42.990   6.750
 9253POPC   C3B61833  17.250  43.036   7.050
 9253POPC   C4B61834  17.256  43.023   7.350
 9254POPC   NC361835  22.908  32.265   5.550
 9254POPC   PO461836  22.931  32.216   5.850
 9254POPC   GL161837  22.893  32.241   6.150
 9254POPC   GL261838  23.043  32.265   6.150
 9254POPC   C1A61839  22.908  32.217   6.450
 9254POPC   D2A61840  22.938  32.224   6.750
 9254POPC   C3A61841  22.957  32.246   7.050
 9254POPC   C4A61842  22.937  32.260   7.350
 9254POPC   C1B61843  23.215  32.255   6.450
 9254POPC   C2B61844  23.219  32.269   6.750
 9254POPC   C3B61845  23.187  32.264   7.050
 9254POPC   C4B61846  23.155  32.236   7.350
 9255POPC   NC361847  33.803  33.801   5.550
 9255POPC   PO461848  33.753  33.832   5.850
 9255POPC   GL161849  33.822  33.787   6.150
 9255POPC   GL261850  33.834  33.661   6.150
 9255POPC   C1A61851  33.823  33.770   6.450
 9255POPC   D2A61852  33.799  33.816   6.750
 9255POPC   C3A61853  33.793  33.760   7.050
 9255POPC   C4A61854  33.784  33.820   7.350
 9255POPC   C1B61855  33.910  33.574   6.450
 9255POPC   C2B61856  33.936  33.617   6.750
 9255POPC   C3B61857  33.871  33.527   7.050
 9255POPC   C4B61858  33.917  33.616   7.350
 9256POPC   NC361859  30.738  11.347   5.550
 9256POPC   PO461860  30.718  11.250   5.850
 9256POPC   GL161861  30.683  11.272   6.150
 9256POPC   GL261862  30.747  11.418   6.150
 9256POPC   C1A61863  30.672  11.341   6.450
 9256POPC   D2A61864  30.671  11.336   6.750
 9256POPC   C3A61865  30.708  11.320   7.050
 9256POPC   C4A61866  30.719  11.305   7.350
 9256POPC   C1B61867  30.861  11.490   6.450
 9256POPC   C2B61868  30.857  11.459   6.750
 9256POPC   C3B61869  30.843  11.441   7.050
 9256POPC   C4B61870  30.823  11.481   7.350
 9257POPC   NC361871  22.152  17.469   5.550
 9257POPC   PO461872  22.174  17.488   5.850
 9257POPC   GL161873  22.168  17.512   6.150
 9257POPC   GL261874  22.123  17.645   6.150
 9257POPC   C1A61875  22.159  17.497   6.450
 9257POPC   D2A61876  22.116  17.480   6.750
 9257POPC   C3A61877  22.170  17.525   7.050
 9257POPC   C4A61878  22.162  17.473   7.350
 9257POPC   C1B61879  22.198  17.770   6.450
 9257POPC   C2B61880  22.106  17.755   6.750
 9257POPC   C3B61881  22.158  17.720   7.050
 9257POPC   C4B61882  22.196  17.752   7.350
 9258POPC   NC361883   9.727  24.533   5.550
 9258POPC   PO461884   9.773  24.466   5.850
 9258POPC   GL161885   9.705  24.521   6.150
 9258POPC   GL261886   9.708  24.332   6.150
 9258POPC   C1A61887   9.794  24.521   6.450
 9258POPC   D2A61888   9.750  24.502   6.750
 9258POPC   C3A61889   9.745  24.454   7.050
 9258POPC   C4A61890   9.713  24.479   7.350
 9258POPC   C1B61891   9.733  24.195   6.450
 9258POPC   C2B61892   9.742  24.280   6.750
 9258POPC   C3B61893   9.764  24.198   7.050
 9258POPC   C4B61894   9.667  24.292   7.350
 9259POPC   NC361895   5.864  19.062   5.550
 9259POPC   PO461896   5.862  19.075   5.850
 9259POPC   GL161897   5.835  19.030   6.150
 9259POPC   GL261898   5.859  18.900   6.150
 9259POPC   C1A61899   5.901  19.085   6.450
 9259POPC   D2A61900   5.861  19.075   6.750
 9259POPC   C3A61901   5.899  19.064   7.050
 9259POPC   C4A61902   5.875  19.076   7.350
 9259POPC   C1B61903   5.874  18.834   6.450
 9259POPC   C2B61904   5.939  18.840   6.750
 9259POPC   C3B61905   5.905  18.782   7.050
 9259POPC   C4B61906   5.921  18.836   7.350
 9260POPC   NC361907  26.021  19.877   5.550
 9260POPC   PO461908  26.084  19.802   5.850
 9260POPC   GL161909  26.003  19.873   6.150
 9260POPC   GL261910  26.193  19.796   6.150
 9260POPC   C1A61911  26.007  19.864   6.450
 9260POPC   D2A61912  26.075  19.841   6.750
 9260POPC   C3A61913  26.065  19.824   7.050
 9260POPC   C4A61914  26.086  19.837   7.350
 9260POPC   C1B61915  26.231  19.650   6.450
 9260POPC   C2B61916  26.276  19.689   6.750
 9260POPC   C3B61917  26.277  19.713   7.050
 9260POPC   C4B61918  26.263  19.669   7.350
 9261POPC   NC361919   0.480  33.770   5.550
 9261POPC   PO461920   0.453  33.786   5.850
 9261POPC   GL161921   0.399  33.779   6.150
 9261POPC   GL261922   0.419  33.920   6.150
 9261POPC   C1A61923   0.410  33.805   6.450
 9261POPC   D2A61924   0.430  33.779   6.750
 9261POPC   C3A61925   0.455  33.796   7.050
 9261POPC   C4A61926   0.456  33.826   7.350
 9261POPC   C1B61927   0.367  34.068   6.450
 9261POPC   C2B61928   0.325  34.031   6.750
 9261POPC   C3B61929   0.340  34.014   7.050
 9261POPC   C4B61930   0.347  34.083   7.350
 9262POPC   NC361931  23.763   3.562   5.550
 9262POPC   PO461932  23.671   3.547   5.850
 9262POPC   GL161933  23.744   3.585   6.150
 9262POPC   GL261934  23.636   3.592   6.150
 9262POPC   C1A61935  23.671   3.571   6.450
 9262POPC   D2A61936  23.680   3.548   6.750
 9262POPC   C3A61937  23.716   3.561   7.050
 9262POPC   C4A61938  23.758   3.590   7.350
 9262POPC   C1B61939  23.522   3.683   6.450
 9262POPC   C2B61940  23.521   3.702   6.750
 9262POPC   C3B61941  23.567   3.696   7.050
 9262POPC   C4B61942  23.517   3.681   7.350
 9263POPC   NC361943   1.168  16.754   5.550
 9263POPC   PO461944   1.228  16.715   5.850
 9263POPC   GL161945   1.170  16.710   6.150
 9263POPC   GL261946   1.249  16.856   6.150
 9263POPC   C1A61947   1.210  16.763   6.450
 9263POPC   D2A61948   1.186  16.701   6.750
 9263POPC   C3A61949   1.241  16.718   7.050
 9263POPC   C4A61950   1.168  16.713   7.350
 9263POPC   C1B61951   1.192  16.932   6.450
 9263POPC   C2B61952   1.198  16.940   6.750
 9263POPC   C3B61953   1.206  16.995   7.050
 9263POPC   C4B61954   1.217  16.971   7.350
 9264POPC   NC361955  15.933  26.778   5.550
 9264POPC   PO461956  15.930  26.784   5.850
 9264POPC   GL161957  15.989  26.861   6.150
 9264POPC   GL261958  16.017  26.974   6.150
 9264POPC   C1A61959  16.000  26.864   6.450
 9264POPC   D2A61960  15.915  26.829   6.750
 9264POPC   C3A61961  15.926  26.845   7.050
 9264POPC   C4A61962  15.915  26.810   7.350
 9264POPC   C1B61963  16.062  26.999   6.450
 9264POPC   C2B61964  16.099  27.063   6.750
 9264POPC   C3B61965  16.041  27.045   7.050
 9264POPC   C4B61966  16.061  27.052   7.350
 9265POPC   NC361967  36.925  19.033   5.550
 9265POPC   PO461968  36.892  19.015   5.850
 9265POPC   GL161969  36.858  19.014   6.150
 9265POPC   GL261970  37.040  18.993   6.150
 9265POPC   C1A61971  36.931  19.050   6.450
 9265POPC   D2A61972  36.921  19.035   6.750
 9265POPC   C3A61973  36.874  19.068   7.050
 9265POPC   C4A61974  36.894  19.029   7.350
 9265POPC   C1B61975  37.140  18.926   6.450
 9265POPC   C2B61976  37.081  18.864   6.750
 9265POPC   C3B61977  37.073  18.857   7.050
 9265POPC   C4B61978  37.043  18.867   7.350
 9266POPC   NC361979  40.750  32.275   5.550
 9266POPC   PO461980  40.806  32.244   5.850
 9266POPC   GL161981  40.799  32.281   6.150
 9266POPC   GL261982  40.773  32.322   6.150
 9266POPC   C1A61983  40.768  32.292   6.450
 9266POPC   D2A61984  40.806  32.274   6.750
 9266POPC   C3A61985  40.735  32.256   7.050
 9266POPC   C4A61986  40.760  32.283   7.350
 9266POPC   C1B61987  40.775  32.525   6.450
 9266POPC   C2B61988  40.729  32.451   6.750
 9266POPC   C3B61989  40.742  32.514   7.050
 9266POPC   C4B61990  40.745  32.514   7.350
 9267POPC   NC361991   2.767  39.972   5.550
 9267POPC   PO461992   2.742  40.024   5.850
 9267POPC   GL161993   2.737  40.019   6.150
 9267POPC   GL261994   2.863  39.883   6.150
 9267POPC   C1A61995   2.729  40.052   6.450
 9267POPC   D2A61996   2.775  39.969   6.750
 9267POPC   C3A61997   2.749  39.967   7.050
 9267POPC   C4A61998   2.793  40.027   7.350
 9267POPC   C1B61999   2.927  39.749   6.450
 9267POPC   C2B62000   2.947  39.815   6.750
 9267POPC   C3B62001   2.927  39.750   7.050
 9267POPC   C4B62002   2.873  39.753   7.350
 9268POPC   NC362003  42.372  29.165   5.550
 9268POPC   PO462004  42.338  29.134   5.850
 9268POPC   GL162005  42.368  29.119   6.150
 9268POPC   GL262006  42.326  29.218   6.150
 9268POPC   C1A62007  42.352  29.180   6.450
 9268POPC   D2A62008  42.382  29.103   6.750
 9268POPC   C3A62009  42.368  29.141   7.050
 9268POPC   C4A62010  42.328  29.158   7.350
 9268POPC   C1B62011  42.254  29.331   6.450
 9268POPC   C2B62012  42.214  29.365   6.750
 9268POPC   C3B62013  42.250  29.423   7.050
 9268POPC   C4B62014  42.287  29.412   7.350
 9269POPC   NC362015   7.413   3.588   5.550
 9269POPC   PO462016   7.390   3.580   5.850
 9269POPC   GL162017   7.437   3.560   6.150
 9269POPC   GL262018   7.281   3.615   6.150
 9269POPC   C1A62019   7.378   3.516   6.450
 9269POPC   D2A62020   7.429   3.520   6.750
 9269POPC   C3A62021   7.420   3.528   7.050
 9269POPC   C4A62022   7.414   3.561   7.350
 9269POPC   C1B62023   7.237   3.735   6.450
 9269POPC   C2B62024   7.200   3.701   6.750
 9269POPC   C3B62025   7.207   3.712   7.050
 9269POPC   C4B62026   7.256   3.691   7.350
 9270POPC   NC362027  36.919  12.037   5.550
 9270POPC   PO462028  36.916  12.106   5.850
 9270POPC   GL162029  36.934  12.124   6.150
 9270POPC   GL262030  36.798  12.121   6.150
 9270POPC   C1A62031  36.934  12.106   6.450
 9270POPC   D2A62032  36.882  12.064   6.750
 9270POPC   C3A62033  36.944  12.110   7.050
 9270POPC   C4A62034  36.877  12.052   7.350
 9270POPC   C1B62035  36.662  12.190   6.450
 9270POPC   C2B62036  36.716  12.192   6.750
 9270POPC   C3B62037  36.628  12.159   7.050
 9270POPC   C4B62038  36.702  12.187   7.350
 9271POPC   NC362039   0.455  40.055   5.550
 9271POPC   PO462040   0.416  40.027   5.850
 9271POPC   GL162041   0.467  40.025   6.150
 9271POPC   GL262042   0.502  39.886   6.150
 9271POPC   C1A62043   0.414  39.996   6.450
 9271POPC   D2A62044   0.453  39.975   6.750
 9271POPC   C3A62045   0.464  40.050   7.050
 9271POPC   C4A62046   0.414  39.982   7.350
 9271POPC   C1B62047   0.471  39.809   6.450
 9271POPC   C2B62048   0.480  39.813   6.750
 9271POPC   C3B62049   0.551  39.754   7.050
 9271POPC   C4B62050   0.529  39.768   7.350
 9272POPC   NC362051  24.516  31.431   5.550
 9272POPC   PO462052  24.516  31.497   5.850
 9272POPC   GL162053  24.512  31.518   6.150
 9272POPC   GL262054  24.617  31.478   6.150
 9272POPC   C1A62055  24.475  31.424   6.450
 9272POPC   D2A62056  24.443  31.464   6.750
 9272POPC   C3A62057  24.518  31.499   7.050
 9272POPC   C4A62058  24.489  31.437   7.350
 9272POPC   C1B62059  24.743  31.618   6.450
 9272POPC   C2B62060  24.680  31.558   6.750
 9272POPC   C3B62061  24.762  31.534   7.050
 9272POPC   C4B62062  24.695  31.569   7.350
 9273POPC   NC362063   6.669  19.060   5.550
 9273POPC   PO462064   6.609  19.102   5.850
 9273POPC   GL162065   6.645  19.073   6.150
 9273POPC   GL262066   6.664  18.981   6.150
 9273POPC   C1A62067   6.598  19.098   6.450
 9273POPC   D2A62068   6.624  19.099   6.750
 9273POPC   C3A62069   6.644  19.064   7.050
 9273POPC   C4A62070   6.638  19.088   7.350
 9273POPC   C1B62071   6.712  18.832   6.450
 9273POPC   C2B62072   6.771  18.860   6.750
 9273POPC   C3B62073   6.775  18.791   7.050
 9273POPC   C4B62074   6.737  18.810   7.350
 9274POPC   NC362075  12.091  18.279   5.550
 9274POPC   PO462076  12.076  18.269   5.850
 9274POPC   GL162077  12.033  18.263   6.150
 9274POPC   GL262078  11.971  18.166   6.150
 9274POPC   C1A62079  12.054  18.256   6.450
 9274POPC   D2A62080  12.055  18.238   6.750
 9274POPC   C3A62081  12.029  18.243   7.050
 9274POPC   C4A62082  12.041  18.283   7.350
 9274POPC   C1B62083  11.909  18.095   6.450
 9274POPC   C2B62084  11.916  18.161   6.750
 9274POPC   C3B62085  11.910  18.182   7.050
 9274POPC   C4B62086  11.873  18.151   7.350
 9275POPC   NC362087  17.488  14.399   5.550
 9275POPC   PO462088  17.476  14.393   5.850
 9275POPC   GL162089  17.513  14.358   6.150
 9275POPC   GL262090  17.382  14.292   6.150
 9275POPC   C1A62091  17.494  14.392   6.450
 9275POPC   D2A62092  17.459  14.436   6.750
 9275POPC   C3A62093  17.513  14.423   7.050
 9275POPC   C4A62094  17.544  14.416   7.350
 9275POPC   C1B62095  17.331  14.268   6.450
 9275POPC   C2B62096  17.321  14.213   6.750
 9275POPC   C3B62097  17.343  14.244   7.050
 9275POPC   C4B62098  17.289  14.223   7.350
 9276POPC   NC362099  31.457   5.094   5.550
 9276POPC   PO462100  31.443   5.109   5.850
 9276POPC   GL162101  31.474   5.141   6.150
 9276POPC   GL262102  31.429   5.177   6.150
 9276POPC   C1A62103  31.472   5.096   6.450
 9276POPC   D2A62104  31.515   5.139   6.750
 9276POPC   C3A62105  31.459   5.120   7.050
 9276POPC   C4A62106  31.474   5.044   7.350
 9276POPC   C1B62107  31.346   5.319   6.450
 9276POPC   C2B62108  31.309   5.329   6.750
 9276POPC   C3B62109  31.310   5.356   7.050
 9276POPC   C4B62110  31.316   5.260   7.350
 9277POPC   NC362111  37.682   8.973   5.550
 9277POPC   PO462112  37.658   8.965   5.850
 9277POPC   GL162113  37.682   8.933   6.150
 9277POPC   GL262114  37.819   8.930   6.150
 9277POPC   C1A62115  37.687   8.980   6.450
 9277POPC   D2A62116  37.716   8.953   6.750
 9277POPC   C3A62117  37.728   9.000   7.050
 9277POPC   C4A62118  37.677   8.948   7.350
 9277POPC   C1B62119  37.935   8.884   6.450
 9277POPC   C2B62120  37.906   8.851   6.750
 9277POPC   C3B62121  37.930   8.862   7.050
 9277POPC   C4B62122  37.908   8.845   7.350
 9278POPC   NC362123  30.711  14.382   5.550
 9278POPC   PO462124  30.744  14.379   5.850
 9278POPC   GL162125  30.677  14.419   6.150
 9278POPC   GL262126  30.729  14.285   6.150
 9278POPC   C1A62127  30.741  14.400   6.450
 9278POPC   D2A62128  30.703  14.363   6.750
 9278POPC   C3A62129  30.730  14.378   7.050
 9278POPC   C4A62130  30.725  14.409   7.350
 9278POPC   C1B62131  30.781  14.193   6.450
 9278POPC   C2B62132  30.738  14.178   6.750
 9278POPC   C3B62133  30.774  14.173   7.050
 9278POPC   C4B62134  30.783  14.164   7.350
 9279POPC   NC362135  26.786  31.484   5.550
 9279POPC   PO462136  26.819  31.477   5.850
 9279POPC   GL162137  26.774  31.515   6.150
 9279POPC   GL262138  26.897  31.491   6.150
 9279POPC   C1A62139  26.859  31.520   6.450
 9279POPC   D2A62140  26.814  31.521   6.750
 9279POPC   C3A62141  26.866  31.505   7.050
 9279POPC   C4A62142  26.844  31.511   7.350
 9279POPC   C1B62143  26.980  31.572   6.450
 9279POPC   C2B62144  26.996  31.630   6.750
 9279POPC   C3B62145  27.046  31.629   7.050
 9279POPC   C4B62146  26.995  31.559   7.350
 9280POPC   NC362147  34.587  31.473   5.550
 9280POPC   PO462148  34.575  31.428   5.850
 9280POPC   GL162149  34.615  31.495   6.150
 9280POPC   GL262150  34.688  31.504   6.150
 9280POPC   C1A62151  34.616  31.426   6.450
 9280POPC   D2A62152  34.589  31.494   6.750
 9280POPC   C3A62153  34.562  31.485   7.050
 9280POPC   C4A62154  34.591  31.450   7.350
 9280POPC   C1B62155  34.766  31.672   6.450
 9280POPC   C2B62156  34.767  31.594   6.750
 9280POPC   C3B62157  34.806  31.681   7.050
 9280POPC   C4B62158  34.798  31.656   7.350
 9281POPC   NC362159  19.793  20.592   5.550
 9281POPC   PO462160  19.792  20.614   5.850
 9281POPC   GL162161  19.836  20.570   6.150
 9281POPC   GL262162  19.714  20.641   6.150
 9281POPC   C1A62163  19.817  20.646   6.450
 9281POPC   D2A62164  19.835  20.620   6.750
 9281POPC   C3A62165  19.828  20.614   7.050
 9281POPC   C4A62166  19.857  20.567   7.350
 9281POPC   C1B62167  19.603  20.703   6.450
 9281POPC   C2B62168  19.609  20.645   6.750
 9281POPC   C3B62169  19.592  20.687   7.050
 9281POPC   C4B62170  19.612  20.656   7.350
 9282POPC   NC362171  10.520  39.194   5.550
 9282POPC   PO462172  10.551  39.205   5.850
 9282POPC   GL162173  10.560  39.261   6.150
 9282POPC   GL262174  10.506  39.139   6.150
 9282POPC   C1A62175  10.543  39.268   6.450
 9282POPC   D2A62176  10.566  39.189   6.750
 9282POPC   C3A62177  10.568  39.229   7.050
 9282POPC   C4A62178  10.536  39.254   7.350
 9282POPC   C1B62179  10.400  38.969   6.450
 9282POPC   C2B62180  10.414  39.030   6.750
 9282POPC   C3B62181  10.434  39.012   7.050
 9282POPC   C4B62182  10.390  38.981   7.350
 9283POPC   NC362183   7.454  12.857   5.550
 9283POPC   PO462184   7.421  12.861   5.850
 9283POPC   GL162185   7.371  12.859   6.150
 9283POPC   GL262186   7.504  12.912   6.150
 9283POPC   C1A62187   7.379  12.892   6.450
 9283POPC   D2A62188   7.401  12.864   6.750
 9283POPC   C3A62189   7.396  12.805   7.050
 9283POPC   C4A62190   7.389  12.886   7.350
 9283POPC   C1B62191   7.624  12.901   6.450
 9283POPC   C2B62192   7.625  12.913   6.750
 9283POPC   C3B62193   7.702  12.833   7.050
 9283POPC   C4B62194   7.704  12.883   7.350
 9284POPC   NC362195  36.861  13.611   5.550
 9284POPC   PO462196  36.927  13.671   5.850
 9284POPC   GL162197  36.898  13.581   6.150
 9284POPC   GL262198  36.868  13.573   6.150
 9284POPC   C1A62199  36.900  13.580   6.450
 9284POPC   D2A62200  36.917  13.620   6.750
 9284POPC   C3A62201  36.889  13.607   7.050
 9284POPC   C4A62202  36.915  13.603   7.350
 9284POPC   C1B62203  36.747  13.405   6.450
 9284POPC   C2B62204  36.772  13.405   6.750
 9284POPC   C3B62205  36.690  13.436   7.050
 9284POPC   C4B62206  36.767  13.452   7.350
 9285POPC   NC362207  12.879  35.388   5.550
 9285POPC   PO462208  12.827  35.395   5.850
 9285POPC   GL162209  12.900  35.345   6.150
 9285POPC   GL262210  12.948  35.372   6.150
 9285POPC   C1A62211  12.863  35.308   6.450
 9285POPC   D2A62212  12.863  35.338   6.750
 9285POPC   C3A62213  12.848  35.377   7.050
 9285POPC   C4A62214  12.901  35.360   7.350
 9285POPC   C1B62215  13.115  35.324   6.450
 9285POPC   C2B62216  13.090  35.361   6.750
 9285POPC   C3B62217  13.108  35.323   7.050
 9285POPC   C4B62218  13.115  35.381   7.350
 9286POPC   NC362219  38.421  44.625   5.550
 9286POPC   PO462220  38.433  44.675   5.850
 9286POPC   GL162221  38.407  44.642   6.150
 9286POPC   GL262222  38.540  44.587   6.150
 9286POPC   C1A62223  38.437  44.693   6.450
 9286POPC   D2A62224  38.498  44.700   6.750
 9286POPC   C3A62225  38.454  44.628   7.050
 9286POPC   C4A62226  38.421  44.695   7.350
 9286POPC   C1B62227  38.594  44.465   6.450
 9286POPC   C2B62228  38.593  44.402   6.750
 9286POPC   C3B62229  38.507  44.420   7.050
 9286POPC   C4B62230  38.597  44.383   7.350
 9287POPC   NC362231  14.381   9.771   5.550
 9287POPC   PO462232  14.432   9.714   5.850
 9287POPC   GL162233  14.410   9.716   6.150
 9287POPC   GL262234  14.504   9.716   6.150
 9287POPC   C1A62235  14.420   9.732   6.450
 9287POPC   D2A62236  14.408   9.795   6.750
 9287POPC   C3A62237  14.375   9.753   7.050
 9287POPC   C4A62238  14.374   9.734   7.350
 9287POPC   C1B62239  14.685   9.669   6.450
 9287POPC   C2B62240  14.624   9.667   6.750
 9287POPC   C3B62241  14.681   9.691   7.050
 9287POPC   C4B62242  14.611   9.679   7.350
 9288POPC   NC362243  32.204  19.825   5.550
 9288POPC   PO462244  32.278  19.794   5.850
 9288POPC   GL162245  32.257  19.805   6.150
 9288POPC   GL262246  32.368  19.749   6.150
 9288POPC   C1A62247  32.227  19.869   6.450
 9288POPC   D2A62248  32.256  19.841   6.750
 9288POPC   C3A62249  32.237  19.862   7.050
 9288POPC   C4A62250  32.267  19.787   7.350
 9288POPC   C1B62251  32.452  19.615   6.450
 9288POPC   C2B62252  32.407  19.659   6.750
 9288POPC   C3B62253  32.373  19.620   7.050
 9288POPC   C4B62254  32.403  19.632   7.350
 9289POPC   NC362255  37.722  37.680   5.550
 9289POPC   PO462256  37.631  37.707   5.850
 9289POPC   GL162257  37.635  37.728   6.150
 9289POPC   GL262258  37.739  37.615   6.150
 9289POPC   C1A62259  37.655  37.705   6.450
 9289POPC   D2A62260  37.715  37.644   6.750
 9289POPC   C3A62261  37.634  37.660   7.050
 9289POPC   C4A62262  37.711  37.643   7.350
 9289POPC   C1B62263  37.765  37.423   6.450
 9289POPC   C2B62264  37.828  37.452   6.750
 9289POPC   C3B62265  37.844  37.436   7.050
 9289POPC   C4B62266  37.826  37.464   7.350
 9290POPC   NC362267  24.442  40.040   5.550
 9290POPC   PO462268  24.469  40.010   5.850
 9290POPC   GL162269  24.514  39.987   6.150
 9290POPC   GL262270  24.318  39.999   6.150
 9290POPC   C1A62271  24.443  39.982   6.450
 9290POPC   D2A62272  24.460  40.002   6.750
 9290POPC   C3A62273  24.442  40.055   7.050
 9290POPC   C4A62274  24.534  39.989   7.350
 9290POPC   C1B62275  24.236  40.039   6.450
 9290POPC   C2B62276  24.274  40.026   6.750
 9290POPC   C3B62277  24.257  40.003   7.050
 9290POPC   C4B62278  24.274  40.010   7.350
 9291POPC   NC362279  38.456  22.196   5.550
 9291POPC   PO462280  38.497  22.156   5.850
 9291POPC   GL162281  38.436  22.173   6.150
 9291POPC   GL262282  38.309  22.127   6.150
 9291POPC   C1A62283  38.456  22.199   6.450
 9291POPC   D2A62284  38.473  22.197   6.750
 9291POPC   C3A62285  38.474  22.175   7.050
 9291POPC   C4A62286  38.410  22.205   7.350
 9291POPC   C1B62287  38.179  22.086   6.450
 9291POPC   C2B62288  38.262  22.061   6.750
 9291POPC   C3B62289  38.192  22.117   7.050
 9291POPC   C4B62290  38.234  22.135   7.350
 9292POPC   NC362291  11.263  22.905   5.550
 9292POPC   PO462292  11.298  22.970   5.850
 9292POPC   GL162293  11.305  22.987   6.150
 9292POPC   GL262294  11.211  22.878   6.150
 9292POPC   C1A62295  11.344  22.908   6.450
 9292POPC   D2A62296  11.258  22.962   6.750
 9292POPC   C3A62297  11.259  22.927   7.050
 9292POPC   C4A62298  11.311  22.937   7.350
 9292POPC   C1B62299  11.022  22.863   6.450
 9292POPC   C2B62300  11.079  22.920   6.750
 9292POPC   C3B62301  11.028  22.921   7.050
 9292POPC   C4B62302  11.087  22.914   7.350
 9293POPC   NC362303  19.080  32.245   5.550
 9293POPC   PO462304  19.075  32.236   5.850
 9293POPC   GL162305  19.090  32.263   6.150
 9293POPC   GL262306  18.957  32.180   6.150
 9293POPC   C1A62307  19.072  32.284   6.450
 9293POPC   D2A62308  19.039  32.247   6.750
 9293POPC   C3A62309  19.062  32.245   7.050
 9293POPC   C4A62310  19.076  32.292   7.350
 9293POPC   C1B62311  18.834  32.057   6.450
 9293POPC   C2B62312  18.912  32.035   6.750
 9293POPC   C3B62313  18.904  32.042   7.050
 9293POPC   C4B62314  18.866  32.058   7.350
 9294POPC   NC362315  20.618  40.791   5.550
 9294POPC   PO462316  20.647  40.812   5.850
 9294POPC   GL162317  20.591  40.811   6.150
 9294POPC   GL262318  20.521  40.734   6.150
 9294POPC   C1A62319  20.644  40.817   6.450
 9294POPC   D2A62320  20.600  40.769   6.750
 9294POPC   C3A62321  20.660  40.758   7.050
 9294POPC   C4A62322  20.589  40.765   7.350
 9294POPC   C1B62323  20.394  40.637   6.450
 9294POPC   C2B62324  20.430  40.671   6.750
 9294POPC   C3B62325  20.381  40.662   7.050
 9294POPC   C4B62326  20.448  40.585   7.350
 9295POPC   NC362327  32.253  39.969   5.550
 9295POPC   PO462328  32.248  40.037   5.850
 9295POPC   GL162329  32.247  39.975   6.150
 9295POPC   GL262330  32.152  40.082   6.150
 9295POPC   C1A62331  32.207  40.009   6.450
 9295POPC   D2A62332  32.271  40.050   6.750
 9295POPC   C3A62333  32.282  39.991   7.050
 9295POPC   C4A62334  32.236  40.029   7.350
 9295POPC   C1B62335  31.969  40.044   6.450
 9295POPC   C2B62336  31.977  40.061   6.750
 9295POPC   C3B62337  31.980  40.104   7.050
 9295POPC   C4B62338  31.984  40.104   7.350
 9296POPC   NC362339  43.868  21.399   5.550
 9296POPC   PO462340  43.883  21.370   5.850
 9296POPC   GL162341  43.837  21.422   6.150
 9296POPC   GL262342  43.875  21.531   6.150
 9296POPC   C1A62343  43.926  21.359   6.450
 9296POPC   D2A62344  43.931  21.339   6.750
 9296POPC   C3A62345  43.859  21.361   7.050
 9296POPC   C4A62346  43.883  21.395   7.350
 9296POPC   C1B62347  43.872  21.682   6.450
 9296POPC   C2B62348  43.954  21.618   6.750
 9296POPC   C3B62349  43.894  21.681   7.050
 9296POPC   C4B62350  43.881  21.673   7.350
 9297POPC   NC362351  33.754  33.036   5.550
 9297POPC   PO462352  33.793  33.011   5.850
 9297POPC   GL162353  33.813  33.002   6.150
 9297POPC   GL262354  33.934  33.063   6.150
 9297POPC   C1A62355  33.781  33.030   6.450
 9297POPC   D2A62356  33.755  32.999   6.750
 9297POPC   C3A62357  33.775  32.975   7.050
 9297POPC   C4A62358  33.766  33.020   7.350
 9297POPC   C1B62359  33.975  33.131   6.450
 9297POPC   C2B62360  33.976  33.109   6.750
 9297POPC   C3B62361  34.058  33.110   7.050
 9297POPC   C4B62362  33.970  33.113   7.350
 9298POPC   NC362363   0.484  35.329   5.550
 9298POPC   PO462364   0.419  35.375   5.850
 9298POPC   GL162365   0.467  35.316   6.150
 9298POPC   GL262366   0.448  35.227   6.150
 9298POPC   C1A62367   0.436  35.346   6.450
 9298POPC   D2A62368   0.416  35.401   6.750
 9298POPC   C3A62369   0.473  35.369   7.050
 9298POPC   C4A62370   0.483  35.387   7.350
 9298POPC   C1B62371   0.517  35.111   6.450
 9298POPC   C2B62372   0.494  35.136   6.750
 9298POPC   C3B62373   0.548  35.101   7.050
 9298POPC   C4B62374   0.521  35.075   7.350
 9299POPC   NC362375  12.850   5.860   5.550
 9299POPC   PO462376  12.882   5.879   5.850
 9299POPC   GL162377  12.821   5.886   6.150
 9299POPC   GL262378  12.775   5.817   6.150
 9299POPC   C1A62379  12.839   5.910   6.450
 9299POPC   D2A62380  12.863   5.913   6.750
 9299POPC   C3A62381  12.835   5.867   7.050
 9299POPC   C4A62382  12.824   5.891   7.350
 9299POPC   C1B62383  12.708   5.714   6.450
 9299POPC   C2B62384  12.636   5.703   6.750
 9299POPC   C3B62385  12.695   5.711   7.050
 9299POPC   C4B62386  12.714   5.675   7.350
 9300POPC   NC362387  42.291   4.271   5.550
 9300POPC   PO462388  42.303   4.333   5.850
 9300POPC   GL162389  42.320   4.311   6.150
 9300POPC   GL262390  42.235   4.351   6.150
 9300POPC   C1A62391  42.347   4.326   6.450
 9300POPC   D2A62392  42.322   4.271   6.750
 9300POPC   C3A62393  42.328   4.304   7.050
 9300POPC   C4A62394  42.308   4.319   7.350
 9300POPC   C1B62395  42.129   4.434   6.450
 9300POPC   C2B62396  42.070   4.439   6.750
 9300POPC   C3B62397  42.056   4.360   7.050
 9300POPC   C4B62398  42.132   4.363   7.350
 9301POPC   NC362399   3.542   9.728   5.550
 9301POPC   PO462400   3.555   9.754   5.850
 9301POPC   GL162401   3.525   9.776   6.150
 9301POPC   GL262402   3.632   9.855   6.150
 9301POPC   C1A62403   3.500   9.712   6.450
 9301POPC   D2A62404   3.544   9.740   6.750
 9301POPC   C3A62405   3.498   9.705   7.050
 9301POPC   C4A62406   3.538   9.725   7.350
 9301POPC   C1B62407   3.663  10.003   6.450
 9301POPC   C2B62408   3.626   9.929   6.750
 9301POPC   C3B62409   3.677   9.973   7.050
 9301POPC   C4B62410   3.626   9.973   7.350
 9302POPC   NC362411   3.531  27.632   5.550
 9302POPC   PO462412   3.504  27.624   5.850
 9302POPC   GL162413   3.501  27.643   6.150
 9302POPC   GL262414   3.565  27.665   6.150
 9302POPC   C1A62415   3.517  27.639   6.450
 9302POPC   D2A62416   3.552  27.620   6.750
 9302POPC   C3A62417   3.585  27.626   7.050
 9302POPC   C4A62418   3.570  27.624   7.350
 9302POPC   C1B62419   3.585  27.787   6.450
 9302POPC   C2B62420   3.580  27.865   6.750
 9302POPC   C3B62421   3.564  27.789   7.050
 9302POPC   C4B62422   3.613  27.835   7.350
 9303POPC   NC362423  34.575   6.648   5.550
 9303POPC   PO462424  34.531   6.658   5.850
 9303POPC   GL162425  34.561   6.634   6.150
 9303POPC   GL262426  34.711   6.637   6.150
 9303POPC   C1A62427  34.583   6.676   6.450
 9303POPC   D2A62428  34.582   6.686   6.750
 9303POPC   C3A62429  34.614   6.677   7.050
 9303POPC   C4A62430  34.593   6.643   7.350
 9303POPC   C1B62431  34.856   6.567   6.450
 9303POPC   C2B62432  34.854   6.542   6.750
 9303POPC   C3B62433  34.796   6.545   7.050
 9303POPC   C4B62434  34.844   6.557   7.350
 9304POPC   NC362435  15.177   5.048   5.550
 9304POPC   PO462436  15.206   5.073   5.850
 9304POPC   GL162437  15.186   5.118   6.150
 9304POPC   GL262438  15.100   4.998   6.150
 9304POPC   C1A62439  15.147   5.071   6.450
 9304POPC   D2A62440  15.134   5.056   6.750
 9304POPC   C3A62441  15.226   5.057   7.050
 9304POPC   C4A62442  15.220   5.125   7.350
 9304POPC   C1B62443  15.066   4.888   6.450
 9304POPC   C2B62444  14.979   4.866   6.750
 9304POPC   C3B62445  15.002   4.928   7.050
 9304POPC   C4B62446  15.057   4.856   7.350
 9305POPC   NC362447  10.480  26.077   5.550
 9305POPC   PO462448  10.513  26.066   5.850
 9305POPC   GL162449  10.531  26.059   6.150
 9305POPC   GL262450  10.418  25.985   6.150
 9305POPC   C1A62451  10.557  25.996   6.450
 9305POPC   D2A62452  10.478  26.026   6.750
 9305POPC   C3A62453  10.523  26.047   7.050
 9305POPC   C4A62454  10.492  26.023   7.350
 9305POPC   C1B62455  10.354  25.941   6.450
 9305POPC   C2B62456  10.340  25.892   6.750
 9305POPC   C3B62457  10.330  25.868   7.050
 9305POPC   C4B62458  10.368  25.880   7.350
 9306POPC   NC362459  35.305  36.940   5.550
 9306POPC   PO462460  35.392  36.878   5.850
 9306POPC   GL162461  35.324  36.870   6.150
 9306POPC   GL262462  35.423  36.949   6.150
 9306POPC   C1A62463  35.351  36.898   6.450
 9306POPC   D2A62464  35.340  36.896   6.750
 9306POPC   C3A62465  35.358  36.890   7.050
 9306POPC   C4A62466  35.373  36.928   7.350
 9306POPC   C1B62467  35.567  37.025   6.450
 9306POPC   C2B62468  35.487  37.104   6.750
 9306POPC   C3B62469  35.529  37.088   7.050
 9306POPC   C4B62470  35.544  37.064   7.350
 9307POPC   NC362471   1.263  40.754   5.550
 9307POPC   PO462472   1.173  40.749   5.850
 9307POPC   GL162473   1.228  40.738   6.150
 9307POPC   GL262474   1.338  40.773   6.150
 9307POPC   C1A62475   1.235  40.783   6.450
 9307POPC   D2A62476   1.217  40.826   6.750
 9307POPC   C3A62477   1.186  40.766   7.050
 9307POPC   C4A62478   1.166  40.816   7.350
 9307POPC   C1B62479   1.462  40.650   6.450
 9307POPC   C2B62480   1.485  40.697   6.750
 9307POPC   C3B62481   1.386  40.690   7.050
 9307POPC   C4B62482   1.459  40.641   7.350
 9308POPC   NC362483  22.134  38.430   5.550
 9308POPC   PO462484  22.154  38.442   5.850
 9308POPC   GL162485  22.118  38.472   6.150
 9308POPC   GL262486  22.062  38.521   6.150
 9308POPC   C1A62487  22.195  38.490   6.450
 9308POPC   D2A62488  22.143  38.417   6.750
 9308POPC   C3A62489  22.135  38.435   7.050
 9308POPC   C4A62490  22.116  38.487   7.350
 9308POPC   C1B62491  21.989  38.608   6.450
 9308POPC   C2B62492  21.958  38.645   6.750
 9308POPC   C3B62493  21.938  38.604   7.050
 9308POPC   C4B62494  22.025  38.666   7.350
 9309POPC   NC362495  39.974   6.672   5.550
 9309POPC   PO462496  39.965   6.641   5.850
 9309POPC   GL162497  40.044   6.663   6.150
 9309POPC   GL262498  40.075   6.595   6.150
 9309POPC   C1A62499  40.033   6.678   6.450
 9309POPC   D2A62500  40.006   6.662   6.750
 9309POPC   C3A62501  40.005   6.644   7.050
 9309POPC   C4A62502  39.977   6.647   7.350
 9309POPC   C1B62503  40.192   6.526   6.450
 9309POPC   C2B62504  40.194   6.550   6.750
 9309POPC   C3B62505  40.192   6.499   7.050
 9309POPC   C4B62506  40.225   6.516   7.350
 9310POPC   NC362507  22.949   9.718   5.550
 9310POPC   PO462508  22.972   9.702   5.850
 9310POPC   GL162509  22.925   9.780   6.150
 9310POPC   GL262510  22.970   9.830   6.150
 9310POPC   C1A62511  22.912   9.713   6.450
 9310POPC   D2A62512  22.889   9.795   6.750
 9310POPC   C3A62513  22.985   9.706   7.050
 9310POPC   C4A62514  22.896   9.778   7.350
 9310POPC   C1B62515  23.018   9.950   6.450
 9310POPC   C2B62516  23.029   9.978   6.750
 9310POPC   C3B62517  22.959  10.019   7.050
 9310POPC   C4B62518  22.946  10.001   7.350
 9311POPC   NC362519  22.921  22.131   5.550
 9311POPC   PO462520  22.963  22.166   5.850
 9311POPC   GL162521  22.944  22.151   6.150
 9311POPC   GL262522  23.105  22.103   6.150
 9311POPC   C1A62523  22.962  22.145   6.450
 9311POPC   D2A62524  22.909  22.199   6.750
 9311POPC   C3A62525  22.908  22.180   7.050
 9311POPC   C4A62526  22.890  22.161   7.350
 9311POPC   C1B62527  23.202  22.122   6.450
 9311POPC   C2B62528  23.232  22.120   6.750
 9311POPC   C3B62529  23.137  22.136   7.050
 9311POPC   C4B62530  23.181  22.094   7.350
 9312POPC   NC362531  29.121   8.191   5.550
 9312POPC   PO462532  29.139   8.183   5.850
 9312POPC   GL162533  29.119   8.216   6.150
 9312POPC   GL262534  29.071   8.272   6.150
 9312POPC   C1A62535  29.109   8.162   6.450
 9312POPC   D2A62536  29.166   8.147   6.750
 9312POPC   C3A62537  29.109   8.239   7.050
 9312POPC   C4A62538  29.178   8.218   7.350
 9312POPC   C1B62539  28.919   8.280   6.450
 9312POPC   C2B62540  28.897   8.297   6.750
 9312POPC   C3B62541  28.978   8.372   7.050
 9312POPC   C4B62542  28.920   8.337   7.350
 9313POPC   NC362543   1.215  22.932   5.550
 9313POPC   PO462544   1.174  22.951   5.850
 9313POPC   GL162545   1.172  22.917   6.150
 9313POPC   GL262546   1.090  22.813   6.150
 9313POPC   C1A62547   1.215  22.941   6.450
 9313POPC   D2A62548   1.227  22.890   6.750
 9313POPC   C3A62549   1.198  22.949   7.050
 9313POPC   C4A62550   1.181  22.957   7.350
 9313POPC   C1B62551   0.988  22.818   6.450
 9313POPC   C2B62552   1.018  22.737   6.750
 9313POPC   C3B62553   1.058  22.812   7.050
 9313POPC   C4B62554   1.037  22.730   7.350
 9314POPC   NC362555   9.757  32.987   5.550
 9314POPC   PO462556   9.756  33.056   5.850
 9314POPC   GL162557   9.778  33.043   6.150
 9314POPC   GL262558   9.679  33.150   6.150
 9314POPC   C1A62559   9.757  33.011   6.450
 9314POPC   D2A62560   9.728  33.065   6.750
 9314POPC   C3A62561   9.743  33.003   7.050
 9314POPC   C4A62562   9.750  33.053   7.350
 9314POPC   C1B62563   9.596  33.217   6.450
 9314POPC   C2B62564   9.557  33.171   6.750
 9314POPC   C3B62565   9.553  33.214   7.050
 9314POPC   C4B62566   9.598  33.164   7.350
 9315POPC   NC362567  40.777  21.415   5.550
 9315POPC   PO462568  40.829  21.388   5.850
 9315POPC   GL162569  40.822  21.428   6.150
 9315POPC   GL262570  40.676  21.336   6.150
 9315POPC   C1A62571  40.805  21.395   6.450
 9315POPC   D2A62572  40.748  21.372   6.750
 9315POPC   C3A62573  40.761  21.426   7.050
 9315POPC   C4A62574  40.756  21.348   7.350
 9315POPC   C1B62575  40.499  21.368   6.450
 9315POPC   C2B62576  40.569  21.362   6.750
 9315POPC   C3B62577  40.494  21.397   7.050
 9315POPC   C4B62578  40.522  21.333   7.350
 9316POPC   NC362579  29.941   4.271   5.550
 9316POPC   PO462580  29.933   4.294   5.850
 9316POPC   GL162581  29.882   4.330   6.150
 9316POPC   GL262582  29.784   4.333   6.150
 9316POPC   C1A62583  29.912   4.311   6.450
 9316POPC   D2A62584  29.951   4.335   6.750
 9316POPC   C3A62585  29.923   4.299   7.050
 9316POPC   C4A62586  29.936   4.298   7.350
 9316POPC   C1B62587  29.639   4.390   6.450
 9316POPC   C2B62588  29.632   4.353   6.750
 9316POPC   C3B62589  29.690   4.394   7.050
 9316POPC   C4B62590  29.683   4.402   7.350
 9317POPC   NC362591  37.674  27.614   5.550
 9317POPC   PO462592  37.692  27.595   5.850
 9317POPC   GL162593  37.684  27.626   6.150
 9317POPC   GL262594  37.746  27.644   6.150
 9317POPC   C1A62595  37.653  27.587   6.450
 9317POPC   D2A62596  37.640  27.553   6.750
 9317POPC   C3A62597  37.642  27.608   7.050
 9317POPC   C4A62598  37.695  27.621   7.350
 9317POPC   C1B62599  37.819  27.826   6.450
 9317POPC   C2B62600  37.822  27.739   6.750
 9317POPC   C3B62601  37.844  27.813   7.050
 9317POPC   C4B62602  37.828  27.819   7.350
 9318POPC   NC362603  33.784  24.457   5.550
 9318POPC   PO462604  33.839  24.478   5.850
 9318POPC   GL162605  33.814  24.477   6.150
 9318POPC   GL262606  33.903  24.405   6.150
 9318POPC   C1A62607  33.790  24.466   6.450
 9318POPC   D2A62608  33.817  24.532   6.750
 9318POPC   C3A62609  33.763  24.461   7.050
 9318POPC   C4A62610  33.812  24.474   7.350
 9318POPC   C1B62611  34.025  24.344   6.450
 9318POPC   C2B62612  34.021  24.355   6.750
 9318POPC   C3B62613  33.983  24.300   7.050
 9318POPC   C4B62614  33.968  24.296   7.350
 9319POPC   NC362615  22.926  16.765   5.550
 9319POPC   PO462616  22.923  16.743   5.850
 9319POPC   GL162617  22.943  16.727   6.150
 9319POPC   GL262618  22.983  16.854   6.150
 9319POPC   C1A62619  22.893  16.728   6.450
 9319POPC   D2A62620  22.896  16.683   6.750
 9319POPC   C3A62621  22.928  16.718   7.050
 9319POPC   C4A62622  22.981  16.749   7.350
 9319POPC   C1B62623  23.070  16.865   6.450
 9319POPC   C2B62624  23.082  16.953   6.750
 9319POPC   C3B62625  23.076  16.886   7.050
 9319POPC   C4B62626  23.114  16.862   7.350
 9320POPC   NC362627  10.490  43.079   5.550
 9320POPC   PO462628  10.505  43.131   5.850
 9320POPC   GL162629  10.564  43.077   6.150
 9320POPC   GL262630  10.575  43.226   6.150
 9320POPC   C1A62631  10.565  43.120   6.450
 9320POPC   D2A62632  10.517  43.095   6.750
 9320POPC   C3A62633  10.483  43.075   7.050
 9320POPC   C4A62634  10.541  43.155   7.350
 9320POPC   C1B62635  10.720  43.283   6.450
 9320POPC   C2B62636  10.639  43.284   6.750
 9320POPC   C3B62637  10.690  43.270   7.050
 9320POPC   C4B62638  10.661  43.331   7.350
 9321POPC   NC362639  33.823   4.279   5.550
 9321POPC   PO462640  33.848   4.360   5.850
 9321POPC   GL162641  33.810   4.289   6.150
 9321POPC   GL262642  33.876   4.268   6.150
 9321POPC   C1A62643  33.789   4.299   6.450
 9321POPC   D2A62644  33.840   4.294   6.750
 9321POPC   C3A62645  33.815   4.309   7.050
 9321POPC   C4A62646  33.763   4.295   7.350
 9321POPC   C1B62647  34.010   4.247   6.450
 9321POPC   C2B62648  34.038   4.238   6.750
 9321POPC   C3B62649  34.011   4.238   7.050
 9321POPC   C4B62650  34.027   4.235   7.350
 9322POPC   NC362651   1.949  40.055   5.550
 9322POPC   PO462652   1.953  39.983   5.850
 9322POPC   GL162653   2.018  39.986   6.150
 9322POPC   GL262654   1.942  39.929   6.150
 9322POPC   C1A62655   1.978  39.976   6.450
 9322POPC   D2A62656   1.972  39.966   6.750
 9322POPC   C3A62657   1.993  39.959   7.050
 9322POPC   C4A62658   1.979  40.018   7.350
 9322POPC   C1B62659   1.767  39.823   6.450
 9322POPC   C2B62660   1.813  39.806   6.750
 9322POPC   C3B62661   1.821  39.825   7.050
 9322POPC   C4B62662   1.771  39.880   7.350
 9323POPC   NC362663   0.483  23.739   5.550
 9323POPC   PO462664   0.457  23.707   5.850
 9323POPC   GL162665   0.451  23.762   6.150
 9323POPC   GL262666   0.408  23.820   6.150
 9323POPC   C1A62667   0.396  23.745   6.450
 9323POPC   D2A62668   0.464  23.716   6.750
 9323POPC   C3A62669   0.419  23.673   7.050
 9323POPC   C4A62670   0.475  23.672   7.350
 9323POPC   C1B62671   0.391  23.934   6.450
 9323POPC   C2B62672   0.406  23.910   6.750
 9323POPC   C3B62673   0.330  23.996   7.050
 9323POPC   C4B62674   0.355  23.908   7.350
 9324POPC   NC362675  33.791  14.452   5.550
 9324POPC   PO462676  33.827  14.368   5.850
 9324POPC   GL162677  33.768  14.407   6.150
 9324POPC   GL262678  33.681  14.512   6.150
 9324POPC   C1A62679  33.775  14.414   6.450
 9324POPC   D2A62680  33.798  14.393   6.750
 9324POPC   C3A62681  33.815  14.449   7.050
 9324POPC   C4A62682  33.826  14.392   7.350
 9324POPC   C1B62683  33.597  14.587   6.450
 9324POPC   C2B62684  33.598  14.610   6.750
 9324POPC   C3B62685  33.622  14.634   7.050
 9324POPC   C4B62686  33.600  14.626   7.350
 9325POPC   NC362687  31.515  14.389   5.550
 9325POPC   PO462688  31.449  14.365   5.850
 9325POPC   GL162689  31.453  14.367   6.150
 9325POPC   GL262690  31.575  14.464   6.150
 9325POPC   C1A62691  31.517  14.430   6.450
 9325POPC   D2A62692  31.457  14.411   6.750
 9325POPC   C3A62693  31.453  14.451   7.050
 9325POPC   C4A62694  31.522  14.441   7.350
 9325POPC   C1B62695  31.722  14.460   6.450
 9325POPC   C2B62696  31.727  14.462   6.750
 9325POPC   C3B62697  31.716  14.389   7.050
 9325POPC   C4B62698  31.701  14.405   7.350
 9326POPC   NC362699   2.006  11.309   5.550
 9326POPC   PO462700   1.956  11.255   5.850
 9326POPC   GL162701   1.948  11.264   6.150
 9326POPC   GL262702   1.902  11.215   6.150
 9326POPC   C1A62703   2.017  11.297   6.450
 9326POPC   D2A62704   2.018  11.260   6.750
 9326POPC   C3A62705   2.003  11.268   7.050
 9326POPC   C4A62706   1.945  11.333   7.350
 9326POPC   C1B62707   1.911  11.037   6.450
 9326POPC   C2B62708   1.833  11.039   6.750
 9326POPC   C3B62709   1.851  11.123   7.050
 9326POPC   C4B62710   1.917  11.070   7.350
 9327POPC   NC362711  41.585  21.377   5.550
 9327POPC   PO462712  41.557  21.369   5.850
 9327POPC   GL162713  41.509  21.389   6.150
 9327POPC   GL262714  41.525  21.289   6.150
 9327POPC   C1A62715  41.526  21.356   6.450
 9327POPC   D2A62716  41.539  21.384   6.750
 9327POPC   C3A62717  41.541  21.390   7.050
 9327POPC   C4A62718  41.591  21.436   7.350
 9327POPC   C1B62719  41.567  21.104   6.450
 9327POPC   C2B62720  41.534  21.101   6.750
 9327POPC   C3B62721  41.537  21.106   7.050
 9327POPC   C4B62722  41.515  21.117   7.350
 9328POPC   NC362723  13.639  28.333   5.550
 9328POPC   PO462724  13.594  28.344   5.850
 9328POPC   GL162725  13.587  28.397   6.150
 9328POPC   GL262726  13.559  28.441   6.150
 9328POPC   C1A62727  13.627  28.411   6.450
 9328POPC   D2A62728  13.594  28.367   6.750
 9328POPC   C3A62729  13.654  28.349   7.050
 9328POPC   C4A62730  13.660  28.384   7.350
 9328POPC   C1B62731  13.473  28.525   6.450
 9328POPC   C2B62732  13.441  28.556   6.750
 9328POPC   C3B62733  13.429  28.550   7.050
 9328POPC   C4B62734  13.442  28.580   7.350
 9329POPC   NC362735  32.214  19.099   5.550
 9329POPC   PO462736  32.294  19.103   5.850
 9329POPC   GL162737  32.262  19.064   6.150
 9329POPC   GL262738  32.324  19.171   6.150
 9329POPC   C1A62739  32.230  19.062   6.450
 9329POPC   D2A62740  32.224  19.009   6.750
 9329POPC   C3A62741  32.272  19.065   7.050
 9329POPC   C4A62742  32.262  19.075   7.350
 9329POPC   C1B62743  32.276  19.336   6.450
 9329POPC   C2B62744  32.357  19.312   6.750
 9329POPC   C3B62745  32.302  19.267   7.050
 9329POPC   C4B62746  32.337  19.269   7.350
 9330POPC   NC362747  12.874  14.385   5.550
 9330POPC   PO462748  12.812  14.423   5.850
 9330POPC   GL162749  12.806  14.441   6.150
 9330POPC   GL262750  12.830  14.241   6.150
 9330POPC   C1A62751  12.829  14.374   6.450
 9330POPC   D2A62752  12.817  14.387   6.750
 9330POPC   C3A62753  12.847  14.383   7.050
 9330POPC   C4A62754  12.808  14.427   7.350
 9330POPC   C1B62755  12.888  14.123   6.450
 9330POPC   C2B62756  12.868  14.120   6.750
 9330POPC   C3B62757  12.858  14.196   7.050
 9330POPC   C4B62758  12.794  14.138   7.350
 9331POPC   NC362759  20.633  12.862   5.550
 9331POPC   PO462760  20.586  12.893   5.850
 9331POPC   GL162761  20.611  12.838   6.150
 9331POPC   GL262762  20.645  12.711   6.150
 9331POPC   C1A62763  20.576  12.823   6.450
 9331POPC   D2A62764  20.597  12.892   6.750
 9331POPC   C3A62765  20.586  12.880   7.050
 9331POPC   C4A62766  20.605  12.893   7.350
 9331POPC   C1B62767  20.668  12.593   6.450
 9331POPC   C2B62768  20.670  12.630   6.750
 9331POPC   C3B62769  20.669  12.567   7.050
 9331POPC   C4B62770  20.596  12.624   7.350
 9332POPC   NC362771  40.054  15.190   5.550
 9332POPC   PO462772  39.999  15.225   5.850
 9332POPC   GL162773  40.017  15.221   6.150
 9332POPC   GL262774  39.903  15.128   6.150
 9332POPC   C1A62775  39.993  15.180   6.450
 9332POPC   D2A62776  39.982  15.211   6.750
 9332POPC   C3A62777  40.041  15.166   7.050
 9332POPC   C4A62778  40.055  15.147   7.350
 9332POPC   C1B62779  39.742  15.169   6.450
 9332POPC   C2B62780  39.734  15.182   6.750
 9332POPC   C3B62781  39.776  15.215   7.050
 9332POPC   C4B62782  39.732  15.167   7.350
 9333POPC   NC362783   8.228  33.849   5.550
 9333POPC   PO462784   8.178  33.769   5.850
 9333POPC   GL162785   8.214  33.804   6.150
 9333POPC   GL262786   8.148  33.903   6.150
 9333POPC   C1A62787   8.188  33.757   6.450
 9333POPC   D2A62788   8.187  33.753   6.750
 9333POPC   C3A62789   8.198  33.800   7.050
 9333POPC   C4A62790   8.239  33.845   7.350
 9333POPC   C1B62791   8.007  34.010   6.450
 9333POPC   C2B62792   8.099  33.969   6.750
 9333POPC   C3B62793   8.081  33.991   7.050
 9333POPC   C4B62794   8.066  33.987   7.350
 9334POPC   NC362795  10.555   2.736   5.550
 9334POPC   PO462796  10.500   2.736   5.850
 9334POPC   GL162797  10.477   2.759   6.150
 9334POPC   GL262798  10.488   2.681   6.150
 9334POPC   C1A62799  10.511   2.800   6.450
 9334POPC   D2A62800  10.478   2.798   6.750
 9334POPC   C3A62801  10.551   2.805   7.050
 9334POPC   C4A62802  10.487   2.723   7.350
 9334POPC   C1B62803  10.456   2.491   6.450
 9334POPC   C2B62804  10.412   2.544   6.750
 9334POPC   C3B62805  10.458   2.529   7.050
 9334POPC   C4B62806  10.430   2.561   7.350
 9335POPC   NC362807  30.707  28.406   5.550
 9335POPC   PO462808  30.678  28.350   5.850
 9335POPC   GL162809  30.648  28.390   6.150
 9335POPC   GL262810  30.688  28.229   6.150
 9335POPC   C1A62811  30.709  28.373   6.450
 9335POPC   D2A62812  30.647  28.412   6.750
 9335POPC   C3A62813  30.657  28.360   7.050
 9335POPC   C4A62814  30.691  28.406   7.350
 9335POPC   C1B62815  30.584  28.097   6.450
 9335POPC   C2B62816  30.674  28.080   6.750
 9335POPC   C3B62817  30.598  28.081   7.050
 9335POPC   C4B62818  30.620  28.090   7.350
 9336POPC   NC362819  36.111  36.138   5.550
 9336POPC   PO462820  36.117  36.147   5.850
 9336POPC   GL162821  36.107  36.103   6.150
 9336POPC   GL262822  36.251  35.990   6.150
 9336POPC   C1A62823  36.148  36.149   6.450
 9336POPC   D2A62824  36.085  36.133   6.750
 9336POPC   C3A62825  36.131  36.168   7.050
 9336POPC   C4A62826  36.128  36.082   7.350
 9336POPC   C1B62827  36.328  35.979   6.450
 9336POPC   C2B62828  36.287  35.968   6.750
 9336POPC   C3B62829  36.249  35.942   7.050
 9336POPC   C4B62830  36.294  35.926   7.350
 9337POPC   NC362831  29.951   9.771   5.550
 9337POPC   PO462832  29.963   9.768   5.850
 9337POPC   GL162833  29.893   9.724   6.150
 9337POPC   GL262834  29.820   9.846   6.150
 9337POPC   C1A62835  29.955   9.749   6.450
 9337POPC   D2A62836  29.881   9.726   6.750
 9337POPC   C3A62837  29.898   9.762   7.050
 9337POPC   C4A62838  29.888   9.781   7.350
 9337POPC   C1B62839  29.722   9.886   6.450
 9337POPC   C2B62840  29.720   9.835   6.750
 9337POPC   C3B62841  29.697   9.881   7.050
 9337POPC   C4B62842  29.710   9.853   7.350
 9338POPC   NC362843  34.586  24.498   5.550
 9338POPC   PO462844  34.539  24.518   5.850
 9338POPC   GL162845  34.534  24.470   6.150
 9338POPC   GL262846  34.512  24.403   6.150
 9338POPC   C1A62847  34.537  24.505   6.450
 9338POPC   D2A62848  34.591  24.465   6.750
 9338POPC   C3A62849  34.541  24.521   7.050
 9338POPC   C4A62850  34.608  24.450   7.350
 9338POPC   C1B62851  34.498  24.297   6.450
 9338POPC   C2B62852  34.481  24.257   6.750
 9338POPC   C3B62853  34.460  24.276   7.050
 9338POPC   C4B62854  34.519  24.262   7.350
 9339POPC   NC362855   2.019  27.561   5.550
 9339POPC   PO462856   2.018  27.621   5.850
 9339POPC   GL162857   1.979  27.559   6.150
 9339POPC   GL262858   1.884  27.558   6.150
 9339POPC   C1A62859   1.953  27.612   6.450
 9339POPC   D2A62860   1.992  27.562   6.750
 9339POPC   C3A62861   1.963  27.552   7.050
 9339POPC   C4A62862   1.973  27.544   7.350
 9339POPC   C1B62863   1.750  27.561   6.450
 9339POPC   C2B62864   1.778  27.514   6.750
 9339POPC   C3B62865   1.723  27.520   7.050
 9339POPC   C4B62866   1.787  27.578   7.350
 9340POPC   NC362867  32.199  26.045   5.550
 9340POPC   PO462868  32.286  26.002   5.850
 9340POPC   GL162869  32.276  26.057   6.150
 9340POPC   GL262870  32.170  26.120   6.150
 9340POPC   C1A62871  32.217  26.010   6.450
 9340POPC   D2A62872  32.214  26.059   6.750
 9340POPC   C3A62873  32.217  26.036   7.050
 9340POPC   C4A62874  32.241  26.035   7.350
 9340POPC   C1B62875  32.036  26.141   6.450
 9340POPC   C2B62876  32.008  26.188   6.750
 9340POPC   C3B62877  32.045  26.138   7.050
 9340POPC   C4B62878  31.990  26.149   7.350
 9341POPC   NC362879  34.625  25.306   5.550
 9341POPC   PO462880  34.616  25.231   5.850
 9341POPC   GL162881  34.611  25.291   6.150
 9341POPC   GL262882  34.515  25.305   6.150
 9341POPC   C1A62883  34.542  25.248   6.450
 9341POPC   D2A62884  34.592  25.288   6.750
 9341POPC   C3A62885  34.613  25.292   7.050
 9341POPC   C4A62886  34.579  25.283   7.350
 9341POPC   C1B62887  34.409  25.355   6.450
 9341POPC   C2B62888  34.343  25.389   6.750
 9341POPC   C3B62889  34.320  25.361   7.050
 9341POPC   C4B62890  34.404  25.414   7.350
 9342POPC   NC362891  11.272  13.588   5.550
 9342POPC   PO462892  11.281  13.645   5.850
 9342POPC   GL162893  11.313  13.583   6.150
 9342POPC   GL262894  11.345  13.507   6.150
 9342POPC   C1A62895  11.336  13.591   6.450
 9342POPC   D2A62896  11.321  13.585   6.750
 9342POPC   C3A62897  11.337  13.604   7.050
 9342POPC   C4A62898  11.265  13.640   7.350
 9342POPC   C1B62899  11.502  13.456   6.450
 9342POPC   C2B62900  11.502  13.457   6.750
 9342POPC   C3B62901  11.411  13.444   7.050
 9342POPC   C4B62902  11.457  13.457   7.350
 9343POPC   NC362903  28.371  13.673   5.550
 9343POPC   PO462904  28.396  13.586   5.850
 9343POPC   GL162905  28.348  13.644   6.150
 9343POPC   GL262906  28.443  13.562   6.150
 9343POPC   C1A62907  28.335  13.587   6.450
 9343POPC   D2A62908  28.331  13.596   6.750
 9343POPC   C3A62909  28.418  13.608   7.050
 9343POPC   C4A62910  28.396  13.580   7.350
 9343POPC   C1B62911  28.609  13.592   6.450
 9343POPC   C2B62912  28.646  13.565   6.750
 9343POPC   C3B62913  28.632  13.517   7.050
 9343POPC   C4B62914  28.608  13.562   7.350
 9344POPC   NC362915   3.579  22.188   5.550
 9344POPC   PO462916   3.557  22.201   5.850
 9344POPC   GL162917   3.571  22.114   6.150
 9344POPC   GL262918   3.560  22.029   6.150
 9344POPC   C1A62919   3.529  22.162   6.450
 9344POPC   D2A62920   3.523  22.165   6.750
 9344POPC   C3A62921   3.558  22.196   7.050
 9344POPC   C4A62922   3.517  22.194   7.350
 9344POPC   C1B62923   3.634  21.903   6.450
 9344POPC   C2B62924   3.673  21.976   6.750
 9344POPC   C3B62925   3.628  21.910   7.050
 9344POPC   C4B62926   3.651  21.894   7.350
 9345POPC   NC362927  34.565  10.503   5.550
 9345POPC   PO462928  34.534  10.519   5.850
 9345POPC   GL162929  34.571  10.536   6.150
 9345POPC   GL262930  34.554  10.427   6.150
 9345POPC   C1A62931  34.537  10.510   6.450
 9345POPC   D2A62932  34.581  10.539   6.750
 9345POPC   C3A62933  34.555  10.482   7.050
 9345POPC   C4A62934  34.625  10.478   7.350
 9345POPC   C1B62935  34.546  10.304   6.450
 9345POPC   C2B62936  34.618  10.319   6.750
 9345POPC   C3B62937  34.553  10.249   7.050
 9345POPC   C4B62938  34.569  10.294   7.350
 9346POPC   NC362939  11.265  34.591   5.550
 9346POPC   PO462940  11.342  34.601   5.850
 9346POPC   GL162941  11.270  34.594   6.150
 9346POPC   GL262942  11.328  34.487   6.150
 9346POPC   C1A62943  11.271  34.616   6.450
 9346POPC   D2A62944  11.276  34.533   6.750
 9346POPC   C3A62945  11.277  34.610   7.050
 9346POPC   C4A62946  11.321  34.554   7.350
 9346POPC   C1B62947  11.426  34.301   6.450
 9346POPC   C2B62948  11.363  34.297   6.750
 9346POPC   C3B62949  11.418  34.318   7.050
 9346POPC   C4B62950  11.349  34.309   7.350
 9347POPC   NC362951  29.926  13.638   5.550
 9347POPC   PO462952  29.947  13.587   5.850
 9347POPC   GL162953  29.949  13.587   6.150
 9347POPC   GL262954  29.755  13.626   6.150
 9347POPC   C1A62955  29.910  13.633   6.450
 9347POPC   D2A62956  29.955  13.617   6.750
 9347POPC   C3A62957  29.882  13.671   7.050
 9347POPC   C4A62958  29.938  13.648   7.350
 9347POPC   C1B62959  29.696  13.571   6.450
 9347POPC   C2B62960  29.635  13.585   6.750
 9347POPC   C3B62961  29.717  13.603   7.050
 9347POPC   C4B62962  29.717  13.598   7.350
 9348POPC   NC362963   8.194  43.934   5.550
 9348POPC   PO462964   8.214  43.908   5.850
 9348POPC   GL162965   8.165  43.899   6.150
 9348POPC   GL262966   8.082  43.796   6.150
 9348POPC   C1A62967   8.186  43.904   6.450
 9348POPC   D2A62968   8.186  43.905   6.750
 9348POPC   C3A62969   8.153  43.878   7.050
 9348POPC   C4A62970   8.221  43.849   7.350
 9348POPC   C1B62971   8.029  43.742   6.450
 9348POPC   C2B62972   8.001  43.783   6.750
 9348POPC   C3B62973   7.959  43.725   7.050
 9348POPC   C4B62974   8.015  43.743   7.350
 9349POPC   NC362975   9.791   4.268   5.550
 9349POPC   PO462976   9.777   4.366   5.850
 9349POPC   GL162977   9.736   4.289   6.150
 9349POPC   GL262978   9.798   4.183   6.150
 9349POPC   C1A62979   9.717   4.305   6.450
 9349POPC   D2A62980   9.784   4.329   6.750
 9349POPC   C3A62981   9.713   4.330   7.050
 9349POPC   C4A62982   9.722   4.291   7.350
 9349POPC   C1B62983   9.802   4.072   6.450
 9349POPC   C2B62984   9.844   4.076   6.750
 9349POPC   C3B62985   9.829   4.108   7.050
 9349POPC   C4B62986   9.798   4.039   7.350
 9350POPC   NC362987  29.153  33.038   5.550
 9350POPC   PO462988  29.170  33.001   5.850
 9350POPC   GL162989  29.102  32.986   6.150
 9350POPC   GL262990  29.249  32.984   6.150
 9350POPC   C1A62991  29.099  33.027   6.450
 9350POPC   D2A62992  29.167  33.055   6.750
 9350POPC   C3A62993  29.104  33.067   7.050
 9350POPC   C4A62994  29.165  33.037   7.350
 9350POPC   C1B62995  29.362  32.967   6.450
 9350POPC   C2B62996  29.345  33.018   6.750
 9350POPC   C3B62997  29.436  32.994   7.050
 9350POPC   C4B62998  29.377  32.968   7.350
 9351POPC   NC362999  44.616  34.555   5.550
 9351POPC   PO463000  44.615  34.534   5.850
 9351POPC   GL163001  44.703  34.551   6.150
 9351POPC   GL263002  44.770  34.643   6.150
 9351POPC   C1A63003  44.638  34.535   6.450
 9351POPC   D2A63004  44.696  34.556   6.750
 9351POPC   C3A63005  44.648  34.528   7.050
 9351POPC   C4A63006  44.706  34.560   7.350
 9351POPC   C1B63007  44.930  34.678   6.450
 9351POPC   C2B63008  44.879  34.645   6.750
 9351POPC   C3B63009  44.949  34.648   7.050
 9351POPC   C4B63010  44.891  34.634   7.350
 9352POPC   NC363011  27.635  34.584   5.550
 9352POPC   PO463012  27.642  34.586   5.850
 9352POPC   GL163013  27.569  34.561   6.150
 9352POPC   GL263014  27.540  34.410   6.150
 9352POPC   C1A63015  27.558  34.527   6.450
 9352POPC   D2A63016  27.595  34.554   6.750
 9352POPC   C3A63017  27.552  34.545   7.050
 9352POPC   C4A63018  27.643  34.615   7.350
 9352POPC   C1B63019  27.540  34.292   6.450
 9352POPC   C2B63020  27.568  34.344   6.750
 9352POPC   C3B63021  27.499  34.345   7.050
 9352POPC   C4B63022  27.516  34.319   7.350
 9353POPC   NC363023  13.621  19.088   5.550
 9353POPC   PO463024  13.626  19.022   5.850
 9353POPC   GL163025  13.580  19.015   6.150
 9353POPC   GL263026  13.564  18.963   6.150
 9353POPC   C1A63027  13.618  19.078   6.450
 9353POPC   D2A63028  13.633  19.014   6.750
 9353POPC   C3A63029  13.607  19.011   7.050
 9353POPC   C4A63030  13.643  19.044   7.350
 9353POPC   C1B63031  13.386  18.896   6.450
 9353POPC   C2B63032  13.421  18.926   6.750
 9353POPC   C3B63033  13.384  18.869   7.050
 9353POPC   C4B63034  13.462  18.918   7.350
 9354POPC   NC363035   9.791   6.665   5.550
 9354POPC   PO463036   9.699   6.614   5.850
 9354POPC   GL163037   9.716   6.668   6.150
 9354POPC   GL263038   9.681   6.747   6.150
 9354POPC   C1A63039   9.716   6.682   6.450
 9354POPC   D2A63040   9.705   6.610   6.750
 9354POPC   C3A63041   9.740   6.664   7.050
 9354POPC   C4A63042   9.741   6.679   7.350
 9354POPC   C1B63043   9.563   6.821   6.450
 9354POPC   C2B63044   9.593   6.817   6.750
 9354POPC   C3B63045   9.597   6.775   7.050
 9354POPC   C4B63046   9.592   6.807   7.350
 9355POPC   NC363047  24.449   6.644   5.550
 9355POPC   PO463048  24.502   6.659   5.850
 9355POPC   GL163049  24.446   6.620   6.150
 9355POPC   GL263050  24.379   6.613   6.150
 9355POPC   C1A63051  24.469   6.616   6.450
 9355POPC   D2A63052  24.462   6.655   6.750
 9355POPC   C3A63053  24.534   6.627   7.050
 9355POPC   C4A63054  24.447   6.642   7.350
 9355POPC   C1B63055  24.245   6.563   6.450
 9355POPC   C2B63056  24.231   6.566   6.750
 9355POPC   C3B63057  24.286   6.598   7.050
 9355POPC   C4B63058  24.205   6.545   7.350
 9356POPC   NC363059   8.200  31.474   5.550
 9356POPC   PO463060   8.231  31.507   5.850
 9356POPC   GL163061   8.225  31.502   6.150
 9356POPC   GL263062   8.073  31.395   6.150
 9356POPC   C1A63063   8.161  31.454   6.450
 9356POPC   D2A63064   8.221  31.440   6.750
 9356POPC   C3A63065   8.169  31.485   7.050
 9356POPC   C4A63066   8.228  31.437   7.350
 9356POPC   C1B63067   8.020  31.342   6.450
 9356POPC   C2B63068   8.016  31.411   6.750
 9356POPC   C3B63069   7.945  31.322   7.050
 9356POPC   C4B63070   7.968  31.392   7.350
 9357POPC   NC363071  35.390   8.240   5.550
 9357POPC   PO463072  35.325   8.195   5.850
 9357POPC   GL163073  35.302   8.229   6.150
 9357POPC   GL263074  35.244   8.202   6.150
 9357POPC   C1A63075  35.318   8.168   6.450
 9357POPC   D2A63076  35.385   8.161   6.750
 9357POPC   C3A63077  35.365   8.245   7.050
 9357POPC   C4A63078  35.388   8.156   7.350
 9357POPC   C1B63079  35.075   8.260   6.450
 9357POPC   C2B63080  35.081   8.300   6.750
 9357POPC   C3B63081  35.129   8.212   7.050
 9357POPC   C4B63082  35.115   8.207   7.350
 9358POPC   NC363083  14.427  16.745   5.550
 9358POPC   PO463084  14.448  16.727   5.850
 9358POPC   GL163085  14.447  16.753   6.150
 9358POPC   GL263086  14.475  16.800   6.150
 9358POPC   C1A63087  14.422  16.767   6.450
 9358POPC   D2A63088  14.450  16.749   6.750
 9358POPC   C3A63089  14.370  16.753   7.050
 9358POPC   C4A63090  14.354  16.713   7.350
 9358POPC   C1B63091  14.516  16.983   6.450
 9358POPC   C2B63092  14.541  16.934   6.750
 9358POPC   C3B63093  14.535  16.967   7.050
 9358POPC   C4B63094  14.552  16.904   7.350
 9359POPC   NC363095   1.985  44.693   5.550
 9359POPC   PO463096   1.966  44.706   5.850
 9359POPC   GL163097   2.032  44.660   6.150
 9359POPC   GL263098   2.082  44.582   6.150
 9359POPC   C1A63099   2.030  44.645   6.450
 9359POPC   D2A63100   2.001  44.674   6.750
 9359POPC   C3A63101   1.966  44.711   7.050
 9359POPC   C4A63102   2.006  44.684   7.350
 9359POPC   C1B63103   2.182  44.485   6.450
 9359POPC   C2B63104   2.154  44.474   6.750
 9359POPC   C3B63105   2.246  44.496   7.050
 9359POPC   C4B63106   2.234  44.517   7.350
 9360POPC   NC363107   8.189  23.677   5.550
 9360POPC   PO463108   8.159  23.746   5.850
 9360POPC   GL163109   8.213  23.668   6.150
 9360POPC   GL263110   8.292  23.781   6.150
 9360POPC   C1A63111   8.192  23.689   6.450
 9360POPC   D2A63112   8.177  23.729   6.750
 9360POPC   C3A63113   8.207  23.688   7.050
 9360POPC   C4A63114   8.204  23.705   7.350
 9360POPC   C1B63115   8.469  23.854   6.450
 9360POPC   C2B63116   8.461  23.771   6.750
 9360POPC   C3B63117   8.398  23.832   7.050
 9360POPC   C4B63118   8.466  23.764   7.350
 9361POPC   NC363119  29.121  37.652   5.550
 9361POPC   PO463120  29.181  37.644   5.850
 9361POPC   GL163121  29.181  37.692   6.150
 9361POPC   GL263122  29.172  37.611   6.150
 9361POPC   C1A63123  29.137  37.659   6.450
 9361POPC   D2A63124  29.100  37.634   6.750
 9361POPC   C3A63125  29.119  37.709   7.050
 9361POPC   C4A63126  29.155  37.688   7.350
 9361POPC   C1B63127  29.288  37.464   6.450
 9361POPC   C2B63128  29.285  37.453   6.750
 9361POPC   C3B63129  29.302  37.407   7.050
 9361POPC   C4B63130  29.240  37.417   7.350
 9362POPC   NC363131  11.348  31.504   5.550
 9362POPC   PO463132  11.297  31.463   5.850
 9362POPC   GL163133  11.285  31.430   6.150
 9362POPC   GL263134  11.429  31.552   6.150
 9362POPC   C1A63135  11.319  31.490   6.450
 9362POPC   D2A63136  11.258  31.478   6.750
 9362POPC   C3A63137  11.260  31.459   7.050
 9362POPC   C4A63138  11.286  31.471   7.350
 9362POPC   C1B63139  11.500  31.521   6.450
 9362POPC   C2B63140  11.496  31.559   6.750
 9362POPC   C3B63141  11.572  31.576   7.050
 9362POPC   C4B63142  11.511  31.520   7.350
 9363POPC   NC363143  27.637  12.054   5.550
 9363POPC   PO463144  27.627  12.053   5.850
 9363POPC   GL163145  27.556  12.033   6.150
 9363POPC   GL263146  27.649  12.219   6.150
 9363POPC   C1A63147  27.641  12.118   6.450
 9363POPC   D2A63148  27.554  12.057   6.750
 9363POPC   C3A63149  27.546  12.120   7.050
 9363POPC   C4A63150  27.558  12.078   7.350
 9363POPC   C1B63151  27.643  12.294   6.450
 9363POPC   C2B63152  27.603  12.276   6.750
 9363POPC   C3B63153  27.595  12.304   7.050
 9363POPC   C4B63154  27.647  12.305   7.350
 9364POPC   NC363155  15.913  43.841   5.550
 9364POPC   PO463156  15.993  43.933   5.850
 9364POPC   GL163157  15.974  43.868   6.150
 9364POPC   GL263158  16.003  43.970   6.150
 9364POPC   C1A63159  15.963  43.864   6.450
 9364POPC   D2A63160  16.003  43.935   6.750
 9364POPC   C3A63161  15.999  43.840   7.050
 9364POPC   C4A63162  15.966  43.907   7.350
 9364POPC   C1B63163  16.033  44.091   6.450
 9364POPC   C2B63164  16.096  44.114   6.750
 9364POPC   C3B63165  16.062  44.098   7.050
 9364POPC   C4B63166  16.044  44.147   7.350
 9365POPC   NC363167  31.520   1.193   5.550
 9365POPC   PO463168  31.436   1.202   5.850
 9365POPC   GL163169  31.444   1.202   6.150
 9365POPC   GL263170  31.343   1.192   6.150
 9365POPC   C1A63171  31.462   1.251   6.450
 9365POPC   D2A63172  31.495   1.262   6.750
 9365POPC   C3A63173  31.430   1.254   7.050
 9365POPC   C4A63174  31.453   1.183   7.350
 9365POPC   C1B63175  31.276   1.047   6.450
 9365POPC   C2B63176  31.239   1.085   6.750
 9365POPC   C3B63177  31.282   1.056   7.050
 9365POPC   C4B63178  31.310   1.076   7.350
 9366POPC   NC363179  15.216  38.442   5.550
 9366POPC   PO463180  15.196  38.431   5.850
 9366POPC   GL163181  15.133  38.436   6.150
 9366POPC   GL263182  15.048  38.515   6.150
 9366POPC   C1A63183  15.160  38.438   6.450
 9366POPC   D2A63184  15.191  38.420   6.750
 9366POPC   C3A63185  15.196  38.444   7.050
 9366POPC   C4A63186  15.214  38.451   7.350
 9366POPC   C1B63187  14.893  38.485   6.450
 9366POPC   C2B63188  14.941  38.549   6.750
 9366POPC   C3B63189  14.931  38.512   7.050
 9366POPC   C4B63190  14.891  38.496   7.350
 9367POPC   NC363191  35.382  29.107   5.550
 9367POPC   PO463192  35.396  29.169   5.850
 9367POPC   GL163193  35.303  29.112   6.150
 9367POPC   GL263194  35.243  29.022   6.150
 9367POPC   C1A63195  35.396  29.114   6.450
 9367POPC   D2A63196  35.341  29.103   6.750
 9367POPC   C3A63197  35.399  29.166   7.050
 9367POPC   C4A63198  35.387  29.177   7.350
 9367POPC   C1B63199  35.209  28.982   6.450
 9367POPC   C2B63200  35.207  28.982   6.750
 9367POPC   C3B63201  35.191  28.944   7.050
 9367POPC   C4B63202  35.148  28.996   7.350
 9368POPC   NC363203   5.857  19.806   5.550
 9368POPC   PO463204   5.869  19.799   5.850
 9368POPC   GL163205   5.862  19.874   6.150
 9368POPC   GL263206   5.779  19.876   6.150
 9368POPC   C1A63207   5.831  19.856   6.450
 9368POPC   D2A63208   5.914  19.866   6.750
 9368POPC   C3A63209   5.846  19.788   7.050
 9368POPC   C4A63210   5.838  19.865   7.350
 9368POPC   C1B63211   5.694  19.976   6.450
 9368POPC   C2B63212   5.697  19.934   6.750
 9368POPC   C3B63213   5.634  19.945   7.050
 9368POPC   C4B63214   5.622  19.995   7.350
 9369POPC   NC363215  38.447  26.833   5.550
 9369POPC   PO463216  38.406  26.828   5.850
 9369POPC   GL163217  38.407  26.809   6.150
 9369POPC   GL263218  38.317  26.784   6.150
 9369POPC   C1A63219  38.419  26.786   6.450
 9369POPC   D2A63220  38.443  26.824   6.750
 9369POPC   C3A63221  38.483  26.847   7.050
 9369POPC   C4A63222  38.441  26.841   7.350
 9369POPC   C1B63223  38.237  26.699   6.450
 9369POPC   C2B63224  38.209  26.757   6.750
 9369POPC   C3B63225  38.267  26.693   7.050
 9369POPC   C4B63226  38.223  26.770   7.350
 9370POPC   NC363227   7.374   5.883   5.550
 9370POPC   PO463228   7.431   5.854   5.850
 9370POPC   GL163229   7.450   5.834   6.150
 9370POPC   GL263230   7.291   5.925   6.150
 9370POPC   C1A63231   7.450   5.832   6.450
 9370POPC   D2A63232   7.460   5.821   6.750
 9370POPC   C3A63233   7.463   5.908   7.050
 9370POPC   C4A63234   7.466   5.833   7.350
 9370POPC   C1B63235   7.215   5.877   6.450
 9370POPC   C2B63236   7.166   5.933   6.750
 9370POPC   C3B63237   7.177   5.951   7.050
 9370POPC   C4B63238   7.155   5.940   7.350
 9371POPC   NC363239  25.285  11.304   5.550
 9371POPC   PO463240  25.247  11.281   5.850
 9371POPC   GL163241  25.300  11.278   6.150
 9371POPC   GL263242  25.152  11.180   6.150
 9371POPC   C1A63243  25.299  11.343   6.450
 9371POPC   D2A63244  25.260  11.254   6.750
 9371POPC   C3A63245  25.307  11.320   7.050
 9371POPC   C4A63246  25.245  11.312   7.350
 9371POPC   C1B63247  25.095  11.093   6.450
 9371POPC   C2B63248  25.120  11.120   6.750
 9371POPC   C3B63249  25.052  11.180   7.050
 9371POPC   C4B63250  25.102  11.120   7.350
 9372POPC   NC363251  26.830   4.300   5.550
 9372POPC   PO463252  26.832   4.272   5.850
 9372POPC   GL163253  26.777   4.345   6.150
 9372POPC   GL263254  26.969   4.323   6.150
 9372POPC   C1A63255  26.840   4.288   6.450
 9372POPC   D2A63256  26.833   4.295   6.750
 9372POPC   C3A63257  26.821   4.344   7.050
 9372POPC   C4A63258  26.819   4.294   7.350
 9372POPC   C1B63259  27.090   4.398   6.450
 9372POPC   C2B63260  27.100   4.380   6.750
 9372POPC   C3B63261  27.071   4.353   7.050
 9372POPC   C4B63262  27.104   4.388   7.350
 9373POPC   NC363263  28.323  44.621   5.550
 9373POPC   PO463264  28.369  44.638   5.850
 9373POPC   GL163265  28.393  44.685   6.150
 9373POPC   GL263266  28.376  44.527   6.150
 9373POPC   C1A63267  28.324  44.651   6.450
 9373POPC   D2A63268  28.384  44.691   6.750
 9373POPC   C3A63269  28.346  44.651   7.050
 9373POPC   C4A63270  28.407  44.616   7.350
 9373POPC   C1B63271  28.332  44.406   6.450
 9373POPC   C2B63272  28.356  44.372   6.750
 9373POPC   C3B63273  28.281  44.416   7.050
 9373POPC   C4B63274  28.326  44.445   7.350
 9374POPC   NC363275  26.091  22.975   5.550
 9374POPC   PO463276  25.999  22.909   5.850
 9374POPC   GL163277  26.022  22.914   6.150
 9374POPC   GL263278  26.183  22.911   6.150
 9374POPC   C1A63279  26.074  22.930   6.450
 9374POPC   D2A63280  26.066  22.953   6.750
 9374POPC   C3A63281  26.023  22.901   7.050
 9374POPC   C4A63282  26.048  22.979   7.350
 9374POPC   C1B63283  26.251  22.948   6.450
 9374POPC   C2B63284  26.278  22.959   6.750
 9374POPC   C3B63285  26.246  22.951   7.050
 9374POPC   C4B63286  26.340  23.001   7.350
 9375POPC   NC363287  20.659  11.256   5.550
 9375POPC   PO463288  20.654  11.348   5.850
 9375POPC   GL163289  20.608  11.333   6.150
 9375POPC   GL263290  20.445  11.350   6.150
 9375POPC   C1A63291  20.591  11.301   6.450
 9375POPC   D2A63292  20.641  11.296   6.750
 9375POPC   C3A63293  20.632  11.294   7.050
 9375POPC   C4A63294  20.601  11.303   7.350
 9375POPC   C1B63295  20.411  11.405   6.450
 9375POPC   C2B63296  20.344  11.440   6.750
 9375POPC   C3B63297  20.375  11.367   7.050
 9375POPC   C4B63298  20.368  11.391   7.350
 9376POPC   NC363299   3.520  39.226   5.550
 9376POPC   PO463300   3.562  39.270   5.850
 9376POPC   GL163301   3.579  39.271   6.150
 9376POPC   GL263302   3.608  39.296   6.150
 9376POPC   C1A63303   3.521  39.234   6.450
 9376POPC   D2A63304   3.541  39.272   6.750
 9376POPC   C3A63305   3.498  39.262   7.050
 9376POPC   C4A63306   3.516  39.198   7.350
 9376POPC   C1B63307   3.644  39.390   6.450
 9376POPC   C2B63308   3.707  39.423   6.750
 9376POPC   C3B63309   3.739  39.430   7.050
 9376POPC   C4B63310   3.734  39.394   7.350
 9377POPC   NC363311  19.854  33.008   5.550
 9377POPC   PO463312  19.828  33.030   5.850
 9377POPC   GL163313  19.876  33.022   6.150
 9377POPC   GL263314  19.721  33.038   6.150
 9377POPC   C1A63315  19.862  32.977   6.450
 9377POPC   D2A63316  19.785  33.019   6.750
 9377POPC   C3A63317  19.867  33.033   7.050
 9377POPC   C4A63318  19.823  33.059   7.350
 9377POPC   C1B63319  19.577  33.109   6.450
 9377POPC   C2B63320  19.621  33.104   6.750
 9377POPC   C3B63321  19.557  33.056   7.050
 9377POPC   C4B63322  19.642  33.126   7.350
 9378POPC   NC363323  19.842  16.776   5.550
 9378POPC   PO463324  19.867  16.779   5.850
 9378POPC   GL163325  19.814  16.712   6.150
 9378POPC   GL263326  19.725  16.659   6.150
 9378POPC   C1A63327  19.789  16.708   6.450
 9378POPC   D2A63328  19.856  16.724   6.750
 9378POPC   C3A63329  19.853  16.687   7.050
 9378POPC   C4A63330  19.862  16.699   7.350
 9378POPC   C1B63331  19.641  16.537   6.450
 9378POPC   C2B63332  19.611  16.576   6.750
 9378POPC   C3B63333  19.617  16.538   7.050
 9378POPC   C4B63334  19.690  16.606   7.350
 9379POPC   NC363335   9.767  21.340   5.550
 9379POPC   PO463336   9.766  21.360   5.850
 9379POPC   GL163337   9.760  21.366   6.150
 9379POPC   GL263338   9.784  21.506   6.150
 9379POPC   C1A63339   9.776  21.399   6.450
 9379POPC   D2A63340   9.752  21.341   6.750
 9379POPC   C3A63341   9.744  21.419   7.050
 9379POPC   C4A63342   9.741  21.369   7.350
 9379POPC   C1B63343   9.837  21.643   6.450
 9379POPC   C2B63344   9.808  21.662   6.750
 9379POPC   C3B63345   9.796  21.592   7.050
 9379POPC   C4B63346   9.824  21.586   7.350
 9380POPC   NC363347   1.192  27.635   5.550
 9380POPC   PO463348   1.229  27.596   5.850
 9380POPC   GL163349   1.255  27.608   6.150
 9380POPC   GL263350   1.116  27.633   6.150
 9380POPC   C1A63351   1.244  27.598   6.450
 9380POPC   D2A63352   1.234  27.564   6.750
 9380POPC   C3A63353   1.174  27.614   7.050
 9380POPC   C4A63354   1.225  27.604   7.350
 9380POPC   C1B63355   0.993  27.755   6.450
 9380POPC   C2B63356   0.961  27.709   6.750
 9380POPC   C3B63357   0.995  27.751   7.050
 9380POPC   C4B63358   1.030  27.695   7.350
 9381POPC   NC363359  31.467  44.683   5.550
 9381POPC   PO463360  31.509  44.679   5.850
 9381POPC   GL163361  31.431  44.709   6.150
 9381POPC   GL263362  31.431  44.500   6.150
 9381POPC   C1A63363  31.431  44.651   6.450
 9381POPC   D2A63364  31.513  44.656   6.750
 9381POPC   C3A63365  31.461  44.628   7.050
 9381POPC   C4A63366  31.490  44.650   7.350
 9381POPC   C1B63367  31.402  44.434   6.450
 9381POPC   C2B63368  31.459  44.365   6.750
 9381POPC   C3B63369  31.423  44.374   7.050
 9381POPC   C4B63370  31.430  44.457   7.350
 9382POPC   NC363371  41.509  44.708   5.550
 9382POPC   PO463372  41.597  44.632   5.850
 9382POPC   GL163373  41.581  44.619   6.150
 9382POPC   GL263374  41.642  44.595   6.150
 9382POPC   C1A63375  41.518  44.712   6.450
 9382POPC   D2A63376  41.561  44.622   6.750
 9382POPC   C3A63377  41.594  44.675   7.050
 9382POPC   C4A63378  41.554  44.712   7.350
 9382POPC   C1B63379  41.735  44.532   6.450
 9382POPC   C2B63380  41.779  44.598   6.750
 9382POPC   C3B63381  41.786  44.593   7.050
 9382POPC   C4B63382  41.811  44.527   7.350
 9383POPC   NC363383   2.720  26.792   5.550
 9383POPC   PO463384   2.750  26.816   5.850
 9383POPC   GL163385   2.812  26.809   6.150
 9383POPC   GL263386   2.652  26.909   6.150
 9383POPC   C1A63387   2.723  26.776   6.450
 9383POPC   D2A63388   2.733  26.803   6.750
 9383POPC   C3A63389   2.787  26.839   7.050
 9383POPC   C4A63390   2.791  26.772   7.350
 9383POPC   C1B63391   2.580  26.972   6.450
 9383POPC   C2B63392   2.599  26.963   6.750
 9383POPC   C3B63393   2.575  27.021   7.050
 9383POPC   C4B63394   2.539  26.973   7.350
 9384POPC   NC363395  19.013  27.601   5.550
 9384POPC   PO463396  19.016  27.619   5.850
 9384POPC   GL163397  19.049  27.599   6.150
 9384POPC   GL263398  19.050  27.720   6.150
 9384POPC   C1A63399  19.075  27.581   6.450
 9384POPC   D2A63400  19.106  27.600   6.750
 9384POPC   C3A63401  19.027  27.544   7.050
 9384POPC   C4A63402  19.100  27.582   7.350
 9384POPC   C1B63403  18.945  27.786   6.450
 9384POPC   C2B63404  18.972  27.861   6.750
 9384POPC   C3B63405  18.907  27.810   7.050
 9384POPC   C4B63406  18.965  27.788   7.350
 9385POPC   NC363407  39.234  15.953   5.550
 9385POPC   PO463408  39.229  16.000   5.850
 9385POPC   GL163409  39.270  15.949   6.150
 9385POPC   GL263410  39.187  15.801   6.150
 9385POPC   C1A63411  39.216  15.974   6.450
 9385POPC   D2A63412  39.250  15.970   6.750
 9385POPC   C3A63413  39.237  15.933   7.050
 9385POPC   C4A63414  39.187  15.910   7.350
 9385POPC   C1B63415  39.128  15.714   6.450
 9385POPC   C2B63416  39.078  15.759   6.750
 9385POPC   C3B63417  39.106  15.781   7.050
 9385POPC   C4B63418  39.113  15.732   7.350
 9386POPC   NC363419  21.341  36.918   5.550
 9386POPC   PO463420  21.409  36.871   5.850
 9386POPC   GL163421  21.418  36.945   6.150
 9386POPC   GL263422  21.312  36.963   6.150
 9386POPC   C1A63423  21.412  36.896   6.450
 9386POPC   D2A63424  21.367  36.911   6.750
 9386POPC   C3A63425  21.420  36.903   7.050
 9386POPC   C4A63426  21.353  36.918   7.350
 9386POPC   C1B63427  21.119  36.961   6.450
 9386POPC   C2B63428  21.156  36.999   6.750
 9386POPC   C3B63429  21.168  36.977   7.050
 9386POPC   C4B63430  21.134  36.968   7.350
 9387POPC   NC363431  17.539  19.079   5.550
 9387POPC   PO463432  17.463  19.070   5.850
 9387POPC   GL163433  17.460  19.009   6.150
 9387POPC   GL263434  17.634  19.089   6.150
 9387POPC   C1A63435  17.556  19.040   6.450
 9387POPC   D2A63436  17.533  19.015   6.750
 9387POPC   C3A63437  17.523  19.036   7.050
 9387POPC   C4A63438  17.494  19.040   7.350
 9387POPC   C1B63439  17.683  19.249   6.450
 9387POPC   C2B63440  17.665  19.256   6.750
 9387POPC   C3B63441  17.654  19.188   7.050
 9387POPC   C4B63442  17.678  19.212   7.350
 9388POPC   NC363443  18.244  43.099   5.550
 9388POPC   PO463444  18.240  43.131   5.850
 9388POPC   GL163445  18.286  43.104   6.150
 9388POPC   GL263446  18.276  43.220   6.150
 9388POPC   C1A63447  18.317  43.089   6.450
 9388POPC   D2A63448  18.284  43.121   6.750
 9388POPC   C3A63449  18.322  43.117   7.050
 9388POPC   C4A63450  18.272  43.153   7.350
 9388POPC   C1B63451  18.337  43.355   6.450
 9388POPC   C2B63452  18.386  43.393   6.750
 9388POPC   C3B63453  18.334  43.312   7.050
 9388POPC   C4B63454  18.343  43.353   7.350
 9389POPC   NC363455   7.424  33.014   5.550
 9389POPC   PO463456   7.398  33.063   5.850
 9389POPC   GL163457   7.427  32.989   6.150
 9389POPC   GL263458   7.304  33.106   6.150
 9389POPC   C1A63459   7.411  32.996   6.450
 9389POPC   D2A63460   7.378  33.074   6.750
 9389POPC   C3A63461   7.401  33.013   7.050
 9389POPC   C4A63462   7.423  33.023   7.350
 9389POPC   C1B63463   7.233  33.217   6.450
 9389POPC   C2B63464   7.302  33.191   6.750
 9389POPC   C3B63465   7.249  33.231   7.050
 9389POPC   C4B63466   7.214  33.170   7.350
 9390POPC   NC363467  22.931  35.315   5.550
 9390POPC   PO463468  22.924  35.376   5.850
 9390POPC   GL163469  22.980  35.343   6.150
 9390POPC   GL263470  22.894  35.523   6.150
 9390POPC   C1A63471  22.961  35.329   6.450
 9390POPC   D2A63472  22.921  35.333   6.750
 9390POPC   C3A63473  22.897  35.321   7.050
 9390POPC   C4A63474  22.930  35.360   7.350
 9390POPC   C1B63475  22.841  35.579   6.450
 9390POPC   C2B63476  22.893  35.588   6.750
 9390POPC   C3B63477  22.907  35.607   7.050
 9390POPC   C4B63478  22.884  35.590   7.350
 9391POPC   NC363479  18.319  17.488   5.550
 9391POPC   PO463480  18.319  17.479   5.850
 9391POPC   GL163481  18.246  17.481   6.150
 9391POPC   GL263482  18.223  17.408   6.150
 9391POPC   C1A63483  18.314  17.471   6.450
 9391POPC   D2A63484  18.286  17.527   6.750
 9391POPC   C3A63485  18.304  17.462   7.050
 9391POPC   C4A63486  18.294  17.503   7.350
 9391POPC   C1B63487  18.118  17.306   6.450
 9391POPC   C2B63488  18.097  17.285   6.750
 9391POPC   C3B63489  18.139  17.355   7.050
 9391POPC   C4B63490  18.066  17.352   7.350
 9392POPC   NC363491  15.191  17.479   5.550
 9392POPC   PO463492  15.160  17.537   5.850
 9392POPC   GL163493  15.217  17.516   6.150
 9392POPC   GL263494  15.130  17.338   6.150
 9392POPC   C1A63495  15.195  17.473   6.450
 9392POPC   D2A63496  15.151  17.551   6.750
 9392POPC   C3A63497  15.186  17.509   7.050
 9392POPC   C4A63498  15.218  17.552   7.350
 9392POPC   C1B63499  15.105  17.226   6.450
 9392POPC   C2B63500  15.136  17.246   6.750
 9392POPC   C3B63501  15.109  17.277   7.050
 9392POPC   C4B63502  15.127  17.305   7.350
 9393POPC   NC363503  13.660   7.421   5.550
 9393POPC   PO463504  13.669   7.391   5.850
 9393POPC   GL163505  13.664   7.431   6.150
 9393POPC   GL263506  13.560   7.277   6.150
 9393POPC   C1A63507  13.599   7.381   6.450
 9393POPC   D2A63508  13.632   7.413   6.750
 9393POPC   C3A63509  13.599   7.384   7.050
 9393POPC   C4A63510  13.665   7.383   7.350
 9393POPC   C1B63511  13.437   7.172   6.450
 9393POPC   C2B63512  13.506   7.177   6.750
 9393POPC   C3B63513  13.461   7.208   7.050
 9393POPC   C4B63514  13.512   7.233   7.350
 9394POPC   NC363515   1.197   1.977   5.550
 9394POPC   PO463516   1.230   1.945   5.850
 9394POPC   GL163517   1.261   2.001   6.150
 9394POPC   GL263518   1.052   1.977   6.150
 9394POPC   C1A63519   1.177   1.981   6.450
 9394POPC   D2A63520   1.200   2.036   6.750
 9394POPC   C3A63521   1.217   1.944   7.050
 9394POPC   C4A63522   1.180   2.000   7.350
 9394POPC   C1B63523   0.918   2.066   6.450
 9394POPC   C2B63524   0.998   2.019   6.750
 9394POPC   C3B63525   0.933   2.049   7.050
 9394POPC   C4B63526   0.992   1.972   7.350
 9395POPC   NC363527  27.552  25.293   5.550
 9395POPC   PO463528  27.597  25.272   5.850
 9395POPC   GL163529  27.586  25.261   6.150
 9395POPC   GL263530  27.509  25.410   6.150
 9395POPC   C1A63531  27.638  25.301   6.450
 9395POPC   D2A63532  27.611  25.259   6.750
 9395POPC   C3A63533  27.640  25.285   7.050
 9395POPC   C4A63534  27.548  25.284   7.350
 9395POPC   C1B63535  27.530  25.535   6.450
 9395POPC   C2B63536  27.522  25.531   6.750
 9395POPC   C3B63537  27.486  25.507   7.050
 9395POPC   C4B63538  27.487  25.489   7.350
 9396POPC   NC363539  43.080  30.706   5.550
 9396POPC   PO463540  43.124  30.654   5.850
 9396POPC   GL163541  43.102  30.689   6.150
 9396POPC   GL263542  43.165  30.616   6.150
 9396POPC   C1A63543  43.108  30.650   6.450
 9396POPC   D2A63544  43.103  30.671   6.750
 9396POPC   C3A63545  43.109  30.721   7.050
 9396POPC   C4A63546  43.072  30.667   7.350
 9396POPC   C1B63547  43.200  30.509   6.450
 9396POPC   C2B63548  43.214  30.481   6.750
 9396POPC   C3B63549  43.263  30.464   7.050
 9396POPC   C4B63550  43.262  30.520   7.350
 9397POPC   NC363551  19.811  40.741   5.550
 9397POPC   PO463552  19.862  40.754   5.850
 9397POPC   GL163553  19.859  40.808   6.150
 9397POPC   GL263554  19.754  40.819   6.150
 9397POPC   C1A63555  19.810  40.814   6.450
 9397POPC   D2A63556  19.813  40.775   6.750
 9397POPC   C3A63557  19.867  40.756   7.050
 9397POPC   C4A63558  19.841  40.773   7.350
 9397POPC   C1B63559  19.630  40.796   6.450
 9397POPC   C2B63560  19.586  40.837   6.750
 9397POPC   C3B63561  19.595  40.799   7.050
 9397POPC   C4B63562  19.576  40.826   7.350
 9398POPC   NC363563  37.686   6.617   5.550
 9398POPC   PO463564  37.688   6.635   5.850
 9398POPC   GL163565  37.725   6.630   6.150
 9398POPC   GL263566  37.822   6.539   6.150
 9398POPC   C1A63567  37.705   6.628   6.450
 9398POPC   D2A63568  37.709   6.663   6.750
 9398POPC   C3A63569  37.678   6.617   7.050
 9398POPC   C4A63570  37.630   6.668   7.350
 9398POPC   C1B63571  37.903   6.560   6.450
 9398POPC   C2B63572  37.892   6.506   6.750
 9398POPC   C3B63573  37.895   6.475   7.050
 9398POPC   C4B63574  37.939   6.480   7.350
 9399POPC   NC363575  36.865  22.982   5.550
 9399POPC   PO463576  36.952  22.952   5.850
 9399POPC   GL163577  36.939  22.926   6.150
 9399POPC   GL263578  36.821  22.922   6.150
 9399POPC   C1A63579  36.916  22.923   6.450
 9399POPC   D2A63580  36.951  22.889   6.750
 9399POPC   C3A63581  36.878  22.965   7.050
 9399POPC   C4A63582  36.929  22.894   7.350
 9399POPC   C1B63583  36.637  22.803   6.450
 9399POPC   C2B63584  36.650  22.809   6.750
 9399POPC   C3B63585  36.694  22.847   7.050
 9399POPC   C4B63586  36.650  22.845   7.350
 9400POPC   NC363587  10.547  37.677   5.550
 9400POPC   PO463588  10.553  37.728   5.850
 9400POPC   GL163589  10.554  37.677   6.150
 9400POPC   GL263590  10.492  37.587   6.150
 9400POPC   C1A63591  10.540  37.657   6.450
 9400POPC   D2A63592  10.524  37.705   6.750
 9400POPC   C3A63593  10.506  37.693   7.050
 9400POPC   C4A63594  10.559  37.689   7.350
 9400POPC   C1B63595  10.440  37.475   6.450
 9400POPC   C2B63596  10.471  37.425   6.750
 9400POPC   C3B63597  10.460  37.461   7.050
 9400POPC   C4B63598  10.378  37.424   7.350
 9401POPC   NC363599  29.182  36.947   5.550
 9401POPC   PO463600  29.133  36.909   5.850
 9401POPC   GL163601  29.139  36.905   6.150
 9401POPC   GL263602  29.069  36.878   6.150
 9401POPC   C1A63603  29.173  36.884   6.450
 9401POPC   D2A63604  29.105  36.929   6.750
 9401POPC   C3A63605  29.189  36.893   7.050
 9401POPC   C4A63606  29.180  36.945   7.350
 9401POPC   C1B63607  28.868  36.896   6.450
 9401POPC   C2B63608  28.908  36.847   6.750
 9401POPC   C3B63609  28.854  36.902   7.050
 9401POPC   C4B63610  28.873  36.839   7.350
 9402POPC   NC363611  41.597  20.586   5.550
 9402POPC   PO463612  41.589  20.617   5.850
 9402POPC   GL163613  41.546  20.597   6.150
 9402POPC   GL263614  41.699  20.635   6.150
 9402POPC   C1A63615  41.562  20.634   6.450
 9402POPC   D2A63616  41.509  20.607   6.750
 9402POPC   C3A63617  41.584  20.631   7.050
 9402POPC   C4A63618  41.555  20.601   7.350
 9402POPC   C1B63619  41.849  20.584   6.450
 9402POPC   C2B63620  41.853  20.540   6.750
 9402POPC   C3B63621  41.765  20.580   7.050
 9402POPC   C4B63622  41.852  20.607   7.350
 9403POPC   NC363623  29.895  21.340   5.550
 9403POPC   PO463624  29.878  21.383   5.850
 9403POPC   GL163625  29.915  21.399   6.150
 9403POPC   GL263626  29.954  21.307   6.150
 9403POPC   C1A63627  29.927  21.384   6.450
 9403POPC   D2A63628  29.946  21.388   6.750
 9403POPC   C3A63629  29.889  21.393   7.050
 9403POPC   C4A63630  29.968  21.427   7.350
 9403POPC   C1B63631  30.004  21.116   6.450
 9403POPC   C2B63632  29.998  21.147   6.750
 9403POPC   C3B63633  29.980  21.148   7.050
 9403POPC   C4B63634  30.019  21.112   7.350
 9404POPC   NC363635   0.464  21.404   5.550
 9404POPC   PO463636   0.410  21.389   5.850
 9404POPC   GL163637   0.445  21.375   6.150
 9404POPC   GL263638   0.299  21.455   6.150
 9404POPC   C1A63639   0.436  21.373   6.450
 9404POPC   D2A63640   0.455  21.378   6.750
 9404POPC   C3A63641   0.455  21.423   7.050
 9404POPC   C4A63642   0.461  21.429   7.350
 9404POPC   C1B63643   0.232  21.455   6.450
 9404POPC   C2B63644   0.217  21.473   6.750
 9404POPC   C3B63645   0.157  21.425   7.050
 9404POPC   C4B63646   0.242  21.399   7.350
 9405POPC   NC363647   4.273  43.085   5.550
 9405POPC   PO463648   4.353  43.157   5.850
 9405POPC   GL163649   4.339  43.090   6.150
 9405POPC   GL263650   4.224  43.205   6.150
 9405POPC   C1A63651   4.334  43.157   6.450
 9405POPC   D2A63652   4.339  43.092   6.750
 9405POPC   C3A63653   4.293  43.063   7.050
 9405POPC   C4A63654   4.308  43.128   7.350
 9405POPC   C1B63655   4.170  43.279   6.450
 9405POPC   C2B63656   4.150  43.240   6.750
 9405POPC   C3B63657   4.103  43.241   7.050
 9405POPC   C4B63658   4.106  43.241   7.350
 9406POPC   NC363659  36.174  27.605   5.550
 9406POPC   PO463660  36.101  27.561   5.850
 9406POPC   GL163661  36.146  27.587   6.150
 9406POPC   GL263662  36.201  27.750   6.150
 9406POPC   C1A63663  36.163  27.592   6.450
 9406POPC   D2A63664  36.113  27.547   6.750
 9406POPC   C3A63665  36.106  27.557   7.050
 9406POPC   C4A63666  36.091  27.565   7.350
 9406POPC   C1B63667  36.209  27.797   6.450
 9406POPC   C2B63668  36.221  27.785   6.750
 9406POPC   C3B63669  36.283  27.859   7.050
 9406POPC   C4B63670  36.259  27.853   7.350
 9407POPC   NC363671  29.105  30.719   5.550
 9407POPC   PO463672  29.168  30.649   5.850
 9407POPC   GL163673  29.168  30.743   6.150
 9407POPC   GL263674  29.179  30.813   6.150
 9407POPC   C1A63675  29.174  30.689   6.450
 9407POPC   D2A63676  29.153  30.652   6.750
 9407POPC   C3A63677  29.130  30.743   7.050
 9407POPC   C4A63678  29.112  30.675   7.350
 9407POPC   C1B63679  29.166  30.896   6.450
 9407POPC   C2B63680  29.229  30.900   6.750
 9407POPC   C3B63681  29.238  30.971   7.050
 9407POPC   C4B63682  29.167  30.974   7.350
 9408POPC   NC363683   0.416  29.128   5.550
 9408POPC   PO463684   0.463  29.100   5.850
 9408POPC   GL163685   0.397  29.151   6.150
 9408POPC   GL263686   0.434  29.308   6.150
 9408POPC   C1A63687   0.428  29.103   6.450
 9408POPC   D2A63688   0.424  29.164   6.750
 9408POPC   C3A63689   0.424  29.141   7.050
 9408POPC   C4A63690   0.426  29.186   7.350
 9408POPC   C1B63691   0.527  29.364   6.450
 9408POPC   C2B63692   0.449  29.390   6.750
 9408POPC   C3B63693   0.530  29.361   7.050
 9408POPC   C4B63694   0.499  29.377   7.350
 9409POPC   NC363695  31.502  12.109   5.550
 9409POPC   PO463696  31.439  12.124   5.850
 9409POPC   GL163697  31.438  12.113   6.150
 9409POPC   GL263698  31.621  11.982   6.150
 9409POPC   C1A63699  31.483  12.075   6.450
 9409POPC   D2A63700  31.455  12.090   6.750
 9409POPC   C3A63701  31.499  12.049   7.050
 9409POPC   C4A63702  31.502  12.068   7.350
 9409POPC   C1B63703  31.752  11.967   6.450
 9409POPC   C2B63704  31.661  11.951   6.750
 9409POPC   C3B63705  31.747  11.988   7.050
 9409POPC   C4B63706  31.680  11.974   7.350
 9410POPC   NC363707  40.012  40.789   5.550
 9410POPC   PO463708  39.997  40.821   5.850
 9410POPC   GL163709  40.049  40.802   6.150
 9410POPC   GL263710  39.920  40.695   6.150
 9410POPC   C1A63711  40.020  40.734   6.450
 9410POPC   D2A63712  40.034  40.783   6.750
 9410POPC   C3A63713  40.002  40.814   7.050
 9410POPC   C4A63714  39.970  40.783   7.350
 9410POPC   C1B63715  39.818  40.584   6.450
 9410POPC   C2B63716  39.836  40.638   6.750
 9410POPC   C3B63717  39.812  40.592   7.050
 9410POPC   C4B63718  39.808  40.604   7.350
 9411POPC   NC363719  34.539  37.711   5.550
 9411POPC   PO463720  34.528  37.684   5.850
 9411POPC   GL163721  34.540  37.702   6.150
 9411POPC   GL263722  34.542  37.578   6.150
 9411POPC   C1A63723  34.616  37.724   6.450
 9411POPC   D2A63724  34.603  37.633   6.750
 9411POPC   C3A63725  34.566  37.717   7.050
 9411POPC   C4A63726  34.621  37.720   7.350
 9411POPC   C1B63727  34.443  37.405   6.450
 9411POPC   C2B63728  34.454  37.423   6.750
 9411POPC   C3B63729  34.431  37.434   7.050
 9411POPC   C4B63730  34.437  37.427   7.350
 9412POPC   NC363731  12.048  40.035   5.550
 9412POPC   PO463732  12.068  39.991   5.850
 9412POPC   GL163733  12.097  40.050   6.150
 9412POPC   GL263734  11.987  39.960   6.150
 9412POPC   C1A63735  12.117  39.990   6.450
 9412POPC   D2A63736  12.046  39.962   6.750
 9412POPC   C3A63737  12.061  40.045   7.050
 9412POPC   C4A63738  12.104  40.054   7.350
 9412POPC   C1B63739  11.792  39.985   6.450
 9412POPC   C2B63740  11.855  39.906   6.750
 9412POPC   C3B63741  11.815  39.930   7.050
 9412POPC   C4B63742  11.797  39.936   7.350
 9413POPC   NC363743  22.968  29.175   5.550
 9413POPC   PO463744  22.907  29.108   5.850
 9413POPC   GL163745  22.930  29.161   6.150
 9413POPC   GL263746  22.963  29.259   6.150
 9413POPC   C1A63747  22.901  29.122   6.450
 9413POPC   D2A63748  22.960  29.183   6.750
 9413POPC   C3A63749  22.971  29.105   7.050
 9413POPC   C4A63750  22.889  29.169   7.350
 9413POPC   C1B63751  22.870  29.401   6.450
 9413POPC   C2B63752  22.886  29.379   6.750
 9413POPC   C3B63753  22.955  29.443   7.050
 9413POPC   C4B63754  22.872  29.352   7.350
 9414POPC   NC363755  43.153  14.442   5.550
 9414POPC   PO463756  43.134  14.436   5.850
 9414POPC   GL163757  43.070  14.413   6.150
 9414POPC   GL263758  43.239  14.402   6.150
 9414POPC   C1A63759  43.085  14.451   6.450
 9414POPC   D2A63760  43.098  14.374   6.750
 9414POPC   C3A63761  43.116  14.418   7.050
 9414POPC   C4A63762  43.150  14.421   7.350
 9414POPC   C1B63763  43.377  14.537   6.450
 9414POPC   C2B63764  43.358  14.539   6.750
 9414POPC   C3B63765  43.326  14.523   7.050
 9414POPC   C4B63766  43.356  14.480   7.350
 9415POPC   NC363767  36.941   0.450   5.550
 9415POPC   PO463768  36.902   0.443   5.850
 9415POPC   GL163769  36.919   0.409   6.150
 9415POPC   GL263770  36.914   0.337   6.150
 9415POPC   C1A63771  36.903   0.435   6.450
 9415POPC   D2A63772  36.919   0.437   6.750
 9415POPC   C3A63773  36.951   0.470   7.050
 9415POPC   C4A63774  36.926   0.393   7.350
 9415POPC   C1B63775  36.874   0.141   6.450
 9415POPC   C2B63776  36.939   0.191   6.750
 9415POPC   C3B63777  36.885   0.153   7.050
 9415POPC   C4B63778  36.895   0.167   7.350
 9416POPC   NC363779  16.697  37.712   5.550
 9416POPC   PO463780  16.768  37.670   5.850
 9416POPC   GL163781  16.736  37.649   6.150
 9416POPC   GL263782  16.875  37.627   6.150
 9416POPC   C1A63783  16.732  37.634   6.450
 9416POPC   D2A63784  16.779  37.708   6.750
 9416POPC   C3A63785  16.748  37.694   7.050
 9416POPC   C4A63786  16.716  37.717   7.350
 9416POPC   C1B63787  16.980  37.569   6.450
 9416POPC   C2B63788  16.993  37.637   6.750
 9416POPC   C3B63789  17.006  37.559   7.050
 9416POPC   C4B63790  16.964  37.606   7.350
 9417POPC   NC363791   6.600  12.868   5.550
 9417POPC   PO463792   6.602  12.803   5.850
 9417POPC   GL163793   6.645  12.886   6.150
 9417POPC   GL263794   6.652  12.982   6.150
 9417POPC   C1A63795   6.617  12.844   6.450
 9417POPC   D2A63796   6.668  12.852   6.750
 9417POPC   C3A63797   6.673  12.863   7.050
 9417POPC   C4A63798   6.660  12.873   7.350
 9417POPC   C1B63799   6.698  13.104   6.450
 9417POPC   C2B63800   6.715  13.056   6.750
 9417POPC   C3B63801   6.708  13.130   7.050
 9417POPC   C4B63802   6.768  13.095   7.350
 9418POPC   NC363803  25.228   6.614   5.550
 9418POPC   PO463804  25.224   6.646   5.850
 9418POPC   GL163805  25.279   6.669   6.150
 9418POPC   GL263806  25.218   6.484   6.150
 9418POPC   C1A63807  25.251   6.683   6.450
 9418POPC   D2A63808  25.298   6.649   6.750
 9418POPC   C3A63809  25.274   6.621   7.050
 9418POPC   C4A63810  25.283   6.644   7.350
 9418POPC   C1B63811  25.218   6.386   6.450
 9418POPC   C2B63812  25.190   6.399   6.750
 9418POPC   C3B63813  25.179   6.463   7.050
 9418POPC   C4B63814  25.216   6.381   7.350
 9419POPC   NC363815  21.404  26.801   5.550
 9419POPC   PO463816  21.429  26.825   5.850
 9419POPC   GL163817  21.346  26.824   6.150
 9419POPC   GL263818  21.361  26.906   6.150
 9419POPC   C1A63819  21.352  26.770   6.450
 9419POPC   D2A63820  21.401  26.812   6.750
 9419POPC   C3A63821  21.430  26.823   7.050
 9419POPC   C4A63822  21.385  26.823   7.350
 9419POPC   C1B63823  21.423  27.072   6.450
 9419POPC   C2B63824  21.408  27.112   6.750
 9419POPC   C3B63825  21.400  27.031   7.050
 9419POPC   C4B63826  21.361  27.054   7.350
 9420POPC   NC363827  17.471  29.910   5.550
 9420POPC   PO463828  17.494  29.895   5.850
 9420POPC   GL163829  17.479  29.883   6.150
 9420POPC   GL263830  17.421  29.909   6.150
 9420POPC   C1A63831  17.529  29.901   6.450
 9420POPC   D2A63832  17.470  29.871   6.750
 9420POPC   C3A63833  17.464  29.965   7.050
 9420POPC   C4A63834  17.506  29.917   7.350
 9420POPC   C1B63835  17.267  29.982   6.450
 9420POPC   C2B63836  17.249  29.982   6.750
 9420POPC   C3B63837  17.270  29.993   7.050
 9420POPC   C4B63838  17.270  29.937   7.350
 9421POPC   NC363839  11.314  36.916   5.550
 9421POPC   PO463840  11.255  36.906   5.850
 9421POPC   GL163841  11.293  36.940   6.150
 9421POPC   GL263842  11.195  36.940   6.150
 9421POPC   C1A63843  11.274  36.905   6.450
 9421POPC   D2A63844  11.339  36.934   6.750
 9421POPC   C3A63845  11.284  36.906   7.050
 9421POPC   C4A63846  11.286  36.931   7.350
 9421POPC   C1B63847  11.105  36.971   6.450
 9421POPC   C2B63848  11.090  37.029   6.750
 9421POPC   C3B63849  11.085  36.960   7.050
 9421POPC   C4B63850  11.045  37.004   7.350
 9422POPC   NC363851   8.968  40.811   5.550
 9422POPC   PO463852   8.983  40.738   5.850
 9422POPC   GL163853   8.924  40.774   6.150
 9422POPC   GL263854   8.859  40.860   6.150
 9422POPC   C1A63855   8.973  40.809   6.450
 9422POPC   D2A63856   8.927  40.733   6.750
 9422POPC   C3A63857   8.974  40.763   7.050
 9422POPC   C4A63858   8.967  40.764   7.350
 9422POPC   C1B63859   8.706  40.810   6.450
 9422POPC   C2B63860   8.726  40.851   6.750
 9422POPC   C3B63861   8.729  40.860   7.050
 9422POPC   C4B63862   8.699  40.834   7.350
 9423POPC   NC363863  36.881  25.278   5.550
 9423POPC   PO463864  36.889  25.292   5.850
 9423POPC   GL163865  36.901  25.296   6.150
 9423POPC   GL263866  36.987  25.150   6.150
 9423POPC   C1A63867  36.902  25.246   6.450
 9423POPC   D2A63868  36.935  25.291   6.750
 9423POPC   C3A63869  36.868  25.273   7.050
 9423POPC   C4A63870  36.939  25.272   7.350
 9423POPC   C1B63871  36.952  25.004   6.450
 9423POPC   C2B63872  36.952  25.078   6.750
 9423POPC   C3B63873  36.994  25.059   7.050
 9423POPC   C4B63874  37.031  24.996   7.350
 9424POPC   NC363875  12.033  22.123   5.550
 9424POPC   PO463876  12.071  22.184   5.850
 9424POPC   GL163877  12.094  22.124   6.150
 9424POPC   GL263878  11.941  22.118   6.150
 9424POPC   C1A63879  12.102  22.122   6.450
 9424POPC   D2A63880  12.043  22.199   6.750
 9424POPC   C3A63881  12.066  22.180   7.050
 9424POPC   C4A63882  12.065  22.181   7.350
 9424POPC   C1B63883  11.854  22.087   6.450
 9424POPC   C2B63884  11.853  22.102   6.750
 9424POPC   C3B63885  11.845  22.065   7.050
 9424POPC   C4B63886  11.871  22.013   7.350
 9425POPC   NC363887  40.049   2.019   5.550
 9425POPC   PO463888  40.026   2.009   5.850
 9425POPC   GL163889  39.993   1.940   6.150
 9425POPC   GL263890  39.950   2.112   6.150
 9425POPC   C1A63891  39.979   1.963   6.450
 9425POPC   D2A63892  40.035   2.015   6.750
 9425POPC   C3A63893  40.018   1.970   7.050
 9425POPC   C4A63894  40.011   1.981   7.350
 9425POPC   C1B63895  39.786   2.130   6.450
 9425POPC   C2B63896  39.785   2.091   6.750
 9425POPC   C3B63897  39.774   2.134   7.050
 9425POPC   C4B63898  39.836   2.089   7.350
 9426POPC   NC363899  29.932  26.002   5.550
 9426POPC   PO463900  29.895  26.020   5.850
 9426POPC   GL163901  29.885  26.027   6.150
 9426POPC   GL263902  29.913  25.951   6.150
 9426POPC   C1A63903  29.910  26.062   6.450
 9426POPC   D2A63904  29.950  26.036   6.750
 9426POPC   C3A63905  29.887  26.062   7.050
 9426POPC   C4A63906  29.914  26.001   7.350
 9426POPC   C1B63907  29.982  25.770   6.450
 9426POPC   C2B63908  29.997  25.808   6.750
 9426POPC   C3B63909  29.925  25.766   7.050
 9426POPC   C4B63910  29.967  25.789   7.350
 9427POPC   NC363911  25.252   8.992   5.550
 9427POPC   PO463912  25.253   8.929   5.850
 9427POPC   GL163913  25.240   9.003   6.150
 9427POPC   GL263914  25.217   9.101   6.150
 9427POPC   C1A63915  25.246   8.997   6.450
 9427POPC   D2A63916  25.270   9.015   6.750
 9427POPC   C3A63917  25.233   9.007   7.050
 9427POPC   C4A63918  25.298   8.936   7.350
 9427POPC   C1B63919  25.068   9.104   6.450
 9427POPC   C2B63920  25.119   9.090   6.750
 9427POPC   C3B63921  25.096   9.169   7.050
 9427POPC   C4B63922  25.034   9.113   7.350
 9428POPC   NC363923   2.760  13.614   5.550
 9428POPC   PO463924   2.771  13.597   5.850
 9428POPC   GL163925   2.813  13.636   6.150
 9428POPC   GL263926   2.743  13.744   6.150
 9428POPC   C1A63927   2.762  13.644   6.450
 9428POPC   D2A63928   2.758  13.618   6.750
 9428POPC   C3A63929   2.735  13.650   7.050
 9428POPC   C4A63930   2.811  13.650   7.350
 9428POPC   C1B63931   2.720  13.825   6.450
 9428POPC   C2B63932   2.741  13.892   6.750
 9428POPC   C3B63933   2.731  13.843   7.050
 9428POPC   C4B63934   2.742  13.905   7.350
 9429POPC   NC363935  24.538  39.255   5.550
 9429POPC   PO463936  24.461  39.216   5.850
 9429POPC   GL163937  24.493  39.217   6.150
 9429POPC   GL263938  24.425  39.170   6.150
 9429POPC   C1A63939  24.474  39.205   6.450
 9429POPC   D2A63940  24.497  39.252   6.750
 9429POPC   C3A63941  24.493  39.204   7.050
 9429POPC   C4A63942  24.499  39.275   7.350
 9429POPC   C1B63943  24.234  39.133   6.450
 9429POPC   C2B63944  24.230  39.105   6.750
 9429POPC   C3B63945  24.226  39.113   7.050
 9429POPC   C4B63946  24.261  39.087   7.350
 9430POPC   NC363947  41.550  24.535   5.550
 9430POPC   PO463948  41.519  24.471   5.850
 9430POPC   GL163949  41.534  24.493   6.150
 9430POPC   GL263950  41.580  24.361   6.150
 9430POPC   C1A63951  41.517  24.500   6.450
 9430POPC   D2A63952  41.603  24.511   6.750
 9430POPC   C3A63953  41.523  24.463   7.050
 9430POPC   C4A63954  41.533  24.486   7.350
 9430POPC   C1B63955  41.652  24.224   6.450
 9430POPC   C2B63956  41.691  24.221   6.750
 9430POPC   C3B63957  41.638  24.214   7.050
 9430POPC   C4B63958  41.611  24.217   7.350
 9431POPC   NC363959  29.930  29.935   5.550
 9431POPC   PO463960  29.886  29.873   5.850
 9431POPC   GL163961  29.941  29.959   6.150
 9431POPC   GL263962  29.819  29.798   6.150
 9431POPC   C1A63963  29.934  29.889   6.450
 9431POPC   D2A63964  29.906  29.956   6.750
 9431POPC   C3A63965  29.891  29.925   7.050
 9431POPC   C4A63966  29.915  29.923   7.350
 9431POPC   C1B63967  29.790  29.695   6.450
 9431POPC   C2B63968  29.825  29.665   6.750
 9431POPC   C3B63969  29.782  29.697   7.050
 9431POPC   C4B63970  29.829  29.682   7.350
 9432POPC   NC363971  12.820  30.655   5.550
 9432POPC   PO463972  12.897  30.692   5.850
 9432POPC   GL163973  12.816  30.746   6.150
 9432POPC   GL263974  12.813  30.794   6.150
 9432POPC   C1A63975  12.846  30.655   6.450
 9432POPC   D2A63976  12.822  30.743   6.750
 9432POPC   C3A63977  12.846  30.695   7.050
 9432POPC   C4A63978  12.819  30.650   7.350
 9432POPC   C1B63979  12.781  30.961   6.450
 9432POPC   C2B63980  12.784  30.979   6.750
 9432POPC   C3B63981  12.802  30.980   7.050
 9432POPC   C4B63982  12.759  30.908   7.350
 9433POPC   NC363983  26.077   2.717   5.550
 9433POPC   PO463984  26.030   2.744   5.850
 9433POPC   GL163985  26.034   2.785   6.150
 9433POPC   GL263986  25.885   2.810   6.150
 9433POPC   C1A63987  26.005   2.796   6.450
 9433POPC   D2A63988  26.057   2.784   6.750
 9433POPC   C3A63989  26.017   2.789   7.050
 9433POPC   C4A63990  26.044   2.778   7.350
 9433POPC   C1B63991  25.763   2.765   6.450
 9433POPC   C2B63992  25.752   2.769   6.750
 9433POPC   C3B63993  25.776   2.773   7.050
 9433POPC   C4B63994  25.770   2.750   7.350
 9434POPC   NC363995  44.692  33.032   5.550
 9434POPC   PO463996  44.692  32.997   5.850
 9434POPC   GL163997  44.638  33.049   6.150
 9434POPC   GL263998  44.766  33.020   6.150
 9434POPC   C1A63999  44.614  33.040   6.450
 9434POPC   D2A64000  44.683  33.027   6.750
 9434POPC   C3A64001  44.627  32.976   7.050
 9434POPC   C4A64002  44.617  33.034   7.350
 9434POPC   C1B64003  44.905  33.000   6.450
 9434POPC   C2B64004  44.913  32.970   6.750
 9434POPC   C3B64005  44.906  32.947   7.050
 9434POPC   C4B64006  44.871  32.969   7.350
 9435POPC   NC364007  28.412  29.123   5.550
 9435POPC   PO464008  28.355  29.106   5.850
 9435POPC   GL164009  28.384  29.178   6.150
 9435POPC   GL264010  28.520  29.129   6.150
 9435POPC   C1A64011  28.408  29.145   6.450
 9435POPC   D2A64012  28.335  29.178   6.750
 9435POPC   C3A64013  28.370  29.133   7.050
 9435POPC   C4A64014  28.337  29.181   7.350
 9435POPC   C1B64015  28.574  29.143   6.450
 9435POPC   C2B64016  28.612  29.159   6.750
 9435POPC   C3B64017  28.627  29.184   7.050
 9435POPC   C4B64018  28.650  29.163   7.350
 9436POPC   NC364019  30.698  13.592   5.550
 9436POPC   PO464020  30.685  13.649   5.850
 9436POPC   GL164021  30.698  13.581   6.150
 9436POPC   GL264022  30.590  13.744   6.150
 9436POPC   C1A64023  30.669  13.642   6.450
 9436POPC   D2A64024  30.709  13.631   6.750
 9436POPC   C3A64025  30.665  13.660   7.050
 9436POPC   C4A64026  30.719  13.632   7.350
 9436POPC   C1B64027  30.500  13.806   6.450
 9436POPC   C2B64028  30.482  13.803   6.750
 9436POPC   C3B64029  30.549  13.807   7.050
 9436POPC   C4B64030  30.524  13.802   7.350
 9437POPC   NC364031  26.074  33.772   5.550
 9437POPC   PO464032  26.034  33.804   5.850
 9437POPC   GL164033  26.038  33.789   6.150
 9437POPC   GL264034  26.001  33.676   6.150
 9437POPC   C1A64035  26.077  33.807   6.450
 9437POPC   D2A64036  26.082  33.785   6.750
 9437POPC   C3A64037  26.002  33.775   7.050
 9437POPC   C4A64038  26.070  33.776   7.350
 9437POPC   C1B64039  25.847  33.600   6.450
 9437POPC   C2B64040  25.862  33.577   6.750
 9437POPC   C3B64041  25.865  33.611   7.050
 9437POPC   C4B64042  25.836  33.643   7.350
 9438POPC   NC364043  12.030  31.449   5.550
 9438POPC   PO464044  12.073  31.460   5.850
 9438POPC   GL164045  12.033  31.447   6.150
 9438POPC   GL264046  11.984  31.435   6.150
 9438POPC   C1A64047  12.047  31.457   6.450
 9438POPC   D2A64048  12.118  31.473   6.750
 9438POPC   C3A64049  12.053  31.442   7.050
 9438POPC   C4A64050  12.107  31.479   7.350
 9438POPC   C1B64051  11.884  31.356   6.450
 9438POPC   C2B64052  11.879  31.306   6.750
 9438POPC   C3B64053  11.936  31.264   7.050
 9438POPC   C4B64054  11.892  31.356   7.350
 9439POPC   NC364055  24.503  12.850   5.550
 9439POPC   PO464056  24.525  12.865   5.850
 9439POPC   GL164057  24.444  12.883   6.150
 9439POPC   GL264058  24.610  12.962   6.150
 9439POPC   C1A64059  24.522  12.833   6.450
 9439POPC   D2A64060  24.508  12.813   6.750
 9439POPC   C3A64061  24.531  12.886   7.050
 9439POPC   C4A64062  24.486  12.886   7.350
 9439POPC   C1B64063  24.711  12.950   6.450
 9439POPC   C2B64064  24.711  13.024   6.750
 9439POPC   C3B64065  24.659  12.978   7.050
 9439POPC   C4B64066  24.666  12.946   7.350
 9440POPC   NC364067  19.835  34.579   5.550
 9440POPC   PO464068  19.819  34.551   5.850
 9440POPC   GL164069  19.840  34.608   6.150
 9440POPC   GL264070  19.665  34.617   6.150
 9440POPC   C1A64071  19.873  34.614   6.450
 9440POPC   D2A64072  19.874  34.558   6.750
 9440POPC   C3A64073  19.828  34.544   7.050
 9440POPC   C4A64074  19.836  34.598   7.350
 9440POPC   C1B64075  19.558  34.666   6.450
 9440POPC   C2B64076  19.572  34.652   6.750
 9440POPC   C3B64077  19.598  34.686   7.050
 9440POPC   C4B64078  19.564  34.633   7.350
 9441POPC   NC364079  26.808  33.792   5.550
 9441POPC   PO464080  26.862  33.835   5.850
 9441POPC   GL164081  26.845  33.788   6.150
 9441POPC   GL264082  26.781  33.657   6.150
 9441POPC   C1A64083  26.823  33.766   6.450
 9441POPC   D2A64084  26.840  33.793   6.750
 9441POPC   C3A64085  26.773  33.828   7.050
 9441POPC   C4A64086  26.814  33.766   7.350
 9441POPC   C1B64087  26.669  33.613   6.450
 9441POPC   C2B64088  26.707  33.541   6.750
 9441POPC   C3B64089  26.750  33.592   7.050
 9441POPC   C4B64090  26.733  33.619   7.350
 9442POPC   NC364091  27.571  20.615   5.550
 9442POPC   PO464092  27.630  20.583   5.850
 9442POPC   GL164093  27.583  20.618   6.150
 9442POPC   GL264094  27.668  20.587   6.150
 9442POPC   C1A64095  27.568  20.587   6.450
 9442POPC   D2A64096  27.552  20.630   6.750
 9442POPC   C3A64097  27.633  20.654   7.050
 9442POPC   C4A64098  27.587  20.644   7.350
 9442POPC   C1B64099  27.837  20.522   6.450
 9442POPC   C2B64100  27.865  20.528   6.750
 9442POPC   C3B64101  27.840  20.513   7.050
 9442POPC   C4B64102  27.799  20.506   7.350
 9443POPC   NC364103  20.606   3.564   5.550
 9443POPC   PO464104  20.583   3.504   5.850
 9443POPC   GL164105  20.629   3.579   6.150
 9443POPC   GL264106  20.664   3.441   6.150
 9443POPC   C1A64107  20.576   3.590   6.450
 9443POPC   D2A64108  20.600   3.568   6.750
 9443POPC   C3A64109  20.574   3.541   7.050
 9443POPC   C4A64110  20.562   3.531   7.350
 9443POPC   C1B64111  20.768   3.343   6.450
 9443POPC   C2B64112  20.736   3.350   6.750
 9443POPC   C3B64113  20.736   3.295   7.050
 9443POPC   C4B64114  20.775   3.292   7.350
 9444POPC   NC364115  26.063  29.884   5.550
 9444POPC   PO464116  26.078  29.944   5.850
 9444POPC   GL164117  26.033  29.926   6.150
 9444POPC   GL264118  26.110  29.790   6.150
 9444POPC   C1A64119  26.052  29.949   6.450
 9444POPC   D2A64120  26.074  29.914   6.750
 9444POPC   C3A64121  26.022  29.955   7.050
 9444POPC   C4A64122  26.001  29.906   7.350
 9444POPC   C1B64123  26.121  29.698   6.450
 9444POPC   C2B64124  26.081  29.700   6.750
 9444POPC   C3B64125  26.117  29.663   7.050
 9444POPC   C4B64126  26.054  29.653   7.350
 9445POPC   NC364127  35.383  24.507   5.550
 9445POPC   PO464128  35.322  24.533   5.850
 9445POPC   GL164129  35.327  24.516   6.150
 9445POPC   GL264130  35.314  24.626   6.150
 9445POPC   C1A64131  35.302  24.518   6.450
 9445POPC   D2A64132  35.389  24.449   6.750
 9445POPC   C3A64133  35.401  24.499   7.050
 9445POPC   C4A64134  35.324  24.539   7.350
 9445POPC   C1B64135  35.396  24.780   6.450
 9445POPC   C2B64136  35.407  24.785   6.750
 9445POPC   C3B64137  35.375  24.700   7.050
 9445POPC   C4B64138  35.405  24.773   7.350
 9446POPC   NC364139   4.323  32.218   5.550
 9446POPC   PO464140   4.294  32.229   5.850
 9446POPC   GL164141   4.364  32.236   6.150
 9446POPC   GL264142   4.344  32.140   6.150
 9446POPC   C1A64143   4.351  32.224   6.450
 9446POPC   D2A64144   4.327  32.248   6.750
 9446POPC   C3A64145   4.316  32.217   7.050
 9446POPC   C4A64146   4.280  32.268   7.350
 9446POPC   C1B64147   4.473  32.085   6.450
 9446POPC   C2B64148   4.489  32.073   6.750
 9446POPC   C3B64149   4.491  32.004   7.050
 9446POPC   C4B64150   4.487  32.058   7.350
 9447POPC   NC364151  19.051  30.745   5.550
 9447POPC   PO464152  19.035  30.742   5.850
 9447POPC   GL164153  19.048  30.665   6.150
 9447POPC   GL264154  18.904  30.645   6.150
 9447POPC   C1A64155  19.069  30.683   6.450
 9447POPC   D2A64156  19.013  30.691   6.750
 9447POPC   C3A64157  19.029  30.693   7.050
 9447POPC   C4A64158  19.086  30.680   7.350
 9447POPC   C1B64159  18.765  30.707   6.450
 9447POPC   C2B64160  18.813  30.671   6.750
 9447POPC   C3B64161  18.815  30.615   7.050
 9447POPC   C4B64162  18.808  30.645   7.350
 9448POPC   NC364163  41.547  12.900   5.550
 9448POPC   PO464164  41.509  12.821   5.850
 9448POPC   GL164165  41.534  12.856   6.150
 9448POPC   GL264166  41.426  12.850   6.150
 9448POPC   C1A64167  41.528  12.881   6.450
 9448POPC   D2A64168  41.573  12.829   6.750
 9448POPC   C3A64169  41.608  12.874   7.050
 9448POPC   C4A64170  41.544  12.868   7.350
 9448POPC   C1B64171  41.300  12.910   6.450
 9448POPC   C2B64172  41.273  12.937   6.750
 9448POPC   C3B64173  41.338  12.919   7.050
 9448POPC   C4B64174  41.338  12.976   7.350
 9449POPC   NC364175  40.006  43.099   5.550
 9449POPC   PO464176  40.052  43.124   5.850
 9449POPC   GL164177  39.975  43.113   6.150
 9449POPC   GL264178  39.973  43.018   6.150
 9449POPC   C1A64179  39.987  43.114   6.450
 9449POPC   D2A64180  40.048  43.118   6.750
 9449POPC   C3A64181  39.986  43.109   7.050
 9449POPC   C4A64182  39.987  43.150   7.350
 9449POPC   C1B64183  39.931  42.889   6.450
 9449POPC   C2B64184  39.903  42.883   6.750
 9449POPC   C3B64185  39.949  42.891   7.050
 9449POPC   C4B64186  39.936  42.849   7.350
 9450POPC   NC364187  12.817   7.414   5.550
 9450POPC   PO464188  12.893   7.452   5.850
 9450POPC   GL164189  12.818   7.467   6.150
 9450POPC   GL264190  12.693   7.450   6.150
 9450POPC   C1A64191  12.879   7.389   6.450
 9450POPC   D2A64192  12.861   7.469   6.750
 9450POPC   C3A64193  12.874   7.458   7.050
 9450POPC   C4A64194  12.847   7.427   7.350
 9450POPC   C1B64195  12.643   7.513   6.450
 9450POPC   C2B64196  12.583   7.511   6.750
 9450POPC   C3B64197  12.570   7.507   7.050
 9450POPC   C4B64198  12.560   7.458   7.350
 9451POPC   NC364199  19.031  41.542   5.550
 9451POPC   PO464200  19.028  41.575   5.850
 9451POPC   GL164201  19.055  41.574   6.150
 9451POPC   GL264202  19.007  41.395   6.150
 9451POPC   C1A64203  19.080  41.600   6.450
 9451POPC   D2A64204  19.081  41.513   6.750
 9451POPC   C3A64205  19.020  41.590   7.050
 9451POPC   C4A64206  19.080  41.554   7.350
 9451POPC   C1B64207  19.062  41.332   6.450
 9451POPC   C2B64208  19.062  41.303   6.750
 9451POPC   C3B64209  19.082  41.315   7.050
 9451POPC   C4B64210  19.004  41.306   7.350
 9452POPC   NC364211  17.478  33.015   5.550
 9452POPC   PO464212  17.459  33.020   5.850
 9452POPC   GL164213  17.482  33.043   6.150
 9452POPC   GL264214  17.646  32.972   6.150
 9452POPC   C1A64215  17.556  33.071   6.450
 9452POPC   D2A64216  17.529  33.063   6.750
 9452POPC   C3A64217  17.466  33.017   7.050
 9452POPC   C4A64218  17.511  33.049   7.350
 9452POPC   C1B64219  17.749  32.940   6.450
 9452POPC   C2B64220  17.724  32.908   6.750
 9452POPC   C3B64221  17.746  32.915   7.050
 9452POPC   C4B64222  17.717  32.890   7.350
 9453POPC   NC364223  37.658  10.522   5.550
 9453POPC   PO464224  37.630  10.525   5.850
 9453POPC   GL164225  37.691  10.560   6.150
 9453POPC   GL264226  37.529  10.523   6.150
 9453POPC   C1A64227  37.637  10.554   6.450
 9453POPC   D2A64228  37.701  10.554   6.750
 9453POPC   C3A64229  37.702  10.566   7.050
 9453POPC   C4A64230  37.690  10.498   7.350
 9453POPC   C1B64231  37.423  10.493   6.450
 9453POPC   C2B64232  37.396  10.469   6.750
 9453POPC   C3B64233  37.402  10.547   7.050
 9453POPC   C4B64234  37.389  10.493   7.350
 9454POPC   NC364235   7.414  11.321   5.550
 9454POPC   PO464236   7.383  11.308   5.850
 9454POPC   GL164237   7.408  11.311   6.150
 9454POPC   GL264238   7.322  11.198   6.150
 9454POPC   C1A64239   7.413  11.315   6.450
 9454POPC   D2A64240   7.443  11.262   6.750
 9454POPC   C3A64241   7.464  11.257   7.050
 9454POPC   C4A64242   7.414  11.297   7.350
 9454POPC   C1B64243   7.170  11.156   6.450
 9454POPC   C2B64244   7.248  11.154   6.750
 9454POPC   C3B64245   7.211  11.209   7.050
 9454POPC   C4B64246   7.254  11.186   7.350
 9455POPC   NC364247  11.325  35.345   5.550
 9455POPC   PO464248  11.250  35.347   5.850
 9455POPC   GL164249  11.288  35.401   6.150
 9455POPC   GL264250  11.337  35.456   6.150
 9455POPC   C1A64251  11.261  35.399   6.450
 9455POPC   D2A64252  11.339  35.357   6.750
 9455POPC   C3A64253  11.275  35.376   7.050
 9455POPC   C4A64254  11.349  35.365   7.350
 9455POPC   C1B64255  11.390  35.536   6.450
 9455POPC   C2B64256  11.436  35.531   6.750
 9455POPC   C3B64257  11.450  35.611   7.050
 9455POPC   C4B64258  11.440  35.535   7.350
 9456POPC   NC364259  12.086  21.407   5.550
 9456POPC   PO464260  12.059  21.337   5.850
 9456POPC   GL164261  12.066  21.415   6.150
 9456POPC   GL264262  12.193  21.383   6.150
 9456POPC   C1A64263  12.040  21.370   6.450
 9456POPC   D2A64264  12.126  21.398   6.750
 9456POPC   C3A64265  12.112  21.362   7.050
 9456POPC   C4A64266  12.119  21.375   7.350
 9456POPC   C1B64267  12.288  21.383   6.450
 9456POPC   C2B64268  12.364  21.354   6.750
 9456POPC   C3B64269  12.336  21.355   7.050
 9456POPC   C4B64270  12.337  21.404   7.350
 9457POPC   NC364271  43.883  20.595   5.550
 9457POPC   PO464272  43.931  20.636   5.850
 9457POPC   GL164273  43.915  20.630   6.150
 9457POPC   GL264274  43.749  20.606   6.150
 9457POPC   C1A64275  43.914  20.645   6.450
 9457POPC   D2A64276  43.837  20.568   6.750
 9457POPC   C3A64277  43.870  20.623   7.050
 9457POPC   C4A64278  43.890  20.659   7.350
 9457POPC   C1B64279  43.597  20.600   6.450
 9457POPC   C2B64280  43.661  20.558   6.750
 9457POPC   C3B64281  43.592  20.586   7.050
 9457POPC   C4B64282  43.615  20.645   7.350
 9458POPC   NC364283  28.334  23.686   5.550
 9458POPC   PO464284  28.380  23.748   5.850
 9458POPC   GL164285  28.361  23.707   6.150
 9458POPC   GL264286  28.500  23.712   6.150
 9458POPC   C1A64287  28.398  23.723   6.450
 9458POPC   D2A64288  28.364  23.715   6.750
 9458POPC   C3A64289  28.405  23.725   7.050
 9458POPC   C4A64290  28.407  23.719   7.350
 9458POPC   C1B64291  28.644  23.592   6.450
 9458POPC   C2B64292  28.569  23.666   6.750
 9458POPC   C3B64293  28.627  23.591   7.050
 9458POPC   C4B64294  28.617  23.593   7.350
 9459POPC   NC364295   5.103  32.248   5.550
 9459POPC   PO464296   5.061  32.258   5.850
 9459POPC   GL164297   5.095  32.272   6.150
 9459POPC   GL264298   5.011  32.341   6.150
 9459POPC   C1A64299   5.128  32.203   6.450
 9459POPC   D2A64300   5.115  32.233   6.750
 9459POPC   C3A64301   5.068  32.212   7.050
 9459POPC   C4A64302   5.102  32.248   7.350
 9459POPC   C1B64303   4.935  32.431   6.450
 9459POPC   C2B64304   4.939  32.376   6.750
 9459POPC   C3B64305   4.877  32.393   7.050
 9459POPC   C4B64306   4.869  32.365   7.350
 9460POPC   NC364307   7.416  19.037   5.550
 9460POPC   PO464308   7.437  19.079   5.850
 9460POPC   GL164309   7.376  19.064   6.150
 9460POPC   GL264310   7.386  19.188   6.150
 9460POPC   C1A64311   7.468  19.099   6.450
 9460POPC   D2A64312   7.428  19.108   6.750
 9460POPC   C3A64313   7.421  19.076   7.050
 9460POPC   C4A64314   7.397  19.054   7.350
 9460POPC   C1B64315   7.414  19.320   6.450
 9460POPC   C2B64316   7.403  19.332   6.750
 9460POPC   C3B64317   7.384  19.303   7.050
 9460POPC   C4B64318   7.427  19.272   7.350
 9461POPC   NC364319  13.580  23.750   5.550
 9461POPC   PO464320  13.625  23.720   5.850
 9461POPC   GL164321  13.598  23.763   6.150
 9461POPC   GL264322  13.691  23.599   6.150
 9461POPC   C1A64323  13.662  23.695   6.450
 9461POPC   D2A64324  13.594  23.700   6.750
 9461POPC   C3A64325  13.601  23.712   7.050
 9461POPC   C4A64326  13.634  23.756   7.350
 9461POPC   C1B64327  13.756  23.467   6.450
 9461POPC   C2B64328  13.717  23.513   6.750
 9461POPC   C3B64329  13.713  23.492   7.050
 9461POPC   C4B64330  13.689  23.447   7.350
 9462POPC   NC364331  23.734  44.648   5.550
 9462POPC   PO464332  23.671  44.636   5.850
 9462POPC   GL164333  23.710  44.639   6.150
 9462POPC   GL264334  23.796  44.749   6.150
 9462POPC   C1A64335  23.756  44.665   6.450
 9462POPC   D2A64336  23.679  44.711   6.750
 9462POPC   C3A64337  23.702  44.686   7.050
 9462POPC   C4A64338  23.725  44.688   7.350
 9462POPC   C1B64339  23.859  44.878   6.450
 9462POPC   C2B64340  23.813  44.924   6.750
 9462POPC   C3B64341  23.792  44.852   7.050
 9462POPC   C4B64342  23.795  44.885   7.350
 9463POPC   NC364343  40.820  42.308   5.550
 9463POPC   PO464344  40.790  42.301   5.850
 9463POPC   GL164345  40.796  42.352   6.150
 9463POPC   GL264346  40.614  42.307   6.150
 9463POPC   C1A64347  40.807  42.368   6.450
 9463POPC   D2A64348  40.787  42.286   6.750
 9463POPC   C3A64349  40.783  42.344   7.050
 9463POPC   C4A64350  40.783  42.333   7.350
 9463POPC   C1B64351  40.575  42.244   6.450
 9463POPC   C2B64352  40.583  42.245   6.750
 9463POPC   C3B64353  40.545  42.291   7.050
 9463POPC   C4B64354  40.521  42.313   7.350
 9464POPC   NC364355   6.691  21.369   5.550
 9464POPC   PO464356   6.657  21.412   5.850
 9464POPC   GL164357   6.625  21.361   6.150
 9464POPC   GL264358   6.720  21.378   6.150
 9464POPC   C1A64359   6.644  21.402   6.450
 9464POPC   D2A64360   6.597  21.338   6.750
 9464POPC   C3A64361   6.637  21.383   7.050
 9464POPC   C4A64362   6.652  21.436   7.350
 9464POPC   C1B64363   6.919  21.278   6.450
 9464POPC   C2B64364   6.897  21.318   6.750
 9464POPC   C3B64365   6.894  21.363   7.050
 9464POPC   C4B64366   6.926  21.306   7.350
 9465POPC   NC364367  25.267  37.646   5.550
 9465POPC   PO464368  25.271  37.653   5.850
 9465POPC   GL164369  25.293  37.722   6.150
 9465POPC   GL264370  25.378  37.813   6.150
 9465POPC   C1A64371  25.277  37.688   6.450
 9465POPC   D2A64372  25.276  37.721   6.750
 9465POPC   C3A64373  25.270  37.685   7.050
 9465POPC   C4A64374  25.245  37.727   7.350
 9465POPC   C1B64375  25.445  37.884   6.450
 9465POPC   C2B64376  25.408  37.842   6.750
 9465POPC   C3B64377  25.456  37.858   7.050
 9465POPC   C4B64378  25.455  37.905   7.350
 9466POPC   NC364379  31.500   1.987   5.550
 9466POPC   PO464380  31.456   1.991   5.850
 9466POPC   GL164381  31.428   1.941   6.150
 9466POPC   GL264382  31.316   1.935   6.150
 9466POPC   C1A64383  31.427   2.006   6.450
 9466POPC   D2A64384  31.504   1.988   6.750
 9466POPC   C3A64385  31.433   2.010   7.050
 9466POPC   C4A64386  31.458   1.991   7.350
 9466POPC   C1B64387  31.264   1.976   6.450
 9466POPC   C2B64388  31.199   1.926   6.750
 9466POPC   C3B64389  31.212   1.891   7.050
 9466POPC   C4B64390  31.250   1.952   7.350
 9467POPC   NC364391   5.089  35.306   5.550
 9467POPC   PO464392   5.045  35.395   5.850
 9467POPC   GL164393   5.069  35.401   6.150
 9467POPC   GL264394   4.988  35.292   6.150
 9467POPC   C1A64395   5.052  35.342   6.450
 9467POPC   D2A64396   5.112  35.338   6.750
 9467POPC   C3A64397   5.047  35.380   7.050
 9467POPC   C4A64398   5.095  35.362   7.350
 9467POPC   C1B64399   4.872  35.272   6.450
 9467POPC   C2B64400   4.891  35.231   6.750
 9467POPC   C3B64401   4.894  35.275   7.050
 9467POPC   C4B64402   4.927  35.194   7.350
 9468POPC   NC364403  37.640  13.656   5.550
 9468POPC   PO464404  37.687  13.673   5.850
 9468POPC   GL164405  37.660  13.666   6.150
 9468POPC   GL264406  37.795  13.695   6.150
 9468POPC   C1A64407  37.666  13.677   6.450
 9468POPC   D2A64408  37.675  13.615   6.750
 9468POPC   C3A64409  37.708  13.579   7.050
 9468POPC   C4A64410  37.706  13.620   7.350
 9468POPC   C1B64411  37.953  13.702   6.450
 9468POPC   C2B64412  37.880  13.630   6.750
 9468POPC   C3B64413  37.946  13.667   7.050
 9468POPC   C4B64414  37.951  13.658   7.350
 9469POPC   NC364415   0.447  31.497   5.550
 9469POPC   PO464416   0.468  31.507   5.850
 9469POPC   GL164417   0.473  31.447   6.150
 9469POPC   GL264418   0.379  31.394   6.150
 9469POPC   C1A64419   0.402  31.488   6.450
 9469POPC   D2A64420   0.470  31.446   6.750
 9469POPC   C3A64421   0.469  31.466   7.050
 9469POPC   C4A64422   0.484  31.518   7.350
 9469POPC   C1B64423   0.388  31.208   6.450
 9469POPC   C2B64424   0.349  31.283   6.750
 9469POPC   C3B64425   0.341  31.273   7.050
 9469POPC   C4B64426   0.374  31.252   7.350
 9470POPC   NC364427  40.053  29.898   5.550
 9470POPC   PO464428  40.050  29.879   5.850
 9470POPC   GL164429  40.056  29.938   6.150
 9470POPC   GL264430  40.083  29.994   6.150
 9470POPC   C1A64431  40.045  29.960   6.450
 9470POPC   D2A64432  40.055  29.913   6.750
 9470POPC   C3A64433  40.055  29.923   7.050
 9470POPC   C4A64434  40.006  29.931   7.350
 9470POPC   C1B64435  40.097  30.126   6.450
 9470POPC   C2B64436  40.031  30.187   6.750
 9470POPC   C3B64437  40.111  30.131   7.050
 9470POPC   C4B64438  40.080  30.125   7.350
 9471POPC   NC364439  13.658  13.615   5.550
 9471POPC   PO464440  13.641  13.591   5.850
 9471POPC   GL164441  13.617  13.596   6.150
 9471POPC   GL264442  13.484  13.650   6.150
 9471POPC   C1A64443  13.591  13.625   6.450
 9471POPC   D2A64444  13.634  13.585   6.750
 9471POPC   C3A64445  13.589  13.648   7.050
 9471POPC   C4A64446  13.587  13.675   7.350
 9471POPC   C1B64447  13.438  13.679   6.450
 9471POPC   C2B64448  13.394  13.680   6.750
 9471POPC   C3B64449  13.370  13.690   7.050
 9471POPC   C4B64450  13.386  13.723   7.350
 9472POPC   NC364451  26.776  11.267   5.550
 9472POPC   PO464452  26.783  11.298   5.850
 9472POPC   GL164453  26.794  11.337   6.150
 9472POPC   GL264454  26.941  11.313   6.150
 9472POPC   C1A64455  26.848  11.283   6.450
 9472POPC   D2A64456  26.768  11.254   6.750
 9472POPC   C3A64457  26.775  11.330   7.050
 9472POPC   C4A64458  26.833  11.304   7.350
 9472POPC   C1B64459  27.048  11.299   6.450
 9472POPC   C2B64460  27.045  11.295   6.750
 9472POPC   C3B64461  27.099  11.296   7.050
 9472POPC   C4B64462  27.074  11.297   7.350
 9473POPC   NC364463  36.135  17.481   5.550
 9473POPC   PO464464  36.104  17.492   5.850
 9473POPC   GL164465  36.084  17.528   6.150
 9473POPC   GL264466  35.992  17.489   6.150
 9473POPC   C1A64467  36.130  17.549   6.450
 9473POPC   D2A64468  36.129  17.475   6.750
 9473POPC   C3A64469  36.148  17.463   7.050
 9473POPC   C4A64470  36.114  17.498   7.350
 9473POPC   C1B64471  35.920  17.427   6.450
 9473POPC   C2B64472  35.937  17.451   6.750
 9473POPC   C3B64473  35.914  17.413   7.050
 9473POPC   C4B64474  35.889  17.395   7.350
 9474POPC   NC364475  19.100  13.600   5.550
 9474POPC   PO464476  19.052  13.649   5.850
 9474POPC   GL164477  19.096  13.665   6.150
 9474POPC   GL264478  19.188  13.640   6.150
 9474POPC   C1A64479  19.020  13.625   6.450
 9474POPC   D2A64480  19.051  13.612   6.750
 9474POPC   C3A64481  19.030  13.676   7.050
 9474POPC   C4A64482  19.019  13.631   7.350
 9474POPC   C1B64483  19.272  13.728   6.450
 9474POPC   C2B64484  19.268  13.751   6.750
 9474POPC   C3B64485  19.321  13.695   7.050
 9474POPC   C4B64486  19.323  13.698   7.350
 9475POPC   NC364487  31.513  38.466   5.550
 9475POPC   PO464488  31.427  38.419   5.850
 9475POPC   GL164489  31.478  38.455   6.150
 9475POPC   GL264490  31.352  38.473   6.150
 9475POPC   C1A64491  31.495  38.491   6.450
 9475POPC   D2A64492  31.446  38.426   6.750
 9475POPC   C3A64493  31.493  38.457   7.050
 9475POPC   C4A64494  31.512  38.483   7.350
 9475POPC   C1B64495  31.284  38.536   6.450
 9475POPC   C2B64496  31.241  38.537   6.750
 9475POPC   C3B64497  31.264  38.539   7.050
 9475POPC   C4B64498  31.212  38.521   7.350
 9476POPC   NC364499  19.051  40.736   5.550
 9476POPC   PO464500  19.060  40.805   5.850
 9476POPC   GL164501  19.066  40.742   6.150
 9476POPC   GL264502  19.167  40.821   6.150
 9476POPC   C1A64503  19.082  40.754   6.450
 9476POPC   D2A64504  19.068  40.806   6.750
 9476POPC   C3A64505  19.104  40.785   7.050
 9476POPC   C4A64506  19.074  40.790   7.350
 9476POPC   C1B64507  19.267  40.783   6.450
 9476POPC   C2B64508  19.267  40.802   6.750
 9476POPC   C3B64509  19.309  40.870   7.050
 9476POPC   C4B64510  19.273  40.836   7.350
 9477POPC   NC364511   2.772  33.789   5.550
 9477POPC   PO464512   2.753  33.811   5.850
 9477POPC   GL164513   2.792  33.760   6.150
 9477POPC   GL264514   2.740  33.949   6.150
 9477POPC   C1A64515   2.726  33.796   6.450
 9477POPC   D2A64516   2.736  33.774   6.750
 9477POPC   C3A64517   2.770  33.764   7.050
 9477POPC   C4A64518   2.815  33.776   7.350
 9477POPC   C1B64519   2.802  34.076   6.450
 9477POPC   C2B64520   2.828  34.033   6.750
 9477POPC   C3B64521   2.758  34.082   7.050
 9477POPC   C4B64522   2.800  34.019   7.350
 9478POPC   NC364523  32.255  15.178   5.550
 9478POPC   PO464524  32.288  15.196   5.850
 9478POPC   GL164525  32.287  15.185   6.150
 9478POPC   GL264526  32.110  15.145   6.150
 9478POPC   C1A64527  32.274  15.215   6.450
 9478POPC   D2A64528  32.262  15.157   6.750
 9478POPC   C3A64529  32.295  15.222   7.050
 9478POPC   C4A64530  32.216  15.181   7.350
 9478POPC   C1B64531  31.983  15.046   6.450
 9478POPC   C2B64532  32.036  15.053   6.750
 9478POPC   C3B64533  31.976  15.117   7.050
 9478POPC   C4B64534  32.026  15.126   7.350
 9479POPC   NC364535   9.727  11.335   5.550
 9479POPC   PO464536   9.710  11.256   5.850
 9479POPC   GL164537   9.729  11.271   6.150
 9479POPC   GL264538   9.602  11.329   6.150
 9479POPC   C1A64539   9.751  11.297   6.450
 9479POPC   D2A64540   9.744  11.272   6.750
 9479POPC   C3A64541   9.763  11.301   7.050
 9479POPC   C4A64542   9.724  11.349   7.350
 9479POPC   C1B64543   9.518  11.454   6.450
 9479POPC   C2B64544   9.509  11.428   6.750
 9479POPC   C3B64545   9.541  11.432   7.050
 9479POPC   C4B64546   9.492  11.456   7.350
 9480POPC   NC364547  10.479  41.544   5.550
 9480POPC   PO464548  10.484  41.577   5.850
 9480POPC   GL164549  10.499  41.576   6.150
 9480POPC   GL264550  10.556  41.646   6.150
 9480POPC   C1A64551  10.547  41.522   6.450
 9480POPC   D2A64552  10.574  41.539   6.750
 9480POPC   C3A64553  10.496  41.560   7.050
 9480POPC   C4A64554  10.563  41.589   7.350
 9480POPC   C1B64555  10.502  41.832   6.450
 9480POPC   C2B64556  10.510  41.833   6.750
 9480POPC   C3B64557  10.536  41.856   7.050
 9480POPC   C4B64558  10.498  41.783   7.350
 9481POPC   NC364559   1.997  38.489   5.550
 9481POPC   PO464560   2.013  38.418   5.850
 9481POPC   GL164561   2.001  38.421   6.150
 9481POPC   GL264562   2.078  38.435   6.150
 9481POPC   C1A64563   2.005  38.498   6.450
 9481POPC   D2A64564   1.955  38.432   6.750
 9481POPC   C3A64565   2.029  38.482   7.050
 9481POPC   C4A64566   2.017  38.469   7.350
 9481POPC   C1B64567   2.160  38.335   6.450
 9481POPC   C2B64568   2.205  38.325   6.750
 9481POPC   C3B64569   2.230  38.292   7.050
 9481POPC   C4B64570   2.184  38.288   7.350
 9482POPC   NC364571  35.368   6.665   5.550
 9482POPC   PO464572  35.400   6.631   5.850
 9482POPC   GL164573  35.392   6.622   6.150
 9482POPC   GL264574  35.385   6.540   6.150
 9482POPC   C1A64575  35.332   6.658   6.450
 9482POPC   D2A64576  35.336   6.617   6.750
 9482POPC   C3A64577  35.306   6.646   7.050
 9482POPC   C4A64578  35.321   6.660   7.350
 9482POPC   C1B64579  35.477   6.455   6.450
 9482POPC   C2B64580  35.537   6.464   6.750
 9482POPC   C3B64581  35.477   6.403   7.050
 9482POPC   C4B64582  35.495   6.409   7.350
 9483POPC   NC364583  10.555  25.285   5.550
 9483POPC   PO464584  10.493  25.219   5.850
 9483POPC   GL164585  10.497  25.310   6.150
 9483POPC   GL264586  10.608  25.351   6.150
 9483POPC   C1A64587  10.541  25.302   6.450
 9483POPC   D2A64588  10.543  25.224   6.750
 9483POPC   C3A64589  10.486  25.282   7.050
 9483POPC   C4A64590  10.487  25.262   7.350
 9483POPC   C1B64591  10.646  25.456   6.450
 9483POPC   C2B64592  10.613  25.491   6.750
 9483POPC   C3B64593  10.636  25.496   7.050
 9483POPC   C4B64594  10.605  25.451   7.350
 9484POPC   NC364595  12.080  40.812   5.550
 9484POPC   PO464596  12.110  40.774   5.850
 9484POPC   GL164597  12.099  40.758   6.150
 9484POPC   GL264598  11.979  40.880   6.150
 9484POPC   C1A64599  12.104  40.739   6.450
 9484POPC   D2A64600  12.096  40.758   6.750
 9484POPC   C3A64601  12.030  40.782   7.050
 9484POPC   C4A64602  12.095  40.816   7.350
 9484POPC   C1B64603  11.865  40.950   6.450
 9484POPC   C2B64604  11.912  40.897   6.750
 9484POPC   C3B64605  11.861  40.943   7.050
 9484POPC   C4B64606  11.864  40.956   7.350
 9485POPC   NC364607  44.679  29.099   5.550
 9485POPC   PO464608  44.684  29.131   5.850
 9485POPC   GL164609  44.705  29.139   6.150
 9485POPC   GL264610  44.662  29.255   6.150
 9485POPC   C1A64611  44.616  29.133   6.450
 9485POPC   D2A64612  44.625  29.143   6.750
 9485POPC   C3A64613  44.653  29.121   7.050
 9485POPC   C4A64614  44.635  29.139   7.350
 9485POPC   C1B64615  44.696  29.370   6.450
 9485POPC   C2B64616  44.705  29.358   6.750
 9485POPC   C3B64617  44.726  29.385   7.050
 9485POPC   C4B64618  44.653  29.420   7.350
 9486POPC   NC364619  36.918  34.545   5.550
 9486POPC   PO464620  36.934  34.538   5.850
 9486POPC   GL164621  36.950  34.613   6.150
 9486POPC   GL264622  36.769  34.644   6.150
 9486POPC   C1A64623  36.907  34.597   6.450
 9486POPC   D2A64624  36.902  34.603   6.750
 9486POPC   C3A64625  36.938  34.542   7.050
 9486POPC   C4A64626  36.932  34.613   7.350
 9486POPC   C1B64627  36.684  34.617   6.450
 9486POPC   C2B64628  36.682  34.631   6.750
 9486POPC   C3B64629  36.648  34.631   7.050
 9486POPC   C4B64630  36.700  34.628   7.350
 9487POPC   NC364631  33.009  24.539   5.550
 9487POPC   PO464632  33.015  24.532   5.850
 9487POPC   GL164633  32.978  24.452   6.150
 9487POPC   GL264634  33.170  24.529   6.150
 9487POPC   C1A64635  33.027  24.451   6.450
 9487POPC   D2A64636  33.033  24.524   6.750
 9487POPC   C3A64637  32.987  24.466   7.050
 9487POPC   C4A64638  33.033  24.501   7.350
 9487POPC   C1B64639  33.259  24.553   6.450
 9487POPC   C2B64640  33.281  24.548   6.750
 9487POPC   C3B64641  33.311  24.479   7.050
 9487POPC   C4B64642  33.243  24.471   7.350
 9488POPC   NC364643  10.481   6.679   5.550
 9488POPC   PO464644  10.561   6.686   5.850
 9488POPC   GL164645  10.499   6.605   6.150
 9488POPC   GL264646  10.604   6.629   6.150
 9488POPC   C1A64647  10.515   6.606   6.450
 9488POPC   D2A64648  10.522   6.679   6.750
 9488POPC   C3A64649  10.507   6.600   7.050
 9488POPC   C4A64650  10.542   6.623   7.350
 9488POPC   C1B64651  10.759   6.571   6.450
 9488POPC   C2B64652  10.791   6.581   6.750
 9488POPC   C3B64653  10.725   6.598   7.050
 9488POPC   C4B64654  10.787   6.612   7.350
 9489POPC   NC364655  21.393   5.855   5.550
 9489POPC   PO464656  21.350   5.915   5.850
 9489POPC   GL164657  21.432   5.882   6.150
 9489POPC   GL264658  21.483   5.984   6.150
 9489POPC   C1A64659  21.392   5.833   6.450
 9489POPC   D2A64660  21.423   5.904   6.750
 9489POPC   C3A64661  21.359   5.865   7.050
 9489POPC   C4A64662  21.363   5.912   7.350
 9489POPC   C1B64663  21.634   6.008   6.450
 9489POPC   C2B64664  21.618   5.975   6.750
 9489POPC   C3B64665  21.587   6.034   7.050
 9489POPC   C4B64666  21.584   5.995   7.350
 9490POPC   NC364667  33.027  37.704   5.550
 9490POPC   PO464668  33.021  37.700   5.850
 9490POPC   GL164669  33.003  37.685   6.150
 9490POPC   GL264670  32.889  37.714   6.150
 9490POPC   C1A64671  33.064  37.698   6.450
 9490POPC   D2A64672  33.071  37.702   6.750
 9490POPC   C3A64673  33.007  37.693   7.050
 9490POPC   C4A64674  33.022  37.721   7.350
 9490POPC   C1B64675  32.807  37.678   6.450
 9490POPC   C2B64676  32.735  37.648   6.750
 9490POPC   C3B64677  32.760  37.621   7.050
 9490POPC   C4B64678  32.764  37.613   7.350
 9491POPC   NC364679  12.886  36.936   5.550
 9491POPC   PO464680  12.814  36.897   5.850
 9491POPC   GL164681  12.883  36.946   6.150
 9491POPC   GL264682  12.986  36.951   6.150
 9491POPC   C1A64683  12.807  36.908   6.450
 9491POPC   D2A64684  12.863  36.916   6.750
 9491POPC   C3A64685  12.834  36.929   7.050
 9491POPC   C4A64686  12.815  36.915   7.350
 9491POPC   C1B64687  13.068  36.983   6.450
 9491POPC   C2B64688  13.106  36.989   6.750
 9491POPC   C3B64689  13.089  36.943   7.050
 9491POPC   C4B64690  13.057  36.946   7.350
 9492POPC   NC364691   6.692   1.214   5.550
 9492POPC   PO464692   6.645   1.237   5.850
 9492POPC   GL164693   6.609   1.209   6.150
 9492POPC   GL264694   6.725   1.111   6.150
 9492POPC   C1A64695   6.692   1.250   6.450
 9492POPC   D2A64696   6.614   1.263   6.750
 9492POPC   C3A64697   6.630   1.180   7.050
 9492POPC   C4A64698   6.613   1.187   7.350
 9492POPC   C1B64699   6.717   0.972   6.450
 9492POPC   C2B64700   6.747   0.984   6.750
 9492POPC   C3B64701   6.705   0.979   7.050
 9492POPC   C4B64702   6.753   0.928   7.350
 9493POPC   NC364703  22.951  24.472   5.550
 9493POPC   PO464704  22.981  24.453   5.850
 9493POPC   GL164705  22.953  24.483   6.150
 9493POPC   GL264706  22.893  24.392   6.150
 9493POPC   C1A64707  22.903  24.513   6.450
 9493POPC   D2A64708  22.924  24.448   6.750
 9493POPC   C3A64709  22.919  24.472   7.050
 9493POPC   C4A64710  22.959  24.467   7.350
 9493POPC   C1B64711  22.833  24.305   6.450
 9493POPC   C2B64712  22.816  24.221   6.750
 9493POPC   C3B64713  22.855  24.226   7.050
 9493POPC   C4B64714  22.831  24.244   7.350
 9494POPC   NC364715  39.209  34.539   5.550
 9494POPC   PO464716  39.219  34.583   5.850
 9494POPC   GL164717  39.239  34.611   6.150
 9494POPC   GL264718  39.101  34.589   6.150
 9494POPC   C1A64719  39.254  34.527   6.450
 9494POPC   D2A64720  39.200  34.592   6.750
 9494POPC   C3A64721  39.260  34.556   7.050
 9494POPC   C4A64722  39.236  34.613   7.350
 9494POPC   C1B64723  38.991  34.582   6.450
 9494POPC   C2B64724  38.957  34.579   6.750
 9494POPC   C3B64725  38.960  34.556   7.050
 9494POPC   C4B64726  38.976  34.553   7.350
 9495POPC   NC364727  15.930   5.861   5.550
 9495POPC   PO464728  15.954   5.862   5.850
 9495POPC   GL164729  16.005   5.841   6.150
 9495POPC   GL264730  15.975   5.785   6.150
 9495POPC   C1A64731  15.926   5.851   6.450
 9495POPC   D2A64732  15.991   5.869   6.750
 9495POPC   C3A64733  16.001   5.870   7.050
 9495POPC   C4A64734  15.992   5.887   7.350
 9495POPC   C1B64735  15.933   5.638   6.450
 9495POPC   C2B64736  15.909   5.644   6.750
 9495POPC   C3B64737  15.952   5.649   7.050
 9495POPC   C4B64738  15.934   5.580   7.350
 9496POPC   NC364739   8.184  40.811   5.550
 9496POPC   PO464740   8.209  40.734   5.850
 9496POPC   GL164741   8.210  40.744   6.150
 9496POPC   GL264742   8.289  40.763   6.150
 9496POPC   C1A64743   8.188  40.794   6.450
 9496POPC   D2A64744   8.158  40.797   6.750
 9496POPC   C3A64745   8.231  40.825   7.050
 9496POPC   C4A64746   8.173  40.822   7.350
 9496POPC   C1B64747   8.442  40.767   6.450
 9496POPC   C2B64748   8.399  40.809   6.750
 9496POPC   C3B64749   8.488  40.759   7.050
 9496POPC   C4B64750   8.460  40.767   7.350
 9497POPC   NC364751  34.570  19.050   5.550
 9497POPC   PO464752  34.555  19.077   5.850
 9497POPC   GL164753  34.581  19.076   6.150
 9497POPC   GL264754  34.515  19.003   6.150
 9497POPC   C1A64755  34.620  19.081   6.450
 9497POPC   D2A64756  34.534  19.009   6.750
 9497POPC   C3A64757  34.615  19.071   7.050
 9497POPC   C4A64758  34.608  19.030   7.350
 9497POPC   C1B64759  34.390  18.870   6.450
 9497POPC   C2B64760  34.358  18.913   6.750
 9497POPC   C3B64761  34.432  18.877   7.050
 9497POPC   C4B64762  34.409  18.896   7.350
 9498POPC   NC364763   9.707  25.220   5.550
 9498POPC   PO464764   9.786  25.280   5.850
 9498POPC   GL164765   9.765  25.291   6.150
 9498POPC   GL264766   9.708  25.429   6.150
 9498POPC   C1A64767   9.740  25.267   6.450
 9498POPC   D2A64768   9.766  25.253   6.750
 9498POPC   C3A64769   9.699  25.233   7.050
 9498POPC   C4A64770   9.787  25.230   7.350
 9498POPC   C1B64771   9.777  25.494   6.450
 9498POPC   C2B64772   9.804  25.527   6.750
 9498POPC   C3B64773   9.715  25.562   7.050
 9498POPC   C4B64774   9.720  25.508   7.350
 9499POPC   NC364775  24.477  29.178   5.550
 9499POPC   PO464776  24.514  29.123   5.850
 9499POPC   GL164777  24.472  29.194   6.150
 9499POPC   GL264778  24.520  29.210   6.150
 9499POPC   C1A64779  24.517  29.128   6.450
 9499POPC   D2A64780  24.510  29.148   6.750
 9499POPC   C3A64781  24.502  29.178   7.050
 9499POPC   C4A64782  24.524  29.149   7.350
 9499POPC   C1B64783  24.657  29.381   6.450
 9499POPC   C2B64784  24.611  29.372   6.750
 9499POPC   C3B64785  24.650  29.329   7.050
 9499POPC   C4B64786  24.601  29.323   7.350
 9500POPC   NC364787  36.870  10.477   5.550
 9500POPC   PO464788  36.929  10.487   5.850
 9500POPC   GL164789  36.910  10.489   6.150
 9500POPC   GL264790  36.836  10.644   6.150
 9500POPC   C1A64791  36.951  10.525   6.450
 9500POPC   D2A64792  36.925  10.568   6.750
 9500POPC   C3A64793  36.941  10.510   7.050
 9500POPC   C4A64794  36.941  10.531   7.350
 9500POPC   C1B64795  36.728  10.730   6.450
 9500POPC   C2B64796  36.730  10.754   6.750
 9500POPC   C3B64797  36.787  10.789   7.050
 9500POPC   C4B64798  36.796  10.708   7.350
 9501POPC   NC364799  44.691  38.466   5.550
 9501POPC   PO464800  44.667  38.476   5.850
 9501POPC   GL164801  44.651  38.482   6.150
 9501POPC   GL264802  44.622  38.607   6.150
 9501POPC   C1A64803  44.646  38.443   6.450
 9501POPC   D2A64804  44.626  38.459   6.750
 9501POPC   C3A64805  44.620  38.491   7.050
 9501POPC   C4A64806  44.643  38.497   7.350
 9501POPC   C1B64807  44.606  38.647   6.450
 9501POPC   C2B64808  44.545  38.658   6.750
 9501POPC   C3B64809  44.581  38.728   7.050
 9501POPC   C4B64810  44.549  38.673   7.350
 9502POPC   NC364811   2.805  12.102   5.550
 9502POPC   PO464812   2.770  12.124   5.850
 9502POPC   GL164813   2.799  12.079   6.150
 9502POPC   GL264814   2.872  11.985   6.150
 9502POPC   C1A64815   2.780  12.036   6.450
 9502POPC   D2A64816   2.812  12.029   6.750
 9502POPC   C3A64817   2.759  12.093   7.050
 9502POPC   C4A64818   2.733  12.081   7.350
 9502POPC   C1B64819   2.998  11.998   6.450
 9502POPC   C2B64820   3.005  11.911   6.750
 9502POPC   C3B64821   3.029  11.965   7.050
 9502POPC   C4B64822   3.025  11.937   7.350
 9503POPC   NC364823  26.079  43.098   5.550
 9503POPC   PO464824  26.041  43.111   5.850
 9503POPC   GL164825  26.025  43.143   6.150
 9503POPC   GL264826  26.004  42.969   6.150
 9503POPC   C1A64827  26.088  43.113   6.450
 9503POPC   D2A64828  26.051  43.104   6.750
 9503POPC   C3A64829  26.090  43.146   7.050
 9503POPC   C4A64830  26.037  43.096   7.350
 9503POPC   C1B64831  25.909  42.939   6.450
 9503POPC   C2B64832  25.897  42.922   6.750
 9503POPC   C3B64833  25.905  42.926   7.050
 9503POPC   C4B64834  25.869  42.890   7.350
 9504POPC   NC364835  33.007  27.586   5.550
 9504POPC   PO464836  33.068  27.550   5.850
 9504POPC   GL164837  33.044  27.622   6.150
 9504POPC   GL264838  32.907  27.620   6.150
 9504POPC   C1A64839  33.063  27.641   6.450
 9504POPC   D2A64840  32.995  27.600   6.750
 9504POPC   C3A64841  32.977  27.623   7.050
 9504POPC   C4A64842  33.040  27.597   7.350
 9504POPC   C1B64843  32.787  27.696   6.450
 9504POPC   C2B64844  32.842  27.737   6.750
 9504POPC   C3B64845  32.858  27.757   7.050
 9504POPC   C4B64846  32.798  27.730   7.350
 9505POPC   NC364847  26.831   2.783   5.550
 9505POPC   PO464848  26.859   2.786   5.850
 9505POPC   GL164849  26.783   2.807   6.150
 9505POPC   GL264850  26.920   2.707   6.150
 9505POPC   C1A64851  26.863   2.774   6.450
 9505POPC   D2A64852  26.815   2.757   6.750
 9505POPC   C3A64853  26.790   2.768   7.050
 9505POPC   C4A64854  26.855   2.750   7.350
 9505POPC   C1B64855  27.034   2.620   6.450
 9505POPC   C2B64856  27.035   2.537   6.750
 9505POPC   C3B64857  27.020   2.559   7.050
 9505POPC   C4B64858  26.953   2.549   7.350
 9506POPC   NC364859  40.789   0.395   5.550
 9506POPC   PO464860  40.758   0.476   5.850
 9506POPC   GL164861  40.809   0.434   6.150
 9506POPC   GL264862  40.820   0.567   6.150
 9506POPC   C1A64863  40.793   0.388   6.450
 9506POPC   D2A64864  40.810   0.468   6.750
 9506POPC   C3A64865  40.767   0.480   7.050
 9506POPC   C4A64866  40.763   0.394   7.350
 9506POPC   C1B64867  40.868   0.677   6.450
 9506POPC   C2B64868  40.863   0.667   6.750
 9506POPC   C3B64869  40.849   0.708   7.050
 9506POPC   C4B64870  40.873   0.673   7.350
 9507POPC   NC364871   0.482  10.538   5.550
 9507POPC   PO464872   0.472  10.538   5.850
 9507POPC   GL164873   0.422  10.556   6.150
 9507POPC   GL264874   0.279  10.570   6.150
 9507POPC   C1A64875   0.429  10.485   6.450
 9507POPC   D2A64876   0.431  10.494   6.750
 9507POPC   C3A64877   0.401  10.546   7.050
 9507POPC   C4A64878   0.426  10.533   7.350
 9507POPC   C1B64879   0.207  10.606   6.450
 9507POPC   C2B64880   0.172  10.638   6.750
 9507POPC   C3B64881   0.204  10.590   7.050
 9507POPC   C4B64882   0.170  10.620   7.350
 9508POPC   NC364883  42.367  41.586   5.550
 9508POPC   PO464884  42.347  41.574   5.850
 9508POPC   GL164885  42.371  41.521   6.150
 9508POPC   GL264886  42.295  41.475   6.150
 9508POPC   C1A64887  42.346  41.541   6.450
 9508POPC   D2A64888  42.314  41.571   6.750
 9508POPC   C3A64889  42.355  41.527   7.050
 9508POPC   C4A64890  42.310  41.602   7.350
 9508POPC   C1B64891  42.261  41.359   6.450
 9508POPC   C2B64892  42.320  41.294   6.750
 9508POPC   C3B64893  42.269  41.357   7.050
 9508POPC   C4B64894  42.265  41.294   7.350
 9509POPC   NC364895   6.671   9.742   5.550
 9509POPC   PO464896   6.683   9.733   5.850
 9509POPC   GL164897   6.604   9.760   6.150
 9509POPC   GL264898   6.754   9.760   6.150
 9509POPC   C1A64899   6.637   9.773   6.450
 9509POPC   D2A64900   6.620   9.763   6.750
 9509POPC   C3A64901   6.691   9.752   7.050
 9509POPC   C4A64902   6.629   9.788   7.350
 9509POPC   C1B64903   6.839   9.853   6.450
 9509POPC   C2B64904   6.851   9.852   6.750
 9509POPC   C3B64905   6.890   9.860   7.050
 9509POPC   C4B64906   6.906   9.905   7.350
 9510POPC   NC364907  17.486  16.731   5.550
 9510POPC   PO464908  17.533  16.740   5.850
 9510POPC   GL164909  17.519  16.692   6.150
 9510POPC   GL264910  17.447  16.849   6.150
 9510POPC   C1A64911  17.461  16.683   6.450
 9510POPC   D2A64912  17.499  16.752   6.750
 9510POPC   C3A64913  17.487  16.683   7.050
 9510POPC   C4A64914  17.490  16.779   7.350
 9510POPC   C1B64915  17.482  16.945   6.450
 9510POPC   C2B64916  17.484  16.932   6.750
 9510POPC   C3B64917  17.475  17.015   7.050
 9510POPC   C4B64918  17.419  17.020   7.350
 9511POPC   NC364919  29.965  44.631   5.550
 9511POPC   PO464920  29.913  44.641   5.850
 9511POPC   GL164921  29.966  44.642   6.150
 9511POPC   GL264922  30.029  44.657   6.150
 9511POPC   C1A64923  29.894  44.710   6.450
 9511POPC   D2A64924  29.952  44.658   6.750
 9511POPC   C3A64925  29.918  44.639   7.050
 9511POPC   C4A64926  29.947  44.698   7.350
 9511POPC   C1B64927  30.190  44.657   6.450
 9511POPC   C2B64928  30.130  44.735   6.750
 9511POPC   C3B64929  30.214  44.703   7.050
 9511POPC   C4B64930  30.182  44.669   7.350
 9512POPC   NC364931  35.322   5.077   5.550
 9512POPC   PO464932  35.341   5.115   5.850
 9512POPC   GL164933  35.382   5.077   6.150
 9512POPC   GL264934  35.505   5.089   6.150
 9512POPC   C1A64935  35.321   5.118   6.450
 9512POPC   D2A64936  35.355   5.090   6.750
 9512POPC   C3A64937  35.304   5.108   7.050
 9512POPC   C4A64938  35.363   5.049   7.350
 9512POPC   C1B64939  35.603   5.120   6.450
 9512POPC   C2B64940  35.553   5.067   6.750
 9512POPC   C3B64941  35.569   5.113   7.050
 9512POPC   C4B64942  35.591   5.068   7.350
 9513POPC   NC364943  13.629  39.960   5.550
 9513POPC   PO464944  13.594  39.986   5.850
 9513POPC   GL164945  13.629  39.971   6.150
 9513POPC   GL264946  13.492  40.058   6.150
 9513POPC   C1A64947  13.582  40.032   6.450
 9513POPC   D2A64948  13.660  40.013   6.750
 9513POPC   C3A64949  13.673  39.966   7.050
 9513POPC   C4A64950  13.635  39.967   7.350
 9513POPC   C1B64951  13.415  40.051   6.450
 9513POPC   C2B64952  13.414  40.049   6.750
 9513POPC   C3B64953  13.379  40.076   7.050
 9513POPC   C4B64954  13.382  40.076   7.350
 9514POPC   NC364955  20.655   1.246   5.550
 9514POPC   PO464956  20.566   1.166   5.850
 9514POPC   GL164957  20.571   1.223   6.150
 9514POPC   GL264958  20.687   1.241   6.150
 9514POPC   C1A64959  20.627   1.188   6.450
 9514POPC   D2A64960  20.600   1.231   6.750
 9514POPC   C3A64961  20.617   1.244   7.050
 9514POPC   C4A64962  20.656   1.240   7.350
 9514POPC   C1B64963  20.852   1.217   6.450
 9514POPC   C2B64964  20.886   1.194   6.750
 9514POPC   C3B64965  20.870   1.164   7.050
 9514POPC   C4B64966  20.904   1.233   7.350
 9515POPC   NC364967  23.694  33.030   5.550
 9515POPC   PO464968  23.758  32.994   5.850
 9515POPC   GL164969  23.705  33.011   6.150
 9515POPC   GL264970  23.640  33.003   6.150
 9515POPC   C1A64971  23.714  33.003   6.450
 9515POPC   D2A64972  23.737  32.983   6.750
 9515POPC   C3A64973  23.669  33.021   7.050
 9515POPC   C4A64974  23.726  33.019   7.350
 9515POPC   C1B64975  23.532  32.940   6.450
 9515POPC   C2B64976  23.512  32.897   6.750
 9515POPC   C3B64977  23.529  32.887   7.050
 9515POPC   C4B64978  23.488  32.912   7.350
 9516POPC   NC364979  30.739  38.470   5.550
 9516POPC   PO464980  30.671  38.418   5.850
 9516POPC   GL164981  30.735  38.445   6.150
 9516POPC   GL264982  30.562  38.448   6.150
 9516POPC   C1A64983  30.666  38.477   6.450
 9516POPC   D2A64984  30.677  38.472   6.750
 9516POPC   C3A64985  30.672  38.489   7.050
 9516POPC   C4A64986  30.728  38.504   7.350
 9516POPC   C1B64987  30.481  38.488   6.450
 9516POPC   C2B64988  30.398  38.428   6.750
 9516POPC   C3B64989  30.466  38.479   7.050
 9516POPC   C4B64990  30.466  38.416   7.350
 9517POPC   NC364991  25.995  14.396   5.550
 9517POPC   PO464992  26.052  14.384   5.850
 9517POPC   GL164993  26.085  14.412   6.150
 9517POPC   GL264994  26.118  14.317   6.150
 9517POPC   C1A64995  26.016  14.405   6.450
 9517POPC   D2A64996  26.046  14.411   6.750
 9517POPC   C3A64997  26.056  14.378   7.050
 9517POPC   C4A64998  26.091  14.365   7.350
 9517POPC   C1B64999  26.251  14.242   6.450
 9517POPC   C2B65000  26.223  14.176   6.750
 9517POPC   C3B65001  26.210  14.246   7.050
 9517POPC   C4B65002  26.215  14.201   7.350
 9518POPC   NC365003   7.459  37.658   5.550
 9518POPC   PO465004   7.436  37.684   5.850
 9518POPC   GL165005   7.382  37.708   6.150
 9518POPC   GL265006   7.548  37.578   6.150
 9518POPC   C1A65007   7.457  37.685   6.450
 9518POPC   D2A65008   7.407  37.631   6.750
 9518POPC   C3A65009   7.432  37.669   7.050
 9518POPC   C4A65010   7.450  37.682   7.350
 9518POPC   C1B65011   7.624  37.474   6.450
 9518POPC   C2B65012   7.558  37.504   6.750
 9518POPC   C3B65013   7.611  37.555   7.050
 9518POPC   C4B65014   7.572  37.463   7.350
 9519POPC   NC365015   5.850  37.699   5.550
 9519POPC   PO465016   5.833  37.692   5.850
 9519POPC   GL165017   5.895  37.673   6.150
 9519POPC   GL265018   5.913  37.770   6.150
 9519POPC   C1A65019   5.887  37.642   6.450
 9519POPC   D2A65020   5.882  37.657   6.750
 9519POPC   C3A65021   5.913  37.644   7.050
 9519POPC   C4A65022   5.835  37.701   7.350
 9519POPC   C1B65023   5.974  37.956   6.450
 9519POPC   C2B65024   5.955  37.879   6.750
 9519POPC   C3B65025   5.938  37.939   7.050
 9519POPC   C4B65026   6.002  37.954   7.350
 9520POPC   NC365027  43.904  39.988   5.550
 9520POPC   PO465028  43.923  40.019   5.850
 9520POPC   GL165029  43.883  39.982   6.150
 9520POPC   GL265030  44.031  40.011   6.150
 9520POPC   C1A65031  43.926  40.016   6.450
 9520POPC   D2A65032  43.922  40.041   6.750
 9520POPC   C3A65033  43.911  40.003   7.050
 9520POPC   C4A65034  43.931  40.053   7.350
 9520POPC   C1B65035  44.137  40.126   6.450
 9520POPC   C2B65036  44.117  40.101   6.750
 9520POPC   C3B65037  44.081  40.113   7.050
 9520POPC   C4B65038  44.113  40.140   7.350
 9521POPC   NC365039  10.556  19.078   5.550
 9521POPC   PO465040  10.482  19.065   5.850
 9521POPC   GL165041  10.491  19.069   6.150
 9521POPC   GL265042  10.509  18.947   6.150
 9521POPC   C1A65043  10.536  19.044   6.450
 9521POPC   D2A65044  10.514  19.026   6.750
 9521POPC   C3A65045  10.493  19.101   7.050
 9521POPC   C4A65046  10.560  19.074   7.350
 9521POPC   C1B65047  10.590  18.832   6.450
 9521POPC   C2B65048  10.575  18.834   6.750
 9521POPC   C3B65049  10.540  18.820   7.050
 9521POPC   C4B65050  10.631  18.806   7.350
 9522POPC   NC365051  40.023   9.715   5.550
 9522POPC   PO465052  39.980   9.733   5.850
 9522POPC   GL165053  39.983   9.762   6.150
 9522POPC   GL265054  40.112   9.832   6.150
 9522POPC   C1A65055  40.001   9.752   6.450
 9522POPC   D2A65056  40.030   9.753   6.750
 9522POPC   C3A65057  40.055   9.751   7.050
 9522POPC   C4A65058  39.980   9.781   7.350
 9522POPC   C1B65059  40.222   9.887   6.450
 9522POPC   C2B65060  40.231   9.926   6.750
 9522POPC   C3B65061  40.178   9.899   7.050
 9522POPC   C4B65062  40.271   9.854   7.350
 9523POPC   NC365063   2.796   0.445   5.550
 9523POPC   PO465064   2.784   0.398   5.850
 9523POPC   GL165065   2.783   0.449   6.150
 9523POPC   GL265066   2.642   0.508   6.150
 9523POPC   C1A65067   2.757   0.416   6.450
 9523POPC   D2A65068   2.747   0.437   6.750
 9523POPC   C3A65069   2.812   0.421   7.050
 9523POPC   C4A65070   2.736   0.483   7.350
 9523POPC   C1B65071   2.601   0.613   6.450
 9523POPC   C2B65072   2.637   0.659   6.750
 9523POPC   C3B65073   2.636   0.597   7.050
 9523POPC   C4B65074   2.639   0.582   7.350
 9524POPC   NC365075  22.944  43.148   5.550
 9524POPC   PO465076  22.891  43.106   5.850
 9524POPC   GL165077  22.893  43.141   6.150
 9524POPC   GL265078  22.779  43.192   6.150
 9524POPC   C1A65079  22.973  43.110   6.450
 9524POPC   D2A65080  22.896  43.149   6.750
 9524POPC   C3A65081  22.912  43.156   7.050
 9524POPC   C4A65082  22.969  43.072   7.350
 9524POPC   C1B65083  22.754  43.217   6.450
 9524POPC   C2B65084  22.727  43.203   6.750
 9524POPC   C3B65085  22.747  43.229   7.050
 9524POPC   C4B65086  22.703  43.195   7.350
 9525POPC   NC365087  13.599  12.896   5.550
 9525POPC   PO465088  13.665  12.844   5.850
 9525POPC   GL165089  13.677  12.828   6.150
 9525POPC   GL265090  13.465  12.900   6.150
 9525POPC   C1A65091  13.635  12.881   6.450
 9525POPC   D2A65092  13.600  12.864   6.750
 9525POPC   C3A65093  13.670  12.807   7.050
 9525POPC   C4A65094  13.661  12.814   7.350
 9525POPC   C1B65095  13.367  12.934   6.450
 9525POPC   C2B65096  13.356  12.917   6.750
 9525POPC   C3B65097  13.378  12.998   7.050
 9525POPC   C4B65098  13.433  12.945   7.350
 9526POPC   NC365099  10.565  40.784   5.550
 9526POPC   PO465100  10.484  40.805   5.850
 9526POPC   GL165101  10.522  40.771   6.150
 9526POPC   GL265102  10.640  40.811   6.150
 9526POPC   C1A65103  10.568  40.760   6.450
 9526POPC   D2A65104  10.499  40.823   6.750
 9526POPC   C3A65105  10.520  40.788   7.050
 9526POPC   C4A65106  10.479  40.774   7.350
 9526POPC   C1B65107  10.726  40.848   6.450
 9526POPC   C2B65108  10.790  40.797   6.750
 9526POPC   C3B65109  10.730  40.764   7.050
 9526POPC   C4B65110  10.747  40.803   7.350
 9527POPC   NC365111  11.282   5.143   5.550
 9527POPC   PO465112  11.304   5.142   5.850
 9527POPC   GL165113  11.276   5.109   6.150
 9527POPC   GL265114  11.312   4.927   6.150
 9527POPC   C1A65115  11.336   5.128   6.450
 9527POPC   D2A65116  11.257   5.077   6.750
 9527POPC   C3A65117  11.289   5.097   7.050
 9527POPC   C4A65118  11.258   5.061   7.350
 9527POPC   C1B65119  11.231   4.831   6.450
 9527POPC   C2B65120  11.241   4.891   6.750
 9527POPC   C3B65121  11.229   4.868   7.050
 9527POPC   C4B65122  11.223   4.871   7.350
 9528POPC   NC365123  36.118  15.161   5.550
 9528POPC   PO465124  36.128  15.165   5.850
 9528POPC   GL165125  36.092  15.219   6.150
 9528POPC   GL265126  36.250  15.223   6.150
 9528POPC   C1A65127  36.173  15.132   6.450
 9528POPC   D2A65128  36.082  15.181   6.750
 9528POPC   C3A65129  36.156  15.149   7.050
 9528POPC   C4A65130  36.140  15.220   7.350
 9528POPC   C1B65131  36.318  15.365   6.450
 9528POPC   C2B65132  36.336  15.377   6.750
 9528POPC   C3B65133  36.353  15.352   7.050
 9528POPC   C4B65134  36.301  15.361   7.350
 9529POPC   NC365135  41.575  16.005   5.550
 9529POPC   PO465136  41.592  15.929   5.850
 9529POPC   GL165137  41.545  15.987   6.150
 9529POPC   GL265138  41.420  15.980   6.150
 9529POPC   C1A65139  41.579  15.998   6.450
 9529POPC   D2A65140  41.564  15.974   6.750
 9529POPC   C3A65141  41.581  15.954   7.050
 9529POPC   C4A65142  41.579  15.987   7.350
 9529POPC   C1B65143  41.288  16.023   6.450
 9529POPC   C2B65144  41.366  16.061   6.750
 9529POPC   C3B65145  41.290  15.986   7.050
 9529POPC   C4B65146  41.343  16.059   7.350
 9530POPC   NC365147   5.112  27.589   5.550
 9530POPC   PO465148   5.081  27.610   5.850
 9530POPC   GL165149   5.132  27.563   6.150
 9530POPC   GL265150   5.040  27.635   6.150
 9530POPC   C1A65151   5.046  27.641   6.450
 9530POPC   D2A65152   5.118  27.555   6.750
 9530POPC   C3A65153   5.069  27.621   7.050
 9530POPC   C4A65154   5.098  27.634   7.350
 9530POPC   C1B65155   4.900  27.807   6.450
 9530POPC   C2B65156   4.940  27.817   6.750
 9530POPC   C3B65157   4.926  27.782   7.050
 9530POPC   C4B65158   4.881  27.764   7.350
 9531POPC   NC365159  29.184  25.310   5.550
 9531POPC   PO465160  29.168  25.236   5.850
 9531POPC   GL165161  29.114  25.227   6.150
 9531POPC   GL265162  29.017  25.251   6.150
 9531POPC   C1A65163  29.169  25.252   6.450
 9531POPC   D2A65164  29.149  25.275   6.750
 9531POPC   C3A65165  29.194  25.290   7.050
 9531POPC   C4A65166  29.122  25.294   7.350
 9531POPC   C1B65167  28.938  25.265   6.450
 9531POPC   C2B65168  28.885  25.276   6.750
 9531POPC   C3B65169  28.857  25.211   7.050
 9531POPC   C4B65170  28.890  25.203   7.350
 9532POPC   NC365171  10.543  12.831   5.550
 9532POPC   PO465172  10.488  12.844   5.850
 9532POPC   GL165173  10.512  12.827   6.150
 9532POPC   GL265174  10.579  12.977   6.150
 9532POPC   C1A65175  10.482  12.811   6.450
 9532POPC   D2A65176  10.495  12.858   6.750
 9532POPC   C3A65177  10.545  12.830   7.050
 9532POPC   C4A65178  10.485  12.808   7.350
 9532POPC   C1B65179  10.679  13.047   6.450
 9532POPC   C2B65180  10.689  13.033   6.750
 9532POPC   C3B65181  10.746  13.026   7.050
 9532POPC   C4B65182  10.759  12.968   7.350
 9533POPC   NC365183   2.022  36.925   5.550
 9533POPC   PO465184   2.023  36.931   5.850
 9533POPC   GL165185   2.015  36.874   6.150
 9533POPC   GL265186   2.077  36.937   6.150
 9533POPC   C1A65187   2.033  36.896   6.450
 9533POPC   D2A65188   1.997  36.897   6.750
 9533POPC   C3A65189   1.941  36.862   7.050
 9533POPC   C4A65190   1.984  36.914   7.350
 9533POPC   C1B65191   2.259  36.852   6.450
 9533POPC   C2B65192   2.197  36.848   6.750
 9533POPC   C3B65193   2.227  36.835   7.050
 9533POPC   C4B65194   2.249  36.845   7.350
 9534POPC   NC365195   9.742  23.718   5.550
 9534POPC   PO465196   9.741  23.709   5.850
 9534POPC   GL165197   9.737  23.762   6.150
 9534POPC   GL265198   9.693  23.588   6.150
 9534POPC   C1A65199   9.749  23.727   6.450
 9534POPC   D2A65200   9.737  23.668   6.750
 9534POPC   C3A65201   9.751  23.668   7.050
 9534POPC   C4A65202   9.728  23.747   7.350
 9534POPC   C1B65203   9.631  23.544   6.450
 9534POPC   C2B65204   9.650  23.497   6.750
 9534POPC   C3B65205   9.629  23.509   7.050
 9534POPC   C4B65206   9.586  23.497   7.350
 9535POPC   NC365207  24.451  12.110   5.550
 9535POPC   PO465208  24.477  12.095   5.850
 9535POPC   GL165209  24.487  12.059   6.150
 9535POPC   GL265210  24.606  12.151   6.150
 9535POPC   C1A65211  24.520  12.050   6.450
 9535POPC   D2A65212  24.517  12.113   6.750
 9535POPC   C3A65213  24.484  12.048   7.050
 9535POPC   C4A65214  24.447  12.037   7.350
 9535POPC   C1B65215  24.652  12.210   6.450
 9535POPC   C2B65216  24.708  12.202   6.750
 9535POPC   C3B65217  24.660  12.242   7.050
 9535POPC   C4B65218  24.704  12.220   7.350
 9536POPC   NC365219  10.501   5.113   5.550
 9536POPC   PO465220  10.486   5.059   5.850
 9536POPC   GL165221  10.517   5.091   6.150
 9536POPC   GL265222  10.649   4.982   6.150
 9536POPC   C1A65223  10.551   5.071   6.450
 9536POPC   D2A65224  10.547   5.083   6.750
 9536POPC   C3A65225  10.483   5.102   7.050
 9536POPC   C4A65226  10.510   5.113   7.350
 9536POPC   C1B65227  10.735   4.932   6.450
 9536POPC   C2B65228  10.752   4.967   6.750
 9536POPC   C3B65229  10.698   4.933   7.050
 9536POPC   C4B65230  10.704   4.908   7.350
 9537POPC   NC365231  19.802  29.890   5.550
 9537POPC   PO465232  19.831  29.893   5.850
 9537POPC   GL165233  19.837  29.941   6.150
 9537POPC   GL265234  19.711  29.869   6.150
 9537POPC   C1A65235  19.841  29.901   6.450
 9537POPC   D2A65236  19.814  29.951   6.750
 9537POPC   C3A65237  19.808  29.879   7.050
 9537POPC   C4A65238  19.857  29.921   7.350
 9537POPC   C1B65239  19.644  29.762   6.450
 9537POPC   C2B65240  19.586  29.826   6.750
 9537POPC   C3B65241  19.617  29.828   7.050
 9537POPC   C4B65242  19.646  29.828   7.350
 9538POPC   NC365243  33.059  33.782   5.550
 9538POPC   PO465244  33.001  33.797   5.850
 9538POPC   GL165245  32.986  33.841   6.150
 9538POPC   GL265246  33.148  33.703   6.150
 9538POPC   C1A65247  33.059  33.849   6.450
 9538POPC   D2A65248  33.024  33.790   6.750
 9538POPC   C3A65249  33.037  33.756   7.050
 9538POPC   C4A65250  32.991  33.792   7.350
 9538POPC   C1B65251  33.289  33.647   6.450
 9538POPC   C2B65252  33.207  33.702   6.750
 9538POPC   C3B65253  33.220  33.644   7.050
 9538POPC   C4B65254  33.261  33.719   7.350
 9539POPC   NC365255  36.096  43.088   5.550
 9539POPC   PO465256  36.174  43.110   5.850
 9539POPC   GL165257  36.139  43.074   6.150
 9539POPC   GL265258  36.021  43.098   6.150
 9539POPC   C1A65259  36.133  43.127   6.450
 9539POPC   D2A65260  36.082  43.119   6.750
 9539POPC   C3A65261  36.169  43.085   7.050
 9539POPC   C4A65262  36.173  43.084   7.350
 9539POPC   C1B65263  35.936  43.179   6.450
 9539POPC   C2B65264  35.839  43.175   6.750
 9539POPC   C3B65265  35.935  43.211   7.050
 9539POPC   C4B65266  35.889  43.202   7.350
 9540POPC   NC365267   7.407  43.844   5.550
 9540POPC   PO465268   7.409  43.925   5.850
 9540POPC   GL165269   7.432  43.915   6.150
 9540POPC   GL265270   7.512  44.040   6.150
 9540POPC   C1A65271   7.387  43.864   6.450
 9540POPC   D2A65272   7.423  43.842   6.750
 9540POPC   C3A65273   7.373  43.854   7.050
 9540POPC   C4A65274   7.444  43.900   7.350
 9540POPC   C1B65275   7.513  44.113   6.450
 9540POPC   C2B65276   7.489  44.110   6.750
 9540POPC   C3B65277   7.573  44.090   7.050
 9540POPC   C4B65278   7.523  44.129   7.350
 9541POPC   NC365279  37.685  41.559   5.550
 9541POPC   PO465280  37.706  41.516   5.850
 9541POPC   GL165281  37.683  41.514   6.150
 9541POPC   GL265282  37.526  41.531   6.150
 9541POPC   C1A65283  37.663  41.512   6.450
 9541POPC   D2A65284  37.630  41.546   6.750
 9541POPC   C3A65285  37.675  41.550   7.050
 9541POPC   C4A65286  37.664  41.579   7.350
 9541POPC   C1B65287  37.420  41.513   6.450
 9541POPC   C2B65288  37.409  41.560   6.750
 9541POPC   C3B65289  37.449  41.494   7.050
 9541POPC   C4B65290  37.446  41.509   7.350
 9542POPC   NC365291  23.763  29.164   5.550
 9542POPC   PO465292  23.707  29.135   5.850
 9542POPC   GL165293  23.737  29.166   6.150
 9542POPC   GL265294  23.771  29.187   6.150
 9542POPC   C1A65295  23.751  29.150   6.450
 9542POPC   D2A65296  23.727  29.097   6.750
 9542POPC   C3A65297  23.687  29.159   7.050
 9542POPC   C4A65298  23.729  29.189   7.350
 9542POPC   C1B65299  23.868  29.338   6.450
 9542POPC   C2B65300  23.888  29.357   6.750
 9542POPC   C3B65301  23.858  29.354   7.050
 9542POPC   C4B65302  23.874  29.272   7.350
 9543POPC   NC365303  31.461  37.706   5.550
 9543POPC   PO465304  31.517  37.679   5.850
 9543POPC   GL165305  31.444  37.690   6.150
 9543POPC   GL265306  31.434  37.575   6.150
 9543POPC   C1A65307  31.444  37.704   6.450
 9543POPC   D2A65308  31.434  37.660   6.750
 9543POPC   C3A65309  31.459  37.655   7.050
 9543POPC   C4A65310  31.491  37.719   7.350
 9543POPC   C1B65311  31.415  37.499   6.450
 9543POPC   C2B65312  31.380  37.498   6.750
 9543POPC   C3B65313  31.349  37.464   7.050
 9543POPC   C4B65314  31.411  37.409   7.350
 9544POPC   NC365315  22.121  36.868   5.550
 9544POPC   PO465316  22.120  36.895   5.850
 9544POPC   GL165317  22.133  36.941   6.150
 9544POPC   GL265318  22.103  37.002   6.150
 9544POPC   C1A65319  22.168  36.931   6.450
 9544POPC   D2A65320  22.137  36.861   6.750
 9544POPC   C3A65321  22.209  36.930   7.050
 9544POPC   C4A65322  22.151  36.896   7.350
 9544POPC   C1B65323  22.121  37.132   6.450
 9544POPC   C2B65324  22.127  37.193   6.750
 9544POPC   C3B65325  22.096  37.176   7.050
 9544POPC   C4B65326  22.053  37.130   7.350
 9545POPC   NC365327   1.225  23.722   5.550
 9545POPC   PO465328   1.248  23.716   5.850
 9545POPC   GL165329   1.191  23.696   6.150
 9545POPC   GL265330   1.294  23.699   6.150
 9545POPC   C1A65331   1.243  23.723   6.450
 9545POPC   D2A65332   1.180  23.664   6.750
 9545POPC   C3A65333   1.196  23.704   7.050
 9545POPC   C4A65334   1.172  23.760   7.350
 9545POPC   C1B65335   1.432  23.709   6.450
 9545POPC   C2B65336   1.451  23.769   6.750
 9545POPC   C3B65337   1.419  23.725   7.050
 9545POPC   C4B65338   1.443  23.776   7.350
 9546POPC   NC365339  33.817   2.007   5.550
 9546POPC   PO465340  33.751   1.944   5.850
 9546POPC   GL165341  33.816   1.970   6.150
 9546POPC   GL265342  33.766   1.884   6.150
 9546POPC   C1A65343  33.757   1.945   6.450
 9546POPC   D2A65344  33.755   2.010   6.750
 9546POPC   C3A65345  33.780   1.948   7.050
 9546POPC   C4A65346  33.814   2.010   7.350
 9546POPC   C1B65347  33.776   1.776   6.450
 9546POPC   C2B65348  33.757   1.781   6.750
 9546POPC   C3B65349  33.814   1.718   7.050
 9546POPC   C4B65350  33.745   1.766   7.350
 9547POPC   NC365351  32.992  44.706   5.550
 9547POPC   PO465352  33.043  44.687   5.850
 9547POPC   GL165353  33.005  44.628   6.150
 9547POPC   GL265354  33.041  44.749   6.150
 9547POPC   C1A65355  33.017  44.698   6.450
 9547POPC   D2A65356  33.021  44.688   6.750
 9547POPC   C3A65357  33.043  44.634   7.050
 9547POPC   C4A65358  33.004  44.653   7.350
 9547POPC   C1B65359  33.020  44.907   6.450
 9547POPC   C2B65360  32.982  44.960   6.750
 9547POPC   C3B65361  33.060  44.909   7.050
 9547POPC   C4B65362  33.018  44.875   7.350
 9548POPC   NC365363  42.379  22.178   5.550
 9548POPC   PO465364  42.316  22.206   5.850
 9548POPC   GL165365  42.364  22.165   6.150
 9548POPC   GL265366  42.278  22.048   6.150
 9548POPC   C1A65367  42.316  22.173   6.450
 9548POPC   D2A65368  42.336  22.137   6.750
 9548POPC   C3A65369  42.337  22.156   7.050
 9548POPC   C4A65370  42.344  22.193   7.350
 9548POPC   C1B65371  42.165  21.935   6.450
 9548POPC   C2B65372  42.183  21.980   6.750
 9548POPC   C3B65373  42.171  21.975   7.050
 9548POPC   C4B65374  42.204  21.984   7.350
 9549POPC   NC365375  37.699  44.663   5.550
 9549POPC   PO465376  37.683  44.691   5.850
 9549POPC   GL165377  37.637  44.616   6.150
 9549POPC   GL265378  37.617  44.560   6.150
 9549POPC   C1A65379  37.717  44.630   6.450
 9549POPC   D2A65380  37.710  44.658   6.750
 9549POPC   C3A65381  37.705  44.694   7.050
 9549POPC   C4A65382  37.675  44.700   7.350
 9549POPC   C1B65383  37.579  44.405   6.450
 9549POPC   C2B65384  37.582  44.429   6.750
 9549POPC   C3B65385  37.627  44.450   7.050
 9549POPC   C4B65386  37.634  44.456   7.350
 9550POPC   NC365387  33.026  12.097   5.550
 9550POPC   PO465388  33.050  12.054   5.850
 9550POPC   GL165389  33.025  12.111   6.150
 9550POPC   GL265390  33.054  11.990   6.150
 9550POPC   C1A65391  33.060  12.076   6.450
 9550POPC   D2A65392  32.986  12.098   6.750
 9550POPC   C3A65393  33.045  12.074   7.050
 9550POPC   C4A65394  33.026  12.040   7.350
 9550POPC   C1B65395  33.083  11.881   6.450
 9550POPC   C2B65396  33.112  11.872   6.750
 9550POPC   C3B65397  33.109  11.787   7.050
 9550POPC   C4B65398  33.140  11.838   7.350
 9551POPC   NC365399  33.824  36.172   5.550
 9551POPC   PO465400  33.831  36.088   5.850
 9551POPC   GL165401  33.753  36.090   6.150
 9551POPC   GL265402  33.885  36.224   6.150
 9551POPC   C1A65403  33.805  36.170   6.450
 9551POPC   D2A65404  33.794  36.128   6.750
 9551POPC   C3A65405  33.822  36.117   7.050
 9551POPC   C4A65406  33.803  36.088   7.350
 9551POPC   C1B65407  34.024  36.224   6.450
 9551POPC   C2B65408  34.066  36.222   6.750
 9551POPC   C3B65409  34.029  36.211   7.050
 9551POPC   C4B65410  34.002  36.276   7.350
 9552POPC   NC365411  19.841  11.347   5.550
 9552POPC   PO465412  19.829  11.306   5.850
 9552POPC   GL165413  19.876  11.278   6.150
 9552POPC   GL265414  20.005  11.321   6.150
 9552POPC   C1A65415  19.868  11.283   6.450
 9552POPC   D2A65416  19.860  11.348   6.750
 9552POPC   C3A65417  19.799  11.346   7.050
 9552POPC   C4A65418  19.828  11.330   7.350
 9552POPC   C1B65419  20.106  11.330   6.450
 9552POPC   C2B65420  20.051  11.283   6.750
 9552POPC   C3B65421  20.063  11.309   7.050
 9552POPC   C4B65422  20.075  11.304   7.350
 9553POPC   NC365423  33.058  28.357   5.550
 9553POPC   PO465424  32.992  28.348   5.850
 9553POPC   GL165425  33.057  28.394   6.150
 9553POPC   GL265426  32.895  28.397   6.150
 9553POPC   C1A65427  32.995  28.391   6.450
 9553POPC   D2A65428  33.039  28.394   6.750
 9553POPC   C3A65429  32.974  28.387   7.050
 9553POPC   C4A65430  33.024  28.415   7.350
 9553POPC   C1B65431  32.823  28.424   6.450
 9553POPC   C2B65432  32.757  28.408   6.750
 9553POPC   C3B65433  32.746  28.451   7.050
 9553POPC   C4B65434  32.823  28.454   7.350
 9554POPC   NC365435   1.232  41.606   5.550
 9554POPC   PO465436   1.174  41.607   5.850
 9554POPC   GL165437   1.221  41.578   6.150
 9554POPC   GL265438   1.342  41.567   6.150
 9554POPC   C1A65439   1.177  41.521   6.450
 9554POPC   D2A65440   1.246  41.591   6.750
 9554POPC   C3A65441   1.176  41.585   7.050
 9554POPC   C4A65442   1.256  41.574   7.350
 9554POPC   C1B65443   1.419  41.620   6.450
 9554POPC   C2B65444   1.504  41.606   6.750
 9554POPC   C3B65445   1.415  41.540   7.050
 9554POPC   C4B65446   1.462  41.620   7.350
 9555POPC   NC365447   4.312   2.798   5.550
 9555POPC   PO465448   4.359   2.812   5.850
 9555POPC   GL165449   4.352   2.788   6.150
 9555POPC   GL265450   4.268   2.648   6.150
 9555POPC   C1A65451   4.268   2.743   6.450
 9555POPC   D2A65452   4.346   2.807   6.750
 9555POPC   C3A65453   4.361   2.780   7.050
 9555POPC   C4A65454   4.300   2.793   7.350
 9555POPC   C1B65455   4.179   2.529   6.450
 9555POPC   C2B65456   4.221   2.567   6.750
 9555POPC   C3B65457   4.180   2.508   7.050
 9555POPC   C4B65458   4.227   2.537   7.350
 9556POPC   NC365459  28.377   1.963   5.550
 9556POPC   PO465460  28.347   1.954   5.850
 9556POPC   GL165461  28.412   1.991   6.150
 9556POPC   GL265462  28.205   2.058   6.150
 9556POPC   C1A65463  28.362   1.980   6.450
 9556POPC   D2A65464  28.417   2.011   6.750
 9556POPC   C3A65465  28.391   1.988   7.050
 9556POPC   C4A65466  28.403   1.962   7.350
 9556POPC   C1B65467  28.128   2.003   6.450
 9556POPC   C2B65468  28.094   2.000   6.750
 9556POPC   C3B65469  28.131   2.065   7.050
 9556POPC   C4B65470  28.132   1.991   7.350
 9557POPC   NC365471  23.760   7.461   5.550
 9557POPC   PO465472  23.681   7.451   5.850
 9557POPC   GL165473  23.678   7.450   6.150
 9557POPC   GL265474  23.729   7.274   6.150
 9557POPC   C1A65475  23.752   7.407   6.450
 9557POPC   D2A65476  23.667   7.465   6.750
 9557POPC   C3A65477  23.666   7.452   7.050
 9557POPC   C4A65478  23.708   7.429   7.350
 9557POPC   C1B65479  23.767   7.182   6.450
 9557POPC   C2B65480  23.678   7.132   6.750
 9557POPC   C3B65481  23.740   7.171   7.050
 9557POPC   C4B65482  23.764   7.162   7.350
 9558POPC   NC365483  36.928  40.019   5.550
 9558POPC   PO465484  36.892  40.007   5.850
 9558POPC   GL165485  36.866  40.012   6.150
 9558POPC   GL265486  36.863  39.908   6.150
 9558POPC   C1A65487  36.936  39.966   6.450
 9558POPC   D2A65488  36.950  40.006   6.750
 9558POPC   C3A65489  36.875  40.026   7.050
 9558POPC   C4A65490  36.925  40.028   7.350
 9558POPC   C1B65491  36.900  39.763   6.450
 9558POPC   C2B65492  36.819  39.735   6.750
 9558POPC   C3B65493  36.854  39.789   7.050
 9558POPC   C4B65494  36.831  39.777   7.350
 9559POPC   NC365495  19.082   4.335   5.550
 9559POPC   PO465496  19.102   4.320   5.850
 9559POPC   GL165497  19.094   4.345   6.150
 9559POPC   GL265498  19.212   4.258   6.150
 9559POPC   C1A65499  19.069   4.303   6.450
 9559POPC   D2A65500  19.045   4.268   6.750
 9559POPC   C3A65501  19.064   4.310   7.050
 9559POPC   C4A65502  19.080   4.347   7.350
 9559POPC   C1B65503  19.324   4.244   6.450
 9559POPC   C2B65504  19.309   4.240   6.750
 9559POPC   C3B65505  19.267   4.184   7.050
 9559POPC   C4B65506  19.315   4.183   7.350
 9560POPC   NC365507  12.840   8.228   5.550
 9560POPC   PO465508  12.886   8.186   5.850
 9560POPC   GL165509  12.848   8.208   6.150
 9560POPC   GL265510  12.729   8.103   6.150
 9560POPC   C1A65511  12.885   8.241   6.450
 9560POPC   D2A65512  12.873   8.233   6.750
 9560POPC   C3A65513  12.853   8.224   7.050
 9560POPC   C4A65514  12.881   8.216   7.350
 9560POPC   C1B65515  12.653   7.964   6.450
 9560POPC   C2B65516  12.643   8.023   6.750
 9560POPC   C3B65517  12.665   8.047   7.050
 9560POPC   C4B65518  12.663   7.969   7.350
 9561POPC   NC365519  40.817   9.017   5.550
 9561POPC   PO465520  40.802   8.939   5.850
 9561POPC   GL165521  40.761   8.971   6.150
 9561POPC   GL265522  40.864   8.812   6.150
 9561POPC   C1A65523  40.740   8.954   6.450
 9561POPC   D2A65524  40.805   9.014   6.750
 9561POPC   C3A65525  40.777   9.005   7.050
 9561POPC   C4A65526  40.754   8.994   7.350
 9561POPC   C1B65527  40.860   8.745   6.450
 9561POPC   C2B65528  40.861   8.716   6.750
 9561POPC   C3B65529  40.857   8.747   7.050
 9561POPC   C4B65530  40.902   8.705   7.350
 9562POPC   NC365531  39.280  17.541   5.550
 9562POPC   PO465532  39.244  17.509   5.850
 9562POPC   GL165533  39.223  17.476   6.150
 9562POPC   GL265534  39.332  17.571   6.150
 9562POPC   C1A65535  39.249  17.473   6.450
 9562POPC   D2A65536  39.183  17.529   6.750
 9562POPC   C3A65537  39.200  17.502   7.050
 9562POPC   C4A65538  39.235  17.513   7.350
 9562POPC   C1B65539  39.344  17.746   6.450
 9562POPC   C2B65540  39.411  17.693   6.750
 9562POPC   C3B65541  39.375  17.740   7.050
 9562POPC   C4B65542  39.371  17.677   7.350
 9563POPC   NC365543  42.323  34.567   5.550
 9563POPC   PO465544  42.353  34.590   5.850
 9563POPC   GL165545  42.343  34.586   6.150
 9563POPC   GL265546  42.266  34.743   6.150
 9563POPC   C1A65547  42.384  34.559   6.450
 9563POPC   D2A65548  42.353  34.581   6.750
 9563POPC   C3A65549  42.347  34.565   7.050
 9563POPC   C4A65550  42.317  34.572   7.350
 9563POPC   C1B65551  42.203  34.797   6.450
 9563POPC   C2B65552  42.249  34.828   6.750
 9563POPC   C3B65553  42.237  34.788   7.050
 9563POPC   C4B65554  42.295  34.848   7.350
 9564POPC   NC365555  33.770  37.726   5.550
 9564POPC   PO465556  33.783  37.719   5.850
 9564POPC   GL165557  33.797  37.718   6.150
 9564POPC   GL265558  33.648  37.706   6.150
 9564POPC   C1A65559  33.818  37.715   6.450
 9564POPC   D2A65560  33.782  37.646   6.750
 9564POPC   C3A65561  33.846  37.659   7.050
 9564POPC   C4A65562  33.808  37.707   7.350
 9564POPC   C1B65563  33.536  37.778   6.450
 9564POPC   C2B65564  33.558  37.725   6.750
 9564POPC   C3B65565  33.578  37.779   7.050
 9564POPC   C4B65566  33.528  37.781   7.350
 9565POPC   NC365567  32.247  20.637   5.550
 9565POPC   PO465568  32.253  20.631   5.850
 9565POPC   GL165569  32.276  20.639   6.150
 9565POPC   GL265570  32.197  20.502   6.150
 9565POPC   C1A65571  32.219  20.587   6.450
 9565POPC   D2A65572  32.271  20.645   6.750
 9565POPC   C3A65573  32.260  20.612   7.050
 9565POPC   C4A65574  32.271  20.575   7.350
 9565POPC   C1B65575  32.066  20.404   6.450
 9565POPC   C2B65576  32.142  20.384   6.750
 9565POPC   C3B65577  32.063  20.453   7.050
 9565POPC   C4B65578  32.104  20.375   7.350
 9566POPC   NC365579  42.381   2.795   5.550
 9566POPC   PO465580  42.307   2.764   5.850
 9566POPC   GL165581  42.332   2.813   6.150
 9566POPC   GL265582  42.354   2.593   6.150
 9566POPC   C1A65583  42.376   2.724   6.450
 9566POPC   D2A65584  42.356   2.807   6.750
 9566POPC   C3A65585  42.382   2.803   7.050
 9566POPC   C4A65586  42.356   2.794   7.350
 9566POPC   C1B65587  42.341   2.490   6.450
 9566POPC   C2B65588  42.307   2.510   6.750
 9566POPC   C3B65589  42.376   2.514   7.050
 9566POPC   C4B65590  42.322   2.553   7.350
 9567POPC   NC365591  42.289  40.009   5.550
 9567POPC   PO465592  42.363  40.024   5.850
 9567POPC   GL165593  42.286  39.961   6.150
 9567POPC   GL265594  42.435  40.005   6.150
 9567POPC   C1A65595  42.363  40.055   6.450
 9567POPC   D2A65596  42.329  40.041   6.750
 9567POPC   C3A65597  42.354  40.048   7.050
 9567POPC   C4A65598  42.328  40.034   7.350
 9567POPC   C1B65599  42.604  39.906   6.450
 9567POPC   C2B65600  42.607  39.943   6.750
 9567POPC   C3B65601  42.563  39.960   7.050
 9567POPC   C4B65602  42.577  39.950   7.350
 9568POPC   NC365603  27.636   0.406   5.550
 9568POPC   PO465604  27.546   0.407   5.850
 9568POPC   GL165605  27.625   0.485   6.150
 9568POPC   GL265606  27.719   0.528   6.150
 9568POPC   C1A65607  27.575   0.463   6.450
 9568POPC   D2A65608  27.581   0.479   6.750
 9568POPC   C3A65609  27.591   0.423   7.050
 9568POPC   C4A65610  27.602   0.455   7.350
 9568POPC   C1B65611  27.785   0.668   6.450
 9568POPC   C2B65612  27.774   0.676   6.750
 9568POPC   C3B65613  27.705   0.638   7.050
 9568POPC   C4B65614  27.770   0.594   7.350
 9569POPC   NC365615  18.323   0.446   5.550
 9569POPC   PO465616  18.294   0.396   5.850
 9569POPC   GL165617  18.297   0.474   6.150
 9569POPC   GL265618  18.254   0.564   6.150
 9569POPC   C1A65619  18.314   0.404   6.450
 9569POPC   D2A65620  18.289   0.403   6.750
 9569POPC   C3A65621  18.296   0.426   7.050
 9569POPC   C4A65622  18.326   0.400   7.350
 9569POPC   C1B65623  18.136   0.692   6.450
 9569POPC   C2B65624  18.148   0.666   6.750
 9569POPC   C3B65625  18.110   0.601   7.050
 9569POPC   C4B65626  18.170   0.608   7.350
 9570POPC   NC365627  32.996  29.900   5.550
 9570POPC   PO465628  32.985  29.900   5.850
 9570POPC   GL165629  33.023  29.936   6.150
 9570POPC   GL265630  33.054  30.066   6.150
 9570POPC   C1A65631  33.033  29.900   6.450
 9570POPC   D2A65632  33.073  29.953   6.750
 9570POPC   C3A65633  32.988  29.925   7.050
 9570POPC   C4A65634  33.024  29.885   7.350
 9570POPC   C1B65635  33.176  30.190   6.450
 9570POPC   C2B65636  33.162  30.156   6.750
 9570POPC   C3B65637  33.108  30.186   7.050
 9570POPC   C4B65638  33.148  30.157   7.350
 9571POPC   NC365639  42.293  43.104   5.550
 9571POPC   PO465640  42.332  43.069   5.850
 9571POPC   GL165641  42.304  43.104   6.150
 9571POPC   GL265642  42.451  43.194   6.150
 9571POPC   C1A65643  42.361  43.081   6.450
 9571POPC   D2A65644  42.327  43.131   6.750
 9571POPC   C3A65645  42.346  43.077   7.050
 9571POPC   C4A65646  42.357  43.066   7.350
 9571POPC   C1B65647  42.523  43.229   6.450
 9571POPC   C2B65648  42.570  43.215   6.750
 9571POPC   C3B65649  42.583  43.283   7.050
 9571POPC   C4B65650  42.526  43.278   7.350
 9572POPC   NC365651  24.501  24.520   5.550
 9572POPC   PO465652  24.491  24.501   5.850
 9572POPC   GL165653  24.441  24.441   6.150
 9572POPC   GL265654  24.473  24.558   6.150
 9572POPC   C1A65655  24.440  24.525   6.450
 9572POPC   D2A65656  24.453  24.457   6.750
 9572POPC   C3A65657  24.513  24.476   7.050
 9572POPC   C4A65658  24.472  24.514   7.350
 9572POPC   C1B65659  24.403  24.722   6.450
 9572POPC   C2B65660  24.401  24.710   6.750
 9572POPC   C3B65661  24.309  24.657   7.050
 9572POPC   C4B65662  24.398  24.716   7.350
 9573POPC   NC365663  19.834  12.830   5.550
 9573POPC   PO465664  19.874  12.828   5.850
 9573POPC   GL165665  19.838  12.877   6.150
 9573POPC   GL265666  19.811  12.973   6.150
 9573POPC   C1A65667  19.877  12.887   6.450
 9573POPC   D2A65668  19.847  12.883   6.750
 9573POPC   C3A65669  19.847  12.844   7.050
 9573POPC   C4A65670  19.838  12.815   7.350
 9573POPC   C1B65671  19.749  13.108   6.450
 9573POPC   C2B65672  19.798  13.070   6.750
 9573POPC   C3B65673  19.781  13.143   7.050
 9573POPC   C4B65674  19.770  13.081   7.350
 9574POPC   NC365675  38.447  32.229   5.550
 9574POPC   PO465676  38.431  32.218   5.850
 9574POPC   GL165677  38.431  32.258   6.150
 9574POPC   GL265678  38.595  32.180   6.150
 9574POPC   C1A65679  38.503  32.215   6.450
 9574POPC   D2A65680  38.453  32.295   6.750
 9574POPC   C3A65681  38.426  32.205   7.050
 9574POPC   C4A65682  38.483  32.281   7.350
 9574POPC   C1B65683  38.677  32.145   6.450
 9574POPC   C2B65684  38.646  32.130   6.750
 9574POPC   C3B65685  38.701  32.146   7.050
 9574POPC   C4B65686  38.665  32.202   7.350
 9575POPC   NC365687  24.497  33.822   5.550
 9575POPC   PO465688  24.491  33.840   5.850
 9575POPC   GL165689  24.456  33.762   6.150
 9575POPC   GL265690  24.363  33.727   6.150
 9575POPC   C1A65691  24.482  33.822   6.450
 9575POPC   D2A65692  24.450  33.751   6.750
 9575POPC   C3A65693  24.456  33.836   7.050
 9575POPC   C4A65694  24.518  33.756   7.350
 9575POPC   C1B65695  24.248  33.693   6.450
 9575POPC   C2B65696  24.270  33.637   6.750
 9575POPC   C3B65697  24.255  33.715   7.050
 9575POPC   C4B65698  24.306  33.625   7.350
 9576POPC   NC365699   8.214  26.059   5.550
 9576POPC   PO465700   8.165  26.056   5.850
 9576POPC   GL165701   8.243  26.035   6.150
 9576POPC   GL265702   8.301  26.038   6.150
 9576POPC   C1A65703   8.217  26.061   6.450
 9576POPC   D2A65704   8.163  26.016   6.750
 9576POPC   C3A65705   8.164  26.031   7.050
 9576POPC   C4A65706   8.204  25.999   7.350
 9576POPC   C1B65707   8.439  26.055   6.450
 9576POPC   C2B65708   8.428  26.072   6.750
 9576POPC   C3B65709   8.424  26.128   7.050
 9576POPC   C4B65710   8.394  26.119   7.350
 9577POPC   NC365711  43.074  26.818   5.550
 9577POPC   PO465712  43.085  26.775   5.850
 9577POPC   GL165713  43.088  26.789   6.150
 9577POPC   GL265714  43.226  26.860   6.150
 9577POPC   C1A65715  43.097  26.822   6.450
 9577POPC   D2A65716  43.086  26.814   6.750
 9577POPC   C3A65717  43.140  26.834   7.050
 9577POPC   C4A65718  43.151  26.780   7.350
 9577POPC   C1B65719  43.333  26.786   6.450
 9577POPC   C2B65720  43.321  26.810   6.750
 9577POPC   C3B65721  43.337  26.782   7.050
 9577POPC   C4B65722  43.364  26.820   7.350
 9578POPC   NC365723  43.119  10.481   5.550
 9578POPC   PO465724  43.084  10.496   5.850
 9578POPC   GL165725  43.092  10.540   6.150
 9578POPC   GL265726  43.112  10.609   6.150
 9578POPC   C1A65727  43.061  10.563   6.450
 9578POPC   D2A65728  43.061  10.573   6.750
 9578POPC   C3A65729  43.115  10.534   7.050
 9578POPC   C4A65730  43.150  10.527   7.350
 9578POPC   C1B65731  43.119  10.731   6.450
 9578POPC   C2B65732  43.083  10.779   6.750
 9578POPC   C3B65733  43.158  10.759   7.050
 9578POPC   C4B65734  43.132  10.810   7.350
 9579POPC   NC365735   6.677  38.444   5.550
 9579POPC   PO465736   6.689  38.478   5.850
 9579POPC   GL165737   6.627  38.499   6.150
 9579POPC   GL265738   6.553  38.364   6.150
 9579POPC   C1A65739   6.616  38.497   6.450
 9579POPC   D2A65740   6.673  38.500   6.750
 9579POPC   C3A65741   6.638  38.429   7.050
 9579POPC   C4A65742   6.635  38.477   7.350
 9579POPC   C1B65743   6.522  38.187   6.450
 9579POPC   C2B65744   6.563  38.226   6.750
 9579POPC   C3B65745   6.571  38.183   7.050
 9579POPC   C4B65746   6.572  38.243   7.350
 9580POPC   NC365747   9.751   7.375   5.550
 9580POPC   PO465748   9.732   7.394   5.850
 9580POPC   GL165749   9.705   7.413   6.150
 9580POPC   GL265750   9.895   7.369   6.150
 9580POPC   C1A65751   9.718   7.441   6.450
 9580POPC   D2A65752   9.706   7.406   6.750
 9580POPC   C3A65753   9.770   7.438   7.050
 9580POPC   C4A65754   9.775   7.448   7.350
 9580POPC   C1B65755   9.953   7.295   6.450
 9580POPC   C2B65756  10.030   7.342   6.750
 9580POPC   C3B65757  10.022   7.354   7.050
 9580POPC   C4B65758   9.944   7.295   7.350
 9581POPC   NC365759  33.070   3.569   5.550
 9581POPC   PO465760  33.042   3.583   5.850
 9581POPC   GL165761  33.060   3.500   6.150
 9581POPC   GL265762  33.152   3.597   6.150
 9581POPC   C1A65763  33.041   3.550   6.450
 9581POPC   D2A65764  33.049   3.508   6.750
 9581POPC   C3A65765  33.060   3.580   7.050
 9581POPC   C4A65766  33.039   3.525   7.350
 9581POPC   C1B65767  33.261   3.624   6.450
 9581POPC   C2B65768  33.232   3.623   6.750
 9581POPC   C3B65769  33.273   3.585   7.050
 9581POPC   C4B65770  33.265   3.585   7.350
 9582POPC   NC365771  16.758  19.089   5.550
 9582POPC   PO465772  16.707  19.047   5.850
 9582POPC   GL165773  16.772  19.086   6.150
 9582POPC   GL265774  16.654  19.030   6.150
 9582POPC   C1A65775  16.744  19.035   6.450
 9582POPC   D2A65776  16.778  19.064   6.750
 9582POPC   C3A65777  16.688  19.062   7.050
 9582POPC   C4A65778  16.715  19.101   7.350
 9582POPC   C1B65779  16.530  18.946   6.450
 9582POPC   C2B65780  16.502  18.993   6.750
 9582POPC   C3B65781  16.482  18.956   7.050
 9582POPC   C4B65782  16.469  19.008   7.350
 9583POPC   NC365783  21.397  32.298   5.550
 9583POPC   PO465784  21.390  32.244   5.850
 9583POPC   GL165785  21.410  32.287   6.150
 9583POPC   GL265786  21.290  32.312   6.150
 9583POPC   C1A65787  21.430  32.281   6.450
 9583POPC   D2A65788  21.421  32.238   6.750
 9583POPC   C3A65789  21.409  32.255   7.050
 9583POPC   C4A65790  21.429  32.296   7.350
 9583POPC   C1B65791  21.169  32.248   6.450
 9583POPC   C2B65792  21.118  32.247   6.750
 9583POPC   C3B65793  21.121  32.292   7.050
 9583POPC   C4B65794  21.111  32.276   7.350
 9584POPC   NC365795  44.685  10.532   5.550
 9584POPC   PO465796  44.681  10.530   5.850
 9584POPC   GL165797  44.620  10.524   6.150
 9584POPC   GL265798  44.544  10.581   6.150
 9584POPC   C1A65799  44.636  10.508   6.450
 9584POPC   D2A65800  44.651  10.508   6.750
 9584POPC   C3A65801  44.618  10.514   7.050
 9584POPC   C4A65802  44.694  10.535   7.350
 9584POPC   C1B65803  44.423  10.621   6.450
 9584POPC   C2B65804  44.456  10.632   6.750
 9584POPC   C3B65805  44.442  10.622   7.050
 9584POPC   C4B65806  44.400  10.604   7.350
 9585POPC   NC365807  35.340  38.455   5.550
 9585POPC   PO465808  35.311  38.439   5.850
 9585POPC   GL165809  35.378  38.450   6.150
 9585POPC   GL265810  35.303  38.386   6.150
 9585POPC   C1A65811  35.333  38.421   6.450
 9585POPC   D2A65812  35.378  38.424   6.750
 9585POPC   C3A65813  35.335  38.454   7.050
 9585POPC   C4A65814  35.382  38.485   7.350
 9585POPC   C1B65815  35.225  38.284   6.450
 9585POPC   C2B65816  35.243  38.254   6.750
 9585POPC   C3B65817  35.166  38.273   7.050
 9585POPC   C4B65818  35.222  38.258   7.350
 9586POPC   NC365819   2.804  38.422   5.550
 9586POPC   PO465820   2.739  38.456   5.850
 9586POPC   GL165821   2.738  38.464   6.150
 9586POPC   GL265822   2.767  38.546   6.150
 9586POPC   C1A65823   2.759  38.485   6.450
 9586POPC   D2A65824   2.811  38.475   6.750
 9586POPC   C3A65825   2.718  38.482   7.050
 9586POPC   C4A65826   2.731  38.474   7.350
 9586POPC   C1B65827   2.857  38.721   6.450
 9586POPC   C2B65828   2.908  38.713   6.750
 9586POPC   C3B65829   2.832  38.677   7.050
 9586POPC   C4B65830   2.902  38.655   7.350
 9587POPC   NC365831   6.682   3.590   5.550
 9587POPC   PO465832   6.636   3.555   5.850
 9587POPC   GL165833   6.604   3.577   6.150
 9587POPC   GL265834   6.553   3.521   6.150
 9587POPC   C1A65835   6.659   3.537   6.450
 9587POPC   D2A65836   6.686   3.578   6.750
 9587POPC   C3A65837   6.653   3.503   7.050
 9587POPC   C4A65838   6.606   3.528   7.350
 9587POPC   C1B65839   6.410   3.517   6.450
 9587POPC   C2B65840   6.427   3.444   6.750
 9587POPC   C3B65841   6.431   3.486   7.050
 9587POPC   C4B65842   6.417   3.431   7.350
 9588POPC   NC365843  37.657  26.065   5.550
 9588POPC   PO465844  37.692  26.021   5.850
 9588POPC   GL165845  37.638  26.042   6.150
 9588POPC   GL265846  37.672  25.891   6.150
 9588POPC   C1A65847  37.698  26.076   6.450
 9588POPC   D2A65848  37.661  26.029   6.750
 9588POPC   C3A65849  37.661  26.044   7.050
 9588POPC   C4A65850  37.694  26.025   7.350
 9588POPC   C1B65851  37.553  25.856   6.450
 9588POPC   C2B65852  37.607  25.797   6.750
 9588POPC   C3B65853  37.557  25.774   7.050
 9588POPC   C4B65854  37.524  25.765   7.350
 9589POPC   NC365855   0.447  44.671   5.550
 9589POPC   PO465856   0.398  44.652   5.850
 9589POPC   GL165857   0.474  44.634   6.150
 9589POPC   GL265858   0.419  44.581   6.150
 9589POPC   C1A65859   0.433  44.644   6.450
 9589POPC   D2A65860   0.459  44.704   6.750
 9589POPC   C3A65861   0.453  44.695   7.050
 9589POPC   C4A65862   0.448  44.643   7.350
 9589POPC   C1B65863   0.361  44.465   6.450
 9589POPC   C2B65864   0.355  44.403   6.750
 9589POPC   C3B65865   0.408  44.449   7.050
 9589POPC   C4B65866   0.424  44.376   7.350
 9590POPC   NC365867  33.020  29.116   5.550
 9590POPC   PO465868  33.053  29.098   5.850
 9590POPC   GL165869  32.989  29.173   6.150
 9590POPC   GL265870  32.925  29.192   6.150
 9590POPC   C1A65871  33.018  29.110   6.450
 9590POPC   D2A65872  33.034  29.166   6.750
 9590POPC   C3A65873  32.977  29.189   7.050
 9590POPC   C4A65874  33.018  29.107   7.350
 9590POPC   C1B65875  32.799  29.174   6.450
 9590POPC   C2B65876  32.774  29.192   6.750
 9590POPC   C3B65877  32.761  29.194   7.050
 9590POPC   C4B65878  32.829  29.222   7.350
 9591POPC   NC365879  26.818  17.502   5.550
 9591POPC   PO465880  26.865  17.524   5.850
 9591POPC   GL165881  26.808  17.487   6.150
 9591POPC   GL265882  26.743  17.467   6.150
 9591POPC   C1A65883  26.828  17.514   6.450
 9591POPC   D2A65884  26.775  17.517   6.750
 9591POPC   C3A65885  26.847  17.468   7.050
 9591POPC   C4A65886  26.804  17.544   7.350
 9591POPC   C1B65887  26.601  17.410   6.450
 9591POPC   C2B65888  26.584  17.386   6.750
 9591POPC   C3B65889  26.538  17.395   7.050
 9591POPC   C4B65890  26.593  17.467   7.350
 9592POPC   NC365891   9.008  43.128   5.550
 9592POPC   PO465892   8.944  43.067   5.850
 9592POPC   GL165893   9.000  43.082   6.150
 9592POPC   GL265894   8.983  43.028   6.150
 9592POPC   C1A65895   8.996  43.136   6.450
 9592POPC   D2A65896   8.998  43.086   6.750
 9592POPC   C3A65897   8.939  43.118   7.050
 9592POPC   C4A65898   8.970  43.154   7.350
 9592POPC   C1B65899   9.039  42.830   6.450
 9592POPC   C2B65900   9.037  42.905   6.750
 9592POPC   C3B65901   9.032  42.923   7.050
 9592POPC   C4B65902   9.049  42.880   7.350
 9593POPC   NC365903  43.149  42.333   5.550
 9593POPC   PO465904  43.117  42.354   5.850
 9593POPC   GL165905  43.144  42.306   6.150
 9593POPC   GL265906  43.054  42.229   6.150
 9593POPC   C1A65907  43.070  42.314   6.450
 9593POPC   D2A65908  43.136  42.381   6.750
 9593POPC   C3A65909  43.129  42.362   7.050
 9593POPC   C4A65910  43.093  42.337   7.350
 9593POPC   C1B65911  42.932  42.223   6.450
 9593POPC   C2B65912  42.932  42.204   6.750
 9593POPC   C3B65913  42.922  42.150   7.050
 9593POPC   C4B65914  42.870  42.178   7.350
 9594POPC   NC365915  35.351  20.584   5.550
 9594POPC   PO465916  35.382  20.610   5.850
 9594POPC   GL165917  35.383  20.646   6.150
 9594POPC   GL265918  35.254  20.584   6.150
 9594POPC   C1A65919  35.383  20.652   6.450
 9594POPC   D2A65920  35.322  20.644   6.750
 9594POPC   C3A65921  35.324  20.582   7.050
 9594POPC   C4A65922  35.305  20.649   7.350
 9594POPC   C1B65923  35.106  20.613   6.450
 9594POPC   C2B65924  35.078  20.621   6.750
 9594POPC   C3B65925  35.111  20.647   7.050
 9594POPC   C4B65926  35.070  20.610   7.350
 9595POPC   NC365927  20.623  17.521   5.550
 9595POPC   PO465928  20.591  17.475   5.850
 9595POPC   GL165929  20.641  17.549   6.150
 9595POPC   GL265930  20.557  17.601   6.150
 9595POPC   C1A65931  20.659  17.532   6.450
 9595POPC   D2A65932  20.579  17.525   6.750
 9595POPC   C3A65933  20.634  17.503   7.050
 9595POPC   C4A65934  20.611  17.479   7.350
 9595POPC   C1B65935  20.551  17.758   6.450
 9595POPC   C2B65936  20.467  17.754   6.750
 9595POPC   C3B65937  20.529  17.689   7.050
 9595POPC   C4B65938  20.498  17.722   7.350
 9596POPC   NC365939  35.331  36.094   5.550
 9596POPC   PO465940  35.364  36.112   5.850
 9596POPC   GL165941  35.323  36.174   6.150
 9596POPC   GL265942  35.503  36.130   6.150
 9596POPC   C1A65943  35.358  36.117   6.450
 9596POPC   D2A65944  35.319  36.127   6.750
 9596POPC   C3A65945  35.339  36.152   7.050
 9596POPC   C4A65946  35.356  36.093   7.350
 9596POPC   C1B65947  35.638  36.231   6.450
 9596POPC   C2B65948  35.604  36.147   6.750
 9596POPC   C3B65949  35.549  36.143   7.050
 9596POPC   C4B65950  35.545  36.155   7.350
 9597POPC   NC365951  22.209  41.551   5.550
 9597POPC   PO465952  22.149  41.546   5.850
 9597POPC   GL165953  22.142  41.510   6.150
 9597POPC   GL265954  22.241  41.478   6.150
 9597POPC   C1A65955  22.208  41.593   6.450
 9597POPC   D2A65956  22.181  41.524   6.750
 9597POPC   C3A65957  22.129  41.561   7.050
 9597POPC   C4A65958  22.204  41.597   7.350
 9597POPC   C1B65959  22.332  41.361   6.450
 9597POPC   C2B65960  22.252  41.375   6.750
 9597POPC   C3B65961  22.326  41.350   7.050
 9597POPC   C4B65962  22.260  41.333   7.350
 9598POPC   NC365963  23.680  36.906   5.550
 9598POPC   PO465964  23.713  36.941   5.850
 9598POPC   GL165965  23.717  36.900   6.150
 9598POPC   GL265966  23.797  36.953   6.150
 9598POPC   C1A65967  23.741  36.937   6.450
 9598POPC   D2A65968  23.691  36.880   6.750
 9598POPC   C3A65969  23.693  36.905   7.050
 9598POPC   C4A65970  23.707  36.938   7.350
 9598POPC   C1B65971  23.910  37.034   6.450
 9598POPC   C2B65972  23.890  37.020   6.750
 9598POPC   C3B65973  23.962  36.994   7.050
 9598POPC   C4B65974  23.889  37.014   7.350
 9599POPC   NC365975  29.961  11.283   5.550
 9599POPC   PO465976  29.899  11.329   5.850
 9599POPC   GL165977  29.932  11.325   6.150
 9599POPC   GL265978  29.812  11.266   6.150
 9599POPC   C1A65979  29.965  11.273   6.450
 9599POPC   D2A65980  29.899  11.348   6.750
 9599POPC   C3A65981  29.960  11.297   7.050
 9599POPC   C4A65982  29.886  11.293   7.350
 9599POPC   C1B65983  29.721  11.178   6.450
 9599POPC   C2B65984  29.731  11.173   6.750
 9599POPC   C3B65985  29.733  11.158   7.050
 9599POPC   C4B65986  29.736  11.180   7.350
 9600POPC   NC365987  12.842   8.985   5.550
 9600POPC   PO465988  12.825   9.015   5.850
 9600POPC   GL165989  12.807   8.993   6.150
 9600POPC   GL265990  12.747   8.975   6.150
 9600POPC   C1A65991  12.865   8.954   6.450
 9600POPC   D2A65992  12.809   8.961   6.750
 9600POPC   C3A65993  12.815   8.983   7.050
 9600POPC   C4A65994  12.894   8.965   7.350
 9600POPC   C1B65995  12.621   8.938   6.450
 9600POPC   C2B65996  12.621   8.946   6.750
 9600POPC   C3B65997  12.595   8.965   7.050
 9600POPC   C4B65998  12.632   8.949   7.350
 9601POPC   NC365999  38.501  18.270   5.550
 9601POPC   PO466000  38.465  18.259   5.850
 9601POPC   GL166001  38.435  18.274   6.150
 9601POPC   GL266002  38.477  18.176   6.150
 9601POPC   C1A66003  38.430  18.268   6.450
 9601POPC   D2A66004  38.480  18.242   6.750
 9601POPC   C3A66005  38.494  18.328   7.050
 9601POPC   C4A66006  38.495  18.240   7.350
 9601POPC   C1B66007  38.416  18.000   6.450
 9601POPC   C2B66008  38.469  18.054   6.750
 9601POPC   C3B66009  38.425  18.019   7.050
 9601POPC   C4B66010  38.457  18.005   7.350
 9602POPC   NC366011  36.903  37.704   5.550
 9602POPC   PO466012  36.854  37.674   5.850
 9602POPC   GL166013  36.911  37.680   6.150
 9602POPC   GL266014  36.822  37.658   6.150
 9602POPC   C1A66015  36.891  37.670   6.450
 9602POPC   D2A66016  36.896  37.656   6.750
 9602POPC   C3A66017  36.929  37.703   7.050
 9602POPC   C4A66018  36.921  37.718   7.350
 9602POPC   C1B66019  36.613  37.690   6.450
 9602POPC   C2B66020  36.681  37.664   6.750
 9602POPC   C3B66021  36.632  37.669   7.050
 9602POPC   C4B66022  36.697  37.639   7.350
 9603POPC   NC366023   5.132  29.180   5.550
 9603POPC   PO466024   5.059  29.126   5.850
 9603POPC   GL166025   5.106  29.116   6.150
 9603POPC   GL266026   4.947  29.031   6.150
 9603POPC   C1A66027   5.062  29.153   6.450
 9603POPC   D2A66028   5.133  29.132   6.750
 9603POPC   C3A66029   5.131  29.181   7.050
 9603POPC   C4A66030   5.059  29.145   7.350
 9603POPC   C1B66031   4.940  29.022   6.450
 9603POPC   C2B66032   4.880  28.951   6.750
 9603POPC   C3B66033   4.850  28.972   7.050
 9603POPC   C4B66034   4.904  29.022   7.350
 9604POPC   NC366035  43.145   8.981   5.550
 9604POPC   PO466036  43.081   9.006   5.850
 9604POPC   GL166037  43.115   8.984   6.150
 9604POPC   GL266038  43.140   8.851   6.150
 9604POPC   C1A66039  43.066   8.999   6.450
 9604POPC   D2A66040  43.112   8.973   6.750
 9604POPC   C3A66041  43.156   8.930   7.050
 9604POPC   C4A66042  43.071   8.943   7.350
 9604POPC   C1B66043  43.197   8.740   6.450
 9604POPC   C2B66044  43.235   8.717   6.750
 9604POPC   C3B66045  43.243   8.769   7.050
 9604POPC   C4B66046  43.238   8.773   7.350
 9605POPC   NC366047  38.502  15.997   5.550
 9605POPC   PO466048  38.481  15.912   5.850
 9605POPC   GL166049  38.465  15.996   6.150
 9605POPC   GL266050  38.407  15.814   6.150
 9605POPC   C1A66051  38.448  15.913   6.450
 9605POPC   D2A66052  38.409  15.962   6.750
 9605POPC   C3A66053  38.424  15.959   7.050
 9605POPC   C4A66054  38.422  16.001   7.350
 9605POPC   C1B66055  38.435  15.723   6.450
 9605POPC   C2B66056  38.471  15.739   6.750
 9605POPC   C3B66057  38.442  15.725   7.050
 9605POPC   C4B66058  38.444  15.693   7.350
 9606POPC   NC366059   7.378  39.979   5.550
 9606POPC   PO466060   7.464  40.035   5.850
 9606POPC   GL166061   7.406  40.014   6.150
 9606POPC   GL266062   7.518  40.095   6.150
 9606POPC   C1A66063   7.454  39.995   6.450
 9606POPC   D2A66064   7.449  40.030   6.750
 9606POPC   C3A66065   7.378  40.030   7.050
 9606POPC   C4A66066   7.371  40.054   7.350
 9606POPC   C1B66067   7.635  40.146   6.450
 9606POPC   C2B66068   7.651  40.117   6.750
 9606POPC   C3B66069   7.623  40.150   7.050
 9606POPC   C4B66070   7.611  40.119   7.350
 9607POPC   NC366071  29.911  14.431   5.550
 9607POPC   PO466072  29.897  14.406   5.850
 9607POPC   GL166073  29.913  14.411   6.150
 9607POPC   GL266074  29.754  14.438   6.150
 9607POPC   C1A66075  29.946  14.370   6.450
 9607POPC   D2A66076  29.952  14.400   6.750
 9607POPC   C3A66077  29.877  14.358   7.050
 9607POPC   C4A66078  29.874  14.410   7.350
 9607POPC   C1B66079  29.715  14.423   6.450
 9607POPC   C2B66080  29.674  14.386   6.750
 9607POPC   C3B66081  29.708  14.447   7.050
 9607POPC   C4B66082  29.704  14.447   7.350
 9608POPC   NC366083  20.560  25.246   5.550
 9608POPC   PO466084  20.594  25.234   5.850
 9608POPC   GL166085  20.642  25.312   6.150
 9608POPC   GL266086  20.543  25.393   6.150
 9608POPC   C1A66087  20.582  25.221   6.450
 9608POPC   D2A66088  20.625  25.234   6.750
 9608POPC   C3A66089  20.581  25.249   7.050
 9608POPC   C4A66090  20.619  25.232   7.350
 9608POPC   C1B66091  20.513  25.500   6.450
 9608POPC   C2B66092  20.540  25.484   6.750
 9608POPC   C3B66093  20.458  25.498   7.050
 9608POPC   C4B66094  20.508  25.438   7.350
 9609POPC   NC366095  39.219  32.273   5.550
 9609POPC   PO466096  39.270  32.233   5.850
 9609POPC   GL166097  39.274  32.248   6.150
 9609POPC   GL266098  39.312  32.251   6.150
 9609POPC   C1A66099  39.196  32.278   6.450
 9609POPC   D2A66100  39.250  32.206   6.750
 9609POPC   C3A66101  39.217  32.265   7.050
 9609POPC   C4A66102  39.278  32.218   7.350
 9609POPC   C1B66103  39.465  32.134   6.450
 9609POPC   C2B66104  39.444  32.168   6.750
 9609POPC   C3B66105  39.448  32.199   7.050
 9609POPC   C4B66106  39.451  32.156   7.350
 9610POPC   NC366107  32.269  40.783   5.550
 9610POPC   PO466108  32.211  40.806   5.850
 9610POPC   GL166109  32.250  40.778   6.150
 9610POPC   GL266110  32.331  40.828   6.150
 9610POPC   C1A66111  32.230  40.801   6.450
 9610POPC   D2A66112  32.282  40.798   6.750
 9610POPC   C3A66113  32.248  40.786   7.050
 9610POPC   C4A66114  32.231  40.740   7.350
 9610POPC   C1B66115  32.445  40.822   6.450
 9610POPC   C2B66116  32.506  40.860   6.750
 9610POPC   C3B66117  32.454  40.887   7.050
 9610POPC   C4B66118  32.467  40.877   7.350
 9611POPC   NC366119  32.219  39.185   5.550
 9611POPC   PO466120  32.292  39.230   5.850
 9611POPC   GL166121  32.263  39.204   6.150
 9611POPC   GL266122  32.160  39.322   6.150
 9611POPC   C1A66123  32.221  39.201   6.450
 9611POPC   D2A66124  32.274  39.231   6.750
 9611POPC   C3A66125  32.270  39.196   7.050
 9611POPC   C4A66126  32.247  39.224   7.350
 9611POPC   C1B66127  32.047  39.406   6.450
 9611POPC   C2B66128  32.056  39.451   6.750
 9611POPC   C3B66129  32.084  39.420   7.050
 9611POPC   C4B66130  32.042  39.402   7.350
 9612POPC   NC366131  19.842  18.327   5.550
 9612POPC   PO466132  19.857  18.235   5.850
 9612POPC   GL166133  19.842  18.323   6.150
 9612POPC   GL266134  19.905  18.412   6.150
 9612POPC   C1A66135  19.828  18.311   6.450
 9612POPC   D2A66136  19.878  18.259   6.750
 9612POPC   C3A66137  19.868  18.330   7.050
 9612POPC   C4A66138  19.859  18.233   7.350
 9612POPC   C1B66139  19.916  18.553   6.450
 9612POPC   C2B66140  19.971  18.509   6.750
 9612POPC   C3B66141  19.979  18.466   7.050
 9612POPC   C4B66142  19.965  18.477   7.350
 9613POPC   NC366143  36.901  30.674   5.550
 9613POPC   PO466144  36.888  30.729   5.850
 9613POPC   GL166145  36.910  30.670   6.150
 9613POPC   GL266146  36.909  30.809   6.150
 9613POPC   C1A66147  36.873  30.713   6.450
 9613POPC   D2A66148  36.922  30.664   6.750
 9613POPC   C3A66149  36.876  30.674   7.050
 9613POPC   C4A66150  36.881  30.720   7.350
 9613POPC   C1B66151  36.816  30.901   6.450
 9613POPC   C2B66152  36.832  30.968   6.750
 9613POPC   C3B66153  36.846  30.905   7.050
 9613POPC   C4B66154  36.858  30.949   7.350
 9614POPC   NC366155  13.643  39.270   5.550
 9614POPC   PO466156  13.668  39.279   5.850
 9614POPC   GL166157  13.671  39.203   6.150
 9614POPC   GL266158  13.723  39.204   6.150
 9614POPC   C1A66159  13.598  39.252   6.450
 9614POPC   D2A66160  13.628  39.241   6.750
 9614POPC   C3A66161  13.643  39.186   7.050
 9614POPC   C4A66162  13.629  39.250   7.350
 9614POPC   C1B66163  13.903  39.252   6.450
 9614POPC   C2B66164  13.882  39.222   6.750
 9614POPC   C3B66165  13.885  39.211   7.050
 9614POPC   C4B66166  13.829  39.174   7.350
 9615POPC   NC366167   5.069  14.451   5.550
 9615POPC   PO466168   5.114  14.445   5.850
 9615POPC   GL166169   5.046  14.390   6.150
 9615POPC   GL266170   5.051  14.499   6.150
 9615POPC   C1A66171   5.059  14.364   6.450
 9615POPC   D2A66172   5.111  14.418   6.750
 9615POPC   C3A66173   5.117  14.394   7.050
 9615POPC   C4A66174   5.064  14.359   7.350
 9615POPC   C1B66175   4.998  14.632   6.450
 9615POPC   C2B66176   4.985  14.681   6.750
 9615POPC   C3B66177   5.078  14.669   7.050
 9615POPC   C4B66178   5.033  14.690   7.350
 9616POPC   NC366179  39.237  10.506   5.550
 9616POPC   PO466180  39.217  10.546   5.850
 9616POPC   GL166181  39.244  10.565   6.150
 9616POPC   GL266182  39.164  10.409   6.150
 9616POPC   C1A66183  39.189  10.542   6.450
 9616POPC   D2A66184  39.228  10.524   6.750
 9616POPC   C3A66185  39.264  10.483   7.050
 9616POPC   C4A66186  39.277  10.520   7.350
 9616POPC   C1B66187  39.199  10.253   6.450
 9616POPC   C2B66188  39.191  10.307   6.750
 9616POPC   C3B66189  39.117  10.321   7.050
 9616POPC   C4B66190  39.190  10.239   7.350
 9617POPC   NC366191   6.613  34.541   5.550
 9617POPC   PO466192   6.660  34.597   5.850
 9617POPC   GL166193   6.621  34.576   6.150
 9617POPC   GL266194   6.573  34.471   6.150
 9617POPC   C1A66195   6.661  34.607   6.450
 9617POPC   D2A66196   6.683  34.624   6.750
 9617POPC   C3A66197   6.616  34.588   7.050
 9617POPC   C4A66198   6.613  34.614   7.350
 9617POPC   C1B66199   6.498  34.325   6.450
 9617POPC   C2B66200   6.576  34.363   6.750
 9617POPC   C3B66201   6.556  34.366   7.050
 9617POPC   C4B66202   6.568  34.362   7.350
 9618POPC   NC366203  28.354  27.625   5.550
 9618POPC   PO466204  28.402  27.620   5.850
 9618POPC   GL166205  28.411  27.591   6.150
 9618POPC   GL266206  28.458  27.565   6.150
 9618POPC   C1A66207  28.349  27.584   6.450
 9618POPC   D2A66208  28.350  27.631   6.750
 9618POPC   C3A66209  28.404  27.548   7.050
 9618POPC   C4A66210  28.331  27.546   7.350
 9618POPC   C1B66211  28.613  27.443   6.450
 9618POPC   C2B66212  28.580  27.468   6.750
 9618POPC   C3B66213  28.619  27.466   7.050
 9618POPC   C4B66214  28.607  27.464   7.350
 9619POPC   NC366215  22.128   5.868   5.550
 9619POPC   PO466216  22.168   5.891   5.850
 9619POPC   GL166217  22.132   5.897   6.150
 9619POPC   GL266218  22.223   5.814   6.150
 9619POPC   C1A66219  22.188   5.899   6.450
 9619POPC   D2A66220  22.140   5.865   6.750
 9619POPC   C3A66221  22.157   5.903   7.050
 9619POPC   C4A66222  22.191   5.839   7.350
 9619POPC   C1B66223  22.347   5.661   6.450
 9619POPC   C2B66224  22.341   5.677   6.750
 9619POPC   C3B66225  22.326   5.724   7.050
 9619POPC   C4B66226  22.368   5.683   7.350
 9620POPC   NC366227  16.761  38.428   5.550
 9620POPC   PO466228  16.728  38.473   5.850
 9620POPC   GL166229  16.765  38.454   6.150
 9620POPC   GL266230  16.671  38.577   6.150
 9620POPC   C1A66231  16.684  38.457   6.450
 9620POPC   D2A66232  16.738  38.450   6.750
 9620POPC   C3A66233  16.757  38.418   7.050
 9620POPC   C4A66234  16.770  38.439   7.350
 9620POPC   C1B66235  16.743  38.678   6.450
 9620POPC   C2B66236  16.726  38.728   6.750
 9620POPC   C3B66237  16.676  38.704   7.050
 9620POPC   C4B66238  16.753  38.727   7.350
 9621POPC   NC366239  42.340  21.376   5.550
 9621POPC   PO466240  42.293  21.341   5.850
 9621POPC   GL166241  42.353  21.396   6.150
 9621POPC   GL266242  42.263  21.473   6.150
 9621POPC   C1A66243  42.379  21.421   6.450
 9621POPC   D2A66244  42.349  21.410   6.750
 9621POPC   C3A66245  42.315  21.343   7.050
 9621POPC   C4A66246  42.382  21.340   7.350
 9621POPC   C1B66247  42.164  21.548   6.450
 9621POPC   C2B66248  42.132  21.556   6.750
 9621POPC   C3B66249  42.110  21.594   7.050
 9621POPC   C4B66250  42.168  21.563   7.350
 9622POPC   NC366251  11.273  36.134   5.550
 9622POPC   PO466252  11.291  36.093   5.850
 9622POPC   GL166253  11.252  36.116   6.150
 9622POPC   GL266254  11.433  35.997   6.150
 9622POPC   C1A66255  11.253  36.092   6.450
 9622POPC   D2A66256  11.318  36.151   6.750
 9622POPC   C3A66257  11.335  36.101   7.050
 9622POPC   C4A66258  11.345  36.099   7.350
 9622POPC   C1B66259  11.501  35.927   6.450
 9622POPC   C2B66260  11.514  35.995   6.750
 9622POPC   C3B66261  11.445  35.985   7.050
 9622POPC   C4B66262  11.440  35.901   7.350
 9623POPC   NC366263  20.611  29.957   5.550
 9623POPC   PO466264  20.609  29.912   5.850
 9623POPC   GL166265  20.589  29.902   6.150
 9623POPC   GL266266  20.716  30.052   6.150
 9623POPC   C1A66267  20.561  29.915   6.450
 9623POPC   D2A66268  20.616  29.965   6.750
 9623POPC   C3A66269  20.655  29.954   7.050
 9623POPC   C4A66270  20.581  29.886   7.350
 9623POPC   C1B66271  20.817  30.093   6.450
 9623POPC   C2B66272  20.816  30.151   6.750
 9623POPC   C3B66273  20.724  30.081   7.050
 9623POPC   C4B66274  20.755  30.082   7.350
 9624POPC   NC366275  43.099  38.466   5.550
 9624POPC   PO466276  43.151  38.442   5.850
 9624POPC   GL166277  43.115  38.433   6.150
 9624POPC   GL266278  43.243  38.468   6.150
 9624POPC   C1A66279  43.121  38.412   6.450
 9624POPC   D2A66280  43.103  38.466   6.750
 9624POPC   C3A66281  43.142  38.411   7.050
 9624POPC   C4A66282  43.147  38.441   7.350
 9624POPC   C1B66283  43.307  38.552   6.450
 9624POPC   C2B66284  43.320  38.540   6.750
 9624POPC   C3B66285  43.385  38.535   7.050
 9624POPC   C4B66286  43.330  38.570   7.350
 9625POPC   NC366287  22.964  27.612   5.550
 9625POPC   PO466288  22.920  27.589   5.850
 9625POPC   GL166289  22.932  27.602   6.150
 9625POPC   GL266290  23.037  27.500   6.150
 9625POPC   C1A66291  22.985  27.595   6.450
 9625POPC   D2A66292  22.932  27.558   6.750
 9625POPC   C3A66293  22.984  27.546   7.050
 9625POPC   C4A66294  22.946  27.593   7.350
 9625POPC   C1B66295  23.073  27.417   6.450
 9625POPC   C2B66296  23.107  27.391   6.750
 9625POPC   C3B66297  23.078  27.408   7.050
 9625POPC   C4B66298  23.121  27.424   7.350
 9626POPC   NC366299  22.204   1.251   5.550
 9626POPC   PO466300  22.178   1.248   5.850
 9626POPC   GL166301  22.175   1.208   6.150
 9626POPC   GL266302  22.249   1.298   6.150
 9626POPC   C1A66303  22.187   1.201   6.450
 9626POPC   D2A66304  22.190   1.204   6.750
 9626POPC   C3A66305  22.178   1.202   7.050
 9626POPC   C4A66306  22.183   1.237   7.350
 9626POPC   C1B66307  22.415   1.335   6.450
 9626POPC   C2B66308  22.386   1.247   6.750
 9626POPC   C3B66309  22.371   1.273   7.050
 9626POPC   C4B66310  22.389   1.317   7.350
 9627POPC   NC366311  26.850  12.890   5.550
 9627POPC   PO466312  26.848  12.824   5.850
 9627POPC   GL166313  26.804  12.874   6.150
 9627POPC   GL266314  26.711  12.768   6.150
 9627POPC   C1A66315  26.805  12.832   6.450
 9627POPC   D2A66316  26.850  12.893   6.750
 9627POPC   C3A66317  26.787  12.862   7.050
 9627POPC   C4A66318  26.823  12.843   7.350
 9627POPC   C1B66319  26.712  12.617   6.450
 9627POPC   C2B66320  26.669  12.637   6.750
 9627POPC   C3B66321  26.693  12.659   7.050
 9627POPC   C4B66322  26.717  12.644   7.350
 9628POPC   NC366323   6.662  23.740   5.550
 9628POPC   PO466324   6.659  23.746   5.850
 9628POPC   GL166325   6.681  23.705   6.150
 9628POPC   GL266326   6.601  23.613   6.150
 9628POPC   C1A66327   6.640  23.730   6.450
 9628POPC   D2A66328   6.626  23.760   6.750
 9628POPC   C3A66329   6.680  23.732   7.050
 9628POPC   C4A66330   6.693  23.715   7.350
 9628POPC   C1B66331   6.504  23.538   6.450
 9628POPC   C2B66332   6.492  23.568   6.750
 9628POPC   C3B66333   6.454  23.564   7.050
 9628POPC   C4B66334   6.474  23.505   7.350
 9629POPC   NC366335  43.154  34.583   5.550
 9629POPC   PO466336  43.134  34.568   5.850
 9629POPC   GL166337  43.155  34.594   6.150
 9629POPC   GL266338  43.092  34.669   6.150
 9629POPC   C1A66339  43.086  34.606   6.450
 9629POPC   D2A66340  43.144  34.576   6.750
 9629POPC   C3A66341  43.119  34.576   7.050
 9629POPC   C4A66342  43.091  34.625   7.350
 9629POPC   C1B66343  43.046  34.785   6.450
 9629POPC   C2B66344  43.042  34.781   6.750
 9629POPC   C3B66345  43.042  34.766   7.050
 9629POPC   C4B66346  43.029  34.836   7.350
 9630POPC   NC366347  29.941  35.307   5.550
 9630POPC   PO466348  29.913  35.349   5.850
 9630POPC   GL166349  29.903  35.316   6.150
 9630POPC   GL266350  29.852  35.499   6.150
 9630POPC   C1A66351  29.942  35.394   6.450
 9630POPC   D2A66352  29.904  35.363   6.750
 9630POPC   C3A66353  29.889  35.377   7.050
 9630POPC   C4A66354  29.916  35.371   7.350
 9630POPC   C1B66355  29.843  35.613   6.450
 9630POPC   C2B66356  29.841  35.583   6.750
 9630POPC   C3B66357  29.857  35.579   7.050
 9630POPC   C4B66358  29.819  35.576   7.350
 9631POPC   NC366359   7.433  41.591   5.550
 9631POPC   PO466360   7.395  41.558   5.850
 9631POPC   GL166361   7.427  41.596   6.150
 9631POPC   GL266362   7.571  41.455   6.150
 9631POPC   C1A66363   7.386  41.548   6.450
 9631POPC   D2A66364   7.402  41.583   6.750
 9631POPC   C3A66365   7.399  41.561   7.050
 9631POPC   C4A66366   7.454  41.595   7.350
 9631POPC   C1B66367   7.650  41.432   6.450
 9631POPC   C2B66368   7.645  41.399   6.750
 9631POPC   C3B66369   7.650  41.441   7.050
 9631POPC   C4B66370   7.669  41.401   7.350
 9632POPC   NC366371  25.997  36.121   5.550
 9632POPC   PO466372  26.046  36.108   5.850
 9632POPC   GL166373  26.006  36.111   6.150
 9632POPC   GL266374  25.980  36.166   6.150
 9632POPC   C1A66375  26.066  36.105   6.450
 9632POPC   D2A66376  26.009  36.124   6.750
 9632POPC   C3A66377  26.030  36.118   7.050
 9632POPC   C4A66378  26.079  36.121   7.350
 9632POPC   C1B66379  25.862  36.318   6.450
 9632POPC   C2B66380  25.848  36.314   6.750
 9632POPC   C3B66381  25.822  36.281   7.050
 9632POPC   C4B66382  25.849  36.300   7.350
 9633POPC   NC366383  20.629  37.631   5.550
 9633POPC   PO466384  20.649  37.694   5.850
 9633POPC   GL166385  20.577  37.698   6.150
 9633POPC   GL266386  20.677  37.764   6.150
 9633POPC   C1A66387  20.563  37.659   6.450
 9633POPC   D2A66388  20.609  37.698   6.750
 9633POPC   C3A66389  20.611  37.661   7.050
 9633POPC   C4A66390  20.583  37.654   7.350
 9633POPC   C1B66391  20.853  37.843   6.450
 9633POPC   C2B66392  20.833  37.769   6.750
 9633POPC   C3B66393  20.782  37.841   7.050
 9633POPC   C4B66394  20.863  37.805   7.350
 9634POPC   NC366395  33.045  43.092   5.550
 9634POPC   PO466396  33.022  43.087   5.850
 9634POPC   GL166397  32.994  43.076   6.150
 9634POPC   GL266398  33.074  43.234   6.150
 9634POPC   C1A66399  33.034  43.149   6.450
 9634POPC   D2A66400  33.039  43.132   6.750
 9634POPC   C3A66401  33.047  43.061   7.050
 9634POPC   C4A66402  33.047  43.121   7.350
 9634POPC   C1B66403  33.109  43.383   6.450
 9634POPC   C2B66404  33.137  43.349   6.750
 9634POPC   C3B66405  33.086  43.368   7.050
 9634POPC   C4B66406  33.060  43.341   7.350
 9635POPC   NC366407   1.984  22.918   5.550
 9635POPC   PO466408   1.979  22.981   5.850
 9635POPC   GL166409   2.033  22.911   6.150
 9635POPC   GL266410   1.872  22.926   6.150
 9635POPC   C1A66411   2.006  22.977   6.450
 9635POPC   D2A66412   1.979  22.971   6.750
 9635POPC   C3A66413   1.940  22.984   7.050
 9635POPC   C4A66414   1.952  22.901   7.350
 9635POPC   C1B66415   1.711  22.914   6.450
 9635POPC   C2B66416   1.709  22.977   6.750
 9635POPC   C3B66417   1.771  22.917   7.050
 9635POPC   C4B66418   1.776  22.958   7.350
 9636POPC   NC366419  12.865  20.647   5.550
 9636POPC   PO466420  12.838  20.628   5.850
 9636POPC   GL166421  12.845  20.616   6.150
 9636POPC   GL266422  12.813  20.685   6.150
 9636POPC   C1A66423  12.856  20.614   6.450
 9636POPC   D2A66424  12.823  20.652   6.750
 9636POPC   C3A66425  12.868  20.599   7.050
 9636POPC   C4A66426  12.900  20.611   7.350
 9636POPC   C1B66427  12.722  20.813   6.450
 9636POPC   C2B66428  12.696  20.842   6.750
 9636POPC   C3B66429  12.765  20.822   7.050
 9636POPC   C4B66430  12.772  20.816   7.350
 9637POPC   NC366431  10.503  44.695   5.550
 9637POPC   PO466432  10.570  44.701   5.850
 9637POPC   GL166433  10.535  44.706   6.150
 9637POPC   GL266434  10.523  44.796   6.150
 9637POPC   C1A66435  10.507  44.621   6.450
 9637POPC   D2A66436  10.554  44.623   6.750
 9637POPC   C3A66437  10.530  44.681   7.050
 9637POPC   C4A66438  10.529  44.702   7.350
 9637POPC   C1B66439  10.611  44.898   6.450
 9637POPC   C2B66440  10.571  44.899   6.750
 9637POPC   C3B66441  10.616  44.881   7.050
 9637POPC   C4B66442  10.627  44.912   7.350
 9638POPC   NC366443  23.705   2.740   5.550
 9638POPC   PO466444  23.678   2.808   5.850
 9638POPC   GL166445  23.740   2.802   6.150
 9638POPC   GL266446  23.811   2.878   6.150
 9638POPC   C1A66447  23.728   2.727   6.450
 9638POPC   D2A66448  23.672   2.759   6.750
 9638POPC   C3A66449  23.676   2.778   7.050
 9638POPC   C4A66450  23.730   2.759   7.350
 9638POPC   C1B66451  23.899   2.968   6.450
 9638POPC   C2B66452  23.877   2.921   6.750
 9638POPC   C3B66453  23.893   2.971   7.050
 9638POPC   C4B66454  23.931   2.961   7.350
 9639POPC   NC366455   0.477   4.359   5.550
 9639POPC   PO466456   0.463   4.364   5.850
 9639POPC   GL166457   0.400   4.269   6.150
 9639POPC   GL266458   0.501   4.151   6.150
 9639POPC   C1A66459   0.416   4.290   6.450
 9639POPC   D2A66460   0.472   4.362   6.750
 9639POPC   C3A66461   0.433   4.290   7.050
 9639POPC   C4A66462   0.404   4.363   7.350
 9639POPC   C1B66463   0.516   4.104   6.450
 9639POPC   C2B66464   0.506   4.101   6.750
 9639POPC   C3B66465   0.483   4.051   7.050
 9639POPC   C4B66466   0.501   4.114   7.350
 9640POPC   NC366467  20.642   8.148   5.550
 9640POPC   PO466468  20.611   8.208   5.850
 9640POPC   GL166469  20.582   8.157   6.150
 9640POPC   GL266470  20.759   8.240   6.150
 9640POPC   C1A66471  20.565   8.147   6.450
 9640POPC   D2A66472  20.582   8.174   6.750
 9640POPC   C3A66473  20.564   8.154   7.050
 9640POPC   C4A66474  20.623   8.235   7.350
 9640POPC   C1B66475  20.898   8.237   6.450
 9640POPC   C2B66476  20.832   8.223   6.750
 9640POPC   C3B66477  20.870   8.235   7.050
 9640POPC   C4B66478  20.803   8.304   7.350
 9641POPC   NC366479   9.701  36.930   5.550
 9641POPC   PO466480   9.773  36.902   5.850
 9641POPC   GL166481   9.796  36.923   6.150
 9641POPC   GL266482   9.806  36.826   6.150
 9641POPC   C1A66483   9.711  36.921   6.450
 9641POPC   D2A66484   9.792  36.891   6.750
 9641POPC   C3A66485   9.728  36.930   7.050
 9641POPC   C4A66486   9.776  36.869   7.350
 9641POPC   C1B66487   9.862  36.747   6.450
 9641POPC   C2B66488   9.898  36.709   6.750
 9641POPC   C3B66489   9.946  36.753   7.050
 9641POPC   C4B66490   9.920  36.742   7.350
 9642POPC   NC366491  29.145   2.753   5.550
 9642POPC   PO466492  29.141   2.772   5.850
 9642POPC   GL166493  29.159   2.741   6.150
 9642POPC   GL266494  29.218   2.679   6.150
 9642POPC   C1A66495  29.158   2.758   6.450
 9642POPC   D2A66496  29.147   2.739   6.750
 9642POPC   C3A66497  29.101   2.785   7.050
 9642POPC   C4A66498  29.190   2.791   7.350
 9642POPC   C1B66499  29.288   2.522   6.450
 9642POPC   C2B66500  29.291   2.496   6.750
 9642POPC   C3B66501  29.292   2.541   7.050
 9642POPC   C4B66502  29.218   2.510   7.350
 9643POPC   NC366503  15.157  40.003   5.550
 9643POPC   PO466504  15.155  40.031   5.850
 9643POPC   GL166505  15.152  40.044   6.150
 9643POPC   GL266506  15.031  40.031   6.150
 9643POPC   C1A66507  15.195  39.967   6.450
 9643POPC   D2A66508  15.208  40.001   6.750
 9643POPC   C3A66509  15.196  40.024   7.050
 9643POPC   C4A66510  15.135  40.052   7.350
 9643POPC   C1B66511  14.915  40.095   6.450
 9643POPC   C2B66512  14.942  40.060   6.750
 9643POPC   C3B66513  14.903  40.096   7.050
 9643POPC   C4B66514  14.912  40.093   7.350
 9644POPC   NC366515   0.415  13.665   5.550
 9644POPC   PO466516   0.479  13.618   5.850
 9644POPC   GL166517   0.427  13.618   6.150
 9644POPC   GL266518   0.445  13.735   6.150
 9644POPC   C1A66519   0.438  13.671   6.450
 9644POPC   D2A66520   0.393  13.674   6.750
 9644POPC   C3A66521   0.453  13.616   7.050
 9644POPC   C4A66522   0.440  13.583   7.350
 9644POPC   C1B66523   0.517  13.823   6.450
 9644POPC   C2B66524   0.460  13.851   6.750
 9644POPC   C3B66525   0.545  13.845   7.050
 9644POPC   C4B66526   0.512  13.830   7.350
 9645POPC   NC366527   1.175  15.966   5.550
 9645POPC   PO466528   1.183  15.973   5.850
 9645POPC   GL166529   1.229  15.993   6.150
 9645POPC   GL266530   1.264  15.821   6.150
 9645POPC   C1A66531   1.220  15.997   6.450
 9645POPC   D2A66532   1.238  15.914   6.750
 9645POPC   C3A66533   1.177  15.980   7.050
 9645POPC   C4A66534   1.244  15.951   7.350
 9645POPC   C1B66535   1.218  15.682   6.450
 9645POPC   C2B66536   1.267  15.754   6.750
 9645POPC   C3B66537   1.172  15.667   7.050
 9645POPC   C4B66538   1.184  15.729   7.350
 9646POPC   NC366539  15.163  23.682   5.550
 9646POPC   PO466540  15.159  23.725   5.850
 9646POPC   GL166541  15.149  23.741   6.150
 9646POPC   GL266542  15.344  23.679   6.150
 9646POPC   C1A66543  15.193  23.696   6.450
 9646POPC   D2A66544  15.205  23.698   6.750
 9646POPC   C3A66545  15.197  23.758   7.050
 9646POPC   C4A66546  15.194  23.749   7.350
 9646POPC   C1B66547  15.423  23.734   6.450
 9646POPC   C2B66548  15.457  23.693   6.750
 9646POPC   C3B66549  15.430  23.706   7.050
 9646POPC   C4B66550  15.449  23.706   7.350
 9647POPC   NC366551  16.759  43.896   5.550
 9647POPC   PO466552  16.752  43.857   5.850
 9647POPC   GL166553  16.726  43.923   6.150
 9647POPC   GL266554  16.631  43.770   6.150
 9647POPC   C1A66555  16.736  43.881   6.450
 9647POPC   D2A66556  16.775  43.879   6.750
 9647POPC   C3A66557  16.752  43.892   7.050
 9647POPC   C4A66558  16.768  43.902   7.350
 9647POPC   C1B66559  16.595  43.679   6.450
 9647POPC   C2B66560  16.588  43.703   6.750
 9647POPC   C3B66561  16.648  43.664   7.050
 9647POPC   C4B66562  16.596  43.654   7.350
 9648POPC   NC366563  44.684  42.363   5.550
 9648POPC   PO466564  44.693  42.328   5.850
 9648POPC   GL166565  44.695  42.287   6.150
 9648POPC   GL266566  44.548  42.382   6.150
 9648POPC   C1A66567  44.637  42.286   6.450
 9648POPC   D2A66568  44.616  42.294   6.750
 9648POPC   C3A66569  44.630  42.295   7.050
 9648POPC   C4A66570  44.669  42.327   7.350
 9648POPC   C1B66571  44.421  42.437   6.450
 9648POPC   C2B66572  44.430  42.360   6.750
 9648POPC   C3B66573  44.460  42.369   7.050
 9648POPC   C4B66574  44.461  42.364   7.350
 9649POPC   NC366575  40.052  11.332   5.550
 9649POPC   PO466576  40.051  11.265   5.850
 9649POPC   GL166577  40.024  11.273   6.150
 9649POPC   GL266578  40.035  11.457   6.150
 9649POPC   C1A66579  39.998  11.271   6.450
 9649POPC   D2A66580  39.970  11.273   6.750
 9649POPC   C3A66581  39.957  11.306   7.050
 9649POPC   C4A66582  39.991  11.300   7.350
 9649POPC   C1B66583  39.999  11.587   6.450
 9649POPC   C2B66584  39.974  11.541   6.750
 9649POPC   C3B66585  40.046  11.542   7.050
 9649POPC   C4B66586  40.034  11.552   7.350
 9650POPC   NC366587  15.160  25.218   5.550
 9650POPC   PO466588  15.207  25.284   5.850
 9650POPC   GL166589  15.199  25.293   6.150
 9650POPC   GL266590  15.219  25.164   6.150
 9650POPC   C1A66591  15.192  25.257   6.450
 9650POPC   D2A66592  15.130  25.229   6.750
 9650POPC   C3A66593  15.195  25.253   7.050
 9650POPC   C4A66594  15.167  25.266   7.350
 9650POPC   C1B66595  15.298  25.064   6.450
 9650POPC   C2B66596  15.280  25.013   6.750
 9650POPC   C3B66597  15.355  25.040   7.050
 9650POPC   C4B66598  15.343  25.048   7.350
 9651POPC   NC366599  36.863  27.554   5.550
 9651POPC   PO466600  36.861  27.603   5.850
 9651POPC   GL166601  36.906  27.579   6.150
 9651POPC   GL266602  36.914  27.463   6.150
 9651POPC   C1A66603  36.939  27.565   6.450
 9651POPC   D2A66604  36.913  27.545   6.750
 9651POPC   C3A66605  36.867  27.596   7.050
 9651POPC   C4A66606  36.925  27.561   7.350
 9651POPC   C1B66607  36.903  27.373   6.450
 9651POPC   C2B66608  36.944  27.310   6.750
 9651POPC   C3B66609  36.933  27.311   7.050
 9651POPC   C4B66610  36.953  27.344   7.350
 9652POPC   NC366611  31.461   3.541   5.550
 9652POPC   PO466612  31.453   3.514   5.850
 9652POPC   GL166613  31.497   3.517   6.150
 9652POPC   GL266614  31.472   3.391   6.150
 9652POPC   C1A66615  31.509   3.570   6.450
 9652POPC   D2A66616  31.469   3.574   6.750
 9652POPC   C3A66617  31.502   3.559   7.050
 9652POPC   C4A66618  31.479   3.564   7.350
 9652POPC   C1B66619  31.588   3.266   6.450
 9652POPC   C2B66620  31.514   3.258   6.750
 9652POPC   C3B66621  31.530   3.357   7.050
 9652POPC   C4B66622  31.543   3.291   7.350
 9653POPC   NC366623  36.875  29.186   5.550
 9653POPC   PO466624  36.938  29.107   5.850
 9653POPC   GL166625  36.869  29.150   6.150
 9653POPC   GL266626  36.841  29.315   6.150
 9653POPC   C1A66627  36.878  29.109   6.450
 9653POPC   D2A66628  36.941  29.118   6.750
 9653POPC   C3A66629  36.929  29.181   7.050
 9653POPC   C4A66630  36.870  29.151   7.350
 9653POPC   C1B66631  36.907  29.394   6.450
 9653POPC   C2B66632  36.900  29.373   6.750
 9653POPC   C3B66633  36.868  29.374   7.050
 9653POPC   C4B66634  36.865  29.426   7.350
 9654POPC   NC366635  25.314   0.449   5.550
 9654POPC   PO466636  25.300   0.435   5.850
 9654POPC   GL166637  25.270   0.444   6.150
 9654POPC   GL266638  25.185   0.512   6.150
 9654POPC   C1A66639  25.267   0.473   6.450
 9654POPC   D2A66640  25.228   0.480   6.750
 9654POPC   C3A66641  25.284   0.417   7.050
 9654POPC   C4A66642  25.256   0.467   7.350
 9654POPC   C1B66643  25.008   0.547   6.450
 9654POPC   C2B66644  25.001   0.513   6.750
 9654POPC   C3B66645  24.994   0.467   7.050
 9654POPC   C4B66646  25.069   0.476   7.350
 9655POPC   NC366647  33.041  17.554   5.550
 9655POPC   PO466648  33.001  17.459   5.850
 9655POPC   GL166649  33.072  17.493   6.150
 9655POPC   GL266650  33.147  17.491   6.150
 9655POPC   C1A66651  32.999  17.527   6.450
 9655POPC   D2A66652  33.056  17.505   6.750
 9655POPC   C3A66653  33.017  17.526   7.050
 9655POPC   C4A66654  33.007  17.545   7.350
 9655POPC   C1B66655  33.271  17.449   6.450
 9655POPC   C2B66656  33.276  17.392   6.750
 9655POPC   C3B66657  33.273  17.390   7.050
 9655POPC   C4B66658  33.228  17.468   7.350
 9656POPC   NC366659  22.125  23.689   5.550
 9656POPC   PO466660  22.136  23.721   5.850
 9656POPC   GL166661  22.156  23.722   6.150
 9656POPC   GL266662  22.119  23.609   6.150
 9656POPC   C1A66663  22.142  23.742   6.450
 9656POPC   D2A66664  22.133  23.741   6.750
 9656POPC   C3A66665  22.131  23.692   7.050
 9656POPC   C4A66666  22.167  23.706   7.350
 9656POPC   C1B66667  22.116  23.478   6.450
 9656POPC   C2B66668  22.163  23.423   6.750
 9656POPC   C3B66669  22.158  23.434   7.050
 9656POPC   C4B66670  22.075  23.471   7.350
 9657POPC   NC366671  19.092  43.077   5.550
 9657POPC   PO466672  19.102  43.119   5.850
 9657POPC   GL166673  19.020  43.119   6.150
 9657POPC   GL266674  18.937  43.162   6.150
 9657POPC   C1A66675  19.051  43.124   6.450
 9657POPC   D2A66676  19.080  43.133   6.750
 9657POPC   C3A66677  19.065  43.090   7.050
 9657POPC   C4A66678  19.014  43.130   7.350
 9657POPC   C1B66679  18.899  43.290   6.450
 9657POPC   C2B66680  18.847  43.249   6.750
 9657POPC   C3B66681  18.858  43.323   7.050
 9657POPC   C4B66682  18.842  43.325   7.350
 9658POPC   NC366683  12.869  29.902   5.550
 9658POPC   PO466684  12.866  29.907   5.850
 9658POPC   GL166685  12.850  29.888   6.150
 9658POPC   GL266686  12.894  29.784   6.150
 9658POPC   C1A66687  12.834  29.872   6.450
 9658POPC   D2A66688  12.830  29.872   6.750
 9658POPC   C3A66689  12.891  29.908   7.050
 9658POPC   C4A66690  12.803  29.920   7.350
 9658POPC   C1B66691  12.975  29.781   6.450
 9658POPC   C2B66692  13.012  29.690   6.750
 9658POPC   C3B66693  13.063  29.768   7.050
 9658POPC   C4B66694  12.973  29.722   7.350
 9659POPC   NC366695  22.891   4.356   5.550
 9659POPC   PO466696  22.945   4.352   5.850
 9659POPC   GL166697  22.928   4.319   6.150
 9659POPC   GL266698  23.030   4.394   6.150
 9659POPC   C1A66699  22.970   4.299   6.450
 9659POPC   D2A66700  22.986   4.284   6.750
 9659POPC   C3A66701  22.893   4.308   7.050
 9659POPC   C4A66702  22.935   4.340   7.350
 9659POPC   C1B66703  23.115   4.470   6.450
 9659POPC   C2B66704  23.120   4.497   6.750
 9659POPC   C3B66705  23.102   4.478   7.050
 9659POPC   C4B66706  23.125   4.477   7.350
 9660POPC   NC366707  20.637  14.436   5.550
 9660POPC   PO466708  20.569  14.416   5.850
 9660POPC   GL166709  20.617  14.450   6.150
 9660POPC   GL266710  20.669  14.507   6.150
 9660POPC   C1A66711  20.614  14.436   6.450
 9660POPC   D2A66712  20.578  14.416   6.750
 9660POPC   C3A66713  20.652  14.426   7.050
 9660POPC   C4A66714  20.581  14.382   7.350
 9660POPC   C1B66715  20.708  14.684   6.450
 9660POPC   C2B66716  20.696  14.635   6.750
 9660POPC   C3B66717  20.692  14.692   7.050
 9660POPC   C4B66718  20.678  14.665   7.350
 9661POPC   NC366719  37.703   1.980   5.550
 9661POPC   PO466720  37.711   2.003   5.850
 9661POPC   GL166721  37.645   2.031   6.150
 9661POPC   GL266722  37.613   2.045   6.150
 9661POPC   C1A66723  37.724   1.999   6.450
 9661POPC   D2A66724  37.651   1.989   6.750
 9661POPC   C3A66725  37.687   1.954   7.050
 9661POPC   C4A66726  37.666   1.995   7.350
 9661POPC   C1B66727  37.428   2.102   6.450
 9661POPC   C2B66728  37.502   2.122   6.750
 9661POPC   C3B66729  37.468   2.110   7.050
 9661POPC   C4B66730  37.434   2.121   7.350
 9662POPC   NC366731  29.959  19.841   5.550
 9662POPC   PO466732  29.922  19.814   5.850
 9662POPC   GL166733  29.953  19.796   6.150
 9662POPC   GL266734  29.884  19.972   6.150
 9662POPC   C1A66735  29.941  19.837   6.450
 9662POPC   D2A66736  29.962  19.864   6.750
 9662POPC   C3A66737  29.890  19.848   7.050
 9662POPC   C4A66738  29.945  19.861   7.350
 9662POPC   C1B66739  29.831  20.099   6.450
 9662POPC   C2B66740  29.835  20.052   6.750
 9662POPC   C3B66741  29.814  20.101   7.050
 9662POPC   C4B66742  29.818  20.089   7.350
 9663POPC   NC366743  43.885   5.825   5.550
 9663POPC   PO466744  43.850   5.919   5.850
 9663POPC   GL166745  43.900   5.866   6.150
 9663POPC   GL266746  43.751   5.962   6.150
 9663POPC   C1A66747  43.908   5.890   6.450
 9663POPC   D2A66748  43.880   5.913   6.750
 9663POPC   C3A66749  43.876   5.917   7.050
 9663POPC   C4A66750  43.896   5.829   7.350
 9663POPC   C1B66751  43.676   6.032   6.450
 9663POPC   C2B66752  43.689   6.013   6.750
 9663POPC   C3B66753  43.655   5.973   7.050
 9663POPC   C4B66754  43.661   6.022   7.350
 9664POPC   NC366755  32.294  36.881   5.550
 9664POPC   PO466756  32.294  36.885   5.850
 9664POPC   GL166757  32.296  36.878   6.150
 9664POPC   GL266758  32.237  36.735   6.150
 9664POPC   C1A66759  32.207  36.895   6.450
 9664POPC   D2A66760  32.278  36.887   6.750
 9664POPC   C3A66761  32.225  36.931   7.050
 9664POPC   C4A66762  32.278  36.921   7.350
 9664POPC   C1B66763  32.328  36.620   6.450
 9664POPC   C2B66764  32.291  36.630   6.750
 9664POPC   C3B66765  32.321  36.680   7.050
 9664POPC   C4B66766  32.297  36.647   7.350
 9665POPC   NC366767   1.251  32.982   5.550
 9665POPC   PO466768   1.257  33.016   5.850
 9665POPC   GL166769   1.245  33.052   6.150
 9665POPC   GL266770   1.218  33.115   6.150
 9665POPC   C1A66771   1.183  33.058   6.450
 9665POPC   D2A66772   1.250  32.993   6.750
 9665POPC   C3A66773   1.209  33.067   7.050
 9665POPC   C4A66774   1.194  33.059   7.350
 9665POPC   C1B66775   1.243  33.242   6.450
 9665POPC   C2B66776   1.212  33.288   6.750
 9665POPC   C3B66777   1.217  33.293   7.050
 9665POPC   C4B66778   1.267  33.225   7.350
 9666POPC   NC366779  33.781  31.520   5.550
 9666POPC   PO466780  33.790  31.458   5.850
 9666POPC   GL166781  33.760  31.448   6.150
 9666POPC   GL266782  33.774  31.605   6.150
 9666POPC   C1A66783  33.839  31.424   6.450
 9666POPC   D2A66784  33.805  31.520   6.750
 9666POPC   C3A66785  33.825  31.461   7.050
 9666POPC   C4A66786  33.776  31.436   7.350
 9666POPC   C1B66787  33.624  31.665   6.450
 9666POPC   C2B66788  33.716  31.727   6.750
 9666POPC   C3B66789  33.637  31.642   7.050
 9666POPC   C4B66790  33.646  31.695   7.350
 9667POPC   NC366791  34.609  43.104   5.550
 9667POPC   PO466792  34.577  43.122   5.850
 9667POPC   GL166793  34.603  43.159   6.150
 9667POPC   GL266794  34.651  42.996   6.150
 9667POPC   C1A66795  34.573  43.074   6.450
 9667POPC   D2A66796  34.535  43.141   6.750
 9667POPC   C3A66797  34.553  43.133   7.050
 9667POPC   C4A66798  34.608  43.085   7.350
 9667POPC   C1B66799  34.709  42.924   6.450
 9667POPC   C2B66800  34.718  42.935   6.750
 9667POPC   C3B66801  34.758  42.924   7.050
 9667POPC   C4B66802  34.697  42.904   7.350
 9668POPC   NC366803  36.890  41.559   5.550
 9668POPC   PO466804  36.871  41.564   5.850
 9668POPC   GL166805  36.943  41.560   6.150
 9668POPC   GL266806  36.983  41.575   6.150
 9668POPC   C1A66807  36.906  41.595   6.450
 9668POPC   D2A66808  36.911  41.584   6.750
 9668POPC   C3A66809  36.869  41.559   7.050
 9668POPC   C4A66810  36.883  41.568   7.350
 9668POPC   C1B66811  37.135  41.514   6.450
 9668POPC   C2B66812  37.151  41.599   6.750
 9668POPC   C3B66813  37.202  41.601   7.050
 9668POPC   C4B66814  37.173  41.583   7.350
 9669POPC   NC366815  15.984  43.115   5.550
 9669POPC   PO466816  15.977  43.094   5.850
 9669POPC   GL166817  15.910  43.085   6.150
 9669POPC   GL266818  15.925  42.961   6.150
 9669POPC   C1A66819  15.912  43.087   6.450
 9669POPC   D2A66820  15.955  43.159   6.750
 9669POPC   C3A66821  15.909  43.087   7.050
 9669POPC   C4A66822  15.965  43.150   7.350
 9669POPC   C1B66823  15.839  42.860   6.450
 9669POPC   C2B66824  15.831  42.943   6.750
 9669POPC   C3B66825  15.820  42.940   7.050
 9669POPC   C4B66826  15.841  42.924   7.350
 9670POPC   NC366827  22.918  13.628   5.550
 9670POPC   PO466828  22.973  13.630   5.850
 9670POPC   GL166829  22.930  13.628   6.150
 9670POPC   GL266830  22.810  13.632   6.150
 9670POPC   C1A66831  22.981  13.593   6.450
 9670POPC   D2A66832  22.982  13.592   6.750
 9670POPC   C3A66833  22.908  13.621   7.050
 9670POPC   C4A66834  22.950  13.631   7.350
 9670POPC   C1B66835  22.708  13.526   6.450
 9670POPC   C2B66836  22.680  13.520   6.750
 9670POPC   C3B66837  22.701  13.546   7.050
 9670POPC   C4B66838  22.675  13.583   7.350
 9671POPC   NC366839  30.665   1.221   5.550
 9671POPC   PO466840  30.654   1.172   5.850
 9671POPC   GL166841  30.681   1.184   6.150
 9671POPC   GL266842  30.611   1.177   6.150
 9671POPC   C1A66843  30.693   1.244   6.450
 9671POPC   D2A66844  30.704   1.194   6.750
 9671POPC   C3A66845  30.693   1.259   7.050
 9671POPC   C4A66846  30.660   1.164   7.350
 9671POPC   C1B66847  30.475   1.218   6.450
 9671POPC   C2B66848  30.488   1.179   6.750
 9671POPC   C3B66849  30.416   1.162   7.050
 9671POPC   C4B66850  30.411   1.216   7.350
 9672POPC   NC366851  20.639  41.516   5.550
 9672POPC   PO466852  20.622  41.584   5.850
 9672POPC   GL166853  20.562  41.604   6.150
 9672POPC   GL266854  20.769  41.552   6.150
 9672POPC   C1A66855  20.596  41.548   6.450
 9672POPC   D2A66856  20.591  41.569   6.750
 9672POPC   C3A66857  20.569  41.574   7.050
 9672POPC   C4A66858  20.647  41.551   7.350
 9672POPC   C1B66859  20.853  41.624   6.450
 9672POPC   C2B66860  20.887  41.590   6.750
 9672POPC   C3B66861  20.832  41.566   7.050
 9672POPC   C4B66862  20.879  41.588   7.350
 9673POPC   NC366863  24.483  42.315   5.550
 9673POPC   PO466864  24.487  42.325   5.850
 9673POPC   GL166865  24.470  42.346   6.150
 9673POPC   GL266866  24.502  42.253   6.150
 9673POPC   C1A66867  24.494  42.291   6.450
 9673POPC   D2A66868  24.454  42.377   6.750
 9673POPC   C3A66869  24.498  42.368   7.050
 9673POPC   C4A66870  24.452  42.378   7.350
 9673POPC   C1B66871  24.562  42.105   6.450
 9673POPC   C2B66872  24.487  42.078   6.750
 9673POPC   C3B66873  24.511  42.053   7.050
 9673POPC   C4B66874  24.516  42.038   7.350
 9674POPC   NC366875  29.920  12.045   5.550
 9674POPC   PO466876  29.879  12.074   5.850
 9674POPC   GL166877  29.896  12.107   6.150
 9674POPC   GL266878  30.070  12.141   6.150
 9674POPC   C1A66879  29.878  12.088   6.450
 9674POPC   D2A66880  29.902  12.119   6.750
 9674POPC   C3A66881  29.933  12.073   7.050
 9674POPC   C4A66882  29.954  12.065   7.350
 9674POPC   C1B66883  30.112  12.218   6.450
 9674POPC   C2B66884  30.152  12.127   6.750
 9674POPC   C3B66885  30.147  12.191   7.050
 9674POPC   C4B66886  30.174  12.176   7.350
 9675POPC   NC366887  14.391  18.311   5.550
 9675POPC   PO466888  14.440  18.236   5.850
 9675POPC   GL166889  14.395  18.272   6.150
 9675POPC   GL266890  14.371  18.448   6.150
 9675POPC   C1A66891  14.452  18.304   6.450
 9675POPC   D2A66892  14.372  18.293   6.750
 9675POPC   C3A66893  14.449  18.289   7.050
 9675POPC   C4A66894  14.412  18.278   7.350
 9675POPC   C1B66895  14.329  18.517   6.450
 9675POPC   C2B66896  14.284  18.542   6.750
 9675POPC   C3B66897  14.322  18.484   7.050
 9675POPC   C4B66898  14.341  18.545   7.350
 9676POPC   NC366899   8.925   5.902   5.550
 9676POPC   PO466900   8.987   5.829   5.850
 9676POPC   GL166901   8.951   5.909   6.150
 9676POPC   GL266902   9.122   5.896   6.150
 9676POPC   C1A66903   8.966   5.832   6.450
 9676POPC   D2A66904   8.929   5.869   6.750
 9676POPC   C3A66905   8.932   5.876   7.050
 9676POPC   C4A66906   9.001   5.881   7.350
 9676POPC   C1B66907   9.250   5.925   6.450
 9676POPC   C2B66908   9.194   5.960   6.750
 9676POPC   C3B66909   9.229   5.962   7.050
 9676POPC   C4B66910   9.192   5.955   7.350
 9677POPC   NC366911  28.373  33.049   5.550
 9677POPC   PO466912  28.369  33.063   5.850
 9677POPC   GL166913  28.385  33.061   6.150
 9677POPC   GL266914  28.495  32.958   6.150
 9677POPC   C1A66915  28.393  33.003   6.450
 9677POPC   D2A66916  28.415  32.984   6.750
 9677POPC   C3A66917  28.366  33.028   7.050
 9677POPC   C4A66918  28.381  33.034   7.350
 9677POPC   C1B66919  28.548  32.864   6.450
 9677POPC   C2B66920  28.575  32.871   6.750
 9677POPC   C3B66921  28.525  32.892   7.050
 9677POPC   C4B66922  28.598  32.904   7.350
 9678POPC   NC366923  24.469   5.088   5.550
 9678POPC   PO466924  24.486   5.087   5.850
 9678POPC   GL166925  24.523   5.102   6.150
 9678POPC   GL266926  24.558   4.983   6.150
 9678POPC   C1A66927  24.495   5.081   6.450
 9678POPC   D2A66928  24.460   5.087   6.750
 9678POPC   C3A66929  24.483   5.052   7.050
 9678POPC   C4A66930  24.480   5.057   7.350
 9678POPC   C1B66931  24.567   4.866   6.450
 9678POPC   C2B66932  24.632   4.918   6.750
 9678POPC   C3B66933  24.636   4.876   7.050
 9678POPC   C4B66934  24.642   4.886   7.350
 9679POPC   NC366935  21.375   6.615   5.550
 9679POPC   PO466936  21.362   6.645   5.850
 9679POPC   GL166937  21.426   6.651   6.150
 9679POPC   GL266938  21.374   6.490   6.150
 9679POPC   C1A66939  21.362   6.693   6.450
 9679POPC   D2A66940  21.394   6.660   6.750
 9679POPC   C3A66941  21.429   6.691   7.050
 9679POPC   C4A66942  21.436   6.637   7.350
 9679POPC   C1B66943  21.446   6.355   6.450
 9679POPC   C2B66944  21.420   6.350   6.750
 9679POPC   C3B66945  21.423   6.445   7.050
 9679POPC   C4B66946  21.429   6.355   7.350
 9680POPC   NC366947  21.427  13.652   5.550
 9680POPC   PO466948  21.422  13.636   5.850
 9680POPC   GL166949  21.407  13.671   6.150
 9680POPC   GL266950  21.327  13.737   6.150
 9680POPC   C1A66951  21.418  13.591   6.450
 9680POPC   D2A66952  21.410  13.585   6.750
 9680POPC   C3A66953  21.432  13.672   7.050
 9680POPC   C4A66954  21.423  13.660   7.350
 9680POPC   C1B66955  21.184  13.711   6.450
 9680POPC   C2B66956  21.194  13.725   6.750
 9680POPC   C3B66957  21.163  13.796   7.050
 9680POPC   C4B66958  21.152  13.704   7.350
 9681POPC   NC366959  39.228   0.398   5.550
 9681POPC   PO466960  39.230   0.446   5.850
 9681POPC   GL166961  39.206   0.444   6.150
 9681POPC   GL266962  39.348   0.512   6.150
 9681POPC   C1A66963  39.243   0.449   6.450
 9681POPC   D2A66964  39.260   0.399   6.750
 9681POPC   C3A66965  39.277   0.413   7.050
 9681POPC   C4A66966  39.216   0.422   7.350
 9681POPC   C1B66967  39.429   0.620   6.450
 9681POPC   C2B66968  39.412   0.629   6.750
 9681POPC   C3B66969  39.420   0.625   7.050
 9681POPC   C4B66970  39.421   0.651   7.350
 9682POPC   NC366971   8.243  41.532   5.550
 9682POPC   PO466972   8.171  41.541   5.850
 9682POPC   GL166973   8.184  41.568   6.150
 9682POPC   GL266974   8.280  41.611   6.150
 9682POPC   C1A66975   8.246  41.528   6.450
 9682POPC   D2A66976   8.150  41.557   6.750
 9682POPC   C3A66977   8.189  41.585   7.050
 9682POPC   C4A66978   8.239  41.530   7.350
 9682POPC   C1B66979   8.439  41.676   6.450
 9682POPC   C2B66980   8.431  41.698   6.750
 9682POPC   C3B66981   8.416  41.713   7.050
 9682POPC   C4B66982   8.444  41.661   7.350
 9683POPC   NC366983  12.060   8.925   5.550
 9683POPC   PO466984  12.123   8.996   5.850
 9683POPC   GL166985  12.104   8.958   6.150
 9683POPC   GL266986  12.241   8.968   6.150
 9683POPC   C1A66987  12.033   8.942   6.450
 9683POPC   D2A66988  12.091   8.954   6.750
 9683POPC   C3A66989  12.087   8.929   7.050
 9683POPC   C4A66990  12.083   8.945   7.350
 9683POPC   C1B66991  12.359   8.991   6.450
 9683POPC   C2B66992  12.365   8.979   6.750
 9683POPC   C3B66993  12.309   8.997   7.050
 9683POPC   C4B66994  12.350   8.987   7.350
 9684POPC   NC366995  22.169   1.973   5.550
 9684POPC   PO466996  22.126   2.031   5.850
 9684POPC   GL166997  22.191   1.996   6.150
 9684POPC   GL266998  22.066   1.838   6.150
 9684POPC   C1A66999  22.202   2.015   6.450
 9684POPC   D2A67000  22.115   2.025   6.750
 9684POPC   C3A67001  22.165   1.987   7.050
 9684POPC   C4A67002  22.201   2.006   7.350
 9684POPC   C1B67003  22.049   1.794   6.450
 9684POPC   C2B67004  22.050   1.826   6.750
 9684POPC   C3B67005  21.989   1.758   7.050
 9684POPC   C4B67006  22.009   1.756   7.350
 9685POPC   NC367007  32.996  19.801   5.550
 9685POPC   PO467008  33.017  19.855   5.850
 9685POPC   GL167009  33.064  19.883   6.150
 9685POPC   GL267010  32.929  19.962   6.150
 9685POPC   C1A67011  33.041  19.794   6.450
 9685POPC   D2A67012  32.994  19.835   6.750
 9685POPC   C3A67013  33.066  19.857   7.050
 9685POPC   C4A67014  33.029  19.856   7.350
 9685POPC   C1B67015  32.879  20.079   6.450
 9685POPC   C2B67016  32.851  20.055   6.750
 9685POPC   C3B67017  32.904  20.001   7.050
 9685POPC   C4B67018  32.906  20.056   7.350
 9686POPC   NC367019  26.841  23.730   5.550
 9686POPC   PO467020  26.863  23.748   5.850
 9686POPC   GL167021  26.807  23.680   6.150
 9686POPC   GL267022  26.930  23.783   6.150
 9686POPC   C1A67023  26.816  23.709   6.450
 9686POPC   D2A67024  26.861  23.688   6.750
 9686POPC   C3A67025  26.862  23.736   7.050
 9686POPC   C4A67026  26.775  23.704   7.350
 9686POPC   C1B67027  27.000  23.870   6.450
 9686POPC   C2B67028  27.052  23.844   6.750
 9686POPC   C3B67029  27.046  23.882   7.050
 9686POPC   C4B67030  27.032  23.860   7.350
 9687POPC   NC367031   2.035  30.699   5.550
 9687POPC   PO467032   1.944  30.672   5.850
 9687POPC   GL167033   1.987  30.739   6.150
 9687POPC   GL267034   2.119  30.705   6.150
 9687POPC   C1A67035   2.004  30.706   6.450
 9687POPC   D2A67036   1.971  30.731   6.750
 9687POPC   C3A67037   1.988  30.701   7.050
 9687POPC   C4A67038   1.944  30.706   7.350
 9687POPC   C1B67039   2.217  30.715   6.450
 9687POPC   C2B67040   2.204  30.727   6.750
 9687POPC   C3B67041   2.228  30.717   7.050
 9687POPC   C4B67042   2.250  30.654   7.350
 9688POPC   NC367043  24.505  10.479   5.550
 9688POPC   PO467044  24.450  10.479   5.850
 9688POPC   GL167045  24.484  10.513   6.150
 9688POPC   GL267046  24.397  10.575   6.150
 9688POPC   C1A67047  24.511  10.475   6.450
 9688POPC   D2A67048  24.503  10.515   6.750
 9688POPC   C3A67049  24.516  10.549   7.050
 9688POPC   C4A67050  24.514  10.522   7.350
 9688POPC   C1B67051  24.223  10.643   6.450
 9688POPC   C2B67052  24.260  10.622   6.750
 9688POPC   C3B67053  24.258  10.582   7.050
 9688POPC   C4B67054  24.296  10.637   7.350
 9689POPC   NC367055  43.884  39.221   5.550
 9689POPC   PO467056  43.846  39.256   5.850
 9689POPC   GL167057  43.909  39.227   6.150
 9689POPC   GL267058  43.923  39.369   6.150
 9689POPC   C1A67059  43.839  39.196   6.450
 9689POPC   D2A67060  43.860  39.239   6.750
 9689POPC   C3A67061  43.896  39.225   7.050
 9689POPC   C4A67062  43.849  39.230   7.350
 9689POPC   C1B67063  44.045  39.432   6.450
 9689POPC   C2B67064  44.010  39.413   6.750
 9689POPC   C3B67065  43.980  39.447   7.050
 9689POPC   C4B67066  44.009  39.466   7.350
 9690POPC   NC367067  25.235  30.655   5.550
 9690POPC   PO467068  25.236  30.723   5.850
 9690POPC   GL167069  25.279  30.671   6.150
 9690POPC   GL267070  25.314  30.850   6.150
 9690POPC   C1A67071  25.248  30.737   6.450
 9690POPC   D2A67072  25.249  30.656   6.750
 9690POPC   C3A67073  25.260  30.691   7.050
 9690POPC   C4A67074  25.314  30.713   7.350
 9690POPC   C1B67075  25.260  30.981   6.450
 9690POPC   C2B67076  25.348  30.961   6.750
 9690POPC   C3B67077  25.325  30.912   7.050
 9690POPC   C4B67078  25.341  30.921   7.350
 9691POPC   NC367079  24.450   0.450   5.550
 9691POPC   PO467080  24.517   0.427   5.850
 9691POPC   GL167081  24.506   0.473   6.150
 9691POPC   GL267082  24.563   0.317   6.150
 9691POPC   C1A67083  24.464   0.469   6.450
 9691POPC   D2A67084  24.509   0.413   6.750
 9691POPC   C3A67085  24.527   0.394   7.050
 9691POPC   C4A67086  24.523   0.415   7.350
 9691POPC   C1B67087  24.565   0.212   6.450
 9691POPC   C2B67088  24.605   0.167   6.750
 9691POPC   C3B67089  24.521   0.184   7.050
 9691POPC   C4B67090  24.576   0.153   7.350
 9692POPC   NC367091  39.215  41.576   5.550
 9692POPC   PO467092  39.271  41.600   5.850
 9692POPC   GL167093  39.239  41.569   6.150
 9692POPC   GL267094  39.369  41.560   6.150
 9692POPC   C1A67095  39.238  41.524   6.450
 9692POPC   D2A67096  39.223  41.545   6.750
 9692POPC   C3A67097  39.237  41.513   7.050
 9692POPC   C4A67098  39.278  41.525   7.350
 9692POPC   C1B67099  39.455  41.552   6.450
 9692POPC   C2B67100  39.522  41.520   6.750
 9692POPC   C3B67101  39.512  41.525   7.050
 9692POPC   C4B67102  39.460  41.590   7.350
 9693POPC   NC367103  27.603  23.681   5.550
 9693POPC   PO467104  27.587  23.665   5.850
 9693POPC   GL167105  27.594  23.691   6.150
 9693POPC   GL267106  27.555  23.601   6.150
 9693POPC   C1A67107  27.607  23.679   6.450
 9693POPC   D2A67108  27.572  23.711   6.750
 9693POPC   C3A67109  27.546  23.738   7.050
 9693POPC   C4A67110  27.571  23.699   7.350
 9693POPC   C1B67111  27.529  23.488   6.450
 9693POPC   C2B67112  27.442  23.475   6.750
 9693POPC   C3B67113  27.483  23.453   7.050
 9693POPC   C4B67114  27.505  23.468   7.350
 9694POPC   NC367115  36.874  24.481   5.550
 9694POPC   PO467116  36.949  24.503   5.850
 9694POPC   GL167117  36.919  24.538   6.150
 9694POPC   GL267118  36.777  24.578   6.150
 9694POPC   C1A67119  36.933  24.470   6.450
 9694POPC   D2A67120  36.939  24.517   6.750
 9694POPC   C3A67121  36.888  24.458   7.050
 9694POPC   C4A67122  36.877  24.445   7.350
 9694POPC   C1B67123  36.671  24.605   6.450
 9694POPC   C2B67124  36.651  24.597   6.750
 9694POPC   C3B67125  36.713  24.653   7.050
 9694POPC   C4B67126  36.729  24.611   7.350
 9695POPC   NC367127  40.798  33.830   5.550
 9695POPC   PO467128  40.737  33.767   5.850
 9695POPC   GL167129  40.823  33.799   6.150
 9695POPC   GL267130  40.709  33.805   6.150
 9695POPC   C1A67131  40.820  33.831   6.450
 9695POPC   D2A67132  40.754  33.795   6.750
 9695POPC   C3A67133  40.827  33.762   7.050
 9695POPC   C4A67134  40.815  33.756   7.350
 9695POPC   C1B67135  40.546  33.906   6.450
 9695POPC   C2B67136  40.529  33.908   6.750
 9695POPC   C3B67137  40.527  33.901   7.050
 9695POPC   C4B67138  40.535  33.926   7.350
 9696POPC   NC367139   1.197  18.260   5.550
 9696POPC   PO467140   1.228  18.305   5.850
 9696POPC   GL167141   1.229  18.269   6.150
 9696POPC   GL267142   1.055  18.263   6.150
 9696POPC   C1A67143   1.225  18.328   6.450
 9696POPC   D2A67144   1.248  18.251   6.750
 9696POPC   C3A67145   1.235  18.259   7.050
 9696POPC   C4A67146   1.243  18.307   7.350
 9696POPC   C1B67147   1.022  18.202   6.450
 9696POPC   C2B67148   0.982  18.259   6.750
 9696POPC   C3B67149   0.994  18.193   7.050
 9696POPC   C4B67150   0.961  18.258   7.350
 9697POPC   NC367151  11.341  26.054   5.550
 9697POPC   PO467152  11.345  25.995   5.850
 9697POPC   GL167153  11.253  26.028   6.150
 9697POPC   GL267154  11.185  25.942   6.150
 9697POPC   C1A67155  11.345  26.023   6.450
 9697POPC   D2A67156  11.264  26.011   6.750
 9697POPC   C3A67157  11.299  26.044   7.050
 9697POPC   C4A67158  11.282  26.021   7.350
 9697POPC   C1B67159  11.088  25.882   6.450
 9697POPC   C2B67160  11.075  25.895   6.750
 9697POPC   C3B67161  11.106  25.923   7.050
 9697POPC   C4B67162  11.104  25.931   7.350
 9698POPC   NC367163   4.290  22.894   5.550
 9698POPC   PO467164   4.271  22.915   5.850
 9698POPC   GL167165   4.354  22.963   6.150
 9698POPC   GL267166   4.428  22.936   6.150
 9698POPC   C1A67167   4.296  22.963   6.450
 9698POPC   D2A67168   4.276  22.923   6.750
 9698POPC   C3A67169   4.285  22.967   7.050
 9698POPC   C4A67170   4.353  22.966   7.350
 9698POPC   C1B67171   4.574  22.887   6.450
 9698POPC   C2B67172   4.543  22.965   6.750
 9698POPC   C3B67173   4.575  22.891   7.050
 9698POPC   C4B67174   4.523  22.953   7.350
 9699POPC   NC367175  22.134   6.606   5.550
 9699POPC   PO467176  22.150   6.630   5.850
 9699POPC   GL167177  22.155   6.606   6.150
 9699POPC   GL267178  22.261   6.605   6.150
 9699POPC   C1A67179  22.194   6.667   6.450
 9699POPC   D2A67180  22.114   6.682   6.750
 9699POPC   C3A67181  22.145   6.601   7.050
 9699POPC   C4A67182  22.178   6.649   7.350
 9699POPC   C1B67183  22.437   6.597   6.450
 9699POPC   C2B67184  22.443   6.558   6.750
 9699POPC   C3B67185  22.392   6.552   7.050
 9699POPC   C4B67186  22.400   6.516   7.350
 9700POPC   NC367187  27.573  28.373   5.550
 9700POPC   PO467188  27.581  28.347   5.850
 9700POPC   GL167189  27.643  28.386   6.150
 9700POPC   GL267190  27.655  28.230   6.150
 9700POPC   C1A67191  27.606  28.397   6.450
 9700POPC   D2A67192  27.591  28.381   6.750
 9700POPC   C3A67193  27.599  28.400   7.050
 9700POPC   C4A67194  27.546  28.362   7.350
 9700POPC   C1B67195  27.608  28.142   6.450
 9700POPC   C2B67196  27.593  28.077   6.750
 9700POPC   C3B67197  27.658  28.137   7.050
 9700POPC   C4B67198  27.576  28.090   7.350
 9701POPC   NC367199  32.235  27.605   5.550
 9701POPC   PO467200  32.211  27.559   5.850
 9701POPC   GL167201  32.291  27.630   6.150
 9701POPC   GL267202  32.099  27.622   6.150
 9701POPC   C1A67203  32.244  27.558   6.450
 9701POPC   D2A67204  32.240  27.634   6.750
 9701POPC   C3A67205  32.245  27.585   7.050
 9701POPC   C4A67206  32.226  27.634   7.350
 9701POPC   C1B67207  31.973  27.556   6.450
 9701POPC   C2B67208  31.954  27.518   6.750
 9701POPC   C3B67209  32.048  27.592   7.050
 9701POPC   C4B67210  31.969  27.545   7.350
 9702POPC   NC367211   3.546  24.511   5.550
 9702POPC   PO467212   3.519  24.513   5.850
 9702POPC   GL167213   3.565  24.442   6.150
 9702POPC   GL267214   3.436  24.377   6.150
 9702POPC   C1A67215   3.502  24.476   6.450
 9702POPC   D2A67216   3.497  24.449   6.750
 9702POPC   C3A67217   3.561  24.513   7.050
 9702POPC   C4A67218   3.532  24.474   7.350
 9702POPC   C1B67219   3.466  24.242   6.450
 9702POPC   C2B67220   3.419  24.303   6.750
 9702POPC   C3B67221   3.407  24.228   7.050
 9702POPC   C4B67222   3.443  24.295   7.350
 9703POPC   NC367223  43.869  18.311   5.550
 9703POPC   PO467224  43.861  18.290   5.850
 9703POPC   GL167225  43.841  18.299   6.150
 9703POPC   GL267226  43.877  18.391   6.150
 9703POPC   C1A67227  43.849  18.285   6.450
 9703POPC   D2A67228  43.914  18.261   6.750
 9703POPC   C3A67229  43.861  18.332   7.050
 9703POPC   C4A67230  43.859  18.285   7.350
 9703POPC   C1B67231  43.831  18.558   6.450
 9703POPC   C2B67232  43.847  18.492   6.750
 9703POPC   C3B67233  43.757  18.504   7.050
 9703POPC   C4B67234  43.801  18.545   7.350
 9704POPC   NC367235   2.765  18.299   5.550
 9704POPC   PO467236   2.809  18.322   5.850
 9704POPC   GL167237   2.737  18.319   6.150
 9704POPC   GL267238   2.919  18.308   6.150
 9704POPC   C1A67239   2.801  18.333   6.450
 9704POPC   D2A67240   2.755  18.308   6.750
 9704POPC   C3A67241   2.756  18.242   7.050
 9704POPC   C4A67242   2.722  18.309   7.350
 9704POPC   C1B67243   2.977  18.314   6.450
 9704POPC   C2B67244   3.003  18.314   6.750
 9704POPC   C3B67245   3.023  18.378   7.050
 9704POPC   C4B67246   2.984  18.368   7.350
 9705POPC   NC367247  15.184  29.185   5.550
 9705POPC   PO467248  15.167  29.115   5.850
 9705POPC   GL167249  15.219  29.171   6.150
 9705POPC   GL267250  15.333  29.128   6.150
 9705POPC   C1A67251  15.187  29.182   6.450
 9705POPC   D2A67252  15.193  29.155   6.750
 9705POPC   C3A67253  15.191  29.145   7.050
 9705POPC   C4A67254  15.221  29.182   7.350
 9705POPC   C1B67255  15.447  29.134   6.450
 9705POPC   C2B67256  15.478  29.162   6.750
 9705POPC   C3B67257  15.383  29.124   7.050
 9705POPC   C4B67258  15.430  29.157   7.350
 9706POPC   NC367259   6.625  13.676   5.550
 9706POPC   PO467260   6.599  13.583   5.850
 9706POPC   GL167261   6.675  13.635   6.150
 9706POPC   GL267262   6.787  13.638   6.150
 9706POPC   C1A67263   6.645  13.672   6.450
 9706POPC   D2A67264   6.600  13.632   6.750
 9706POPC   C3A67265   6.609  13.619   7.050
 9706POPC   C4A67266   6.649  13.603   7.350
 9706POPC   C1B67267   6.928  13.588   6.450
 9706POPC   C2B67268   6.905  13.595   6.750
 9706POPC   C3B67269   6.853  13.643   7.050
 9706POPC   C4B67270   6.936  13.610   7.350
 9707POPC   NC367271   4.359  23.727   5.550
 9707POPC   PO467272   4.317  23.743   5.850
 9707POPC   GL167273   4.292  23.682   6.150
 9707POPC   GL267274   4.313  23.868   6.150
 9707POPC   C1A67275   4.304  23.705   6.450
 9707POPC   D2A67276   4.278  23.752   6.750
 9707POPC   C3A67277   4.311  23.709   7.050
 9707POPC   C4A67278   4.321  23.709   7.350
 9707POPC   C1B67279   4.328  23.987   6.450
 9707POPC   C2B67280   4.326  23.997   6.750
 9707POPC   C3B67281   4.368  23.999   7.050
 9707POPC   C4B67282   4.296  24.005   7.350
 9708POPC   NC367283  17.538  17.547   5.550
 9708POPC   PO467284  17.498  17.539   5.850
 9708POPC   GL167285  17.553  17.513   6.150
 9708POPC   GL267286  17.599  17.613   6.150
 9708POPC   C1A67287  17.531  17.534   6.450
 9708POPC   D2A67288  17.542  17.475   6.750
 9708POPC   C3A67289  17.494  17.524   7.050
 9708POPC   C4A67290  17.517  17.550   7.350
 9708POPC   C1B67291  17.739  17.621   6.450
 9708POPC   C2B67292  17.699  17.641   6.750
 9708POPC   C3B67293  17.737  17.626   7.050
 9708POPC   C4B67294  17.673  17.646   7.350
 9709POPC   NC367295  22.126  33.835   5.550
 9709POPC   PO467296  22.173  33.771   5.850
 9709POPC   GL167297  22.210  33.776   6.150
 9709POPC   GL267298  22.231  33.942   6.150
 9709POPC   C1A67299  22.184  33.805   6.450
 9709POPC   D2A67300  22.162  33.830   6.750
 9709POPC   C3A67301  22.116  33.796   7.050
 9709POPC   C4A67302  22.176  33.848   7.350
 9709POPC   C1B67303  22.310  34.057   6.450
 9709POPC   C2B67304  22.323  34.024   6.750
 9709POPC   C3B67305  22.321  33.973   7.050
 9709POPC   C4B67306  22.236  33.976   7.350
 9710POPC   NC367307   8.163  35.304   5.550
 9710POPC   PO467308   8.178  35.327   5.850
 9710POPC   GL167309   8.169  35.330   6.150
 9710POPC   GL267310   8.193  35.442   6.150
 9710POPC   C1A67311   8.201  35.392   6.450
 9710POPC   D2A67312   8.210  35.302   6.750
 9710POPC   C3A67313   8.219  35.361   7.050
 9710POPC   C4A67314   8.182  35.323   7.350
 9710POPC   C1B67315   8.149  35.625   6.450
 9710POPC   C2B67316   8.180  35.566   6.750
 9710POPC   C3B67317   8.147  35.648   7.050
 9710POPC   C4B67318   8.213  35.629   7.350
 9711POPC   NC367319  11.273  40.832   5.550
 9711POPC   PO467320  11.286  40.742   5.850
 9711POPC   GL167321  11.260  40.737   6.150
 9711POPC   GL267322  11.203  40.810   6.150
 9711POPC   C1A67323  11.317  40.781   6.450
 9711POPC   D2A67324  11.271  40.804   6.750
 9711POPC   C3A67325  11.254  40.809   7.050
 9711POPC   C4A67326  11.309  40.781   7.350
 9711POPC   C1B67327  11.056  40.882   6.450
 9711POPC   C2B67328  11.060  40.895   6.750
 9711POPC   C3B67329  11.094  40.946   7.050
 9711POPC   C4B67330  11.073  40.878   7.350
 9712POPC   NC367331  39.275  24.456   5.550
 9712POPC   PO467332  39.243  24.499   5.850
 9712POPC   GL167333  39.265  24.532   6.150
 9712POPC   GL267334  39.327  24.461   6.150
 9712POPC   C1A67335  39.258  24.514   6.450
 9712POPC   D2A67336  39.251  24.484   6.750
 9712POPC   C3A67337  39.192  24.475   7.050
 9712POPC   C4A67338  39.210  24.500   7.350
 9712POPC   C1B67339  39.506  24.561   6.450
 9712POPC   C2B67340  39.528  24.487   6.750
 9712POPC   C3B67341  39.465  24.521   7.050
 9712POPC   C4B67342  39.468  24.548   7.350
 9713POPC   NC367343  35.370  27.613   5.550
 9713POPC   PO467344  35.324  27.615   5.850
 9713POPC   GL167345  35.386  27.587   6.150
 9713POPC   GL267346  35.463  27.596   6.150
 9713POPC   C1A67347  35.358  27.642   6.450
 9713POPC   D2A67348  35.306  27.608   6.750
 9713POPC   C3A67349  35.347  27.642   7.050
 9713POPC   C4A67350  35.315  27.615   7.350
 9713POPC   C1B67351  35.584  27.661   6.450
 9713POPC   C2B67352  35.612  27.721   6.750
 9713POPC   C3B67353  35.576  27.723   7.050
 9713POPC   C4B67354  35.561  27.671   7.350
 9714POPC   NC367355   3.530  13.602   5.550
 9714POPC   PO467356   3.536  13.671   5.850
 9714POPC   GL167357   3.518  13.640   6.150
 9714POPC   GL267358   3.385  13.662   6.150
 9714POPC   C1A67359   3.502  13.606   6.450
 9714POPC   D2A67360   3.588  13.642   6.750
 9714POPC   C3A67361   3.570  13.594   7.050
 9714POPC   C4A67362   3.508  13.604   7.350
 9714POPC   C1B67363   3.329  13.676   6.450
 9714POPC   C2B67364   3.294  13.633   6.750
 9714POPC   C3B67365   3.258  13.661   7.050
 9714POPC   C4B67366   3.300  13.714   7.350
 9715POPC   NC367367  15.944  38.413   5.550
 9715POPC   PO467368  15.910  38.466   5.850
 9715POPC   GL167369  15.966  38.478   6.150
 9715POPC   GL267370  16.081  38.413   6.150
 9715POPC   C1A67371  16.003  38.407   6.450
 9715POPC   D2A67372  15.959  38.460   6.750
 9715POPC   C3A67373  15.996  38.447   7.050
 9715POPC   C4A67374  15.987  38.481   7.350
 9715POPC   C1B67375  16.243  38.487   6.450
 9715POPC   C2B67376  16.173  38.475   6.750
 9715POPC   C3B67377  16.217  38.432   7.050
 9715POPC   C4B67378  16.178  38.449   7.350
 9716POPC   NC367379   1.986  32.218   5.550
 9716POPC   PO467380   2.003  32.234   5.850
 9716POPC   GL167381   1.960  32.226   6.150
 9716POPC   GL267382   2.042  32.141   6.150
 9716POPC   C1A67383   2.037  32.206   6.450
 9716POPC   D2A67384   1.953  32.295   6.750
 9716POPC   C3A67385   2.029  32.230   7.050
 9716POPC   C4A67386   2.024  32.232   7.350
 9716POPC   C1B67387   2.046  31.968   6.450
 9716POPC   C2B67388   2.066  32.041   6.750
 9716POPC   C3B67389   1.973  32.043   7.050
 9716POPC   C4B67390   2.036  32.032   7.350
 9717POPC   NC367391  12.810  13.618   5.550
 9717POPC   PO467392  12.899  13.655   5.850
 9717POPC   GL167393  12.851  13.599   6.150
 9717POPC   GL267394  12.720  13.592   6.150
 9717POPC   C1A67395  12.811  13.672   6.450
 9717POPC   D2A67396  12.874  13.675   6.750
 9717POPC   C3A67397  12.806  13.597   7.050
 9717POPC   C4A67398  12.876  13.595   7.350
 9717POPC   C1B67399  12.612  13.550   6.450
 9717POPC   C2B67400  12.635  13.532   6.750
 9717POPC   C3B67401  12.590  13.546   7.050
 9717POPC   C4B67402  12.640  13.524   7.350
 9718POPC   NC367403   5.889  29.111   5.550
 9718POPC   PO467404   5.873  29.116   5.850
 9718POPC   GL167405   5.907  29.174   6.150
 9718POPC   GL267406   5.944  29.283   6.150
 9718POPC   C1A67407   5.830  29.139   6.450
 9718POPC   D2A67408   5.871  29.152   6.750
 9718POPC   C3A67409   5.882  29.182   7.050
 9718POPC   C4A67410   5.901  29.154   7.350
 9718POPC   C1B67411   5.935  29.326   6.450
 9718POPC   C2B67412   5.933  29.383   6.750
 9718POPC   C3B67413   6.014  29.391   7.050
 9718POPC   C4B67414   5.949  29.362   7.350
 9719POPC   NC367415  30.649   5.820   5.550
 9719POPC   PO467416  30.655   5.827   5.850
 9719POPC   GL167417  30.746   5.900   6.150
 9719POPC   GL267418  30.738   6.003   6.150
 9719POPC   C1A67419  30.663   5.887   6.450
 9719POPC   D2A67420  30.680   5.881   6.750
 9719POPC   C3A67421  30.700   5.864   7.050
 9719POPC   C4A67422  30.675   5.835   7.350
 9719POPC   C1B67423  30.872   6.007   6.450
 9719POPC   C2B67424  30.831   6.071   6.750
 9719POPC   C3B67425  30.853   6.010   7.050
 9719POPC   C4B67426  30.847   6.024   7.350
 9720POPC   NC367427  20.619  36.132   5.550
 9720POPC   PO467428  20.569  36.118   5.850
 9720POPC   GL167429  20.576  36.124   6.150
 9720POPC   GL267430  20.771  36.204   6.150
 9720POPC   C1A67431  20.575  36.110   6.450
 9720POPC   D2A67432  20.568  36.115   6.750
 9720POPC   C3A67433  20.572  36.155   7.050
 9720POPC   C4A67434  20.605  36.156   7.350
 9720POPC   C1B67435  20.794  36.195   6.450
 9720POPC   C2B67436  20.792  36.245   6.750
 9720POPC   C3B67437  20.849  36.272   7.050
 9720POPC   C4B67438  20.820  36.209   7.350
 9721POPC   NC367439  14.369  27.551   5.550
 9721POPC   PO467440  14.433  27.631   5.850
 9721POPC   GL167441  14.438  27.588   6.150
 9721POPC   GL267442  14.505  27.635   6.150
 9721POPC   C1A67443  14.422  27.603   6.450
 9721POPC   D2A67444  14.445  27.610   6.750
 9721POPC   C3A67445  14.433  27.545   7.050
 9721POPC   C4A67446  14.427  27.619   7.350
 9721POPC   C1B67447  14.679  27.630   6.450
 9721POPC   C2B67448  14.651  27.566   6.750
 9721POPC   C3B67449  14.635  27.555   7.050
 9721POPC   C4B67450  14.637  27.566   7.350
 9722POPC   NC367451  28.378  22.899   5.550
 9722POPC   PO467452  28.368  22.912   5.850
 9722POPC   GL167453  28.322  22.939   6.150
 9722POPC   GL267454  28.219  22.955   6.150
 9722POPC   C1A67455  28.326  22.907   6.450
 9722POPC   D2A67456  28.394  22.963   6.750
 9722POPC   C3A67457  28.374  22.900   7.050
 9722POPC   C4A67458  28.329  22.912   7.350
 9722POPC   C1B67459  28.110  22.977   6.450
 9722POPC   C2B67460  28.116  22.959   6.750
 9722POPC   C3B67461  28.137  23.028   7.050
 9722POPC   C4B67462  28.165  23.007   7.350
 9723POPC   NC367463  29.911  29.153   5.550
 9723POPC   PO467464  29.896  29.140   5.850
 9723POPC   GL167465  29.961  29.179   6.150
 9723POPC   GL267466  29.863  29.198   6.150
 9723POPC   C1A67467  29.888  29.178   6.450
 9723POPC   D2A67468  29.929  29.185   6.750
 9723POPC   C3A67469  29.935  29.148   7.050
 9723POPC   C4A67470  29.949  29.127   7.350
 9723POPC   C1B67471  29.788  29.322   6.450
 9723POPC   C2B67472  29.755  29.310   6.750
 9723POPC   C3B67473  29.717  29.294   7.050
 9723POPC   C4B67474  29.761  29.316   7.350
 9724POPC   NC367475  34.617  20.646   5.550
 9724POPC   PO467476  34.567  20.646   5.850
 9724POPC   GL167477  34.556  20.589   6.150
 9724POPC   GL267478  34.557  20.756   6.150
 9724POPC   C1A67479  34.530  20.624   6.450
 9724POPC   D2A67480  34.536  20.587   6.750
 9724POPC   C3A67481  34.596  20.573   7.050
 9724POPC   C4A67482  34.600  20.616   7.350
 9724POPC   C1B67483  34.494  20.828   6.450
 9724POPC   C2B67484  34.450  20.823   6.750
 9724POPC   C3B67485  34.423  20.848   7.050
 9724POPC   C4B67486  34.421  20.855   7.350
 9725POPC   NC367487   2.004  19.010   5.550
 9725POPC   PO467488   2.035  19.078   5.850
 9725POPC   GL167489   1.941  19.094   6.150
 9725POPC   GL267490   2.057  18.955   6.150
 9725POPC   C1A67491   2.031  19.013   6.450
 9725POPC   D2A67492   1.988  19.017   6.750
 9725POPC   C3A67493   1.960  19.045   7.050
 9725POPC   C4A67494   2.005  19.051   7.350
 9725POPC   C1B67495   2.069  18.846   6.450
 9725POPC   C2B67496   2.142  18.794   6.750
 9725POPC   C3B67497   2.152  18.825   7.050
 9725POPC   C4B67498   2.132  18.821   7.350
 9726POPC   NC367499  23.727  31.474   5.550
 9726POPC   PO467500  23.753  31.453   5.850
 9726POPC   GL167501  23.741  31.472   6.150
 9726POPC   GL267502  23.575  31.458   6.150
 9726POPC   C1A67503  23.750  31.471   6.450
 9726POPC   D2A67504  23.717  31.424   6.750
 9726POPC   C3A67505  23.717  31.491   7.050
 9726POPC   C4A67506  23.761  31.449   7.350
 9726POPC   C1B67507  23.452  31.504   6.450
 9726POPC   C2B67508  23.432  31.494   6.750
 9726POPC   C3B67509  23.473  31.481   7.050
 9726POPC   C4B67510  23.438  31.442   7.350
 9727POPC   NC367511  41.519  35.346   5.550
 9727POPC   PO467512  41.580  35.358   5.850
 9727POPC   GL167513  41.536  35.360   6.150
 9727POPC   GL267514  41.407  35.320   6.150
 9727POPC   C1A67515  41.557  35.326   6.450
 9727POPC   D2A67516  41.607  35.321   6.750
 9727POPC   C3A67517  41.547  35.350   7.050
 9727POPC   C4A67518  41.594  35.311   7.350
 9727POPC   C1B67519  41.390  35.245   6.450
 9727POPC   C2B67520  41.379  35.214   6.750
 9727POPC   C3B67521  41.345  35.208   7.050
 9727POPC   C4B67522  41.316  35.224   7.350
 9728POPC   NC367523  32.232  37.700   5.550
 9728POPC   PO467524  32.260  37.660   5.850
 9728POPC   GL167525  32.208  37.658   6.150
 9728POPC   GL267526  32.181  37.573   6.150
 9728POPC   C1A67527  32.291  37.678   6.450
 9728POPC   D2A67528  32.216  37.702   6.750
 9728POPC   C3A67529  32.242  37.695   7.050
 9728POPC   C4A67530  32.289  37.714   7.350
 9728POPC   C1B67531  32.058  37.521   6.450
 9728POPC   C2B67532  32.027  37.595   6.750
 9728POPC   C3B67533  31.993  37.582   7.050
 9728POPC   C4B67534  32.074  37.575   7.350
 9729POPC   NC367535  14.389  28.394   5.550
 9729POPC   PO467536  14.422  28.336   5.850
 9729POPC   GL167537  14.394  28.379   6.150
 9729POPC   GL267538  14.352  28.291   6.150
 9729POPC   C1A67539  14.418  28.330   6.450
 9729POPC   D2A67540  14.380  28.383   6.750
 9729POPC   C3A67541  14.434  28.395   7.050
 9729POPC   C4A67542  14.371  28.362   7.350
 9729POPC   C1B67543  14.408  28.099   6.450
 9729POPC   C2B67544  14.342  28.126   6.750
 9729POPC   C3B67545  14.349  28.104   7.050
 9729POPC   C4B67546  14.349  28.077   7.350
 9730POPC   NC367547   5.913   5.863   5.550
 9730POPC   PO467548   5.834   5.902   5.850
 9730POPC   GL167549   5.911   5.827   6.150
 9730POPC   GL267550   5.861   5.715   6.150
 9730POPC   C1A67551   5.888   5.885   6.450
 9730POPC   D2A67552   5.855   5.857   6.750
 9730POPC   C3A67553   5.835   5.844   7.050
 9730POPC   C4A67554   5.898   5.894   7.350
 9730POPC   C1B67555   5.742   5.674   6.450
 9730POPC   C2B67556   5.828   5.660   6.750
 9730POPC   C3B67557   5.753   5.605   7.050
 9730POPC   C4B67558   5.768   5.661   7.350
 9731POPC   NC367559  39.212  43.919   5.550
 9731POPC   PO467560  39.210  43.866   5.850
 9731POPC   GL167561  39.220  43.919   6.150
 9731POPC   GL267562  39.110  43.959   6.150
 9731POPC   C1A67563  39.187  43.873   6.450
 9731POPC   D2A67564  39.206  43.888   6.750
 9731POPC   C3A67565  39.277  43.846   7.050
 9731POPC   C4A67566  39.257  43.839   7.350
 9731POPC   C1B67567  38.988  44.058   6.450
 9731POPC   C2B67568  39.034  44.016   6.750
 9731POPC   C3B67569  38.980  44.063   7.050
 9731POPC   C4B67570  39.075  44.036   7.350
 9732POPC   NC367571   5.862  16.753   5.550
 9732POPC   PO467572   5.905  16.701   5.850
 9732POPC   GL167573   5.866  16.693   6.150
 9732POPC   GL267574   5.805  16.805   6.150
 9732POPC   C1A67575   5.877  16.714   6.450
 9732POPC   D2A67576   5.897  16.715   6.750
 9732POPC   C3A67577   5.901  16.718   7.050
 9732POPC   C4A67578   5.876  16.734   7.350
 9732POPC   C1B67579   5.744  16.935   6.450
 9732POPC   C2B67580   5.753  16.922   6.750
 9732POPC   C3B67581   5.759  16.951   7.050
 9732POPC   C4B67582   5.737  16.942   7.350
 9733POPC   NC367583  25.995  33.056   5.550
 9733POPC   PO467584  26.042  32.977   5.850
 9733POPC   GL167585  26.050  32.975   6.150
 9733POPC   GL267586  25.909  32.992   6.150
 9733POPC   C1A67587  26.066  33.067   6.450
 9733POPC   D2A67588  26.056  33.070   6.750
 9733POPC   C3A67589  26.042  33.029   7.050
 9733POPC   C4A67590  26.056  33.059   7.350
 9733POPC   C1B67591  25.776  33.039   6.450
 9733POPC   C2B67592  25.819  33.013   6.750
 9733POPC   C3B67593  25.805  33.015   7.050
 9733POPC   C4B67594  25.835  33.034   7.350
 9734POPC   NC367595  37.676  31.462   5.550
 9734POPC   PO467596  37.630  31.500   5.850
 9734POPC   GL167597  37.697  31.455   6.150
 9734POPC   GL267598  37.682  31.341   6.150
 9734POPC   C1A67599  37.716  31.445   6.450
 9734POPC   D2A67600  37.658  31.489   6.750
 9734POPC   C3A67601  37.679  31.436   7.050
 9734POPC   C4A67602  37.674  31.464   7.350
 9734POPC   C1B67603  37.694  31.270   6.450
 9734POPC   C2B67604  37.679  31.209   6.750
 9734POPC   C3B67605  37.692  31.202   7.050
 9734POPC   C4B67606  37.714  31.260   7.350
 9735POPC   NC367607  12.836  42.339   5.550
 9735POPC   PO467608  12.864  42.313   5.850
 9735POPC   GL167609  12.899  42.306   6.150
 9735POPC   GL267610  12.762  42.295   6.150
 9735POPC   C1A67611  12.890  42.319   6.450
 9735POPC   D2A67612  12.901  42.379   6.750
 9735POPC   C3A67613  12.837  42.331   7.050
 9735POPC   C4A67614  12.886  42.374   7.350
 9735POPC   C1B67615  12.634  42.258   6.450
 9735POPC   C2B67616  12.591  42.315   6.750
 9735POPC   C3B67617  12.641  42.315   7.050
 9735POPC   C4B67618  12.594  42.273   7.350
 9736POPC   NC367619  33.815   8.935   5.550
 9736POPC   PO467620  33.843   9.016   5.850
 9736POPC   GL167621  33.827   8.993   6.150
 9736POPC   GL267622  33.875   9.068   6.150
 9736POPC   C1A67623  33.763   8.948   6.450
 9736POPC   D2A67624  33.762   8.985   6.750
 9736POPC   C3A67625  33.772   8.990   7.050
 9736POPC   C4A67626  33.823   9.018   7.350
 9736POPC   C1B67627  33.861   9.185   6.450
 9736POPC   C2B67628  33.830   9.253   6.750
 9736POPC   C3B67629  33.871   9.194   7.050
 9736POPC   C4B67630  33.914   9.251   7.350
 9737POPC   NC367631   8.932  22.150   5.550
 9737POPC   PO467632   8.965  22.141   5.850
 9737POPC   GL167633   8.977  22.119   6.150
 9737POPC   GL267634   8.892  22.140   6.150
 9737POPC   C1A67635   8.967  22.140   6.450
 9737POPC   D2A67636   9.020  22.158   6.750
 9737POPC   C3A67637   8.957  22.133   7.050
 9737POPC   C4A67638   8.957  22.114   7.350
 9737POPC   C1B67639   8.689  22.076   6.450
 9737POPC   C2B67640   8.741  22.065   6.750
 9737POPC   C3B67641   8.700  22.089   7.050
 9737POPC   C4B67642   8.686  22.125   7.350
 9738POPC   NC367643  26.005  32.250   5.550
 9738POPC   PO467644  26.026  32.294   5.850
 9738POPC   GL167645  26.002  32.238   6.150
 9738POPC   GL267646  26.126  32.154   6.150
 9738POPC   C1A67647  26.073  32.231   6.450
 9738POPC   D2A67648  25.996  32.275   6.750
 9738POPC   C3A67649  26.028  32.225   7.050
 9738POPC   C4A67650  26.028  32.221   7.350
 9738POPC   C1B67651  26.163  32.108   6.450
 9738POPC   C2B67652  26.191  32.068   6.750
 9738POPC   C3B67653  26.185  32.042   7.050
 9738POPC   C4B67654  26.238  32.062   7.350
 9739POPC   NC367655  43.113  29.916   5.550
 9739POPC   PO467656  43.094  29.946   5.850
 9739POPC   GL167657  43.106  29.908   6.150
 9739POPC   GL267658  43.235  29.950   6.150
 9739POPC   C1A67659  43.150  29.878   6.450
 9739POPC   D2A67660  43.105  29.874   6.750
 9739POPC   C3A67661  43.100  29.944   7.050
 9739POPC   C4A67662  43.125  29.899   7.350
 9739POPC   C1B67663  43.337  29.930   6.450
 9739POPC   C2B67664  43.356  29.980   6.750
 9739POPC   C3B67665  43.362  29.970   7.050
 9739POPC   C4B67666  43.333  29.960   7.350
 9740POPC   NC367667  19.031  29.916   5.550
 9740POPC   PO467668  19.068  29.969   5.850
 9740POPC   GL167669  19.034  29.896   6.150
 9740POPC   GL267670  18.890  29.934   6.150
 9740POPC   C1A67671  19.084  29.908   6.450
 9740POPC   D2A67672  19.054  29.903   6.750
 9740POPC   C3A67673  19.104  29.896   7.050
 9740POPC   C4A67674  19.029  29.909   7.350
 9740POPC   C1B67675  18.851  29.910   6.450
 9740POPC   C2B67676  18.845  29.821   6.750
 9740POPC   C3B67677  18.804  29.816   7.050
 9740POPC   C4B67678  18.822  29.879   7.350
 9741POPC   NC367679  29.162  38.421   5.550
 9741POPC   PO467680  29.172  38.463   5.850
 9741POPC   GL167681  29.107  38.479   6.150
 9741POPC   GL267682  29.089  38.550   6.150
 9741POPC   C1A67683  29.147  38.504   6.450
 9741POPC   D2A67684  29.116  38.501   6.750
 9741POPC   C3A67685  29.152  38.426   7.050
 9741POPC   C4A67686  29.137  38.442   7.350
 9741POPC   C1B67687  28.968  38.684   6.450
 9741POPC   C2B67688  28.967  38.711   6.750
 9741POPC   C3B67689  28.976  38.699   7.050
 9741POPC   C4B67690  29.011  38.687   7.350
 9742POPC   NC367691  40.793  27.636   5.550
 9742POPC   PO467692  40.734  27.579   5.850
 9742POPC   GL167693  40.754  27.611   6.150
 9742POPC   GL267694  40.676  27.534   6.150
 9742POPC   C1A67695  40.810  27.608   6.450
 9742POPC   D2A67696  40.779  27.637   6.750
 9742POPC   C3A67697  40.777  27.619   7.050
 9742POPC   C4A67698  40.770  27.619   7.350
 9742POPC   C1B67699  40.583  27.480   6.450
 9742POPC   C2B67700  40.522  27.459   6.750
 9742POPC   C3B67701  40.525  27.457   7.050
 9742POPC   C4B67702  40.535  27.439   7.350
 9743POPC   NC367703  24.472   9.746   5.550
 9743POPC   PO467704  24.526   9.739   5.850
 9743POPC   GL167705  24.495   9.749   6.150
 9743POPC   GL267706  24.510   9.619   6.150
 9743POPC   C1A67707  24.527   9.743   6.450
 9743POPC   D2A67708  24.475   9.770   6.750
 9743POPC   C3A67709  24.489   9.733   7.050
 9743POPC   C4A67710  24.463   9.748   7.350
 9743POPC   C1B67711  24.590   9.533   6.450
 9743POPC   C2B67712  24.604   9.539   6.750
 9743POPC   C3B67713  24.563   9.512   7.050
 9743POPC   C4B67714  24.567   9.482   7.350
 9744POPC   NC367715   6.649  33.014   5.550
 9744POPC   PO467716   6.675  33.021   5.850
 9744POPC   GL167717   6.619  32.977   6.150
 9744POPC   GL267718   6.725  33.182   6.150
 9744POPC   C1A67719   6.648  33.038   6.450
 9744POPC   D2A67720   6.663  33.000   6.750
 9744POPC   C3A67721   6.634  32.987   7.050
 9744POPC   C4A67722   6.599  33.065   7.350
 9744POPC   C1B67723   6.740  33.213   6.450
 9744POPC   C2B67724   6.704  33.241   6.750
 9744POPC   C3B67725   6.748  33.222   7.050
 9744POPC   C4B67726   6.692  33.289   7.350
 9745POPC   NC367727  26.020  22.127   5.550
 9745POPC   PO467728  26.047  22.162   5.850
 9745POPC   GL167729  26.081  22.128   6.150
 9745POPC   GL267730  26.061  22.055   6.150
 9745POPC   C1A67731  26.052  22.166   6.450
 9745POPC   D2A67732  26.087  22.201   6.750
 9745POPC   C3A67733  26.047  22.145   7.050
 9745POPC   C4A67734  26.019  22.160   7.350
 9745POPC   C1B67735  26.015  21.910   6.450
 9745POPC   C2B67736  25.984  21.917   6.750
 9745POPC   C3B67737  26.017  21.921   7.050
 9745POPC   C4B67738  25.950  21.946   7.350
 9746POPC   NC367739   4.307  12.030   5.550
 9746POPC   PO467740   4.355  12.095   5.850
 9746POPC   GL167741   4.311  12.100   6.150
 9746POPC   GL267742   4.385  12.184   6.150
 9746POPC   C1A67743   4.268  12.032   6.450
 9746POPC   D2A67744   4.299  12.053   6.750
 9746POPC   C3A67745   4.322  12.065   7.050
 9746POPC   C4A67746   4.347  12.030   7.350
 9746POPC   C1B67747   4.481  12.190   6.450
 9746POPC   C2B67748   4.473  12.264   6.750
 9746POPC   C3B67749   4.487  12.172   7.050
 9746POPC   C4B67750   4.547  12.193   7.350
 9747POPC   NC367751  10.527  36.100   5.550
 9747POPC   PO467752  10.516  36.149   5.850
 9747POPC   GL167753  10.497  36.154   6.150
 9747POPC   GL267754  10.482  36.068   6.150
 9747POPC   C1A67755  10.568  36.162   6.450
 9747POPC   D2A67756  10.478  36.101   6.750
 9747POPC   C3A67757  10.549  36.101   7.050
 9747POPC   C4A67758  10.568  36.147   7.350
 9747POPC   C1B67759  10.364  35.982   6.450
 9747POPC   C2B67760  10.322  35.921   6.750
 9747POPC   C3B67761  10.376  35.947   7.050
 9747POPC   C4B67762  10.374  35.929   7.350
 9748POPC   NC367763  12.075  11.293   5.550
 9748POPC   PO467764  12.072  11.272   5.850
 9748POPC   GL167765  12.052  11.276   6.150
 9748POPC   GL267766  11.977  11.307   6.150
 9748POPC   C1A67767  12.032  11.283   6.450
 9748POPC   D2A67768  12.064  11.307   6.750
 9748POPC   C3A67769  12.122  11.279   7.050
 9748POPC   C4A67770  12.066  11.299   7.350
 9748POPC   C1B67771  11.830  11.271   6.450
 9748POPC   C2B67772  11.859  11.180   6.750
 9748POPC   C3B67773  11.827  11.185   7.050
 9748POPC   C4B67774  11.833  11.218   7.350
 9749POPC   NC367775  22.987   5.827   5.550
 9749POPC   PO467776  22.969   5.897   5.850
 9749POPC   GL167777  22.921   5.896   6.150
 9749POPC   GL267778  22.836   5.922   6.150
 9749POPC   C1A67779  22.956   5.838   6.450
 9749POPC   D2A67780  22.986   5.876   6.750
 9749POPC   C3A67781  22.891   5.917   7.050
 9749POPC   C4A67782  22.950   5.845   7.350
 9749POPC   C1B67783  22.677   5.930   6.450
 9749POPC   C2B67784  22.662   5.956   6.750
 9749POPC   C3B67785  22.705   5.955   7.050
 9749POPC   C4B67786  22.723   6.005   7.350
 9750POPC   NC367787  29.872  33.070   5.550
 9750POPC   PO467788  29.968  32.987   5.850
 9750POPC   GL167789  29.887  32.984   6.150
 9750POPC   GL267790  29.938  32.904   6.150
 9750POPC   C1A67791  29.952  33.065   6.450
 9750POPC   D2A67792  29.943  32.979   6.750
 9750POPC   C3A67793  29.943  32.991   7.050
 9750POPC   C4A67794  29.966  32.977   7.350
 9750POPC   C1B67795  29.962  32.773   6.450
 9750POPC   C2B67796  29.996  32.782   6.750
 9750POPC   C3B67797  29.939  32.820   7.050
 9750POPC   C4B67798  29.973  32.827   7.350
 9751POPC   NC367799  35.321  19.100   5.550
 9751POPC   PO467800  35.321  19.108   5.850
 9751POPC   GL167801  35.358  19.074   6.150
 9751POPC   GL267802  35.444  19.131   6.150
 9751POPC   C1A67803  35.388  19.021   6.450
 9751POPC   D2A67804  35.394  19.047   6.750
 9751POPC   C3A67805  35.327  19.097   7.050
 9751POPC   C4A67806  35.394  19.067   7.350
 9751POPC   C1B67807  35.534  19.165   6.450
 9751POPC   C2B67808  35.555  19.232   6.750
 9751POPC   C3B67809  35.566  19.152   7.050
 9751POPC   C4B67810  35.559  19.183   7.350
 9752POPC   NC367811  23.755   9.767   5.550
 9752POPC   PO467812  23.756   9.751   5.850
 9752POPC   GL167813  23.711   9.737   6.150
 9752POPC   GL267814  23.561   9.774   6.150
 9752POPC   C1A67815  23.727   9.713   6.450
 9752POPC   D2A67816  23.760   9.767   6.750
 9752POPC   C3A67817  23.667   9.746   7.050
 9752POPC   C4A67818  23.725   9.779   7.350
 9752POPC   C1B67819  23.515   9.745   6.450
 9752POPC   C2B67820  23.484   9.722   6.750
 9752POPC   C3B67821  23.479   9.694   7.050
 9752POPC   C4B67822  23.444   9.769   7.350
 9753POPC   NC367823  27.555   5.828   5.550
 9753POPC   PO467824  27.571   5.830   5.850
 9753POPC   GL167825  27.605   5.823   6.150
 9753POPC   GL267826  27.688   5.946   6.150
 9753POPC   C1A67827  27.625   5.859   6.450
 9753POPC   D2A67828  27.591   5.839   6.750
 9753POPC   C3A67829  27.576   5.856   7.050
 9753POPC   C4A67830  27.638   5.895   7.350
 9753POPC   C1B67831  27.746   6.011   6.450
 9753POPC   C2B67832  27.751   6.022   6.750
 9753POPC   C3B67833  27.832   6.062   7.050
 9753POPC   C4B67834  27.817   6.031   7.350
 9754POPC   NC367835  40.760  19.105   5.550
 9754POPC   PO467836  40.741  19.075   5.850
 9754POPC   GL167837  40.737  19.019   6.150
 9754POPC   GL267838  40.856  19.123   6.150
 9754POPC   C1A67839  40.739  19.010   6.450
 9754POPC   D2A67840  40.784  19.055   6.750
 9754POPC   C3A67841  40.783  19.028   7.050
 9754POPC   C4A67842  40.806  19.021   7.350
 9754POPC   C1B67843  40.929  19.266   6.450
 9754POPC   C2B67844  40.992  19.227   6.750
 9754POPC   C3B67845  40.956  19.233   7.050
 9754POPC   C4B67846  40.930  19.230   7.350
 9755POPC   NC367847  15.957   5.055   5.550
 9755POPC   PO467848  15.931   5.068   5.850
 9755POPC   GL167849  15.923   5.054   6.150
 9755POPC   GL267850  16.040   5.063   6.150
 9755POPC   C1A67851  15.931   5.125   6.450
 9755POPC   D2A67852  15.976   5.120   6.750
 9755POPC   C3A67853  15.971   5.078   7.050
 9755POPC   C4A67854  15.969   5.085   7.350
 9755POPC   C1B67855  16.172   5.061   6.450
 9755POPC   C2B67856  16.175   5.023   6.750
 9755POPC   C3B67857  16.232   5.088   7.050
 9755POPC   C4B67858  16.214   5.024   7.350
 9756POPC   NC367859  31.489   9.761   5.550
 9756POPC   PO467860  31.514   9.722   5.850
 9756POPC   GL167861  31.499   9.745   6.150
 9756POPC   GL267862  31.621   9.764   6.150
 9756POPC   C1A67863  31.433   9.738   6.450
 9756POPC   D2A67864  31.471   9.779   6.750
 9756POPC   C3A67865  31.451   9.748   7.050
 9756POPC   C4A67866  31.430   9.782   7.350
 9756POPC   C1B67867  31.727   9.849   6.450
 9756POPC   C2B67868  31.755   9.813   6.750
 9756POPC   C3B67869  31.739   9.847   7.050
 9756POPC   C4B67870  31.702   9.877   7.350
 9757POPC   NC367871  36.869  43.114   5.550
 9757POPC   PO467872  36.950  43.111   5.850
 9757POPC   GL167873  36.893  43.133   6.150
 9757POPC   GL267874  36.926  42.992   6.150
 9757POPC   C1A67875  36.863  43.078   6.450
 9757POPC   D2A67876  36.863  43.096   6.750
 9757POPC   C3A67877  36.897  43.150   7.050
 9757POPC   C4A67878  36.923  43.088   7.350
 9757POPC   C1B67879  36.987  42.885   6.450
 9757POPC   C2B67880  36.995  42.886   6.750
 9757POPC   C3B67881  36.962  42.878   7.050
 9757POPC   C4B67882  36.938  42.909   7.350
 9758POPC   NC367883  40.017   1.209   5.550
 9758POPC   PO467884  40.029   1.219   5.850
 9758POPC   GL167885  40.031   1.197   6.150
 9758POPC   GL267886  40.036   1.084   6.150
 9758POPC   C1A67887  39.975   1.232   6.450
 9758POPC   D2A67888  40.027   1.171   6.750
 9758POPC   C3A67889  39.978   1.229   7.050
 9758POPC   C4A67890  39.968   1.221   7.350
 9758POPC   C1B67891  40.042   0.920   6.450
 9758POPC   C2B67892  40.052   0.931   6.750
 9758POPC   C3B67893  40.007   0.997   7.050
 9758POPC   C4B67894  40.050   1.013   7.350
 9759POPC   NC367895  32.294   5.850   5.550
 9759POPC   PO467896  32.218   5.885   5.850
 9759POPC   GL167897  32.202   5.860   6.150
 9759POPC   GL267898  32.342   5.942   6.150
 9759POPC   C1A67899  32.270   5.913   6.450
 9759POPC   D2A67900  32.297   5.852   6.750
 9759POPC   C3A67901  32.229   5.842   7.050
 9759POPC   C4A67902  32.297   5.837   7.350
 9759POPC   C1B67903  32.476   5.914   6.450
 9759POPC   C2B67904  32.481   5.925   6.750
 9759POPC   C3B67905  32.505   5.944   7.050
 9759POPC   C4B67906  32.504   5.974   7.350
 9760POPC   NC367907   1.971  24.442   5.550
 9760POPC   PO467908   1.984  24.507   5.850
 9760POPC   GL167909   1.957  24.457   6.150
 9760POPC   GL267910   2.071  24.406   6.150
 9760POPC   C1A67911   1.957  24.529   6.450
 9760POPC   D2A67912   2.019  24.482   6.750
 9760POPC   C3A67913   1.959  24.465   7.050
 9760POPC   C4A67914   2.029  24.534   7.350
 9760POPC   C1B67915   2.221  24.367   6.450
 9760POPC   C2B67916   2.169  24.370   6.750
 9760POPC   C3B67917   2.225  24.388   7.050
 9760POPC   C4B67918   2.173  24.379   7.350
 9761POPC   NC367919   2.005   1.236   5.550
 9761POPC   PO467920   1.970   1.241   5.850
 9761POPC   GL167921   2.026   1.202   6.150
 9761POPC   GL267922   2.152   1.237   6.150
 9761POPC   C1A67923   1.973   1.259   6.450
 9761POPC   D2A67924   1.982   1.235   6.750
 9761POPC   C3A67925   1.961   1.246   7.050
 9761POPC   C4A67926   1.961   1.188   7.350
 9761POPC   C1B67927   2.274   1.271   6.450
 9761POPC   C2B67928   2.227   1.253   6.750
 9761POPC   C3B67929   2.245   1.299   7.050
 9761POPC   C4B67930   2.249   1.230   7.350
 9762POPC   NC367931  26.013  23.750   5.550
 9762POPC   PO467932  25.997  23.668   5.850
 9762POPC   GL167933  26.068  23.683   6.150
 9762POPC   GL267934  25.945  23.577   6.150
 9762POPC   C1A67935  26.073  23.713   6.450
 9762POPC   D2A67936  26.047  23.733   6.750
 9762POPC   C3A67937  26.025  23.712   7.050
 9762POPC   C4A67938  26.074  23.673   7.350
 9762POPC   C1B67939  25.956  23.447   6.450
 9762POPC   C2B67940  25.893  23.473   6.750
 9762POPC   C3B67941  25.930  23.465   7.050
 9762POPC   C4B67942  25.966  23.471   7.350
 9763POPC   NC367943  36.112  29.173   5.550
 9763POPC   PO467944  36.082  29.099   5.850
 9763POPC   GL167945  36.155  29.120   6.150
 9763POPC   GL267946  35.985  29.158   6.150
 9763POPC   C1A67947  36.102  29.177   6.450
 9763POPC   D2A67948  36.114  29.132   6.750
 9763POPC   C3A67949  36.160  29.163   7.050
 9763POPC   C4A67950  36.128  29.125   7.350
 9763POPC   C1B67951  35.915  29.213   6.450
 9763POPC   C2B67952  35.839  29.238   6.750
 9763POPC   C3B67953  35.846  29.197   7.050
 9763POPC   C4B67954  35.884  29.232   7.350
 9764POPC   NC367955  35.315  12.825   5.550
 9764POPC   PO467956  35.348  12.822   5.850
 9764POPC   GL167957  35.345  12.813   6.150
 9764POPC   GL267958  35.334  13.003   6.150
 9764POPC   C1A67959  35.374  12.831   6.450
 9764POPC   D2A67960  35.351  12.882   6.750
 9764POPC   C3A67961  35.400  12.842   7.050
 9764POPC   C4A67962  35.398  12.855   7.350
 9764POPC   C1B67963  35.338  13.133   6.450
 9764POPC   C2B67964  35.351  13.133   6.750
 9764POPC   C3B67965  35.334  13.064   7.050
 9764POPC   C4B67966  35.345  13.087   7.350
 9765POPC   NC367967   7.467   2.764   5.550
 9765POPC   PO467968   7.435   2.803   5.850
 9765POPC   GL167969   7.389   2.812   6.150
 9765POPC   GL267970   7.298   2.697   6.150
 9765POPC   C1A67971   7.445   2.759   6.450
 9765POPC   D2A67972   7.427   2.738   6.750
 9765POPC   C3A67973   7.449   2.815   7.050
 9765POPC   C4A67974   7.427   2.729   7.350
 9765POPC   C1B67975   7.261   2.562   6.450
 9765POPC   C2B67976   7.251   2.565   6.750
 9765POPC   C3B67977   7.227   2.587   7.050
 9765POPC   C4B67978   7.254   2.568   7.350
 9766POPC   NC367979  21.383  26.068   5.550
 9766POPC   PO467980  21.423  26.015   5.850
 9766POPC   GL167981  21.414  26.067   6.150
 9766POPC   GL267982  21.253  25.976   6.150
 9766POPC   C1A67983  21.390  26.072   6.450
 9766POPC   D2A67984  21.411  25.998   6.750
 9766POPC   C3A67985  21.354  26.010   7.050
 9766POPC   C4A67986  21.355  26.067   7.350
 9766POPC   C1B67987  21.179  25.975   6.450
 9766POPC   C2B67988  21.154  25.899   6.750
 9766POPC   C3B67989  21.137  25.904   7.050
 9766POPC   C4B67990  21.157  25.955   7.350
 9767POPC   NC367991  24.497  22.908   5.550
 9767POPC   PO467992  24.538  22.913   5.850
 9767POPC   GL167993  24.520  22.969   6.150
 9767POPC   GL267994  24.593  22.944   6.150
 9767POPC   C1A67995  24.447  22.909   6.450
 9767POPC   D2A67996  24.527  22.901   6.750
 9767POPC   C3A67997  24.453  22.937   7.050
 9767POPC   C4A67998  24.475  22.972   7.350
 9767POPC   C1B67999  24.743  23.011   6.450
 9767POPC   C2B68000  24.687  22.959   6.750
 9767POPC   C3B68001  24.709  22.958   7.050
 9767POPC   C4B68002  24.742  23.022   7.350
 9768POPC   NC368003  30.695  21.363   5.550
 9768POPC   PO468004  30.721  21.353   5.850
 9768POPC   GL168005  30.680  21.374   6.150
 9768POPC   GL268006  30.676  21.224   6.150
 9768POPC   C1A68007  30.647  21.412   6.450
 9768POPC   D2A68008  30.700  21.418   6.750
 9768POPC   C3A68009  30.675  21.389   7.050
 9768POPC   C4A68010  30.722  21.385   7.350
 9768POPC   C1B68011  30.561  21.135   6.450
 9768POPC   C2B68012  30.653  21.107   6.750
 9768POPC   C3B68013  30.648  21.164   7.050
 9768POPC   C4B68014  30.584  21.191   7.350
 9769POPC   NC368015   7.421  36.079   5.550
 9769POPC   PO468016   7.432  36.105   5.850
 9769POPC   GL168017   7.393  36.176   6.150
 9769POPC   GL268018   7.584  36.102   6.150
 9769POPC   C1A68019   7.388  36.160   6.450
 9769POPC   D2A68020   7.372  36.157   6.750
 9769POPC   C3A68021   7.456  36.175   7.050
 9769POPC   C4A68022   7.399  36.083   7.350
 9769POPC   C1B68023   7.648  36.026   6.450
 9769POPC   C2B68024   7.664  36.017   6.750
 9769POPC   C3B68025   7.616  36.033   7.050
 9769POPC   C4B68026   7.669  36.078   7.350
 9770POPC   NC368027  28.345  30.676   5.550
 9770POPC   PO468028  28.372  30.730   5.850
 9770POPC   GL168029  28.398  30.674   6.150
 9770POPC   GL268030  28.461  30.581   6.150
 9770POPC   C1A68031  28.418  30.678   6.450
 9770POPC   D2A68032  28.368  30.674   6.750
 9770POPC   C3A68033  28.362  30.655   7.050
 9770POPC   C4A68034  28.334  30.743   7.350
 9770POPC   C1B68035  28.508  30.548   6.450
 9770POPC   C2B68036  28.499  30.518   6.750
 9770POPC   C3B68037  28.511  30.468   7.050
 9770POPC   C4B68038  28.523  30.460   7.350
 9771POPC   NC368039   5.071  29.881   5.550
 9771POPC   PO468040   5.075  29.935   5.850
 9771POPC   GL168041   5.076  29.937   6.150
 9771POPC   GL268042   4.939  29.841   6.150
 9771POPC   C1A68043   5.093  29.949   6.450
 9771POPC   D2A68044   5.081  29.943   6.750
 9771POPC   C3A68045   5.064  29.930   7.050
 9771POPC   C4A68046   5.110  29.946   7.350
 9771POPC   C1B68047   4.881  29.793   6.450
 9771POPC   C2B68048   4.886  29.779   6.750
 9771POPC   C3B68049   4.839  29.832   7.050
 9771POPC   C4B68050   4.875  29.773   7.350
 9772POPC   NC368051  22.957  10.567   5.550
 9772POPC   PO468052  22.945  10.544   5.850
 9772POPC   GL168053  22.954  10.486   6.150
 9772POPC   GL268054  22.937  10.657   6.150
 9772POPC   C1A68055  22.965  10.573   6.450
 9772POPC   D2A68056  22.909  10.542   6.750
 9772POPC   C3A68057  22.951  10.542   7.050
 9772POPC   C4A68058  22.926  10.561   7.350
 9772POPC   C1B68059  22.900  10.824   6.450
 9772POPC   C2B68060  22.906  10.781   6.750
 9772POPC   C3B68061  22.962  10.730   7.050
 9772POPC   C4B68062  22.920  10.783   7.350
 9773POPC   NC368063   8.948   0.482   5.550
 9773POPC   PO468064   8.984   0.399   5.850
 9773POPC   GL168065   9.012   0.416   6.150
 9773POPC   GL268066   8.827   0.437   6.150
 9773POPC   C1A68067   8.998   0.465   6.450
 9773POPC   D2A68068   8.991   0.424   6.750
 9773POPC   C3A68069   8.967   0.445   7.050
 9773POPC   C4A68070   9.015   0.439   7.350
 9773POPC   C1B68071   8.680   0.514   6.450
 9773POPC   C2B68072   8.734   0.466   6.750
 9773POPC   C3B68073   8.764   0.435   7.050
 9773POPC   C4B68074   8.769   0.493   7.350
 9774POPC   NC368075   4.281  24.536   5.550
 9774POPC   PO468076   4.298  24.489   5.850
 9774POPC   GL168077   4.341  24.532   6.150
 9774POPC   GL268078   4.267  24.357   6.150
 9774POPC   C1A68079   4.345  24.448   6.450
 9774POPC   D2A68080   4.275  24.451   6.750
 9774POPC   C3A68081   4.340  24.505   7.050
 9774POPC   C4A68082   4.341  24.513   7.350
 9774POPC   C1B68083   4.148  24.241   6.450
 9774POPC   C2B68084   4.220  24.248   6.750
 9774POPC   C3B68085   4.176  24.296   7.050
 9774POPC   C4B68086   4.218  24.266   7.350
 9775POPC   NC368087   5.100   6.687   5.550
 9775POPC   PO468088   5.094   6.618   5.850
 9775POPC   GL168089   5.073   6.649   6.150
 9775POPC   GL268090   5.060   6.749   6.150
 9775POPC   C1A68091   5.055   6.665   6.450
 9775POPC   D2A68092   5.067   6.604   6.750
 9775POPC   C3A68093   5.133   6.662   7.050
 9775POPC   C4A68094   5.118   6.691   7.350
 9775POPC   C1B68095   5.038   6.869   6.450
 9775POPC   C2B68096   5.040   6.894   6.750
 9775POPC   C3B68097   4.955   6.858   7.050
 9775POPC   C4B68098   5.044   6.834   7.350
 9776POPC   NC368099  16.717  15.221   5.550
 9776POPC   PO468100  16.722  15.225   5.850
 9776POPC   GL168101  16.778  15.151   6.150
 9776POPC   GL268102  16.872  15.093   6.150
 9776POPC   C1A68103  16.766  15.188   6.450
 9776POPC   D2A68104  16.731  15.176   6.750
 9776POPC   C3A68105  16.775  15.132   7.050
 9776POPC   C4A68106  16.751  15.225   7.350
 9776POPC   C1B68107  16.982  15.090   6.450
 9776POPC   C2B68108  16.965  15.042   6.750
 9776POPC   C3B68109  16.962  15.043   7.050
 9776POPC   C4B68110  16.982  15.096   7.350
 9777POPC   NC368111   1.198  26.839   5.550
 9777POPC   PO468112   1.232  26.801   5.850
 9777POPC   GL168113   1.263  26.795   6.150
 9777POPC   GL268114   1.297  26.792   6.150
 9777POPC   C1A68115   1.181  26.791   6.450
 9777POPC   D2A68116   1.232  26.813   6.750
 9777POPC   C3A68117   1.214  26.793   7.050
 9777POPC   C4A68118   1.263  26.769   7.350
 9777POPC   C1B68119   1.472  26.673   6.450
 9777POPC   C2B68120   1.429  26.705   6.750
 9777POPC   C3B68121   1.423  26.660   7.050
 9777POPC   C4B68122   1.430  26.694   7.350
 9778POPC   NC368123  21.345  34.551   5.550
 9778POPC   PO468124  21.357  34.537   5.850
 9778POPC   GL168125  21.400  34.620   6.150
 9778POPC   GL268126  21.369  34.446   6.150
 9778POPC   C1A68127  21.428  34.585   6.450
 9778POPC   D2A68128  21.355  34.563   6.750
 9778POPC   C3A68129  21.349  34.541   7.050
 9778POPC   C4A68130  21.435  34.534   7.350
 9778POPC   C1B68131  21.363  34.324   6.450
 9778POPC   C2B68132  21.382  34.301   6.750
 9778POPC   C3B68133  21.317  34.366   7.050
 9778POPC   C4B68134  21.311  34.353   7.350
 9779POPC   NC368135  15.946  36.894   5.550
 9779POPC   PO468136  15.992  36.925   5.850
 9779POPC   GL168137  15.964  36.925   6.150
 9779POPC   GL268138  16.081  36.875   6.150
 9779POPC   C1A68139  15.963  36.870   6.450
 9779POPC   D2A68140  15.977  36.939   6.750
 9779POPC   C3A68141  15.977  36.941   7.050
 9779POPC   C4A68142  15.950  36.927   7.350
 9779POPC   C1B68143  16.242  36.964   6.450
 9779POPC   C2B68144  16.188  36.981   6.750
 9779POPC   C3B68145  16.237  36.924   7.050
 9779POPC   C4B68146  16.252  36.941   7.350
 9780POPC   NC368147  19.053  40.025   5.550
 9780POPC   PO468148  19.079  39.977   5.850
 9780POPC   GL168149  19.083  39.970   6.150
 9780POPC   GL268150  18.933  40.080   6.150
 9780POPC   C1A68151  19.023  39.979   6.450
 9780POPC   D2A68152  19.101  39.994   6.750
 9780POPC   C3A68153  19.030  39.976   7.050
 9780POPC   C4A68154  19.036  39.996   7.350
 9780POPC   C1B68155  18.879  40.127   6.450
 9780POPC   C2B68156  18.893  40.193   6.750
 9780POPC   C3B68157  18.816  40.163   7.050
 9780POPC   C4B68158  18.881  40.194   7.350
 9781POPC   NC368159   4.354  36.168   5.550
 9781POPC   PO468160   4.290  36.097   5.850
 9781POPC   GL168161   4.280  36.093   6.150
 9781POPC   GL268162   4.165  36.085   6.150
 9781POPC   C1A68163   4.288  36.115   6.450
 9781POPC   D2A68164   4.325  36.164   6.750
 9781POPC   C3A68165   4.309  36.107   7.050
 9781POPC   C4A68166   4.356  36.114   7.350
 9781POPC   C1B68167   4.057  35.984   6.450
 9781POPC   C2B68168   4.128  36.029   6.750
 9781POPC   C3B68169   4.138  35.980   7.050
 9781POPC   C4B68170   4.109  35.988   7.350
 9782POPC   NC368171  37.639   7.402   5.550
 9782POPC   PO468172  37.638   7.453   5.850
 9782POPC   GL168173  37.692   7.398   6.150
 9782POPC   GL268174  37.679   7.510   6.150
 9782POPC   C1A68175  37.670   7.461   6.450
 9782POPC   D2A68176  37.672   7.388   6.750
 9782POPC   C3A68177  37.668   7.425   7.050
 9782POPC   C4A68178  37.648   7.422   7.350
 9782POPC   C1B68179  37.710   7.673   6.450
 9782POPC   C2B68180  37.765   7.685   6.750
 9782POPC   C3B68181  37.709   7.644   7.050
 9782POPC   C4B68182  37.734   7.629   7.350
 9783POPC   NC368183  18.290  35.333   5.550
 9783POPC   PO468184  18.316  35.339   5.850
 9783POPC   GL168185  18.277  35.375   6.150
 9783POPC   GL268186  18.282  35.438   6.150
 9783POPC   C1A68187  18.285  35.398   6.450
 9783POPC   D2A68188  18.299  35.398   6.750
 9783POPC   C3A68189  18.297  35.345   7.050
 9783POPC   C4A68190  18.240  35.314   7.350
 9783POPC   C1B68191  18.242  35.563   6.450
 9783POPC   C2B68192  18.212  35.617   6.750
 9783POPC   C3B68193  18.175  35.600   7.050
 9783POPC   C4B68194  18.157  35.595   7.350
 9784POPC   NC368195   3.517   3.556   5.550
 9784POPC   PO468196   3.561   3.533   5.850
 9784POPC   GL168197   3.564   3.504   6.150
 9784POPC   GL268198   3.615   3.472   6.150
 9784POPC   C1A68199   3.556   3.591   6.450
 9784POPC   D2A68200   3.538   3.579   6.750
 9784POPC   C3A68201   3.576   3.571   7.050
 9784POPC   C4A68202   3.559   3.588   7.350
 9784POPC   C1B68203   3.641   3.305   6.450
 9784POPC   C2B68204   3.617   3.280   6.750
 9784POPC   C3B68205   3.639   3.328   7.050
 9784POPC   C4B68206   3.612   3.330   7.350
 9785POPC   NC368207  15.937  28.398   5.550
 9785POPC   PO468208  15.992  28.332   5.850
 9785POPC   GL168209  15.913  28.412   6.150
 9785POPC   GL268210  15.897  28.263   6.150
 9785POPC   C1A68211  15.927  28.405   6.450
 9785POPC   D2A68212  15.987  28.350   6.750
 9785POPC   C3A68213  15.926  28.358   7.050
 9785POPC   C4A68214  15.948  28.359   7.350
 9785POPC   C1B68215  15.867  28.160   6.450
 9785POPC   C2B68216  15.874  28.118   6.750
 9785POPC   C3B68217  15.926  28.146   7.050
 9785POPC   C4B68218  15.934  28.172   7.350
 9786POPC   NC368219  20.641  30.711   5.550
 9786POPC   PO468220  20.586  30.740   5.850
 9786POPC   GL168221  20.652  30.703   6.150
 9786POPC   GL268222  20.523  30.785   6.150
 9786POPC   C1A68223  20.639  30.666   6.450
 9786POPC   D2A68224  20.631  30.691   6.750
 9786POPC   C3A68225  20.621  30.679   7.050
 9786POPC   C4A68226  20.625  30.659   7.350
 9786POPC   C1B68227  20.448  30.822   6.450
 9786POPC   C2B68228  20.392  30.863   6.750
 9786POPC   C3B68229  20.397  30.873   7.050
 9786POPC   C4B68230  20.443  30.820   7.350
 9787POPC   NC368231  27.557  26.034   5.550
 9787POPC   PO468232  27.553  26.015   5.850
 9787POPC   GL168233  27.603  26.038   6.150
 9787POPC   GL268234  27.616  25.923   6.150
 9787POPC   C1A68235  27.624  26.038   6.450
 9787POPC   D2A68236  27.621  26.046   6.750
 9787POPC   C3A68237  27.567  26.003   7.050
 9787POPC   C4A68238  27.558  26.054   7.350
 9787POPC   C1B68239  27.580  25.841   6.450
 9787POPC   C2B68240  27.543  25.829   6.750
 9787POPC   C3B68241  27.545  25.841   7.050
 9787POPC   C4B68242  27.533  25.839   7.350
 9788POPC   NC368243   5.054  32.984   5.550
 9788POPC   PO468244   5.125  33.057   5.850
 9788POPC   GL168245   5.134  32.992   6.150
 9788POPC   GL268246   5.003  32.967   6.150
 9788POPC   C1A68247   5.139  33.027   6.450
 9788POPC   D2A68248   5.051  33.067   6.750
 9788POPC   C3A68249   5.056  33.012   7.050
 9788POPC   C4A68250   5.106  32.996   7.350
 9788POPC   C1B68251   4.916  32.778   6.450
 9788POPC   C2B68252   4.987  32.846   6.750
 9788POPC   C3B68253   4.911  32.817   7.050
 9788POPC   C4B68254   4.978  32.840   7.350
 9789POPC   NC368255   1.248  34.534   5.550
 9789POPC   PO468256   1.203  34.611   5.850
 9789POPC   GL168257   1.240  34.562   6.150
 9789POPC   GL268258   1.329  34.560   6.150
 9789POPC   C1A68259   1.231  34.618   6.450
 9789POPC   D2A68260   1.257  34.614   6.750
 9789POPC   C3A68261   1.241  34.547   7.050
 9789POPC   C4A68262   1.258  34.563   7.350
 9789POPC   C1B68263   1.444  34.498   6.450
 9789POPC   C2B68264   1.460  34.462   6.750
 9789POPC   C3B68265   1.499  34.543   7.050
 9789POPC   C4B68266   1.462  34.500   7.350
 9790POPC   NC368267  23.746  19.014   5.550
 9790POPC   PO468268  23.758  19.097   5.850
 9790POPC   GL168269  23.729  19.047   6.150
 9790POPC   GL268270  23.600  19.128   6.150
 9790POPC   C1A68271  23.675  19.050   6.450
 9790POPC   D2A68272  23.720  19.072   6.750
 9790POPC   C3A68273  23.723  19.101   7.050
 9790POPC   C4A68274  23.677  19.094   7.350
 9790POPC   C1B68275  23.475  19.128   6.450
 9790POPC   C2B68276  23.509  19.181   6.750
 9790POPC   C3B68277  23.442  19.182   7.050
 9790POPC   C4B68278  23.529  19.110   7.350
 9791POPC   NC368279   1.248  20.605   5.550
 9791POPC   PO468280   1.238  20.584   5.850
 9791POPC   GL168281   1.232  20.620   6.150
 9791POPC   GL268282   1.321  20.654   6.150
 9791POPC   C1A68283   1.181  20.642   6.450
 9791POPC   D2A68284   1.166  20.607   6.750
 9791POPC   C3A68285   1.196  20.602   7.050
 9791POPC   C4A68286   1.237  20.656   7.350
 9791POPC   C1B68287   1.398  20.731   6.450
 9791POPC   C2B68288   1.441  20.687   6.750
 9791POPC   C3B68289   1.386  20.777   7.050
 9791POPC   C4B68290   1.459  20.708   7.350
 9792POPC   NC368291   3.560  37.682   5.550
 9792POPC   PO468292   3.504  37.679   5.850
 9792POPC   GL168293   3.586  37.712   6.150
 9792POPC   GL268294   3.607  37.697   6.150
 9792POPC   C1A68295   3.580  37.699   6.450
 9792POPC   D2A68296   3.573  37.710   6.750
 9792POPC   C3A68297   3.510  37.684   7.050
 9792POPC   C4A68298   3.495  37.659   7.350
 9792POPC   C1B68299   3.745  37.824   6.450
 9792POPC   C2B68300   3.783  37.808   6.750
 9792POPC   C3B68301   3.761  37.749   7.050
 9792POPC   C4B68302   3.725  37.838   7.350
 9793POPC   NC368303   1.959  33.071   5.550
 9793POPC   PO468304   1.982  32.978   5.850
 9793POPC   GL168305   1.962  33.015   6.150
 9793POPC   GL268306   1.870  33.054   6.150
 9793POPC   C1A68307   1.986  33.028   6.450
 9793POPC   D2A68308   1.998  33.027   6.750
 9793POPC   C3A68309   2.025  33.000   7.050
 9793POPC   C4A68310   1.950  32.989   7.350
 9793POPC   C1B68311   1.701  33.045   6.450
 9793POPC   C2B68312   1.742  33.067   6.750
 9793POPC   C3B68313   1.701  33.061   7.050
 9793POPC   C4B68314   1.693  33.041   7.350
 9794POPC   NC368315  11.259  20.641   5.550
 9794POPC   PO468316  11.319  20.653   5.850
 9794POPC   GL168317  11.277  20.632   6.150
 9794POPC   GL268318  11.349  20.466   6.150
 9794POPC   C1A68319  11.262  20.627   6.450
 9794POPC   D2A68320  11.278  20.609   6.750
 9794POPC   C3A68321  11.334  20.631   7.050
 9794POPC   C4A68322  11.328  20.643   7.350
 9794POPC   C1B68323  11.259  20.391   6.450
 9794POPC   C2B68324  11.341  20.314   6.750
 9794POPC   C3B68325  11.257  20.355   7.050
 9794POPC   C4B68326  11.307  20.397   7.350
 9795POPC   NC368327  40.780  22.149   5.550
 9795POPC   PO468328  40.795  22.152   5.850
 9795POPC   GL168329  40.808  22.131   6.150
 9795POPC   GL268330  40.808  22.025   6.150
 9795POPC   C1A68331  40.798  22.179   6.450
 9795POPC   D2A68332  40.826  22.150   6.750
 9795POPC   C3A68333  40.802  22.116   7.050
 9795POPC   C4A68334  40.810  22.139   7.350
 9795POPC   C1B68335  40.889  21.951   6.450
 9795POPC   C2B68336  40.862  21.944   6.750
 9795POPC   C3B68337  40.889  21.883   7.050
 9795POPC   C4B68338  40.825  21.967   7.350
 9796POPC   NC368339  41.509   2.726   5.550
 9796POPC   PO468340  41.572   2.776   5.850
 9796POPC   GL168341  41.595   2.786   6.150
 9796POPC   GL268342  41.624   2.893   6.150
 9796POPC   C1A68343  41.584   2.741   6.450
 9796POPC   D2A68344  41.574   2.733   6.750
 9796POPC   C3A68345  41.595   2.797   7.050
 9796POPC   C4A68346  41.554   2.720   7.350
 9796POPC   C1B68347  41.714   2.990   6.450
 9796POPC   C2B68348  41.671   2.933   6.750
 9796POPC   C3B68349  41.729   2.957   7.050
 9796POPC   C4B68350  41.683   2.935   7.350
 9797POPC   NC368351  15.164  44.648   5.550
 9797POPC   PO468352  15.228  44.663   5.850
 9797POPC   GL168353  15.179  44.672   6.150
 9797POPC   GL268354  15.208  44.743   6.150
 9797POPC   C1A68355  15.172  44.616   6.450
 9797POPC   D2A68356  15.157  44.665   6.750
 9797POPC   C3A68357  15.212  44.654   7.050
 9797POPC   C4A68358  15.210  44.695   7.350
 9797POPC   C1B68359  15.333  44.915   6.450
 9797POPC   C2B68360  15.246  44.867   6.750
 9797POPC   C3B68361  15.330  44.860   7.050
 9797POPC   C4B68362  15.282  44.864   7.350
 9798POPC   NC368363   8.981  34.622   5.550
 9798POPC   PO468364   9.017  34.551   5.850
 9798POPC   GL168365   8.969  34.566   6.150
 9798POPC   GL268366   9.110  34.568   6.150
 9798POPC   C1A68367   8.993  34.545   6.450
 9798POPC   D2A68368   8.991  34.536   6.750
 9798POPC   C3A68369   8.969  34.598   7.050
 9798POPC   C4A68370   8.992  34.574   7.350
 9798POPC   C1B68371   9.251  34.530   6.450
 9798POPC   C2B68372   9.171  34.533   6.750
 9798POPC   C3B68373   9.201  34.490   7.050
 9798POPC   C4B68374   9.231  34.506   7.350
 9799POPC   NC368375  15.140  43.895   5.550
 9799POPC   PO468376  15.135  43.931   5.850
 9799POPC   GL168377  15.184  43.919   6.150
 9799POPC   GL268378  15.289  43.884   6.150
 9799POPC   C1A68379  15.134  43.866   6.450
 9799POPC   D2A68380  15.195  43.851   6.750
 9799POPC   C3A68381  15.210  43.919   7.050
 9799POPC   C4A68382  15.224  43.877   7.350
 9799POPC   C1B68383  15.402  43.880   6.450
 9799POPC   C2B68384  15.451  43.891   6.750
 9799POPC   C3B68385  15.432  43.893   7.050
 9799POPC   C4B68386  15.410  43.875   7.350
 9800POPC   NC368387   5.099  19.086   5.550
 9800POPC   PO468388   5.114  19.027   5.850
 9800POPC   GL168389   5.117  19.024   6.150
 9800POPC   GL268390   5.190  19.117   6.150
 9800POPC   C1A68391   5.110  19.048   6.450
 9800POPC   D2A68392   5.138  19.107   6.750
 9800POPC   C3A68393   5.132  19.100   7.050
 9800POPC   C4A68394   5.133  19.085   7.350
 9800POPC   C1B68395   5.369  19.108   6.450
 9800POPC   C2B68396   5.364  19.098   6.750
 9800POPC   C3B68397   5.387  19.146   7.050
 9800POPC   C4B68398   5.374  19.120   7.350
 9801POPC   NC368399  37.642  35.372   5.550
 9801POPC   PO468400  37.690  35.323   5.850
 9801POPC   GL168401  37.707  35.307   6.150
 9801POPC   GL268402  37.716  35.499   6.150
 9801POPC   C1A68403  37.643  35.399   6.450
 9801POPC   D2A68404  37.689  35.311   6.750
 9801POPC   C3A68405  37.702  35.366   7.050
 9801POPC   C4A68406  37.674  35.302   7.350
 9801POPC   C1B68407  37.680  35.634   6.450
 9801POPC   C2B68408  37.713  35.576   6.750
 9801POPC   C3B68409  37.700  35.582   7.050
 9801POPC   C4B68410  37.715  35.651   7.350
 9802POPC   NC368411  22.150  27.544   5.550
 9802POPC   PO468412  22.117  27.625   5.850
 9802POPC   GL168413  22.148  27.636   6.150
 9802POPC   GL268414  22.001  27.599   6.150
 9802POPC   C1A68415  22.194  27.557   6.450
 9802POPC   D2A68416  22.177  27.591   6.750
 9802POPC   C3A68417  22.205  27.545   7.050
 9802POPC   C4A68418  22.203  27.602   7.350
 9802POPC   C1B68419  21.915  27.568   6.450
 9802POPC   C2B68420  21.938  27.626   6.750
 9802POPC   C3B68421  21.934  27.585   7.050
 9802POPC   C4B68422  21.892  27.558   7.350
 9803POPC   NC368423  32.272  29.132   5.550
 9803POPC   PO468424  32.278  29.124   5.850
 9803POPC   GL168425  32.244  29.177   6.150
 9803POPC   GL268426  32.203  29.295   6.150
 9803POPC   C1A68427  32.203  29.122   6.450
 9803POPC   D2A68428  32.266  29.153   6.750
 9803POPC   C3A68429  32.288  29.190   7.050
 9803POPC   C4A68430  32.288  29.127   7.350
 9803POPC   C1B68431  32.215  29.360   6.450
 9803POPC   C2B68432  32.201  29.364   6.750
 9803POPC   C3B68433  32.187  29.441   7.050
 9803POPC   C4B68434  32.271  29.439   7.350
 9804POPC   NC368435   1.188  40.019   5.550
 9804POPC   PO468436   1.216  39.961   5.850
 9804POPC   GL168437   1.195  40.029   6.150
 9804POPC   GL268438   1.075  39.985   6.150
 9804POPC   C1A68439   1.222  40.039   6.450
 9804POPC   D2A68440   1.204  40.049   6.750
 9804POPC   C3A68441   1.215  40.041   7.050
 9804POPC   C4A68442   1.248  39.999   7.350
 9804POPC   C1B68443   0.996  40.013   6.450
 9804POPC   C2B68444   0.917  40.080   6.750
 9804POPC   C3B68445   0.949  40.028   7.050
 9804POPC   C4B68446   0.986  40.085   7.350
 9805POPC   NC368447   8.239  39.218   5.550
 9805POPC   PO468448   8.246  39.271   5.850
 9805POPC   GL168449   8.164  39.248   6.150
 9805POPC   GL268450   8.261  39.087   6.150
 9805POPC   C1A68451   8.202  39.198   6.450
 9805POPC   D2A68452   8.160  39.188   6.750
 9805POPC   C3A68453   8.168  39.209   7.050
 9805POPC   C4A68454   8.192  39.266   7.350
 9805POPC   C1B68455   8.283  38.982   6.450
 9805POPC   C2B68456   8.200  38.940   6.750
 9805POPC   C3B68457   8.270  38.962   7.050
 9805POPC   C4B68458   8.208  38.972   7.350
 9806POPC   NC368459  19.851   8.167   5.550
 9806POPC   PO468460  19.809   8.147   5.850
 9806POPC   GL168461  19.804   8.205   6.150
 9806POPC   GL268462  19.709   8.189   6.150
 9806POPC   C1A68463  19.850   8.207   6.450
 9806POPC   D2A68464  19.883   8.199   6.750
 9806POPC   C3A68465  19.799   8.206   7.050
 9806POPC   C4A68466  19.800   8.212   7.350
 9806POPC   C1B68467  19.634   8.131   6.450
 9806POPC   C2B68468  19.590   8.201   6.750
 9806POPC   C3B68469  19.546   8.219   7.050
 9806POPC   C4B68470  19.593   8.160   7.350
 9807POPC   NC368471   3.502  19.027   5.550
 9807POPC   PO468472   3.585  19.010   5.850
 9807POPC   GL168473   3.552  19.032   6.150
 9807POPC   GL268474   3.533  18.969   6.150
 9807POPC   C1A68475   3.528  19.037   6.450
 9807POPC   D2A68476   3.568  19.069   6.750
 9807POPC   C3A68477   3.564  19.041   7.050
 9807POPC   C4A68478   3.519  19.053   7.350
 9807POPC   C1B68479   3.450  18.798   6.450
 9807POPC   C2B68480   3.534  18.846   6.750
 9807POPC   C3B68481   3.523  18.817   7.050
 9807POPC   C4B68482   3.497  18.860   7.350
 9808POPC   NC368483  41.540  11.274   5.550
 9808POPC   PO468484  41.573  11.340   5.850
 9808POPC   GL168485  41.587  11.310   6.150
 9808POPC   GL268486  41.525  11.212   6.150
 9808POPC   C1A68487  41.522  11.311   6.450
 9808POPC   D2A68488  41.526  11.292   6.750
 9808POPC   C3A68489  41.556  11.337   7.050
 9808POPC   C4A68490  41.595  11.307   7.350
 9808POPC   C1B68491  41.495  11.034   6.450
 9808POPC   C2B68492  41.468  11.050   6.750
 9808POPC   C3B68493  41.459  11.071   7.050
 9808POPC   C4B68494  41.486  11.086   7.350
 9809POPC   NC368495  26.786   1.960   5.550
 9809POPC   PO468496  26.848   1.962   5.850
 9809POPC   GL168497  26.842   2.036   6.150
 9809POPC   GL268498  26.826   2.158   6.150
 9809POPC   C1A68499  26.788   2.002   6.450
 9809POPC   D2A68500  26.785   1.959   6.750
 9809POPC   C3A68501  26.768   1.958   7.050
 9809POPC   C4A68502  26.864   2.021   7.350
 9809POPC   C1B68503  26.915   2.184   6.450
 9809POPC   C2B68504  26.926   2.219   6.750
 9809POPC   C3B68505  26.894   2.179   7.050
 9809POPC   C4B68506  26.892   2.257   7.350
 9810POPC   NC368507  21.379   0.409   5.550
 9810POPC   PO468508  21.417   0.420   5.850
 9810POPC   GL168509  21.342   0.466   6.150
 9810POPC   GL268510  21.244   0.469   6.150
 9810POPC   C1A68511  21.390   0.442   6.450
 9810POPC   D2A68512  21.365   0.451   6.750
 9810POPC   C3A68513  21.428   0.389   7.050
 9810POPC   C4A68514  21.345   0.449   7.350
 9810POPC   C1B68515  21.152   0.622   6.450
 9810POPC   C2B68516  21.217   0.577   6.750
 9810POPC   C3B68517  21.230   0.617   7.050
 9810POPC   C4B68518  21.179   0.566   7.350
 9811POPC   NC368519  14.410  19.046   5.550
 9811POPC   PO468520  14.372  19.030   5.850
 9811POPC   GL168521  14.386  19.098   6.150
 9811POPC   GL268522  14.507  19.188   6.150
 9811POPC   C1A68523  14.400  19.025   6.450
 9811POPC   D2A68524  14.431  19.088   6.750
 9811POPC   C3A68525  14.374  19.083   7.050
 9811POPC   C4A68526  14.428  19.025   7.350
 9811POPC   C1B68527  14.555  19.317   6.450
 9811POPC   C2B68528  14.507  19.294   6.750
 9811POPC   C3B68529  14.500  19.275   7.050
 9811POPC   C4B68530  14.493  19.323   7.350
 9812POPC   NC368531   5.078  34.546   5.550
 9812POPC   PO468532   5.084  34.568   5.850
 9812POPC   GL168533   5.083  34.548   6.150
 9812POPC   GL268534   5.075  34.700   6.150
 9812POPC   C1A68535   5.138  34.564   6.450
 9812POPC   D2A68536   5.086  34.624   6.750
 9812POPC   C3A68537   5.140  34.543   7.050
 9812POPC   C4A68538   5.052  34.540   7.350
 9812POPC   C1B68539   4.943  34.803   6.450
 9812POPC   C2B68540   4.974  34.819   6.750
 9812POPC   C3B68541   5.034  34.794   7.050
 9812POPC   C4B68542   4.959  34.836   7.350
 9813POPC   NC368543  27.600  36.083   5.550
 9813POPC   PO468544  27.561  36.151   5.850
 9813POPC   GL168545  27.605  36.149   6.150
 9813POPC   GL268546  27.721  36.250   6.150
 9813POPC   C1A68547  27.642  36.108   6.450
 9813POPC   D2A68548  27.598  36.124   6.750
 9813POPC   C3A68549  27.558  36.084   7.050
 9813POPC   C4A68550  27.605  36.137   7.350
 9813POPC   C1B68551  27.749  36.302   6.450
 9813POPC   C2B68552  27.768  36.265   6.750
 9813POPC   C3B68553  27.821  36.319   7.050
 9813POPC   C4B68554  27.811  36.279   7.350
 9814POPC   NC368555   3.536  43.151   5.550
 9814POPC   PO468556   3.541  43.119   5.850
 9814POPC   GL168557   3.573  43.150   6.150
 9814POPC   GL268558   3.459  42.951   6.150
 9814POPC   C1A68559   3.504  43.078   6.450
 9814POPC   D2A68560   3.550  43.089   6.750
 9814POPC   C3A68561   3.494  43.093   7.050
 9814POPC   C4A68562   3.590  43.092   7.350
 9814POPC   C1B68563   3.418  42.910   6.450
 9814POPC   C2B68564   3.452  42.886   6.750
 9814POPC   C3B68565   3.459  42.849   7.050
 9814POPC   C4B68566   3.450  42.896   7.350
 9815POPC   NC368567  22.940  18.248   5.550
 9815POPC   PO468568  22.893  18.267   5.850
 9815POPC   GL168569  22.929  18.295   6.150
 9815POPC   GL268570  22.890  18.364   6.150
 9815POPC   C1A68571  22.924  18.245   6.450
 9815POPC   D2A68572  22.925  18.316   6.750
 9815POPC   C3A68573  22.914  18.306   7.050
 9815POPC   C4A68574  22.965  18.288   7.350
 9815POPC   C1B68575  22.814  18.537   6.450
 9815POPC   C2B68576  22.830  18.548   6.750
 9815POPC   C3B68577  22.894  18.542   7.050
 9815POPC   C4B68578  22.854  18.564   7.350
 9816POPC   NC368579  25.315   1.973   5.550
 9816POPC   PO468580  25.237   1.948   5.850
 9816POPC   GL168581  25.305   1.973   6.150
 9816POPC   GL268582  25.146   1.996   6.150
 9816POPC   C1A68583  25.291   2.038   6.450
 9816POPC   D2A68584  25.303   2.010   6.750
 9816POPC   C3A68585  25.287   2.036   7.050
 9816POPC   C4A68586  25.296   2.035   7.350
 9816POPC   C1B68587  24.985   1.985   6.450
 9816POPC   C2B68588  25.013   2.010   6.750
 9816POPC   C3B68589  24.983   1.995   7.050
 9816POPC   C4B68590  24.972   2.024   7.350
 9817POPC   NC368591  42.358   2.021   5.550
 9817POPC   PO468592  42.304   2.016   5.850
 9817POPC   GL168593  42.325   1.957   6.150
 9817POPC   GL268594  42.302   2.087   6.150
 9817POPC   C1A68595  42.329   2.005   6.450
 9817POPC   D2A68596  42.376   2.038   6.750
 9817POPC   C3A68597  42.342   1.962   7.050
 9817POPC   C4A68598  42.315   2.033   7.350
 9817POPC   C1B68599  42.189   2.201   6.450
 9817POPC   C2B68600  42.228   2.259   6.750
 9817POPC   C3B68601  42.256   2.211   7.050
 9817POPC   C4B68602  42.217   2.267   7.350
 9818POPC   NC368603  19.794  44.686   5.550
 9818POPC   PO468604  19.852  44.668   5.850
 9818POPC   GL168605  19.827  44.626   6.150
 9818POPC   GL268606  19.752  44.646   6.150
 9818POPC   C1A68607  19.839  44.659   6.450
 9818POPC   D2A68608  19.838  44.695   6.750
 9818POPC   C3A68609  19.862  44.692   7.050
 9818POPC   C4A68610  19.861  44.624   7.350
 9818POPC   C1B68611  19.632  44.733   6.450
 9818POPC   C2B68612  19.588  44.734   6.750
 9818POPC   C3B68613  19.612  44.723   7.050
 9818POPC   C4B68614  19.589  44.721   7.350
 9819POPC   NC368615  26.853   0.437   5.550
 9819POPC   PO468616  26.843   0.458   5.850
 9819POPC   GL168617  26.851   0.468   6.150
 9819POPC   GL268618  26.920   0.387   6.150
 9819POPC   C1A68619  26.859   0.462   6.450
 9819POPC   D2A68620  26.801   0.404   6.750
 9819POPC   C3A68621  26.822   0.420   7.050
 9819POPC   C4A68622  26.772   0.431   7.350
 9819POPC   C1B68623  27.066   0.315   6.450
 9819POPC   C2B68624  27.072   0.322   6.750
 9819POPC   C3B68625  27.076   0.329   7.050
 9819POPC   C4B68626  27.078   0.368   7.350
 9820POPC   NC368627  40.775  18.246   5.550
 9820POPC   PO468628  40.829  18.274   5.850
 9820POPC   GL168629  40.826  18.256   6.150
 9820POPC   GL268630  40.910  18.370   6.150
 9820POPC   C1A68631  40.783  18.257   6.450
 9820POPC   D2A68632  40.752  18.321   6.750
 9820POPC   C3A68633  40.805  18.286   7.050
 9820POPC   C4A68634  40.819  18.265   7.350
 9820POPC   C1B68635  41.037  18.370   6.450
 9820POPC   C2B68636  41.008  18.356   6.750
 9820POPC   C3B68637  41.063  18.383   7.050
 9820POPC   C4B68638  41.006  18.331   7.350
 9821POPC   NC368639   1.242  28.392   5.550
 9821POPC   PO468640   1.223  28.364   5.850
 9821POPC   GL168641   1.248  28.351   6.150
 9821POPC   GL268642   1.333  28.342   6.150
 9821POPC   C1A68643   1.200  28.378   6.450
 9821POPC   D2A68644   1.214  28.342   6.750
 9821POPC   C3A68645   1.183  28.357   7.050
 9821POPC   C4A68646   1.250  28.414   7.350
 9821POPC   C1B68647   1.448  28.255   6.450
 9821POPC   C2B68648   1.431  28.197   6.750
 9821POPC   C3B68649   1.463  28.262   7.050
 9821POPC   C4B68650   1.379  28.252   7.350
 9822POPC   NC368651  35.357  31.511   5.550
 9822POPC   PO468652  35.366  31.483   5.850
 9822POPC   GL168653  35.360  31.469   6.150
 9822POPC   GL268654  35.204  31.415   6.150
 9822POPC   C1A68655  35.347  31.456   6.450
 9822POPC   D2A68656  35.367  31.438   6.750
 9822POPC   C3A68657  35.310  31.455   7.050
 9822POPC   C4A68658  35.399  31.444   7.350
 9822POPC   C1B68659  35.178  31.353   6.450
 9822POPC   C2B68660  35.128  31.366   6.750
 9822POPC   C3B68661  35.138  31.294   7.050
 9822POPC   C4B68662  35.142  31.365   7.350
 9823POPC   NC368663  19.851  26.073   5.550
 9823POPC   PO468664  19.818  26.024   5.850
 9823POPC   GL168665  19.836  26.033   6.150
 9823POPC   GL268666  19.853  26.195   6.150
 9823POPC   C1A68667  19.878  26.062   6.450
 9823POPC   D2A68668  19.788  26.055   6.750
 9823POPC   C3A68669  19.790  26.061   7.050
 9823POPC   C4A68670  19.844  25.999   7.350
 9823POPC   C1B68671  19.911  26.295   6.450
 9823POPC   C2B68672  19.951  26.250   6.750
 9823POPC   C3B68673  19.966  26.316   7.050
 9823POPC   C4B68674  19.962  26.254   7.350
 9824POPC   NC368675  25.228  13.616   5.550
 9824POPC   PO468676  25.313  13.652   5.850
 9824POPC   GL168677  25.272  13.613   6.150
 9824POPC   GL268678  25.383  13.612   6.150
 9824POPC   C1A68679  25.280  13.673   6.450
 9824POPC   D2A68680  25.217  13.658   6.750
 9824POPC   C3A68681  25.229  13.592   7.050
 9824POPC   C4A68682  25.296  13.635   7.350
 9824POPC   C1B68683  25.462  13.574   6.450
 9824POPC   C2B68684  25.522  13.534   6.750
 9824POPC   C3B68685  25.508  13.598   7.050
 9824POPC   C4B68686  25.461  13.566   7.350
 9825POPC   NC368687   4.328  41.595   5.550
 9825POPC   PO468688   4.342  41.541   5.850
 9825POPC   GL168689   4.315  41.537   6.150
 9825POPC   GL268690   4.292  41.647   6.150
 9825POPC   C1A68691   4.351  41.606   6.450
 9825POPC   D2A68692   4.352  41.520   6.750
 9825POPC   C3A68693   4.285  41.525   7.050
 9825POPC   C4A68694   4.357  41.563   7.350
 9825POPC   C1B68695   4.321  41.835   6.450
 9825POPC   C2B68696   4.248  41.824   6.750
 9825POPC   C3B68697   4.224  41.851   7.050
 9825POPC   C4B68698   4.272  41.827   7.350
 9826POPC   NC368699  21.378  43.108   5.550
 9826POPC   PO468700  21.395  43.140   5.850
 9826POPC   GL168701  21.377  43.062   6.150
 9826POPC   GL268702  21.410  42.981   6.150
 9826POPC   C1A68703  21.368  43.119   6.450
 9826POPC   D2A68704  21.378  43.131   6.750
 9826POPC   C3A68705  21.356  43.062   7.050
 9826POPC   C4A68706  21.352  43.122   7.350
 9826POPC   C1B68707  21.358  42.861   6.450
 9826POPC   C2B68708  21.371  42.857   6.750
 9826POPC   C3B68709  21.352  42.822   7.050
 9826POPC   C4B68710  21.362  42.848   7.350
 9827POPC   NC368711   5.832  30.686   5.550
 9827POPC   PO468712   5.914  30.665   5.850
 9827POPC   GL168713   5.862  30.685   6.150
 9827POPC   GL268714   6.003  30.609   6.150
 9827POPC   C1A68715   5.833  30.719   6.450
 9827POPC   D2A68716   5.889  30.744   6.750
 9827POPC   C3A68717   5.897  30.736   7.050
 9827POPC   C4A68718   5.819  30.686   7.350
 9827POPC   C1B68719   6.043  30.540   6.450
 9827POPC   C2B68720   6.031  30.518   6.750
 9827POPC   C3B68721   6.116  30.516   7.050
 9827POPC   C4B68722   6.072  30.588   7.350
 9828POPC   NC368723  36.154   2.753   5.550
 9828POPC   PO468724  36.121   2.733   5.850
 9828POPC   GL168725  36.170   2.794   6.150
 9828POPC   GL268726  36.016   2.723   6.150
 9828POPC   C1A68727  36.169   2.741   6.450
 9828POPC   D2A68728  36.173   2.729   6.750
 9828POPC   C3A68729  36.127   2.758   7.050
 9828POPC   C4A68730  36.108   2.785   7.350
 9828POPC   C1B68731  35.941   2.652   6.450
 9828POPC   C2B68732  35.891   2.651   6.750
 9828POPC   C3B68733  35.920   2.689   7.050
 9828POPC   C4B68734  35.882   2.641   7.350
 9829POPC   NC368735   6.679  27.602   5.550
 9829POPC   PO468736   6.689  27.592   5.850
 9829POPC   GL168737   6.597  27.604   6.150
 9829POPC   GL268738   6.490  27.612   6.150
 9829POPC   C1A68739   6.633  27.558   6.450
 9829POPC   D2A68740   6.682  27.597   6.750
 9829POPC   C3A68741   6.683  27.594   7.050
 9829POPC   C4A68742   6.665  27.573   7.350
 9829POPC   C1B68743   6.390  27.624   6.450
 9829POPC   C2B68744   6.381  27.695   6.750
 9829POPC   C3B68745   6.361  27.657   7.050
 9829POPC   C4B68746   6.370  27.639   7.350
 9830POPC   NC368747  21.423  24.460   5.550
 9830POPC   PO468748  21.375  24.470   5.850
 9830POPC   GL168749  21.424  24.480   6.150
 9830POPC   GL268750  21.373  24.385   6.150
 9830POPC   C1A68751  21.390  24.484   6.450
 9830POPC   D2A68752  21.403  24.516   6.750
 9830POPC   C3A68753  21.401  24.485   7.050
 9830POPC   C4A68754  21.430  24.536   7.350
 9830POPC   C1B68755  21.246  24.307   6.450
 9830POPC   C2B68756  21.254  24.209   6.750
 9830POPC   C3B68757  21.276  24.223   7.050
 9830POPC   C4B68758  21.260  24.256   7.350
 9831POPC   NC368759  35.350  40.751   5.550
 9831POPC   PO468760  35.355  40.775   5.850
 9831POPC   GL168761  35.314  40.825   6.150
 9831POPC   GL268762  35.461  40.673   6.150
 9831POPC   C1A68763  35.391  40.755   6.450
 9831POPC   D2A68764  35.353  40.784   6.750
 9831POPC   C3A68765  35.324  40.734   7.050
 9831POPC   C4A68766  35.346  40.820   7.350
 9831POPC   C1B68767  35.485  40.601   6.450
 9831POPC   C2B68768  35.481  40.629   6.750
 9831POPC   C3B68769  35.542  40.598   7.050
 9831POPC   C4B68770  35.467  40.546   7.350
 9832POPC   NC368771   5.898  27.601   5.550
 9832POPC   PO468772   5.873  27.580   5.850
 9832POPC   GL168773   5.884  27.576   6.150
 9832POPC   GL268774   5.995  27.504   6.150
 9832POPC   C1A68775   5.858  27.571   6.450
 9832POPC   D2A68776   5.870  27.570   6.750
 9832POPC   C3A68777   5.826  27.643   7.050
 9832POPC   C4A68778   5.843  27.612   7.350
 9832POPC   C1B68779   6.132  27.438   6.450
 9832POPC   C2B68780   6.066  27.514   6.750
 9832POPC   C3B68781   6.119  27.494   7.050
 9832POPC   C4B68782   6.106  27.426   7.350
 9833POPC   NC368783  12.056  17.499   5.550
 9833POPC   PO468784  12.044  17.462   5.850
 9833POPC   GL168785  12.069  17.479   6.150
 9833POPC   GL268786  11.997  17.565   6.150
 9833POPC   C1A68787  12.047  17.535   6.450
 9833POPC   D2A68788  12.076  17.538   6.750
 9833POPC   C3A68789  12.080  17.530   7.050
 9833POPC   C4A68790  12.112  17.496   7.350
 9833POPC   C1B68791  11.885  17.632   6.450
 9833POPC   C2B68792  11.873  17.647   6.750
 9833POPC   C3B68793  11.840  17.707   7.050
 9833POPC   C4B68794  11.929  17.633   7.350
 9834POPC   NC368795  35.398  22.938   5.550
 9834POPC   PO468796  35.345  22.922   5.850
 9834POPC   GL168797  35.325  22.903   6.150
 9834POPC   GL268798  35.419  23.031   6.150
 9834POPC   C1A68799  35.326  22.949   6.450
 9834POPC   D2A68800  35.383  22.962   6.750
 9834POPC   C3A68801  35.389  22.949   7.050
 9834POPC   C4A68802  35.356  22.977   7.350
 9834POPC   C1B68803  35.528  23.143   6.450
 9834POPC   C2B68804  35.519  23.139   6.750
 9834POPC   C3B68805  35.536  23.153   7.050
 9834POPC   C4B68806  35.503  23.132   7.350
 9835POPC   NC368807  12.091   5.857   5.550
 9835POPC   PO468808  12.124   5.867   5.850
 9835POPC   GL168809  12.077   5.837   6.150
 9835POPC   GL268810  12.155   5.796   6.150
 9835POPC   C1A68811  12.098   5.836   6.450
 9835POPC   D2A68812  12.047   5.865   6.750
 9835POPC   C3A68813  12.029   5.882   7.050
 9835POPC   C4A68814  12.058   5.826   7.350
 9835POPC   C1B68815  12.258   5.712   6.450
 9835POPC   C2B68816  12.299   5.781   6.750
 9835POPC   C3B68817  12.268   5.715   7.050
 9835POPC   C4B68818  12.264   5.769   7.350
 9836POPC   NC368819  36.099   6.674   5.550
 9836POPC   PO468820  36.137   6.677   5.850
 9836POPC   GL168821  36.130   6.662   6.150
 9836POPC   GL268822  36.235   6.609   6.150
 9836POPC   C1A68823  36.174   6.668   6.450
 9836POPC   D2A68824  36.096   6.612   6.750
 9836POPC   C3A68825  36.127   6.641   7.050
 9836POPC   C4A68826  36.132   6.650   7.350
 9836POPC   C1B68827  36.400   6.525   6.450
 9836POPC   C2B68828  36.345   6.557   6.750
 9836POPC   C3B68829  36.403   6.587   7.050
 9836POPC   C4B68830  36.372   6.615   7.350
 9837POPC   NC368831  17.489  29.161   5.550
 9837POPC   PO468832  17.539  29.116   5.850
 9837POPC   GL168833  17.492  29.097   6.150
 9837POPC   GL268834  17.407  29.041   6.150
 9837POPC   C1A68835  17.466  29.132   6.450
 9837POPC   D2A68836  17.523  29.152   6.750
 9837POPC   C3A68837  17.485  29.124   7.050
 9837POPC   C4A68838  17.533  29.136   7.350
 9837POPC   C1B68839  17.270  28.991   6.450
 9837POPC   C2B68840  17.299  29.066   6.750
 9837POPC   C3B68841  17.281  29.050   7.050
 9837POPC   C4B68842  17.243  29.052   7.350
 9838POPC   NC368843  22.934   7.441   5.550
 9838POPC   PO468844  22.898   7.384   5.850
 9838POPC   GL168845  22.922   7.441   6.150
 9838POPC   GL268846  23.087   7.326   6.150
 9838POPC   C1A68847  22.892   7.450   6.450
 9838POPC   D2A68848  22.946   7.389   6.750
 9838POPC   C3A68849  22.963   7.426   7.050
 9838POPC   C4A68850  22.950   7.428   7.350
 9838POPC   C1B68851  23.118   7.270   6.450
 9838POPC   C2B68852  23.094   7.226   6.750
 9838POPC   C3B68853  23.148   7.283   7.050
 9838POPC   C4B68854  23.144   7.289   7.350
 9839POPC   NC368855  11.281   9.773   5.550
 9839POPC   PO468856  11.278   9.739   5.850
 9839POPC   GL168857  11.263   9.739   6.150
 9839POPC   GL268858  11.158   9.842   6.150
 9839POPC   C1A68859  11.254   9.772   6.450
 9839POPC   D2A68860  11.337   9.779   6.750
 9839POPC   C3A68861  11.301   9.781   7.050
 9839POPC   C4A68862  11.269   9.747   7.350
 9839POPC   C1B68863  11.094   9.814   6.450
 9839POPC   C2B68864  11.114   9.848   6.750
 9839POPC   C3B68865  11.029   9.801   7.050
 9839POPC   C4B68866  11.061   9.855   7.350
 9840POPC   NC368867  41.509  42.322   5.550
 9840POPC   PO468868  41.514  42.311   5.850
 9840POPC   GL168869  41.538  42.290   6.150
 9840POPC   GL268870  41.461  42.285   6.150
 9840POPC   C1A68871  41.554  42.360   6.450
 9840POPC   D2A68872  41.608  42.288   6.750
 9840POPC   C3A68873  41.511  42.291   7.050
 9840POPC   C4A68874  41.591  42.344   7.350
 9840POPC   C1B68875  41.317  42.282   6.450
 9840POPC   C2B68876  41.319  42.212   6.750
 9840POPC   C3B68877  41.371  42.269   7.050
 9840POPC   C4B68878  41.356  42.234   7.350
 9841POPC   NC368879  36.873   8.999   5.550
 9841POPC   PO468880  36.896   8.985   5.850
 9841POPC   GL168881  36.945   9.005   6.150
 9841POPC   GL268882  36.819   8.933   6.150
 9841POPC   C1A68883  36.946   8.947   6.450
 9841POPC   D2A68884  36.940   8.993   6.750
 9841POPC   C3A68885  36.931   8.952   7.050
 9841POPC   C4A68886  36.860   8.984   7.350
 9841POPC   C1B68887  36.741   8.815   6.450
 9841POPC   C2B68888  36.664   8.804   6.750
 9841POPC   C3B68889  36.658   8.853   7.050
 9841POPC   C4B68890  36.709   8.841   7.350
 9842POPC   NC368891   5.105  31.515   5.550
 9842POPC   PO468892   5.103  31.509   5.850
 9842POPC   GL168893   5.124  31.501   6.150
 9842POPC   GL268894   5.007  31.582   6.150
 9842POPC   C1A68895   5.081  31.503   6.450
 9842POPC   D2A68896   5.103  31.500   6.750
 9842POPC   C3A68897   5.132  31.478   7.050
 9842POPC   C4A68898   5.045  31.497   7.350
 9842POPC   C1B68899   4.840  31.638   6.450
 9842POPC   C2B68900   4.901  31.631   6.750
 9842POPC   C3B68901   4.926  31.557   7.050
 9842POPC   C4B68902   4.848  31.558   7.350
 9843POPC   NC368903  42.354  22.914   5.550
 9843POPC   PO468904  42.331  22.896   5.850
 9843POPC   GL168905  42.303  22.920   6.150
 9843POPC   GL268906  42.194  22.981   6.150
 9843POPC   C1A68907  42.334  22.922   6.450
 9843POPC   D2A68908  42.357  22.946   6.750
 9843POPC   C3A68909  42.367  22.914   7.050
 9843POPC   C4A68910  42.332  22.972   7.350
 9843POPC   C1B68911  42.085  22.942   6.450
 9843POPC   C2B68912  42.070  22.977   6.750
 9843POPC   C3B68913  42.112  22.962   7.050
 9843POPC   C4B68914  42.041  23.037   7.350
 9844POPC   NC368915  21.358  39.986   5.550
 9844POPC   PO468916  21.378  39.993   5.850
 9844POPC   GL168917  21.390  40.004   6.150
 9844POPC   GL268918  21.474  40.082   6.150
 9844POPC   C1A68919  21.433  40.022   6.450
 9844POPC   D2A68920  21.346  39.976   6.750
 9844POPC   C3A68921  21.382  39.971   7.050
 9844POPC   C4A68922  21.350  40.005   7.350
 9844POPC   C1B68923  21.511  40.218   6.450
 9844POPC   C2B68924  21.505  40.259   6.750
 9844POPC   C3B68925  21.540  40.276   7.050
 9844POPC   C4B68926  21.492  40.236   7.350
 9845POPC   NC368927  14.364  25.239   5.550
 9845POPC   PO468928  14.394  25.230   5.850
 9845POPC   GL168929  14.386  25.264   6.150
 9845POPC   GL268930  14.515  25.178   6.150
 9845POPC   C1A68931  14.399  25.303   6.450
 9845POPC   D2A68932  14.372  25.305   6.750
 9845POPC   C3A68933  14.412  25.225   7.050
 9845POPC   C4A68934  14.365  25.242   7.350
 9845POPC   C1B68935  14.667  25.127   6.450
 9845POPC   C2B68936  14.607  25.172   6.750
 9845POPC   C3B68937  14.607  25.210   7.050
 9845POPC   C4B68938  14.654  25.133   7.350
 9846POPC   NC368939  31.468  22.168   5.550
 9846POPC   PO468940  31.518  22.198   5.850
 9846POPC   GL168941  31.488  22.162   6.150
 9846POPC   GL268942  31.528  22.195   6.150
 9846POPC   C1A68943  31.474  22.184   6.450
 9846POPC   D2A68944  31.468  22.181   6.750
 9846POPC   C3A68945  31.482  22.209   7.050
 9846POPC   C4A68946  31.509  22.170   7.350
 9846POPC   C1B68947  31.641  22.344   6.450
 9846POPC   C2B68948  31.678  22.305   6.750
 9846POPC   C3B68949  31.641  22.312   7.050
 9846POPC   C4B68950  31.715  22.276   7.350
 9847POPC   NC368951  16.706  28.334   5.550
 9847POPC   PO468952  16.745  28.405   5.850
 9847POPC   GL168953  16.708  28.320   6.150
 9847POPC   GL268954  16.757  28.483   6.150
 9847POPC   C1A68955  16.699  28.328   6.450
 9847POPC   D2A68956  16.759  28.385   6.750
 9847POPC   C3A68957  16.736  28.406   7.050
 9847POPC   C4A68958  16.733  28.322   7.350
 9847POPC   C1B68959  16.737  28.666   6.450
 9847POPC   C2B68960  16.706  28.648   6.750
 9847POPC   C3B68961  16.766  28.616   7.050
 9847POPC   C4B68962  16.743  28.588   7.350
 9848POPC   NC368963  23.697   5.908   5.550
 9848POPC   PO468964  23.696   5.839   5.850
 9848POPC   GL168965  23.763   5.878   6.150
 9848POPC   GL268966  23.625   5.774   6.150
 9848POPC   C1A68967  23.725   5.850   6.450
 9848POPC   D2A68968  23.677   5.894   6.750
 9848POPC   C3A68969  23.749   5.869   7.050
 9848POPC   C4A68970  23.681   5.901   7.350
 9848POPC   C1B68971  23.531   5.764   6.450
 9848POPC   C2B68972  23.541   5.787   6.750
 9848POPC   C3B68973  23.545   5.757   7.050
 9848POPC   C4B68974  23.531   5.767   7.350
 9849POPC   NC368975   2.802  14.368   5.550
 9849POPC   PO468976   2.770  14.434   5.850
 9849POPC   GL168977   2.735  14.396   6.150
 9849POPC   GL268978   2.899  14.362   6.150
 9849POPC   C1A68979   2.806  14.428   6.450
 9849POPC   D2A68980   2.730  14.393   6.750
 9849POPC   C3A68981   2.810  14.357   7.050
 9849POPC   C4A68982   2.744  14.430   7.350
 9849POPC   C1B68983   3.000  14.350   6.450
 9849POPC   C2B68984   3.045  14.354   6.750
 9849POPC   C3B68985   2.985  14.344   7.050
 9849POPC   C4B68986   3.034  14.412   7.350
 9850POPC   NC368987  33.830  39.253   5.550
 9850POPC   PO468988  33.768  39.188   5.850
 9850POPC   GL168989  33.805  39.262   6.150
 9850POPC   GL268990  33.786  39.375   6.150
 9850POPC   C1A68991  33.815  39.259   6.450
 9850POPC   D2A68992  33.793  39.182   6.750
 9850POPC   C3A68993  33.842  39.241   7.050
 9850POPC   C4A68994  33.835  39.232   7.350
 9850POPC   C1B68995  33.644  39.478   6.450
 9850POPC   C2B68996  33.677  39.418   6.750
 9850POPC   C3B68997  33.702  39.460   7.050
 9850POPC   C4B68998  33.712  39.467   7.350
 9851POPC   NC368999   2.752  23.682   5.550
 9851POPC   PO469000   2.734  23.735   5.850
 9851POPC   GL169001   2.786  23.721   6.150
 9851POPC   GL269002   2.933  23.746   6.150
 9851POPC   C1A69003   2.737  23.687   6.450
 9851POPC   D2A69004   2.759  23.751   6.750
 9851POPC   C3A69005   2.747  23.712   7.050
 9851POPC   C4A69006   2.799  23.672   7.350
 9851POPC   C1B69007   2.966  23.767   6.450
 9851POPC   C2B69008   2.986  23.712   6.750
 9851POPC   C3B69009   3.026  23.788   7.050
 9851POPC   C4B69010   3.012  23.730   7.350
 9852POPC   NC369011  38.446  20.633   5.550
 9852POPC   PO469012  38.417  20.613   5.850
 9852POPC   GL169013  38.451  20.649   6.150
 9852POPC   GL269014  38.318  20.562   6.150
 9852POPC   C1A69015  38.495  20.622   6.450
 9852POPC   D2A69016  38.412  20.621   6.750
 9852POPC   C3A69017  38.418  20.589   7.050
 9852POPC   C4A69018  38.466  20.573   7.350
 9852POPC   C1B69019  38.280  20.445   6.450
 9852POPC   C2B69020  38.255  20.506   6.750
 9852POPC   C3B69021  38.254  20.496   7.050
 9852POPC   C4B69022  38.267  20.497   7.350
 9853POPC   NC369023  22.166  39.230   5.550
 9853POPC   PO469024  22.165  39.247   5.850
 9853POPC   GL169025  22.144  39.247   6.150
 9853POPC   GL269026  22.196  39.386   6.150
 9853POPC   C1A69027  22.121  39.268   6.450
 9853POPC   D2A69028  22.120  39.232   6.750
 9853POPC   C3A69029  22.123  39.270   7.050
 9853POPC   C4A69030  22.133  39.265   7.350
 9853POPC   C1B69031  22.240  39.505   6.450
 9853POPC   C2B69032  22.239  39.466   6.750
 9853POPC   C3B69033  22.215  39.452   7.050
 9853POPC   C4B69034  22.257  39.488   7.350
 9854POPC   NC369035   0.409  16.764   5.550
 9854POPC   PO469036   0.471  16.703   5.850
 9854POPC   GL169037   0.415  16.705   6.150
 9854POPC   GL269038   0.313  16.788   6.150
 9854POPC   C1A69039   0.404  16.771   6.450
 9854POPC   D2A69040   0.477  16.682   6.750
 9854POPC   C3A69041   0.390  16.683   7.050
 9854POPC   C4A69042   0.452  16.738   7.350
 9854POPC   C1B69043   0.226  16.764   6.450
 9854POPC   C2B69044   0.227  16.726   6.750
 9854POPC   C3B69045   0.177  16.788   7.050
 9854POPC   C4B69046   0.187  16.739   7.350
 9855POPC   NC369047  33.790  12.056   5.550
 9855POPC   PO469048  33.754  12.053   5.850
 9855POPC   GL169049  33.821  12.067   6.150
 9855POPC   GL269050  33.891  12.136   6.150
 9855POPC   C1A69051  33.783  12.086   6.450
 9855POPC   D2A69052  33.774  12.099   6.750
 9855POPC   C3A69053  33.805  12.118   7.050
 9855POPC   C4A69054  33.763  12.027   7.350
 9855POPC   C1B69055  33.946  12.285   6.450
 9855POPC   C2B69056  33.955  12.271   6.750
 9855POPC   C3B69057  33.940  12.265   7.050
 9855POPC   C4B69058  33.986  12.298   7.350
 9856POPC   NC369059  24.493  35.369   5.550
 9856POPC   PO469060  24.490  35.374   5.850
 9856POPC   GL169061  24.481  35.370   6.150
 9856POPC   GL269062  24.447  35.196   6.150
 9856POPC   C1A69063  24.485  35.349   6.450
 9856POPC   D2A69064  24.448  35.339   6.750
 9856POPC   C3A69065  24.450  35.367   7.050
 9856POPC   C4A69066  24.468  35.313   7.350
 9856POPC   C1B69067  24.473  35.116   6.450
 9856POPC   C2B69068  24.484  35.100   6.750
 9856POPC   C3B69069  24.485  35.057   7.050
 9856POPC   C4B69070  24.463  35.063   7.350
 9857POPC   NC369071  36.931  19.817   5.550
 9857POPC   PO469072  36.953  19.803   5.850
 9857POPC   GL169073  36.905  19.802   6.150
 9857POPC   GL269074  36.827  19.734   6.150
 9857POPC   C1A69075  36.886  19.790   6.450
 9857POPC   D2A69076  36.914  19.824   6.750
 9857POPC   C3A69077  36.865  19.817   7.050
 9857POPC   C4A69078  36.932  19.853   7.350
 9857POPC   C1B69079  36.752  19.610   6.450
 9857POPC   C2B69080  36.759  19.650   6.750
 9857POPC   C3B69081  36.780  19.613   7.050
 9857POPC   C4B69082  36.691  19.663   7.350
 9858POPC   NC369083  20.618  27.605   5.550
 9858POPC   PO469084  20.568  27.593   5.850
 9858POPC   GL169085  20.570  27.578   6.150
 9858POPC   GL269086  20.647  27.420   6.150
 9858POPC   C1A69087  20.594  27.590   6.450
 9858POPC   D2A69088  20.575  27.583   6.750
 9858POPC   C3A69089  20.567  27.601   7.050
 9858POPC   C4A69090  20.564  27.631   7.350
 9858POPC   C1B69091  20.625  27.316   6.450
 9858POPC   C2B69092  20.562  27.306   6.750
 9858POPC   C3B69093  20.547  27.294   7.050
 9858POPC   C4B69094  20.598  27.324   7.350
 9859POPC   NC369095  43.908  31.497   5.550
 9859POPC   PO469096  43.917  31.519   5.850
 9859POPC   GL169097  43.872  31.515   6.150
 9859POPC   GL269098  43.743  31.560   6.150
 9859POPC   C1A69099  43.892  31.483   6.450
 9859POPC   D2A69100  43.868  31.462   6.750
 9859POPC   C3A69101  43.847  31.443   7.050
 9859POPC   C4A69102  43.865  31.482   7.350
 9859POPC   C1B69103  43.631  31.644   6.450
 9859POPC   C2B69104  43.651  31.579   6.750
 9859POPC   C3B69105  43.658  31.586   7.050
 9859POPC   C4B69106  43.676  31.577   7.350
 9860POPC   NC369107  22.201  20.639   5.550
 9860POPC   PO469108  22.179  20.600   5.850
 9860POPC   GL169109  22.168  20.630   6.150
 9860POPC   GL269110  22.107  20.543   6.150
 9860POPC   C1A69111  22.194  20.602   6.450
 9860POPC   D2A69112  22.145  20.567   6.750
 9860POPC   C3A69113  22.152  20.561   7.050
 9860POPC   C4A69114  22.158  20.627   7.350
 9860POPC   C1B69115  21.970  20.477   6.450
 9860POPC   C2B69116  21.970  20.484   6.750
 9860POPC   C3B69117  22.021  20.417   7.050
 9860POPC   C4B69118  21.954  20.392   7.350
 9861POPC   NC369119  27.576   3.531   5.550
 9861POPC   PO469120  27.627   3.543   5.850
 9861POPC   GL169121  27.580   3.564   6.150
 9861POPC   GL269122  27.660   3.629   6.150
 9861POPC   C1A69123  27.604   3.511   6.450
 9861POPC   D2A69124  27.591   3.496   6.750
 9861POPC   C3A69125  27.624   3.558   7.050
 9861POPC   C4A69126  27.601   3.496   7.350
 9861POPC   C1B69127  27.618   3.744   6.450
 9861POPC   C2B69128  27.625   3.814   6.750
 9861POPC   C3B69129  27.617   3.778   7.050
 9861POPC   C4B69130  27.648   3.808   7.350
 9862POPC   NC369131   8.152  36.924   5.550
 9862POPC   PO469132   8.183  36.891   5.850
 9862POPC   GL169133   8.208  36.877   6.150
 9862POPC   GL269134   8.361  36.924   6.150
 9862POPC   C1A69135   8.174  36.946   6.450
 9862POPC   D2A69136   8.241  36.922   6.750
 9862POPC   C3A69137   8.197  36.916   7.050
 9862POPC   C4A69138   8.180  36.899   7.350
 9862POPC   C1B69139   8.392  36.964   6.450
 9862POPC   C2B69140   8.421  37.034   6.750
 9862POPC   C3B69141   8.410  37.007   7.050
 9862POPC   C4B69142   8.462  36.994   7.350
 9863POPC   NC369143  28.397  21.387   5.550
 9863POPC   PO469144  28.363  21.395   5.850
 9863POPC   GL169145  28.378  21.391   6.150
 9863POPC   GL269146  28.437  21.292   6.150
 9863POPC   C1A69147  28.364  21.377   6.450
 9863POPC   D2A69148  28.338  21.377   6.750
 9863POPC   C3A69149  28.339  21.435   7.050
 9863POPC   C4A69150  28.340  21.418   7.350
 9863POPC   C1B69151  28.577  21.306   6.450
 9863POPC   C2B69152  28.585  21.297   6.750
 9863POPC   C3B69153  28.574  21.256   7.050
 9863POPC   C4B69154  28.565  21.253   7.350
 9864POPC   NC369155  16.005  26.086   5.550
 9864POPC   PO469156  15.992  26.043   5.850
 9864POPC   GL169157  15.950  26.020   6.150
 9864POPC   GL269158  15.888  25.931   6.150
 9864POPC   C1A69159  15.994  26.010   6.450
 9864POPC   D2A69160  15.932  25.997   6.750
 9864POPC   C3A69161  15.971  26.044   7.050
 9864POPC   C4A69162  15.930  26.032   7.350
 9864POPC   C1B69163  15.798  25.907   6.450
 9864POPC   C2B69164  15.728  25.884   6.750
 9864POPC   C3B69165  15.777  25.860   7.050
 9864POPC   C4B69166  15.706  25.882   7.350
 9865POPC   NC369167  43.067  22.973   5.550
 9865POPC   PO469168  43.102  22.926   5.850
 9865POPC   GL169169  43.109  22.916   6.150
 9865POPC   GL269170  43.253  22.920   6.150
 9865POPC   C1A69171  43.144  22.929   6.450
 9865POPC   D2A69172  43.121  22.896   6.750
 9865POPC   C3A69173  43.139  22.907   7.050
 9865POPC   C4A69174  43.114  22.971   7.350
 9865POPC   C1B69175  43.343  22.847   6.450
 9865POPC   C2B69176  43.360  22.827   6.750
 9865POPC   C3B69177  43.353  22.859   7.050
 9865POPC   C4B69178  43.388  22.911   7.350
 9866POPC   NC369179  17.516  12.817   5.550
 9866POPC   PO469180  17.532  12.870   5.850
 9866POPC   GL169181  17.483  12.901   6.150
 9866POPC   GL269182  17.509  12.714   6.150
 9866POPC   C1A69183  17.469  12.833   6.450
 9866POPC   D2A69184  17.457  12.828   6.750
 9866POPC   C3A69185  17.537  12.854   7.050
 9866POPC   C4A69186  17.471  12.813   7.350
 9866POPC   C1B69187  17.444  12.584   6.450
 9866POPC   C2B69188  17.461  12.602   6.750
 9866POPC   C3B69189  17.489  12.616   7.050
 9866POPC   C4B69190  17.465  12.644   7.350
 9867POPC   NC369191  26.051   5.879   5.550
 9867POPC   PO469192  26.089   5.913   5.850
 9867POPC   GL169193  26.065   5.881   6.150
 9867POPC   GL269194  25.971   6.004   6.150
 9867POPC   C1A69195  26.015   5.835   6.450
 9867POPC   D2A69196  25.994   5.820   6.750
 9867POPC   C3A69197  26.024   5.878   7.050
 9867POPC   C4A69198  26.045   5.833   7.350
 9867POPC   C1B69199  25.898   6.108   6.450
 9867POPC   C2B69200  25.991   6.060   6.750
 9867POPC   C3B69201  25.903   6.094   7.050
 9867POPC   C4B69202  25.979   6.073   7.350
 9868POPC   NC369203  36.921  11.289   5.550
 9868POPC   PO469204  36.923  11.311   5.850
 9868POPC   GL169205  36.950  11.323   6.150
 9868POPC   GL269206  37.020  11.229   6.150
 9868POPC   C1A69207  36.948  11.259   6.450
 9868POPC   D2A69208  36.876  11.300   6.750
 9868POPC   C3A69209  36.855  11.328   7.050
 9868POPC   C4A69210  36.861  11.331   7.350
 9868POPC   C1B69211  37.149  11.111   6.450
 9868POPC   C2B69212  37.070  11.115   6.750
 9868POPC   C3B69213  37.070  11.193   7.050
 9868POPC   C4B69214  37.073  11.106   7.350
 9869POPC   NC369215  30.733   0.469   5.550
 9869POPC   PO469216  30.733   0.465   5.850
 9869POPC   GL169217  30.707   0.393   6.150
 9869POPC   GL269218  30.574   0.414   6.150
 9869POPC   C1A69219  30.721   0.479   6.450
 9869POPC   D2A69220  30.677   0.404   6.750
 9869POPC   C3A69221  30.686   0.393   7.050
 9869POPC   C4A69222  30.668   0.398   7.350
 9869POPC   C1B69223  30.453   0.377   6.450
 9869POPC   C2B69224  30.510   0.321   6.750
 9869POPC   C3B69225  30.500   0.371   7.050
 9869POPC   C4B69226  30.424   0.361   7.350
 9870POPC   NC369227  10.521  10.489   5.550
 9870POPC   PO469228  10.556  10.561   5.850
 9870POPC   GL169229  10.546  10.496   6.150
 9870POPC   GL269230  10.492  10.665   6.150
 9870POPC   C1A69231  10.498  10.572   6.450
 9870POPC   D2A69232  10.488  10.537   6.750
 9870POPC   C3A69233  10.563  10.507   7.050
 9870POPC   C4A69234  10.487  10.570   7.350
 9870POPC   C1B69235  10.474  10.739   6.450
 9870POPC   C2B69236  10.395  10.778   6.750
 9870POPC   C3B69237  10.435  10.766   7.050
 9870POPC   C4B69238  10.467  10.742   7.350
 9871POPC   NC369239  35.345  14.381   5.550
 9871POPC   PO469240  35.392  14.451   5.850
 9871POPC   GL169241  35.356  14.404   6.150
 9871POPC   GL269242  35.426  14.553   6.150
 9871POPC   C1A69243  35.320  14.429   6.450
 9871POPC   D2A69244  35.309  14.446   6.750
 9871POPC   C3A69245  35.309  14.430   7.050
 9871POPC   C4A69246  35.358  14.424   7.350
 9871POPC   C1B69247  35.460  14.624   6.450
 9871POPC   C2B69248  35.463  14.677   6.750
 9871POPC   C3B69249  35.441  14.607   7.050
 9871POPC   C4B69250  35.443  14.651   7.350
 9872POPC   NC369251  41.603  22.925   5.550
 9872POPC   PO469252  41.569  22.957   5.850
 9872POPC   GL169253  41.544  22.934   6.150
 9872POPC   GL269254  41.492  22.998   6.150
 9872POPC   C1A69255  41.595  22.932   6.450
 9872POPC   D2A69256  41.549  22.899   6.750
 9872POPC   C3A69257  41.586  22.897   7.050
 9872POPC   C4A69258  41.511  22.909   7.350
 9872POPC   C1B69259  41.420  23.070   6.450
 9872POPC   C2B69260  41.349  23.081   6.750
 9872POPC   C3B69261  41.338  23.077   7.050
 9872POPC   C4B69262  41.348  23.125   7.350
 9873POPC   NC369263   2.815  15.960   5.550
 9873POPC   PO469264   2.785  15.927   5.850
 9873POPC   GL169265   2.738  15.914   6.150
 9873POPC   GL269266   2.868  15.952   6.150
 9873POPC   C1A69267   2.775  15.940   6.450
 9873POPC   D2A69268   2.751  15.955   6.750
 9873POPC   C3A69269   2.771  15.963   7.050
 9873POPC   C4A69270   2.765  15.991   7.350
 9873POPC   C1B69271   2.975  15.938   6.450
 9873POPC   C2B69272   2.998  15.995   6.750
 9873POPC   C3B69273   2.976  15.994   7.050
 9873POPC   C4B69274   2.997  15.991   7.350
 9874POPC   NC369275  39.238  42.345   5.550
 9874POPC   PO469276  39.275  42.312   5.850
 9874POPC   GL169277  39.230  42.365   6.150
 9874POPC   GL269278  39.081  42.349   6.150
 9874POPC   C1A69279  39.199  42.351   6.450
 9874POPC   D2A69280  39.220  42.319   6.750
 9874POPC   C3A69281  39.206  42.324   7.050
 9874POPC   C4A69282  39.212  42.336   7.350
 9874POPC   C1B69283  38.975  42.323   6.450
 9874POPC   C2B69284  38.988  42.365   6.750
 9874POPC   C3B69285  38.957  42.365   7.050
 9874POPC   C4B69286  38.939  42.344   7.350
 9875POPC   NC369287  24.465  40.820   5.550
 9875POPC   PO469288  24.507  40.821   5.850
 9875POPC   GL169289  24.471  40.752   6.150
 9875POPC   GL269290  24.486  40.954   6.150
 9875POPC   C1A69291  24.472  40.735   6.450
 9875POPC   D2A69292  24.529  40.827   6.750
 9875POPC   C3A69293  24.511  40.821   7.050
 9875POPC   C4A69294  24.478  40.812   7.350
 9875POPC   C1B69295  24.480  41.040   6.450
 9875POPC   C2B69296  24.522  41.057   6.750
 9875POPC   C3B69297  24.523  41.036   7.050
 9875POPC   C4B69298  24.537  41.061   7.350
 9876POPC   NC369299  29.149  22.164   5.550
 9876POPC   PO469300  29.132  22.126   5.850
 9876POPC   GL169301  29.157  22.152   6.150
 9876POPC   GL269302  29.171  22.033   6.150
 9876POPC   C1A69303  29.173  22.141   6.450
 9876POPC   D2A69304  29.154  22.137   6.750
 9876POPC   C3A69305  29.150  22.208   7.050
 9876POPC   C4A69306  29.119  22.178   7.350
 9876POPC   C1B69307  29.260  21.926   6.450
 9876POPC   C2B69308  29.179  21.883   6.750
 9876POPC   C3B69309  29.234  21.915   7.050
 9876POPC   C4B69310  29.177  21.885   7.350
 9877POPC   NC369311  29.167   7.375   5.550
 9877POPC   PO469312  29.130   7.454   5.850
 9877POPC   GL169313  29.144   7.465   6.150
 9877POPC   GL269314  29.106   7.536   6.150
 9877POPC   C1A69315  29.136   7.412   6.450
 9877POPC   D2A69316  29.176   7.445   6.750
 9877POPC   C3A69317  29.172   7.432   7.050
 9877POPC   C4A69318  29.098   7.443   7.350
 9877POPC   C1B69319  29.027   7.670   6.450
 9877POPC   C2B69320  29.029   7.626   6.750
 9877POPC   C3B69321  29.105   7.658   7.050
 9877POPC   C4B69322  29.076   7.671   7.350
 9878POPC   NC369323  43.068   3.512   5.550
 9878POPC   PO469324  43.070   3.520   5.850
 9878POPC   GL169325  43.087   3.559   6.150
 9878POPC   GL269326  43.123   3.703   6.150
 9878POPC   C1A69327  43.095   3.512   6.450
 9878POPC   D2A69328  43.080   3.580   6.750
 9878POPC   C3A69329  43.081   3.516   7.050
 9878POPC   C4A69330  43.115   3.507   7.350
 9878POPC   C1B69331  43.197   3.815   6.450
 9878POPC   C2B69332  43.113   3.799   6.750
 9878POPC   C3B69333  43.119   3.838   7.050
 9878POPC   C4B69334  43.131   3.782   7.350
 9879POPC   NC369335  14.398  17.460   5.550
 9879POPC   PO469336  14.398  17.490   5.850
 9879POPC   GL169337  14.396  17.525   6.150
 9879POPC   GL269338  14.349  17.448   6.150
 9879POPC   C1A69339  14.442  17.496   6.450
 9879POPC   D2A69340  14.400  17.524   6.750
 9879POPC   C3A69341  14.375  17.498   7.050
 9879POPC   C4A69342  14.356  17.475   7.350
 9879POPC   C1B69343  14.182  17.326   6.450
 9879POPC   C2B69344  14.189  17.346   6.750
 9879POPC   C3B69345  14.260  17.307   7.050
 9879POPC   C4B69346  14.215  17.306   7.350
 9880POPC   NC369347  22.155  35.315   5.550
 9880POPC   PO469348  22.171  35.356   5.850
 9880POPC   GL169349  22.163  35.401   6.150
 9880POPC   GL269350  22.097  35.382   6.150
 9880POPC   C1A69351  22.152  35.388   6.450
 9880POPC   D2A69352  22.153  35.396   6.750
 9880POPC   C3A69353  22.115  35.347   7.050
 9880POPC   C4A69354  22.162  35.327   7.350
 9880POPC   C1B69355  21.949  35.513   6.450
 9880POPC   C2B69356  21.964  35.512   6.750
 9880POPC   C3B69357  21.992  35.526   7.050
 9880POPC   C4B69358  21.921  35.536   7.350
 9881POPC   NC369359  24.486  36.092   5.550
 9881POPC   PO469360  24.495  36.167   5.850
 9881POPC   GL169361  24.446  36.105   6.150
 9881POPC   GL269362  24.429  36.067   6.150
 9881POPC   C1A69363  24.499  36.133   6.450
 9881POPC   D2A69364  24.505  36.128   6.750
 9881POPC   C3A69365  24.473  36.140   7.050
 9881POPC   C4A69366  24.529  36.167   7.350
 9881POPC   C1B69367  24.334  35.953   6.450
 9881POPC   C2B69368  24.257  35.957   6.750
 9881POPC   C3B69369  24.288  36.023   7.050
 9881POPC   C4B69370  24.324  35.972   7.350
 9882POPC   NC369371  31.456  40.793   5.550
 9882POPC   PO469372  31.509  40.831   5.850
 9882POPC   GL169373  31.486  40.773   6.150
 9882POPC   GL269374  31.602  40.851   6.150
 9882POPC   C1A69375  31.473  40.778   6.450
 9882POPC   D2A69376  31.448  40.781   6.750
 9882POPC   C3A69377  31.511  40.785   7.050
 9882POPC   C4A69378  31.458  40.744   7.350
 9882POPC   C1B69379  31.610  40.914   6.450
 9882POPC   C2B69380  31.686  40.921   6.750
 9882POPC   C3B69381  31.647  40.960   7.050
 9882POPC   C4B69382  31.701  40.963   7.350
 9883POPC   NC369383  18.307  39.989   5.550
 9883POPC   PO469384  18.250  40.053   5.850
 9883POPC   GL169385  18.303  39.971   6.150
 9883POPC   GL269386  18.285  39.888   6.150
 9883POPC   C1A69387  18.265  39.971   6.450
 9883POPC   D2A69388  18.276  40.051   6.750
 9883POPC   C3A69389  18.300  40.048   7.050
 9883POPC   C4A69390  18.233  39.974   7.350
 9883POPC   C1B69391  18.222  39.721   6.450
 9883POPC   C2B69392  18.184  39.779   6.750
 9883POPC   C3B69393  18.178  39.764   7.050
 9883POPC   C4B69394  18.260  39.719   7.350
 9884POPC   NC369395   7.432  40.738   5.550
 9884POPC   PO469396   7.453  40.735   5.850
 9884POPC   GL169397   7.429  40.745   6.150
 9884POPC   GL269398   7.450  40.893   6.150
 9884POPC   C1A69399   7.451  40.831   6.450
 9884POPC   D2A69400   7.441  40.810   6.750
 9884POPC   C3A69401   7.452  40.792   7.050
 9884POPC   C4A69402   7.451  40.809   7.350
 9884POPC   C1B69403   7.511  40.991   6.450
 9884POPC   C2B69404   7.478  41.024   6.750
 9884POPC   C3B69405   7.433  40.986   7.050
 9884POPC   C4B69406   7.533  40.983   7.350
 9885POPC   NC369407   9.704   1.166   5.550
 9885POPC   PO469408   9.787   1.251   5.850
 9885POPC   GL169409   9.796   1.230   6.150
 9885POPC   GL269410   9.694   1.174   6.150
 9885POPC   C1A69411   9.796   1.179   6.450
 9885POPC   D2A69412   9.786   1.225   6.750
 9885POPC   C3A69413   9.714   1.215   7.050
 9885POPC   C4A69414   9.772   1.165   7.350
 9885POPC   C1B69415   9.586   1.065   6.450
 9885POPC   C2B69416   9.566   1.086   6.750
 9885POPC   C3B69417   9.508   1.083   7.050
 9885POPC   C4B69418   9.552   1.073   7.350
 9886POPC   NC369419  29.193  21.431   5.550
 9886POPC   PO469420  29.185  21.432   5.850
 9886POPC   GL169421  29.183  21.421   6.150
 9886POPC   GL269422  29.291  21.266   6.150
 9886POPC   C1A69423  29.139  21.364   6.450
 9886POPC   D2A69424  29.100  21.405   6.750
 9886POPC   C3A69425  29.190  21.341   7.050
 9886POPC   C4A69426  29.188  21.404   7.350
 9886POPC   C1B69427  29.344  21.269   6.450
 9886POPC   C2B69428  29.365  21.275   6.750
 9886POPC   C3B69429  29.302  21.257   7.050
 9886POPC   C4B69430  29.381  21.197   7.350
 9887POPC   NC369431   5.887  21.427   5.550
 9887POPC   PO469432   5.822  21.384   5.850
 9887POPC   GL169433   5.828  21.343   6.150
 9887POPC   GL269434   5.738  21.335   6.150
 9887POPC   C1A69435   5.861  21.349   6.450
 9887POPC   D2A69436   5.918  21.395   6.750
 9887POPC   C3A69437   5.856  21.397   7.050
 9887POPC   C4A69438   5.918  21.382   7.350
 9887POPC   C1B69439   5.619  21.283   6.450
 9887POPC   C2B69440   5.638  21.280   6.750
 9887POPC   C3B69441   5.660  21.250   7.050
 9887POPC   C4B69442   5.666  21.283   7.350
 9888POPC   NC369443  11.292  42.359   5.550
 9888POPC   PO469444  11.272  42.351   5.850
 9888POPC   GL169445  11.315  42.334   6.150
 9888POPC   GL269446  11.379  42.403   6.150
 9888POPC   C1A69447  11.261  42.372   6.450
 9888POPC   D2A69448  11.295  42.308   6.750
 9888POPC   C3A69449  11.262  42.307   7.050
 9888POPC   C4A69450  11.275  42.373   7.350
 9888POPC   C1B69451  11.460  42.470   6.450
 9888POPC   C2B69452  11.507  42.522   6.750
 9888POPC   C3B69453  11.480  42.512   7.050
 9888POPC   C4B69454  11.526  42.464   7.350
 9889POPC   NC369455  25.312   2.771   5.550
 9889POPC   PO469456  25.314   2.806   5.850
 9889POPC   GL169457  25.284   2.804   6.150
 9889POPC   GL269458  25.348   2.763   6.150
 9889POPC   C1A69459  25.230   2.766   6.450
 9889POPC   D2A69460  25.299   2.804   6.750
 9889POPC   C3A69461  25.254   2.723   7.050
 9889POPC   C4A69462  25.309   2.736   7.350
 9889POPC   C1B69463  25.536   2.804   6.450
 9889POPC   C2B69464  25.530   2.763   6.750
 9889POPC   C3B69465  25.531   2.757   7.050
 9889POPC   C4B69466  25.488   2.829   7.350
 9890POPC   NC369467  22.180  10.529   5.550
 9890POPC   PO469468  22.136  10.548   5.850
 9890POPC   GL169469  22.146  10.499   6.150
 9890POPC   GL269470  22.146  10.433   6.150
 9890POPC   C1A69471  22.196  10.488   6.450
 9890POPC   D2A69472  22.179  10.499   6.750
 9890POPC   C3A69473  22.192  10.511   7.050
 9890POPC   C4A69474  22.126  10.496   7.350
 9890POPC   C1B69475  22.044  10.283   6.450
 9890POPC   C2B69476  22.101  10.326   6.750
 9890POPC   C3B69477  22.050  10.294   7.050
 9890POPC   C4B69478  22.058  10.336   7.350
 9891POPC   NC369479  12.115  33.761   5.550
 9891POPC   PO469480  12.059  33.834   5.850
 9891POPC   GL169481  12.027  33.754   6.150
 9891POPC   GL269482  12.178  33.844   6.150
 9891POPC   C1A69483  12.058  33.762   6.450
 9891POPC   D2A69484  12.060  33.779   6.750
 9891POPC   C3A69485  12.046  33.820   7.050
 9891POPC   C4A69486  12.085  33.825   7.350
 9891POPC   C1B69487  12.309  33.988   6.450
 9891POPC   C2B69488  12.244  33.979   6.750
 9891POPC   C3B69489  12.240  33.937   7.050
 9891POPC   C4B69490  12.228  33.937   7.350
 9892POPC   NC369491  10.534  24.500   5.550
 9892POPC   PO469492  10.554  24.454   5.850
 9892POPC   GL169493  10.524  24.476   6.150
 9892POPC   GL269494  10.468  24.530   6.150
 9892POPC   C1A69495  10.558  24.520   6.450
 9892POPC   D2A69496  10.546  24.480   6.750
 9892POPC   C3A69497  10.482  24.535   7.050
 9892POPC   C4A69498  10.542  24.529   7.350
 9892POPC   C1B69499  10.327  24.679   6.450
 9892POPC   C2B69500  10.363  24.624   6.750
 9892POPC   C3B69501  10.344  24.656   7.050
 9892POPC   C4B69502  10.330  24.614   7.350
 9893POPC   NC369503  34.617  39.224   5.550
 9893POPC   PO469504  34.596  39.230   5.850
 9893POPC   GL169505  34.614  39.182   6.150
 9893POPC   GL269506  34.669  39.169   6.150
 9893POPC   C1A69507  34.573  39.262   6.450
 9893POPC   D2A69508  34.551  39.256   6.750
 9893POPC   C3A69509  34.565  39.221   7.050
 9893POPC   C4A69510  34.605  39.257   7.350
 9893POPC   C1B69511  34.860  39.171   6.450
 9893POPC   C2B69512  34.850  39.217   6.750
 9893POPC   C3B69513  34.778  39.210   7.050
 9893POPC   C4B69514  34.857  39.234   7.350
 9894POPC   NC369515  13.641  19.846   5.550
 9894POPC   PO469516  13.590  19.815   5.850
 9894POPC   GL169517  13.582  19.821   6.150
 9894POPC   GL269518  13.668  19.715   6.150
 9894POPC   C1A69519  13.634  19.865   6.450
 9894POPC   D2A69520  13.587  19.807   6.750
 9894POPC   C3A69521  13.665  19.879   7.050
 9894POPC   C4A69522  13.630  19.849   7.350
 9894POPC   C1B69523  13.624  19.586   6.450
 9894POPC   C2B69524  13.610  19.630   6.750
 9894POPC   C3B69525  13.638  19.558   7.050
 9894POPC   C4B69526  13.658  19.552   7.350
 9895POPC   NC369527  39.243  37.695   5.550
 9895POPC   PO469528  39.212  37.659   5.850
 9895POPC   GL169529  39.184  37.642   6.150
 9895POPC   GL269530  39.378  37.638   6.150
 9895POPC   C1A69531  39.185  37.671   6.450
 9895POPC   D2A69532  39.215  37.676   6.750
 9895POPC   C3A69533  39.249  37.685   7.050
 9895POPC   C4A69534  39.268  37.711   7.350
 9895POPC   C1B69535  39.490  37.574   6.450
 9895POPC   C2B69536  39.444  37.538   6.750
 9895POPC   C3B69537  39.448  37.560   7.050
 9895POPC   C4B69538  39.436  37.568   7.350
 9896POPC   NC369539  22.898  40.750   5.550
 9896POPC   PO469540  22.958  40.737   5.850
 9896POPC   GL169541  22.977  40.785   6.150
 9896POPC   GL269542  22.846  40.862   6.150
 9896POPC   C1A69543  22.917  40.809   6.450
 9896POPC   D2A69544  22.928  40.781   6.750
 9896POPC   C3A69545  22.978  40.783   7.050
 9896POPC   C4A69546  22.898  40.779   7.350
 9896POPC   C1B69547  22.792  40.945   6.450
 9896POPC   C2B69548  22.828  40.954   6.750
 9896POPC   C3B69549  22.820  40.982   7.050
 9896POPC   C4B69550  22.828  40.981   7.350
 9897POPC   NC369551  18.304  43.840   5.550
 9897POPC   PO469552  18.281  43.904   5.850
 9897POPC   GL169553  18.275  43.864   6.150
 9897POPC   GL269554  18.146  43.774   6.150
 9897POPC   C1A69555  18.321  43.895   6.450
 9897POPC   D2A69556  18.317  43.892   6.750
 9897POPC   C3A69557  18.266  43.888   7.050
 9897POPC   C4A69558  18.241  43.881   7.350
 9897POPC   C1B69559  18.066  43.711   6.450
 9897POPC   C2B69560  18.044  43.720   6.750
 9897POPC   C3B69561  18.050  43.764   7.050
 9897POPC   C4B69562  18.062  43.766   7.350
 9898POPC   NC369563  23.706  15.939   5.550
 9898POPC   PO469564  23.699  16.000   5.850
 9898POPC   GL169565  23.700  15.944   6.150
 9898POPC   GL269566  23.781  16.076   6.150
 9898POPC   C1A69567  23.679  15.909   6.450
 9898POPC   D2A69568  23.719  16.004   6.750
 9898POPC   C3A69569  23.680  15.944   7.050
 9898POPC   C4A69570  23.719  15.981   7.350
 9898POPC   C1B69571  23.943  16.089   6.450
 9898POPC   C2B69572  23.923  16.122   6.750
 9898POPC   C3B69573  23.877  16.113   7.050
 9898POPC   C4B69574  23.936  16.067   7.350
 9899POPC   NC369575  40.026  24.464   5.550
 9899POPC   PO469576  40.037  24.459   5.850
 9899POPC   GL169577  39.962  24.440   6.150
 9899POPC   GL269578  40.066  24.591   6.150
 9899POPC   C1A69579  40.009  24.528   6.450
 9899POPC   D2A69580  40.032  24.504   6.750
 9899POPC   C3A69581  39.993  24.523   7.050
 9899POPC   C4A69582  40.033  24.493   7.350
 9899POPC   C1B69583  40.252  24.662   6.450
 9899POPC   C2B69584  40.193  24.637   6.750
 9899POPC   C3B69585  40.197  24.609   7.050
 9899POPC   C4B69586  40.169  24.618   7.350
 9900POPC   NC369587  43.091   4.347   5.550
 9900POPC   PO469588  43.074   4.302   5.850
 9900POPC   GL169589  43.098   4.319   6.150
 9900POPC   GL269590  43.155   4.434   6.150
 9900POPC   C1A69591  43.115   4.276   6.450
 9900POPC   D2A69592  43.131   4.301   6.750
 9900POPC   C3A69593  43.156   4.292   7.050
 9900POPC   C4A69594  43.147   4.331   7.350
 9900POPC   C1B69595  43.246   4.535   6.450
 9900POPC   C2B69596  43.239   4.568   6.750
 9900POPC   C3B69597  43.245   4.497   7.050
 9900POPC   C4B69598  43.240   4.482   7.350
 9901POPC   NC369599  23.684  36.088   5.550
 9901POPC   PO469600  23.707  36.149   5.850
 9901POPC   GL169601  23.685  36.096   6.150
 9901POPC   GL269602  23.679  36.030   6.150
 9901POPC   C1A69603  23.716  36.091   6.450
 9901POPC   D2A69604  23.691  36.122   6.750
 9901POPC   C3A69605  23.754  36.099   7.050
 9901POPC   C4A69606  23.757  36.129   7.350
 9901POPC   C1B69607  23.617  35.886   6.450
 9901POPC   C2B69608  23.673  35.871   6.750
 9901POPC   C3B69609  23.660  35.903   7.050
 9901POPC   C4B69610  23.659  35.856   7.350
 9902POPC   NC369611   3.502  14.376   5.550
 9902POPC   PO469612   3.498  14.436   5.850
 9902POPC   GL169613   3.563  14.379   6.150
 9902POPC   GL269614   3.402  14.319   6.150
 9902POPC   C1A69615   3.539  14.386   6.450
 9902POPC   D2A69616   3.589  14.364   6.750
 9902POPC   C3A69617   3.591  14.436   7.050
 9902POPC   C4A69618   3.495  14.429   7.350
 9902POPC   C1B69619   3.378  14.227   6.450
 9902POPC   C2B69620   3.404  14.251   6.750
 9902POPC   C3B69621   3.335  14.241   7.050
 9902POPC   C4B69622   3.352  14.232   7.350
 9903POPC   NC369623   0.400  36.944   5.550
 9903POPC   PO469624   0.430  36.927   5.850
 9903POPC   GL169625   0.464  36.933   6.150
 9903POPC   GL269626   0.295  36.840   6.150
 9903POPC   C1A69627   0.394  36.896   6.450
 9903POPC   D2A69628   0.421  36.882   6.750
 9903POPC   C3A69629   0.417  36.902   7.050
 9903POPC   C4A69630   0.403  36.894   7.350
 9903POPC   C1B69631   0.195  36.829   6.450
 9903POPC   C2B69632   0.207  36.785   6.750
 9903POPC   C3B69633   0.256  36.839   7.050
 9903POPC   C4B69634   0.189  36.853   7.350
 9904POPC   NC369635  32.239  22.895   5.550
 9904POPC   PO469636  32.282  22.927   5.850
 9904POPC   GL169637  32.265  22.963   6.150
 9904POPC   GL269638  32.319  22.854   6.150
 9904POPC   C1A69639  32.236  22.935   6.450
 9904POPC   D2A69640  32.284  22.922   6.750
 9904POPC   C3A69641  32.204  22.932   7.050
 9904POPC   C4A69642  32.212  22.977   7.350
 9904POPC   C1B69643  32.281  22.647   6.450
 9904POPC   C2B69644  32.301  22.740   6.750
 9904POPC   C3B69645  32.332  22.737   7.050
 9904POPC   C4B69646  32.303  22.676   7.350
 9905POPC   NC369647  25.306  27.620   5.550
 9905POPC   PO469648  25.223  27.549   5.850
 9905POPC   GL169649  25.307  27.585   6.150
 9905POPC   GL269650  25.211  27.445   6.150
 9905POPC   C1A69651  25.272  27.638   6.450
 9905POPC   D2A69652  25.265  27.545   6.750
 9905POPC   C3A69653  25.231  27.589   7.050
 9905POPC   C4A69654  25.286  27.578   7.350
 9905POPC   C1B69655  25.149  27.356   6.450
 9905POPC   C2B69656  25.103  27.326   6.750
 9905POPC   C3B69657  25.171  27.330   7.050
 9905POPC   C4B69658  25.170  27.413   7.350
 9906POPC   NC369659  37.634  16.764   5.550
 9906POPC   PO469660  37.640  16.729   5.850
 9906POPC   GL169661  37.716  16.703   6.150
 9906POPC   GL269662  37.745  16.628   6.150
 9906POPC   C1A69663  37.710  16.757   6.450
 9906POPC   D2A69664  37.657  16.712   6.750
 9906POPC   C3A69665  37.657  16.744   7.050
 9906POPC   C4A69666  37.710  16.687   7.350
 9906POPC   C1B69667  37.850  16.597   6.450
 9906POPC   C2B69668  37.811  16.515   6.750
 9906POPC   C3B69669  37.882  16.580   7.050
 9906POPC   C4B69670  37.819  16.512   7.350
 9907POPC   NC369671  39.258  29.893   5.550
 9907POPC   PO469672  39.271  29.889   5.850
 9907POPC   GL169673  39.257  29.950   6.150
 9907POPC   GL269674  39.365  29.882   6.150
 9907POPC   C1A69675  39.244  29.899   6.450
 9907POPC   D2A69676  39.243  29.891   6.750
 9907POPC   C3A69677  39.182  29.927   7.050
 9907POPC   C4A69678  39.220  29.957   7.350
 9907POPC   C1B69679  39.468  29.847   6.450
 9907POPC   C2B69680  39.463  29.815   6.750
 9907POPC   C3B69681  39.493  29.867   7.050
 9907POPC   C4B69682  39.475  29.775   7.350
 9908POPC   NC369683  33.006  11.276   5.550
 9908POPC   PO469684  33.070  11.345   5.850
 9908POPC   GL169685  33.000  11.310   6.150
 9908POPC   GL269686  33.104  11.356   6.150
 9908POPC   C1A69687  33.021  11.287   6.450
 9908POPC   D2A69688  33.050  11.265   6.750
 9908POPC   C3A69689  33.060  11.283   7.050
 9908POPC   C4A69690  33.021  11.341   7.350
 9908POPC   C1B69691  33.225  11.355   6.450
 9908POPC   C2B69692  33.292  11.294   6.750
 9908POPC   C3B69693  33.279  11.318   7.050
 9908POPC   C4B69694  33.305  11.313   7.350
 9909POPC   NC369695  34.616   1.181   5.550
 9909POPC   PO469696  34.536   1.178   5.850
 9909POPC   GL169697  34.587   1.171   6.150
 9909POPC   GL269698  34.630   1.051   6.150
 9909POPC   C1A69699  34.545   1.241   6.450
 9909POPC   D2A69700  34.539   1.172   6.750
 9909POPC   C3A69701  34.581   1.240   7.050
 9909POPC   C4A69702  34.553   1.262   7.350
 9909POPC   C1B69703  34.672   0.954   6.450
 9909POPC   C2B69704  34.664   0.993   6.750
 9909POPC   C3B69705  34.612   0.980   7.050
 9909POPC   C4B69706  34.586   0.954   7.350
 9910POPC   NC369707  33.042  34.578   5.550
 9910POPC   PO469708  33.058  34.604   5.850
 9910POPC   GL169709  32.974  34.570   6.150
 9910POPC   GL269710  32.952  34.478   6.150
 9910POPC   C1A69711  33.009  34.600   6.450
 9910POPC   D2A69712  33.047  34.574   6.750
 9910POPC   C3A69713  32.996  34.542   7.050
 9910POPC   C4A69714  33.063  34.615   7.350
 9910POPC   C1B69715  32.894  34.375   6.450
 9910POPC   C2B69716  32.851  34.401   6.750
 9910POPC   C3B69717  32.843  34.431   7.050
 9910POPC   C4B69718  32.870  34.335   7.350
 9911POPC   NC369719  35.305  26.851   5.550
 9911POPC   PO469720  35.398  26.851   5.850
 9911POPC   GL169721  35.336  26.783   6.150
 9911POPC   GL269722  35.361  26.946   6.150
 9911POPC   C1A69723  35.307  26.807   6.450
 9911POPC   D2A69724  35.391  26.791   6.750
 9911POPC   C3A69725  35.335  26.795   7.050
 9911POPC   C4A69726  35.318  26.846   7.350
 9911POPC   C1B69727  35.465  27.048   6.450
 9911POPC   C2B69728  35.435  27.067   6.750
 9911POPC   C3B69729  35.397  27.078   7.050
 9911POPC   C4B69730  35.443  27.040   7.350
 9912POPC   NC369731  14.402  29.119   5.550
 9912POPC   PO469732  14.440  29.132   5.850
 9912POPC   GL169733  14.372  29.188   6.150
 9912POPC   GL269734  14.402  29.301   6.150
 9912POPC   C1A69735  14.410  29.096   6.450
 9912POPC   D2A69736  14.397  29.169   6.750
 9912POPC   C3A69737  14.373  29.113   7.050
 9912POPC   C4A69738  14.400  29.134   7.350
 9912POPC   C1B69739  14.471  29.347   6.450
 9912POPC   C2B69740  14.446  29.397   6.750
 9912POPC   C3B69741  14.485  29.435   7.050
 9912POPC   C4B69742  14.496  29.391   7.350
 9913POPC   NC369743  40.781   7.450   5.550
 9913POPC   PO469744  40.736   7.378   5.850
 9913POPC   GL169745  40.776   7.470   6.150
 9913POPC   GL269746  40.683   7.503   6.150
 9913POPC   C1A69747  40.826   7.450   6.450
 9913POPC   D2A69748  40.754   7.415   6.750
 9913POPC   C3A69749  40.774   7.396   7.050
 9913POPC   C4A69750  40.766   7.420   7.350
 9913POPC   C1B69751  40.586   7.517   6.450
 9913POPC   C2B69752  40.532   7.485   6.750
 9913POPC   C3B69753  40.541   7.514   7.050
 9913POPC   C4B69754  40.516   7.534   7.350
 9914POPC   NC369755  26.005  43.884   5.550
 9914POPC   PO469756  26.032  43.887   5.850
 9914POPC   GL169757  26.072  43.907   6.150
 9914POPC   GL269758  26.184  43.868   6.150
 9914POPC   C1A69759  26.084  43.898   6.450
 9914POPC   D2A69760  26.056  43.891   6.750
 9914POPC   C3A69761  26.025  43.884   7.050
 9914POPC   C4A69762  26.009  43.886   7.350
 9914POPC   C1B69763  26.251  43.732   6.450
 9914POPC   C2B69764  26.257  43.806   6.750
 9914POPC   C3B69765  26.257  43.785   7.050
 9914POPC   C4B69766  26.286  43.737   7.350
 9915POPC   NC369767  12.102  41.605   5.550
 9915POPC   PO469768  12.044  41.582   5.850
 9915POPC   GL169769  12.096  41.509   6.150
 9915POPC   GL269770  12.073  41.464   6.150
 9915POPC   C1A69771  12.113  41.559   6.450
 9915POPC   D2A69772  12.125  41.565   6.750
 9915POPC   C3A69773  12.124  41.531   7.050
 9915POPC   C4A69774  12.082  41.544   7.350
 9915POPC   C1B69775  12.148  41.300   6.450
 9915POPC   C2B69776  12.136  41.341   6.750
 9915POPC   C3B69777  12.203  41.312   7.050
 9915POPC   C4B69778  12.203  41.353   7.350
 9916POPC   NC369779  26.045  31.448   5.550
 9916POPC   PO469780  26.031  31.447   5.850
 9916POPC   GL169781  26.061  31.426   6.150
 9916POPC   GL269782  26.102  31.398   6.150
 9916POPC   C1A69783  26.004  31.492   6.450
 9916POPC   D2A69784  26.018  31.445   6.750
 9916POPC   C3A69785  26.021  31.443   7.050
 9916POPC   C4A69786  26.051  31.505   7.350
 9916POPC   C1B69787  26.145  31.269   6.450
 9916POPC   C2B69788  26.170  31.281   6.750
 9916POPC   C3B69789  26.137  31.238   7.050
 9916POPC   C4B69790  26.151  31.198   7.350
 9917POPC   NC369791  35.371  15.909   5.550
 9917POPC   PO469792  35.377  15.929   5.850
 9917POPC   GL169793  35.355  15.940   6.150
 9917POPC   GL269794  35.319  16.109   6.150
 9917POPC   C1A69795  35.355  15.927   6.450
 9917POPC   D2A69796  35.303  15.959   6.750
 9917POPC   C3A69797  35.384  15.951   7.050
 9917POPC   C4A69798  35.348  15.964   7.350
 9917POPC   C1B69799  35.332  16.170   6.450
 9917POPC   C2B69800  35.367  16.157   6.750
 9917POPC   C3B69801  35.367  16.155   7.050
 9917POPC   C4B69802  35.284  16.203   7.350
 9918POPC   NC369803  28.366  29.924   5.550
 9918POPC   PO469804  28.333  29.871   5.850
 9918POPC   GL169805  28.347  29.941   6.150
 9918POPC   GL269806  28.406  30.070   6.150
 9918POPC   C1A69807  28.408  29.932   6.450
 9918POPC   D2A69808  28.359  29.934   6.750
 9918POPC   C3A69809  28.381  29.889   7.050
 9918POPC   C4A69810  28.348  29.893   7.350
 9918POPC   C1B69811  28.450  30.156   6.450
 9918POPC   C2B69812  28.392  30.125   6.750
 9918POPC   C3B69813  28.396  30.179   7.050
 9918POPC   C4B69814  28.357  30.135   7.350
 9919POPC   NC369815  26.811  43.906   5.550
 9919POPC   PO469816  26.790  43.861   5.850
 9919POPC   GL169817  26.865  43.839   6.150
 9919POPC   GL269818  26.755  43.858   6.150
 9919POPC   C1A69819  26.813  43.866   6.450
 9919POPC   D2A69820  26.797  43.841   6.750
 9919POPC   C3A69821  26.857  43.903   7.050
 9919POPC   C4A69822  26.840  43.836   7.350
 9919POPC   C1B69823  26.628  43.729   6.450
 9919POPC   C2B69824  26.650  43.758   6.750
 9919POPC   C3B69825  26.645  43.765   7.050
 9919POPC   C4B69826  26.599  43.704   7.350
 9920POPC   NC369827  11.272  19.856   5.550
 9920POPC   PO469828  11.346  19.786   5.850
 9920POPC   GL169829  11.282  19.822   6.150
 9920POPC   GL269830  11.206  19.733   6.150
 9920POPC   C1A69831  11.259  19.807   6.450
 9920POPC   D2A69832  11.273  19.851   6.750
 9920POPC   C3A69833  11.294  19.854   7.050
 9920POPC   C4A69834  11.255  19.858   7.350
 9920POPC   C1B69835  11.214  19.612   6.450
 9920POPC   C2B69836  11.228  19.596   6.750
 9920POPC   C3B69837  11.245  19.605   7.050
 9920POPC   C4B69838  11.176  19.620   7.350
 9921POPC   NC369839  37.657  24.465   5.550
 9921POPC   PO469840  37.692  24.465   5.850
 9921POPC   GL169841  37.703  24.454   6.150
 9921POPC   GL269842  37.786  24.400   6.150
 9921POPC   C1A69843  37.676  24.486   6.450
 9921POPC   D2A69844  37.651  24.503   6.750
 9921POPC   C3A69845  37.720  24.493   7.050
 9921POPC   C4A69846  37.655  24.456   7.350
 9921POPC   C1B69847  37.910  24.360   6.450
 9921POPC   C2B69848  37.950  24.437   6.750
 9921POPC   C3B69849  37.942  24.364   7.050
 9921POPC   C4B69850  37.906  24.365   7.350
 9922POPC   NC369851  33.028   0.444   5.550
 9922POPC   PO469852  33.065   0.420   5.850
 9922POPC   GL169853  33.016   0.420   6.150
 9922POPC   GL269854  32.943   0.314   6.150
 9922POPC   C1A69855  33.064   0.454   6.450
 9922POPC   D2A69856  33.058   0.452   6.750
 9922POPC   C3A69857  32.998   0.482   7.050
 9922POPC   C4A69858  33.069   0.414   7.350
 9922POPC   C1B69859  32.954   0.210   6.450
 9922POPC   C2B69860  32.998   0.195   6.750
 9922POPC   C3B69861  32.982   0.177   7.050
 9922POPC   C4B69862  32.964   0.161   7.350
 9923POPC   NC369863  39.979  19.024   5.550
 9923POPC   PO469864  40.025  19.013   5.850
 9923POPC   GL169865  40.037  19.037   6.150
 9923POPC   GL269866  40.071  19.163   6.150
 9923POPC   C1A69867  40.051  19.105   6.450
 9923POPC   D2A69868  40.045  19.104   6.750
 9923POPC   C3A69869  39.976  19.090   7.050
 9923POPC   C4A69870  40.000  19.103   7.350
 9923POPC   C1B69871  40.107  19.338   6.450
 9923POPC   C2B69872  40.113  19.292   6.750
 9923POPC   C3B69873  40.127  19.264   7.050
 9923POPC   C4B69874  40.101  19.292   7.350
 9924POPC   NC369875  19.042  33.798   5.550
 9924POPC   PO469876  19.029  33.841   5.850
 9924POPC   GL169877  19.041  33.821   6.150
 9924POPC   GL269878  19.158  33.762   6.150
 9924POPC   C1A69879  19.048  33.796   6.450
 9924POPC   D2A69880  19.054  33.849   6.750
 9924POPC   C3A69881  19.095  33.795   7.050
 9924POPC   C4A69882  19.103  33.767   7.350
 9924POPC   C1B69883  19.255  33.704   6.450
 9924POPC   C2B69884  19.314  33.643   6.750
 9924POPC   C3B69885  19.261  33.717   7.050
 9924POPC   C4B69886  19.279  33.726   7.350
 9925POPC   NC369887   5.074  30.674   5.550
 9925POPC   PO469888   5.138  30.731   5.850
 9925POPC   GL169889   5.049  30.735   6.150
 9925POPC   GL269890   5.083  30.595   6.150
 9925POPC   C1A69891   5.091  30.730   6.450
 9925POPC   D2A69892   5.053  30.675   6.750
 9925POPC   C3A69893   5.060  30.690   7.050
 9925POPC   C4A69894   5.114  30.656   7.350
 9925POPC   C1B69895   5.105  30.446   6.450
 9925POPC   C2B69896   5.121  30.477   6.750
 9925POPC   C3B69897   5.174  30.443   7.050
 9925POPC   C4B69898   5.147  30.493   7.350
 9926POPC   NC369899  34.611  28.381   5.550
 9926POPC   PO469900  34.526  28.348   5.850
 9926POPC   GL169901  34.585  28.368   6.150
 9926POPC   GL269902  34.503  28.303   6.150
 9926POPC   C1A69903  34.581  28.344   6.450
 9926POPC   D2A69904  34.559  28.344   6.750
 9926POPC   C3A69905  34.593  28.390   7.050
 9926POPC   C4A69906  34.591  28.391   7.350
 9926POPC   C1B69907  34.364  28.299   6.450
 9926POPC   C2B69908  34.318  28.299   6.750
 9926POPC   C3B69909  34.366  28.290   7.050
 9926POPC   C4B69910  34.337  28.239   7.350
 9927POPC   NC369911  35.338  15.147   5.550
 9927POPC   PO469912  35.346  15.217   5.850
 9927POPC   GL169913  35.389  15.185   6.150
 9927POPC   GL269914  35.398  15.307   6.150
 9927POPC   C1A69915  35.348  15.207   6.450
 9927POPC   D2A69916  35.348  15.229   6.750
 9927POPC   C3A69917  35.326  15.159   7.050
 9927POPC   C4A69918  35.321  15.206   7.350
 9927POPC   C1B69919  35.353  15.450   6.450
 9927POPC   C2B69920  35.381  15.397   6.750
 9927POPC   C3B69921  35.439  15.398   7.050
 9927POPC   C4B69922  35.353  15.435   7.350
 9928POPC   NC369923  22.199  12.897   5.550
 9928POPC   PO469924  22.134  12.810   5.850
 9928POPC   GL169925  22.125  12.851   6.150
 9928POPC   GL269926  22.306  12.803   6.150
 9928POPC   C1A69927  22.115  12.807   6.450
 9928POPC   D2A69928  22.197  12.849   6.750
 9928POPC   C3A69929  22.142  12.899   7.050
 9928POPC   C4A69930  22.184  12.845   7.350
 9928POPC   C1B69931  22.380  12.770   6.450
 9928POPC   C2B69932  22.402  12.746   6.750
 9928POPC   C3B69933  22.421  12.808   7.050
 9928POPC   C4B69934  22.444  12.820   7.350
 9929POPC   NC369935  22.194  11.280   5.550
 9929POPC   PO469936  22.123  11.289   5.850
 9929POPC   GL169937  22.149  11.283   6.150
 9929POPC   GL269938  22.048  11.327   6.150
 9929POPC   C1A69939  22.160  11.338   6.450
 9929POPC   D2A69940  22.133  11.251   6.750
 9929POPC   C3A69941  22.114  11.268   7.050
 9929POPC   C4A69942  22.128  11.307   7.350
 9929POPC   C1B69943  21.932  11.467   6.450
 9929POPC   C2B69944  21.912  11.434   6.750
 9929POPC   C3B69945  21.940  11.446   7.050
 9929POPC   C4B69946  21.972  11.403   7.350
 9930POPC   NC369947  41.586  33.000   5.550
 9930POPC   PO469948  41.587  33.059   5.850
 9930POPC   GL169949  41.523  32.979   6.150
 9930POPC   GL269950  41.605  32.939   6.150
 9930POPC   C1A69951  41.572  33.037   6.450
 9930POPC   D2A69952  41.514  33.032   6.750
 9930POPC   C3A69953  41.603  32.991   7.050
 9930POPC   C4A69954  41.540  33.003   7.350
 9930POPC   C1B69955  41.559  32.789   6.450
 9930POPC   C2B69956  41.578  32.822   6.750
 9930POPC   C3B69957  41.553  32.813   7.050
 9930POPC   C4B69958  41.611  32.729   7.350
 9931POPC   NC369959  38.437  40.758   5.550
 9931POPC   PO469960  38.428  40.787   5.850
 9931POPC   GL169961  38.483  40.780   6.150
 9931POPC   GL269962  38.381  40.670   6.150
 9931POPC   C1A69963  38.464  40.778   6.450
 9931POPC   D2A69964  38.444  40.830   6.750
 9931POPC   C3A69965  38.455  40.774   7.050
 9931POPC   C4A69966  38.461  40.811   7.350
 9931POPC   C1B69967  38.360  40.578   6.450
 9931POPC   C2B69968  38.336  40.571   6.750
 9931POPC   C3B69969  38.296  40.522   7.050
 9931POPC   C4B69970  38.320  40.614   7.350
 9932POPC   NC369971  25.271  12.857   5.550
 9932POPC   PO469972  25.236  12.829   5.850
 9932POPC   GL169973  25.252  12.858   6.150
 9932POPC   GL269974  25.307  12.937   6.150
 9932POPC   C1A69975  25.247  12.884   6.450
 9932POPC   D2A69976  25.245  12.866   6.750
 9932POPC   C3A69977  25.253  12.829   7.050
 9932POPC   C4A69978  25.291  12.872   7.350
 9932POPC   C1B69979  25.399  13.098   6.450
 9932POPC   C2B69980  25.359  13.045   6.750
 9932POPC   C3B69981  25.379  13.068   7.050
 9932POPC   C4B69982  25.338  13.102   7.350
 9933POPC   NC369983  30.701  29.908   5.550
 9933POPC   PO469984  30.679  29.879   5.850
 9933POPC   GL169985  30.659  29.923   6.150
 9933POPC   GL269986  30.799  29.922   6.150
 9933POPC   C1A69987  30.666  29.924   6.450
 9933POPC   D2A69988  30.697  29.961   6.750
 9933POPC   C3A69989  30.709  29.945   7.050
 9933POPC   C4A69990  30.662  29.888   7.350
 9933POPC   C1B69991  30.890  29.784   6.450
 9933POPC   C2B69992  30.907  29.872   6.750
 9933POPC   C3B69993  30.971  29.868   7.050
 9933POPC   C4B69994  30.947  29.846   7.350
 9934POPC   NC369995  30.724   5.094   5.550
 9934POPC   PO469996  30.741   5.090   5.850
 9934POPC   GL169997  30.686   5.098   6.150
 9934POPC   GL269998  30.702   5.174   6.150
 9934POPC   C1A69999  30.717   5.096   6.450
 9934POPC   D2A70000  30.708   5.117   6.750
 9934POPC   C3A70001  30.737   5.080   7.050
 9934POPC   C4A70002  30.721   5.133   7.350
 9934POPC   C1B70003  30.821   5.366   6.450
 9934POPC   C2B70004  30.735   5.345   6.750
 9934POPC   C3B70005  30.821   5.343   7.050
 9934POPC   C4B70006  30.809   5.305   7.350
 9935POPC   NC370007  19.876  19.084   5.550
 9935POPC   PO470008  19.845  19.045   5.850
 9935POPC   GL170009  19.883  19.094   6.150
 9935POPC   GL270010  19.729  19.077   6.150
 9935POPC   C1A70011  19.824  19.077   6.450
 9935POPC   D2A70012  19.861  19.090   6.750
 9935POPC   C3A70013  19.859  19.067   7.050
 9935POPC   C4A70014  19.786  19.041   7.350
 9935POPC   C1B70015  19.553  19.170   6.450
 9935POPC   C2B70016  19.636  19.138   6.750
 9935POPC   C3B70017  19.611  19.133   7.050
 9935POPC   C4B70018  19.633  19.096   7.350
 9936POPC   NC370019  36.164  40.786   5.550
 9936POPC   PO470020  36.172  40.800   5.850
 9936POPC   GL170021  36.139  40.784   6.150
 9936POPC   GL270022  36.134  40.648   6.150
 9936POPC   C1A70023  36.087  40.766   6.450
 9936POPC   D2A70024  36.146  40.805   6.750
 9936POPC   C3A70025  36.145  40.820   7.050
 9936POPC   C4A70026  36.132  40.793   7.350
 9936POPC   C1B70027  36.076  40.577   6.450
 9936POPC   C2B70028  36.074  40.557   6.750
 9936POPC   C3B70029  36.031  40.532   7.050
 9936POPC   C4B70030  36.085  40.538   7.350
 9937POPC   NC370031   1.211  43.072   5.550
 9937POPC   PO470032   1.192  43.081   5.850
 9937POPC   GL170033   1.167  43.154   6.150
 9937POPC   GL270034   1.320  43.167   6.150
 9937POPC   C1A70035   1.164  43.144   6.450
 9937POPC   D2A70036   1.176  43.073   6.750
 9937POPC   C3A70037   1.255  43.098   7.050
 9937POPC   C4A70038   1.215  43.108   7.350
 9937POPC   C1B70039   1.463  43.297   6.450
 9937POPC   C2B70040   1.392  43.264   6.750
 9937POPC   C3B70041   1.423  43.289   7.050
 9937POPC   C4B70042   1.400  43.254   7.350
 9938POPC   NC370043  35.332  30.660   5.550
 9938POPC   PO470044  35.324  30.711   5.850
 9938POPC   GL170045  35.338  30.656   6.150
 9938POPC   GL270046  35.357  30.606   6.150
 9938POPC   C1A70047  35.333  30.727   6.450
 9938POPC   D2A70048  35.348  30.676   6.750
 9938POPC   C3A70049  35.398  30.698   7.050
 9938POPC   C4A70050  35.401  30.683   7.350
 9938POPC   C1B70051  35.233  30.504   6.450
 9938POPC   C2B70052  35.248  30.410   6.750
 9938POPC   C3B70053  35.270  30.501   7.050
 9938POPC   C4B70054  35.328  30.485   7.350
 9939POPC   NC370055  43.909   7.384   5.550
 9939POPC   PO470056  43.844   7.372   5.850
 9939POPC   GL170057  43.936   7.405   6.150
 9939POPC   GL270058  44.024   7.462   6.150
 9939POPC   C1A70059  43.919   7.452   6.450
 9939POPC   D2A70060  43.873   7.422   6.750
 9939POPC   C3A70061  43.897   7.446   7.050
 9939POPC   C4A70062  43.901   7.432   7.350
 9939POPC   C1B70063  44.107   7.416   6.450
 9939POPC   C2B70064  44.113   7.417   6.750
 9939POPC   C3B70065  44.180   7.421   7.050
 9939POPC   C4B70066  44.125   7.440   7.350
 9940POPC   NC370067   2.760  41.600   5.550
 9940POPC   PO470068   2.792  41.584   5.850
 9940POPC   GL170069   2.792  41.524   6.150
 9940POPC   GL270070   2.782  41.695   6.150
 9940POPC   C1A70071   2.794  41.575   6.450
 9940POPC   D2A70072   2.783  41.520   6.750
 9940POPC   C3A70073   2.733  41.576   7.050
 9940POPC   C4A70074   2.773  41.574   7.350
 9940POPC   C1B70075   2.898  41.780   6.450
 9940POPC   C2B70076   2.872  41.819   6.750
 9940POPC   C3B70077   2.873  41.821   7.050
 9940POPC   C4B70078   2.881  41.774   7.350
 9941POPC   NC370079  12.848  28.415   5.550
 9941POPC   PO470080  12.866  28.405   5.850
 9941POPC   GL170081  12.890  28.400   6.150
 9941POPC   GL270082  12.807  28.459   6.150
 9941POPC   C1A70083  12.901  28.342   6.450
 9941POPC   D2A70084  12.809  28.342   6.750
 9941POPC   C3A70085  12.901  28.369   7.050
 9941POPC   C4A70086  12.871  28.405   7.350
 9941POPC   C1B70087  12.786  28.613   6.450
 9941POPC   C2B70088  12.748  28.582   6.750
 9941POPC   C3B70089  12.815  28.613   7.050
 9941POPC   C4B70090  12.765  28.562   7.350
 9942POPC   NC370091  17.480  25.310   5.550
 9942POPC   PO470092  17.532  25.270   5.850
 9942POPC   GL170093  17.535  25.310   6.150
 9942POPC   GL270094  17.454  25.391   6.150
 9942POPC   C1A70095  17.476  25.292   6.450
 9942POPC   D2A70096  17.533  25.303   6.750
 9942POPC   C3A70097  17.470  25.227   7.050
 9942POPC   C4A70098  17.479  25.228   7.350
 9942POPC   C1B70099  17.408  25.518   6.450
 9942POPC   C2B70100  17.409  25.460   6.750
 9942POPC   C3B70101  17.331  25.493   7.050
 9942POPC   C4B70102  17.358  25.469   7.350
 9943POPC   NC370103  15.154  13.610   5.550
 9943POPC   PO470104  15.188  13.653   5.850
 9943POPC   GL170105  15.222  13.618   6.150
 9943POPC   GL270106  15.014  13.642   6.150
 9943POPC   C1A70107  15.144  13.639   6.450
 9943POPC   D2A70108  15.214  13.621   6.750
 9943POPC   C3A70109  15.136  13.637   7.050
 9943POPC   C4A70110  15.138  13.583   7.350
 9943POPC   C1B70111  14.947  13.628   6.450
 9943POPC   C2B70112  14.928  13.662   6.750
 9943POPC   C3B70113  14.914  13.693   7.050
 9943POPC   C4B70114  14.968  13.711   7.350
 9944POPC   NC370115  30.738  33.844   5.550
 9944POPC   PO470116  30.741  33.830   5.850
 9944POPC   GL170117  30.724  33.796   6.150
 9944POPC   GL270118  30.572  33.775   6.150
 9944POPC   C1A70119  30.677  33.797   6.450
 9944POPC   D2A70120  30.737  33.850   6.750
 9944POPC   C3A70121  30.655  33.785   7.050
 9944POPC   C4A70122  30.746  33.824   7.350
 9944POPC   C1B70123  30.507  33.725   6.450
 9944POPC   C2B70124  30.441  33.718   6.750
 9944POPC   C3B70125  30.514  33.695   7.050
 9944POPC   C4B70126  30.435  33.694   7.350
 9945POPC   NC370127  42.329  36.916   5.550
 9945POPC   PO470128  42.380  36.860   5.850
 9945POPC   GL170129  42.312  36.862   6.150
 9945POPC   GL270130  42.410  36.934   6.150
 9945POPC   C1A70131  42.309  36.919   6.450
 9945POPC   D2A70132  42.304  36.947   6.750
 9945POPC   C3A70133  42.322  36.940   7.050
 9945POPC   C4A70134  42.290  36.908   7.350
 9945POPC   C1B70135  42.610  36.885   6.450
 9945POPC   C2B70136  42.584  36.941   6.750
 9945POPC   C3B70137  42.596  36.914   7.050
 9945POPC   C4B70138  42.537  36.901   7.350
 9946POPC   NC370139  34.559  23.760   5.550
 9946POPC   PO470140  34.544  23.714   5.850
 9946POPC   GL170141  34.582  23.674   6.150
 9946POPC   GL270142  34.557  23.570   6.150
 9946POPC   C1A70143  34.561  23.752   6.450
 9946POPC   D2A70144  34.580  23.757   6.750
 9946POPC   C3A70145  34.552  23.723   7.050
 9946POPC   C4A70146  34.567  23.691   7.350
 9946POPC   C1B70147  34.651  23.492   6.450
 9946POPC   C2B70148  34.623  23.448   6.750
 9946POPC   C3B70149  34.569  23.465   7.050
 9946POPC   C4B70150  34.559  23.447   7.350
 9947POPC   NC370151  18.276  36.124   5.550
 9947POPC   PO470152  18.316  36.098   5.850
 9947POPC   GL170153  18.247  36.129   6.150
 9947POPC   GL270154  18.242  36.259   6.150
 9947POPC   C1A70155  18.287  36.099   6.450
 9947POPC   D2A70156  18.303  36.159   6.750
 9947POPC   C3A70157  18.239  36.123   7.050
 9947POPC   C4A70158  18.326  36.153   7.350
 9947POPC   C1B70159  18.120  36.357   6.450
 9947POPC   C2B70160  18.170  36.288   6.750
 9947POPC   C3B70161  18.114  36.302   7.050
 9947POPC   C4B70162  18.175  36.300   7.350
 9948POPC   NC370163  18.295  29.933   5.550
 9948POPC   PO470164  18.240  29.874   5.850
 9948POPC   GL170165  18.264  29.901   6.150
 9948POPC   GL270166  18.226  29.976   6.150
 9948POPC   C1A70167  18.296  29.953   6.450
 9948POPC   D2A70168  18.280  29.940   6.750
 9948POPC   C3A70169  18.267  29.885   7.050
 9948POPC   C4A70170  18.312  29.905   7.350
 9948POPC   C1B70171  18.058  30.077   6.450
 9948POPC   C2B70172  18.137  30.084   6.750
 9948POPC   C3B70173  18.137  30.034   7.050
 9948POPC   C4B70174  18.112  30.069   7.350
 9949POPC   NC370175  37.643  29.105   5.550
 9949POPC   PO470176  37.657  29.173   5.850
 9949POPC   GL170177  37.690  29.153   6.150
 9949POPC   GL270178  37.506  29.165   6.150
 9949POPC   C1A70179  37.645  29.120   6.450
 9949POPC   D2A70180  37.686  29.108   6.750
 9949POPC   C3A70181  37.716  29.148   7.050
 9949POPC   C4A70182  37.643  29.105   7.350
 9949POPC   C1B70183  37.436  29.167   6.450
 9949POPC   C2B70184  37.380  29.118   6.750
 9949POPC   C3B70185  37.423  29.137   7.050
 9949POPC   C4B70186  37.394  29.112   7.350
 9950POPC   NC370187  33.785  41.582   5.550
 9950POPC   PO470188  33.802  41.522   5.850
 9950POPC   GL170189  33.840  41.580   6.150
 9950POPC   GL270190  33.891  41.450   6.150
 9950POPC   C1A70191  33.832  41.519   6.450
 9950POPC   D2A70192  33.840  41.518   6.750
 9950POPC   C3A70193  33.802  41.605   7.050
 9950POPC   C4A70194  33.755  41.566   7.350
 9950POPC   C1B70195  33.957  41.340   6.450
 9950POPC   C2B70196  33.909  41.395   6.750
 9950POPC   C3B70197  33.998  41.407   7.050
 9950POPC   C4B70198  33.953  41.410   7.350
 9951POPC   NC370199  22.916  29.919   5.550
 9951POPC   PO470200  22.933  29.952   5.850
 9951POPC   GL170201  22.986  29.912   6.150
 9951POPC   GL270202  22.903  29.826   6.150
 9951POPC   C1A70203  22.913  29.889   6.450
 9951POPC   D2A70204  22.916  29.909   6.750
 9951POPC   C3A70205  22.894  29.913   7.050
 9951POPC   C4A70206  22.934  29.946   7.350
 9951POPC   C1B70207  22.829  29.735   6.450
 9951POPC   C2B70208  22.794  29.748   6.750
 9951POPC   C3B70209  22.761  29.668   7.050
 9951POPC   C4B70210  22.783  29.732   7.350
 9952POPC   NC370211  41.514  22.157   5.550
 9952POPC   PO470212  41.602  22.186   5.850
 9952POPC   GL170213  41.509  22.134   6.150
 9952POPC   GL270214  41.616  22.061   6.150
 9952POPC   C1A70215  41.529  22.118   6.450
 9952POPC   D2A70216  41.526  22.147   6.750
 9952POPC   C3A70217  41.518  22.141   7.050
 9952POPC   C4A70218  41.595  22.189   7.350
 9952POPC   C1B70219  41.771  21.959   6.450
 9952POPC   C2B70220  41.727  21.979   6.750
 9952POPC   C3B70221  41.735  21.988   7.050
 9952POPC   C4B70222  41.759  21.976   7.350
 9953POPC   NC370223  26.026   5.138   5.550
 9953POPC   PO470224  25.992   5.097   5.850
 9953POPC   GL170225  25.995   5.129   6.150
 9953POPC   GL270226  26.165   5.034   6.150
 9953POPC   C1A70227  26.031   5.074   6.450
 9953POPC   D2A70228  26.034   5.131   6.750
 9953POPC   C3A70229  26.026   5.075   7.050
 9953POPC   C4A70230  26.080   5.092   7.350
 9953POPC   C1B70231  26.289   4.930   6.450
 9953POPC   C2B70232  26.295   4.913   6.750
 9953POPC   C3B70233  26.254   4.912   7.050
 9953POPC   C4B70234  26.254   4.911   7.350
 9954POPC   NC370235   9.728  14.427   5.550
 9954POPC   PO470236   9.737  14.398   5.850
 9954POPC   GL170237   9.732  14.416   6.150
 9954POPC   GL270238   9.787  14.467   6.150
 9954POPC   C1A70239   9.721  14.397   6.450
 9954POPC   D2A70240   9.763  14.449   6.750
 9954POPC   C3A70241   9.735  14.370   7.050
 9954POPC   C4A70242   9.711  14.424   7.350
 9954POPC   C1B70243   9.899  14.604   6.450
 9954POPC   C2B70244   9.820  14.664   6.750
 9954POPC   C3B70245   9.830  14.580   7.050
 9954POPC   C4B70246   9.817  14.663   7.350
 9955POPC   NC370247   7.387  39.239   5.550
 9955POPC   PO470248   7.463  39.201   5.850
 9955POPC   GL170249   7.377  39.203   6.150
 9955POPC   GL270250   7.283  39.290   6.150
 9955POPC   C1A70251   7.452  39.210   6.450
 9955POPC   D2A70252   7.440  39.242   6.750
 9955POPC   C3A70253   7.465  39.212   7.050
 9955POPC   C4A70254   7.407  39.222   7.350
 9955POPC   C1B70255   7.214  39.334   6.450
 9955POPC   C2B70256   7.165  39.419   6.750
 9955POPC   C3B70257   7.212  39.382   7.050
 9955POPC   C4B70258   7.170  39.403   7.350
 9956POPC   NC370259  19.054  43.856   5.550
 9956POPC   PO470260  19.088  43.894   5.850
 9956POPC   GL170261  19.071  43.911   6.150
 9956POPC   GL270262  19.055  44.011   6.150
 9956POPC   C1A70263  19.018  43.856   6.450
 9956POPC   D2A70264  19.036  43.847   6.750
 9956POPC   C3A70265  19.087  43.884   7.050
 9956POPC   C4A70266  19.015  43.853   7.350
 9956POPC   C1B70267  19.071  44.178   6.450
 9956POPC   C2B70268  19.039  44.108   6.750
 9956POPC   C3B70269  19.025  44.114   7.050
 9956POPC   C4B70270  19.072  44.133   7.350
 9957POPC   NC370271  34.554  17.494   5.550
 9957POPC   PO470272  34.574  17.510   5.850
 9957POPC   GL170273  34.616  17.552   6.150
 9957POPC   GL270274  34.491  17.435   6.150
 9957POPC   C1A70275  34.570  17.530   6.450
 9957POPC   D2A70276  34.539  17.555   6.750
 9957POPC   C3A70277  34.561  17.539   7.050
 9957POPC   C4A70278  34.610  17.507   7.350
 9957POPC   C1B70279  34.458  17.232   6.450
 9957POPC   C2B70280  34.461  17.283   6.750
 9957POPC   C3B70281  34.510  17.242   7.050
 9957POPC   C4B70282  34.490  17.238   7.350
 9958POPC   NC370283  34.578  43.907   5.550
 9958POPC   PO470284  34.611  43.932   5.850
 9958POPC   GL170285  34.605  43.897   6.150
 9958POPC   GL270286  34.590  43.988   6.150
 9958POPC   C1A70287  34.578  43.889   6.450
 9958POPC   D2A70288  34.607  43.895   6.750
 9958POPC   C3A70289  34.546  43.884   7.050
 9958POPC   C4A70290  34.558  43.882   7.350
 9958POPC   C1B70291  34.545  44.160   6.450
 9958POPC   C2B70292  34.580  44.141   6.750
 9958POPC   C3B70293  34.615  44.168   7.050
 9958POPC   C4B70294  34.596  44.136   7.350
 9959POPC   NC370295  33.822  42.326   5.550
 9959POPC   PO470296  33.761  42.376   5.850
 9959POPC   GL170297  33.778  42.355   6.150
 9959POPC   GL270298  33.739  42.476   6.150
 9959POPC   C1A70299  33.795  42.288   6.450
 9959POPC   D2A70300  33.797  42.371   6.750
 9959POPC   C3A70301  33.806  42.378   7.050
 9959POPC   C4A70302  33.811  42.342   7.350
 9959POPC   C1B70303  33.671  42.565   6.450
 9959POPC   C2B70304  33.624  42.564   6.750
 9959POPC   C3B70305  33.648  42.538   7.050
 9959POPC   C4B70306  33.632  42.534   7.350
 9960POPC   NC370307  12.118  35.335   5.550
 9960POPC   PO470308  12.124  35.358   5.850
 9960POPC   GL170309  12.095  35.392   6.150
 9960POPC   GL270310  12.005  35.284   6.150
 9960POPC   C1A70311  12.126  35.372   6.450
 9960POPC   D2A70312  12.073  35.321   6.750
 9960POPC   C3A70313  12.120  35.390   7.050
 9960POPC   C4A70314  12.097  35.360   7.350
 9960POPC   C1B70315  11.983  35.104   6.450
 9960POPC   C2B70316  11.925  35.158   6.750
 9960POPC   C3B70317  11.929  35.138   7.050
 9960POPC   C4B70318  11.912  35.143   7.350
 9961POPC   NC370319  40.757  29.159   5.550
 9961POPC   PO470320  40.817  29.099   5.850
 9961POPC   GL170321  40.798  29.099   6.150
 9961POPC   GL270322  40.847  29.225   6.150
 9961POPC   C1A70323  40.799  29.158   6.450
 9961POPC   D2A70324  40.771  29.190   6.750
 9961POPC   C3A70325  40.813  29.152   7.050
 9961POPC   C4A70326  40.826  29.174   7.350
 9961POPC   C1B70327  41.018  29.210   6.450
 9961POPC   C2B70328  41.050  29.261   6.750
 9961POPC   C3B70329  41.037  29.227   7.050
 9961POPC   C4B70330  41.055  29.261   7.350
 9962POPC   NC370331   2.723  20.610   5.550
 9962POPC   PO470332   2.748  20.581   5.850
 9962POPC   GL170333   2.776  20.609   6.150
 9962POPC   GL270334   2.887  20.587   6.150
 9962POPC   C1A70335   2.752  20.563   6.450
 9962POPC   D2A70336   2.778  20.561   6.750
 9962POPC   C3A70337   2.777  20.622   7.050
 9962POPC   C4A70338   2.716  20.601   7.350
 9962POPC   C1B70339   3.064  20.619   6.450
 9962POPC   C2B70340   3.060  20.597   6.750
 9962POPC   C3B70341   3.004  20.644   7.050
 9962POPC   C4B70342   3.015  20.641   7.350
 9963POPC   NC370343   2.787  21.386   5.550
 9963POPC   PO470344   2.809  21.379   5.850
 9963POPC   GL170345   2.771  21.424   6.150
 9963POPC   GL270346   2.783  21.552   6.150
 9963POPC   C1A70347   2.782  21.400   6.450
 9963POPC   D2A70348   2.769  21.374   6.750
 9963POPC   C3A70349   2.747  21.397   7.050
 9963POPC   C4A70350   2.788  21.364   7.350
 9963POPC   C1B70351   2.879  21.634   6.450
 9963POPC   C2B70352   2.852  21.663   6.750
 9963POPC   C3B70353   2.899  21.646   7.050
 9963POPC   C4B70354   2.823  21.657   7.350
 9964POPC   NC370355  12.094  43.148   5.550
 9964POPC   PO470356  12.069  43.101   5.850
 9964POPC   GL170357  12.116  43.120   6.150
 9964POPC   GL270358  12.156  43.246   6.150
 9964POPC   C1A70359  12.124  43.133   6.450
 9964POPC   D2A70360  12.055  43.108   6.750
 9964POPC   C3A70361  12.066  43.103   7.050
 9964POPC   C4A70362  12.059  43.145   7.350
 9964POPC   C1B70363  12.170  43.376   6.450
 9964POPC   C2B70364  12.201  43.307   6.750
 9964POPC   C3B70365  12.191  43.369   7.050
 9964POPC   C4B70366  12.199  43.308   7.350
 9965POPC   NC370367   0.455  33.048   5.550
 9965POPC   PO470368   0.407  33.067   5.850
 9965POPC   GL170369   0.425  33.008   6.150
 9965POPC   GL270370   0.501  33.066   6.150
 9965POPC   C1A70371   0.432  32.986   6.450
 9965POPC   D2A70372   0.419  33.037   6.750
 9965POPC   C3A70373   0.475  33.074   7.050
 9965POPC   C4A70374   0.410  33.043   7.350
 9965POPC   C1B70375   0.644  33.161   6.450
 9965POPC   C2B70376   0.609  33.188   6.750
 9965POPC   C3B70377   0.659  33.237   7.050
 9965POPC   C4B70378   0.645  33.222   7.350
 9966POPC   NC370379  27.585   7.391   5.550
 9966POPC   PO470380  27.622   7.450   5.850
 9966POPC   GL170381  27.630   7.421   6.150
 9966POPC   GL270382  27.460   7.457   6.150
 9966POPC   C1A70383  27.557   7.447   6.450
 9966POPC   D2A70384  27.592   7.427   6.750
 9966POPC   C3A70385  27.614   7.469   7.050
 9966POPC   C4A70386  27.555   7.416   7.350
 9966POPC   C1B70387  27.323   7.410   6.450
 9966POPC   C2B70388  27.341   7.401   6.750
 9966POPC   C3B70389  27.354   7.436   7.050
 9966POPC   C4B70390  27.372   7.450   7.350
 9967POPC   NC370391  35.356  26.014   5.550
 9967POPC   PO470392  35.356  26.001   5.850
 9967POPC   GL170393  35.354  26.023   6.150
 9967POPC   GL270394  35.383  25.931   6.150
 9967POPC   C1A70395  35.313  26.014   6.450
 9967POPC   D2A70396  35.383  26.033   6.750
 9967POPC   C3A70397  35.377  26.050   7.050
 9967POPC   C4A70398  35.315  26.035   7.350
 9967POPC   C1B70399  35.495  25.788   6.450
 9967POPC   C2B70400  35.408  25.836   6.750
 9967POPC   C3B70401  35.485  25.800   7.050
 9967POPC   C4B70402  35.433  25.811   7.350
 9968POPC   NC370403   4.276  21.431   5.550
 9968POPC   PO470404   4.317  21.430   5.850
 9968POPC   GL170405   4.286  21.368   6.150
 9968POPC   GL270406   4.276  21.287   6.150
 9968POPC   C1A70407   4.361  21.394   6.450
 9968POPC   D2A70408   4.334  21.429   6.750
 9968POPC   C3A70409   4.349  21.411   7.050
 9968POPC   C4A70410   4.288  21.409   7.350
 9968POPC   C1B70411   4.182  21.206   6.450
 9968POPC   C2B70412   4.196  21.121   6.750
 9968POPC   C3B70413   4.241  21.176   7.050
 9968POPC   C4B70414   4.196  21.147   7.350
 9969POPC   NC370415  14.392  43.126   5.550
 9969POPC   PO470416  14.436  43.145   5.850
 9969POPC   GL170417  14.377  43.142   6.150
 9969POPC   GL270418  14.478  43.011   6.150
 9969POPC   C1A70419  14.380  43.072   6.450
 9969POPC   D2A70420  14.432  43.145   6.750
 9969POPC   C3A70421  14.362  43.140   7.050
 9969POPC   C4A70422  14.366  43.118   7.350
 9969POPC   C1B70423  14.584  42.897   6.450
 9969POPC   C2B70424  14.559  42.906   6.750
 9969POPC   C3B70425  14.553  42.884   7.050
 9969POPC   C4B70426  14.592  42.955   7.350
 9970POPC   NC370427   0.416  24.517   5.550
 9970POPC   PO470428   0.449  24.528   5.850
 9970POPC   GL170429   0.436  24.518   6.150
 9970POPC   GL270430   0.363  24.509   6.150
 9970POPC   C1A70431   0.470  24.471   6.450
 9970POPC   D2A70432   0.407  24.485   6.750
 9970POPC   C3A70433   0.472  24.516   7.050
 9970POPC   C4A70434   0.441  24.473   7.350
 9970POPC   C1B70435   0.279  24.668   6.450
 9970POPC   C2B70436   0.229  24.637   6.750
 9970POPC   C3B70437   0.259  24.648   7.050
 9970POPC   C4B70438   0.257  24.620   7.350
 9971POPC   NC370439   0.476  15.946   5.550
 9971POPC   PO470440   0.457  15.953   5.850
 9971POPC   GL170441   0.453  16.004   6.150
 9971POPC   GL270442   0.455  15.873   6.150
 9971POPC   C1A70443   0.474  15.982   6.450
 9971POPC   D2A70444   0.398  15.974   6.750
 9971POPC   C3A70445   0.458  16.001   7.050
 9971POPC   C4A70446   0.431  15.944   7.350
 9971POPC   C1B70447   0.438  15.687   6.450
 9971POPC   C2B70448   0.457  15.674   6.750
 9971POPC   C3B70449   0.429  15.741   7.050
 9971POPC   C4B70450   0.404  15.713   7.350
 9972POPC   NC370451  23.707  26.800   5.550
 9972POPC   PO470452  23.710  26.866   5.850
 9972POPC   GL170453  23.740  26.833   6.150
 9972POPC   GL270454  23.567  26.819   6.150
 9972POPC   C1A70455  23.756  26.828   6.450
 9972POPC   D2A70456  23.715  26.791   6.750
 9972POPC   C3A70457  23.724  26.799   7.050
 9972POPC   C4A70458  23.685  26.844   7.350
 9972POPC   C1B70459  23.495  26.764   6.450
 9972POPC   C2B70460  23.481  26.715   6.750
 9972POPC   C3B70461  23.489  26.708   7.050
 9972POPC   C4B70462  23.467  26.725   7.350
 9973POPC   NC370463  44.622  31.503   5.550
 9973POPC   PO470464  44.640  31.512   5.850
 9973POPC   GL170465  44.650  31.480   6.150
 9973POPC   GL270466  44.582  31.366   6.150
 9973POPC   C1A70467  44.658  31.477   6.450
 9973POPC   D2A70468  44.712  31.507   6.750
 9973POPC   C3A70469  44.627  31.455   7.050
 9973POPC   C4A70470  44.707  31.495   7.350
 9973POPC   C1B70471  44.488  31.345   6.450
 9973POPC   C2B70472  44.454  31.364   6.750
 9973POPC   C3B70473  44.477  31.390   7.050
 9973POPC   C4B70474  44.406  31.359   7.350
 9974POPC   NC370475  15.141  14.407   5.550
 9974POPC   PO470476  15.177  14.369   5.850
 9974POPC   GL170477  15.213  14.408   6.150
 9974POPC   GL270478  15.340  14.408   6.150
 9974POPC   C1A70479  15.169  14.389   6.450
 9974POPC   D2A70480  15.223  14.388   6.750
 9974POPC   C3A70481  15.172  14.356   7.050
 9974POPC   C4A70482  15.220  14.359   7.350
 9974POPC   C1B70483  15.455  14.480   6.450
 9974POPC   C2B70484  15.453  14.510   6.750
 9974POPC   C3B70485  15.400  14.493   7.050
 9974POPC   C4B70486  15.365  14.540   7.350
 9975POPC   NC370487  44.674  41.606   5.550
 9975POPC   PO470488  44.622  41.582   5.850
 9975POPC   GL170489  44.625  41.530   6.150
 9975POPC   GL270490  44.564  41.651   6.150
 9975POPC   C1A70491  44.710  41.586   6.450
 9975POPC   D2A70492  44.699  41.603   6.750
 9975POPC   C3A70493  44.666  41.538   7.050
 9975POPC   C4A70494  44.634  41.562   7.350
 9975POPC   C1B70495  44.483  41.645   6.450
 9975POPC   C2B70496  44.452  41.634   6.750
 9975POPC   C3B70497  44.450  41.688   7.050
 9975POPC   C4B70498  44.397  41.683   7.350
 9976POPC   NC370499  36.142  30.667   5.550
 9976POPC   PO470500  36.088  30.711   5.850
 9976POPC   GL170501  36.163  30.710   6.150
 9976POPC   GL270502  36.205  30.725   6.150
 9976POPC   C1A70503  36.092  30.672   6.450
 9976POPC   D2A70504  36.094  30.675   6.750
 9976POPC   C3A70505  36.097  30.736   7.050
 9976POPC   C4A70506  36.101  30.662   7.350
 9976POPC   C1B70507  36.349  30.744   6.450
 9976POPC   C2B70508  36.353  30.751   6.750
 9976POPC   C3B70509  36.373  30.788   7.050
 9976POPC   C4B70510  36.373  30.761   7.350
 9977POPC   NC370511  23.719  17.471   5.550
 9977POPC   PO470512  23.726  17.508   5.850
 9977POPC   GL170513  23.715  17.541   6.150
 9977POPC   GL270514  23.782  17.620   6.150
 9977POPC   C1A70515  23.724  17.500   6.450
 9977POPC   D2A70516  23.743  17.535   6.750
 9977POPC   C3A70517  23.745  17.524   7.050
 9977POPC   C4A70518  23.693  17.462   7.350
 9977POPC   C1B70519  23.807  17.704   6.450
 9977POPC   C2B70520  23.900  17.695   6.750
 9977POPC   C3B70521  23.839  17.689   7.050
 9977POPC   C4B70522  23.889  17.718   7.350
 9978POPC   NC370523  12.083  30.689   5.550
 9978POPC   PO470524  12.116  30.647   5.850
 9978POPC   GL170525  12.115  30.741   6.150
 9978POPC   GL270526  11.981  30.636   6.150
 9978POPC   C1A70527  12.037  30.730   6.450
 9978POPC   D2A70528  12.089  30.648   6.750
 9978POPC   C3A70529  12.117  30.734   7.050
 9978POPC   C4A70530  12.048  30.671   7.350
 9978POPC   C1B70531  11.861  30.580   6.450
 9978POPC   C2B70532  11.792  30.595   6.750
 9978POPC   C3B70533  11.813  30.653   7.050
 9978POPC   C4B70534  11.884  30.592   7.350
 9979POPC   NC370535  27.630  12.853   5.550
 9979POPC   PO470536  27.544  12.891   5.850
 9979POPC   GL170537  27.601  12.863   6.150
 9979POPC   GL270538  27.705  12.884   6.150
 9979POPC   C1A70539  27.579  12.859   6.450
 9979POPC   D2A70540  27.619  12.839   6.750
 9979POPC   C3A70541  27.553  12.803   7.050
 9979POPC   C4A70542  27.600  12.807   7.350
 9979POPC   C1B70543  27.769  12.973   6.450
 9979POPC   C2B70544  27.795  13.006   6.750
 9979POPC   C3B70545  27.749  13.019   7.050
 9979POPC   C4B70546  27.760  13.026   7.350
 9980POPC   NC370547  14.409   5.045   5.550
 9980POPC   PO470548  14.427   5.101   5.850
 9980POPC   GL170549  14.420   5.046   6.150
 9980POPC   GL270550  14.352   4.964   6.150
 9980POPC   C1A70551  14.426   5.114   6.450
 9980POPC   D2A70552  14.392   5.090   6.750
 9980POPC   C3A70553  14.409   5.108   7.050
 9980POPC   C4A70554  14.369   5.057   7.350
 9980POPC   C1B70555  14.292   4.836   6.450
 9980POPC   C2B70556  14.359   4.857   6.750
 9980POPC   C3B70557  14.380   4.876   7.050
 9980POPC   C4B70558  14.349   4.820   7.350
 9981POPC   NC370559  26.806  25.290   5.550
 9981POPC   PO470560  26.801  25.294   5.850
 9981POPC   GL170561  26.828  25.247   6.150
 9981POPC   GL270562  26.730  25.351   6.150
 9981POPC   C1A70563  26.840  25.280   6.450
 9981POPC   D2A70564  26.840  25.294   6.750
 9981POPC   C3A70565  26.786  25.266   7.050
 9981POPC   C4A70566  26.809  25.299   7.350
 9981POPC   C1B70567  26.573  25.310   6.450
 9981POPC   C2B70568  26.560  25.372   6.750
 9981POPC   C3B70569  26.631  25.337   7.050
 9981POPC   C4B70570  26.603  25.334   7.350
 9982POPC   NC370571  16.715  12.875   5.550
 9982POPC   PO470572  16.716  12.861   5.850
 9982POPC   GL170573  16.737  12.842   6.150
 9982POPC   GL270574  16.801  12.746   6.150
 9982POPC   C1A70575  16.736  12.866   6.450
 9982POPC   D2A70576  16.690  12.806   6.750
 9982POPC   C3A70577  16.688  12.851   7.050
 9982POPC   C4A70578  16.725  12.846   7.350
 9982POPC   C1B70579  16.791  12.650   6.450
 9982POPC   C2B70580  16.730  12.596   6.750
 9982POPC   C3B70581  16.741  12.622   7.050
 9982POPC   C4B70582  16.785  12.586   7.350
 9983POPC   NC370583   8.925   9.785   5.550
 9983POPC   PO470584   9.018   9.762   5.850
 9983POPC   GL170585   8.939   9.783   6.150
 9983POPC   GL270586   8.874   9.653   6.150
 9983POPC   C1A70587   8.961   9.785   6.450
 9983POPC   D2A70588   8.973   9.770   6.750
 9983POPC   C3A70589   8.939   9.780   7.050
 9983POPC   C4A70590   8.975   9.743   7.350
 9983POPC   C1B70591   8.762   9.552   6.450
 9983POPC   C2B70592   8.757   9.582   6.750
 9983POPC   C3B70593   8.766   9.541   7.050
 9983POPC   C4B70594   8.774   9.562   7.350
 9984POPC   NC370595  22.195  29.187   5.550
 9984POPC   PO470596  22.169  29.145   5.850
 9984POPC   GL170597  22.130  29.168   6.150
 9984POPC   GL270598  22.272  29.120   6.150
 9984POPC   C1A70599  22.180  29.180   6.450
 9984POPC   D2A70600  22.193  29.162   6.750
 9984POPC   C3A70601  22.182  29.163   7.050
 9984POPC   C4A70602  22.113  29.178   7.350
 9984POPC   C1B70603  22.412  29.087   6.450
 9984POPC   C2B70604  22.410  29.166   6.750
 9984POPC   C3B70605  22.368  29.120   7.050
 9984POPC   C4B70606  22.427  29.086   7.350
 9985POPC   NC370607  36.120   4.271   5.550
 9985POPC   PO470608  36.078   4.311   5.850
 9985POPC   GL170609  36.104   4.310   6.150
 9985POPC   GL270610  35.995   4.258   6.150
 9985POPC   C1A70611  36.107   4.353   6.450
 9985POPC   D2A70612  36.159   4.334   6.750
 9985POPC   C3A70613  36.083   4.279   7.050
 9985POPC   C4A70614  36.154   4.324   7.350
 9985POPC   C1B70615  35.859   4.272   6.450
 9985POPC   C2B70616  35.840   4.225   6.750
 9985POPC   C3B70617  35.866   4.200   7.050
 9985POPC   C4B70618  35.856   4.238   7.350
 9986POPC   NC370619   2.727  35.368   5.550
 9986POPC   PO470620   2.813  35.382   5.850
 9986POPC   GL170621   2.809  35.331   6.150
 9986POPC   GL270622   2.714  35.261   6.150
 9986POPC   C1A70623   2.741  35.319   6.450
 9986POPC   D2A70624   2.748  35.315   6.750
 9986POPC   C3A70625   2.732  35.339   7.050
 9986POPC   C4A70626   2.803  35.369   7.350
 9986POPC   C1B70627   2.665  35.110   6.450
 9986POPC   C2B70628   2.637  35.168   6.750
 9986POPC   C3B70629   2.699  35.079   7.050
 9986POPC   C4B70630   2.703  35.136   7.350
 9987POPC   NC370631  33.038  19.071   5.550
 9987POPC   PO470632  33.055  19.014   5.850
 9987POPC   GL170633  33.063  19.040   6.150
 9987POPC   GL270634  33.104  18.948   6.150
 9987POPC   C1A70635  32.993  19.064   6.450
 9987POPC   D2A70636  32.988  19.083   6.750
 9987POPC   C3A70637  32.980  19.027   7.050
 9987POPC   C4A70638  33.046  19.086   7.350
 9987POPC   C1B70639  33.061  18.798   6.450
 9987POPC   C2B70640  33.127  18.779   6.750
 9987POPC   C3B70641  33.085  18.788   7.050
 9987POPC   C4B70642  33.114  18.820   7.350
 9988POPC   NC370643  24.509  36.866   5.550
 9988POPC   PO470644  24.462  36.866   5.850
 9988POPC   GL170645  24.516  36.936   6.150
 9988POPC   GL270646  24.378  36.929   6.150
 9988POPC   C1A70647  24.468  36.870   6.450
 9988POPC   D2A70648  24.539  36.869   6.750
 9988POPC   C3A70649  24.540  36.923   7.050
 9988POPC   C4A70650  24.444  36.856   7.350
 9988POPC   C1B70651  24.272  36.940   6.450
 9988POPC   C2B70652  24.266  36.997   6.750
 9988POPC   C3B70653  24.253  36.956   7.050
 9988POPC   C4B70654  24.280  36.994   7.350
 9989POPC   NC370655   4.350  39.959   5.550
 9989POPC   PO470656   4.281  40.018   5.850
 9989POPC   GL170657   4.287  40.029   6.150
 9989POPC   GL270658   4.237  40.097   6.150
 9989POPC   C1A70659   4.356  40.039   6.450
 9989POPC   D2A70660   4.296  40.044   6.750
 9989POPC   C3A70661   4.274  40.011   7.050
 9989POPC   C4A70662   4.349  39.980   7.350
 9989POPC   C1B70663   4.248  40.212   6.450
 9989POPC   C2B70664   4.223  40.277   6.750
 9989POPC   C3B70665   4.256  40.257   7.050
 9989POPC   C4B70666   4.211  40.230   7.350
 9990POPC   NC370667  24.533  41.600   5.550
 9990POPC   PO470668  24.479  41.555   5.850
 9990POPC   GL170669  24.538  41.605   6.150
 9990POPC   GL270670  24.439  41.457   6.150
 9990POPC   C1A70671  24.468  41.590   6.450
 9990POPC   D2A70672  24.454  41.526   6.750
 9990POPC   C3A70673  24.493  41.531   7.050
 9990POPC   C4A70674  24.453  41.550   7.350
 9990POPC   C1B70675  24.352  41.322   6.450
 9990POPC   C2B70676  24.382  41.403   6.750
 9990POPC   C3B70677  24.355  41.385   7.050
 9990POPC   C4B70678  24.324  41.348   7.350
 9991POPC   NC370679  20.629  29.107   5.550
 9991POPC   PO470680  20.566  29.122   5.850
 9991POPC   GL170681  20.656  29.144   6.150
 9991POPC   GL270682  20.488  29.105   6.150
 9991POPC   C1A70683  20.562  29.181   6.450
 9991POPC   D2A70684  20.641  29.154   6.750
 9991POPC   C3A70685  20.622  29.170   7.050
 9991POPC   C4A70686  20.651  29.166   7.350
 9991POPC   C1B70687  20.448  29.036   6.450
 9991POPC   C2B70688  20.402  28.994   6.750
 9991POPC   C3B70689  20.440  28.978   7.050
 9991POPC   C4B70690  20.432  29.041   7.350
 9992POPC   NC370691   4.301   3.501   5.550
 9992POPC   PO470692   4.300   3.530   5.850
 9992POPC   GL170693   4.348   3.538   6.150
 9992POPC   GL270694   4.397   3.521   6.150
 9992POPC   C1A70695   4.360   3.505   6.450
 9992POPC   D2A70696   4.350   3.576   6.750
 9992POPC   C3A70697   4.308   3.522   7.050
 9992POPC   C4A70698   4.312   3.544   7.350
 9992POPC   C1B70699   4.522   3.598   6.450
 9992POPC   C2B70700   4.608   3.550   6.750
 9992POPC   C3B70701   4.615   3.558   7.050
 9992POPC   C4B70702   4.556   3.538   7.350
 9993POPC   NC370703  26.823  26.016   5.550
 9993POPC   PO470704  26.814  26.083   5.850
 9993POPC   GL170705  26.831  26.080   6.150
 9993POPC   GL270706  26.743  26.160   6.150
 9993POPC   C1A70707  26.832  26.031   6.450
 9993POPC   D2A70708  26.780  26.040   6.750
 9993POPC   C3A70709  26.808  26.072   7.050
 9993POPC   C4A70710  26.796  26.003   7.350
 9993POPC   C1B70711  26.756  26.320   6.450
 9993POPC   C2B70712  26.738  26.284   6.750
 9993POPC   C3B70713  26.749  26.291   7.050
 9993POPC   C4B70714  26.748  26.232   7.350
 9994POPC   NC370715  18.264  36.942   5.550
 9994POPC   PO470716  18.313  36.933   5.850
 9994POPC   GL170717  18.234  36.857   6.150
 9994POPC   GL270718  18.280  37.055   6.150
 9994POPC   C1A70719  18.248  36.908   6.450
 9994POPC   D2A70720  18.277  36.938   6.750
 9994POPC   C3A70721  18.254  36.935   7.050
 9994POPC   C4A70722  18.283  36.906   7.350
 9994POPC   C1B70723  18.324  37.187   6.450
 9994POPC   C2B70724  18.245  37.163   6.750
 9994POPC   C3B70725  18.271  37.169   7.050
 9994POPC   C4B70726  18.249  37.166   7.350
 9995POPC   NC370727  14.423   8.207   5.550
 9995POPC   PO470728  14.377   8.211   5.850
 9995POPC   GL170729  14.360   8.171   6.150
 9995POPC   GL270730  14.272   8.161   6.150
 9995POPC   C1A70731  14.408   8.207   6.450
 9995POPC   D2A70732  14.357   8.202   6.750
 9995POPC   C3A70733  14.402   8.219   7.050
 9995POPC   C4A70734  14.368   8.243   7.350
 9995POPC   C1B70735  14.173   8.061   6.450
 9995POPC   C2B70736  14.193   8.100   6.750
 9995POPC   C3B70737  14.183   8.061   7.050
 9995POPC   C4B70738  14.210   8.097   7.350
 9996POPC   NC370739  13.634  29.175   5.550
 9996POPC   PO470740  13.667  29.164   5.850
 9996POPC   GL170741  13.627  29.185   6.150
 9996POPC   GL270742  13.777  29.077   6.150
 9996POPC   C1A70743  13.621  29.125   6.450
 9996POPC   D2A70744  13.596  29.117   6.750
 9996POPC   C3A70745  13.590  29.118   7.050
 9996POPC   C4A70746  13.654  29.135   7.350
 9996POPC   C1B70747  13.893  29.091   6.450
 9996POPC   C2B70748  13.819  29.044   6.750
 9996POPC   C3B70749  13.810  29.062   7.050
 9996POPC   C4B70750  13.859  29.022   7.350
 9997POPC   NC370751  13.613  15.155   5.550
 9997POPC   PO470752  13.605  15.165   5.850
 9997POPC   GL170753  13.660  15.131   6.150
 9997POPC   GL270754  13.618  15.259   6.150
 9997POPC   C1A70755  13.668  15.204   6.450
 9997POPC   D2A70756  13.578  15.163   6.750
 9997POPC   C3A70757  13.643  15.195   7.050
 9997POPC   C4A70758  13.635  15.140   7.350
 9997POPC   C1B70759  13.722  15.413   6.450
 9997POPC   C2B70760  13.626  15.383   6.750
 9997POPC   C3B70761  13.692  15.424   7.050
 9997POPC   C4B70762  13.698  15.447   7.350
 9998POPC   NC370763   1.984  18.285   5.550
 9998POPC   PO470764   2.031  18.318   5.850
 9998POPC   GL170765   2.002  18.256   6.150
 9998POPC   GL270766   1.874  18.424   6.150
 9998POPC   C1A70767   1.966  18.296   6.450
 9998POPC   D2A70768   1.992  18.273   6.750
 9998POPC   C3A70769   1.973  18.271   7.050
 9998POPC   C4A70770   2.005  18.249   7.350
 9998POPC   C1B70771   1.802  18.538   6.450
 9998POPC   C2B70772   1.898  18.464   6.750
 9998POPC   C3B70773   1.846  18.484   7.050
 9998POPC   C4B70774   1.806  18.510   7.350
 9999POPC   NC370775  26.814   5.081   5.550
 9999POPC   PO470776  26.810   5.049   5.850
 9999POPC   GL170777  26.815   5.101   6.150
 9999POPC   GL270778  26.830   4.918   6.150
 9999POPC   C1A70779  26.807   5.118   6.450
 9999POPC   D2A70780  26.797   5.116   6.750
 9999POPC   C3A70781  26.777   5.129   7.050
 9999POPC   C4A70782  26.805   5.065   7.350
 9999POPC   C1B70783  26.844   4.831   6.450
 9999POPC   C2B70784  26.825   4.868   6.750
 9999POPC   C3B70785  26.829   4.865   7.050
 9999POPC   C4B70786  26.816   4.885   7.350
10000POPC   NC370787  22.125  40.825   5.550
10000POPC   PO470788  22.143  40.798   5.850
10000POPC   GL170789  22.199  40.735   6.150
10000POPC   GL270790  22.133  40.869   6.150
10000POPC   C1A70791  22.150  40.760   6.450
10000POPC   D2A70792  22.164  40.791   6.750
10000POPC   C3A70793  22.171  40.791   7.050
10000POPC   C4A70794  22.183  40.739   7.350
10000POPC   C1B70795  22.181  40.984   6.450
10000POPC   C2B70796  22.159  41.038   6.750
10000POPC   C3B70797  22.160  41.046   7.050
10000POPC   C4B70798  22.148  40.991   7.350
10001POPC   NC370799   8.210   8.228   5.550
10001POPC   PO470800   8.218   8.231   5.850
10001POPC   GL170801   8.177   8.204   6.150
10001POPC   GL270802   8.343   8.201   6.150
10001POPC   C1A70803   8.245   8.239   6.450
10001POPC   D2A70804   8.187   8.151   6.750
10001POPC   C3A70805   8.216   8.185   7.050
10001POPC   C4A70806   8.164   8.192   7.350
10001POPC   C1B70807   8.456   8.153   6.450
10001POPC   C2B70808   8.468   8.154   6.750
10001POPC   C3B70809   8.457   8.176   7.050
10001POPC   C4B70810   8.490   8.208   7.350
10002POPC   NC370811  12.026  39.217   5.550
10002POPC   PO470812  12.121  39.216   5.850
10002POPC   GL170813  12.105  39.269   6.150
10002POPC   GL270814  12.158  39.257   6.150
10002POPC   C1A70815  12.085  39.213   6.450
10002POPC   D2A70816  12.110  39.190   6.750
10002POPC   C3A70817  12.092  39.225   7.050
10002POPC   C4A70818  12.102  39.244   7.350
10002POPC   C1B70819  12.365  39.154   6.450
10002POPC   C2B70820  12.304  39.189   6.750
10002POPC   C3B70821  12.283  39.229   7.050
10002POPC   C4B70822  12.366  39.196   7.350
10003POPC   NC370823  12.806   5.050   5.550
10003POPC   PO470824  12.872   5.083   5.850
10003POPC   GL170825  12.833   5.143   6.150
10003POPC   GL270826  12.894   5.185   6.150
10003POPC   C1A70827  12.877   5.059   6.450
10003POPC   D2A70828  12.871   5.143   6.750
10003POPC   C3A70829  12.874   5.076   7.050
10003POPC   C4A70830  12.885   5.129   7.350
10003POPC   C1B70831  13.008   5.272   6.450
10003POPC   C2B70832  13.033   5.226   6.750
10003POPC   C3B70833  13.016   5.317   7.050
10003POPC   C4B70834  13.006   5.279   7.350
10004POPC   NC370835   7.438  26.809   5.550
10004POPC   PO470836   7.433  26.804   5.850
10004POPC   GL170837   7.429  26.823   6.150
10004POPC   GL270838   7.487  26.910   6.150
10004POPC   C1A70839   7.442  26.821   6.450
10004POPC   D2A70840   7.371  26.854   6.750
10004POPC   C3A70841   7.440  26.809   7.050
10004POPC   C4A70842   7.403  26.771   7.350
10004POPC   C1B70843   7.460  27.100   6.450
10004POPC   C2B70844   7.506  27.035   6.750
10004POPC   C3B70845   7.445  27.066   7.050
10004POPC   C4B70846   7.479  27.094   7.350
10005POPC   NC370847  33.072   5.859   5.550
10005POPC   PO470848  33.028   5.889   5.850
10005POPC   GL170849  33.008   5.828   6.150
10005POPC   GL270850  33.009   5.695   6.150
10005POPC   C1A70851  33.044   5.855   6.450
10005POPC   D2A70852  32.978   5.857   6.750
10005POPC   C3A70853  33.071   5.876   7.050
10005POPC   C4A70854  33.034   5.848   7.350
10005POPC   C1B70855  33.048   5.616   6.450
10005POPC   C2B70856  33.046   5.617   6.750
10005POPC   C3B70857  33.055   5.667   7.050
10005POPC   C4B70858  33.050   5.579   7.350
10006POPC   NC370859  43.875   3.546   5.550
10006POPC   PO470860  43.877   3.533   5.850
10006POPC   GL170861  43.845   3.539   6.150
10006POPC   GL270862  44.048   3.613   6.150
10006POPC   C1A70863  43.845   3.563   6.450
10006POPC   D2A70864  43.919   3.556   6.750
10006POPC   C3A70865  43.924   3.561   7.050
10006POPC   C4A70866  43.914   3.528   7.350
10006POPC   C1B70867  44.147   3.634   6.450
10006POPC   C2B70868  44.072   3.655   6.750
10006POPC   C3B70869  44.077   3.669   7.050
10006POPC   C4B70870  44.152   3.663   7.350
10007POPC   NC370871  13.629  40.748   5.550
10007POPC   PO470872  13.610  40.755   5.850
10007POPC   GL170873  13.578  40.752   6.150
10007POPC   GL270874  13.510  40.820   6.150
10007POPC   C1A70875  13.653  40.771   6.450
10007POPC   D2A70876  13.631  40.748   6.750
10007POPC   C3A70877  13.586  40.746   7.050
10007POPC   C4A70878  13.610  40.812   7.350
10007POPC   C1B70879  13.394  40.978   6.450
10007POPC   C2B70880  13.463  40.901   6.750
10007POPC   C3B70881  13.420  40.946   7.050
10007POPC   C4B70882  13.384  40.933   7.350
10008POPC   NC370883  20.617  21.418   5.550
10008POPC   PO470884  20.594  21.415   5.850
10008POPC   GL170885  20.594  21.419   6.150
10008POPC   GL270886  20.728  21.477   6.150
10008POPC   C1A70887  20.585  21.409   6.450
10008POPC   D2A70888  20.657  21.431   6.750
10008POPC   C3A70889  20.642  21.374   7.050
10008POPC   C4A70890  20.624  21.363   7.350
10008POPC   C1B70891  20.862  21.532   6.450
10008POPC   C2B70892  20.855  21.464   6.750
10008POPC   C3B70893  20.794  21.496   7.050
10008POPC   C4B70894  20.790  21.465   7.350
10009POPC   NC370895  21.433  17.511   5.550
10009POPC   PO470896  21.369  17.499   5.850
10009POPC   GL170897  21.433  17.484   6.150
10009POPC   GL270898  21.215  17.527   6.150
10009POPC   C1A70899  21.428  17.481   6.450
10009POPC   D2A70900  21.377  17.507   6.750
10009POPC   C3A70901  21.399  17.489   7.050
10009POPC   C4A70902  21.388  17.549   7.350
10009POPC   C1B70903  21.088  17.507   6.450
10009POPC   C2B70904  21.172  17.557   6.750
10009POPC   C3B70905  21.174  17.543   7.050
10009POPC   C4B70906  21.143  17.539   7.350
10010POPC   NC370907  22.977   2.787   5.550
10010POPC   PO470908  22.929   2.811   5.850
10010POPC   GL170909  22.929   2.744   6.150
10010POPC   GL270910  22.844   2.895   6.150
10010POPC   C1A70911  22.921   2.776   6.450
10010POPC   D2A70912  22.920   2.800   6.750
10010POPC   C3A70913  22.934   2.720   7.050
10010POPC   C4A70914  22.937   2.747   7.350
10010POPC   C1B70915  22.781   2.952   6.450
10010POPC   C2B70916  22.794   2.990   6.750
10010POPC   C3B70917  22.759   2.941   7.050
10010POPC   C4B70918  22.743   2.948   7.350
10011POPC   NC370919   6.687  37.716   5.550
10011POPC   PO470920   6.653  37.727   5.850
10011POPC   GL170921   6.642  37.649   6.150
10011POPC   GL270922   6.782  37.686   6.150
10011POPC   C1A70923   6.637  37.716   6.450
10011POPC   D2A70924   6.619  37.690   6.750
10011POPC   C3A70925   6.631  37.693   7.050
10011POPC   C4A70926   6.660  37.710   7.350
10011POPC   C1B70927   6.863  37.645   6.450
10011POPC   C2B70928   6.910  37.636   6.750
10011POPC   C3B70929   6.859  37.653   7.050
10011POPC   C4B70930   6.896  37.675   7.350
10012POPC   NC370931  33.787  23.722   5.550
10012POPC   PO470932  33.764  23.667   5.850
10012POPC   GL170933  33.817  23.748   6.150
10012POPC   GL270934  33.763  23.562   6.150
10012POPC   C1A70935  33.845  23.704   6.450
10012POPC   D2A70936  33.829  23.745   6.750
10012POPC   C3A70937  33.790  23.754   7.050
10012POPC   C4A70938  33.836  23.667   7.350
10012POPC   C1B70939  33.705  23.531   6.450
10012POPC   C2B70940  33.745  23.462   6.750
10012POPC   C3B70941  33.744  23.503   7.050
10012POPC   C4B70942  33.691  23.503   7.350
10013POPC   NC370943   8.206  21.399   5.550
10013POPC   PO470944   8.223  21.364   5.850
10013POPC   GL170945   8.217  21.435   6.150
10013POPC   GL270946   8.093  21.275   6.150
10013POPC   C1A70947   8.186  21.350   6.450
10013POPC   D2A70948   8.163  21.368   6.750
10013POPC   C3A70949   8.228  21.398   7.050
10013POPC   C4A70950   8.188  21.389   7.350
10013POPC   C1B70951   8.013  21.208   6.450
10013POPC   C2B70952   8.029  21.198   6.750
10013POPC   C3B70953   8.026  21.166   7.050
10013POPC   C4B70954   8.016  21.217   7.350
10014POPC   NC370955  25.314  36.916   5.550
10014POPC   PO470956  25.292  36.886   5.850
10014POPC   GL170957  25.294  36.864   6.150
10014POPC   GL270958  25.358  37.021   6.150
10014POPC   C1A70959  25.294  36.950   6.450
10014POPC   D2A70960  25.236  36.928   6.750
10014POPC   C3A70961  25.259  36.912   7.050
10014POPC   C4A70962  25.314  36.855   7.350
10014POPC   C1B70963  25.428  37.070   6.450
10014POPC   C2B70964  25.413  37.082   6.750
10014POPC   C3B70965  25.456  37.053   7.050
10014POPC   C4B70966  25.462  37.085   7.350
10015POPC   NC370967  14.394  12.831   5.550
10015POPC   PO470968  14.406  12.803   5.850
10015POPC   GL170969  14.386  12.807   6.150
10015POPC   GL270970  14.466  12.776   6.150
10015POPC   C1A70971  14.443  12.882   6.450
10015POPC   D2A70972  14.444  12.887   6.750
10015POPC   C3A70973  14.380  12.803   7.050
10015POPC   C4A70974  14.404  12.849   7.350
10015POPC   C1B70975  14.505  12.673   6.450
10015POPC   C2B70976  14.505  12.658   6.750
10015POPC   C3B70977  14.531  12.606   7.050
10015POPC   C4B70978  14.491  12.627   7.350
10016POPC   NC370979   4.312  33.035   5.550
10016POPC   PO470980   4.366  33.058   5.850
10016POPC   GL170981   4.359  32.984   6.150
10016POPC   GL270982   4.388  33.097   6.150
10016POPC   C1A70983   4.329  33.026   6.450
10016POPC   D2A70984   4.311  33.066   6.750
10016POPC   C3A70985   4.288  33.007   7.050
10016POPC   C4A70986   4.330  32.984   7.350
10016POPC   C1B70987   4.448  33.228   6.450
10016POPC   C2B70988   4.388  33.249   6.750
10016POPC   C3B70989   4.433  33.282   7.050
10016POPC   C4B70990   4.464  33.292   7.350
10017POPC   NC370991  43.922   8.197   5.550
10017POPC   PO470992  43.912   8.232   5.850
10017POPC   GL170993  43.841   8.217   6.150
10017POPC   GL270994  43.885   8.348   6.150
10017POPC   C1A70995  43.849   8.224   6.450
10017POPC   D2A70996  43.913   8.154   6.750
10017POPC   C3A70997  43.909   8.154   7.050
10017POPC   C4A70998  43.837   8.183   7.350
10017POPC   C1B70999  43.888   8.484   6.450
10017POPC   C2B71000  43.950   8.422   6.750
10017POPC   C3B71001  43.897   8.434   7.050
10017POPC   C4B71002  43.889   8.490   7.350
10018POPC   NC371003  24.533  32.205   5.550
10018POPC   PO471004  24.492  32.230   5.850
10018POPC   GL171005  24.531  32.269   6.150
10018POPC   GL271006  24.456  32.083   6.150
10018POPC   C1A71007  24.523  32.280   6.450
10018POPC   D2A71008  24.459  32.236   6.750
10018POPC   C3A71009  24.454  32.231   7.050
10018POPC   C4A71010  24.492  32.223   7.350
10018POPC   C1B71011  24.484  31.967   6.450
10018POPC   C2B71012  24.502  31.992   6.750
10018POPC   C3B71013  24.474  32.000   7.050
10018POPC   C4B71014  24.495  31.975   7.350
10019POPC   NC371015  12.034  32.289   5.550
10019POPC   PO471016  12.069  32.290   5.850
10019POPC   GL171017  12.059  32.199   6.150
10019POPC   GL271018  12.237  32.266   6.150
10019POPC   C1A71019  12.124  32.208   6.450
10019POPC   D2A71020  12.072  32.259   6.750
10019POPC   C3A71021  12.085  32.254   7.050
10019POPC   C4A71022  12.094  32.252   7.350
10019POPC   C1B71023  12.349  32.247   6.450
10019POPC   C2B71024  12.332  32.260   6.750
10019POPC   C3B71025  12.317  32.226   7.050
10019POPC   C4B71026  12.302  32.195   7.350
10020POPC   NC371027   2.723  15.168   5.550
10020POPC   PO471028   2.728  15.140   5.850
10020POPC   GL171029   2.723  15.149   6.150
10020POPC   GL271030   2.695  15.096   6.150
10020POPC   C1A71031   2.765  15.155   6.450
10020POPC   D2A71032   2.736  15.224   6.750
10020POPC   C3A71033   2.723  15.225   7.050
10020POPC   C4A71034   2.771  15.165   7.350
10020POPC   C1B71035   2.570  15.035   6.450
10020POPC   C2B71036   2.633  14.955   6.750
10020POPC   C3B71037   2.592  14.993   7.050
10020POPC   C4B71038   2.629  14.957   7.350
10021POPC   NC371039  34.594   3.528   5.550
10021POPC   PO471040  34.566   3.586   5.850
10021POPC   GL171041  34.622   3.554   6.150
10021POPC   GL271042  34.675   3.426   6.150
10021POPC   C1A71043  34.564   3.545   6.450
10021POPC   D2A71044  34.620   3.552   6.750
10021POPC   C3A71045  34.590   3.502   7.050
10021POPC   C4A71046  34.564   3.498   7.350
10021POPC   C1B71047  34.726   3.345   6.450
10021POPC   C2B71048  34.655   3.351   6.750
10021POPC   C3B71049  34.713   3.299   7.050
10021POPC   C4B71050  34.695   3.317   7.350
10022POPC   NC371051  31.501   0.483   5.550
10022POPC   PO471052  31.427   0.430   5.850
10022POPC   GL171053  31.498   0.460   6.150
10022POPC   GL271054  31.537   0.524   6.150
10022POPC   C1A71055  31.510   0.468   6.450
10022POPC   D2A71056  31.430   0.409   6.750
10022POPC   C3A71057  31.505   0.472   7.050
10022POPC   C4A71058  31.499   0.475   7.350
10022POPC   C1B71059  31.562   0.651   6.450
10022POPC   C2B71060  31.585   0.660   6.750
10022POPC   C3B71061  31.565   0.706   7.050
10022POPC   C4B71062  31.538   0.666   7.350
10023POPC   NC371063  16.762  40.832   5.550
10023POPC   PO471064  16.691  40.792   5.850
10023POPC   GL171065  16.769  40.739   6.150
10023POPC   GL271066  16.715  40.872   6.150
10023POPC   C1A71067  16.772  40.819   6.450
10023POPC   D2A71068  16.734  40.749   6.750
10023POPC   C3A71069  16.728  40.780   7.050
10023POPC   C4A71070  16.736  40.832   7.350
10023POPC   C1B71071  16.725  41.040   6.450
10023POPC   C2B71072  16.751  41.076   6.750
10023POPC   C3B71073  16.703  41.027   7.050
10023POPC   C4B71074  16.728  41.053   7.350
10024POPC   NC371075  30.726  20.572   5.550
10024POPC   PO471076  30.720  20.624   5.850
10024POPC   GL171077  30.675  20.637   6.150
10024POPC   GL271078  30.621  20.746   6.150
10024POPC   C1A71079  30.662  20.628   6.450
10024POPC   D2A71080  30.687  20.594   6.750
10024POPC   C3A71081  30.679  20.636   7.050
10024POPC   C4A71082  30.720  20.600   7.350
10024POPC   C1B71083  30.641  20.881   6.450
10024POPC   C2B71084  30.581  20.866   6.750
10024POPC   C3B71085  30.625  20.826   7.050
10024POPC   C4B71086  30.608  20.875   7.350
10025POPC   NC371087  43.069   5.081   5.550
10025POPC   PO471088  43.149   5.081   5.850
10025POPC   GL171089  43.128   5.079   6.150
10025POPC   GL271090  43.170   5.135   6.150
10025POPC   C1A71091  43.075   5.059   6.450
10025POPC   D2A71092  43.133   5.091   6.750
10025POPC   C3A71093  43.104   5.053   7.050
10025POPC   C4A71094  43.127   5.078   7.350
10025POPC   C1B71095  43.346   5.241   6.450
10025POPC   C2B71096  43.361   5.197   6.750
10025POPC   C3B71097  43.277   5.230   7.050
10025POPC   C4B71098  43.356   5.239   7.350
10026POPC   NC371099  26.033  12.092   5.550
10026POPC   PO471100  26.043  12.122   5.850
10026POPC   GL171101  26.040  12.073   6.150
10026POPC   GL271102  26.160  12.173   6.150
10026POPC   C1A71103  26.091  12.091   6.450
10026POPC   D2A71104  26.068  12.086   6.750
10026POPC   C3A71105  26.063  12.112   7.050
10026POPC   C4A71106  26.012  12.106   7.350
10026POPC   C1B71107  26.244  12.220   6.450
10026POPC   C2B71108  26.218  12.191   6.750
10026POPC   C3B71109  26.291  12.224   7.050
10026POPC   C4B71110  26.295  12.195   7.350
10027POPC   NC371111  13.641  36.176   5.550
10027POPC   PO471112  13.611  36.154   5.850
10027POPC   GL171113  13.598  36.085   6.150
10027POPC   GL271114  13.506  36.193   6.150
10027POPC   C1A71115  13.631  36.157   6.450
10027POPC   D2A71116  13.630  36.146   6.750
10027POPC   C3A71117  13.602  36.157   7.050
10027POPC   C4A71118  13.610  36.133   7.350
10027POPC   C1B71119  13.389  36.199   6.450
10027POPC   C2B71120  13.450  36.201   6.750
10027POPC   C3B71121  13.426  36.204   7.050
10027POPC   C4B71122  13.401  36.253   7.350
10028POPC   NC371123  34.548  15.154   5.550
10028POPC   PO471124  34.549  15.184   5.850
10028POPC   GL171125  34.586  15.217   6.150
10028POPC   GL271126  34.514  15.120   6.150
10028POPC   C1A71127  34.581  15.137   6.450
10028POPC   D2A71128  34.572  15.166   6.750
10028POPC   C3A71129  34.548  15.200   7.050
10028POPC   C4A71130  34.607  15.201   7.350
10028POPC   C1B71131  34.384  15.022   6.450
10028POPC   C2B71132  34.339  15.064   6.750
10028POPC   C3B71133  34.401  15.024   7.050
10028POPC   C4B71134  34.416  15.062   7.350
10029POPC   NC371135  30.704  36.930   5.550
10029POPC   PO471136  30.652  36.878   5.850
10029POPC   GL171137  30.706  36.952   6.150
10029POPC   GL271138  30.684  36.994   6.150
10029POPC   C1A71139  30.706  36.876   6.450
10029POPC   D2A71140  30.707  36.877   6.750
10029POPC   C3A71141  30.669  36.936   7.050
10029POPC   C4A71142  30.737  36.927   7.350
10029POPC   C1B71143  30.614  37.126   6.450
10029POPC   C2B71144  30.668  37.119   6.750
10029POPC   C3B71145  30.673  37.121   7.050
10029POPC   C4B71146  30.641  37.139   7.350
10030POPC   NC371147   6.656  25.253   5.550
10030POPC   PO471148   6.688  25.222   5.850
10030POPC   GL171149   6.673  25.238   6.150
10030POPC   GL271150   6.477  25.245   6.150
10030POPC   C1A71151   6.616  25.274   6.450
10030POPC   D2A71152   6.646  25.240   6.750
10030POPC   C3A71153   6.621  25.220   7.050
10030POPC   C4A71154   6.679  25.258   7.350
10030POPC   C1B71155   6.410  25.266   6.450
10030POPC   C2B71156   6.395  25.217   6.750
10030POPC   C3B71157   6.428  25.180   7.050
10030POPC   C4B71158   6.399  25.213   7.350
10031POPC   NC371159   5.051  25.263   5.550
10031POPC   PO471160   5.054  25.268   5.850
10031POPC   GL171161   5.108  25.313   6.150
10031POPC   GL271162   5.000  25.205   6.150
10031POPC   C1A71163   5.118  25.255   6.450
10031POPC   D2A71164   5.094  25.244   6.750
10031POPC   C3A71165   5.078  25.273   7.050
10031POPC   C4A71166   5.058  25.247   7.350
10031POPC   C1B71167   4.965  25.047   6.450
10031POPC   C2B71168   4.980  25.011   6.750
10031POPC   C3B71169   4.967  25.088   7.050
10031POPC   C4B71170   4.984  25.009   7.350
10032POPC   NC371171  14.431  12.095   5.550
10032POPC   PO471172  14.386  12.104   5.850
10032POPC   GL171173  14.404  12.089   6.150
10032POPC   GL271174  14.535  12.082   6.150
10032POPC   C1A71175  14.444  12.099   6.450
10032POPC   D2A71176  14.442  12.046   6.750
10032POPC   C3A71177  14.447  12.083   7.050
10032POPC   C4A71178  14.432  12.121   7.350
10032POPC   C1B71179  14.645  12.148   6.450
10032POPC   C2B71180  14.628  12.155   6.750
10032POPC   C3B71181  14.674  12.130   7.050
10032POPC   C4B71182  14.640  12.084   7.350
10033POPC   NC371183  40.797  31.483   5.550
10033POPC   PO471184  40.736  31.484   5.850
10033POPC   GL171185  40.747  31.459   6.150
10033POPC   GL271186  40.889  31.468   6.150
10033POPC   C1A71187  40.802  31.464   6.450
10033POPC   D2A71188  40.766  31.511   6.750
10033POPC   C3A71189  40.800  31.469   7.050
10033POPC   C4A71190  40.793  31.425   7.350
10033POPC   C1B71191  41.035  31.375   6.450
10033POPC   C2B71192  41.007  31.373   6.750
10033POPC   C3B71193  40.989  31.426   7.050
10033POPC   C4B71194  41.010  31.407   7.350
10034POPC   NC371195  20.634   1.992   5.550
10034POPC   PO471196  20.564   2.011   5.850
10034POPC   GL171197  20.652   1.971   6.150
10034POPC   GL271198  20.753   1.980   6.150
10034POPC   C1A71199  20.613   2.006   6.450
10034POPC   D2A71200  20.646   2.018   6.750
10034POPC   C3A71201  20.635   1.943   7.050
10034POPC   C4A71202  20.564   2.034   7.350
10034POPC   C1B71203  20.886   2.057   6.450
10034POPC   C2B71204  20.851   2.053   6.750
10034POPC   C3B71205  20.822   1.998   7.050
10034POPC   C4B71206  20.829   2.036   7.350
10035POPC   NC371207  19.044  36.935   5.550
10035POPC   PO471208  19.102  36.943   5.850
10035POPC   GL171209  19.037  36.922   6.150
10035POPC   GL271210  19.215  36.795   6.150
10035POPC   C1A71211  19.058  36.919   6.450
10035POPC   D2A71212  19.095  36.877   6.750
10035POPC   C3A71213  19.071  36.902   7.050
10035POPC   C4A71214  19.071  36.928   7.350
10035POPC   C1B71215  19.293  36.806   6.450
10035POPC   C2B71216  19.239  36.808   6.750
10035POPC   C3B71217  19.305  36.800   7.050
10035POPC   C4B71218  19.258  36.812   7.350
10036POPC   NC371219  24.529  43.061   5.550
10036POPC   PO471220  24.512  43.106   5.850
10036POPC   GL171221  24.516  43.116   6.150
10036POPC   GL271222  24.424  43.203   6.150
10036POPC   C1A71223  24.497  43.077   6.450
10036POPC   D2A71224  24.465  43.089   6.750
10036POPC   C3A71225  24.466  43.115   7.050
10036POPC   C4A71226  24.471  43.073   7.350
10036POPC   C1B71227  24.249  43.194   6.450
10036POPC   C2B71228  24.282  43.240   6.750
10036POPC   C3B71229  24.235  43.268   7.050
10036POPC   C4B71230  24.286  43.265   7.350
10037POPC   NC371231  42.297  36.176   5.550
10037POPC   PO471232  42.325  36.122   5.850
10037POPC   GL171233  42.294  36.127   6.150
10037POPC   GL271234  42.297  36.019   6.150
10037POPC   C1A71235  42.355  36.162   6.450
10037POPC   D2A71236  42.380  36.089   6.750
10037POPC   C3A71237  42.324  36.145   7.050
10037POPC   C4A71238  42.339  36.168   7.350
10037POPC   C1B71239  42.207  35.898   6.450
10037POPC   C2B71240  42.218  35.915   6.750
10037POPC   C3B71241  42.203  35.974   7.050
10037POPC   C4B71242  42.141  35.931   7.350
10038POPC   NC371243   1.221  12.900   5.550
10038POPC   PO471244   1.206  12.843   5.850
10038POPC   GL171245   1.167  12.809   6.150
10038POPC   GL271246   1.111  12.972   6.150
10038POPC   C1A71247   1.204  12.809   6.450
10038POPC   D2A71248   1.185  12.839   6.750
10038POPC   C3A71249   1.199  12.859   7.050
10038POPC   C4A71250   1.176  12.829   7.350
10038POPC   C1B71251   1.103  13.027   6.450
10038POPC   C2B71252   1.134  13.105   6.750
10038POPC   C3B71253   1.072  13.059   7.050
10038POPC   C4B71254   1.087  13.032   7.350
10039POPC   NC371255  26.858   8.956   5.550
10039POPC   PO471256  26.793   8.994   5.850
10039POPC   GL171257  26.843   9.010   6.150
10039POPC   GL271258  26.793   9.088   6.150
10039POPC   C1A71259  26.784   9.020   6.450
10039POPC   D2A71260  26.816   8.963   6.750
10039POPC   C3A71261  26.845   8.988   7.050
10039POPC   C4A71262  26.793   8.957   7.350
10039POPC   C1B71263  26.706   9.182   6.450
10039POPC   C2B71264  26.697   9.175   6.750
10039POPC   C3B71265  26.719   9.196   7.050
10039POPC   C4B71266  26.743   9.239   7.350
10040POPC   NC371267  33.805  44.641   5.550
10040POPC   PO471268  33.814  44.623   5.850
10040POPC   GL171269  33.765  44.712   6.150
10040POPC   GL271270  33.776  44.835   6.150
10040POPC   C1A71271  33.822  44.696   6.450
10040POPC   D2A71272  33.809  44.637   6.750
10040POPC   C3A71273  33.787  44.694   7.050
10040POPC   C4A71274  33.790  44.684   7.350
10040POPC   C1B71275  33.800  44.885   6.450
10040POPC   C2B71276  33.728  44.866   6.750
10040POPC   C3B71277  33.738  44.915   7.050
10040POPC   C4B71278  33.742  44.871   7.350
10041POPC   NC371279  36.918  43.891   5.550
10041POPC   PO471280  36.929  43.933   5.850
10041POPC   GL171281  36.931  43.926   6.150
10041POPC   GL271282  37.045  43.966   6.150
10041POPC   C1A71283  36.939  43.843   6.450
10041POPC   D2A71284  36.887  43.867   6.750
10041POPC   C3A71285  36.908  43.930   7.050
10041POPC   C4A71286  36.916  43.871   7.350
10041POPC   C1B71287  37.107  44.025   6.450
10041POPC   C2B71288  37.094  44.088   6.750
10041POPC   C3B71289  37.039  44.029   7.050
10041POPC   C4B71290  37.042  44.067   7.350
10042POPC   NC371291  14.441  40.813   5.550
10042POPC   PO471292  14.452  40.806   5.850
10042POPC   GL171293  14.401  40.769   6.150
10042POPC   GL271294  14.239  40.827   6.150
10042POPC   C1A71295  14.370  40.758   6.450
10042POPC   D2A71296  14.368  40.741   6.750
10042POPC   C3A71297  14.384  40.746   7.050
10042POPC   C4A71298  14.448  40.819   7.350
10042POPC   C1B71299  14.172  40.805   6.450
10042POPC   C2B71300  14.155  40.780   6.750
10042POPC   C3B71301  14.134  40.763   7.050
10042POPC   C4B71302  14.105  40.748   7.350
10043POPC   NC371303   5.849  18.236   5.550
10043POPC   PO471304   5.822  18.236   5.850
10043POPC   GL171305   5.915  18.330   6.150
10043POPC   GL271306   6.001  18.391   6.150
10043POPC   C1A71307   5.878  18.262   6.450
10043POPC   D2A71308   5.858  18.299   6.750
10043POPC   C3A71309   5.873  18.261   7.050
10043POPC   C4A71310   5.860  18.263   7.350
10043POPC   C1B71311   6.074  18.435   6.450
10043POPC   C2B71312   6.115  18.387   6.750
10043POPC   C3B71313   6.095  18.438   7.050
10043POPC   C4B71314   6.045  18.437   7.350
10044POPC   NC371315  12.819  36.098   5.550
10044POPC   PO471316  12.815  36.112   5.850
10044POPC   GL171317  12.887  36.172   6.150
10044POPC   GL271318  12.913  36.173   6.150
10044POPC   C1A71319  12.859  36.130   6.450
10044POPC   D2A71320  12.866  36.173   6.750
10044POPC   C3A71321  12.885  36.114   7.050
10044POPC   C4A71322  12.861  36.124   7.350
10044POPC   C1B71323  13.040  36.270   6.450
10044POPC   C2B71324  13.116  36.243   6.750
10044POPC   C3B71325  13.078  36.248   7.050
10044POPC   C4B71326  13.040  36.232   7.350
10045POPC   NC371327   8.988  42.375   5.550
10045POPC   PO471328   8.993  42.327   5.850
10045POPC   GL171329   8.987  42.313   6.150
10045POPC   GL271330   9.087  42.457   6.150
10045POPC   C1A71331   9.014  42.322   6.450
10045POPC   D2A71332   8.929  42.295   6.750
10045POPC   C3A71333   8.933  42.314   7.050
10045POPC   C4A71334   8.929  42.371   7.350
10045POPC   C1B71335   9.104  42.550   6.450
10045POPC   C2B71336   9.134  42.494   6.750
10045POPC   C3B71337   9.131  42.484   7.050
10045POPC   C4B71338   9.117  42.488   7.350
10046POPC   NC371339  14.408  14.359   5.550
10046POPC   PO471340  14.430  14.431   5.850
10046POPC   GL171341  14.446  14.375   6.150
10046POPC   GL271342  14.298  14.358   6.150
10046POPC   C1A71343  14.421  14.376   6.450
10046POPC   D2A71344  14.371  14.375   6.750
10046POPC   C3A71345  14.442  14.452   7.050
10046POPC   C4A71346  14.397  14.389   7.350
10046POPC   C1B71347  14.149  14.296   6.450
10046POPC   C2B71348  14.231  14.250   6.750
10046POPC   C3B71349  14.172  14.226   7.050
10046POPC   C4B71350  14.203  14.280   7.350
10047POPC   NC371351   1.945  26.078   5.550
10047POPC   PO471352   1.944  26.078   5.850
10047POPC   GL171353   1.959  26.030   6.150
10047POPC   GL271354   1.943  25.940   6.150
10047POPC   C1A71355   1.948  26.073   6.450
10047POPC   D2A71356   2.018  26.034   6.750
10047POPC   C3A71357   2.025  26.037   7.050
10047POPC   C4A71358   2.016  26.000   7.350
10047POPC   C1B71359   1.909  25.778   6.450
10047POPC   C2B71360   1.948  25.817   6.750
10047POPC   C3B71361   1.899  25.810   7.050
10047POPC   C4B71362   1.900  25.791   7.350
10048POPC   NC371363  12.059  26.821   5.550
10048POPC   PO471364  12.124  26.828   5.850
10048POPC   GL171365  12.110  26.807   6.150
10048POPC   GL271366  12.012  26.889   6.150
10048POPC   C1A71367  12.123  26.849   6.450
10048POPC   D2A71368  12.038  26.860   6.750
10048POPC   C3A71369  12.126  26.827   7.050
10048POPC   C4A71370  12.074  26.865   7.350
10048POPC   C1B71371  11.955  27.006   6.450
10048POPC   C2B71372  11.991  27.034   6.750
10048POPC   C3B71373  11.969  27.078   7.050
10048POPC   C4B71374  11.982  27.046   7.350
10049POPC   NC371375  36.106  41.579   5.550
10049POPC   PO471376  36.156  41.600   5.850
10049POPC   GL171377  36.159  41.514   6.150
10049POPC   GL271378  36.204  41.481   6.150
10049POPC   C1A71379  36.138  41.516   6.450
10049POPC   D2A71380  36.143  41.608   6.750
10049POPC   C3A71381  36.155  41.552   7.050
10049POPC   C4A71382  36.136  41.595   7.350
10049POPC   C1B71383  36.263  41.325   6.450
10049POPC   C2B71384  36.310  41.372   6.750
10049POPC   C3B71385  36.218  41.376   7.050
10049POPC   C4B71386  36.304  41.338   7.350
10050POPC   NC371387  29.924  34.602   5.550
10050POPC   PO471388  29.931  34.562   5.850
10050POPC   GL171389  29.938  34.608   6.150
10050POPC   GL271390  29.796  34.469   6.150
10050POPC   C1A71391  29.894  34.555   6.450
10050POPC   D2A71392  29.964  34.571   6.750
10050POPC   C3A71393  29.921  34.587   7.050
10050POPC   C4A71394  29.922  34.541   7.350
10050POPC   C1B71395  29.767  34.408   6.450
10050POPC   C2B71396  29.731  34.409   6.750
10050POPC   C3B71397  29.708  34.450   7.050
10050POPC   C4B71398  29.722  34.420   7.350
10051POPC   NC371399  43.906  22.954   5.550
10051POPC   PO471400  43.852  22.898   5.850
10051POPC   GL171401  43.879  22.986   6.150
10051POPC   GL271402  44.012  22.969   6.150
10051POPC   C1A71403  43.909  22.890   6.450
10051POPC   D2A71404  43.843  22.982   6.750
10051POPC   C3A71405  43.924  22.976   7.050
10051POPC   C4A71406  43.856  22.983   7.350
10051POPC   C1B71407  44.103  23.084   6.450
10051POPC   C2B71408  44.146  23.023   6.750
10051POPC   C3B71409  44.078  23.012   7.050
10051POPC   C4B71410  44.077  23.014   7.350
10052POPC   NC371411  23.755   8.950   5.550
10052POPC   PO471412  23.710   8.944   5.850
10052POPC   GL171413  23.751   9.006   6.150
10052POPC   GL271414  23.687   9.107   6.150
10052POPC   C1A71415  23.671   8.970   6.450
10052POPC   D2A71416  23.735   8.927   6.750
10052POPC   C3A71417  23.717   8.927   7.050
10052POPC   C4A71418  23.715   9.020   7.350
10052POPC   C1B71419  23.622   9.242   6.450
10052POPC   C2B71420  23.677   9.186   6.750
10052POPC   C3B71421  23.627   9.238   7.050
10052POPC   C4B71422  23.700   9.262   7.350
10053POPC   NC371423  18.309  44.615   5.550
10053POPC   PO471424  18.306  44.677   5.850
10053POPC   GL171425  18.290  44.636   6.150
10053POPC   GL271426  18.319  44.779   6.150
10053POPC   C1A71427  18.256  44.670   6.450
10053POPC   D2A71428  18.314  44.707   6.750
10053POPC   C3A71429  18.242  44.628   7.050
10053POPC   C4A71430  18.246  44.612   7.350
10053POPC   C1B71431  18.347  44.893   6.450
10053POPC   C2B71432  18.327  44.953   6.750
10053POPC   C3B71433  18.371  44.903   7.050
10053POPC   C4B71434  18.345  44.922   7.350
10054POPC   NC371435  29.965   8.223   5.550
10054POPC   PO471436  29.917   8.199   5.850
10054POPC   GL171437  29.937   8.208   6.150
10054POPC   GL271438  30.043   8.240   6.150
10054POPC   C1A71439  29.884   8.211   6.450
10054POPC   D2A71440  29.882   8.162   6.750
10054POPC   C3A71441  29.898   8.168   7.050
10054POPC   C4A71442  29.943   8.241   7.350
10054POPC   C1B71443  30.108   8.310   6.450
10054POPC   C2B71444  30.149   8.238   6.750
10054POPC   C3B71445  30.110   8.247   7.050
10054POPC   C4B71446  30.181   8.269   7.350
10055POPC   NC371447  29.136  31.478   5.550
10055POPC   PO471448  29.116  31.469   5.850
10055POPC   GL171449  29.145  31.471   6.150
10055POPC   GL271450  29.242  31.436   6.150
10055POPC   C1A71451  29.190  31.517   6.450
10055POPC   D2A71452  29.179  31.519   6.750
10055POPC   C3A71453  29.125  31.483   7.050
10055POPC   C4A71454  29.185  31.458   7.350
10055POPC   C1B71455  29.366  31.334   6.450
10055POPC   C2B71456  29.331  31.375   6.750
10055POPC   C3B71457  29.353  31.350   7.050
10055POPC   C4B71458  29.370  31.372   7.350
10056POPC   NC371459  33.034  35.355   5.550
10056POPC   PO471460  33.035  35.326   5.850
10056POPC   GL171461  33.018  35.380   6.150
10056POPC   GL271462  33.032  35.198   6.150
10056POPC   C1A71463  32.989  35.312   6.450
10056POPC   D2A71464  33.006  35.308   6.750
10056POPC   C3A71465  32.987  35.371   7.050
10056POPC   C4A71466  32.979  35.396   7.350
10056POPC   C1B71467  33.084  35.088   6.450
10056POPC   C2B71468  33.099  35.156   6.750
10056POPC   C3B71469  33.073  35.123   7.050
10056POPC   C4B71470  33.096  35.134   7.350
10057POPC   NC371471  35.347   4.307   5.550
10057POPC   PO471472  35.323   4.357   5.850
10057POPC   GL171473  35.380   4.366   6.150
10057POPC   GL271474  35.503   4.344   6.150
10057POPC   C1A71475  35.375   4.314   6.450
10057POPC   D2A71476  35.336   4.337   6.750
10057POPC   C3A71477  35.379   4.323   7.050
10057POPC   C4A71478  35.346   4.323   7.350
10057POPC   C1B71479  35.585   4.341   6.450
10057POPC   C2B71480  35.555   4.327   6.750
10057POPC   C3B71481  35.610   4.329   7.050
10057POPC   C4B71482  35.611   4.306   7.350
10058POPC   NC371483  44.676   1.240   5.550
10058POPC   PO471484  44.638   1.177   5.850
10058POPC   GL171485  44.682   1.250   6.150
10058POPC   GL271486  44.664   1.343   6.150
10058POPC   C1A71487  44.670   1.169   6.450
10058POPC   D2A71488  44.633   1.185   6.750
10058POPC   C3A71489  44.653   1.214   7.050
10058POPC   C4A71490  44.680   1.173   7.350
10058POPC   C1B71491  44.598   1.448   6.450
10058POPC   C2B71492  44.631   1.406   6.750
10058POPC   C3B71493  44.604   1.408   7.050
10058POPC   C4B71494  44.608   1.457   7.350
10059POPC   NC371495   1.967  40.790   5.550
10059POPC   PO471496   1.976  40.749   5.850
10059POPC   GL171497   1.962  40.828   6.150
10059POPC   GL271498   2.024  40.680   6.150
10059POPC   C1A71499   1.965  40.765   6.450
10059POPC   D2A71500   1.992  40.811   6.750
10059POPC   C3A71501   1.977  40.759   7.050
10059POPC   C4A71502   1.954  40.812   7.350
10059POPC   C1B71503   2.091  40.576   6.450
10059POPC   C2B71504   2.121  40.614   6.750
10059POPC   C3B71505   2.150  40.563   7.050
10059POPC   C4B71506   2.081  40.543   7.350
10060POPC   NC371507  36.938   7.447   5.550
10060POPC   PO471508  36.900   7.394   5.850
10060POPC   GL171509  36.933   7.413   6.150
10060POPC   GL271510  36.801   7.382   6.150
10060POPC   C1A71511  36.859   7.439   6.450
10060POPC   D2A71512  36.878   7.376   6.750
10060POPC   C3A71513  36.940   7.403   7.050
10060POPC   C4A71514  36.865   7.417   7.350
10060POPC   C1B71515  36.736   7.257   6.450
10060POPC   C2B71516  36.760   7.277   6.750
10060POPC   C3B71517  36.740   7.283   7.050
10060POPC   C4B71518  36.742   7.209   7.350
10061POPC   NC371519   7.388  26.033   5.550
10061POPC   PO471520   7.424  26.014   5.850
10061POPC   GL171521   7.371  26.078   6.150
10061POPC   GL271522   7.317  26.064   6.150
10061POPC   C1A71523   7.380  26.074   6.450
10061POPC   D2A71524   7.437  25.997   6.750
10061POPC   C3A71525   7.417  26.043   7.050
10061POPC   C4A71526   7.388  26.041   7.350
10061POPC   C1B71527   7.190  26.119   6.450
10061POPC   C2B71528   7.226  26.100   6.750
10061POPC   C3B71529   7.163  26.133   7.050
10061POPC   C4B71530   7.172  26.160   7.350
10062POPC   NC371531  31.495   5.829   5.550
10062POPC   PO471532  31.466   5.824   5.850
10062POPC   GL171533  31.515   5.837   6.150
10062POPC   GL271534  31.517   5.731   6.150
10062POPC   C1A71535  31.522   5.883   6.450
10062POPC   D2A71536  31.485   5.843   6.750
10062POPC   C3A71537  31.471   5.844   7.050
10062POPC   C4A71538  31.426   5.893   7.350
10062POPC   C1B71539  31.632   5.612   6.450
10062POPC   C2B71540  31.603   5.696   6.750
10062POPC   C3B71541  31.641   5.682   7.050
10062POPC   C4B71542  31.585   5.638   7.350
10063POPC   NC371543  28.335   5.840   5.550
10063POPC   PO471544  28.365   5.849   5.850
10063POPC   GL171545  28.404   5.873   6.150
10063POPC   GL271546  28.344   6.005   6.150
10063POPC   C1A71547  28.370   5.872   6.450
10063POPC   D2A71548  28.391   5.841   6.750
10063POPC   C3A71549  28.376   5.915   7.050
10063POPC   C4A71550  28.377   5.905   7.350
10063POPC   C1B71551  28.334   6.106   6.450
10063POPC   C2B71552  28.286   6.117   6.750
10063POPC   C3B71553  28.341   6.098   7.050
10063POPC   C4B71554  28.289   6.119   7.350
10064POPC   NC371555  29.166  13.677   5.550
10064POPC   PO471556  29.135  13.619   5.850
10064POPC   GL171557  29.170  13.620   6.150
10064POPC   GL271558  29.158  13.739   6.150
10064POPC   C1A71559  29.168  13.669   6.450
10064POPC   D2A71560  29.112  13.671   6.750
10064POPC   C3A71561  29.178  13.602   7.050
10064POPC   C4A71562  29.189  13.632   7.350
10064POPC   C1B71563  29.247  13.890   6.450
10064POPC   C2B71564  29.178  13.908   6.750
10064POPC   C3B71565  29.168  13.899   7.050
10064POPC   C4B71566  29.189  13.910   7.350
10065POPC   NC371567  22.923  44.673   5.550
10065POPC   PO471568  22.931  44.647   5.850
10065POPC   GL171569  22.940  44.646   6.150
10065POPC   GL271570  22.879  44.577   6.150
10065POPC   C1A71571  22.947  44.652   6.450
10065POPC   D2A71572  22.982  44.691   6.750
10065POPC   C3A71573  22.908  44.667   7.050
10065POPC   C4A71574  22.959  44.706   7.350
10065POPC   C1B71575  22.735  44.520   6.450
10065POPC   C2B71576  22.723  44.532   6.750
10065POPC   C3B71577  22.765  44.532   7.050
10065POPC   C4B71578  22.727  44.511   7.350
10066POPC   NC371579  32.992   9.749   5.550
10066POPC   PO471580  33.005   9.747   5.850
10066POPC   GL171581  32.988   9.764   6.150
10066POPC   GL271582  33.077   9.651   6.150
10066POPC   C1A71583  33.040   9.754   6.450
10066POPC   D2A71584  33.005   9.754   6.750
10066POPC   C3A71585  32.977   9.701   7.050
10066POPC   C4A71586  33.063   9.742   7.350
10066POPC   C1B71587  33.066   9.468   6.450
10066POPC   C2B71588  32.996   9.542   6.750
10066POPC   C3B71589  33.045   9.501   7.050
10066POPC   C4B71590  33.075   9.515   7.350
10067POPC   NC371591  33.773  22.914   5.550
10067POPC   PO471592  33.800  22.892   5.850
10067POPC   GL171593  33.754  22.978   6.150
10067POPC   GL271594  33.755  23.027   6.150
10067POPC   C1A71595  33.756  22.941   6.450
10067POPC   D2A71596  33.848  22.974   6.750
10067POPC   C3A71597  33.805  22.942   7.050
10067POPC   C4A71598  33.769  22.941   7.350
10067POPC   C1B71599  33.655  23.105   6.450
10067POPC   C2B71600  33.657  23.089   6.750
10067POPC   C3B71601  33.651  23.136   7.050
10067POPC   C4B71602  33.624  23.076   7.350
10068POPC   NC371603  20.623  26.053   5.550
10068POPC   PO471604  20.611  26.080   5.850
10068POPC   GL171605  20.620  26.067   6.150
10068POPC   GL271606  20.491  26.121   6.150
10068POPC   C1A71607  20.590  26.017   6.450
10068POPC   D2A71608  20.576  26.016   6.750
10068POPC   C3A71609  20.616  26.090   7.050
10068POPC   C4A71610  20.601  26.036   7.350
10068POPC   C1B71611  20.498  26.249   6.450
10068POPC   C2B71612  20.507  26.247   6.750
10068POPC   C3B71613  20.453  26.219   7.050
10068POPC   C4B71614  20.489  26.236   7.350
10069POPC   NC371615  41.556  19.829   5.550
10069POPC   PO471616  41.536  19.804   5.850
10069POPC   GL171617  41.578  19.872   6.150
10069POPC   GL271618  41.700  19.875   6.150
10069POPC   C1A71619  41.547  19.843   6.450
10069POPC   D2A71620  41.525  19.793   6.750
10069POPC   C3A71621  41.595  19.841   7.050
10069POPC   C4A71622  41.592  19.845   7.350
10069POPC   C1B71623  41.736  20.033   6.450
10069POPC   C2B71624  41.773  20.030   6.750
10069POPC   C3B71625  41.714  19.971   7.050
10069POPC   C4B71626  41.733  20.014   7.350
10070POPC   NC371627  23.689  11.315   5.550
10070POPC   PO471628  23.754  11.283   5.850
10070POPC   GL171629  23.692  11.284   6.150
10070POPC   GL271630  23.622  11.275   6.150
10070POPC   C1A71631  23.706  11.252   6.450
10070POPC   D2A71632  23.709  11.286   6.750
10070POPC   C3A71633  23.669  11.328   7.050
10070POPC   C4A71634  23.695  11.283   7.350
10070POPC   C1B71635  23.502  11.302   6.450
10070POPC   C2B71636  23.460  11.330   6.750
10070POPC   C3B71637  23.431  11.265   7.050
10070POPC   C4B71638  23.476  11.334   7.350
10071POPC   NC371639  29.116   5.086   5.550
10071POPC   PO471640  29.105   5.103   5.850
10071POPC   GL171641  29.106   5.084   6.150
10071POPC   GL271642  29.304   5.141   6.150
10071POPC   C1A71643  29.166   5.070   6.450
10071POPC   D2A71644  29.118   5.131   6.750
10071POPC   C3A71645  29.137   5.140   7.050
10071POPC   C4A71646  29.108   5.089   7.350
10071POPC   C1B71647  29.434   5.115   6.450
10071POPC   C2B71648  29.396   5.110   6.750
10071POPC   C3B71649  29.345   5.094   7.050
10071POPC   C4B71650  29.375   5.109   7.350
10072POPC   NC371651  18.269   4.285   5.550
10072POPC   PO471652  18.269   4.302   5.850
10072POPC   GL171653  18.331   4.319   6.150
10072POPC   GL271654  18.371   4.452   6.150
10072POPC   C1A71655  18.300   4.268   6.450
10072POPC   D2A71656  18.321   4.320   6.750
10072POPC   C3A71657  18.284   4.329   7.050
10072POPC   C4A71658  18.260   4.329   7.350
10072POPC   C1B71659  18.473   4.493   6.450
10072POPC   C2B71660  18.437   4.527   6.750
10072POPC   C3B71661  18.423   4.520   7.050
10072POPC   C4B71662  18.435   4.536   7.350
10073POPC   NC371663  41.526  43.119   5.550
10073POPC   PO471664  41.535  43.077   5.850
10073POPC   GL171665  41.598  43.128   6.150
10073POPC   GL271666  41.460  42.988   6.150
10073POPC   C1A71667  41.514  43.092   6.450
10073POPC   D2A71668  41.566  43.102   6.750
10073POPC   C3A71669  41.589  43.063   7.050
10073POPC   C4A71670  41.573  43.155   7.350
10073POPC   C1B71671  41.349  42.974   6.450
10073POPC   C2B71672  41.324  43.012   6.750
10073POPC   C3B71673  41.392  42.970   7.050
10073POPC   C4B71674  41.374  42.938   7.350
10074POPC   NC371675  12.108   5.070   5.550
10074POPC   PO471676  12.036   5.120   5.850
10074POPC   GL171677  12.100   5.135   6.150
10074POPC   GL271678  12.160   5.120   6.150
10074POPC   C1A71679  12.104   5.132   6.450
10074POPC   D2A71680  12.112   5.101   6.750
10074POPC   C3A71681  12.044   5.052   7.050
10074POPC   C4A71682  12.063   5.053   7.350
10074POPC   C1B71683  12.269   5.230   6.450
10074POPC   C2B71684  12.355   5.213   6.750
10074POPC   C3B71685  12.285   5.217   7.050
10074POPC   C4B71686  12.354   5.219   7.350
10075POPC   NC371687   5.142  12.815   5.550
10075POPC   PO471688   5.046  12.809   5.850
10075POPC   GL171689   5.115  12.858   6.150
10075POPC   GL271690   4.978  12.898   6.150
10075POPC   C1A71691   5.059  12.849   6.450
10075POPC   D2A71692   5.058  12.802   6.750
10075POPC   C3A71693   5.057  12.874   7.050
10075POPC   C4A71694   5.046  12.826   7.350
10075POPC   C1B71695   4.930  12.947   6.450
10075POPC   C2B71696   4.934  12.972   6.750
10075POPC   C3B71697   4.907  12.976   7.050
10075POPC   C4B71698   4.935  12.987   7.350
10076POPC   NC371699   3.526  10.559   5.550
10076POPC   PO471700   3.512  10.486   5.850
10076POPC   GL171701   3.549  10.573   6.150
10076POPC   GL271702   3.653  10.421   6.150
10076POPC   C1A71703   3.582  10.516   6.450
10076POPC   D2A71704   3.529  10.558   6.750
10076POPC   C3A71705   3.565  10.516   7.050
10076POPC   C4A71706   3.579  10.490   7.350
10076POPC   C1B71707   3.724  10.310   6.450
10076POPC   C2B71708   3.708  10.304   6.750
10076POPC   C3B71709   3.696  10.367   7.050
10076POPC   C4B71710   3.706  10.339   7.350
10077POPC   NC371711   9.719   5.107   5.550
10077POPC   PO471712   9.754   5.108   5.850
10077POPC   GL171713   9.780   5.049   6.150
10077POPC   GL271714   9.909   5.160   6.150
10077POPC   C1A71715   9.785   5.123   6.450
10077POPC   D2A71716   9.702   5.092   6.750
10077POPC   C3A71717   9.739   5.047   7.050
10077POPC   C4A71718   9.738   5.129   7.350
10077POPC   C1B71719   9.998   5.152   6.450
10077POPC   C2B71720   9.958   5.117   6.750
10077POPC   C3B71721  10.014   5.131   7.050
10077POPC   C4B71722   9.971   5.160   7.350
10078POPC   NC371723  22.890  17.517   5.550
10078POPC   PO471724  22.979  17.536   5.850
10078POPC   GL171725  22.963  17.484   6.150
10078POPC   GL271726  23.112  17.545   6.150
10078POPC   C1A71727  22.982  17.483   6.450
10078POPC   D2A71728  22.919  17.498   6.750
10078POPC   C3A71729  22.914  17.517   7.050
10078POPC   C4A71730  22.983  17.484   7.350
10078POPC   C1B71731  23.164  17.542   6.450
10078POPC   C2B71732  23.143  17.484   6.750
10078POPC   C3B71733  23.216  17.501   7.050
10078POPC   C4B71734  23.225  17.509   7.350
10079POPC   NC371735  12.881  16.682   5.550
10079POPC   PO471736  12.860  16.762   5.850
10079POPC   GL171737  12.877  16.749   6.150
10079POPC   GL271738  12.715  16.718   6.150
10079POPC   C1A71739  12.877  16.714   6.450
10079POPC   D2A71740  12.808  16.685   6.750
10079POPC   C3A71741  12.887  16.704   7.050
10079POPC   C4A71742  12.828  16.740   7.350
10079POPC   C1B71743  12.556  16.758   6.450
10079POPC   C2B71744  12.639  16.814   6.750
10079POPC   C3B71745  12.614  16.725   7.050
10079POPC   C4B71746  12.626  16.791   7.350
10080POPC   NC371747  20.592  18.237   5.550
10080POPC   PO471748  20.652  18.246   5.850
10080POPC   GL171749  20.613  18.265   6.150
10080POPC   GL271750  20.727  18.235   6.150
10080POPC   C1A71751  20.634  18.289   6.450
10080POPC   D2A71752  20.596  18.309   6.750
10080POPC   C3A71753  20.655  18.284   7.050
10080POPC   C4A71754  20.595  18.282   7.350
10080POPC   C1B71755  20.798  18.146   6.450
10080POPC   C2B71756  20.847  18.175   6.750
10080POPC   C3B71757  20.830  18.158   7.050
10080POPC   C4B71758  20.860  18.208   7.350
10081POPC   NC371759  40.054  17.485   5.550
10081POPC   PO471760  40.022  17.528   5.850
10081POPC   GL171761  39.982  17.555   6.150
10081POPC   GL271762  39.931  17.517   6.150
10081POPC   C1A71763  40.029  17.477   6.450
10081POPC   D2A71764  40.001  17.492   6.750
10081POPC   C3A71765  40.007  17.480   7.050
10081POPC   C4A71766  40.023  17.492   7.350
10081POPC   C1B71767  39.761  17.533   6.450
10081POPC   C2B71768  39.722  17.532   6.750
10081POPC   C3B71769  39.803  17.560   7.050
10081POPC   C4B71770  39.745  17.546   7.350
10082POPC   NC371771  19.063  19.011   5.550
10082POPC   PO471772  19.082  19.058   5.850
10082POPC   GL171773  19.041  19.011   6.150
10082POPC   GL271774  19.200  18.975   6.150
10082POPC   C1A71775  19.083  19.050   6.450
10082POPC   D2A71776  19.095  19.047   6.750
10082POPC   C3A71777  19.089  19.094   7.050
10082POPC   C4A71778  19.060  19.072   7.350
10082POPC   C1B71779  19.258  18.902   6.450
10082POPC   C2B71780  19.270  18.853   6.750
10082POPC   C3B71781  19.228  18.867   7.050
10082POPC   C4B71782  19.284  18.914   7.350
10083POPC   NC371783  31.518  17.509   5.550
10083POPC   PO471784  31.489  17.478   5.850
10083POPC   GL171785  31.482  17.519   6.150
10083POPC   GL271786  31.401  17.417   6.150
10083POPC   C1A71787  31.511  17.509   6.450
10083POPC   D2A71788  31.427  17.471   6.750
10083POPC   C3A71789  31.518  17.546   7.050
10083POPC   C4A71790  31.482  17.555   7.350
10083POPC   C1B71791  31.234  17.410   6.450
10083POPC   C2B71792  31.279  17.372   6.750
10083POPC   C3B71793  31.241  17.367   7.050
10083POPC   C4B71794  31.239  17.346   7.350
10084POPC   NC371795  12.821  43.878   5.550
10084POPC   PO471796  12.889  43.877   5.850
10084POPC   GL171797  12.856  43.845   6.150
10084POPC   GL271798  12.757  43.958   6.150
10084POPC   C1A71799  12.897  43.907   6.450
10084POPC   D2A71800  12.816  43.886   6.750
10084POPC   C3A71801  12.868  43.890   7.050
10084POPC   C4A71802  12.877  43.885   7.350
10084POPC   C1B71803  12.689  44.032   6.450
10084POPC   C2B71804  12.650  44.059   6.750
10084POPC   C3B71805  12.673  44.053   7.050
10084POPC   C4B71806  12.697  44.081   7.350
10085POPC   NC371807   8.213   5.130   5.550
10085POPC   PO471808   8.176   5.046   5.850
10085POPC   GL171809   8.154   5.079   6.150
10085POPC   GL271810   8.127   5.181   6.150
10085POPC   C1A71811   8.153   5.095   6.450
10085POPC   D2A71812   8.199   5.108   6.750
10085POPC   C3A71813   8.216   5.099   7.050
10085POPC   C4A71814   8.241   5.054   7.350
10085POPC   C1B71815   7.962   5.220   6.450
10085POPC   C2B71816   8.020   5.195   6.750
10085POPC   C3B71817   8.034   5.259   7.050
10085POPC   C4B71818   7.978   5.200   7.350
10086POPC   NC371819  13.629  26.864   5.550
10086POPC   PO471820  13.665  26.805   5.850
10086POPC   GL171821  13.636  26.834   6.150
10086POPC   GL271822  13.602  26.720   6.150
10086POPC   C1A71823  13.668  26.772   6.450
10086POPC   D2A71824  13.666  26.781   6.750
10086POPC   C3A71825  13.603  26.813   7.050
10086POPC   C4A71826  13.640  26.844   7.350
10086POPC   C1B71827  13.641  26.519   6.450
10086POPC   C2B71828  13.589  26.568   6.750
10086POPC   C3B71829  13.683  26.588   7.050
10086POPC   C4B71830  13.626  26.606   7.350
10087POPC   NC371831  33.028  25.271   5.550
10087POPC   PO471832  32.986  25.241   5.850
10087POPC   GL171833  33.025  25.289   6.150
10087POPC   GL271834  32.938  25.219   6.150
10087POPC   C1A71835  33.009  25.264   6.450
10087POPC   D2A71836  33.046  25.310   6.750
10087POPC   C3A71837  33.001  25.226   7.050
10087POPC   C4A71838  32.989  25.234   7.350
10087POPC   C1B71839  32.816  25.183   6.450
10087POPC   C2B71840  32.820  25.213   6.750
10087POPC   C3B71841  32.792  25.157   7.050
10087POPC   C4B71842  32.775  25.230   7.350
10088POPC   NC371843  29.916  27.620   5.550
10088POPC   PO471844  29.910  27.580   5.850
10088POPC   GL171845  29.934  27.642   6.150
10088POPC   GL271846  29.975  27.747   6.150
10088POPC   C1A71847  29.875  27.621   6.450
10088POPC   D2A71848  29.918  27.624   6.750
10088POPC   C3A71849  29.936  27.565   7.050
10088POPC   C4A71850  29.878  27.579   7.350
10088POPC   C1B71851  30.063  27.778   6.450
10088POPC   C2B71852  30.042  27.852   6.750
10088POPC   C3B71853  30.076  27.836   7.050
10088POPC   C4B71854  29.996  27.832   7.350
10089POPC   NC371855  27.544   5.105   5.550
10089POPC   PO471856  27.628   5.110   5.850
10089POPC   GL171857  27.607   5.065   6.150
10089POPC   GL271858  27.483   5.061   6.150
10089POPC   C1A71859  27.562   5.074   6.450
10089POPC   D2A71860  27.625   5.126   6.750
10089POPC   C3A71861  27.612   5.095   7.050
10089POPC   C4A71862  27.560   5.099   7.350
10089POPC   C1B71863  27.310   5.046   6.450
10089POPC   C2B71864  27.326   5.036   6.750
10089POPC   C3B71865  27.332   5.072   7.050
10089POPC   C4B71866  27.335   5.067   7.350
10090POPC   NC371867  19.009  32.978   5.550
10090POPC   PO471868  19.103  33.010   5.850
10090POPC   GL171869  19.033  33.049   6.150
10090POPC   GL271870  19.027  33.102   6.150
10090POPC   C1A71871  19.103  32.998   6.450
10090POPC   D2A71872  19.108  32.976   6.750
10090POPC   C3A71873  19.066  33.051   7.050
10090POPC   C4A71874  19.034  33.034   7.350
10090POPC   C1B71875  18.958  33.226   6.450
10090POPC   C2B71876  18.939  33.235   6.750
10090POPC   C3B71877  18.940  33.183   7.050
10090POPC   C4B71878  18.961  33.236   7.350
10091POPC   NC371879  24.477   3.493   5.550
10091POPC   PO471880  24.495   3.510   5.850
10091POPC   GL171881  24.463   3.524   6.150
10091POPC   GL271882  24.529   3.423   6.150
10091POPC   C1A71883  24.485   3.502   6.450
10091POPC   D2A71884  24.513   3.586   6.750
10091POPC   C3A71885  24.515   3.519   7.050
10091POPC   C4A71886  24.529   3.568   7.350
10091POPC   C1B71887  24.531   3.330   6.450
10091POPC   C2B71888  24.510   3.343   6.750
10091POPC   C3B71889  24.523   3.338   7.050
10091POPC   C4B71890  24.534   3.262   7.350
10092POPC   NC371891  14.366   5.909   5.550
10092POPC   PO471892  14.380   5.874   5.850
10092POPC   GL171893  14.387   5.861   6.150
10092POPC   GL271894  14.327   5.716   6.150
10092POPC   C1A71895  14.444   5.855   6.450
10092POPC   D2A71896  14.444   5.859   6.750
10092POPC   C3A71897  14.439   5.870   7.050
10092POPC   C4A71898  14.449   5.858   7.350
10092POPC   C1B71899  14.297   5.668   6.450
10092POPC   C2B71900  14.384   5.608   6.750
10092POPC   C3B71901  14.347   5.577   7.050
10092POPC   C4B71902  14.351   5.591   7.350
10093POPC   NC371903  23.694  41.593   5.550
10093POPC   PO471904  23.691  41.527   5.850
10093POPC   GL171905  23.703  41.539   6.150
10093POPC   GL271906  23.601  41.659   6.150
10093POPC   C1A71907  23.756  41.532   6.450
10093POPC   D2A71908  23.677  41.545   6.750
10093POPC   C3A71909  23.713  41.580   7.050
10093POPC   C4A71910  23.693  41.606   7.350
10093POPC   C1B71911  23.559  41.714   6.450
10093POPC   C2B71912  23.520  41.772   6.750
10093POPC   C3B71913  23.590  41.750   7.050
10093POPC   C4B71914  23.576  41.711   7.350
10094POPC   NC371915  41.562  33.785   5.550
10094POPC   PO471916  41.578  33.756   5.850
10094POPC   GL171917  41.580  33.831   6.150
10094POPC   GL271918  41.658  33.851   6.150
10094POPC   C1A71919  41.600  33.788   6.450
10094POPC   D2A71920  41.598  33.842   6.750
10094POPC   C3A71921  41.552  33.848   7.050
10094POPC   C4A71922  41.519  33.785   7.350
10094POPC   C1B71923  41.785  33.913   6.450
10094POPC   C2B71924  41.808  33.890   6.750
10094POPC   C3B71925  41.782  33.902   7.050
10094POPC   C4B71926  41.793  33.899   7.350
10095POPC   NC371927  30.741  37.680   5.550
10095POPC   PO471928  30.652  37.641   5.850
10095POPC   GL171929  30.724  37.723   6.150
10095POPC   GL271930  30.836  37.717   6.150
10095POPC   C1A71931  30.695  37.653   6.450
10095POPC   D2A71932  30.729  37.690   6.750
10095POPC   C3A71933  30.703  37.723   7.050
10095POPC   C4A71934  30.669  37.658   7.350
10095POPC   C1B71935  30.972  37.829   6.450
10095POPC   C2B71936  30.896  37.788   6.750
10095POPC   C3B71937  30.935  37.779   7.050
10095POPC   C4B71938  30.880  37.816   7.350
10096POPC   NC371939  42.324  42.297   5.550
10096POPC   PO471940  42.381  42.309   5.850
10096POPC   GL171941  42.295  42.293   6.150
10096POPC   GL271942  42.364  42.396   6.150
10096POPC   C1A71943  42.376  42.367   6.450
10096POPC   D2A71944  42.367  42.327   6.750
10096POPC   C3A71945  42.316  42.300   7.050
10096POPC   C4A71946  42.373  42.350   7.350
10096POPC   C1B71947  42.447  42.541   6.450
10096POPC   C2B71948  42.435  42.577   6.750
10096POPC   C3B71949  42.442  42.513   7.050
10096POPC   C4B71950  42.444  42.514   7.350
10097POPC   NC371951  23.679  22.970   5.550
10097POPC   PO471952  23.664  22.898   5.850
10097POPC   GL171953  23.750  22.906   6.150
10097POPC   GL271954  23.606  22.858   6.150
10097POPC   C1A71955  23.724  22.940   6.450
10097POPC   D2A71956  23.706  22.893   6.750
10097POPC   C3A71957  23.701  22.981   7.050
10097POPC   C4A71958  23.703  22.972   7.350
10097POPC   C1B71959  23.499  22.817   6.450
10097POPC   C2B71960  23.439  22.869   6.750
10097POPC   C3B71961  23.484  22.829   7.050
10097POPC   C4B71962  23.456  22.885   7.350
10098POPC   NC371963  14.371  15.163   5.550
10098POPC   PO471964  14.388  15.161   5.850
10098POPC   GL171965  14.432  15.194   6.150
10098POPC   GL271966  14.506  15.135   6.150
10098POPC   C1A71967  14.363  15.201   6.450
10098POPC   D2A71968  14.449  15.133   6.750
10098POPC   C3A71969  14.410  15.164   7.050
10098POPC   C4A71970  14.394  15.173   7.350
10098POPC   C1B71971  14.620  15.028   6.450
10098POPC   C2B71972  14.614  15.029   6.750
10098POPC   C3B71973  14.601  15.031   7.050
10098POPC   C4B71974  14.634  14.996   7.350
10099POPC   NC371975  42.319  17.531   5.550
10099POPC   PO471976  42.289  17.482   5.850
10099POPC   GL171977  42.349  17.513   6.150
10099POPC   GL271978  42.226  17.477   6.150
10099POPC   C1A71979  42.311  17.540   6.450
10099POPC   D2A71980  42.383  17.469   6.750
10099POPC   C3A71981  42.344  17.510   7.050
10099POPC   C4A71982  42.319  17.498   7.350
10099POPC   C1B71983  42.088  17.431   6.450
10099POPC   C2B71984  42.127  17.425   6.750
10099POPC   C3B71985  42.153  17.360   7.050
10099POPC   C4B71986  42.081  17.433   7.350
10100POPC   NC371987  39.260  43.107   5.550
10100POPC   PO471988  39.268  43.067   5.850
10100POPC   GL171989  39.253  43.138   6.150
10100POPC   GL271990  39.089  43.181   6.150
10100POPC   C1A71991  39.201  43.107   6.450
10100POPC   D2A71992  39.246  43.066   6.750
10100POPC   C3A71993  39.189  43.156   7.050
10100POPC   C4A71994  39.185  43.141   7.350
10100POPC   C1B71995  39.014  43.239   6.450
10100POPC   C2B71996  39.041  43.296   6.750
10100POPC   C3B71997  39.019  43.221   7.050
10100POPC   C4B71998  39.075  43.260   7.350
10101POPC   NC371999  22.189  34.554   5.550
10101POPC   PO472000  22.122  34.591   5.850
10101POPC   GL172001  22.178  34.528   6.150
10101POPC   GL272002  22.205  34.466   6.150
10101POPC   C1A72003  22.144  34.620   6.450
10101POPC   D2A72004  22.120  34.564   6.750
10101POPC   C3A72005  22.121  34.589   7.050
10101POPC   C4A72006  22.133  34.534   7.350
10101POPC   C1B72007  22.264  34.373   6.450
10101POPC   C2B72008  22.251  34.369   6.750
10101POPC   C3B72009  22.238  34.315   7.050
10101POPC   C4B72010  22.190  34.384   7.350
10102POPC   NC372011  26.830  19.858   5.550
10102POPC   PO472012  26.821  19.832   5.850
10102POPC   GL172013  26.837  19.811   6.150
10102POPC   GL272014  26.795  19.980   6.150
10102POPC   C1A72015  26.820  19.825   6.450
10102POPC   D2A72016  26.827  19.805   6.750
10102POPC   C3A72017  26.837  19.811   7.050
10102POPC   C4A72018  26.767  19.878   7.350
10102POPC   C1B72019  26.741  20.084   6.450
10102POPC   C2B72020  26.789  20.107   6.750
10102POPC   C3B72021  26.804  20.082   7.050
10102POPC   C4B72022  26.717  20.059   7.350
10103POPC   NC372023  40.783  15.187   5.550
10103POPC   PO472024  40.778  15.156   5.850
10103POPC   GL172025  40.780  15.193   6.150
10103POPC   GL272026  40.906  15.071   6.150
10103POPC   C1A72027  40.774  15.191   6.450
10103POPC   D2A72028  40.802  15.202   6.750
10103POPC   C3A72029  40.776  15.137   7.050
10103POPC   C4A72030  40.802  15.194   7.350
10103POPC   C1B72031  40.917  14.997   6.450
10103POPC   C2B72032  40.922  15.004   6.750
10103POPC   C3B72033  40.969  14.952   7.050
10103POPC   C4B72034  40.925  14.937   7.350
10104POPC   NC372035   9.707  40.047   5.550
10104POPC   PO472036   9.714  39.968   5.850
10104POPC   GL172037   9.766  40.035   6.150
10104POPC   GL272038   9.653  40.152   6.150
10104POPC   C1A72039   9.777  40.052   6.450
10104POPC   D2A72040   9.735  40.029   6.750
10104POPC   C3A72041   9.733  39.963   7.050
10104POPC   C4A72042   9.792  39.988   7.350
10104POPC   C1B72043   9.645  40.259   6.450
10104POPC   C2B72044   9.688  40.276   6.750
10104POPC   C3B72045   9.643  40.267   7.050
10104POPC   C4B72046   9.590  40.281   7.350
10105POPC   NC372047  27.606   9.786   5.550
10105POPC   PO472048  27.571   9.732   5.850
10105POPC   GL172049  27.593   9.710   6.150
10105POPC   GL272050  27.498   9.631   6.150
10105POPC   C1A72051  27.637   9.713   6.450
10105POPC   D2A72052  27.579   9.726   6.750
10105POPC   C3A72053  27.638   9.750   7.050
10105POPC   C4A72054  27.631   9.749   7.350
10105POPC   C1B72055  27.434   9.611   6.450
10105POPC   C2B72056  27.370   9.541   6.750
10105POPC   C3B72057  27.440   9.535   7.050
10105POPC   C4B72058  27.439   9.591   7.350
10106POPC   NC372059  39.226  33.020   5.550
10106POPC   PO472060  39.222  33.045   5.850
10106POPC   GL172061  39.247  33.035   6.150
10106POPC   GL272062  39.243  32.874   6.150
10106POPC   C1A72063  39.243  33.031   6.450
10106POPC   D2A72064  39.193  33.023   6.750
10106POPC   C3A72065  39.208  33.021   7.050
10106POPC   C4A72066  39.248  33.021   7.350
10106POPC   C1B72067  39.161  32.792   6.450
10106POPC   C2B72068  39.137  32.733   6.750
10106POPC   C3B72069  39.129  32.801   7.050
10106POPC   C4B72070  39.147  32.795   7.350
10107POPC   NC372071  44.689   2.801   5.550
10107POPC   PO472072  44.652   2.783   5.850
10107POPC   GL172073  44.689   2.725   6.150
10107POPC   GL272074  44.729   2.909   6.150
10107POPC   C1A72075  44.682   2.746   6.450
10107POPC   D2A72076  44.639   2.742   6.750
10107POPC   C3A72077  44.703   2.730   7.050
10107POPC   C4A72078  44.688   2.777   7.350
10107POPC   C1B72079  44.794   2.972   6.450
10107POPC   C2B72080  44.740   2.988   6.750
10107POPC   C3B72081  44.776   3.016   7.050
10107POPC   C4B72082  44.762   2.943   7.350
10108POPC   NC372083  28.408  31.454   5.550
10108POPC   PO472084  28.359  31.476   5.850
10108POPC   GL172085  28.396  31.518   6.150
10108POPC   GL272086  28.412  31.558   6.150
10108POPC   C1A72087  28.338  31.511   6.450
10108POPC   D2A72088  28.405  31.439   6.750
10108POPC   C3A72089  28.414  31.455   7.050
10108POPC   C4A72090  28.404  31.499   7.350
10108POPC   C1B72091  28.569  31.680   6.450
10108POPC   C2B72092  28.502  31.688   6.750
10108POPC   C3B72093  28.554  31.620   7.050
10108POPC   C4B72094  28.551  31.602   7.350
10109POPC   NC372095  32.223  15.993   5.550
10109POPC   PO472096  32.236  15.978   5.850
10109POPC   GL172097  32.236  15.995   6.150
10109POPC   GL272098  32.150  15.926   6.150
10109POPC   C1A72099  32.236  15.932   6.450
10109POPC   D2A72100  32.250  15.966   6.750
10109POPC   C3A72101  32.237  15.909   7.050
10109POPC   C4A72102  32.261  15.912   7.350
10109POPC   C1B72103  32.010  15.834   6.450
10109POPC   C2B72104  32.067  15.820   6.750
10109POPC   C3B72105  32.055  15.785   7.050
10109POPC   C4B72106  32.070  15.819   7.350
10110POPC   NC372107  23.696  40.767   5.550
10110POPC   PO472108  23.686  40.781   5.850
10110POPC   GL172109  23.686  40.743   6.150
10110POPC   GL272110  23.694  40.636   6.150
10110POPC   C1A72111  23.758  40.747   6.450
10110POPC   D2A72112  23.705  40.790   6.750
10110POPC   C3A72113  23.727  40.775   7.050
10110POPC   C4A72114  23.759  40.750   7.350
10110POPC   C1B72115  23.653  40.526   6.450
10110POPC   C2B72116  23.716  40.535   6.750
10110POPC   C3B72117  23.717  40.553   7.050
10110POPC   C4B72118  23.646  40.567   7.350
10111POPC   NC372119  33.030  41.562   5.550
10111POPC   PO472120  33.042  41.557   5.850
10111POPC   GL172121  32.987  41.600   6.150
10111POPC   GL272122  33.157  41.514   6.150
10111POPC   C1A72123  32.980  41.520   6.450
10111POPC   D2A72124  33.073  41.606   6.750
10111POPC   C3A72125  33.065  41.510   7.050
10111POPC   C4A72126  32.991  41.532   7.350
10111POPC   C1B72127  33.302  41.566   6.450
10111POPC   C2B72128  33.299  41.536   6.750
10111POPC   C3B72129  33.249  41.589   7.050
10111POPC   C4B72130  33.297  41.595   7.350
10112POPC   NC372131   2.022  12.035   5.550
10112POPC   PO472132   1.971  12.058   5.850
10112POPC   GL172133   1.998  12.056   6.150
10112POPC   GL272134   2.041  11.979   6.150
10112POPC   C1A72135   2.028  12.099   6.450
10112POPC   D2A72136   1.997  12.094   6.750
10112POPC   C3A72137   2.021  12.124   7.050
10112POPC   C4A72138   1.988  12.122   7.350
10112POPC   C1B72139   2.073  11.801   6.450
10112POPC   C2B72140   2.111  11.823   6.750
10112POPC   C3B72141   2.099  11.866   7.050
10112POPC   C4B72142   2.107  11.863   7.350
10113POPC   NC372143  43.136  33.002   5.550
10113POPC   PO472144  43.141  33.068   5.850
10113POPC   GL172145  43.149  32.980   6.150
10113POPC   GL272146  42.976  33.081   6.150
10113POPC   C1A72147  43.152  33.044   6.450
10113POPC   D2A72148  43.134  33.025   6.750
10113POPC   C3A72149  43.086  32.977   7.050
10113POPC   C4A72150  43.136  33.073   7.350
10113POPC   C1B72151  42.906  33.046   6.450
10113POPC   C2B72152  42.861  33.023   6.750
10113POPC   C3B72153  42.820  33.008   7.050
10113POPC   C4B72154  42.873  33.001   7.350
10114POPC   NC372155  14.427  25.992   5.550
10114POPC   PO472156  14.385  26.067   5.850
10114POPC   GL172157  14.443  26.048   6.150
10114POPC   GL272158  14.331  26.158   6.150
10114POPC   C1A72159  14.372  26.051   6.450
10114POPC   D2A72160  14.415  26.064   6.750
10114POPC   C3A72161  14.452  26.013   7.050
10114POPC   C4A72162  14.397  26.044   7.350
10114POPC   C1B72163  14.251  26.221   6.450
10114POPC   C2B72164  14.257  26.226   6.750
10114POPC   C3B72165  14.194  26.216   7.050
10114POPC   C4B72166  14.285  26.241   7.350
10115POPC   NC372167  40.755  13.595   5.550
10115POPC   PO472168  40.757  13.594   5.850
10115POPC   GL172169  40.801  13.629   6.150
10115POPC   GL272170  40.775  13.716   6.150
10115POPC   C1A72171  40.755  13.658   6.450
10115POPC   D2A72172  40.781  13.655   6.750
10115POPC   C3A72173  40.796  13.608   7.050
10115POPC   C4A72174  40.810  13.662   7.350
10115POPC   C1B72175  40.755  13.867   6.450
10115POPC   C2B72176  40.712  13.923   6.750
10115POPC   C3B72177  40.709  13.890   7.050
10115POPC   C4B72178  40.737  13.900   7.350
10116POPC   NC372179   6.607  22.924   5.550
10116POPC   PO472180   6.635  22.964   5.850
10116POPC   GL172181   6.617  22.983   6.150
10116POPC   GL272182   6.574  22.842   6.150
10116POPC   C1A72183   6.658  22.963   6.450
10116POPC   D2A72184   6.683  22.959   6.750
10116POPC   C3A72185   6.675  22.964   7.050
10116POPC   C4A72186   6.618  22.917   7.350
10116POPC   C1B72187   6.611  22.744   6.450
10116POPC   C2B72188   6.519  22.740   6.750
10116POPC   C3B72189   6.531  22.687   7.050
10116POPC   C4B72190   6.516  22.674   7.350
10117POPC   NC372191  22.936  21.380   5.550
10117POPC   PO472192  22.914  21.392   5.850
10117POPC   GL172193  22.959  21.346   6.150
10117POPC   GL272194  22.898  21.302   6.150
10117POPC   C1A72195  22.909  21.380   6.450
10117POPC   D2A72196  22.982  21.361   6.750
10117POPC   C3A72197  22.910  21.406   7.050
10117POPC   C4A72198  22.933  21.405   7.350
10117POPC   C1B72199  22.838  21.115   6.450
10117POPC   C2B72200  22.808  21.112   6.750
10117POPC   C3B72201  22.820  21.186   7.050
10117POPC   C4B72202  22.857  21.122   7.350
10118POPC   NC372203  16.697  43.067   5.550
10118POPC   PO472204  16.697  43.097   5.850
10118POPC   GL172205  16.695  43.080   6.150
10118POPC   GL272206  16.848  43.177   6.150
10118POPC   C1A72207  16.769  43.117   6.450
10118POPC   D2A72208  16.749  43.074   6.750
10118POPC   C3A72209  16.717  43.119   7.050
10118POPC   C4A72210  16.763  43.109   7.350
10118POPC   C1B72211  16.899  43.267   6.450
10118POPC   C2B72212  16.921  43.232   6.750
10118POPC   C3B72213  16.943  43.251   7.050
10118POPC   C4B72214  16.907  43.257   7.350
10119POPC   NC372215  33.757   8.160   5.550
10119POPC   PO472216  33.817   8.153   5.850
10119POPC   GL172217  33.759   8.215   6.150
10119POPC   GL272218  33.896   8.152   6.150
10119POPC   C1A72219  33.833   8.223   6.450
10119POPC   D2A72220  33.780   8.198   6.750
10119POPC   C3A72221  33.775   8.176   7.050
10119POPC   C4A72222  33.799   8.225   7.350
10119POPC   C1B72223  33.987   8.100   6.450
10119POPC   C2B72224  34.033   8.066   6.750
10119POPC   C3B72225  34.043   8.057   7.050
10119POPC   C4B72226  34.067   8.121   7.350
10120POPC   NC372227  43.878  43.922   5.550
10120POPC   PO472228  43.934  43.874   5.850
10120POPC   GL172229  43.849  43.930   6.150
10120POPC   GL272230  44.010  43.816   6.150
10120POPC   C1A72231  43.908  43.876   6.450
10120POPC   D2A72232  43.857  43.859   6.750
10120POPC   C3A72233  43.897  43.840   7.050
10120POPC   C4A72234  43.883  43.842   7.350
10120POPC   C1B72235  44.067  43.745   6.450
10120POPC   C2B72236  44.102  43.715   6.750
10120POPC   C3B72237  44.111  43.713   7.050
10120POPC   C4B72238  44.046  43.764   7.350
10121POPC   NC372239   5.046  26.008   5.550
10121POPC   PO472240   5.143  26.066   5.850
10121POPC   GL172241   5.056  26.063   6.150
10121POPC   GL272242   5.070  26.152   6.150
10121POPC   C1A72243   5.050  26.078   6.450
10121POPC   D2A72244   5.100  26.072   6.750
10121POPC   C3A72245   5.098  26.053   7.050
10121POPC   C4A72246   5.096  26.034   7.350
10121POPC   C1B72247   5.027  26.338   6.450
10121POPC   C2B72248   5.070  26.284   6.750
10121POPC   C3B72249   5.045  26.280   7.050
10121POPC   C4B72250   5.071  26.328   7.350
10122POPC   NC372251  22.131   8.944   5.550
10122POPC   PO472252  22.121   8.966   5.850
10122POPC   GL172253  22.152   9.021   6.150
10122POPC   GL272254  22.304   9.048   6.150
10122POPC   C1A72255  22.166   8.966   6.450
10122POPC   D2A72256  22.206   8.990   6.750
10122POPC   C3A72257  22.163   9.017   7.050
10122POPC   C4A72258  22.203   8.966   7.350
10122POPC   C1B72259  22.423   9.060   6.450
10122POPC   C2B72260  22.422   9.066   6.750
10122POPC   C3B72261  22.353   9.014   7.050
10122POPC   C4B72262  22.366   9.027   7.350
10123POPC   NC372263  13.675   8.174   5.550
10123POPC   PO472264  13.621   8.188   5.850
10123POPC   GL172265  13.610   8.155   6.150
10123POPC   GL272266  13.603   8.097   6.150
10123POPC   C1A72267  13.645   8.178   6.450
10123POPC   D2A72268  13.616   8.225   6.750
10123POPC   C3A72269  13.597   8.211   7.050
10123POPC   C4A72270  13.617   8.233   7.350
10123POPC   C1B72271  13.567   7.921   6.450
10123POPC   C2B72272  13.611   7.907   6.750
10123POPC   C3B72273  13.630   7.948   7.050
10123POPC   C4B72274  13.555   7.919   7.350
10124POPC   NC372275   4.302   9.740   5.550
10124POPC   PO472276   4.345   9.752   5.850
10124POPC   GL172277   4.343   9.736   6.150
10124POPC   GL272278   4.321   9.683   6.150
10124POPC   C1A72279   4.299   9.750   6.450
10124POPC   D2A72280   4.335   9.742   6.750
10124POPC   C3A72281   4.355   9.716   7.050
10124POPC   C4A72282   4.279   9.753   7.350
10124POPC   C1B72283   4.396   9.472   6.450
10124POPC   C2B72284   4.376   9.469   6.750
10124POPC   C3B72285   4.376   9.558   7.050
10124POPC   C4B72286   4.413   9.511   7.350
10125POPC   NC372287  11.275   4.345   5.550
10125POPC   PO472288  11.252   4.336   5.850
10125POPC   GL172289  11.277   4.358   6.150
10125POPC   GL272290  11.175   4.401   6.150
10125POPC   C1A72291  11.258   4.288   6.450
10125POPC   D2A72292  11.326   4.312   6.750
10125POPC   C3A72293  11.344   4.290   7.050
10125POPC   C4A72294  11.277   4.345   7.350
10125POPC   C1B72295  11.112   4.489   6.450
10125POPC   C2B72296  11.114   4.466   6.750
10125POPC   C3B72297  11.079   4.429   7.050
10125POPC   C4B72298  11.037   4.477   7.350
10126POPC   NC372299  39.229  22.978   5.550
10126POPC   PO472300  39.188  22.909   5.850
10126POPC   GL172301  39.219  22.976   6.150
10126POPC   GL272302  39.174  22.788   6.150
10126POPC   C1A72303  39.229  22.963   6.450
10126POPC   D2A72304  39.267  22.969   6.750
10126POPC   C3A72305  39.236  22.961   7.050
10126POPC   C4A72306  39.249  22.901   7.350
10126POPC   C1B72307  39.174  22.731   6.450
10126POPC   C2B72308  39.119  22.667   6.750
10126POPC   C3B72309  39.150  22.712   7.050
10126POPC   C4B72310  39.148  22.734   7.350
10127POPC   NC372311  25.999   9.019   5.550
10127POPC   PO472312  26.068   9.013   5.850
10127POPC   GL172313  26.050   8.992   6.150
10127POPC   GL272314  25.958   8.917   6.150
10127POPC   C1A72315  26.080   8.945   6.450
10127POPC   D2A72316  26.055   8.955   6.750
10127POPC   C3A72317  26.079   9.017   7.050
10127POPC   C4A72318  26.038   8.987   7.350
10127POPC   C1B72319  25.798   8.806   6.450
10127POPC   C2B72320  25.784   8.884   6.750
10127POPC   C3B72321  25.816   8.829   7.050
10127POPC   C4B72322  25.844   8.866   7.350
10128POPC   NC372323  34.546   8.979   5.550
10128POPC   PO472324  34.538   8.983   5.850
10128POPC   GL172325  34.621   9.011   6.150
10128POPC   GL272326  34.699   8.908   6.150
10128POPC   C1A72327  34.585   9.018   6.450
10128POPC   D2A72328  34.569   9.019   6.750
10128POPC   C3A72329  34.608   8.986   7.050
10128POPC   C4A72330  34.582   9.009   7.350
10128POPC   C1B72331  34.815   8.884   6.450
10128POPC   C2B72332  34.774   8.806   6.750
10128POPC   C3B72333  34.748   8.874   7.050
10128POPC   C4B72334  34.772   8.835   7.350
10129POPC   NC372335  39.199  15.155   5.550
10129POPC   PO472336  39.243  15.136   5.850
10129POPC   GL172337  39.251  15.174   6.150
10129POPC   GL272338  39.199  15.041   6.150
10129POPC   C1A72339  39.219  15.165   6.450
10129POPC   D2A72340  39.270  15.136   6.750
10129POPC   C3A72341  39.188  15.197   7.050
10129POPC   C4A72342  39.197  15.220   7.350
10129POPC   C1B72343  39.253  14.941   6.450
10129POPC   C2B72344  39.207  14.917   6.750
10129POPC   C3B72345  39.241  14.928   7.050
10129POPC   C4B72346  39.256  14.906   7.350
10130POPC   NC372347  12.802  41.569   5.550
10130POPC   PO472348  12.824  41.602   5.850
10130POPC   GL172349  12.826  41.586   6.150
10130POPC   GL272350  12.813  41.486   6.150
10130POPC   C1A72351  12.899  41.532   6.450
10130POPC   D2A72352  12.813  41.515   6.750
10130POPC   C3A72353  12.802  41.519   7.050
10130POPC   C4A72354  12.827  41.556   7.350
10130POPC   C1B72355  12.705  41.370   6.450
10130POPC   C2B72356  12.706  41.355   6.750
10130POPC   C3B72357  12.746  41.350   7.050
10130POPC   C4B72358  12.766  41.353   7.350
10131POPC   NC372359   5.098  12.047   5.550
10131POPC   PO472360   5.089  12.078   5.850
10131POPC   GL172361   5.113  12.119   6.150
10131POPC   GL272362   4.976  12.194   6.150
10131POPC   C1A72363   5.074  12.104   6.450
10131POPC   D2A72364   5.060  12.100   6.750
10131POPC   C3A72365   5.078  12.090   7.050
10131POPC   C4A72366   5.118  12.123   7.350
10131POPC   C1B72367   4.886  12.187   6.450
10131POPC   C2B72368   4.862  12.203   6.750
10131POPC   C3B72369   4.904  12.252   7.050
10131POPC   C4B72370   4.917  12.213   7.350
10132POPC   NC372371  25.292  35.401   5.550
10132POPC   PO472372  25.290  35.319   5.850
10132POPC   GL172373  25.265  35.396   6.150
10132POPC   GL272374  25.133  35.420   6.150
10132POPC   C1A72375  25.280  35.328   6.450
10132POPC   D2A72376  25.230  35.328   6.750
10132POPC   C3A72377  25.220  35.353   7.050
10132POPC   C4A72378  25.250  35.313   7.350
10132POPC   C1B72379  25.039  35.393   6.450
10132POPC   C2B72380  24.990  35.433   6.750
10132POPC   C3B72381  24.995  35.384   7.050
10132POPC   C4B72382  25.033  35.411   7.350
10133POPC   NC372383   8.237   2.736   5.550
10133POPC   PO472384   8.224   2.788   5.850
10133POPC   GL172385   8.164   2.734   6.150
10133POPC   GL272386   8.340   2.798   6.150
10133POPC   C1A72387   8.216   2.777   6.450
10133POPC   D2A72388   8.235   2.736   6.750
10133POPC   C3A72389   8.240   2.779   7.050
10133POPC   C4A72390   8.164   2.769   7.350
10133POPC   C1B72391   8.495   2.785   6.450
10133POPC   C2B72392   8.469   2.786   6.750
10133POPC   C3B72393   8.438   2.730   7.050
10133POPC   C4B72394   8.454   2.759   7.350
10134POPC   NC372395  42.317  11.282   5.550
10134POPC   PO472396  42.350  11.336   5.850
10134POPC   GL172397  42.333  11.287   6.150
10134POPC   GL272398  42.314  11.215   6.150
10134POPC   C1A72399  42.305  11.264   6.450
10134POPC   D2A72400  42.304  11.303   6.750
10134POPC   C3A72401  42.361  11.272   7.050
10134POPC   C4A72402  42.286  11.266   7.350
10134POPC   C1B72403  42.318  11.082   6.450
10134POPC   C2B72404  42.310  11.033   6.750
10134POPC   C3B72405  42.363  11.060   7.050
10134POPC   C4B72406  42.303  11.069   7.350
10135POPC   NC372407  15.927  23.698   5.550
10135POPC   PO472408  15.919  23.762   5.850
10135POPC   GL172409  15.924  23.718   6.150
10135POPC   GL272410  16.041  23.641   6.150
10135POPC   C1A72411  16.004  23.734   6.450
10135POPC   D2A72412  15.927  23.670   6.750
10135POPC   C3A72413  15.946  23.714   7.050
10135POPC   C4A72414  15.960  23.714   7.350
10135POPC   C1B72415  16.164  23.550   6.450
10135POPC   C2B72416  16.135  23.534   6.750
10135POPC   C3B72417  16.125  23.551   7.050
10135POPC   C4B72418  16.103  23.497   7.350
10136POPC   NC372419   5.082  43.904   5.550
10136POPC   PO472420   5.095  43.887   5.850
10136POPC   GL172421   5.121  43.837   6.150
10136POPC   GL272422   5.246  43.927   6.150
10136POPC   C1A72423   5.075  43.890   6.450
10136POPC   D2A72424   5.134  43.880   6.750
10136POPC   C3A72425   5.123  43.896   7.050
10136POPC   C4A72426   5.077  43.868   7.350
10136POPC   C1B72427   5.301  43.929   6.450
10136POPC   C2B72428   5.310  43.945   6.750
10136POPC   C3B72429   5.373  43.966   7.050
10136POPC   C4B72430   5.316  43.878   7.350
10137POPC   NC372431  33.830  21.369   5.550
10137POPC   PO472432  33.848  21.368   5.850
10137POPC   GL172433  33.821  21.402   6.150
10137POPC   GL272434  33.868  21.229   6.150
10137POPC   C1A72435  33.809  21.415   6.450
10137POPC   D2A72436  33.822  21.406   6.750
10137POPC   C3A72437  33.810  21.379   7.050
10137POPC   C4A72438  33.763  21.427   7.350
10137POPC   C1B72439  33.904  21.122   6.450
10137POPC   C2B72440  33.905  21.153   6.750
10137POPC   C3B72441  33.829  21.132   7.050
10137POPC   C4B72442  33.915  21.177   7.350
10138POPC   NC372443  28.409   9.767   5.550
10138POPC   PO472444  28.336   9.785   5.850
10138POPC   GL172445  28.405   9.745   6.150
10138POPC   GL272446  28.281   9.796   6.150
10138POPC   C1A72447  28.338   9.739   6.450
10138POPC   D2A72448  28.409   9.767   6.750
10138POPC   C3A72449  28.399   9.730   7.050
10138POPC   C4A72450  28.377   9.748   7.350
10138POPC   C1B72451  28.177   9.865   6.450
10138POPC   C2B72452  28.152   9.827   6.750
10138POPC   C3B72453  28.164   9.864   7.050
10138POPC   C4B72454  28.131   9.907   7.350
10139POPC   NC372455  36.897   1.255   5.550
10139POPC   PO472456  36.865   1.257   5.850
10139POPC   GL172457  36.884   1.221   6.150
10139POPC   GL272458  37.046   1.177   6.150
10139POPC   C1A72459  36.950   1.167   6.450
10139POPC   D2A72460  36.862   1.207   6.750
10139POPC   C3A72461  36.870   1.189   7.050
10139POPC   C4A72462  36.858   1.248   7.350
10139POPC   C1B72463  37.166   1.068   6.450
10139POPC   C2B72464  37.130   1.056   6.750
10139POPC   C3B72465  37.173   1.132   7.050
10139POPC   C4B72466  37.156   1.076   7.350
10140POPC   NC372467  20.627  15.963   5.550
10140POPC   PO472468  20.564  15.999   5.850
10140POPC   GL172469  20.646  15.973   6.150
10140POPC   GL272470  20.459  15.940   6.150
10140POPC   C1A72471  20.625  15.936   6.450
10140POPC   D2A72472  20.632  15.976   6.750
10140POPC   C3A72473  20.612  15.988   7.050
10140POPC   C4A72474  20.570  15.948   7.350
10140POPC   C1B72475  20.347  15.879   6.450
10140POPC   C2B72476  20.389  15.874   6.750
10140POPC   C3B72477  20.418  15.865   7.050
10140POPC   C4B72478  20.382  15.855   7.350
10141POPC   NC372479  39.967   8.981   5.550
10141POPC   PO472480  40.025   8.964   5.850
10141POPC   GL172481  40.001   8.956   6.150
10141POPC   GL272482  40.099   8.978   6.150
10141POPC   C1A72483  40.020   8.932   6.450
10141POPC   D2A72484  40.015   8.994   6.750
10141POPC   C3A72485  40.012   8.973   7.050
10141POPC   C4A72486  40.019   8.971   7.350
10141POPC   C1B72487  40.230   9.009   6.450
10141POPC   C2B72488  40.271   8.933   6.750
10141POPC   C3B72489  40.283   8.998   7.050
10141POPC   C4B72490  40.261   8.979   7.350
10142POPC   NC372491  16.690  13.633   5.550
10142POPC   PO472492  16.739  13.617   5.850
10142POPC   GL172493  16.763  13.600   6.150
10142POPC   GL272494  16.601  13.586   6.150
10142POPC   C1A72495  16.682  13.677   6.450
10142POPC   D2A72496  16.704  13.596   6.750
10142POPC   C3A72497  16.780  13.671   7.050
10142POPC   C4A72498  16.734  13.614   7.350
10142POPC   C1B72499  16.563  13.472   6.450
10142POPC   C2B72500  16.597  13.452   6.750
10142POPC   C3B72501  16.559  13.432   7.050
10142POPC   C4B72502  16.571  13.433   7.350
10143POPC   NC372503  38.415  23.733   5.550
10143POPC   PO472504  38.433  23.699   5.850
10143POPC   GL172505  38.409  23.729   6.150
10143POPC   GL272506  38.416  23.826   6.150
10143POPC   C1A72507  38.439  23.673   6.450
10143POPC   D2A72508  38.474  23.731   6.750
10143POPC   C3A72509  38.470  23.722   7.050
10143POPC   C4A72510  38.439  23.700   7.350
10143POPC   C1B72511  38.390  24.000   6.450
10143POPC   C2B72512  38.352  23.924   6.750
10143POPC   C3B72513  38.371  23.998   7.050
10143POPC   C4B72514  38.366  23.991   7.350
10144POPC   NC372515  32.208  38.482   5.550
10144POPC   PO472516  32.275  38.482   5.850
10144POPC   GL172517  32.239  38.436   6.150
10144POPC   GL272518  32.137  38.472   6.150
10144POPC   C1A72519  32.292  38.457   6.450
10144POPC   D2A72520  32.209  38.480   6.750
10144POPC   C3A72521  32.277  38.466   7.050
10144POPC   C4A72522  32.211  38.440   7.350
10144POPC   C1B72523  32.001  38.412   6.450
10144POPC   C2B72524  32.041  38.432   6.750
10144POPC   C3B72525  32.040  38.454   7.050
10144POPC   C4B72526  31.951  38.451   7.350
10145POPC   NC372527  40.817  24.537   5.550
10145POPC   PO472528  40.802  24.446   5.850
10145POPC   GL172529  40.774  24.443   6.150
10145POPC   GL272530  40.845  24.537   6.150
10145POPC   C1A72531  40.778  24.471   6.450
10145POPC   D2A72532  40.742  24.467   6.750
10145POPC   C3A72533  40.791  24.523   7.050
10145POPC   C4A72534  40.809  24.440   7.350
10145POPC   C1B72535  40.982  24.671   6.450
10145POPC   C2B72536  41.001  24.632   6.750
10145POPC   C3B72537  40.932  24.604   7.050
10145POPC   C4B72538  40.959  24.640   7.350
10146POPC   NC372539  28.359  20.561   5.550
10146POPC   PO472540  28.395  20.568   5.850
10146POPC   GL172541  28.388  20.595   6.150
10146POPC   GL272542  28.384  20.504   6.150
10146POPC   C1A72543  28.363  20.658   6.450
10146POPC   D2A72544  28.322  20.572   6.750
10146POPC   C3A72545  28.350  20.616   7.050
10146POPC   C4A72546  28.397  20.566   7.350
10146POPC   C1B72547  28.259  20.320   6.450
10146POPC   C2B72548  28.299  20.378   6.750
10146POPC   C3B72549  28.272  20.409   7.050
10146POPC   C4B72550  28.355  20.375   7.350
10147POPC   NC372551   1.980  37.637   5.550
10147POPC   PO472552   1.989  37.695   5.850
10147POPC   GL172553   1.987  37.670   6.150
10147POPC   GL272554   1.946  37.567   6.150
10147POPC   C1A72555   2.034  37.678   6.450
10147POPC   D2A72556   2.011  37.688   6.750
10147POPC   C3A72557   2.006  37.684   7.050
10147POPC   C4A72558   2.028  37.666   7.350
10147POPC   C1B72559   1.822  37.535   6.450
10147POPC   C2B72560   1.821  37.537   6.750
10147POPC   C3B72561   1.793  37.498   7.050
10147POPC   C4B72562   1.807  37.499   7.350
10148POPC   NC372563  44.621   8.957   5.550
10148POPC   PO472564  44.666   9.010   5.850
10148POPC   GL172565  44.623   8.954   6.150
10148POPC   GL272566  44.639   8.876   6.150
10148POPC   C1A72567  44.615   9.006   6.450
10148POPC   D2A72568  44.689   8.950   6.750
10148POPC   C3A72569  44.698   9.021   7.050
10148POPC   C4A72570  44.618   8.975   7.350
10148POPC   C1B72571  44.510   8.751   6.450
10148POPC   C2B72572  44.532   8.721   6.750
10148POPC   C3B72573  44.581   8.772   7.050
10148POPC   C4B72574  44.574   8.724   7.350
10149POPC   NC372575   0.445   2.814   5.550
10149POPC   PO472576   0.475   2.769   5.850
10149POPC   GL172577   0.474   2.769   6.150
10149POPC   GL272578   0.418   2.921   6.150
10149POPC   C1A72579   0.476   2.790   6.450
10149POPC   D2A72580   0.404   2.779   6.750
10149POPC   C3A72581   0.401   2.754   7.050
10149POPC   C4A72582   0.455   2.759   7.350
10149POPC   C1B72583   0.363   2.967   6.450
10149POPC   C2B72584   0.361   2.962   6.750
10149POPC   C3B72585   0.412   3.032   7.050
10149POPC   C4B72586   0.373   2.988   7.350
10150POPC   NC372587  29.908  37.639   5.550
10150POPC   PO472588  29.893  37.656   5.850
10150POPC   GL172589  29.888  37.636   6.150
10150POPC   GL272590  29.821  37.837   6.150
10150POPC   C1A72591  29.964  37.655   6.450
10150POPC   D2A72592  29.950  37.704   6.750
10150POPC   C3A72593  29.970  37.678   7.050
10150POPC   C4A72594  29.871  37.689   7.350
10150POPC   C1B72595  29.802  37.924   6.450
10150POPC   C2B72596  29.856  37.926   6.750
10150POPC   C3B72597  29.792  37.935   7.050
10150POPC   C4B72598  29.813  37.949   7.350
10151POPC   NC372599  15.140  43.124   5.550
10151POPC   PO472600  15.148  43.088   5.850
10151POPC   GL172601  15.144  43.088   6.150
10151POPC   GL272602  15.056  42.986   6.150
10151POPC   C1A72603  15.184  43.121   6.450
10151POPC   D2A72604  15.177  43.081   6.750
10151POPC   C3A72605  15.140  43.157   7.050
10151POPC   C4A72606  15.183  43.091   7.350
10151POPC   C1B72607  15.063  42.912   6.450
10151POPC   C2B72608  15.042  42.892   6.750
10151POPC   C3B72609  15.005  42.937   7.050
10151POPC   C4B72610  15.039  42.942   7.350
10152POPC   NC372611   8.209  37.652   5.550
10152POPC   PO472612   8.155  37.679   5.850
10152POPC   GL172613   8.187  37.634   6.150
10152POPC   GL272614   8.076  37.738   6.150
10152POPC   C1A72615   8.219  37.648   6.450
10152POPC   D2A72616   8.204  37.641   6.750
10152POPC   C3A72617   8.191  37.641   7.050
10152POPC   C4A72618   8.184  37.704   7.350
10152POPC   C1B72619   7.989  37.697   6.450
10152POPC   C2B72620   7.912  37.699   6.750
10152POPC   C3B72621   7.965  37.715   7.050
10152POPC   C4B72622   7.976  37.704   7.350
10153POPC   NC372623  26.827  12.062   5.550
10153POPC   PO472624  26.837  12.106   5.850
10153POPC   GL172625  26.778  12.042   6.150
10153POPC   GL272626  26.793  11.923   6.150
10153POPC   C1A72627  26.850  12.053   6.450
10153POPC   D2A72628  26.767  12.108   6.750
10153POPC   C3A72629  26.798  12.042   7.050
10153POPC   C4A72630  26.796  12.091   7.350
10153POPC   C1B72631  26.752  11.837   6.450
10153POPC   C2B72632  26.823  11.827   6.750
10153POPC   C3B72633  26.773  11.854   7.050
10153POPC   C4B72634  26.806  11.869   7.350
10154POPC   NC372635  36.159  37.716   5.550
10154POPC   PO472636  36.151  37.669   5.850
10154POPC   GL172637  36.150  37.665   6.150
10154POPC   GL272638  36.026  37.737   6.150
10154POPC   C1A72639  36.141  37.654   6.450
10154POPC   D2A72640  36.127  37.698   6.750
10154POPC   C3A72641  36.161  37.695   7.050
10154POPC   C4A72642  36.107  37.672   7.350
10154POPC   C1B72643  35.869  37.795   6.450
10154POPC   C2B72644  35.904  37.758   6.750
10154POPC   C3B72645  35.955  37.754   7.050
10154POPC   C4B72646  35.924  37.819   7.350
10155POPC   NC372647  41.524   1.973   5.550
10155POPC   PO472648  41.543   1.949   5.850
10155POPC   GL172649  41.525   2.024   6.150
10155POPC   GL272650  41.453   2.014   6.150
10155POPC   C1A72651  41.546   2.028   6.450
10155POPC   D2A72652  41.593   1.964   6.750
10155POPC   C3A72653  41.560   2.013   7.050
10155POPC   C4A72654  41.605   1.951   7.350
10155POPC   C1B72655  41.356   2.046   6.450
10155POPC   C2B72656  41.298   2.064   6.750
10155POPC   C3B72657  41.361   2.089   7.050
10155POPC   C4B72658  41.366   2.141   7.350
10156POPC   NC372659  43.151  37.698   5.550
10156POPC   PO472660  43.141  37.633   5.850
10156POPC   GL172661  43.065  37.643   6.150
10156POPC   GL272662  43.121  37.584   6.150
10156POPC   C1A72663  43.144  37.634   6.450
10156POPC   D2A72664  43.108  37.720   6.750
10156POPC   C3A72665  43.134  37.639   7.050
10156POPC   C4A72666  43.114  37.663   7.350
10156POPC   C1B72667  43.174  37.487   6.450
10156POPC   C2B72668  43.144  37.468   6.750
10156POPC   C3B72669  43.196  37.459   7.050
10156POPC   C4B72670  43.157  37.412   7.350
10157POPC   NC372671  12.116  12.045   5.550
10157POPC   PO472672  12.102  12.112   5.850
10157POPC   GL172673  12.053  12.094   6.150
10157POPC   GL272674  12.081  12.186   6.150
10157POPC   C1A72675  12.032  12.105   6.450
10157POPC   D2A72676  12.081  12.038   6.750
10157POPC   C3A72677  12.065  12.057   7.050
10157POPC   C4A72678  12.108  12.088   7.350
10157POPC   C1B72679  12.128  12.290   6.450
10157POPC   C2B72680  12.053  12.336   6.750
10157POPC   C3B72681  12.123  12.368   7.050
10157POPC   C4B72682  12.063  12.334   7.350
10158POPC   NC372683  19.822   3.492   5.550
10158POPC   PO472684  19.864   3.508   5.850
10158POPC   GL172685  19.797   3.531   6.150
10158POPC   GL272686  19.922   3.399   6.150
10158POPC   C1A72687  19.833   3.568   6.450
10158POPC   D2A72688  19.810   3.503   6.750
10158POPC   C3A72689  19.864   3.494   7.050
10158POPC   C4A72690  19.817   3.580   7.350
10158POPC   C1B72691  19.960   3.334   6.450
10158POPC   C2B72692  19.970   3.281   6.750
10158POPC   C3B72693  19.933   3.321   7.050
10158POPC   C4B72694  19.971   3.314   7.350
10159POPC   NC372695   8.240  11.286   5.550
10159POPC   PO472696   8.237  11.256   5.850
10159POPC   GL172697   8.207  11.325   6.150
10159POPC   GL272698   8.325  11.432   6.150
10159POPC   C1A72699   8.184  11.283   6.450
10159POPC   D2A72700   8.217  11.282   6.750
10159POPC   C3A72701   8.214  11.305   7.050
10159POPC   C4A72702   8.244  11.260   7.350
10159POPC   C1B72703   8.342  11.465   6.450
10159POPC   C2B72704   8.385  11.473   6.750
10159POPC   C3B72705   8.332  11.453   7.050
10159POPC   C4B72706   8.372  11.434   7.350
10160POPC   NC372707   4.319  25.278   5.550
10160POPC   PO472708   4.318  25.303   5.850
10160POPC   GL172709   4.354  25.280   6.150
10160POPC   GL272710   4.342  25.433   6.150
10160POPC   C1A72711   4.269  25.245   6.450
10160POPC   D2A72712   4.311  25.218   6.750
10160POPC   C3A72713   4.306  25.310   7.050
10160POPC   C4A72714   4.286  25.277   7.350
10160POPC   C1B72715   4.297  25.550   6.450
10160POPC   C2B72716   4.352  25.525   6.750
10160POPC   C3B72717   4.285  25.539   7.050
10160POPC   C4B72718   4.345  25.537   7.350
10161POPC   NC372719  26.856  13.606   5.550
10161POPC   PO472720  26.823  13.641   5.850
10161POPC   GL172721  26.864  13.609   6.150
10161POPC   GL272722  26.790  13.773   6.150
10161POPC   C1A72723  26.776  13.665   6.450
10161POPC   D2A72724  26.796  13.632   6.750
10161POPC   C3A72725  26.790  13.631   7.050
10161POPC   C4A72726  26.840  13.633   7.350
10161POPC   C1B72727  26.878  13.832   6.450
10161POPC   C2B72728  26.859  13.892   6.750
10161POPC   C3B72729  26.835  13.855   7.050
10161POPC   C4B72730  26.864  13.847   7.350
10162POPC   NC372731  11.259   7.460   5.550
10162POPC   PO472732  11.315   7.428   5.850
10162POPC   GL172733  11.334   7.437   6.150
10162POPC   GL272734  11.251   7.538   6.150
10162POPC   C1A72735  11.348   7.404   6.450
10162POPC   D2A72736  11.341   7.461   6.750
10162POPC   C3A72737  11.312   7.444   7.050
10162POPC   C4A72738  11.302   7.394   7.350
10162POPC   C1B72739  11.121   7.668   6.450
10162POPC   C2B72740  11.204   7.635   6.750
10162POPC   C3B72741  11.204   7.600   7.050
10162POPC   C4B72742  11.181   7.652   7.350
10163POPC   NC372743  44.628  21.428   5.550
10163POPC   PO472744  44.648  21.342   5.850
10163POPC   GL172745  44.644  21.338   6.150
10163POPC   GL272746  44.637  21.232   6.150
10163POPC   C1A72747  44.669  21.388   6.450
10163POPC   D2A72748  44.625  21.338   6.750
10163POPC   C3A72749  44.616  21.370   7.050
10163POPC   C4A72750  44.619  21.375   7.350
10163POPC   C1B72751  44.751  21.109   6.450
10163POPC   C2B72752  44.719  21.165   6.750
10163POPC   C3B72753  44.685  21.139   7.050
10163POPC   C4B72754  44.688  21.092   7.350
10164POPC   NC372755  17.459  37.721   5.550
10164POPC   PO472756  17.494  37.650   5.850
10164POPC   GL172757  17.530  37.675   6.150
10164POPC   GL272758  17.576  37.746   6.150
10164POPC   C1A72759  17.459  37.690   6.450
10164POPC   D2A72760  17.504  37.655   6.750
10164POPC   C3A72761  17.542  37.637   7.050
10164POPC   C4A72762  17.539  37.656   7.350
10164POPC   C1B72763  17.730  37.846   6.450
10164POPC   C2B72764  17.714  37.817   6.750
10164POPC   C3B72765  17.637  37.877   7.050
10164POPC   C4B72766  17.636  37.903   7.350
10165POPC   NC372767  15.984  44.646   5.550
10165POPC   PO472768  15.906  44.618   5.850
10165POPC   GL172769  15.913  44.709   6.150
10165POPC   GL272770  15.851  44.724   6.150
10165POPC   C1A72771  15.972  44.673   6.450
10165POPC   D2A72772  15.924  44.674   6.750
10165POPC   C3A72773  15.984  44.666   7.050
10165POPC   C4A72774  15.932  44.627   7.350
10165POPC   C1B72775  15.714  44.779   6.450
10165POPC   C2B72776  15.736  44.800   6.750
10165POPC   C3B72777  15.729  44.801   7.050
10165POPC   C4B72778  15.794  44.789   7.350
10166POPC   NC372779   7.456   8.241   5.550
10166POPC   PO472780   7.446   8.188   5.850
10166POPC   GL172781   7.412   8.159   6.150
10166POPC   GL272782   7.331   8.130   6.150
10166POPC   C1A72783   7.439   8.171   6.450
10166POPC   D2A72784   7.411   8.151   6.750
10166POPC   C3A72785   7.395   8.160   7.050
10166POPC   C4A72786   7.371   8.149   7.350
10166POPC   C1B72787   7.324   7.965   6.450
10166POPC   C2B72788   7.261   8.021   6.750
10166POPC   C3B72789   7.266   7.989   7.050
10166POPC   C4B72790   7.299   7.951   7.350
10167POPC   NC372791   8.958   7.425   5.550
10167POPC   PO472792   8.979   7.414   5.850
10167POPC   GL172793   8.983   7.444   6.150
10167POPC   GL272794   8.939   7.547   6.150
10167POPC   C1A72795   9.012   7.445   6.450
10167POPC   D2A72796   8.969   7.414   6.750
10167POPC   C3A72797   9.017   7.378   7.050
10167POPC   C4A72798   8.982   7.463   7.350
10167POPC   C1B72799   8.996   7.708   6.450
10167POPC   C2B72800   9.033   7.637   6.750
10167POPC   C3B72801   8.947   7.629   7.050
10167POPC   C4B72802   8.956   7.672   7.350
10168POPC   NC372803  39.256  33.835   5.550
10168POPC   PO472804  39.239  33.850   5.850
10168POPC   GL172805  39.253  33.783   6.150
10168POPC   GL272806  39.312  33.669   6.150
10168POPC   C1A72807  39.193  33.800   6.450
10168POPC   D2A72808  39.262  33.799   6.750
10168POPC   C3A72809  39.215  33.792   7.050
10168POPC   C4A72810  39.244  33.848   7.350
10168POPC   C1B72811  39.419  33.584   6.450
10168POPC   C2B72812  39.417  33.629   6.750
10168POPC   C3B72813  39.370  33.656   7.050
10168POPC   C4B72814  39.409  33.609   7.350
10169POPC   NC372815  34.571   2.814   5.550
10169POPC   PO472816  34.567   2.789   5.850
10169POPC   GL172817  34.604   2.783   6.150
10169POPC   GL272818  34.436   2.781   6.150
10169POPC   C1A72819  34.596   2.803   6.450
10169POPC   D2A72820  34.558   2.781   6.750
10169POPC   C3A72821  34.542   2.765   7.050
10169POPC   C4A72822  34.624   2.796   7.350
10169POPC   C1B72823  34.353   2.805   6.450
10169POPC   C2B72824  34.355   2.732   6.750
10169POPC   C3B72825  34.358   2.741   7.050
10169POPC   C4B72826  34.340   2.738   7.350
10170POPC   NC372827   6.675  32.273   5.550
10170POPC   PO472828   6.661  32.271   5.850
10170POPC   GL172829   6.605  32.255   6.150
10170POPC   GL272830   6.534  32.182   6.150
10170POPC   C1A72831   6.635  32.236   6.450
10170POPC   D2A72832   6.663  32.289   6.750
10170POPC   C3A72833   6.606  32.281   7.050
10170POPC   C4A72834   6.621  32.231   7.350
10170POPC   C1B72835   6.419  32.105   6.450
10170POPC   C2B72836   6.402  32.099   6.750
10170POPC   C3B72837   6.436  32.082   7.050
10170POPC   C4B72838   6.470  32.123   7.350
10171POPC   NC372839  18.257   5.908   5.550
10171POPC   PO472840  18.323   5.884   5.850
10171POPC   GL172841  18.256   5.877   6.150
10171POPC   GL272842  18.412   5.964   6.150
10171POPC   C1A72843  18.269   5.890   6.450
10171POPC   D2A72844  18.282   5.869   6.750
10171POPC   C3A72845  18.314   5.894   7.050
10171POPC   C4A72846  18.323   5.919   7.350
10171POPC   C1B72847  18.495   6.062   6.450
10171POPC   C2B72848  18.519   6.055   6.750
10171POPC   C3B72849  18.428   5.991   7.050
10171POPC   C4B72850  18.434   6.035   7.350
10172POPC   NC372851  33.812  22.148   5.550
10172POPC   PO472852  33.802  22.210   5.850
10172POPC   GL172853  33.808  22.172   6.150
10172POPC   GL272854  33.671  22.256   6.150
10172POPC   C1A72855  33.765  22.141   6.450
10172POPC   D2A72856  33.845  22.117   6.750
10172POPC   C3A72857  33.848  22.179   7.050
10172POPC   C4A72858  33.803  22.115   7.350
10172POPC   C1B72859  33.552  22.300   6.450
10172POPC   C2B72860  33.548  22.324   6.750
10172POPC   C3B72861  33.555  22.257   7.050
10172POPC   C4B72862  33.558  22.282   7.350
10173POPC   NC372863  30.700   1.976   5.550
10173POPC   PO472864  30.649   2.006   5.850
10173POPC   GL172865  30.743   2.036   6.150
10173POPC   GL272866  30.819   1.857   6.150
10173POPC   C1A72867  30.711   2.023   6.450
10173POPC   D2A72868  30.708   2.013   6.750
10173POPC   C3A72869  30.717   1.948   7.050
10173POPC   C4A72870  30.660   2.004   7.350
10173POPC   C1B72871  30.866   1.786   6.450
10173POPC   C2B72872  30.838   1.826   6.750
10173POPC   C3B72873  30.847   1.856   7.050
10173POPC   C4B72874  30.828   1.809   7.350
10174POPC   NC372875   0.394  40.735   5.550
10174POPC   PO472876   0.444  40.818   5.850
10174POPC   GL172877   0.449  40.801   6.150
10174POPC   GL272878   0.304  40.800   6.150
10174POPC   C1A72879   0.457  40.810   6.450
10174POPC   D2A72880   0.399  40.752   6.750
10174POPC   C3A72881   0.448  40.832   7.050
10174POPC   C4A72882   0.477  40.736   7.350
10174POPC   C1B72883   0.193  40.835   6.450
10174POPC   C2B72884   0.166  40.744   6.750
10174POPC   C3B72885   0.238  40.770   7.050
10174POPC   C4B72886   0.147  40.819   7.350
10175POPC   NC372887   5.125  36.932   5.550
10175POPC   PO472888   5.053  36.949   5.850
10175POPC   GL172889   5.074  36.891   6.150
10175POPC   GL272890   4.970  36.834   6.150
10175POPC   C1A72891   5.094  36.877   6.450
10175POPC   D2A72892   5.142  36.945   6.750
10175POPC   C3A72893   5.058  36.883   7.050
10175POPC   C4A72894   5.109  36.866   7.350
10175POPC   C1B72895   4.919  36.789   6.450
10175POPC   C2B72896   4.870  36.752   6.750
10175POPC   C3B72897   4.890  36.728   7.050
10175POPC   C4B72898   4.853  36.783   7.350
10176POPC   NC372899  14.361  13.605   5.550
10176POPC   PO472900  14.372  13.592   5.850
10176POPC   GL172901  14.429  13.605   6.150
10176POPC   GL272902  14.482  13.541   6.150
10176POPC   C1A72903  14.376  13.634   6.450
10176POPC   D2A72904  14.358  13.615   6.750
10176POPC   C3A72905  14.381  13.597   7.050
10176POPC   C4A72906  14.444  13.579   7.350
10176POPC   C1B72907  14.506  13.410   6.450
10176POPC   C2B72908  14.416  13.425   6.750
10176POPC   C3B72909  14.460  13.395   7.050
10176POPC   C4B72910  14.425  13.410   7.350
10177POPC   NC372911  40.016  10.525   5.550
10177POPC   PO472912  39.991  10.487   5.850
10177POPC   GL172913  40.031  10.542   6.150
10177POPC   GL272914  40.168  10.554   6.150
10177POPC   C1A72915  39.972  10.549   6.450
10177POPC   D2A72916  40.051  10.522   6.750
10177POPC   C3A72917  39.975  10.513   7.050
10177POPC   C4A72918  40.002  10.551   7.350
10177POPC   C1B72919  40.272  10.646   6.450
10177POPC   C2B72920  40.222  10.671   6.750
10177POPC   C3B72921  40.223  10.654   7.050
10177POPC   C4B72922  40.238  10.667   7.350
10178POPC   NC372923  43.147  22.140   5.550
10178POPC   PO472924  43.107  22.193   5.850
10178POPC   GL172925  43.067  22.133   6.150
10178POPC   GL272926  43.036  22.065   6.150
10178POPC   C1A72927  43.078  22.121   6.450
10178POPC   D2A72928  43.160  22.207   6.750
10178POPC   C3A72929  43.119  22.146   7.050
10178POPC   C4A72930  43.110  22.163   7.350
10178POPC   C1B72931  42.993  21.947   6.450
10178POPC   C2B72932  43.043  21.900   6.750
10178POPC   C3B72933  42.984  21.978   7.050
10178POPC   C4B72934  43.039  21.945   7.350
10179POPC   NC372935   1.250   3.562   5.550
10179POPC   PO472936   1.177   3.495   5.850
10179POPC   GL172937   1.263   3.577   6.150
10179POPC   GL272938   1.109   3.445   6.150
10179POPC   C1A72939   1.234   3.581   6.450
10179POPC   D2A72940   1.201   3.574   6.750
10179POPC   C3A72941   1.222   3.542   7.050
10179POPC   C4A72942   1.166   3.530   7.350
10179POPC   C1B72943   1.060   3.311   6.450
10179POPC   C2B72944   1.056   3.382   6.750
10179POPC   C3B72945   1.098   3.330   7.050
10179POPC   C4B72946   1.084   3.369   7.350
10180POPC   NC372947  43.841  19.839   5.550
10180POPC   PO472948  43.919  19.814   5.850
10180POPC   GL172949  43.932  19.823   6.150
10180POPC   GL272950  43.760  19.814   6.150
10180POPC   C1A72951  43.909  19.789   6.450
10180POPC   D2A72952  43.838  19.876   6.750
10180POPC   C3A72953  43.899  19.788   7.050
10180POPC   C4A72954  43.893  19.850   7.350
10180POPC   C1B72955  43.685  19.831   6.450
10180POPC   C2B72956  43.649  19.890   6.750
10180POPC   C3B72957  43.671  19.857   7.050
10180POPC   C4B72958  43.608  19.887   7.350
10181POPC   NC372959  27.637  19.805   5.550
10181POPC   PO472960  27.547  19.807   5.850
10181POPC   GL172961  27.606  19.829   6.150
10181POPC   GL272962  27.446  19.780   6.150
10181POPC   C1A72963  27.621  19.839   6.450
10181POPC   D2A72964  27.620  19.833   6.750
10181POPC   C3A72965  27.591  19.829   7.050
10181POPC   C4A72966  27.603  19.867   7.350
10181POPC   C1B72967  27.370  19.786   6.450
10181POPC   C2B72968  27.393  19.726   6.750
10181POPC   C3B72969  27.305  19.802   7.050
10181POPC   C4B72970  27.325  19.797   7.350
10182POPC   NC372971  40.733  37.671   5.550
10182POPC   PO472972  40.743  37.717   5.850
10182POPC   GL172973  40.831  37.636   6.150
10182POPC   GL272974  40.690  37.578   6.150
10182POPC   C1A72975  40.827  37.698   6.450
10182POPC   D2A72976  40.781  37.686   6.750
10182POPC   C3A72977  40.805  37.644   7.050
10182POPC   C4A72978  40.756  37.683   7.350
10182POPC   C1B72979  40.584  37.584   6.450
10182POPC   C2B72980  40.532  37.524   6.750
10182POPC   C3B72981  40.539  37.535   7.050
10182POPC   C4B72982  40.593  37.563   7.350
10183POPC   NC372983  30.731   7.432   5.550
10183POPC   PO472984  30.651   7.448   5.850
10183POPC   GL172985  30.724   7.384   6.150
10183POPC   GL272986  30.697   7.269   6.150
10183POPC   C1A72987  30.688   7.399   6.450
10183POPC   D2A72988  30.679   7.388   6.750
10183POPC   C3A72989  30.672   7.377   7.050
10183POPC   C4A72990  30.745   7.445   7.350
10183POPC   C1B72991  30.710   7.155   6.450
10183POPC   C2B72992  30.721   7.167   6.750
10183POPC   C3B72993  30.626   7.155   7.050
10183POPC   C4B72994  30.692   7.193   7.350
10184POPC   NC372995  31.455  12.874   5.550
10184POPC   PO472996  31.470  12.829   5.850
10184POPC   GL172997  31.436  12.893   6.150
10184POPC   GL272998  31.562  12.733   6.150
10184POPC   C1A72999  31.509  12.859   6.450
10184POPC   D2A73000  31.490  12.837   6.750
10184POPC   C3A73001  31.468  12.816   7.050
10184POPC   C4A73002  31.463  12.849   7.350
10184POPC   C1B73003  31.575  12.622   6.450
10184POPC   C2B73004  31.545  12.667   6.750
10184POPC   C3B73005  31.598  12.600   7.050
10184POPC   C4B73006  31.582  12.645   7.350
10185POPC   NC373007  33.808   0.395   5.550
10185POPC   PO473008  33.827   0.475   5.850
10185POPC   GL173009  33.844   0.401   6.150
10185POPC   GL273010  33.647   0.335   6.150
10185POPC   C1A73011  33.779   0.443   6.450
10185POPC   D2A73012  33.801   0.457   6.750
10185POPC   C3A73013  33.806   0.421   7.050
10185POPC   C4A73014  33.751   0.437   7.350
10185POPC   C1B73015  33.563   0.288   6.450
10185POPC   C2B73016  33.538   0.298   6.750
10185POPC   C3B73017  33.551   0.312   7.050
10185POPC   C4B73018  33.612   0.329   7.350
10186POPC   NC373019  35.367   2.730   5.550
10186POPC   PO473020  35.377   2.723   5.850
10186POPC   GL173021  35.381   2.736   6.150
10186POPC   GL273022  35.312   2.856   6.150
10186POPC   C1A73023  35.362   2.734   6.450
10186POPC   D2A73024  35.333   2.811   6.750
10186POPC   C3A73025  35.325   2.736   7.050
10186POPC   C4A73026  35.323   2.756   7.350
10186POPC   C1B73027  35.310   2.989   6.450
10186POPC   C2B73028  35.312   3.000   6.750
10186POPC   C3B73029  35.299   2.994   7.050
10186POPC   C4B73030  35.345   2.996   7.350
10187POPC   NC373031  34.596  13.585   5.550
10187POPC   PO473032  34.621  13.644   5.850
10187POPC   GL173033  34.596  13.602   6.150
10187POPC   GL273034  34.481  13.661   6.150
10187POPC   C1A73035  34.617  13.579   6.450
10187POPC   D2A73036  34.532  13.638   6.750
10187POPC   C3A73037  34.540  13.622   7.050
10187POPC   C4A73038  34.586  13.620   7.350
10187POPC   C1B73039  34.315  13.641   6.450
10187POPC   C2B73040  34.352  13.628   6.750
10187POPC   C3B73041  34.278  13.632   7.050
10187POPC   C4B73042  34.314  13.582   7.350
10188POPC   NC373043  20.598  33.027   5.550
10188POPC   PO473044  20.602  33.004   5.850
10188POPC   GL173045  20.657  33.022   6.150
10188POPC   GL273046  20.531  33.151   6.150
10188POPC   C1A73047  20.639  33.051   6.450
10188POPC   D2A73048  20.582  32.981   6.750
10188POPC   C3A73049  20.611  32.997   7.050
10188POPC   C4A73050  20.628  33.040   7.350
10188POPC   C1B73051  20.534  33.265   6.450
10188POPC   C2B73052  20.527  33.220   6.750
10188POPC   C3B73053  20.445  33.289   7.050
10188POPC   C4B73054  20.485  33.268   7.350
10189POPC   NC373055  23.706  26.047   5.550
10189POPC   PO473056  23.744  26.063   5.850
10189POPC   GL173057  23.724  26.004   6.150
10189POPC   GL273058  23.768  26.149   6.150
10189POPC   C1A73059  23.677  26.029   6.450
10189POPC   D2A73060  23.763  26.057   6.750
10189POPC   C3A73061  23.673  26.068   7.050
10189POPC   C4A73062  23.691  26.035   7.350
10189POPC   C1B73063  23.897  26.212   6.450
10189POPC   C2B73064  23.926  26.200   6.750
10189POPC   C3B73065  23.875  26.154   7.050
10189POPC   C4B73066  23.900  26.206   7.350
10190POPC   NC373067  10.509  33.850   5.550
10190POPC   PO473068  10.508  33.786   5.850
10190POPC   GL173069  10.537  33.827   6.150
10190POPC   GL273070  10.633  33.717   6.150
10190POPC   C1A73071  10.512  33.769   6.450
10190POPC   D2A73072  10.535  33.752   6.750
10190POPC   C3A73073  10.558  33.762   7.050
10190POPC   C4A73074  10.496  33.766   7.350
10190POPC   C1B73075  10.723  33.610   6.450
10190POPC   C2B73076  10.698  33.638   6.750
10190POPC   C3B73077  10.643  33.611   7.050
10190POPC   C4B73078  10.647  33.623   7.350
10191POPC   NC373079  26.081  25.251   5.550
10191POPC   PO473080  26.087  25.308   5.850
10191POPC   GL173081  26.065  25.308   6.150
10191POPC   GL273082  26.000  25.154   6.150
10191POPC   C1A73083  26.022  25.294   6.450
10191POPC   D2A73084  26.040  25.285   6.750
10191POPC   C3A73085  26.080  25.289   7.050
10191POPC   C4A73086  26.057  25.219   7.350
10191POPC   C1B73087  25.889  25.106   6.450
10191POPC   C2B73088  25.894  25.071   6.750
10191POPC   C3B73089  25.824  25.063   7.050
10191POPC   C4B73090  25.826  25.076   7.350
10192POPC   NC373091  43.070  29.125   5.550
10192POPC   PO473092  43.062  29.156   5.850
10192POPC   GL173093  43.079  29.140   6.150
10192POPC   GL273094  43.162  29.273   6.150
10192POPC   C1A73095  43.147  29.172   6.450
10192POPC   D2A73096  43.079  29.126   6.750
10192POPC   C3A73097  43.069  29.153   7.050
10192POPC   C4A73098  43.122  29.135   7.350
10192POPC   C1B73099  43.203  29.355   6.450
10192POPC   C2B73100  43.243  29.377   6.750
10192POPC   C3B73101  43.234  29.415   7.050
10192POPC   C4B73102  43.200  29.349   7.350
10193POPC   NC373103  34.540  32.238   5.550
10193POPC   PO473104  34.584  32.274   5.850
10193POPC   GL173105  34.616  32.295   6.150
10193POPC   GL273106  34.642  32.175   6.150
10193POPC   C1A73107  34.590  32.207   6.450
10193POPC   D2A73108  34.573  32.225   6.750
10193POPC   C3A73109  34.611  32.201   7.050
10193POPC   C4A73110  34.599  32.227   7.350
10193POPC   C1B73111  34.732  32.048   6.450
10193POPC   C2B73112  34.717  32.074   6.750
10193POPC   C3B73113  34.714  32.030   7.050
10193POPC   C4B73114  34.720  32.019   7.350
10194POPC   NC373115  16.708  15.936   5.550
10194POPC   PO473116  16.695  15.974   5.850
10194POPC   GL173117  16.715  15.952   6.150
10194POPC   GL273118  16.833  15.931   6.150
10194POPC   C1A73119  16.777  15.984   6.450
10194POPC   D2A73120  16.759  15.947   6.750
10194POPC   C3A73121  16.684  15.991   7.050
10194POPC   C4A73122  16.756  15.938   7.350
10194POPC   C1B73123  16.947  15.990   6.450
10194POPC   C2B73124  16.938  15.957   6.750
10194POPC   C3B73125  16.999  15.913   7.050
10194POPC   C4B73126  16.932  15.913   7.350
10195POPC   NC373127  38.475  28.323   5.550
10195POPC   PO473128  38.490  28.327   5.850
10195POPC   GL173129  38.446  28.392   6.150
10195POPC   GL273130  38.307  28.263   6.150
10195POPC   C1A73131  38.459  28.373   6.450
10195POPC   D2A73132  38.431  28.364   6.750
10195POPC   C3A73133  38.418  28.391   7.050
10195POPC   C4A73134  38.438  28.355   7.350
10195POPC   C1B73135  38.195  28.252   6.450
10195POPC   C2B73136  38.220  28.271   6.750
10195POPC   C3B73137  38.273  28.202   7.050
10195POPC   C4B73138  38.285  28.197   7.350
10196POPC   NC373139  19.035  31.452   5.550
10196POPC   PO473140  19.021  31.473   5.850
10196POPC   GL173141  19.050  31.467   6.150
10196POPC   GL273142  19.005  31.374   6.150
10196POPC   C1A73143  19.031  31.446   6.450
10196POPC   D2A73144  19.009  31.428   6.750
10196POPC   C3A73145  19.010  31.517   7.050
10196POPC   C4A73146  19.078  31.429   7.350
10196POPC   C1B73147  18.863  31.287   6.450
10196POPC   C2B73148  18.851  31.330   6.750
10196POPC   C3B73149  18.845  31.326   7.050
10196POPC   C4B73150  18.865  31.294   7.350
10197POPC   NC373151  12.857  26.774   5.550
10197POPC   PO473152  12.834  26.812   5.850
10197POPC   GL173153  12.822  26.849   6.150
10197POPC   GL273154  12.771  26.888   6.150
10197POPC   C1A73155  12.868  26.863   6.450
10197POPC   D2A73156  12.863  26.826   6.750
10197POPC   C3A73157  12.819  26.829   7.050
10197POPC   C4A73158  12.893  26.861   7.350
10197POPC   C1B73159  12.676  26.899   6.450
10197POPC   C2B73160  12.617  26.944   6.750
10197POPC   C3B73161  12.634  26.941   7.050
10197POPC   C4B73162  12.607  26.930   7.350
10198POPC   NC373163   9.727  40.828   5.550
10198POPC   PO473164   9.772  40.812   5.850
10198POPC   GL173165   9.775  40.753   6.150
10198POPC   GL273166   9.670  40.798   6.150
10198POPC   C1A73167   9.764  40.739   6.450
10198POPC   D2A73168   9.732  40.778   6.750
10198POPC   C3A73169   9.779  40.767   7.050
10198POPC   C4A73170   9.701  40.750   7.350
10198POPC   C1B73171   9.497  40.810   6.450
10198POPC   C2B73172   9.515  40.766   6.750
10198POPC   C3B73173   9.462  40.822   7.050
10198POPC   C4B73174   9.473  40.783   7.350
10199POPC   NC373175  44.707   0.443   5.550
10199POPC   PO473176  44.699   0.407   5.850
10199POPC   GL173177  44.647   0.472   6.150
10199POPC   GL273178  44.559   0.503   6.150
10199POPC   C1A73179  44.699   0.399   6.450
10199POPC   D2A73180  44.634   0.432   6.750
10199POPC   C3A73181  44.618   0.485   7.050
10199POPC   C4A73182  44.690   0.412   7.350
10199POPC   C1B73183  44.552   0.651   6.450
10199POPC   C2B73184  44.498   0.678   6.750
10199POPC   C3B73185  44.556   0.688   7.050
10199POPC   C4B73186  44.528   0.659   7.350
10200POPC   NC373187   4.356  13.675   5.550
10200POPC   PO473188   4.288  13.674   5.850
10200POPC   GL173189   4.332  13.587   6.150
10200POPC   GL273190   4.372  13.541   6.150
10200POPC   C1A73191   4.291  13.658   6.450
10200POPC   D2A73192   4.285  13.578   6.750
10200POPC   C3A73193   4.304  13.640   7.050
10200POPC   C4A73194   4.323  13.626   7.350
10200POPC   C1B73195   4.514  13.412   6.450
10200POPC   C2B73196   4.494  13.417   6.750
10200POPC   C3B73197   4.472  13.397   7.050
10200POPC   C4B73198   4.521  13.410   7.350
10201POPC   NC373199  22.149  19.044   5.550
10201POPC   PO473200  22.138  19.056   5.850
10201POPC   GL173201  22.157  19.023   6.150
10201POPC   GL273202  22.147  18.894   6.150
10201POPC   C1A73203  22.212  19.032   6.450
10201POPC   D2A73204  22.190  19.108   6.750
10201POPC   C3A73205  22.197  19.031   7.050
10201POPC   C4A73206  22.125  19.099   7.350
10201POPC   C1B73207  22.079  18.822   6.450
10201POPC   C2B73208  22.096  18.766   6.750
10201POPC   C3B73209  22.087  18.801   7.050
10201POPC   C4B73210  22.069  18.827   7.350
10202POPC   NC373211   8.955  19.834   5.550
10202POPC   PO473212   8.969  19.787   5.850
10202POPC   GL173213   8.934  19.798   6.150
10202POPC   GL273214   8.892  19.980   6.150
10202POPC   C1A73215   8.929  19.799   6.450
10202POPC   D2A73216   8.935  19.797   6.750
10202POPC   C3A73217   8.952  19.835   7.050
10202POPC   C4A73218   8.977  19.833   7.350
10202POPC   C1B73219   8.862  20.076   6.450
10202POPC   C2B73220   8.866  20.004   6.750
10202POPC   C3B73221   8.869  20.003   7.050
10202POPC   C4B73222   8.790  20.012   7.350
10203POPC   NC373223  19.066   1.994   5.550
10203POPC   PO473224  19.072   1.943   5.850
10203POPC   GL173225  19.074   1.942   6.150
10203POPC   GL273226  18.930   2.037   6.150
10203POPC   C1A73227  19.074   2.023   6.450
10203POPC   D2A73228  19.055   2.025   6.750
10203POPC   C3A73229  19.049   2.036   7.050
10203POPC   C4A73230  19.073   1.986   7.350
10203POPC   C1B73231  18.839   2.160   6.450
10203POPC   C2B73232  18.869   2.198   6.750
10203POPC   C3B73233  18.876   2.152   7.050
10203POPC   C4B73234  18.913   2.150   7.350
10204POPC   NC373235  40.745  41.575   5.550
10204POPC   PO473236  40.794  41.550   5.850
10204POPC   GL173237  40.756  41.586   6.150
10204POPC   GL273238  40.865  41.700   6.150
10204POPC   C1A73239  40.764  41.546   6.450
10204POPC   D2A73240  40.737  41.513   6.750
10204POPC   C3A73241  40.813  41.531   7.050
10204POPC   C4A73242  40.774  41.532   7.350
10204POPC   C1B73243  40.881  41.810   6.450
10204POPC   C2B73244  40.822  41.824   6.750
10204POPC   C3B73245  40.866  41.782   7.050
10204POPC   C4B73246  40.828  41.846   7.350
10205POPC   NC373247   8.943   8.189   5.550
10205POPC   PO473248   8.980   8.212   5.850
10205POPC   GL173249   8.962   8.231   6.150
10205POPC   GL273250   8.908   8.229   6.150
10205POPC   C1A73251   9.011   8.222   6.450
10205POPC   D2A73252   8.972   8.223   6.750
10205POPC   C3A73253   8.953   8.155   7.050
10205POPC   C4A73254   9.001   8.229   7.350
10205POPC   C1B73255   8.774   8.289   6.450
10205POPC   C2B73256   8.805   8.304   6.750
10205POPC   C3B73257   8.775   8.293   7.050
10205POPC   C4B73258   8.771   8.333   7.350
10206POPC   NC373259  29.107   6.681   5.550
10206POPC   PO473260  29.185   6.654   5.850
10206POPC   GL173261  29.099   6.640   6.150
10206POPC   GL273262  29.251   6.612   6.150
10206POPC   C1A73263  29.157   6.605   6.450
10206POPC   D2A73264  29.154   6.676   6.750
10206POPC   C3A73265  29.166   6.627   7.050
10206POPC   C4A73266  29.144   6.646   7.350
10206POPC   C1B73267  29.362   6.680   6.450
10206POPC   C2B73268  29.379   6.656   6.750
10206POPC   C3B73269  29.353   6.696   7.050
10206POPC   C4B73270  29.406   6.708   7.350
10207POPC   NC373271  21.387  14.355   5.550
10207POPC   PO473272  21.427  14.424   5.850
10207POPC   GL173273  21.402  14.438   6.150
10207POPC   GL273274  21.247  14.442   6.150
10207POPC   C1A73275  21.394  14.448   6.450
10207POPC   D2A73276  21.386  14.359   6.750
10207POPC   C3A73277  21.423  14.373   7.050
10207POPC   C4A73278  21.373  14.358   7.350
10207POPC   C1B73279  21.224  14.549   6.450
10207POPC   C2B73280  21.218  14.600   6.750
10207POPC   C3B73281  21.153  14.602   7.050
10207POPC   C4B73282  21.242  14.534   7.350
10208POPC   NC373283  22.138  33.029   5.550
10208POPC   PO473284  22.179  33.025   5.850
10208POPC   GL173285  22.139  32.983   6.150
10208POPC   GL273286  22.318  33.060   6.150
10208POPC   C1A73287  22.168  33.005   6.450
10208POPC   D2A73288  22.201  33.027   6.750
10208POPC   C3A73289  22.206  33.044   7.050
10208POPC   C4A73290  22.183  33.008   7.350
10208POPC   C1B73291  22.421  33.060   6.450
10208POPC   C2B73292  22.366  33.059   6.750
10208POPC   C3B73293  22.370  32.983   7.050
10208POPC   C4B73294  22.382  33.009   7.350
10209POPC   NC373295  18.290  16.689   5.550
10209POPC   PO473296  18.274  16.711   5.850
10209POPC   GL173297  18.239  16.712   6.150
10209POPC   GL273298  18.286  16.597   6.150
10209POPC   C1A73299  18.302  16.772   6.450
10209POPC   D2A73300  18.313  16.723   6.750
10209POPC   C3A73301  18.247  16.707   7.050
10209POPC   C4A73302  18.330  16.773   7.350
10209POPC   C1B73303  18.375  16.447   6.450
10209POPC   C2B73304  18.319  16.475   6.750
10209POPC   C3B73305  18.399  16.500   7.050
10209POPC   C4B73306  18.375  16.466   7.350
10210POPC   NC373307  38.493  29.161   5.550
10210POPC   PO473308  38.450  29.152   5.850
10210POPC   GL173309  38.458  29.189   6.150
10210POPC   GL273310  38.383  29.200   6.150
10210POPC   C1A73311  38.475  29.195   6.450
10210POPC   D2A73312  38.488  29.194   6.750
10210POPC   C3A73313  38.467  29.132   7.050
10210POPC   C4A73314  38.410  29.137   7.350
10210POPC   C1B73315  38.265  29.321   6.450
10210POPC   C2B73316  38.228  29.313   6.750
10210POPC   C3B73317  38.241  29.295   7.050
10210POPC   C4B73318  38.222  29.314   7.350
10211POPC   NC373319   6.655  19.829   5.550
10211POPC   PO473320   6.642  19.836   5.850
10211POPC   GL173321   6.668  19.854   6.150
10211POPC   GL273322   6.503  19.769   6.150
10211POPC   C1A73323   6.689  19.803   6.450
10211POPC   D2A73324   6.661  19.872   6.750
10211POPC   C3A73325   6.694  19.850   7.050
10211POPC   C4A73326   6.643  19.846   7.350
10211POPC   C1B73327   6.408  19.735   6.450
10211POPC   C2B73328   6.411  19.765   6.750
10211POPC   C3B73329   6.440  19.766   7.050
10211POPC   C4B73330   6.435  19.707   7.350
10212POPC   NC373331  30.713  10.505   5.550
10212POPC   PO473332  30.729  10.499   5.850
10212POPC   GL173333  30.667  10.557   6.150
10212POPC   GL273334  30.576  10.664   6.150
10212POPC   C1A73335  30.659  10.536   6.450
10212POPC   D2A73336  30.741  10.494   6.750
10212POPC   C3A73337  30.726  10.528   7.050
10212POPC   C4A73338  30.735  10.542   7.350
10212POPC   C1B73339  30.515  10.669   6.450
10212POPC   C2B73340  30.528  10.721   6.750
10212POPC   C3B73341  30.561  10.671   7.050
10212POPC   C4B73342  30.549  10.703   7.350
10213POPC   NC373343  38.481  43.103   5.550
10213POPC   PO473344  38.457  43.126   5.850
10213POPC   GL173345  38.448  43.067   6.150
10213POPC   GL273346  38.299  43.139   6.150
10213POPC   C1A73347  38.454  43.084   6.450
10213POPC   D2A73348  38.411  43.076   6.750
10213POPC   C3A73349  38.475  43.065   7.050
10213POPC   C4A73350  38.469  43.104   7.350
10213POPC   C1B73351  38.230  43.055   6.450
10213POPC   C2B73352  38.170  43.125   6.750
10213POPC   C3B73353  38.211  43.055   7.050
10213POPC   C4B73354  38.200  43.097   7.350
10214POPC   NC373355  13.677  14.453   5.550
10214POPC   PO473356  13.656  14.373   5.850
10214POPC   GL173357  13.655  14.441   6.150
10214POPC   GL273358  13.485  14.368   6.150
10214POPC   C1A73359  13.666  14.373   6.450
10214POPC   D2A73360  13.634  14.395   6.750
10214POPC   C3A73361  13.634  14.394   7.050
10214POPC   C4A73362  13.646  14.388   7.350
10214POPC   C1B73363  13.386  14.381   6.450
10214POPC   C2B73364  13.414  14.405   6.750
10214POPC   C3B73365  13.354  14.399   7.050
10214POPC   C4B73366  13.419  14.399   7.350
10215POPC   NC373367   3.552  36.134   5.550
10215POPC   PO473368   3.500  36.125   5.850
10215POPC   GL173369   3.568  36.161   6.150
10215POPC   GL273370   3.549  35.963   6.150
10215POPC   C1A73371   3.562  36.121   6.450
10215POPC   D2A73372   3.528  36.098   6.750
10215POPC   C3A73373   3.494  36.091   7.050
10215POPC   C4A73374   3.585  36.172   7.350
10215POPC   C1B73375   3.514  35.918   6.450
10215POPC   C2B73376   3.550  35.926   6.750
10215POPC   C3B73377   3.537  35.886   7.050
10215POPC   C4B73378   3.535  35.915   7.350
10216POPC   NC373379  34.620   1.975   5.550
10216POPC   PO473380  34.597   1.993   5.850
10216POPC   GL173381  34.586   1.942   6.150
10216POPC   GL273382  34.650   2.088   6.150
10216POPC   C1A73383  34.536   1.980   6.450
10216POPC   D2A73384  34.559   2.021   6.750
10216POPC   C3A73385  34.610   2.039   7.050
10216POPC   C4A73386  34.571   2.012   7.350
10216POPC   C1B73387  34.807   2.058   6.450
10216POPC   C2B73388  34.757   2.123   6.750
10216POPC   C3B73389  34.756   2.043   7.050
10216POPC   C4B73390  34.761   2.133   7.350
10217POPC   NC373391  22.168  15.197   5.550
10217POPC   PO473392  22.153  15.218   5.850
10217POPC   GL173393  22.200  15.178   6.150
10217POPC   GL273394  22.145  15.299   6.150
10217POPC   C1A73395  22.128  15.217   6.450
10217POPC   D2A73396  22.175  15.166   6.750
10217POPC   C3A73397  22.147  15.228   7.050
10217POPC   C4A73398  22.196  15.200   7.350
10217POPC   C1B73399  22.120  15.433   6.450
10217POPC   C2B73400  22.145  15.471   6.750
10217POPC   C3B73401  22.172  15.391   7.050
10217POPC   C4B73402  22.112  15.393   7.350
10218POPC   NC373403  29.957  23.707   5.550
10218POPC   PO473404  29.957  23.757   5.850
10218POPC   GL173405  29.903  23.755   6.150
10218POPC   GL273406  30.021  23.652   6.150
10218POPC   C1A73407  29.887  23.763   6.450
10218POPC   D2A73408  29.897  23.703   6.750
10218POPC   C3A73409  29.878  23.746   7.050
10218POPC   C4A73410  29.950  23.689   7.350
10218POPC   C1B73411  30.163  23.634   6.450
10218POPC   C2B73412  30.161  23.630   6.750
10218POPC   C3B73413  30.129  23.571   7.050
10218POPC   C4B73414  30.132  23.615   7.350
10219POPC   NC373415   4.335  40.768   5.550
10219POPC   PO473416   4.292  40.820   5.850
10219POPC   GL173417   4.293  40.787   6.150
10219POPC   GL273418   4.176  40.677   6.150
10219POPC   C1A73419   4.316  40.812   6.450
10219POPC   D2A73420   4.283  40.741   6.750
10219POPC   C3A73421   4.335  40.767   7.050
10219POPC   C4A73422   4.300  40.750   7.350
10219POPC   C1B73423   4.068  40.652   6.450
10219POPC   C2B73424   4.063  40.642   6.750
10219POPC   C3B73425   4.056  40.645   7.050
10219POPC   C4B73426   4.082  40.611   7.350
10220POPC   NC373427  18.306  31.491   5.550
10220POPC   PO473428  18.285  31.438   5.850
10220POPC   GL173429  18.332  31.517   6.150
10220POPC   GL273430  18.147  31.450   6.150
10220POPC   C1A73431  18.249  31.448   6.450
10220POPC   D2A73432  18.266  31.489   6.750
10220POPC   C3A73433  18.280  31.488   7.050
10220POPC   C4A73434  18.284  31.521   7.350
10220POPC   C1B73435  18.008  31.401   6.450
10220POPC   C2B73436  18.053  31.378   6.750
10220POPC   C3B73437  18.095  31.392   7.050
10220POPC   C4B73438  18.017  31.347   7.350
10221POPC   NC373439  12.083  14.379   5.550
10221POPC   PO473440  12.111  14.367   5.850
10221POPC   GL173441  12.083  14.407   6.150
10221POPC   GL273442  12.078  14.476   6.150
10221POPC   C1A73443  12.063  14.408   6.450
10221POPC   D2A73444  12.055  14.446   6.750
10221POPC   C3A73445  12.044  14.440   7.050
10221POPC   C4A73446  12.065  14.407   7.350
10221POPC   C1B73447  12.003  14.674   6.450
10221POPC   C2B73448  12.014  14.638   6.750
10221POPC   C3B73449  12.071  14.680   7.050
10221POPC   C4B73450  12.034  14.688   7.350
10222POPC   NC373451  26.836  22.117   5.550
10222POPC   PO473452  26.802  22.142   5.850
10222POPC   GL173453  26.776  22.149   6.150
10222POPC   GL273454  26.866  22.046   6.150
10222POPC   C1A73455  26.858  22.159   6.450
10222POPC   D2A73456  26.837  22.152   6.750
10222POPC   C3A73457  26.821  22.131   7.050
10222POPC   C4A73458  26.818  22.118   7.350
10222POPC   C1B73459  26.862  21.929   6.450
10222POPC   C2B73460  26.840  21.919   6.750
10222POPC   C3B73461  26.853  21.951   7.050
10222POPC   C4B73462  26.906  21.935   7.350
10223POPC   NC373463  12.107  15.986   5.550
10223POPC   PO473464  12.090  15.984   5.850
10223POPC   GL173465  12.044  15.953   6.150
10223POPC   GL273466  12.132  16.028   6.150
10223POPC   C1A73467  12.057  15.913   6.450
10223POPC   D2A73468  12.052  15.955   6.750
10223POPC   C3A73469  12.081  15.952   7.050
10223POPC   C4A73470  12.065  15.984   7.350
10223POPC   C1B73471  12.322  16.107   6.450
10223POPC   C2B73472  12.310  16.090   6.750
10223POPC   C3B73473  12.298  16.050   7.050
10223POPC   C4B73474  12.253  16.121   7.350
10224POPC   NC373475  43.147  41.576   5.550
10224POPC   PO473476  43.130  41.564   5.850
10224POPC   GL173477  43.073  41.562   6.150
10224POPC   GL273478  43.070  41.441   6.150
10224POPC   C1A73479  43.147  41.568   6.450
10224POPC   D2A73480  43.084  41.593   6.750
10224POPC   C3A73481  43.121  41.526   7.050
10224POPC   C4A73482  43.067  41.552   7.350
10224POPC   C1B73483  42.980  41.364   6.450
10224POPC   C2B73484  43.066  41.278   6.750
10224POPC   C3B73485  43.073  41.284   7.050
10224POPC   C4B73486  43.019  41.292   7.350
10225POPC   NC373487  43.849  13.590   5.550
10225POPC   PO473488  43.846  13.659   5.850
10225POPC   GL173489  43.849  13.621   6.150
10225POPC   GL273490  43.826  13.552   6.150
10225POPC   C1A73491  43.857  13.620   6.450
10225POPC   D2A73492  43.850  13.674   6.750
10225POPC   C3A73493  43.855  13.650   7.050
10225POPC   C4A73494  43.890  13.605   7.350
10225POPC   C1B73495  43.784  13.393   6.450
10225POPC   C2B73496  43.813  13.377   6.750
10225POPC   C3B73497  43.771  13.405   7.050
10225POPC   C4B73498  43.769  13.372   7.350
10226POPC   NC373499   6.626  41.568   5.550
10226POPC   PO473500   6.642  41.542   5.850
10226POPC   GL173501   6.601  41.581   6.150
10226POPC   GL273502   6.529  41.493   6.150
10226POPC   C1A73503   6.644  41.563   6.450
10226POPC   D2A73504   6.671  41.516   6.750
10226POPC   C3A73505   6.608  41.511   7.050
10226POPC   C4A73506   6.596  41.575   7.350
10226POPC   C1B73507   6.351  41.555   6.450
10226POPC   C2B73508   6.373  41.478   6.750
10226POPC   C3B73509   6.386  41.541   7.050
10226POPC   C4B73510   6.367  41.514   7.350
10227POPC   NC373511   8.974   4.277   5.550
10227POPC   PO473512   8.959   4.286   5.850
10227POPC   GL173513   8.953   4.322   6.150
10227POPC   GL273514   9.023   4.472   6.150
10227POPC   C1A73515   8.943   4.273   6.450
10227POPC   D2A73516   8.940   4.329   6.750
10227POPC   C3A73517   9.013   4.279   7.050
10227POPC   C4A73518   8.935   4.338   7.350
10227POPC   C1B73519   9.009   4.538   6.450
10227POPC   C2B73520   9.023   4.583   6.750
10227POPC   C3B73521   9.024   4.522   7.050
10227POPC   C4B73522   9.052   4.569   7.350
10228POPC   NC373523  22.918  41.561   5.550
10228POPC   PO473524  22.929  41.571   5.850
10228POPC   GL173525  22.939  41.535   6.150
10228POPC   GL273526  22.842  41.547   6.150
10228POPC   C1A73527  22.966  41.541   6.450
10228POPC   D2A73528  22.889  41.520   6.750
10228POPC   C3A73529  22.969  41.523   7.050
10228POPC   C4A73530  22.924  41.535   7.350
10228POPC   C1B73531  22.699  41.501   6.450
10228POPC   C2B73532  22.724  41.457   6.750
10228POPC   C3B73533  22.749  41.476   7.050
10228POPC   C4B73534  22.698  41.461   7.350
10229POPC   NC373535   8.203  43.118   5.550
10229POPC   PO473536   8.159  43.104   5.850
10229POPC   GL173537   8.160  43.141   6.150
10229POPC   GL273538   8.325  43.147   6.150
10229POPC   C1A73539   8.184  43.111   6.450
10229POPC   D2A73540   8.186  43.118   6.750
10229POPC   C3A73541   8.210  43.150   7.050
10229POPC   C4A73542   8.201  43.101   7.350
10229POPC   C1B73543   8.434  43.077   6.450
10229POPC   C2B73544   8.435  43.081   6.750
10229POPC   C3B73545   8.487  43.086   7.050
10229POPC   C4B73546   8.482  43.094   7.350
10230POPC   NC373547  23.669  19.866   5.550
10230POPC   PO473548  23.698  19.839   5.850
10230POPC   GL173549  23.715  19.831   6.150
10230POPC   GL273550  23.610  19.863   6.150
10230POPC   C1A73551  23.720  19.795   6.450
10230POPC   D2A73552  23.665  19.789   6.750
10230POPC   C3A73553  23.672  19.850   7.050
10230POPC   C4A73554  23.751  19.884   7.350
10230POPC   C1B73555  23.458  19.783   6.450
10230POPC   C2B73556  23.486  19.827   6.750
10230POPC   C3B73557  23.428  19.836   7.050
10230POPC   C4B73558  23.456  19.779   7.350
10231POPC   NC373559  39.272  21.392   5.550
10231POPC   PO473560  39.201  21.362   5.850
10231POPC   GL173561  39.202  21.357   6.150
10231POPC   GL273562  39.121  21.305   6.150
10231POPC   C1A73563  39.223  21.363   6.450
10231POPC   D2A73564  39.230  21.412   6.750
10231POPC   C3A73565  39.209  21.406   7.050
10231POPC   C4A73566  39.193  21.398   7.350
10231POPC   C1B73567  38.988  21.282   6.450
10231POPC   C2B73568  39.056  21.267   6.750
10231POPC   C3B73569  39.056  21.278   7.050
10231POPC   C4B73570  39.034  21.284   7.350
10232POPC   NC373571  34.595   9.797   5.550
10232POPC   PO473572  34.571   9.755   5.850
10232POPC   GL173573  34.622   9.721   6.150
10232POPC   GL273574  34.662   9.672   6.150
10232POPC   C1A73575  34.598   9.773   6.450
10232POPC   D2A73576  34.547   9.734   6.750
10232POPC   C3A73577  34.559   9.732   7.050
10232POPC   C4A73578  34.605   9.700   7.350
10232POPC   C1B73579  34.740   9.603   6.450
10232POPC   C2B73580  34.737   9.618   6.750
10232POPC   C3B73581  34.804   9.580   7.050
10232POPC   C4B73582  34.757   9.569   7.350
10233POPC   NC373583  34.604  11.272   5.550
10233POPC   PO473584  34.558  11.269   5.850
10233POPC   GL173585  34.566  11.260   6.150
10233POPC   GL273586  34.587  11.411   6.150
10233POPC   C1A73587  34.558  11.275   6.450
10233POPC   D2A73588  34.537  11.284   6.750
10233POPC   C3A73589  34.607  11.266   7.050
10233POPC   C4A73590  34.575  11.279   7.350
10233POPC   C1B73591  34.633  11.481   6.450
10233POPC   C2B73592  34.683  11.546   6.750
10233POPC   C3B73593  34.654  11.509   7.050
10233POPC   C4B73594  34.643  11.502   7.350
10234POPC   NC373595  42.315   9.752   5.550
10234POPC   PO473596  42.368   9.749   5.850
10234POPC   GL173597  42.333   9.724   6.150
10234POPC   GL273598  42.218   9.771   6.150
10234POPC   C1A73599  42.362   9.750   6.450
10234POPC   D2A73600  42.363   9.730   6.750
10234POPC   C3A73601  42.295   9.739   7.050
10234POPC   C4A73602  42.377   9.747   7.350
10234POPC   C1B73603  42.101   9.735   6.450
10234POPC   C2B73604  42.054   9.760   6.750
10234POPC   C3B73605  42.101   9.726   7.050
10234POPC   C4B73606  42.131   9.715   7.350
10235POPC   NC373607   2.760  42.344   5.550
10235POPC   PO473608   2.737  42.305   5.850
10235POPC   GL173609   2.778  42.363   6.150
10235POPC   GL273610   2.680  42.401   6.150
10235POPC   C1A73611   2.806  42.345   6.450
10235POPC   D2A73612   2.797  42.303   6.750
10235POPC   C3A73613   2.806  42.286   7.050
10235POPC   C4A73614   2.741  42.365   7.350
10235POPC   C1B73615   2.559  42.507   6.450
10235POPC   C2B73616   2.631  42.505   6.750
10235POPC   C3B73617   2.573  42.517   7.050
10235POPC   C4B73618   2.607  42.551   7.350
10236POPC   NC373619  14.383  36.861   5.550
10236POPC   PO473620  14.413  36.901   5.850
10236POPC   GL173621  14.372  36.943   6.150
10236POPC   GL273622  14.263  36.970   6.150
10236POPC   C1A73623  14.381  36.910   6.450
10236POPC   D2A73624  14.400  36.928   6.750
10236POPC   C3A73625  14.436  36.863   7.050
10236POPC   C4A73626  14.409  36.875   7.350
10236POPC   C1B73627  14.176  36.926   6.450
10236POPC   C2B73628  14.145  36.985   6.750
10236POPC   C3B73629  14.172  36.977   7.050
10236POPC   C4B73630  14.152  36.922   7.350
10237POPC   NC373631  30.703  32.209   5.550
10237POPC   PO473632  30.678  32.267   5.850
10237POPC   GL173633  30.713  32.280   6.150
10237POPC   GL273634  30.672  32.336   6.150
10237POPC   C1A73635  30.730  32.235   6.450
10237POPC   D2A73636  30.744  32.200   6.750
10237POPC   C3A73637  30.687  32.271   7.050
10237POPC   C4A73638  30.655  32.202   7.350
10237POPC   C1B73639  30.601  32.461   6.450
10237POPC   C2B73640  30.607  32.447   6.750
10237POPC   C3B73641  30.539  32.430   7.050
10237POPC   C4B73642  30.612  32.425   7.350
10238POPC   NC373643   2.742  32.272   5.550
10238POPC   PO473644   2.789  32.206   5.850
10238POPC   GL173645   2.799  32.258   6.150
10238POPC   GL273646   2.806  32.148   6.150
10238POPC   C1A73647   2.760  32.213   6.450
10238POPC   D2A73648   2.758  32.202   6.750
10238POPC   C3A73649   2.791  32.280   7.050
10238POPC   C4A73650   2.763  32.201   7.350
10238POPC   C1B73651   2.835  32.017   6.450
10238POPC   C2B73652   2.850  32.002   6.750
10238POPC   C3B73653   2.830  31.961   7.050
10238POPC   C4B73654   2.859  31.958   7.350
10239POPC   NC373655  17.528  18.296   5.550
10239POPC   PO473656  17.513  18.283   5.850
10239POPC   GL173657  17.508  18.250   6.150
10239POPC   GL273658  17.385  18.240   6.150
10239POPC   C1A73659  17.512  18.256   6.450
10239POPC   D2A73660  17.465  18.303   6.750
10239POPC   C3A73661  17.465  18.291   7.050
10239POPC   C4A73662  17.469  18.329   7.350
10239POPC   C1B73663  17.264  18.115   6.450
10239POPC   C2B73664  17.311  18.185   6.750
10239POPC   C3B73665  17.296  18.206   7.050
10239POPC   C4B73666  17.247  18.170   7.350
10240POPC   NC373667  38.421  14.439   5.550
10240POPC   PO473668  38.493  14.409   5.850
10240POPC   GL173669  38.501  14.357   6.150
10240POPC   GL273670  38.534  14.499   6.150
10240POPC   C1A73671  38.409  14.394   6.450
10240POPC   D2A73672  38.499  14.422   6.750
10240POPC   C3A73673  38.452  14.420   7.050
10240POPC   C4A73674  38.457  14.375   7.350
10240POPC   C1B73675  38.643  14.550   6.450
10240POPC   C2B73676  38.655  14.555   6.750
10240POPC   C3B73677  38.683  14.579   7.050
10240POPC   C4B73678  38.689  14.520   7.350
10241POPC   NC373679  11.289  11.324   5.550
10241POPC   PO473680  11.299  11.257   5.850
10241POPC   GL173681  11.305  11.270   6.150
10241POPC   GL273682  11.201  11.291   6.150
10241POPC   C1A73683  11.260  11.308   6.450
10241POPC   D2A73684  11.331  11.278   6.750
10241POPC   C3A73685  11.326  11.253   7.050
10241POPC   C4A73686  11.332  11.343   7.350
10241POPC   C1B73687  11.040  11.190   6.450
10241POPC   C2B73688  11.030  11.176   6.750
10241POPC   C3B73689  11.051  11.204   7.050
10241POPC   C4B73690  11.081  11.199   7.350
10242POPC   NC373691   2.788  19.841   5.550
10242POPC   PO473692   2.740  19.881   5.850
10242POPC   GL173693   2.769  19.864   6.150
10242POPC   GL273694   2.855  19.704   6.150
10242POPC   C1A73695   2.793  19.788   6.450
10242POPC   D2A73696   2.730  19.835   6.750
10242POPC   C3A73697   2.755  19.812   7.050
10242POPC   C4A73698   2.729  19.844   7.350
10242POPC   C1B73699   2.984  19.690   6.450
10242POPC   C2B73700   2.938  19.630   6.750
10242POPC   C3B73701   2.904  19.671   7.050
10242POPC   C4B73702   2.975  19.613   7.350
10243POPC   NC373703  26.786   1.206   5.550
10243POPC   PO473704  26.834   1.254   5.850
10243POPC   GL173705  26.857   1.237   6.150
10243POPC   GL273706  26.725   1.283   6.150
10243POPC   C1A73707  26.794   1.187   6.450
10243POPC   D2A73708  26.768   1.178   6.750
10243POPC   C3A73709  26.794   1.212   7.050
10243POPC   C4A73710  26.848   1.223   7.350
10243POPC   C1B73711  26.703   1.445   6.450
10243POPC   C2B73712  26.678   1.365   6.750
10243POPC   C3B73713  26.636   1.454   7.050
10243POPC   C4B73714  26.690   1.426   7.350
10244POPC   NC373715  12.070  19.036   5.550
10244POPC   PO473716  12.116  19.069   5.850
10244POPC   GL173717  12.084  19.029   6.150
10244POPC   GL273718  12.224  19.076   6.150
10244POPC   C1A73719  12.080  19.054   6.450
10244POPC   D2A73720  12.051  19.051   6.750
10244POPC   C3A73721  12.096  19.036   7.050
10244POPC   C4A73722  12.032  19.044   7.350
10244POPC   C1B73723  12.317  19.219   6.450
10244POPC   C2B73724  12.317  19.158   6.750
10244POPC   C3B73725  12.308  19.149   7.050
10244POPC   C4B73726  12.343  19.129   7.350
10245POPC   NC373727  20.632  42.367   5.550
10245POPC   PO473728  20.645  42.327   5.850
10245POPC   GL173729  20.626  42.325   6.150
10245POPC   GL273730  20.754  42.254   6.150
10245POPC   C1A73731  20.566  42.359   6.450
10245POPC   D2A73732  20.643  42.307   6.750
10245POPC   C3A73733  20.643  42.343   7.050
10245POPC   C4A73734  20.632  42.285   7.350
10245POPC   C1B73735  20.812  42.247   6.450
10245POPC   C2B73736  20.813  42.263   6.750
10245POPC   C3B73737  20.822  42.288   7.050
10245POPC   C4B73738  20.825  42.212   7.350
10246POPC   NC373739  21.432   4.320   5.550
10246POPC   PO473740  21.376   4.269   5.850
10246POPC   GL173741  21.395   4.342   6.150
10246POPC   GL273742  21.477   4.264   6.150
10246POPC   C1A73743  21.399   4.353   6.450
10246POPC   D2A73744  21.349   4.277   6.750
10246POPC   C3A73745  21.375   4.288   7.050
10246POPC   C4A73746  21.372   4.291   7.350
10246POPC   C1B73747  21.669   4.295   6.450
10246POPC   C2B73748  21.603   4.249   6.750
10246POPC   C3B73749  21.677   4.275   7.050
10246POPC   C4B73750  21.586   4.301   7.350
10247POPC   NC373751   8.148  34.584   5.550
10247POPC   PO473752   8.221  34.530   5.850
10247POPC   GL173753   8.234  34.615   6.150
10247POPC   GL273754   8.092  34.480   6.150
10247POPC   C1A73755   8.224  34.580   6.450
10247POPC   D2A73756   8.179  34.623   6.750
10247POPC   C3A73757   8.222  34.553   7.050
10247POPC   C4A73758   8.160  34.548   7.350
10247POPC   C1B73759   8.008  34.355   6.450
10247POPC   C2B73760   8.063  34.418   6.750
10247POPC   C3B73761   8.072  34.353   7.050
10247POPC   C4B73762   8.077  34.425   7.350
10248POPC   NC373763  39.983   0.484   5.550
10248POPC   PO473764  40.052   0.401   5.850
10248POPC   GL173765  40.012   0.474   6.150
10248POPC   GL273766  40.142   0.391   6.150
10248POPC   C1A73767  40.052   0.487   6.450
10248POPC   D2A73768  39.984   0.405   6.750
10248POPC   C3A73769  39.962   0.433   7.050
10248POPC   C4A73770  40.050   0.445   7.350
10248POPC   C1B73771  40.227   0.327   6.450
10248POPC   C2B73772  40.275   0.327   6.750
10248POPC   C3B73773  40.192   0.295   7.050
10248POPC   C4B73774  40.242   0.286   7.350
10249POPC   NC373775   3.554  30.708   5.550
10249POPC   PO473776   3.522  30.671   5.850
10249POPC   GL173777   3.503  30.664   6.150
10249POPC   GL273778   3.619  30.744   6.150
10249POPC   C1A73779   3.513  30.730   6.450
10249POPC   D2A73780   3.584  30.660   6.750
10249POPC   C3A73781   3.517  30.706   7.050
10249POPC   C4A73782   3.514  30.664   7.350
10249POPC   C1B73783   3.764  30.779   6.450
10249POPC   C2B73784   3.792  30.762   6.750
10249POPC   C3B73785   3.815  30.815   7.050
10249POPC   C4B73786   3.814  30.784   7.350
10250POPC   NC373787  24.448  26.814   5.550
10250POPC   PO473788  24.510  26.860   5.850
10250POPC   GL173789  24.472  26.799   6.150
10250POPC   GL273790  24.532  26.689   6.150
10250POPC   C1A73791  24.445  26.808   6.450
10250POPC   D2A73792  24.472  26.823   6.750
10250POPC   C3A73793  24.490  26.801   7.050
10250POPC   C4A73794  24.444  26.800   7.350
10250POPC   C1B73795  24.705  26.638   6.450
10250POPC   C2B73796  24.645  26.630   6.750
10250POPC   C3B73797  24.629  26.646   7.050
10250POPC   C4B73798  24.668  26.654   7.350
10251POPC   NC373799  44.628  29.893   5.550
10251POPC   PO473800  44.683  29.878   5.850
10251POPC   GL173801  44.662  29.939   6.150
10251POPC   GL273802  44.776  29.880   6.150
10251POPC   C1A73803  44.622  29.894   6.450
10251POPC   D2A73804  44.624  29.963   6.750
10251POPC   C3A73805  44.678  29.903   7.050
10251POPC   C4A73806  44.671  29.954   7.350
10251POPC   C1B73807  44.923  29.918   6.450
10251POPC   C2B73808  44.936  29.928   6.750
10251POPC   C3B73809  44.918  29.938   7.050
10251POPC   C4B73810  44.907  29.850   7.350
10252POPC   NC373811  43.862   5.083   5.550
10252POPC   PO473812  43.921   5.047   5.850
10252POPC   GL173813  43.926   5.074   6.150
10252POPC   GL273814  43.812   5.130   6.150
10252POPC   C1A73815  43.905   5.104   6.450
10252POPC   D2A73816  43.860   5.069   6.750
10252POPC   C3A73817  43.888   5.140   7.050
10252POPC   C4A73818  43.887   5.083   7.350
10252POPC   C1B73819  43.670   5.215   6.450
10252POPC   C2B73820  43.681   5.130   6.750
10252POPC   C3B73821  43.668   5.207   7.050
10252POPC   C4B73822  43.665   5.167   7.350
10253POPC   NC373823  15.154  12.069   5.550
10253POPC   PO473824  15.195  12.124   5.850
10253POPC   GL173825  15.167  12.043   6.150
10253POPC   GL273826  15.096  12.173   6.150
10253POPC   C1A73827  15.217  12.029   6.450
10253POPC   D2A73828  15.168  12.029   6.750
10253POPC   C3A73829  15.180  12.053   7.050
10253POPC   C4A73830  15.144  12.056   7.350
10253POPC   C1B73831  15.018  12.263   6.450
10253POPC   C2B73832  15.049  12.233   6.750
10253POPC   C3B73833  15.009  12.287   7.050
10253POPC   C4B73834  14.954  12.232   7.350
10254POPC   NC373835  38.504   9.798   5.550
10254POPC   PO473836  38.447   9.794   5.850
10254POPC   GL173837  38.479   9.699   6.150
10254POPC   GL273838  38.575   9.713   6.150
10254POPC   C1A73839  38.446   9.716   6.450
10254POPC   D2A73840  38.481   9.706   6.750
10254POPC   C3A73841  38.455   9.752   7.050
10254POPC   C4A73842  38.450   9.748   7.350
10254POPC   C1B73843  38.703   9.667   6.450
10254POPC   C2B73844  38.744   9.660   6.750
10254POPC   C3B73845  38.734   9.666   7.050
10254POPC   C4B73846  38.698   9.693   7.350
10255POPC   NC373847  21.371  35.339   5.550
10255POPC   PO473848  21.358  35.316   5.850
10255POPC   GL173849  21.376  35.385   6.150
10255POPC   GL273850  21.480  35.366   6.150
10255POPC   C1A73851  21.394  35.378   6.450
10255POPC   D2A73852  21.381  35.337   6.750
10255POPC   C3A73853  21.432  35.364   7.050
10255POPC   C4A73854  21.388  35.306   7.350
10255POPC   C1B73855  21.657  35.359   6.450
10255POPC   C2B73856  21.646  35.315   6.750
10255POPC   C3B73857  21.601  35.325   7.050
10255POPC   C4B73858  21.647  35.304   7.350
10256POPC   NC373859  36.128   1.990   5.550
10256POPC   PO473860  36.103   1.984   5.850
10256POPC   GL173861  36.089   2.008   6.150
10256POPC   GL273862  36.254   1.891   6.150
10256POPC   C1A73863  36.138   1.949   6.450
10256POPC   D2A73864  36.079   1.954   6.750
10256POPC   C3A73865  36.088   2.018   7.050
10256POPC   C4A73866  36.135   1.973   7.350
10256POPC   C1B73867  36.330   1.849   6.450
10256POPC   C2B73868  36.308   1.849   6.750
10256POPC   C3B73869  36.352   1.834   7.050
10256POPC   C4B73870  36.362   1.852   7.350
10257POPC   NC373871  37.660  33.040   5.550
10257POPC   PO473872  37.673  33.025   5.850
10257POPC   GL173873  37.723  32.988   6.150
10257POPC   GL273874  37.725  32.961   6.150
10257POPC   C1A73875  37.666  33.023   6.450
10257POPC   D2A73876  37.678  32.982   6.750
10257POPC   C3A73877  37.713  33.006   7.050
10257POPC   C4A73878  37.684  33.013   7.350
10257POPC   C1B73879  37.883  32.810   6.450
10257POPC   C2B73880  37.872  32.889   6.750
10257POPC   C3B73881  37.884  32.867   7.050
10257POPC   C4B73882  37.887  32.853   7.350
10258POPC   NC373883  33.021   4.336   5.550
10258POPC   PO473884  33.064   4.367   5.850
10258POPC   GL173885  33.021   4.268   6.150
10258POPC   GL273886  33.087   4.152   6.150
10258POPC   C1A73887  32.977   4.319   6.450
10258POPC   D2A73888  33.005   4.317   6.750
10258POPC   C3A73889  33.031   4.342   7.050
10258POPC   C4A73890  33.020   4.299   7.350
10258POPC   C1B73891  33.091   4.121   6.450
10258POPC   C2B73892  33.098   4.098   6.750
10258POPC   C3B73893  33.087   4.048   7.050
10258POPC   C4B73894  33.094   4.070   7.350
10259POPC   NC373895  44.654  20.562   5.550
10259POPC   PO473896  44.660  20.591   5.850
10259POPC   GL173897  44.622  20.650   6.150
10259POPC   GL273898  44.548  20.549   6.150
10259POPC   C1A73899  44.644  20.583   6.450
10259POPC   D2A73900  44.694  20.642   6.750
10259POPC   C3A73901  44.699  20.597   7.050
10259POPC   C4A73902  44.703  20.571   7.350
10259POPC   C1B73903  44.460  20.565   6.450
10259POPC   C2B73904  44.421  20.548   6.750
10259POPC   C3B73905  44.455  20.574   7.050
10259POPC   C4B73906  44.464  20.524   7.350
10260POPC   NC373907  32.218   5.142   5.550
10260POPC   PO473908  32.296   5.067   5.850
10260POPC   GL173909  32.260   5.078   6.150
10260POPC   GL273910  32.195   5.248   6.150
10260POPC   C1A73911  32.208   5.124   6.450
10260POPC   D2A73912  32.199   5.044   6.750
10260POPC   C3A73913  32.297   5.062   7.050
10260POPC   C4A73914  32.200   5.122   7.350
10260POPC   C1B73915  32.159   5.273   6.450
10260POPC   C2B73916  32.140   5.333   6.750
10260POPC   C3B73917  32.130   5.332   7.050
10260POPC   C4B73918  32.146   5.359   7.350
10261POPC   NC373919  21.389  36.115   5.550
10261POPC   PO473920  21.404  36.124   5.850
10261POPC   GL173921  21.405  36.149   6.150
10261POPC   GL273922  21.358  36.026   6.150
10261POPC   C1A73923  21.425  36.138   6.450
10261POPC   D2A73924  21.433  36.087   6.750
10261POPC   C3A73925  21.353  36.131   7.050
10261POPC   C4A73926  21.415  36.093   7.350
10261POPC   C1B73927  21.391  35.858   6.450
10261POPC   C2B73928  21.319  35.914   6.750
10261POPC   C3B73929  21.394  35.838   7.050
10261POPC   C4B73930  21.402  35.865   7.350
10262POPC   NC373931  40.040  31.479   5.550
10262POPC   PO473932  40.029  31.450   5.850
10262POPC   GL173933  40.019  31.512   6.150
10262POPC   GL273934  39.886  31.472   6.150
10262POPC   C1A73935  40.001  31.449   6.450
10262POPC   D2A73936  40.017  31.451   6.750
10262POPC   C3A73937  40.048  31.429   7.050
10262POPC   C4A73938  40.052  31.493   7.350
10262POPC   C1B73939  39.722  31.445   6.450
10262POPC   C2B73940  39.765  31.471   6.750
10262POPC   C3B73941  39.771  31.453   7.050
10262POPC   C4B73942  39.723  31.462   7.350
10263POPC   NC373943  24.451  20.587   5.550
10263POPC   PO473944  24.452  20.660   5.850
10263POPC   GL173945  24.482  20.649   6.150
10263POPC   GL273946  24.407  20.726   6.150
10263POPC   C1A73947  24.465  20.582   6.450
10263POPC   D2A73948  24.480  20.643   6.750
10263POPC   C3A73949  24.483  20.637   7.050
10263POPC   C4A73950  24.505  20.596   7.350
10263POPC   C1B73951  24.250  20.763   6.450
10263POPC   C2B73952  24.253  20.753   6.750
10263POPC   C3B73953  24.254  20.715   7.050
10263POPC   C4B73954  24.327  20.724   7.350
10264POPC   NC373955  34.600  22.976   5.550
10264POPC   PO473956  34.558  22.929   5.850
10264POPC   GL173957  34.608  22.984   6.150
10264POPC   GL273958  34.438  23.034   6.150
10264POPC   C1A73959  34.536  22.964   6.450
10264POPC   D2A73960  34.590  22.957   6.750
10264POPC   C3A73961  34.562  22.979   7.050
10264POPC   C4A73962  34.571  22.942   7.350
10264POPC   C1B73963  34.386  23.139   6.450
10264POPC   C2B73964  34.349  23.119   6.750
10264POPC   C3B73965  34.403  23.113   7.050
10264POPC   C4B73966  34.340  23.120   7.350
10265POPC   NC373967  12.878  39.250   5.550
10265POPC   PO473968  12.831  39.200   5.850
10265POPC   GL173969  12.850  39.187   6.150
10265POPC   GL273970  12.930  39.218   6.150
10265POPC   C1A73971  12.859  39.258   6.450
10265POPC   D2A73972  12.889  39.250   6.750
10265POPC   C3A73973  12.887  39.242   7.050
10265POPC   C4A73974  12.824  39.257   7.350
10265POPC   C1B73975  13.101  39.071   6.450
10265POPC   C2B73976  13.110  39.122   6.750
10265POPC   C3B73977  13.095  39.063   7.050
10265POPC   C4B73978  13.094  39.143   7.350
10266POPC   NC373979  37.643  19.042   5.550
10266POPC   PO473980  37.652  19.090   5.850
10266POPC   GL173981  37.660  19.026   6.150
10266POPC   GL273982  37.522  19.054   6.150
10266POPC   C1A73983  37.714  19.036   6.450
10266POPC   D2A73984  37.655  19.056   6.750
10266POPC   C3A73985  37.691  19.059   7.050
10266POPC   C4A73986  37.679  19.016   7.350
10266POPC   C1B73987  37.468  19.065   6.450
10266POPC   C2B73988  37.417  19.073   6.750
10266POPC   C3B73989  37.474  19.129   7.050
10266POPC   C4B73990  37.448  19.120   7.350
10267POPC   NC373991  12.901  38.476   5.550
10267POPC   PO473992  12.869  38.449   5.850
10267POPC   GL173993  12.868  38.499   6.150
10267POPC   GL273994  12.935  38.460   6.150
10267POPC   C1A73995  12.875  38.436   6.450
10267POPC   D2A73996  12.838  38.453   6.750
10267POPC   C3A73997  12.856  38.447   7.050
10267POPC   C4A73998  12.818  38.417   7.350
10267POPC   C1B73999  13.147  38.491   6.450
10267POPC   C2B74000  13.065  38.436   6.750
10267POPC   C3B74001  13.055  38.428   7.050
10267POPC   C4B74002  13.082  38.471   7.350
10268POPC   NC374003  13.590  26.084   5.550
10268POPC   PO474004  13.586  26.054   5.850
10268POPC   GL174005  13.637  26.039   6.150
10268POPC   GL274006  13.674  26.173   6.150
10268POPC   C1A74007  13.649  26.057   6.450
10268POPC   D2A74008  13.594  26.022   6.750
10268POPC   C3A74009  13.607  26.033   7.050
10268POPC   C4A74010  13.645  26.081   7.350
10268POPC   C1B74011  13.708  26.291   6.450
10268POPC   C2B74012  13.773  26.288   6.750
10268POPC   C3B74013  13.708  26.298   7.050
10268POPC   C4B74014  13.737  26.250   7.350
10269POPC   NC374015  15.916  37.690   5.550
10269POPC   PO474016  15.926  37.643   5.850
10269POPC   GL174017  15.953  37.639   6.150
10269POPC   GL274018  16.089  37.729   6.150
10269POPC   C1A74019  15.923  37.705   6.450
10269POPC   D2A74020  15.941  37.664   6.750
10269POPC   C3A74021  15.988  37.644   7.050
10269POPC   C4A74022  15.924  37.662   7.350
10269POPC   C1B74023  16.211  37.843   6.450
10269POPC   C2B74024  16.128  37.761   6.750
10269POPC   C3B74025  16.159  37.776   7.050
10269POPC   C4B74026  16.126  37.825   7.350
10270POPC   NC374027   0.485   1.201   5.550
10270POPC   PO474028   0.392   1.226   5.850
10270POPC   GL174029   0.406   1.235   6.150
10270POPC   GL274030   0.391   1.257   6.150
10270POPC   C1A74031   0.481   1.254   6.450
10270POPC   D2A74032   0.472   1.183   6.750
10270POPC   C3A74033   0.409   1.240   7.050
10270POPC   C4A74034   0.432   1.252   7.350
10270POPC   C1B74035   0.277   1.389   6.450
10270POPC   C2B74036   0.245   1.392   6.750
10270POPC   C3B74037   0.248   1.412   7.050
10270POPC   C4B74038   0.205   1.376   7.350
10271POPC   NC374039  22.924   8.194   5.550
10271POPC   PO474040  22.931   8.238   5.850
10271POPC   GL174041  22.891   8.225   6.150
10271POPC   GL274042  22.934   8.321   6.150
10271POPC   C1A74043  22.926   8.206   6.450
10271POPC   D2A74044  22.935   8.149   6.750
10271POPC   C3A74045  22.895   8.165   7.050
10271POPC   C4A74046  22.890   8.224   7.350
10271POPC   C1B74047  22.964   8.482   6.450
10271POPC   C2B74048  22.975   8.450   6.750
10271POPC   C3B74049  22.997   8.476   7.050
10271POPC   C4B74050  22.959   8.455   7.350
10272POPC   NC374051  33.052  39.279   5.550
10272POPC   PO474052  33.065  39.226   5.850
10272POPC   GL174053  33.032  39.274   6.150
10272POPC   GL274054  33.129  39.321   6.150
10272POPC   C1A74055  33.019  39.280   6.450
10272POPC   D2A74056  33.033  39.214   6.750
10272POPC   C3A74057  33.072  39.276   7.050
10272POPC   C4A74058  33.027  39.243   7.350
10272POPC   C1B74059  33.236  39.343   6.450
10272POPC   C2B74060  33.246  39.334   6.750
10272POPC   C3B74061  33.209  39.345   7.050
10272POPC   C4B74062  33.240  39.323   7.350
10273POPC   NC374063  33.775  25.274   5.550
10273POPC   PO474064  33.768  25.253   5.850
10273POPC   GL174065  33.833  25.229   6.150
10273POPC   GL274066  33.838  25.390   6.150
10273POPC   C1A74067  33.827  25.278   6.450
10273POPC   D2A74068  33.805  25.276   6.750
10273POPC   C3A74069  33.795  25.216   7.050
10273POPC   C4A74070  33.838  25.254   7.350
10273POPC   C1B74071  33.998  25.429   6.450
10273POPC   C2B74072  33.928  25.481   6.750
10273POPC   C3B74073  33.976  25.469   7.050
10273POPC   C4B74074  33.999  25.423   7.350
10274POPC   NC374075  11.254   6.618   5.550
10274POPC   PO474076  11.332   6.652   5.850
10274POPC   GL174077  11.340   6.643   6.150
10274POPC   GL274078  11.150   6.715   6.150
10274POPC   C1A74079  11.254   6.610   6.450
10274POPC   D2A74080  11.270   6.644   6.750
10274POPC   C3A74081  11.290   6.654   7.050
10274POPC   C4A74082  11.300   6.606   7.350
10274POPC   C1B74083  11.107   6.817   6.450
10274POPC   C2B74084  11.104   6.780   6.750
10274POPC   C3B74085  11.125   6.790   7.050
10274POPC   C4B74086  11.082   6.815   7.350
10275POPC   NC374087   5.864  33.775   5.550
10275POPC   PO474088   5.843  33.806   5.850
10275POPC   GL174089   5.883  33.765   6.150
10275POPC   GL274090   5.976  33.748   6.150
10275POPC   C1A74091   5.832  33.837   6.450
10275POPC   D2A74092   5.840  33.769   6.750
10275POPC   C3A74093   5.911  33.756   7.050
10275POPC   C4A74094   5.849  33.812   7.350
10275POPC   C1B74095   6.075  33.599   6.450
10275POPC   C2B74096   6.073  33.599   6.750
10275POPC   C3B74097   6.051  33.647   7.050
10275POPC   C4B74098   6.081  33.634   7.350
10276POPC   NC374099  12.886  24.526   5.550
10276POPC   PO474100  12.814  24.483   5.850
10276POPC   GL174101  12.896  24.487   6.150
10276POPC   GL274102  12.958  24.428   6.150
10276POPC   C1A74103  12.889  24.497   6.450
10276POPC   D2A74104  12.860  24.481   6.750
10276POPC   C3A74105  12.810  24.477   7.050
10276POPC   C4A74106  12.812  24.504   7.350
10276POPC   C1B74107  12.980  24.303   6.450
10276POPC   C2B74108  12.958  24.289   6.750
10276POPC   C3B74109  13.020  24.310   7.050
10276POPC   C4B74110  12.978  24.277   7.350
10277POPC   NC374111  36.920  32.984   5.550
10277POPC   PO474112  36.909  33.014   5.850
10277POPC   GL174113  36.899  32.987   6.150
10277POPC   GL274114  36.797  33.155   6.150
10277POPC   C1A74115  36.881  32.993   6.450
10277POPC   D2A74116  36.931  33.032   6.750
10277POPC   C3A74117  36.941  32.979   7.050
10277POPC   C4A74118  36.925  33.020   7.350
10277POPC   C1B74119  36.750  33.182   6.450
10277POPC   C2B74120  36.723  33.271   6.750
10277POPC   C3B74121  36.790  33.192   7.050
10277POPC   C4B74122  36.780  33.254   7.350
10278POPC   NC374123  34.612  42.346   5.550
10278POPC   PO474124  34.540  42.341   5.850
10278POPC   GL174125  34.598  42.324   6.150
10278POPC   GL274126  34.687  42.382   6.150
10278POPC   C1A74127  34.529  42.290   6.450
10278POPC   D2A74128  34.612  42.353   6.750
10278POPC   C3A74129  34.592  42.307   7.050
10278POPC   C4A74130  34.536  42.346   7.350
10278POPC   C1B74131  34.797  42.423   6.450
10278POPC   C2B74132  34.756  42.486   6.750
10278POPC   C3B74133  34.811  42.487   7.050
10278POPC   C4B74134  34.782  42.433   7.350
10279POPC   NC374135  19.827  13.603   5.550
10279POPC   PO474136  19.859  13.666   5.850
10279POPC   GL174137  19.876  13.638   6.150
10279POPC   GL274138  19.744  13.511   6.150
10279POPC   C1A74139  19.858  13.667   6.450
10279POPC   D2A74140  19.858  13.661   6.750
10279POPC   C3A74141  19.842  13.638   7.050
10279POPC   C4A74142  19.836  13.585   7.350
10279POPC   C1B74143  19.637  13.428   6.450
10279POPC   C2B74144  19.682  13.487   6.750
10279POPC   C3B74145  19.651  13.507   7.050
10279POPC   C4B74146  19.680  13.495   7.350
10280POPC   NC374147  19.884  36.141   5.550
10280POPC   PO474148  19.845  36.137   5.850
10280POPC   GL174149  19.816  36.104   6.150
10280POPC   GL274150  19.869  35.955   6.150
10280POPC   C1A74151  19.791  36.144   6.450
10280POPC   D2A74152  19.788  36.111   6.750
10280POPC   C3A74153  19.793  36.137   7.050
10280POPC   C4A74154  19.832  36.130   7.350
10280POPC   C1B74155  19.773  35.859   6.450
10280POPC   C2B74156  19.852  35.878   6.750
10280POPC   C3B74157  19.864  35.851   7.050
10280POPC   C4B74158  19.849  35.920   7.350
10281POPC   NC374159  40.773  12.075   5.550
10281POPC   PO474160  40.766  12.064   5.850
10281POPC   GL174161  40.769  12.089   6.150
10281POPC   GL274162  40.755  12.159   6.150
10281POPC   C1A74163  40.776  12.097   6.450
10281POPC   D2A74164  40.803  12.037   6.750
10281POPC   C3A74165  40.737  12.034   7.050
10281POPC   C4A74166  40.779  12.049   7.350
10281POPC   C1B74167  40.814  12.314   6.450
10281POPC   C2B74168  40.769  12.316   6.750
10281POPC   C3B74169  40.740  12.297   7.050
10281POPC   C4B74170  40.791  12.293   7.350
10282POPC   NC374171   8.934   1.230   5.550
10282POPC   PO474172   9.004   1.170   5.850
10282POPC   GL174173   8.980   1.234   6.150
10282POPC   GL274174   8.851   1.275   6.150
10282POPC   C1A74175   8.954   1.196   6.450
10282POPC   D2A74176   8.951   1.196   6.750
10282POPC   C3A74177   8.956   1.213   7.050
10282POPC   C4A74178   8.976   1.180   7.350
10282POPC   C1B74179   8.741   1.352   6.450
10282POPC   C2B74180   8.725   1.355   6.750
10282POPC   C3B74181   8.764   1.330   7.050
10282POPC   C4B74182   8.768   1.351   7.350
10283POPC   NC374183  24.491   9.001   5.550
10283POPC   PO474184  24.492   9.011   5.850
10283POPC   GL174185  24.520   9.006   6.150
10283POPC   GL274186  24.476   9.077   6.150
10283POPC   C1A74187  24.450   9.007   6.450
10283POPC   D2A74188  24.469   9.009   6.750
10283POPC   C3A74189  24.458   9.009   7.050
10283POPC   C4A74190  24.484   8.992   7.350
10283POPC   C1B74191  24.499   9.213   6.450
10283POPC   C2B74192  24.503   9.178   6.750
10283POPC   C3B74193  24.502   9.238   7.050
10283POPC   C4B74194  24.479   9.231   7.350
10284POPC   NC374195  10.538   9.750   5.550
10284POPC   PO474196  10.533   9.720   5.850
10284POPC   GL174197  10.538   9.753   6.150
10284POPC   GL274198  10.640   9.719   6.150
10284POPC   C1A74199  10.504   9.794   6.450
10284POPC   D2A74200  10.568   9.770   6.750
10284POPC   C3A74201  10.491   9.718   7.050
10284POPC   C4A74202  10.497   9.765   7.350
10284POPC   C1B74203  10.756   9.745   6.450
10284POPC   C2B74204  10.746   9.703   6.750
10284POPC   C3B74205  10.772   9.709   7.050
10284POPC   C4B74206  10.780   9.711   7.350
10285POPC   NC374207  29.899  31.500   5.550
10285POPC   PO474208  29.959  31.444   5.850
10285POPC   GL174209  29.949  31.485   6.150
10285POPC   GL274210  29.965  31.556   6.150
10285POPC   C1A74211  29.944  31.514   6.450
10285POPC   D2A74212  29.909  31.513   6.750
10285POPC   C3A74213  29.922  31.517   7.050
10285POPC   C4A74214  29.921  31.428   7.350
10285POPC   C1B74215  30.002  31.720   6.450
10285POPC   C2B74216  30.031  31.697   6.750
10285POPC   C3B74217  29.957  31.667   7.050
10285POPC   C4B74218  30.026  31.697   7.350
10286POPC   NC374219  43.085  35.343   5.550
10286POPC   PO474220  43.078  35.309   5.850
10286POPC   GL174221  43.062  35.379   6.150
10286POPC   GL274222  43.001  35.330   6.150
10286POPC   C1A74223  43.061  35.398   6.450
10286POPC   D2A74224  43.085  35.401   6.750
10286POPC   C3A74225  43.102  35.379   7.050
10286POPC   C4A74226  43.093  35.362   7.350
10286POPC   C1B74227  42.928  35.224   6.450
10286POPC   C2B74228  42.928  35.261   6.750
10286POPC   C3B74229  42.862  35.231   7.050
10286POPC   C4B74230  42.833  35.246   7.350
10287W        W74231  38.827   7.346  13.524
10288W        W74232  15.277  15.104   3.634
10289W        W74233  39.378  29.978   4.622
10290W        W74234  31.502  42.780  12.852
10291W        W74235  33.550  41.809   4.622
10292W        W74236   4.921  36.956   3.633
10293W        W74237  40.393  30.035   0.413
10294W        W74238  17.154  22.592  11.953
10295W        W74239  26.466  13.176   2.300
10296W        W74240  17.775   7.781  13.006
10297W        W74241   1.752  19.725  10.468
10298W        W74242  42.797   6.816  10.439
10299W        W74243  35.392  34.896  11.545
10300W        W74244  36.580   4.865   0.883
10301W        W74245  18.552  34.029   2.407
10302W        W74246  22.512  19.274   0.350
10303W        W74247  29.665  39.883  12.050
10304W        W74248  15.789  34.419  14.943
10305W        W74249   1.269  34.994  13.945
10306W        W74250  41.980  32.535  14.026
10307W        W74251  40.858  26.474  12.916
10308W        W74252  13.289   7.392  13.891
10309W        W74253  11.783  25.547  11.495
10310W        W74254  13.349  14.144   3.263
10311W        W74255  22.165   3.236   1.376
10312W        W74256  35.390  13.667  14.938
10313W        W74257  11.188  33.902  11.096
10314W        W74258  26.628  38.032   4.188
10315W        W74259  14.223  21.026   1.911
10316W        W74260   9.867  27.030  10.599
10317W        W74261  30.562  28.464  10.507
10318W        W74262  26.999  37.865  12.832
10319W        W74263  16.277  34.924  10.408
10320W        W74264  43.379  41.349   2.767
10321W        W74265   6.240  22.057   2.880
10322W        W74266  34.004  20.584  10.528
10323W        W74267   8.220   0.484  11.462
10324W        W74268   5.698  11.708   2.394
10325W        W74269  27.998   9.251   4.198
10326W        W74270  23.642  41.511  10.624
10327W        W74271   7.347  12.659  12.529
10328W        W74272  42.927  18.664   3.731
10329W        W74273  12.269  15.803  10.587
10330W        W74274  38.479   2.796   1.864
10331W        W74275  24.109   4.801   3.691
10332W        W74276  13.803  31.625  11.998
10333W        W74277  28.472  31.432  11.041
10334W        W74278  10.174  36.099  14.296
10335W        W74279  32.921  20.731  11.494
10336W        W74280  39.547   2.823   1.868
10337W        W74281   8.375   3.300   3.822
10338W        W74282  37.964  13.150   0.925
10339W        W74283  21.605  29.546   2.238
10340W        W74284  28.659   5.246   1.373
10341W        W74285  40.879  38.534   1.248
10342W        W74286  32.035  35.006   5.318
10343W        W74287  12.624  43.942   3.742
10344W        W74288   3.884   6.778   1.316
10345W        W74289  44.970   5.808   2.310
10346W        W74290  43.280  11.319   3.224
10347W        W74291  39.871  16.203  14.909
10348W        W74292  39.489  15.239   1.776
10349W        W74293   3.230  30.588  13.804
10350W        W74294  43.942  42.851   0.900
10351W        W74295  17.723   5.432  14.307
10352W        W74296  34.523   6.368   3.172
10353W        W74297  10.855  29.990  14.814
10354W        W74298  39.045  10.172   0.810
10355W        W74299  32.552  32.496  14.507
10356W        W74300  15.679   0.348   2.364
10357W        W74301  22.170   1.909   2.335
10358W        W74302  23.111  14.225   4.204
10359W        W74303   1.396  40.802  14.463
10360W        W74304  42.934  31.966   4.184
10361W        W74305  15.213  19.564  10.944
10362W        W74306  36.948   0.817  11.443
10363W        W74307   8.351  17.784   1.862
10364W        W74308  25.086   5.690   2.756
10365W        W74309  33.122  16.645   1.327
10366W        W74310  27.602   7.414  13.400
10367W        W74311  12.842  15.326  13.837
10368W        W74312  18.267   3.723  12.431
10369W        W74313  40.415  27.948   0.312
10370W        W74314  13.717  15.119   3.257
10371W        W74315  37.951  33.025  14.475
10372W        W74316  36.445  10.696   2.686
10373W        W74317  23.676  15.741  13.406
10374W        W74318  16.779   1.287   1.880
10375W        W74319  38.884  42.988   0.803
10376W        W74320  15.121   3.725   1.904
10377W        W74321  19.223  19.706   4.199
10378W        W74322  33.621  37.472  10.149
10379W        W74323   1.447  14.685  13.970
10380W        W74324  17.220  35.908  14.882
10381W        W74325  39.462   1.311   5.237
10382W        W74326  15.695   1.842  13.882
10383W        W74327   0.972  43.384   1.347
10384W        W74328   6.719   4.820   1.243
10385W        W74329  34.968  34.921  11.059
10386W        W74330  32.023   5.774  12.823
10387W        W74331  19.757  17.664   1.398
10388W        W74332  39.841  27.154  13.055
10389W        W74333  14.673  42.353   2.753
10390W        W74334   9.865   8.685  11.456
10391W        W74335   3.886  30.465   4.726
10392W        W74336  17.247   9.272  13.390
10393W        W74337  18.721  26.534  11.985
10394W        W74338  30.640  20.122   2.809
10395W        W74339  18.696  10.866   2.898
10396W        W74340  20.101  20.549  10.980
10397W        W74341   1.449   7.318  12.340
10398W        W74342   2.311   9.186   4.654
10399W        W74343  25.976  21.109   1.757
10400W        W74344   5.874  24.646   1.800
10401W        W74345  22.216  11.856  11.610
10402W        W74346  19.543  29.433   4.354
10403W        W74347  42.784   6.705   1.401
10404W        W74348  39.018  27.464  11.461
10405W        W74349  36.850   4.897  13.954
10406W        W74350  20.175  28.076  11.947
10407W        W74351  13.129  20.569   0.354
10408W        W74352  12.640  27.458   1.298
10409W        W74353  18.769   0.802  13.335
10410W        W74354  13.722  33.929   1.814
10411W        W74355   6.279  37.349   3.236
10412W        W74356  43.357  26.998  10.505
10413W        W74357   5.910  38.364   1.786
10414W        W74358  40.488   2.417  12.056
10415W        W74359  25.103  43.306   2.272
10416W        W74360  16.134  30.066   2.876
10417W        W74361  37.534  43.326   3.697
10418W        W74362  12.352  23.492   4.805
10419W        W74363   9.740  14.721  14.378
10420W        W74364  26.639  38.483  10.983
10421W        W74365  23.598   8.681   3.358
10422W        W74366   9.730  31.970  14.980
10423W        W74367  34.423   4.319   2.257
10424W        W74368   2.852  30.647  14.336
10425W        W74369  36.378  27.446  13.034
10426W        W74370  14.206  29.076  11.603
10427W        W74371  18.122  23.524   1.347
10428W        W74372  27.638   1.247  12.520
10429W        W74373  20.764  23.573   3.800
10430W        W74374  10.841  40.972  13.521
10431W        W74375  22.026  28.010  14.350
10432W        W74376  42.893  18.691   3.308
10433W        W74377  26.576  29.090   3.318
10434W        W74378   3.284  17.203   1.243
10435W        W74379  41.923   1.829  11.889
10436W        W74380  43.895  31.597   0.772
10437W        W74381  38.930  27.141   1.899
10438W        W74382   0.388  39.436   2.744
10439W        W74383  41.966  12.799   2.814
10440W        W74384   4.834  19.169  11.437
10441W        W74385  44.902  13.149  11.985
10442W        W74386  24.226  23.127   2.348
10443W        W74387   3.873  21.207   3.304
10444W        W74388  24.655  15.241   2.334
10445W        W74389  17.081  20.090  12.871
10446W        W74390  38.960  26.137   0.948
10447W        W74391  11.740  19.109  12.075
10448W        W74392  28.959  15.155   2.207
10449W        W74393  37.505  29.551   4.834
10450W        W74394  19.101  24.978   4.345
10451W        W74395  24.723  12.284   3.742
10452W        W74396  32.078  16.098  12.533
10453W        W74397  42.994  35.071   0.424
10454W        W74398   5.386  31.434  14.030
10455W        W74399  26.052  26.001   3.750
10456W        W74400  42.433  18.118  13.311
10457W        W74401   0.868  15.188  13.472
10458W        W74402  14.165   9.876  11.064
10459W        W74403  15.623   9.173   4.333
10460W        W74404  30.607  27.573   0.473
10461W        W74405   7.835  24.091  13.996
10462W        W74406  22.200  44.009   0.256
10463W        W74407   3.770  32.909  14.832
10464W        W74408  16.263   7.380   2.698
10465W        W74409   8.164  23.113   3.315
10466W        W74410  27.042   5.812  14.962
10467W        W74411  18.231  11.709  10.444
10468W        W74412  38.022   2.296   1.224
10469W        W74413  24.114   0.781   2.246
10470W        W74414  11.727   1.332  14.448
10471W        W74415  32.068  40.358  12.987
10472W        W74416  12.669  15.108   1.884
10473W        W74417  36.385  33.413  10.944
10474W        W74418  15.275   4.837   3.809
10475W        W74419  26.510  25.971  14.942
10476W        W74420  19.766  14.699  13.033
10477W        W74421  22.155  16.318  14.910
10478W        W74422  26.054  42.870   3.307
10479W        W74423   8.831  26.588  14.405
10480W        W74424  34.118   0.493  14.480
10481W        W74425  32.635  14.340   4.184
10482W        W74426  20.640   2.452   4.816
10483W        W74427  10.373  24.609  11.128
10484W        W74428  33.491  32.507  10.088
10485W        W74429  10.846   3.819   1.218
10486W        W74430  24.640  13.612  12.371
10487W        W74431  32.923  42.322   4.238
10488W        W74432  10.182  14.816  12.981
10489W        W74433  39.033  28.459  10.495
10490W        W74434  19.732  37.060  13.353
10491W        W74435   5.863  33.122  10.538
10492W        W74436  11.845  34.046   4.771
10493W        W74437  20.695  25.635   0.262
10494W        W74438  26.044  13.730   3.277
10495W        W74439   4.379  28.068  10.557
10496W        W74440   6.905  12.730  13.340
10497W        W74441  26.178  26.142  12.931
10498W        W74442  43.283  14.317   2.689
10499W        W74443   4.421  17.754  11.981
10500W        W74444  12.621  28.968  12.469
10501W        W74445  28.138  33.991   2.365
10502W        W74446  42.474   2.957  12.515
10503W        W74447  16.150   7.227  11.926
10504W        W74448  26.461  44.472  12.898
10505W        W74449  27.644  38.068  10.566
10506W        W74450  44.924  43.802   2.727
10507W        W74451  19.673  22.110  10.041
10508W        W74452  19.592  41.465   2.302
10509W        W74453  43.973  23.579  13.866
10510W        W74454   1.891  16.726  13.497
10511W        W74455  37.459  43.008   4.195
10512W        W74456   9.163  41.871  13.446
10513W        W74457  20.057  18.717  10.577
10514W        W74458  15.204  23.028   2.201
10515W        W74459   3.894  14.608   1.225
10516W        W74460   1.927  17.763  14.349
10517W        W74461  42.499  41.483  11.578
10518W        W74462  17.307   7.310   1.735
10519W        W74463  40.817   7.246   1.262
10520W        W74464   7.291  40.471   0.879
10521W        W74465  26.598  27.501   3.820
10522W        W74466  32.899   3.792  12.493
10523W        W74467  37.388   9.356   2.255
10524W        W74468  16.745  11.823  12.096
10525W        W74469   1.957  16.113   0.756
10526W        W74470  27.561  26.526  14.841
10527W        W74471  44.925   7.842   9.477
10528W        W74472   5.817  14.232  11.602
10529W        W74473  37.403  31.526   3.165
10530W        W74474  39.546  30.041   0.324
10531W        W74475  25.513  43.471  11.035
10532W        W74476  30.590  31.902   4.737
10533W        W74477  11.247  13.182  10.584
10534W        W74478  11.251  35.909   1.432
10535W        W74479  25.481   2.722   1.254
10536W        W74480  11.320  29.646  10.546
10537W        W74481   0.766   8.263  13.432
10538W        W74482  20.087  29.501  12.830
10539W        W74483  35.451  13.130  13.310
10540W        W74484  17.216  13.306   3.861
10541W        W74485  39.407  11.339  14.928
10542W        W74486  38.393  37.457  14.794
10543W        W74487  41.918  38.558  13.055
10544W        W74488  43.503  20.767  14.778
10545W        W74489  27.008  40.315  11.441
10546W        W74490  18.719  13.677   2.865
10547W        W74491   0.908  30.523   0.464
10548W        W74492   9.828   6.915  14.865
10549W        W74493  37.458  33.439   2.788
10550W        W74494  17.793  30.549  11.974
10551W        W74495  37.490   0.805  10.955
10552W        W74496  33.949   7.821   4.690
10553W        W74497  44.365   8.823  11.483
10554W        W74498   5.842  41.307  13.500
10555W        W74499  27.156  20.178   0.272
10556W        W74500  14.623  24.586  13.795
10557W        W74501  26.126   9.856  14.812
10558W        W74502  10.160  32.630   0.410
10559W        W74503  30.115   2.779  12.998
10560W        W74504  32.998  18.721  14.370
10561W        W74505  39.436   6.377  10.575
10562W        W74506  18.781  40.839   2.820
10563W        W74507  11.621  32.450  14.279
10564W        W74508  10.664   2.958   4.698
10565W        W74509  10.874   4.788  13.038
10566W        W74510  26.607  18.776  11.573
10567W        W74511  44.280  37.964  13.047
10568W        W74512  40.982   2.818   5.224
10569W        W74513  16.278  38.075  12.345
10570W        W74514  43.897  32.005  14.804
10571W        W74515  14.775   1.305  12.554
10572W        W74516   3.858   2.291  11.083
10573W        W74517  31.046  17.626   5.566
10574W        W74518  30.012  15.779  10.905
10575W        W74519  35.992  30.914  13.492
10576W        W74520  14.244  14.642   0.965
10577W        W74521   7.855  37.556  11.529
10578W        W74522  30.955  23.216   3.373
10579W        W74523  41.531  20.166   0.400
10580W        W74524   6.703  30.608   2.790
10581W        W74525  40.534  10.806  11.081
10582W        W74526  43.361  28.454   4.715
10583W        W74527   4.432  15.600   1.878
10584W        W74528   7.894  26.045   1.727
10585W        W74529  35.889  23.674  14.987
10586W        W74530  38.069   1.742  13.438
10587W        W74531   7.412  13.113   2.856
10588W        W74532  22.674  36.999   3.308
10589W        W74533  25.592  36.528  13.848
10590W        W74534  25.057  15.677  13.427
10591W        W74535  23.604   3.326   0.800
10592W        W74536  30.427   7.744  11.891
10593W        W74537  15.224   4.372   4.809
10594W        W74538  11.297  26.648  10.554
10595W        W74539  25.010   7.274   4.709
10596W        W74540  43.802  10.237   3.385
10597W        W74541   3.266  22.694   1.449
10598W        W74542  42.940  39.883  10.109
10599W        W74543   9.199  35.576   4.126
10600W        W74544  13.299  29.480  11.915
10601W        W74545  33.552   2.359   0.927
10602W        W74546  39.353  17.145   2.817
10603W        W74547  31.536  35.963   3.371
10604W        W74548  35.524   5.371  13.063
10605W        W74549  10.300  21.182   4.645
10606W        W74550  21.585   7.235   1.731
10607W        W74551  16.812  11.822   2.734
10608W        W74552  18.780  26.562  14.480
10609W        W74553  22.045  35.395   1.848
10610W        W74554  13.782   7.364  10.937
10611W        W74555  36.365  35.970  13.851
10612W        W74556  33.997   8.247   1.897
10613W        W74557  44.997  30.995   3.744
10614W        W74558  11.197  21.553  14.868
10615W        W74559  28.132   0.307  12.989
10616W        W74560  18.619  44.267   2.347
10617W        W74561  29.546  12.216  12.525
10618W        W74562  11.373  27.945  14.020
10619W        W74563   8.830   9.735   2.395
10620W        W74564  12.641  26.003   2.849
10621W        W74565   4.431  26.619   3.806
10622W        W74566  11.354  30.611   4.734
10623W        W74567   5.274   0.941  14.993
10624W        W74568  38.024  32.093   0.399
10625W        W74569  17.279   2.415   4.349
10626W        W74570  16.144  27.195   1.234
10627W        W74571   2.454  11.245  13.030
10628W        W74572   9.221  19.178   5.139
10629W        W74573  21.089  29.644   3.349
10630W        W74574  42.929  10.301   2.266
10631W        W74575  34.028  38.844  11.123
10632W        W74576  12.790   6.696  14.856
10633W        W74577  44.970  20.547   1.416
10634W        W74578  14.595  32.049  10.130
10635W        W74579  15.266  16.267  12.963
10636W        W74580  17.296   6.888   2.342
10637W        W74581   8.275  25.977  13.467
10638W        W74582   7.783  18.707   3.271
10639W        W74583  25.601  38.497   3.757
10640W        W74584  41.517   5.434   3.815
10641W        W74585  26.567  25.980   3.701
10642W        W74586  14.693  33.427  13.867
10643W        W74587  30.579  21.248   3.798
10644W        W74588  13.605  30.083   3.724
10645W        W74589   2.408   4.240  14.923
10646W        W74590   3.450  34.426  12.424
10647W        W74591  20.129  38.375  11.490
10648W        W74592   2.883  38.894   2.301
10649W        W74593  18.239  37.487  14.893
10650W        W74594  15.655  40.864   4.160
10651W        W74595  18.269  33.915   3.159
10652W        W74596  32.582  20.659  14.455
10653W        W74597  26.119  42.384   1.377
10654W        W74598   9.663  38.403   4.236
10655W        W74599  20.034  22.223  13.990
10656W        W74600   0.318  15.137   1.743
10657W        W74601  32.073  17.139   2.230
10658W        W74602  34.863  11.134   3.817
10659W        W74603   2.829  22.546   4.718
10660W        W74604  36.033  26.515  13.825
10661W        W74605  40.496   7.785   0.270
10662W        W74606  32.109  33.926  14.412
10663W        W74607  34.038  23.654   4.813
10664W        W74608  30.150  44.486  11.938
10665W        W74609  23.698  27.997  11.936
10666W        W74610  39.391  32.131   4.697
10667W        W74611  28.461  21.259  11.532
10668W        W74612  34.594  37.861  12.459
10669W        W74613   4.442  37.917  11.084
10670W        W74614  26.122  18.612   2.400
10671W        W74615  21.058  37.023  11.871
10672W        W74616  38.398  26.086   1.777
10673W        W74617   8.206  10.812   1.708
10674W        W74618  21.118  20.582  14.419
10675W        W74619  13.713   0.333  12.339
10676W        W74620  43.000   6.298  11.868
10677W        W74621   3.769  17.741   3.672
10678W        W74622  39.976  26.576   2.334
10679W        W74623   2.946  40.881   4.193
10680W        W74624  21.089  25.494   1.365
10681W        W74625  30.624  17.252   9.496
10682W        W74626  21.147  34.925   1.389
10683W        W74627  17.792   4.775  11.522
10684W        W74628  34.042  25.612  13.946
10685W        W74629  42.313  23.543  14.763
10686W        W74630  12.363  39.889  13.424
10687W        W74631   9.154  13.781  10.623
10688W        W74632  26.493   9.788   1.369
10689W        W74633  31.108  40.345  11.083
10690W        W74634  11.179  41.843   1.925
10691W        W74635   2.434   6.189  14.813
10692W        W74636  33.594  27.627   9.986
10693W        W74637  43.870  44.918   1.390
10694W        W74638  15.642  18.054  10.485
10695W        W74639   4.225   2.827   2.226
10696W        W74640  38.347  11.758   1.868
10697W        W74641  10.662  16.245  12.028
10698W        W74642   6.800  40.484   0.243
10699W        W74643  30.618  14.779  14.812
10700W        W74644  28.563  10.372   1.847
10701W        W74645  29.066  31.898  14.432
10702W        W74646  24.613  31.032  11.017
10703W        W74647   8.310  23.049   2.736
10704W        W74648   2.394   8.842  13.038
10705W        W74649  19.099  40.476   4.605
10706W        W74650  23.132  23.731   1.307
10707W        W74651  42.813  22.703   2.311
10708W        W74652  26.695   4.874  12.577
10709W        W74653  19.079  38.923   4.699
10710W        W74654  34.888  20.115  11.598
10711W        W74655   1.276  15.807   2.759
10712W        W74656  41.506  14.766   0.878
10713W        W74657  19.162  10.232   0.282
10714W        W74658  20.661  10.299  13.043
10715W        W74659   9.776  41.965  12.993
10716W        W74660  20.157  44.298  11.591
10717W        W74661  13.257  17.156  10.628
10718W        W74662  30.042  36.951  12.990
10719W        W74663   8.318  11.292  13.351
10720W        W74664  17.306  43.852   2.800
10721W        W74665  27.475  41.912  13.027
10722W        W74666   9.366   7.393   3.160
10723W        W74667  40.357  14.099   0.955
10724W        W74668   2.860  17.150   1.853
10725W        W74669  21.736   4.809   4.243
10726W        W74670   4.742   2.919  13.797
10727W        W74671  19.561  26.645   3.807
10728W        W74672  29.665  15.220   1.297
10729W        W74673   5.348  26.461   5.193
10730W        W74674  16.088   4.873   3.205
10731W        W74675   1.919  21.022  12.974
10732W        W74676  21.579  30.602   2.856
10733W        W74677  14.236   3.873  11.407
10734W        W74678  23.200  31.982   0.245
10735W        W74679  19.727  38.054  12.531
10736W        W74680   0.268  31.421  14.767
10737W        W74681  34.997  34.528   0.419
10738W        W74682   1.261  33.385  13.387
10739W        W74683  15.794  15.759   1.315
10740W        W74684  15.584  31.995   4.624
10741W        W74685  11.224   3.783   1.846
10742W        W74686  38.053  23.666   3.865
10743W        W74687  14.634  23.608   4.231
10744W        W74688  20.575  12.167   0.341
10745W        W74689  38.995   5.695  10.015
10746W        W74690  13.681   1.777  15.000
10747W        W74691   8.817   6.677  14.393
10748W        W74692  23.986   6.757  11.875
10749W        W74693  24.214  10.644  10.512
10750W        W74694   2.427  10.649  14.421
10751W        W74695   8.812  37.974   2.324
10752W        W74696   3.259  42.478   2.674
10753W        W74697  36.476  40.362   1.323
10754W        W74698   1.834  38.068  14.871
10755W        W74699  18.702  34.025   0.740
10756W        W74700  36.907  36.957  14.013
10757W        W74701  21.512  37.974   2.260
10758W        W74702  14.620  10.219   2.365
10759W        W74703   7.822  11.251   0.393
10760W        W74704  13.688   0.897   3.687
10761W        W74705  20.573   6.319   1.894
10762W        W74706  25.991  25.581   1.923
10763W        W74707   4.843  21.231   2.214
10764W        W74708  39.009  34.066  11.440
10765W        W74709  25.967  27.195  12.348
10766W        W74710   7.776  22.693   1.299
10767W        W74711  23.239  27.611   3.290
10768W        W74712  25.200   6.697   0.345
10769W        W74713  44.415  20.038  11.607
10770W        W74714  30.083  30.559   0.875
10771W        W74715  23.027  37.975  10.987
10772W        W74716  32.054  21.079   3.761
10773W        W74717  28.082   8.352  11.042
10774W        W74718   4.765  26.568  11.461
10775W        W74719   3.268   4.325   0.300
10776W        W74720   6.291   7.383   1.851
10777W        W74721  12.225  16.178  11.577
10778W        W74722  10.326  39.945   4.666
10779W        W74723   9.220   5.258  11.593
10780W        W74724  28.454  29.091   3.172
10781W        W74725  24.707  31.151   3.785
10782W        W74726  20.598  25.974  12.895
10783W        W74727  28.145  11.802  10.083
10784W        W74728  29.521  12.341  12.015
10785W        W74729  16.209  26.018   1.222
10786W        W74730  37.833  39.924   3.660
10787W        W74731  38.533  31.402  14.964
10788W        W74732  11.296  30.576   3.675
10789W        W74733  17.238  36.905  11.400
10790W        W74734  23.622  16.163   1.893
10791W        W74735  42.958  42.300   0.243
10792W        W74736  14.096  18.715  13.955
10793W        W74737  32.609  39.442  11.009
10794W        W74738  25.146  19.262  13.473
10795W        W74739  25.649  16.114  13.917
10796W        W74740  13.216   6.269   1.318
10797W        W74741  35.889   6.376  11.409
10798W        W74742  42.485  24.998  13.956
10799W        W74743  30.535  30.425  11.572
10800W        W74744   9.743   7.816  11.447
10801W        W74745  20.090  13.809   3.750
10802W        W74746   9.820  27.669   0.820
10803W        W74747   1.736  10.241   0.777
10804W        W74748   7.706  21.529  14.324
10805W        W74749  32.437   4.219   2.832
10806W        W74750   9.761   2.365  10.522
10807W        W74751   9.204   3.384   0.845
10808W        W74752   2.873  43.784  12.021
10809W        W74753  12.614  24.225   2.748
10810W        W74754  23.992  10.143   3.645
10811W        W74755  18.620  27.650  10.567
10812W        W74756  33.080  35.921   1.753
10813W        W74757  11.283  34.019  14.290
10814W        W74758  40.546   3.830   1.774
10815W        W74759  27.496  29.046   2.225
10816W        W74760  27.542  21.048  13.453
10817W        W74761  28.458  32.929  12.413
10818W        W74762   5.199  22.670  14.375
10819W        W74763  17.102  29.031   9.945
10820W        W74764  36.456  22.581  12.964
10821W        W74765  43.320   1.374  13.835
10822W        W74766  33.464  39.470   0.739
10823W        W74767  42.352  28.450   4.113
10824W        W74768  17.672  31.617  12.037
10825W        W74769   7.299  32.080  12.867
10826W        W74770  43.428  27.448  12.430
10827W        W74771   8.350  38.494   0.450
10828W        W74772  35.586   1.935  12.974
10829W        W74773  24.042   9.334   3.252
10830W        W74774  43.931  23.578  10.933
10831W        W74775  33.098  24.702  11.880
10832W        W74776  33.042  32.627  13.335
10833W        W74777   4.297  29.944   2.875
10834W        W74778  12.322  11.161   1.825
10835W        W74779  19.630   8.770   2.687
10836W        W74780   8.765  35.006   2.768
10837W        W74781  25.194  20.528  13.900
10838W        W74782   6.836   2.403  12.843
10839W        W74783  21.737   1.411   0.771
10840W        W74784  36.505  11.626   0.297
10841W        W74785  13.137  21.674   3.265
10842W        W74786   5.361  41.835  13.981
10843W        W74787  37.524  35.436   2.391
10844W        W74788  37.845  37.966  13.351
10845W        W74789  39.824  11.134   1.781
10846W        W74790   1.317  21.181   1.258
10847W        W74791  13.174  16.784   4.337
10848W        W74792   4.450  30.021   4.160
10849W        W74793  37.537  30.535  14.988
10850W        W74794  36.476  28.595   3.258
10851W        W74795  27.613  13.149   3.175
10852W        W74796   3.862   8.168   0.747
10853W        W74797  17.257  21.661  13.526
10854W        W74798  27.099  25.093   1.415
10855W        W74799  35.042  25.113   3.380
10856W        W74800  27.647  24.562   0.902
10857W        W74801   8.294  24.066   4.339
10858W        W74802   8.901  42.838   1.804
10859W        W74803  16.756   9.221   0.402
10860W        W74804  21.048  35.898  11.417
10861W        W74805   6.331  39.021   4.609
10862W        W74806  22.244  34.109  14.321
10863W        W74807  16.276  26.670  11.475
10864W        W74808  34.419   3.388   3.365
10865W        W74809   6.277  20.190  14.370
10866W        W74810  22.157  13.220  11.433
10867W        W74811   3.897  23.618  14.984
10868W        W74812  37.048  33.476   0.417
10869W        W74813  15.215  24.169  13.444
10870W        W74814  37.563   1.405  13.385
10871W        W74815  14.113  41.814  11.004
10872W        W74816  23.499   8.383  13.420
10873W        W74817  15.156  44.321   0.384
10874W        W74818  12.349  43.780   4.743
10875W        W74819  44.486  44.960  14.901
10876W        W74820  19.727  12.119  11.050
10877W        W74821  26.610  11.229  13.994
10878W        W74822  15.648  39.049   0.769
10879W        W74823  40.829  13.734  11.870
10880W        W74824   1.304  16.631  13.466
10881W        W74825   4.734  18.614   2.715
10882W        W74826  13.703  44.990   0.305
10883W        W74827  13.351  38.953  12.388
10884W        W74828  41.996  13.685  11.946
10885W        W74829  17.186  31.925   2.295
10886W        W74830  19.668  43.991  11.610
10887W        W74831  44.906   5.405  13.320
10888W        W74832  33.964  34.060   2.325
10889W        W74833   6.211   8.725  13.004
10890W        W74834   7.173   7.808   3.829
10891W        W74835  10.850  39.896  12.063
10892W        W74836  44.332  12.783  12.014
10893W        W74837  41.845  19.749  14.777
10894W        W74838   8.308   9.757  12.966
10895W        W74839  12.304  20.582   2.677
10896W        W74840  30.969  41.958   2.261
10897W        W74841  12.788  20.668   1.316
10898W        W74842   4.222  11.637   3.801
10899W        W74843  38.050  23.136  10.959
10900W        W74844  23.236  17.090  12.826
10901W        W74845  16.271   6.865  12.886
10902W        W74846  36.521  26.627   3.370
10903W        W74847  41.851  43.901   2.797
10904W        W74848   8.698   2.322  10.505
10905W        W74849  35.882  43.869   4.714
10906W        W74850  23.618  35.932  14.498
10907W        W74851   5.747  11.685   2.784
10908W        W74852  43.314  34.550   1.254
10909W        W74853  27.627  34.527   0.958
10910W        W74854  14.186  34.382  12.894
10911W        W74855   9.808  14.305  14.279
10912W        W74856  24.190  16.627   3.713
10913W        W74857   7.209  11.816  12.518
10914W        W74858  20.188  16.198   4.711
10915W        W74859  23.598  25.695   2.337
10916W        W74860  32.904  32.447   3.668
10917W        W74861  31.597  12.137  14.942
10918W        W74862  31.910   1.919  13.884
10919W        W74863  32.948  24.149   1.695
10920W        W74864  23.602  41.009  11.111
10921W        W74865  11.763  15.324   1.336
10922W        W74866   5.724   0.431   2.397
10923W        W74867  36.066   9.220   3.777
10924W        W74868  24.561  33.503  14.322
10925W        W74869  42.906  41.390   4.607
10926W        W74870  25.576  40.527   4.713
10927W        W74871   7.320  29.442  14.943
10928W        W74872  15.672  28.576  14.813
10929W        W74873   9.706  16.615   0.878
10930W        W74874   1.483  34.386   4.688
10931W        W74875  26.013  25.172   0.410
10932W        W74876   4.769  29.524   0.952
10933W        W74877  44.775  15.644   4.658
10934W        W74878   1.308  28.522   0.297
10935W        W74879  12.323   6.803  11.529
10936W        W74880  24.507  27.660   3.236
10937W        W74881  19.733  39.496   1.350
10938W        W74882  29.534  34.908   1.228
10939W        W74883  22.158  15.196  14.906
10940W        W74884  20.255   2.294   2.865
10941W        W74885  31.100  17.670  12.493
10942W        W74886   2.902   3.951   1.723
10943W        W74887  22.627  13.723  12.835
10944W        W74888  23.160   9.862   2.670
10945W        W74889  31.432  20.692  14.953
10946W        W74890  22.569   8.392   1.805
10947W        W74891   5.391  38.033   0.764
10948W        W74892  12.644  40.804  14.452
10949W        W74893  27.467  11.821  12.407
10950W        W74894  40.412   7.748  12.366
10951W        W74895  32.551  40.980   3.858
10952W        W74896  20.188  43.345   3.733
10953W        W74897  28.460  20.626  14.799
10954W        W74898  30.009  26.657  10.509
10955W        W74899  17.716  19.672   0.268
10956W        W74900   1.355  41.023  14.927
10957W        W74901   9.742  29.604  14.030
10958W        W74902  32.085  26.498   4.262
10959W        W74903  18.191  17.800   4.141
10960W        W74904  42.336  37.368   3.381
10961W        W74905  14.287  16.683  12.559
10962W        W74906  25.079  10.215   1.264
10963W        W74907  11.258  17.142   1.329
10964W        W74908  14.104  24.534  11.420
10965W        W74909  12.839  11.322  11.024
10966W        W74910  10.158  26.075  11.972
10967W        W74911  29.063  19.658   4.705
10968W        W74912  44.893  10.699   2.203
10969W        W74913  17.604   8.724  11.443
10970W        W74914   9.882   0.453  10.508
10971W        W74915   7.392   9.816  13.987
10972W        W74916  42.399  29.105  10.628
10973W        W74917   7.350   4.799   3.306
10974W        W74918   7.198  12.303   1.441
10975W        W74919   5.203  23.675  14.404
10976W        W74920  22.022  36.446   0.955
10977W        W74921  28.589  29.032  13.442
10978W        W74922  15.582  42.516  13.015
10979W        W74923  19.666  23.597  14.005
10980W        W74924  21.171  32.554  14.281
10981W        W74925  32.009  17.777   3.177
10982W        W74926   1.974  34.108   0.294
10983W        W74927  15.631  14.645  12.355
10984W        W74928   8.666  13.335  14.412
10985W        W74929  30.601  17.687   0.474
10986W        W74930  39.982  24.013  14.908
10987W        W74931  34.946  24.645  13.538
10988W        W74932  41.845  34.935  12.096
10989W        W74933  19.228  22.747   0.373
10990W        W74934  24.209  30.564   2.781
10991W        W74935  12.661   6.825   3.269
10992W        W74936  33.014  18.078   1.749
10993W        W74937   5.387   8.313  10.544
10994W        W74938  20.183  21.584  11.902
10995W        W74939  39.442  20.534   4.649
10996W        W74940  17.180  25.077  11.043
10997W        W74941   9.686   2.462  11.934
10998W        W74942  24.527  41.863   2.205
10999W        W74943  20.176   3.401   1.367
11000W        W74944  31.609  39.359   3.367
11001W        W74945  24.580   4.869  10.116
11002W        W74946   6.401  12.227  10.585
11003W        W74947  19.132   2.414  12.082
11004W        W74948  33.990  24.992  13.804
11005W        W74949   5.845   7.771  10.992
11006W        W74950  28.080  43.285  10.919
11007W        W74951  24.486   8.317   0.445
11008W        W74952  41.798  21.657  12.386
11009W        W74953   2.906  29.618   3.850
11010W        W74954  28.574  41.298   4.176
11011W        W74955  13.304  21.538  13.955
11012W        W74956  12.611  43.352  12.536
11013W        W74957  11.803  13.299   3.785
11014W        W74958  28.487  30.015  10.418
11015W        W74959   7.817  19.715   2.384
11016W        W74960  19.221  38.856  10.645
11017W        W74961  22.080  23.666  12.554
11018W        W74962  30.552  15.774  14.362
11019W        W74963  17.718  35.531  10.426
11020W        W74964  19.536  27.542   1.256
11021W        W74965   6.755  22.033   3.701
11022W        W74966  26.208  22.121   1.830
11023W        W74967  38.472  21.731  10.485
11024W        W74968   4.311  36.973  11.064
11025W        W74969   1.796  27.952   2.375
11026W        W74970  17.555  19.539   4.730
11027W        W74971  22.091   5.796   3.773
11028W        W74972  28.186  33.400   1.360
11029W        W74973  44.783  10.332   0.835
11030W        W74974  36.086   9.678  14.014
11031W        W74975  43.389  18.083  12.480
11032W        W74976   7.677  19.535   1.449
11033W        W74977  30.431  43.363  14.803
11034W        W74978  26.170  44.332   2.279
11035W        W74979   5.904  20.608  12.344
11036W        W74980  44.927  16.675   2.335
11037W        W74981  11.218  17.570  10.079
11038W        W74982  30.557  30.522  10.924
11039W        W74983  29.024  17.569   3.763
11040W        W74984  44.310   9.655  12.437
11041W        W74985  22.687  25.472   0.860
11042W        W74986   1.479  35.969  10.997
11043W        W74987  19.639   7.826   3.188
11044W        W74988   0.263  27.962  11.898
11045W        W74989   1.240  39.464  11.401
11046W        W74990  35.536  44.305  12.368
11047W        W74991   2.230  25.625  10.472
11048W        W74992  25.594  19.550   5.238
11049W        W74993   1.330   5.294  10.427
11050W        W74994  36.020  19.154  11.943
11051W        W74995  10.713  32.626   1.829
11052W        W74996   9.657   8.247  11.489
11053W        W74997   9.315   2.834   1.252
11054W        W74998  16.811  39.365  12.473
11055W        W74999  16.749  28.446   2.743
11056W        W75000  36.560  34.510  14.937
11057W        W75001  22.124   6.351  13.415
11058W        W75002   5.411  22.730  13.936
11059W        W75003   2.733  23.736  13.962
11060W        W75004  39.061  38.466   2.328
11061W        W75005  15.641  21.683   3.322
11062W        W75006  27.548  34.956  13.835
11063W        W75007  43.500  18.225  13.466
11064W        W75008  41.872  32.558  11.093
11065W        W75009   3.356  10.825   1.256
11066W        W75010  30.481  10.795  14.378
11067W        W75011  14.167   0.276  12.391
11068W        W75012  23.018   6.309   4.656
11069W        W75013  14.253  34.932  13.011
11070W        W75014  20.671  19.726   4.832
11071W        W75015  43.837  11.652   0.298
11072W        W75016  32.064  29.066  11.551
11073W        W75017  32.896   6.715  10.452
11074W        W75018  24.519   5.215  14.412
11075W        W75019  31.466  28.177   3.730
11076W        W75020  44.333  10.264  14.982
11077W        W75021   0.452   7.716   1.844
11078W        W75022  20.228   4.920   4.613
11079W        W75023  31.000  39.057  13.429
11080W        W75024  31.428  17.591  10.928
11081W        W75025  22.149   8.399  14.460
11082W        W75026   5.346  20.611   2.276
11083W        W75027  36.902  36.911  10.993
11084W        W75028  17.713  29.129   1.381
11085W        W75029  11.647  27.197  12.376
11086W        W75030  23.497  41.293  14.356
11087W        W75031  37.977  14.702   0.865
11088W        W75032  17.730  18.782   3.228
11089W        W75033  32.015  24.182  10.613
11090W        W75034  19.591  10.318  12.396
11091W        W75035  28.103  12.303   9.991
11092W        W75036  24.182  32.905   0.782
11093W        W75037  19.625   2.307   0.331
11094W        W75038  33.548  31.906  14.381
11095W        W75039   9.766   2.944   1.358
11096W        W75040  10.643  41.506   2.271
11097W        W75041  17.074  10.228  13.947
11098W        W75042  31.121  26.673   3.687
11099W        W75043  12.260  21.163  12.492
11100W        W75044  18.153  15.821  14.497
11101W        W75045   8.710  37.077   4.826
11102W        W75046  42.874  34.014   0.266
11103W        W75047  42.416  38.855   4.660
11104W        W75048  16.271  28.161   4.737
11105W        W75049  36.951  42.374   4.279
11106W        W75050   8.269   6.678   4.695
11107W        W75051  24.103   0.274   0.300
11108W        W75052   0.881  26.202  14.391
11109W        W75053  31.489  20.750  10.958
11110W        W75054  17.586  16.217   4.260
11111W        W75055   5.882  14.730  10.476
11112W        W75056   6.814  42.407  13.975
11113W        W75057  10.183  18.291  10.444
11114W        W75058  27.052   6.308  12.473
11115W        W75059   9.338  11.691   4.131
11116W        W75060  12.615   2.800   9.969
11117W        W75061  44.305   7.721  12.851
11118W        W75062   4.343  18.562   1.922
11119W        W75063  44.779  12.327  11.447
11120W        W75064  26.580  37.418   3.229
11121W        W75065  15.637  26.078   2.900
11122W        W75066  13.659  32.939   0.945
11123W        W75067  18.202  28.466   3.844
11124W        W75068   3.940  21.712   3.774
11125W        W75069  35.456  34.500  12.997
11126W        W75070  32.536   0.766   3.692
11127W        W75071  44.982  27.464  12.542
11128W        W75072  23.131   5.434  12.996
11129W        W75073  23.152   4.773   1.785
11130W        W75074   9.312  19.219   4.244
11131W        W75075  35.871  16.270  10.946
11132W        W75076   7.826  20.131   3.319
11133W        W75077  23.081  19.254  14.373
11134W        W75078   9.654  42.014  10.949
11135W        W75079   8.674  23.736   2.308
11136W        W75080  19.631  33.533  12.960
11137W        W75081  15.732   7.353   2.705
11138W        W75082  12.744  25.055   3.796
11139W        W75083  35.073  19.039   3.787
11140W        W75084  20.124   0.945   0.961
11141W        W75085  36.053  41.338   4.677
11142W        W75086   5.918  16.771  13.321
11143W        W75087  27.606  41.797   2.374
11144W        W75088  26.638   8.844   2.865
11145W        W75089  18.164   7.706  12.911
11146W        W75090  39.963   1.397   4.763
11147W        W75091  29.985  16.151   1.791
11148W        W75092  16.124  20.620   4.340
11149W        W75093  20.626  28.563   4.306
11150W        W75094   7.181   6.394   2.738
11151W        W75095  44.823  34.919  12.037
11152W        W75096   8.218  30.560   0.294
11153W        W75097  28.132   6.807   4.254
11154W        W75098  22.070  33.072   1.446
11155W        W75099  40.417   5.268   4.141
11156W        W75100  19.085  27.084  12.529
11157W        W75101  20.050  32.409  11.022
11158W        W75102  15.295  30.104  13.806
11159W        W75103  27.668  21.227   0.346
11160W        W75104  21.694  17.730   4.681
11161W        W75105   3.377  12.124  12.844
11162W        W75106  17.759   7.276   0.303
11163W        W75107   9.369  39.922   3.715
11164W        W75108  38.883   2.798   1.448
11165W        W75109   8.334  15.202  13.936
11166W        W75110  29.479  41.037   1.358
11167W        W75111   3.756  20.243  11.118
11168W        W75112   1.760   1.391  14.952
11169W        W75113  10.333  13.348   4.796
11170W        W75114  20.603  34.960  11.408
11171W        W75115  41.405  17.588   0.335
11172W        W75116   9.822  36.943   3.284
11173W        W75117  27.581  12.358   4.257
11174W        W75118  30.146   3.925   1.345
11175W        W75119  44.420  28.666   1.889
11176W        W75120   1.815   6.187   0.765
11177W        W75121  30.954  25.027   0.285
11178W        W75122  10.671  34.598  11.553
11179W        W75123   6.410   8.337   1.269
11180W        W75124  37.390  40.420   1.878
11181W        W75125  29.978  26.106   1.407
11182W        W75126  26.988  30.542  10.514
11183W        W75127  42.889  40.450   2.685
11184W        W75128   4.423  29.424   4.238
11185W        W75129  13.283  25.488   1.930
11186W        W75130  41.002  25.110  14.760
11187W        W75131  34.588  34.870   3.832
11188W        W75132  34.523  20.578  11.984
11189W        W75133  24.490  22.522   1.800
11190W        W75134  17.119  21.198   1.801
11191W        W75135  32.498   5.825   1.776
11192W        W75136  19.604   9.871  13.053
11193W        W75137  25.129  41.300   0.868
11194W        W75138  27.577  15.238  13.385
11195W        W75139  21.563  22.090   0.272
11196W        W75140   7.861   1.847   1.791
11197W        W75141  36.984   2.404   4.244
11198W        W75142  21.596   4.442  11.489
11199W        W75143   1.947   6.736  12.914
11200W        W75144  36.876  32.912  12.562
11201W        W75145  28.179   6.828  13.418
11202W        W75146  14.720   6.843   1.771
11203W        W75147  19.173  32.467  12.985
11204W        W75148  19.052  26.186   5.730
11205W        W75149   1.739  28.600   4.738
11206W        W75150  26.515  20.686   4.181
11207W        W75151   8.239  43.304   3.787
11208W        W75152  26.603  21.171   2.284
11209W        W75153  36.883  42.909  10.968
11210W        W75154  34.092  12.300   1.808
11211W        W75155  14.762  36.904  11.428
11212W        W75156  32.905  25.647   0.256
11213W        W75157  36.948  37.449   1.275
11214W        W75158  27.453  18.126   3.764
11215W        W75159   0.276  40.477  12.427
11216W        W75160  28.962  28.170   2.343
11217W        W75161  29.656  34.396   1.387
11218W        W75162  44.452  11.223   4.198
11219W        W75163  10.822  12.755  14.789
11220W        W75164  28.067  34.086   4.664
11221W        W75165  22.578   1.921   2.365
11222W        W75166  29.548   8.872  14.799
11223W        W75167  27.626  27.179  13.824
11224W        W75168   9.773   4.896  11.908
11225W        W75169  22.147  33.047  14.891
11226W        W75170  17.610  13.793   4.819
11227W        W75171  15.693  24.158  14.022
11228W        W75172  37.489   3.861   2.243
11229W        W75173  44.489  23.540  11.415
11230W        W75174   0.933   9.194  10.479
11231W        W75175  10.277  26.507  13.390
11232W        W75176  36.592  34.909   0.935
11233W        W75177   1.923  32.470  10.547
11234W        W75178   2.455  10.687  12.554
11235W        W75179  27.976  23.596  14.460
11236W        W75180   0.986  33.923  12.341
11237W        W75181   8.869  29.531   0.813
11238W        W75182   4.292  15.671   2.821
11239W        W75183  10.176   3.216  13.875
11240W        W75184  44.853  24.178  12.912
11241W        W75185   4.900  41.885   2.196
11242W        W75186   4.858  24.682   1.335
11243W        W75187  14.197  18.253  13.974
11244W        W75188   2.842  34.095  13.911
11245W        W75189  28.573  11.346   2.417
11246W        W75190  30.619  18.553  11.493
11247W        W75191  25.199   6.708  11.438
11248W        W75192  11.282   3.346   9.658
11249W        W75193  22.042  23.494  11.961
11250W        W75194  24.120   2.759  12.877
11251W        W75195  36.850   6.243   1.303
11252W        W75196  12.685  34.603  10.488
11253W        W75197   4.864  40.968   0.397
11254W        W75198  10.195  11.827  13.032
11255W        W75199  44.889  37.546   2.285
11256W        W75200  22.592   1.468  13.855
11257W        W75201  39.537  30.657   0.446
11258W        W75202  40.420  14.200   3.223
11259W        W75203  34.034   5.871  14.898
11260W        W75204  18.732  10.849   9.627
11261W        W75205  40.496  14.154  13.324
11262W        W75206  44.372  38.931   3.710
11263W        W75207  24.109   8.321  10.920
11264W        W75208  29.046  27.555  12.538
11265W        W75209  16.686  17.158  10.465
11266W        W75210  17.775  14.729   0.291
11267W        W75211   9.847  16.792  14.362
11268W        W75212  11.847  11.162  13.879
11269W        W75213  35.078  43.312  13.998
11270W        W75214  25.588  21.226  14.836
11271W        W75215  38.441  27.007  13.480
11272W        W75216  35.096  13.160   4.134
11273W        W75217  43.392  26.684   0.764
11274W        W75218  43.816  22.505   1.812
11275W        W75219  31.994  16.692  14.792
11276W        W75220  38.444  18.240  11.591
11277W        W75221  14.323  12.187   1.890
11278W        W75222  17.134  34.967   3.203
11279W        W75223  35.565  44.800  10.631
11280W        W75224   1.795  34.452  13.845
11281W        W75225  15.682  24.063   3.725
11282W        W75226  13.195  28.599   1.876
11283W        W75227  44.352   1.895  11.108
11284W        W75228  19.131  29.428  14.800
11285W        W75229  17.594  13.192  12.512
11286W        W75230  36.919  15.589   0.732
11287W        W75231  33.927   6.733   1.362
11288W        W75232  14.603  33.593   3.149
11289W        W75233   3.934   7.377   5.148
11290W        W75234  40.054  44.273  14.492
11291W        W75235   2.246  44.910   0.902
11292W        W75236  10.275  11.768  10.505
11293W        W75237   8.882  38.888   2.793
11294W        W75238   4.267  40.400   0.736
11295W        W75239  31.112  22.125   4.215
11296W        W75240  19.201  27.125   3.822
11297W        W75241  27.542  30.456  12.089
11298W        W75242  33.073  37.970  14.780
11299W        W75243  42.966  20.699  12.483
11300W        W75244  33.915  40.028   0.956
11301W        W75245   9.689  25.189   3.175
11302W        W75246  10.168   2.306  10.020
11303W        W75247   6.869  25.593   3.300
11304W        W75248   2.350  14.281   4.780
11305W        W75249  19.579  25.109  14.401
11306W        W75250  20.118  44.887  10.638
11307W        W75251  20.749  21.180   2.683
11308W        W75252  20.663  33.529  14.826
11309W        W75253  41.378  25.612  11.990
11310W        W75254  37.438  21.513   4.752
11311W        W75255  14.667  32.600  11.083
11312W        W75256  41.533  37.921   1.357
11313W        W75257   5.397  30.152  11.032
11314W        W75258  36.937  24.143  12.964
11315W        W75259  13.624  22.093  10.920
11316W        W75260   3.375  29.176   1.814
11317W        W75261  44.954   5.868   0.801
11318W        W75262  12.701  31.942   2.783
11319W        W75263  10.329  17.112   1.812
11320W        W75264   4.232  28.493  10.479
11321W        W75265  13.825  13.331   2.352
11322W        W75266  11.132  27.097  11.983
11323W        W75267  16.129  28.160   1.262
11324W        W75268  14.121  23.659   3.312
11325W        W75269   7.248  34.385  14.441
11326W        W75270  14.791   1.394  14.873
11327W        W75271  37.365  23.012   1.703
11328W        W75272   6.770  15.666  10.132
11329W        W75273  14.831   6.730   0.474
11330W        W75274  35.585   2.779  14.823
11331W        W75275  32.539  37.396  13.538
11332W        W75276  25.976   9.719   2.848
11333W        W75277  12.336  32.622   4.745
11334W        W75278  12.119  14.748   3.776
11335W        W75279  42.995  37.344  14.811
11336W        W75280  11.685  12.724  11.998
11337W        W75281   9.322  25.589  13.514
11338W        W75282  28.960  11.659  11.007
11339W        W75283   6.840  19.085   1.413
11340W        W75284   3.942   6.424  14.884
11341W        W75285  39.512   7.223  11.994
11342W        W75286  11.845  12.701   3.213
11343W        W75287   0.861   7.240  13.842
11344W        W75288   9.651   1.464   0.857
11345W        W75289  16.783  11.188   0.822
11346W        W75290  42.517  41.358  10.906
11347W        W75291  13.821  38.359  11.517
11348W        W75292  33.088  40.969  14.372
11349W        W75293  44.881  20.732   0.938
11350W        W75294  17.693  25.497  12.014
11351W        W75295  32.437  33.022  11.097
11352W        W75296  44.917  11.742  10.414
11353W        W75297  23.182  37.576   4.319
11354W        W75298  14.759  39.820   0.786
11355W        W75299  28.606  27.498  11.588
11356W        W75300  15.605  21.170   0.831
11357W        W75301  39.496  40.384   2.399
11358W        W75302  33.399  11.232   4.329
11359W        W75303  24.180  33.469  11.882
11360W        W75304  10.357   3.856   3.287
11361W        W75305  16.595  32.601   0.967
11362W        W75306  19.633  31.565  14.993
11363W        W75307   3.261  28.515  14.497
11364W        W75308  34.376   3.368   4.346
11365W        W75309  21.525  29.512   0.432
11366W        W75310  14.778   6.280   4.600
11367W        W75311  12.182  25.609  13.420
11368W        W75312   3.893  32.907  13.417
11369W        W75313  40.942  31.013   4.285
11370W        W75314   6.319  43.924   2.318
11371W        W75315  34.888  16.586  13.824
11372W        W75316   7.898  10.817   4.349
11373W        W75317  29.455  38.831   2.274
11374W        W75318   7.795  39.501   1.729
11375W        W75319  43.928   0.307   4.809
11376W        W75320  39.523  33.115  11.876
11377W        W75321   9.787  42.938   3.676
11378W        W75322  26.179   5.337  12.931
11379W        W75323   5.199  42.837  14.451
11380W        W75324  44.805  27.587  14.290
11381W        W75325  41.023  28.658  11.908
11382W        W75326  37.390   6.846  13.887
11383W        W75327  32.536   6.242   4.187
11384W        W75328  11.269  44.472   0.913
11385W        W75329  29.540  36.098   2.179
11386W        W75330  39.515   2.411  14.495
11387W        W75331   1.911   5.255   1.247
11388W        W75332  20.120  33.886  11.959
11389W        W75333  34.966  19.741  14.440
11390W        W75334  42.004  17.558  10.988
11391W        W75335  14.748  35.359  10.428
11392W        W75336  44.446   1.295   4.236
11393W        W75337  12.643  23.591  13.014
11394W        W75338  27.103   5.879  14.400
11395W        W75339   2.768  19.123   3.753
11396W        W75340  40.931   6.326   9.549
11397W        W75341  13.824  34.371   0.382
11398W        W75342  19.237  16.655  13.532
11399W        W75343  38.929  21.534  13.503
11400W        W75344  24.494  35.920  13.491
11401W        W75345  34.886  19.598  13.854
11402W        W75346  34.108   6.366  10.945
11403W        W75347  43.319  33.980  11.563
11404W        W75348  13.167  16.728   0.347
11405W        W75349  11.322  23.578  10.496
11406W        W75350  21.114  30.569   3.751
11407W        W75351  43.770  23.698   1.852
11408W        W75352  16.181   2.723  13.418
11409W        W75353   3.424  20.052  10.972
11410W        W75354   5.236  23.657  10.968
11411W        W75355   8.874  41.529  12.364
11412W        W75356   5.832  34.981   1.800
11413W        W75357  10.856  32.436  13.990
11414W        W75358   5.787  23.083  11.077
11415W        W75359  21.535  16.199  14.391
11416W        W75360   4.879   7.318  14.878
11417W        W75361  42.394   4.777   0.428
11418W        W75362  10.801  31.140   2.851
11419W        W75363   2.452  20.625  11.432
11420W        W75364  30.502  29.972   2.698
11421W        W75365  13.304  37.502  12.435
11422W        W75366  22.563  10.156   3.710
11423W        W75367   3.743  26.028   2.823
11424W        W75368   0.439  26.604   1.908
11425W        W75369  37.352  14.775  11.891
11426W        W75370  41.486  12.163  14.349
11427W        W75371  39.002  19.193  12.431
11428W        W75372  22.585   1.818  12.964
11429W        W75373  12.260  39.990  11.491
11430W        W75374  38.506   0.762  11.391
11431W        W75375  34.593  24.193  14.932
11432W        W75376   3.226  13.207  11.083
11433W        W75377  24.665  33.969   3.663
11434W        W75378  24.662  34.590   1.892
11435W        W75379   8.382   2.754  12.543
11436W        W75380  43.298  43.995   1.819
11437W        W75381  40.500  20.647  12.920
11438W        W75382  35.006  11.266   3.254
11439W        W75383  33.085  37.889   4.824
11440W        W75384  29.441  22.229  14.349
11441W        W75385  34.443  12.759   0.442
11442W        W75386  27.159  41.391   4.297
11443W        W75387   5.717  35.378  14.352
11444W        W75388  24.094  23.571   0.740
11445W        W75389  12.844   3.916  14.886
11446W        W75390  18.194  32.440  12.906
11447W        W75391  11.668  19.774   5.220
11448W        W75392  44.909  28.506   0.823
11449W        W75393   4.316   1.473  13.516
11450W        W75394   1.788  43.292   1.284
11451W        W75395  10.878   7.389  12.938
11452W        W75396  14.796  35.068  11.032
11453W        W75397  43.433  27.977  12.459
11454W        W75398   5.744  26.970  14.867
11455W        W75399  13.641   7.376   0.258
11456W        W75400  13.193   1.343  12.393
11457W        W75401  15.290  32.558  14.819
11458W        W75402  41.334   8.742  13.373
11459W        W75403  14.747  21.725   0.909
11460W        W75404  36.009   2.426   2.384
11461W        W75405  15.176  24.066   0.732
11462W        W75406   1.889  11.297   1.821
11463W        W75407  22.065   9.248  14.470
11464W        W75408  25.176  25.559   2.793
11465W        W75409  32.481  10.195  13.429
11466W        W75410  36.541  10.690  14.966
11467W        W75411   7.872  19.082   4.283
11468W        W75412  36.014  28.590   0.474
11469W        W75413   6.315  23.696  14.371
11470W        W75414  30.105   7.179  13.353
11471W        W75415  10.778  43.905  14.356
11472W        W75416   4.752   4.748  11.610
11473W        W75417  33.932  27.645   0.738
11474W        W75418   3.894  32.626   0.271
11475W        W75419  37.863  10.312   9.960
11476W        W75420  22.153  43.844   0.942
11477W        W75421  40.875  41.407   4.271
11478W        W75422  12.755   3.849  14.377
11479W        W75423   4.932   1.917   4.679
11480W        W75424   7.203  16.588  12.970
11481W        W75425   1.299  26.496   3.208
11482W        W75426  36.088  10.340  10.445
11483W        W75427  40.464  36.579  11.558
11484W        W75428  16.737   6.756  11.468
11485W        W75429  36.348  13.602  13.958
11486W        W75430  18.145  25.649  12.518
11487W        W75431  43.285  13.292   4.251
11488W        W75432  25.538  32.524   0.480
11489W        W75433   2.916  36.529   3.371
11490W        W75434  17.161  42.791   4.223
11491W        W75435  22.230  25.070  11.857
11492W        W75436  16.750  38.957  14.436
11493W        W75437  21.175  39.320   2.215
11494W        W75438   2.266  38.840  10.148
11495W        W75439  25.174   6.878   3.177
11496W        W75440  25.198  39.030   3.214
11497W        W75441   5.790  28.182   3.152
11498W        W75442  13.730  11.197   4.253
11499W        W75443  11.320  18.659  10.427
11500W        W75444  40.950  15.668  10.558
11501W        W75445  33.388  27.685  13.430
11502W        W75446  27.456  13.716   0.852
11503W        W75447  18.556  16.723  13.995
11504W        W75448   1.269   6.749   0.372
11505W        W75449  18.656  18.562   3.689
11506W        W75450   4.429  32.456   1.762
11507W        W75451  44.867  30.648  10.464
11508W        W75452  16.270  11.299  14.402
11509W        W75453  25.607  41.413   5.142
11510W        W75454   2.452  25.671   4.304
11511W        W75455  19.117  11.314   1.212
11512W        W75456   9.223   2.299  12.369
11513W        W75457  21.540  28.954   1.698
11514W        W75458  28.099  11.797   3.345
11515W        W75459  28.670  16.790   2.806
11516W        W75460  32.594  24.227  12.051
11517W        W75461  24.174  43.288  10.579
11518W        W75462   3.219  42.815  12.087
11519W        W75463  13.824   5.379  14.346
11520W        W75464  42.434  15.195   1.242
11521W        W75465  44.856  22.180  10.910
11522W        W75466  36.963  18.588  12.396
11523W        W75467   9.240   2.729  13.329
11524W        W75468  23.037  16.307  11.402
11525W        W75469  44.839  26.637   4.209
11526W        W75470   5.192   6.289   2.748
11527W        W75471  28.160  32.994   4.766
11528W        W75472  43.441  28.108  10.904
11529W        W75473  13.834  11.204   3.284
11530W        W75474  23.679  33.057  12.067
11531W        W75475  43.398  21.591   1.756
11532W        W75476   7.372   7.822  13.862
11533W        W75477  16.719  30.987  11.102
11534W        W75478  43.491  10.695  14.915
11535W        W75479  44.382  39.829  14.364
11536W        W75480  35.553   2.408   4.772
11537W        W75481  34.597  36.464   0.904
11538W        W75482   1.858  13.791  14.510
11539W        W75483  16.174  40.489   4.270
11540W        W75484  33.491  32.411   2.726
11541W        W75485  38.820  33.981  12.421
11542W        W75486  13.844  39.827   2.196
11543W        W75487  18.073  43.930   0.373
11544W        W75488  21.200  12.811  13.356
11545W        W75489  17.563  20.083  13.910
11546W        W75490  17.180  18.696   3.305
11547W        W75491   2.368  23.105  12.421
11548W        W75492   1.922  16.265  13.035
11549W        W75493  27.178  10.878   0.778
11550W        W75494  24.190  26.609   3.149
11551W        W75495   3.418   6.393  13.047
11552W        W75496  25.473   5.269   1.922
11553W        W75497  29.999  25.025   4.597
11554W        W75498  28.541  21.019   0.859
11555W        W75499   6.792  39.508   2.774
11556W        W75500  16.669  43.917   1.289
11557W        W75501  13.286  15.636   9.967
11558W        W75502   4.326  27.142   1.818
11559W        W75503  29.106  28.446   0.406
11560W        W75504  31.071  16.661  10.610
11561W        W75505  23.120   5.210  11.521
11562W        W75506  34.071  41.884  10.572
11563W        W75507   9.336   1.365   1.309
11564W        W75508  41.948  32.126  10.946
11565W        W75509  12.261   9.224   3.146
11566W        W75510   4.258  40.417   4.184
11567W        W75511  13.275  35.597  10.928
11568W        W75512  37.918  41.043  11.105
11569W        W75513   5.407  37.541  11.917
11570W        W75514  33.594   5.340   1.828
11571W        W75515   5.340   5.223   1.280
11572W        W75516  38.501   3.785  12.886
11573W        W75517   6.320  37.039   4.745
11574W        W75518  40.992   1.853  12.905
11575W        W75519  38.368  22.189   1.718
11576W        W75520   9.214  10.380  10.581
11577W        W75521  29.454  43.320   4.315
11578W        W75522  21.531  11.860   0.800
11579W        W75523  35.417  42.027  13.038
11580W        W75524  36.974   4.755  14.868
11581W        W75525  38.517  34.945   1.727
11582W        W75526  39.888  44.876  13.359
11583W        W75527  21.020  30.426   4.829
11584W        W75528  43.374  21.597   2.794
11585W        W75529  33.565  26.624   4.184
11586W        W75530   1.894  42.792  11.421
11587W        W75531  10.754  36.460   4.745
11588W        W75532  39.892  34.082   4.603
11589W        W75533  22.030  32.935   3.785
11590W        W75534  39.032  24.651   4.731
11591W        W75535  42.880   6.417  14.449
11592W        W75536  22.714  20.653   3.799
11593W        W75537   8.783  23.156   0.242
11594W        W75538  16.172  21.108  14.275
11595W        W75539   7.335   4.225   0.899
11596W        W75540   9.795  18.776  10.575
11597W        W75541  41.933  17.089  13.035
11598W        W75542  43.478  18.620   4.699
11599W        W75543   1.939  36.887   1.215
11600W        W75544  34.001  26.596  11.966
11601W        W75545  17.594  32.438  13.936
11602W        W75546  11.771   7.794  14.938
11603W        W75547  36.476  42.009   2.762
11604W        W75548   1.337  30.006  11.520
11605W        W75549   5.711  29.456  11.076
11606W        W75550  43.427  16.743  10.947
11607W        W75551  31.931  25.480   5.299
11608W        W75552  20.628  30.425   2.879
11609W        W75553  34.036  18.276  14.401
11610W        W75554  43.361   3.954  13.802
11611W        W75555   6.848  32.027   0.923
11612W        W75556  16.593  31.072  13.893
11613W        W75557   6.700   7.343  13.374
11614W        W75558  22.690  24.550  11.043
11615W        W75559  44.392   5.829  11.977
11616W        W75560  14.628  37.833   2.295
11617W        W75561  30.592  31.466   2.399
11618W        W75562   2.464   6.217   0.334
11619W        W75563  26.189  15.644   4.354
11620W        W75564  41.809  12.196   2.672
11621W        W75565   2.737  40.844   3.193
11622W        W75566  24.512  37.342  11.590
11623W        W75567   1.290  27.102  11.906
11624W        W75568   2.856  31.124  13.015
11625W        W75569  28.000  29.011  10.606
11626W        W75570   3.326  41.382  12.397
11627W        W75571  44.939   8.722   4.763
11628W        W75572  38.513  22.183   4.136
11629W        W75573  22.232  15.607   3.362
11630W        W75574   3.329  38.508  13.940
11631W        W75575  11.153  26.667   4.353
11632W        W75576  23.565  28.666  12.503
11633W        W75577  32.010  16.085  11.572
11634W        W75578   4.259  26.100   2.408
11635W        W75579  38.026  39.407  14.390
11636W        W75580   2.311   1.767  11.873
11637W        W75581   4.358  17.573  12.345
11638W        W75582   9.212   1.958  13.351
11639W        W75583  15.159   7.241  10.149
11640W        W75584  28.475  17.687   0.327
11641W        W75585  38.357  39.921  11.473
11642W        W75586  28.483  20.142  12.360
11643W        W75587  21.738  44.968  13.398
11644W        W75588  35.364  18.555  10.409
11645W        W75589  31.635  26.583  14.378
11646W        W75590  40.818  28.087  12.033
11647W        W75591  30.564  15.749   4.243
11648W        W75592  38.413  13.659  14.903
11649W        W75593  30.479  17.204   0.340
11650W        W75594   7.854   5.371  11.478
11651W        W75595  40.036  18.119  12.559
11652W        W75596  31.924  36.066   4.170
11653W        W75597  10.321  32.098   4.324
11654W        W75598   0.371  27.113   0.324
11655W        W75599  42.970  32.538  14.355
11656W        W75600  36.579  18.556  13.808
11657W        W75601  35.389   0.912   0.338
11658W        W75602  29.649   0.336  12.529
11659W        W75603   7.860  16.783   4.349
11660W        W75604  41.831  21.095  11.926
11661W        W75605   9.859   0.854   5.115
11662W        W75606  24.484  15.133   3.241
11663W        W75607  27.523  23.656   4.677
11664W        W75608  34.435  26.459   3.273
11665W        W75609   9.771  35.436  10.486
11666W        W75610  18.698  11.627  10.423
11667W        W75611   2.302  21.747   3.722
11668W        W75612   1.326  25.682  13.456
11669W        W75613  26.204  31.074  11.911
11670W        W75614  24.017  39.392   3.630
11671W        W75615  11.842  19.626   2.207
11672W        W75616  13.120  29.641   1.402
11673W        W75617  34.514  29.155  13.381
11674W        W75618  37.453  35.384  13.816
11675W        W75619  18.093   4.294   4.237
11676W        W75620  37.031  14.126   0.469
11677W        W75621  14.726  32.053   4.318
11678W        W75622   2.309  31.987   4.788
11679W        W75623  25.981  10.863  11.106
11680W        W75624  38.400  24.490  14.805
11681W        W75625  29.122   3.236  10.980
11682W        W75626  29.945  43.434  12.542
11683W        W75627  17.742  44.264  12.823
11684W        W75628  44.926  34.577  14.432
11685W        W75629  31.113   5.274   3.386
11686W        W75630  27.036  35.873  14.510
11687W        W75631  20.607  19.132  10.441
11688W        W75632  13.208  28.049  12.034
11689W        W75633  32.975   3.221  12.990
11690W        W75634  34.420  28.519  13.018
11691W        W75635  43.346   4.703   2.283
11692W        W75636   4.373  44.850   0.360
11693W        W75637  36.482   2.453   1.210
11694W        W75638  28.022   0.470  14.514
11695W        W75639  31.980  18.761  11.545
11696W        W75640  41.377  25.518  12.493
11697W        W75641   8.808  29.957  12.486
11698W        W75642  17.800   7.879   0.745
11699W        W75643  22.520  24.088   3.684
11700W        W75644  25.618  14.184  13.362
11701W        W75645  22.540  10.238   1.364
11702W        W75646  44.287  33.081  10.441
11703W        W75647  17.792  22.099  11.981
11704W        W75648  34.390   2.781  11.927
11705W        W75649  13.242  24.984   2.755
11706W        W75650  17.114  14.196   4.314
11707W        W75651  26.538   3.796  14.388
11708W        W75652  12.678  14.168   0.326
11709W        W75653  20.273  10.158   4.113
11710W        W75654   0.934  38.515   1.373
11711W        W75655   6.765   3.838   2.780
11712W        W75656  30.476  34.390   0.441
11713W        W75657  42.976   8.840  11.601
11714W        W75658   8.856  25.994   0.964
11715W        W75659  29.495  41.838  12.354
11716W        W75660  40.532  30.969  14.762
11717W        W75661   3.243  18.248   4.272
11718W        W75662   4.316  23.655  11.485
11719W        W75663  12.347  20.217   4.186
11720W        W75664  42.450  15.313   2.668
11721W        W75665  19.571   3.899  14.790
11722W        W75666  38.549  39.053   4.308
11723W        W75667  20.706   8.203   0.946
11724W        W75668  15.751  15.113  13.547
11725W        W75669  14.127  14.282   2.770
11726W        W75670  17.665  21.601   2.375
11727W        W75671  24.175  20.207  13.457
11728W        W75672  42.981  26.514   5.131
11729W        W75673  40.310   7.188  13.958
11730W        W75674  28.161  16.733  14.918
11731W        W75675   4.775  11.239   2.728
11732W        W75676  42.294  28.497   3.269
11733W        W75677  35.963  27.665   1.898
11734W        W75678  19.160  12.259   2.270
11735W        W75679  41.374  33.445  10.592
11736W        W75680   4.877  41.938   3.642
11737W        W75681  42.432  14.775  11.867
11738W        W75682  16.654   4.892  14.409
11739W        W75683  15.086   3.715   3.751
11740W        W75684   1.836  25.613   4.748
11741W        W75685  24.564  37.952   2.805
11742W        W75686   7.909  19.711   4.157
11743W        W75687   4.274  41.936   3.764
11744W        W75688   4.727  30.557  12.900
11745W        W75689  38.039  44.949   4.705
11746W        W75690  38.378  14.228  13.983
11747W        W75691  29.440   3.415   0.787
11748W        W75692  21.603   0.744   0.417
11749W        W75693  25.202  26.562   4.191
11750W        W75694  20.559  25.572   4.165
11751W        W75695  25.605  33.410  12.389
11752W        W75696  22.702  35.104  14.864
11753W        W75697  14.750  34.899  12.513
11754W        W75698  15.235  43.418  12.033
11755W        W75699   0.870  42.793   2.403
11756W        W75700   9.853   4.914  13.322
11757W        W75701  42.356  13.320   3.290
11758W        W75702   1.854  28.566  14.484
11759W        W75703  33.875  24.132  12.360
11760W        W75704   0.782  37.895   0.396
11761W        W75705  15.781  19.257  13.958
11762W        W75706  27.114   3.245   1.358
11763W        W75707  29.093  39.033   1.747
11764W        W75708   4.719  37.000   5.312
11765W        W75709  14.692  33.548   2.384
11766W        W75710   7.750  14.755   1.436
11767W        W75711  13.228  24.033   9.962
11768W        W75712  33.526  43.304  11.600
11769W        W75713   7.175  21.182   5.088
11770W        W75714  12.324  28.129  12.996
11771W        W75715  42.998  13.186   3.720
11772W        W75716  21.170  32.435   1.722
11773W        W75717  12.758  26.541   2.258
11774W        W75718  37.503  13.810  10.957
11775W        W75719  38.561  26.148  10.535
11776W        W75720  38.521  32.896   3.798
11777W        W75721  35.376  18.118  11.012
11778W        W75722   0.765  35.011  10.942
11779W        W75723  21.230  23.171  11.945
11780W        W75724   7.258  30.113   4.169
11781W        W75725  16.205  22.246   4.770
11782W        W75726   6.696  42.775  12.472
11783W        W75727   0.840  23.024   3.311
11784W        W75728  13.198   3.746  11.456
11785W        W75729   4.919  14.722   3.161
11786W        W75730  14.259  36.924  10.925
11787W        W75731   4.834  21.037   5.165
11788W        W75732  35.575  34.118   1.361
11789W        W75733  24.209  37.066  13.456
11790W        W75734  36.092  33.096  13.338
11791W        W75735  32.596  36.005  11.605
11792W        W75736  23.129  42.415  12.866
11793W        W75737   2.762  27.161  11.392
11794W        W75738  41.395  39.480  10.942
11795W        W75739  23.107  41.989  11.860
11796W        W75740  38.058   7.800  10.551
11797W        W75741   7.414  25.586  14.315
11798W        W75742  17.747  18.675   0.290
11799W        W75743  11.862  19.082   0.751
11800W        W75744  41.834  29.552   2.871
11801W        W75745  41.369  19.572  12.875
11802W        W75746  23.173  13.267  12.374
11803W        W75747  44.887  29.535  10.503
11804W        W75748   2.266  26.183   4.288
11805W        W75749  44.332  11.748  10.909
11806W        W75750  42.405  20.152   3.775
11807W        W75751  30.515   2.965  11.598
11808W        W75752  23.115  16.314   0.921
11809W        W75753  20.189  10.366   3.302
11810W        W75754  13.701  36.906   0.344
11811W        W75755  38.461  17.682  13.920
11812W        W75756   2.398  10.372   2.758
11813W        W75757  39.841  33.496  11.015
11814W        W75758  23.117  17.738   1.750
11815W        W75759  17.154  30.536   5.150
11816W        W75760  32.446  37.925  10.545
11817W        W75761  14.287   6.827   1.928
11818W        W75762  43.386  17.084   4.175
11819W        W75763   4.876   5.894  11.438
11820W        W75764   6.861  42.896  10.410
11821W        W75765  24.220  24.507   0.451
11822W        W75766  31.555  16.735   1.783
11823W        W75767  17.700  31.433  13.500
11824W        W75768  21.150  34.068   4.345
11825W        W75769   6.394  38.854  12.032
11826W        W75770   2.437   0.803  10.155
11827W        W75771  18.620  35.581  14.014
11828W        W75772  41.036  27.679  14.011
11829W        W75773   6.694   2.311   1.440
11830W        W75774  19.221   1.906  13.983
11831W        W75775  44.953  21.518  14.023
11832W        W75776  39.426  25.529  13.914
11833W        W75777  27.054  21.177  11.416
11834W        W75778  44.287  36.861   4.770
11835W        W75779   4.297  43.853  13.368
11836W        W75780  17.156  30.009  12.400
11837W        W75781   0.891  34.496  12.064
11838W        W75782  21.021  23.610   3.843
11839W        W75783  25.558  35.857   0.819
11840W        W75784   3.359   6.850   2.886
11841W        W75785  38.541  33.476   1.924
11842W        W75786  26.467   7.847   3.861
11843W        W75787  31.051  44.264  10.547
11844W        W75788   4.766  26.007  13.522
11845W        W75789  17.780  16.082   2.726
11846W        W75790  18.259   0.274  13.904
11847W        W75791  15.730   6.416  10.944
11848W        W75792  16.082  31.435  12.964
11849W        W75793  20.655   8.403   1.350
11850W        W75794  17.594   4.928  13.887
11851W        W75795  28.982  23.668  13.378
11852W        W75796  10.734  20.092   3.369
11853W        W75797  23.044  26.049  12.952
11854W        W75798  36.408  20.645  14.021
11855W        W75799  30.569  34.493  14.403
11856W        W75800  12.218  17.168   4.321
11857W        W75801   1.428  33.515   4.266
11858W        W75802   2.864  15.159   3.784
11859W        W75803  41.433   7.690   4.176
11860W        W75804  23.055  37.864   1.253
11861W        W75805  16.173  31.482   2.799
11862W        W75806  18.279  28.004  10.528
11863W        W75807   5.713  23.003  13.323
11864W        W75808  28.462  40.809  11.040
11865W        W75809  32.577  17.287   4.640
11866W        W75810  19.111  16.106   1.717
11867W        W75811  43.303  18.689   1.918
11868W        W75812  41.847  36.030  14.275
11869W        W75813  38.991  39.442   0.432
11870W        W75814  24.223  39.868   1.807
11871W        W75815  20.623  34.871   3.377
11872W        W75816  12.723  25.628   1.343
11873W        W75817  31.923  26.050   1.267
11874W        W75818  11.285   1.358   1.766
11875W        W75819  43.407   1.438   3.199
11876W        W75820  36.376  39.362  14.446
11877W        W75821  14.772  25.037  11.091
11878W        W75822  35.061   1.424   2.711
11879W        W75823  12.296  17.077  11.028
11880W        W75824  34.983  12.187  13.946
11881W        W75825  25.086  42.795   9.956
11882W        W75826   0.837  37.382  12.471
11883W        W75827  35.094  18.615  14.982
11884W        W75828   2.759   2.919  14.804
11885W        W75829   2.415  39.044   2.683
11886W        W75830  10.173   4.910   1.896
11887W        W75831  15.223  32.121  11.903
11888W        W75832  13.756   2.957   2.885
11889W        W75833  35.468  44.760   2.836
11890W        W75834  12.329  28.968   2.669
11891W        W75835  21.090  39.559   3.798
11892W        W75836  25.536   4.782   3.769
11893W        W75837  25.494  36.022   0.248
11894W        W75838  15.148   2.806   3.181
11895W        W75839   3.858  25.471  11.454
11896W        W75840  33.517   5.897  13.387
11897W        W75841  21.548  23.096   2.182
11898W        W75842  37.365  24.679  14.949
11899W        W75843  16.228  37.493  12.020
11900W        W75844  37.020  15.237   4.195
11901W        W75845  40.371  17.180  12.093
11902W        W75846  13.160  18.770   0.284
11903W        W75847   8.277   4.374  13.459
11904W        W75848  21.715  36.067  10.411
11905W        W75849   7.904  44.944   3.263
11906W        W75850  38.385  29.447   1.913
11907W        W75851  27.042   5.900  13.516
11908W        W75852  40.375  19.173  12.973
11909W        W75853  12.118  12.304  11.583
11910W        W75854  37.835  16.175   1.369
11911W        W75855  30.556  13.811  14.827
11912W        W75856  38.456  33.992   4.182
11913W        W75857  30.022  18.633   0.420
11914W        W75858  25.693  15.088  10.943
11915W        W75859  43.016  40.861  14.343
11916W        W75860   5.399  13.793   4.759
11917W        W75861  28.973  33.988   0.750
11918W        W75862   2.307  26.952  14.423
11919W        W75863  20.184  29.977  11.062
11920W        W75864  27.483  14.596  13.473
11921W        W75865  10.775   8.728  13.532
11922W        W75866  18.262  13.301  12.564
11923W        W75867  37.530  13.657  12.072
11924W        W75868   4.886  30.032   0.334
11925W        W75869  44.388  22.020   3.217
11926W        W75870  43.993   8.795  10.462
11927W        W75871  35.963  26.610   2.264
11928W        W75872   0.864  36.559   0.912
11929W        W75873  19.626  37.001  12.032
11930W        W75874  13.318  39.964  11.512
11931W        W75875   3.867  29.434  10.947
11932W        W75876  18.215  26.048   5.176
11933W        W75877  16.620   3.953   4.807
11934W        W75878  26.088   3.371   5.147
11935W        W75879  38.386  42.881   4.305
11936W        W75880   2.383   2.964  12.898
11937W        W75881  15.821  44.307   0.785
11938W        W75882  38.332  40.365   0.291
11939W        W75883   0.405  22.185   4.342
11940W        W75884  14.248  12.794   0.420
11941W        W75885   5.902  44.299  14.383
11942W        W75886  39.879  10.719   1.382
11943W        W75887  13.793  13.351   4.838
11944W        W75888   8.321   1.770  12.353
11945W        W75889  41.842  26.191   4.118
11946W        W75890  41.807  35.591   0.363
11947W        W75891  41.968   8.886  11.473
11948W        W75892  41.018   6.289  12.929
11949W        W75893  19.703   5.848  11.501
11950W        W75894  14.094  34.420   4.160
11951W        W75895  34.016  13.256   3.165
11952W        W75896  20.222  44.501   4.245
11953W        W75897   7.198  20.144  10.980
11954W        W75898  31.958  11.736   0.959
11955W        W75899   3.933  32.614   1.780
11956W        W75900   3.848   0.474   1.254
11957W        W75901  20.245  24.543  10.571
11958W        W75902  36.524  32.952   4.260
11959W        W75903  29.484  26.076  12.508
11960W        W75904  11.771  12.693  14.020
11961W        W75905  23.730  17.268  10.938
11962W        W75906  33.099   7.389  11.895
11963W        W75907   7.860  24.072  12.391
11964W        W75908   3.907  17.776  14.445
11965W        W75909  20.654  38.931   0.811
11966W        W75910  11.624   3.447  13.851
11967W        W75911  38.465  26.036  13.850
11968W        W75912  26.050  18.599   0.905
11969W        W75913  13.812  35.546  10.032
11970W        W75914   8.765  26.184  13.809
11971W        W75915  28.129  25.128   2.305
11972W        W75916  39.975  39.482  11.514
11973W        W75917   5.715  39.975   4.778
11974W        W75918   6.255  19.716  14.974
11975W        W75919  23.167   2.841  11.492
11976W        W75920  12.725  22.073  11.428
11977W        W75921   2.801  12.270   4.342
11978W        W75922  29.935  35.376  10.939
11979W        W75923  10.733  19.088   4.135
11980W        W75924  42.984  40.328   2.374
11981W        W75925  43.998  38.547   3.256
11982W        W75926  35.382  24.114  10.479
11983W        W75927  13.737  20.730  12.087
11984W        W75928  42.360   1.425   3.869
11985W        W75929  31.454  37.929   1.773
11986W        W75930  18.115  19.145  12.515
11987W        W75931  29.966  18.614   3.668
11988W        W75932   4.859  43.867  13.951
11989W        W75933   6.743  36.919   0.266
11990W        W75934  43.330  23.141  12.437
11991W        W75935  19.731  25.649   1.238
11992W        W75936  31.409  17.763   4.781
11993W        W75937  38.893  25.122   0.745
11994W        W75938  15.592  14.115   3.645
11995W        W75939  32.922  44.824  10.445
11996W        W75940  38.453  22.507  12.510
11997W        W75941  41.403   6.800   3.664
11998W        W75942  15.180  37.023  13.319
11999W        W75943  16.297  43.895  13.408
12000W        W75944  43.279  27.674  11.101
12001W        W75945  40.511  26.494  10.415
12002W        W75946  22.082  31.610   2.866
12003W        W75947   5.419   5.253  13.450
12004W        W75948  41.325  43.006  11.949
12005W        W75949  23.042  17.566   3.708
12006W        W75950  31.606  40.033  11.408
12007W        W75951   9.250  25.645  10.636
12008W        W75952  15.300  30.548   1.847
12009W        W75953  18.611  34.031  10.553
12010W        W75954   5.335   4.851  13.498
12011W        W75955  29.564  38.556  12.031
12012W        W75956   9.220   8.221   2.802
12013W        W75957  32.062  37.988   0.765
12014W        W75958  10.215   4.720  14.794
12015W        W75959   5.243  34.422   4.265
12016W        W75960   6.734  29.642  14.795
12017W        W75961  16.735  12.657   1.437
12018W        W75962  10.288   4.784  11.053
12019W        W75963  28.184  36.513  12.050
12020W        W75964   8.833  27.511   4.320
12021W        W75965  14.688  26.652   3.700
12022W        W75966  42.499   5.287  10.949
12023W        W75967  30.105  21.212  14.027
12024W        W75968   3.372  34.111  10.943
12025W        W75969  35.477   4.751  10.417
12026W        W75970  34.374   5.200  12.563
12027W        W75971  40.529  40.815   2.882
12028W        W75972  41.311  21.219  10.061
12029W        W75973  29.606  29.645  10.506
12030W        W75974   9.784  22.069  13.825
12031W        W75975  18.641   1.263   1.886
12032W        W75976   2.338  26.634   1.309
12033W        W75977  10.676  10.760  11.535
12034W        W75978  44.871   6.888  11.054
12035W        W75979  26.564  14.675  12.830
12036W        W75980  39.978  34.881  11.000
12037W        W75981  25.994  15.202  14.427
12038W        W75982  41.990  42.868   4.605
12039W        W75983  33.899  43.340   1.731
12040W        W75984  35.865  17.776  14.388
12041W        W75985  40.802  15.146  13.956
12042W        W75986  15.191  42.304   1.865
12043W        W75987  14.692  10.352  12.034
12044W        W75988  21.720   8.284   0.289
12045W        W75989  30.128  44.836   1.343
12046W        W75990  27.478   5.239   3.225
12047W        W75991  33.878   7.699   2.389
12048W        W75992  13.260  25.563  10.412
12049W        W75993  28.984  30.025  12.062
12050W        W75994  24.547   9.653  11.417
12051W        W75995  13.647  24.585  14.455
12052W        W75996  16.712  24.210  12.015
12053W        W75997   1.434   3.819  12.936
12054W        W75998  13.689  10.754  14.014
12055W        W75999  16.597   7.379  14.786
12056W        W76000  18.264  25.203   4.299
12057W        W76001   5.903   1.376   4.623
12058W        W76002  31.444  25.110  12.436
12059W        W76003   8.285  25.980  14.298
12060W        W76004  11.811  30.059  14.957
12061W        W76005  38.336  10.877  14.375
12062W        W76006  24.570  34.895  11.426
12063W        W76007  41.364  36.549   0.866
12064W        W76008  12.136  27.494  13.056
12065W        W76009  22.047  43.806  14.283
12066W        W76010  28.952   2.416  13.512
12067W        W76011  18.294  16.624   0.726
12068W        W76012  38.032   0.939   4.690
12069W        W76013  25.514  10.154   2.855
12070W        W76014  32.108  20.565  10.900
12071W        W76015  21.591  27.506  11.942
12072W        W76016  27.196   6.397  11.064
12073W        W76017  16.651   6.380  12.862
12074W        W76018   2.844  44.378  12.527
12075W        W76019  28.021  35.862  11.596
12076W        W76020  36.443  14.215   3.755
12077W        W76021  32.096  17.117  14.766
12078W        W76022  21.144  10.818   2.251
12079W        W76023  14.300  22.521  10.889
12080W        W76024  30.567  41.958   4.240
12081W        W76025  12.300  18.657  12.954
12082W        W76026  25.967  25.140  14.920
12083W        W76027  21.658   3.915   4.172
12084W        W76028   9.193  24.190   0.311
12085W        W76029  38.021  21.210  10.640
12086W        W76030   2.359  14.778   4.196
12087W        W76031  33.538  40.875   2.809
12088W        W76032   0.936   2.942  12.095
12089W        W76033  27.966  12.241  11.434
12090W        W76034  44.882  12.835   3.157
12091W        W76035  25.543   4.212   3.672
12092W        W76036  23.504  24.621   0.371
12093W        W76037  27.608  16.747  10.933
12094W        W76038  14.747  19.760  12.066
12095W        W76039  22.201   6.211  10.615
12096W        W76040   5.373  30.065  13.388
12097W        W76041   4.759  14.622  13.822
12098W        W76042   1.840  33.984   1.892
12099W        W76043  34.087  43.863   2.239
12100W        W76044  13.273   8.894  11.590
12101W        W76045   9.755   2.300   0.789
12102W        W76046  12.854  43.493  11.563
12103W        W76047  35.479  13.768   1.263
12104W        W76048  26.566  17.672   0.917
12105W        W76049  39.489  23.204  12.560
12106W        W76050  11.243  32.491  14.438
12107W        W76051  13.752  37.491  14.312
12108W        W76052   8.823  24.142  11.067
12109W        W76053  26.569  43.270   0.251
12110W        W76054  25.060  12.321   1.372
12111W        W76055  19.653  37.898   1.849
12112W        W76056  13.622  10.763  11.511
12113W        W76057  32.920  27.987  13.794
12114W        W76058  25.144  44.422  14.957
12115W        W76059  40.946  44.305   4.352
12116W        W76060  32.610  43.783  12.383
12117W        W76061  39.066  29.458  11.571
12118W        W76062  31.536  16.689   5.105
12119W        W76063  23.639  39.829   3.182
12120W        W76064   1.386  30.604   3.160
12121W        W76065  32.915  40.013   4.805
12122W        W76066  20.162  33.399  14.826
12123W        W76067   1.871   7.196  12.446
12124W        W76068  32.038   4.922   3.792
12125W        W76069  40.358  27.646   3.228
12126W        W76070  11.358   3.766  13.378
12127W        W76071  40.798  27.114   4.219
12128W        W76072  30.046   9.692  14.301
12129W        W76073  40.840  19.214  14.820
12130W        W76074  18.717  20.660   0.473
12131W        W76075  37.961  11.636  12.942
12132W        W76076  23.204  11.668  12.356
12133W        W76077   2.291  19.238  13.809
12134W        W76078   5.217  38.347   3.155
12135W        W76079  33.068  24.528  10.622
12136W        W76080  18.586   7.294   1.425
12137W        W76081  30.658  24.527  11.913
12138W        W76082  23.679  14.187  14.999
12139W        W76083  21.106  29.639   0.454
12140W        W76084  34.579  19.748   4.813
12141W        W76085  36.536  23.539   4.203
12142W        W76086  30.046   9.797  12.500
12143W        W76087  33.939  38.490   4.244
12144W        W76088  24.647  23.171  14.388
12145W        W76089  28.585   4.709   1.430
12146W        W76090  13.811  42.342   3.335
12147W        W76091   1.873   6.428  14.026
12148W        W76092  33.437   2.725  13.338
12149W        W76093  31.598  41.403  10.633
12150W        W76094  11.242   3.877  11.896
12151W        W76095  13.663  33.415   9.590
12152W        W76096  24.675  27.486  14.490
12153W        W76097  29.560  23.174   1.740
12154W        W76098  33.597  40.422   4.147
12155W        W76099  38.861   4.320   5.252
12156W        W76100  44.480   3.873  14.820
12157W        W76101  13.273   1.815  13.962
12158W        W76102  33.998  29.481   3.360
12159W        W76103   3.729   2.811  12.834
12160W        W76104   0.879  29.526  13.909
12161W        W76105  42.863  40.877  10.534
12162W        W76106  22.025  35.431  14.279
12163W        W76107   0.324  43.014   2.757
12164W        W76108   9.382  33.486   1.325
12165W        W76109  12.753  29.476  10.911
12166W        W76110   6.816  33.572   4.144
12167W        W76111  28.565   2.807   0.251
12168W        W76112  39.932   9.268   4.726
12169W        W76113  20.654  35.384  13.547
12170W        W76114   5.712  22.121  13.458
12171W        W76115  44.390  29.088  11.906
12172W        W76116  39.959  17.734   0.307
12173W        W76117  44.884  12.359  11.925
12174W        W76118  32.492   1.776   4.651
12175W        W76119  18.139  41.893   2.867
12176W        W76120  18.729  28.183   3.675
12177W        W76121  36.961   4.818   5.657
12178W        W76122   8.844  15.214  12.024
12179W        W76123  39.831  12.206  11.051
12180W        W76124   7.411  26.633   2.411
12181W        W76125  43.370  42.792   2.836
12182W        W76126  18.249   6.742  13.910
12183W        W76127   7.202  14.281   4.201
12184W        W76128  24.652   4.825  14.390
12185W        W76129  10.275  37.520   5.116
12186W        W76130  30.446  11.208  14.298
12187W        W76131  36.018   5.838  12.573
12188W        W76132  11.185  17.176   0.318
12189W        W76133   2.278  12.164   1.287
12190W        W76134  28.567  31.430  13.971
12191W        W76135   1.236  21.215   4.741
12192W        W76136  18.567  42.493   3.681
12193W        W76137  27.639  27.676  14.413
12194W        W76138  36.881  43.840   3.700
12195W        W76139   5.752  34.413  12.482
12196W        W76140  28.574   1.301  13.395
12197W        W76141  38.862  37.569  11.891
12198W        W76142  22.144  40.867  12.935
12199W        W76143  16.318  34.484  11.042
12200W        W76144  24.662  29.949  14.377
12201W        W76145   6.370  26.191   4.238
12202W        W76146  20.226  44.459  11.885
12203W        W76147  25.512   1.936  12.355
12204W        W76148  39.465   5.257   0.405
12205W        W76149   9.334  44.915   0.785
12206W        W76150   7.679   3.873  11.976
12207W        W76151  35.077   8.370   4.135
12208W        W76152  19.121  15.767   3.792
12209W        W76153  32.932  28.180   4.318
12210W        W76154   9.274  27.067   0.900
12211W        W76155   9.283  37.349  14.834
12212W        W76156  21.070  13.238   0.759
12213W        W76157  38.981   4.914   5.101
12214W        W76158  44.268  18.246  11.031
12215W        W76159  12.146  34.889   1.264
12216W        W76160  35.364   4.219   2.352
12217W        W76161  11.332  11.355   3.754
12218W        W76162  26.481  28.519  13.542
12219W        W76163  44.893   3.279  14.505
12220W        W76164  14.624  17.065   2.800
12221W        W76165   5.816   4.344   2.712
12222W        W76166  16.652  12.172  13.523
12223W        W76167  17.749  19.125  13.807
12224W        W76168  43.784  30.150  13.315
12225W        W76169   0.403  31.053   0.774
12226W        W76170  27.133  12.719   2.773
12227W        W76171  26.461  18.790   3.811
12228W        W76172   4.238  39.022  14.957
12229W        W76173  37.944  22.652  11.020
12230W        W76174  19.256  21.576  13.996
12231W        W76175  16.665  44.459  14.825
12232W        W76176  22.095  15.819   0.446
12233W        W76177  23.606   9.272  12.932
12234W        W76178   9.701  37.401   0.406
12235W        W76179  14.175  11.147   3.709
12236W        W76180  26.637  42.915   3.258
12237W        W76181  29.596   5.385  13.803
12238W        W76182  42.910  12.272   4.124
12239W        W76183   6.737   6.291  11.479
12240W        W76184  32.426  30.647   0.738
12241W        W76185  35.473  23.016  13.410
12242W        W76186   5.903  42.800  11.961
12243W        W76187  30.611  23.050   1.879
12244W        W76188  24.685  20.622   1.859
12245W        W76189  37.335   8.811  13.919
12246W        W76190   8.790  16.086  13.028
12247W        W76191  27.942   5.256   2.353
12248W        W76192  28.569  35.570   3.267
12249W        W76193  15.809   2.460   3.240
12250W        W76194  42.327  43.913  12.457
12251W        W76195  18.587  33.059   2.785
12252W        W76196   6.312  40.481   3.730
12253W        W76197  21.644  39.899  13.813
12254W        W76198   8.831   1.421  13.311
12255W        W76199  30.161  35.495  12.508
12256W        W76200  20.200  32.059  13.835
12257W        W76201  14.733  44.909   4.171
12258W        W76202  44.400   1.952   3.720
12259W        W76203  19.736  33.938   3.765
12260W        W76204   2.813  22.089   0.336
12261W        W76205  31.605  36.358   1.249
12262W        W76206   5.313  24.109   0.268
12263W        W76207  36.916  38.503  13.932
12264W        W76208  13.630  30.030  12.386
12265W        W76209  22.218  21.111   1.414
12266W        W76210  18.594  15.709  11.878
12267W        W76211  33.496  25.601   3.782
12268W        W76212  18.084  15.697   1.217
12269W        W76213  19.161  21.723   1.781
12270W        W76214  35.601  30.956   3.387
12271W        W76215  37.416  19.115  11.943
12272W        W76216  21.171  30.622   3.179
12273W        W76217  28.176  10.253   4.197
12274W        W76218  10.328  39.502   4.686
12275W        W76219  21.753  10.731   2.875
12276W        W76220  35.474  38.335  13.042
12277W        W76221   7.314  20.035  11.395
12278W        W76222   9.232  43.364  12.340
12279W        W76223  30.588  17.583  12.358
12280W        W76224  16.628   9.875   2.235
12281W        W76225  37.364  12.214   4.711
12282W        W76226  34.371   2.888   1.903
12283W        W76227  32.090  15.306  10.135
12284W        W76228  38.442  36.999   3.346
12285W        W76229  25.565  10.329   2.376
12286W        W76230  42.949  37.449  12.833
12287W        W76231   6.832  13.652  11.545
12288W        W76232  10.680  12.175   1.265
12289W        W76233  38.011  18.108  13.384
12290W        W76234  15.272  14.806  10.518
12291W        W76235  31.008  28.526  12.988
12292W        W76236  11.739  44.773  12.358
12293W        W76237  21.141  37.531   4.665
12294W        W76238   6.403  28.521  14.871
12295W        W76239  10.148   1.817  11.613
12296W        W76240  15.324  16.266  11.452
12297W        W76241  20.544   0.880   2.210
12298W        W76242  34.975  34.089  11.412
12299W        W76243  32.094  44.871  12.945
12300W        W76244  41.795  17.666  12.357
12301W        W76245  22.184  43.282   0.281
12302W        W76246  17.756  19.581   2.721
12303W        W76247  25.706  17.652   3.252
12304W        W76248  22.517   7.398   3.281
12305W        W76249   5.277  42.304  14.479
12306W        W76250  41.979  35.450  13.343
12307W        W76251  28.621  25.713   4.714
12308W        W76252  27.640  40.340   3.312
12309W        W76253  10.863  36.579  12.492
12310W        W76254  44.935  31.609  14.008
12311W        W76255  35.989  21.084  12.545
12312W        W76256  27.546  39.361   3.757
12313W        W76257  10.656  40.979   0.841
12314W        W76258  42.315  41.960  12.070
12315W        W76259   3.390  37.389  14.367
12316W        W76260  39.319   2.806   5.115
12317W        W76261  35.448  42.949  11.391
12318W        W76262   3.235  28.476   1.826
12319W        W76263  18.657   2.299  13.433
12320W        W76264  41.917   0.967   1.894
12321W        W76265  11.271  12.211  13.994
12322W        W76266  20.614   6.329  10.413
12323W        W76267  33.087  23.715  11.121
12324W        W76268  35.602   7.187   2.801
12325W        W76269   2.786  34.389  12.358
12326W        W76270  42.353  32.426  11.379
12327W        W76271  36.959  37.429   4.605
12328W        W76272   9.300  28.522  11.555
12329W        W76273  40.802  35.090   3.833
12330W        W76274  36.994  14.169   4.195
12331W        W76275  15.230  44.458   4.181
12332W        W76276   7.823  41.354  10.139
12333W        W76277   4.726  17.792   0.332
12334W        W76278  13.732   3.738   9.951
12335W        W76279   9.789  33.512  10.644
12336W        W76280  43.333  24.206   2.315
12337W        W76281   1.265  40.426  10.904
12338W        W76282   0.414  43.288   2.830
12339W        W76283  38.388   3.889   1.911
12340W        W76284  24.684  33.969  11.060
12341W        W76285  38.909  14.155  12.057
12342W        W76286  19.568  24.077   4.262
12343W        W76287  38.510  41.496   0.266
12344W        W76288  23.209  28.060  12.550
12345W        W76289  18.551  17.181   4.224
12346W        W76290  44.897  17.148  13.321
12347W        W76291  36.431  14.230   3.226
12348W        W76292  25.624  19.605  12.458
12349W        W76293   9.787   8.848   2.791
12350W        W76294  39.870  33.953   3.275
12351W        W76295  13.602  26.037  14.280
12352W        W76296  21.579  22.606   9.931
12353W        W76297  13.132  36.896  10.605
12354W        W76298  38.933  36.462   0.823
12355W        W76299  35.051  39.000   2.795
12356W        W76300  42.796  33.059   3.852
12357W        W76301  30.420   5.865   1.726
12358W        W76302   9.154  35.378  13.410
12359W        W76303  29.138   6.831   4.153
12360W        W76304  35.512  33.102  12.054
12361W        W76305  15.198  33.950  14.336
12362W        W76306  20.754  34.114  11.007
12363W        W76307  34.019   1.938   4.169
12364W        W76308  32.968  40.814   1.773
12365W        W76309   8.219   9.267  11.947
12366W        W76310  37.558  17.632   0.957
12367W        W76311  34.055  35.555   4.294
12368W        W76312  11.169  20.261  13.955
12369W        W76313   6.817   8.201  13.839
12370W        W76314  21.020   3.367  11.862
12371W        W76315   3.907  40.368   3.221
12372W        W76316  15.199   6.885  11.890
12373W        W76317  40.968  43.802  12.520
12374W        W76318  28.090  14.602  13.395
12375W        W76319  41.301  29.470  11.605
12376W        W76320  33.610  16.810  13.467
12377W        W76321  30.979  28.631   2.336
12378W        W76322  42.891  17.683   2.255
12379W        W76323  38.369  27.053  12.437
12380W        W76324  21.232  24.143  14.346
12381W        W76325   4.777  23.562   0.933
12382W        W76326  36.885  37.970  13.794
12383W        W76327   0.838  17.219   3.316
12384W        W76328  16.224  23.211  13.800
12385W        W76329  23.712  14.694  12.949
12386W        W76330  35.512   9.349   1.804
12387W        W76331  30.008  22.502   1.767
12388W        W76332  14.650  44.996   5.258
12389W        W76333   3.842   2.827   1.340
12390W        W76334  19.544  13.308   3.321
12391W        W76335   4.296  44.858  11.524
12392W        W76336  35.957  17.070  12.418
12393W        W76337   1.257  34.087  14.001
12394W        W76338   5.891  36.545   2.744
12395W        W76339  21.611  23.662   4.217
12396W        W76340  38.492  22.023  12.498
12397W        W76341  12.295  32.066  11.938
12398W        W76342   8.685  24.034  14.896
12399W        W76343  24.610  23.075  12.985
12400W        W76344  29.551  10.712   3.160
12401W        W76345  38.071  16.244  14.797
12402W        W76346  37.016  36.367  14.460
12403W        W76347   0.348  20.642   0.473
12404W        W76348  25.047  40.995  11.518
12405W        W76349  39.977   1.967  14.941
12406W        W76350  43.766  44.372  12.855
12407W        W76351  39.982  22.046   2.884
12408W        W76352  19.074   7.701  13.445
12409W        W76353  36.985  17.267  14.808
12410W        W76354  13.757  17.721   2.718
12411W        W76355  27.118  23.081   1.236
12412W        W76356  39.817  31.599  13.475
12413W        W76357  35.417   6.199   1.429
12414W        W76358  44.478  42.992  13.337
12415W        W76359   7.670  22.590  11.935
12416W        W76360  25.471  43.802  13.027
12417W        W76361  15.300  27.465  11.929
12418W        W76362  17.634   7.390   3.741
12419W        W76363  20.678  14.626   2.282
12420W        W76364   4.289   0.806   2.700
12421W        W76365  16.609  28.655  12.362
12422W        W76366  20.273  30.140  14.359
12423W        W76367   3.353   5.334  14.452
12424W        W76368  20.738  10.345  11.050
12425W        W76369   6.367  17.095  12.983
12426W        W76370   8.881   5.687  11.591
12427W        W76371   1.810  20.744  14.789
12428W        W76372   0.797   3.403   1.879
12429W        W76373  26.509  41.896   2.674
12430W        W76374  23.625  37.017   0.941
12431W        W76375  15.162  31.015  11.504
12432W        W76376  15.307  14.594  12.084
12433W        W76377  17.062   6.783  13.840
12434W        W76378  17.158  29.557   1.216
12435W        W76379   2.805  41.428   2.787
12436W        W76380  17.740  19.701   2.224
12437W        W76381  25.557  40.799   3.203
12438W        W76382  32.507   8.710  14.776
12439W        W76383  11.312  36.415  10.592
12440W        W76384  15.595  30.590   2.303
12441W        W76385   6.367  18.665   2.894
12442W        W76386  12.675   6.273  11.081
12443W        W76387   6.293  25.469  10.544
12444W        W76388   2.749   8.884   0.796
12445W        W76389  34.576  25.168  14.500
12446W        W76390  34.071   1.757  14.899
12447W        W76391  15.728  42.902  10.145
12448W        W76392  18.791  16.163  13.364
12449W        W76393   3.914  34.864  12.089
12450W        W76394  15.174  35.051  13.031
12451W        W76395  17.709  43.920   2.858
12452W        W76396  36.946  20.537  12.498
12453W        W76397  17.637  33.078   4.226
12454W        W76398  19.041  40.910  12.882
12455W        W76399   4.310  43.927  13.851
12456W        W76400  32.033  17.213  12.384
12457W        W76401  12.142  13.293  14.785
12458W        W76402  43.973  11.214  11.076
12459W        W76403  39.556  43.404   0.846
12460W        W76404  28.104   7.397   0.820
12461W        W76405  17.777  44.871  12.474
12462W        W76406  15.322  43.822   4.353
12463W        W76407  29.634   6.383   0.748
12464W        W76408   3.316  16.628  11.546
12465W        W76409  14.699  21.053   4.613
12466W        W76410   7.170  36.536  12.857
12467W        W76411  29.162  43.505   9.505
12468W        W76412  36.398  31.587   4.758
12469W        W76413  32.091  35.876  14.474
12470W        W76414  32.574  36.863  12.491
12471W        W76415  41.375  12.759   4.783
12472W        W76416  44.373  40.326   1.410
12473W        W76417  17.193  42.775   3.785
12474W        W76418  43.846  22.588   4.121
12475W        W76419  28.132  37.545  14.830
12476W        W76420  44.778  17.265   2.880
12477W        W76421   7.391  21.060   9.956
12478W        W76422  19.568  39.395  10.901
12479W        W76423   8.397  26.482   2.242
12480W        W76424   9.273  29.143  12.967
12481W        W76425  19.085  18.081   2.323
12482W        W76426  33.434   7.365  11.040
12483W        W76427  32.451   2.956  14.276
12484W        W76428  20.745   7.212   3.262
12485W        W76429  35.981  11.299  12.484
12486W        W76430   8.215   9.230   2.789
12487W        W76431  26.072   4.426   1.294
12488W        W76432  39.394   0.858   4.152
12489W        W76433  32.543  28.490  13.462
12490W        W76434  23.707   6.428  13.041
12491W        W76435   8.866  18.649   5.702
12492W        W76436   2.439  19.627  11.933
12493W        W76437  31.150   3.314  14.809
12494W        W76438  16.800  29.145  11.608
12495W        W76439  35.028  23.637   4.199
12496W        W76440   2.885  40.465  14.464
12497W        W76441  10.803   7.304   5.220
12498W        W76442  37.526  44.763   1.854
12499W        W76443  16.315  11.724  14.976
12500W        W76444  16.594   0.787  11.112
12501W        W76445   0.397  44.911  14.361
12502W        W76446  23.128  40.387   0.468
12503W        W76447  28.629  18.643   4.791
12504W        W76448   0.438  14.196  11.469
12505W        W76449  31.495   0.949  10.896
12506W        W76450  32.992  38.067   0.818
12507W        W76451  11.708   3.833  11.577
12508W        W76452  17.145  19.257  11.372
12509W        W76453  14.104  19.739  10.919
12510W        W76454   4.776  42.781  13.450
12511W        W76455  27.454   3.396  11.902
12512W        W76456  18.270  35.361   2.744
12513W        W76457  21.163   2.275  14.909
12514W        W76458   4.871  39.353   0.918
12515W        W76459  39.477  15.616  11.493
12516W        W76460  41.532   5.716   0.914
12517W        W76461   0.888  18.052  13.512
12518W        W76462  15.258  28.167  13.871
12519W        W76463  21.180  18.562   3.718
12520W        W76464  11.723  21.127   4.271
12521W        W76465  23.584  25.641   3.706
12522W        W76466  26.976  13.778   3.381
12523W        W76467  31.926  20.524  14.823
12524W        W76468  32.607  14.155   3.783
12525W        W76469  26.178  19.761  12.835
12526W        W76470  21.216  24.209   0.329
12527W        W76471  11.296   7.415   4.723
12528W        W76472  40.800  28.065   4.613
12529W        W76473   1.254  21.177  11.421
12530W        W76474  17.099   6.756   3.370
12531W        W76475  44.832  41.316   2.283
12532W        W76476  27.646   2.437   1.871
12533W        W76477  12.837  30.476   0.935
12534W        W76478  24.665  23.000  11.080
12535W        W76479   9.701   8.877  10.607
12536W        W76480   5.331   1.442  14.968
12537W        W76481  22.517  36.441  11.919
12538W        W76482   6.275  31.072  11.448
12539W        W76483  38.514  42.407  14.881
12540W        W76484  41.376   6.820   1.920
12541W        W76485  41.997  42.876   5.246
12542W        W76486  19.730  21.116   0.897
12543W        W76487  35.006  33.085   2.850
12544W        W76488  28.586  40.801  10.567
12545W        W76489   6.878  12.619   4.832
12546W        W76490  17.257  44.504  11.127
12547W        W76491  20.240  27.518   4.710
12548W        W76492  30.512  18.755   9.934
12549W        W76493  10.639  40.024  12.483
12550W        W76494  39.048  37.904   3.174
12551W        W76495  25.697  15.676  14.007
12552W        W76496  20.264  19.280  11.929
12553W        W76497   1.845  28.026   1.870
12554W        W76498  14.826  25.042   1.351
12555W        W76499  34.472  19.660   0.864
12556W        W76500  24.114  19.115   4.246
12557W        W76501   6.415  34.967  11.532
12558W        W76502  39.028   5.779   1.240
12559W        W76503   8.397  15.587   3.163
12560W        W76504  12.163  14.123   2.784
12561W        W76505  16.674   5.375   1.335
12562W        W76506  44.472   9.295  10.909
12563W        W76507  39.912   4.298   1.715
12564W        W76508  22.519  41.920   9.951
12565W        W76509   9.752   2.785  13.537
12566W        W76510  40.386  21.531  14.900
12567W        W76511  11.739  13.185  10.915
12568W        W76512  40.027  12.154  12.959
12569W        W76513   2.425  29.081   1.308
12570W        W76514  24.724  12.690   0.799
12571W        W76515  24.559  23.575  10.523
12572W        W76516  24.698   2.379  12.506
12573W        W76517  44.962  10.369  11.921
12574W        W76518  21.063  44.982  14.338
12575W        W76519  27.541  10.266  12.035
12576W        W76520   1.387  11.345   2.884
12577W        W76521   4.771   7.246   2.197
12578W        W76522  12.625  28.134   3.298
12579W        W76523   3.300   0.450  12.096
12580W        W76524   1.850   9.323  10.025
12581W        W76525  41.450  41.432  12.856
12582W        W76526  13.286  16.072  11.992
12583W        W76527  42.414  30.652  12.992
12584W        W76528  21.712   7.780  14.868
12585W        W76529  11.240  11.195  14.872
12586W        W76530  12.221  31.633  14.806
12587W        W76531  39.809  38.886   0.445
12588W        W76532  27.489   8.258   2.299
12589W        W76533  22.578  42.881  13.953
12590W        W76534   5.841   2.773  11.108
12591W        W76535   4.719  23.170  11.916
12592W        W76536   6.210  35.022   2.246
12593W        W76537  26.492   2.275  13.897
12594W        W76538  27.016   2.814  12.968
12595W        W76539  10.140  26.655   1.895
12596W        W76540   1.261  42.449   1.299
12597W        W76541  18.080  34.371   3.203
12598W        W76542   1.289  36.493  13.834
12599W        W76543  22.706  26.487  14.846
12600W        W76544  22.203  34.439   4.354
12601W        W76545  40.833   3.808   4.182
12602W        W76546  10.718  27.663  12.504
12603W        W76547  23.555  16.719   1.736
12604W        W76548   7.694  33.904  13.903
12605W        W76549  42.032  18.123   1.240
12606W        W76550   3.714   3.380   4.812
12607W        W76551  13.614  29.101   4.274
12608W        W76552   6.332   7.214   1.439
12609W        W76553  37.387  42.351   4.681
12610W        W76554   5.873   5.864  10.896
12611W        W76555   2.921  27.054   0.740
12612W        W76556  39.406  37.504  11.424
12613W        W76557  38.556  37.442   3.377
12614W        W76558   1.848  30.417  12.542
12615W        W76559  24.079  28.592   0.862
12616W        W76560  36.039  36.379   3.217
12617W        W76561  15.087  35.069   4.119
12618W        W76562  17.715  33.622   0.799
12619W        W76563  26.098  40.441  13.034
12620W        W76564  16.283  19.576   5.107
12621W        W76565  33.477  29.666  10.151
12622W        W76566  17.264  14.099   9.935
12623W        W76567   0.981  29.924  11.575
12624W        W76568   9.850  43.305  12.985
12625W        W76569  11.668  20.228  11.113
12626W        W76570  10.170   8.659  11.064
12627W        W76571   2.333   9.283   2.278
12628W        W76572  12.339   6.231   2.365
12629W        W76573  16.202   9.305   4.756
12630W        W76574  44.361   3.341   3.751
12631W        W76575  20.625  29.514  13.520
12632W        W76576  12.675   2.454  10.995
12633W        W76577  10.680   5.334   0.323
12634W        W76578  15.658   1.815  14.930
12635W        W76579  40.324  12.679  11.030
12636W        W76580  29.034  30.029   4.182
12637W        W76581   4.255  36.961   2.414
12638W        W76582   2.253   9.154  14.006
12639W        W76583   4.841  28.101   3.695
12640W        W76584  26.959  43.971   3.697
12641W        W76585  38.878  15.170   1.262
12642W        W76586  13.285   4.926  12.548
12643W        W76587  17.687  24.483  13.392
12644W        W76588  44.268  32.502   5.307
12645W        W76589   1.827  28.952  12.084
12646W        W76590  16.222  26.510  10.544
12647W        W76591   3.854   9.765   2.328
12648W        W76592  22.223  14.183   0.422
12649W        W76593   6.368  12.657  10.105
12650W        W76594  14.172   7.258   3.186
12651W        W76595  37.489  16.089   4.199
12652W        W76596  37.471   7.188  14.911
12653W        W76597  30.653  31.543  11.516
12654W        W76598  20.037  36.013  11.869
12655W        W76599  11.203  39.946  11.536
12656W        W76600  44.753   3.765  14.303
12657W        W76601  24.549  38.841   0.953
12658W        W76602  29.013  22.633   3.725
12659W        W76603  21.160  16.085   3.254
12660W        W76604  17.098   9.373  10.635
12661W        W76605  15.152   2.345   2.749
12662W        W76606  30.999  18.152  13.502
12663W        W76607   7.203  25.049   4.625
12664W        W76608  34.894   0.952   3.181
12665W        W76609  29.138  39.558   2.691
12666W        W76610  34.584  15.126   4.255
12667W        W76611  14.654  15.731  10.058
12668W        W76612   8.169   5.904   2.782
12669W        W76613   8.313   0.279   2.840
12670W        W76614   3.313   6.866  12.901
12671W        W76615   3.346  41.369   3.775
12672W        W76616  31.082  24.716  11.919
12673W        W76617  34.065  24.201   0.438
12674W        W76618   9.885  34.073  12.467
12675W        W76619  43.013  44.327   3.246
12676W        W76620   5.322  41.360   1.409
12677W        W76621  37.881  18.576   0.449
12678W        W76622  20.077  32.559   3.338
12679W        W76623  27.954   0.937   0.896
12680W        W76624  34.092  23.022   3.662
12681W        W76625  34.514   3.358  13.806
12682W        W76626  39.835  23.231  14.399
12683W        W76627  32.401  15.708  12.420
12684W        W76628  42.916   2.915   4.808
12685W        W76629  23.058  11.828   0.446
12686W        W76630   5.770  40.912   1.721
12687W        W76631  28.647  38.438   5.196
12688W        W76632  43.987  35.561   1.216
12689W        W76633  28.647  13.742  10.950
12690W        W76634   6.248  30.592  11.055
12691W        W76635  29.999  10.224  11.519
12692W        W76636  34.943  12.823   1.429
12693W        W76637  26.102  27.483  14.275
12694W        W76638  37.907  18.272  12.890
12695W        W76639   1.408  31.612  11.535
12696W        W76640  40.821  21.190   0.402
12697W        W76641  29.153  36.425   0.448
12698W        W76642  43.460  43.008  13.370
12699W        W76643  32.017  37.411   5.209
12700W        W76644  14.285   3.385  14.002
12701W        W76645  14.104  11.654   3.652
12702W        W76646  30.964   7.903   1.322
12703W        W76647  30.477   1.331   2.419
12704W        W76648   7.188  10.852   3.248
12705W        W76649  29.424  23.143  13.893
12706W        W76650  20.617  35.569   3.340
12707W        W76651  37.396  33.417  12.381
12708W        W76652  11.176  28.613  12.395
12709W        W76653  15.155   5.878   0.478
12710W        W76654  24.230  14.178  10.583
12711W        W76655  26.018  30.429   2.858
12712W        W76656  40.023  20.527   1.913
12713W        W76657  33.607  28.626  11.929
12714W        W76658  10.228  37.350   4.629
12715W        W76659  18.648   1.299  12.547
12716W        W76660   6.206  24.719   2.854
12717W        W76661  42.997  33.575  12.556
12718W        W76662  22.037  38.479  14.841
12719W        W76663  34.434  22.560   0.443
12720W        W76664  36.590   8.293   4.336
12721W        W76665  29.553  11.733   4.791
12722W        W76666  37.006   9.197   3.325
12723W        W76667  41.509   9.348   0.262
12724W        W76668   5.212   9.685   3.773
12725W        W76669   6.208   2.377   3.674
12726W        W76670  11.170   2.763  12.980
12727W        W76671  10.213  10.359  14.899
12728W        W76672  36.347  26.014   4.774
12729W        W76673  40.304   0.444  10.427
12730W        W76674   9.301  18.165  11.572
12731W        W76675  40.366   0.769   0.734
12732W        W76676  44.466   3.840   3.854
12733W        W76677  18.089  16.204  14.954
12734W        W76678  35.976   3.766  12.859
12735W        W76679   6.386  22.179   4.180
12736W        W76680  14.712  15.151  12.496
12737W        W76681   6.324  37.530  14.468
12738W        W76682  33.928  12.846   0.922
12739W        W76683  19.757  44.465  11.115
12740W        W76684  39.474  23.238   4.207
12741W        W76685  12.751  15.220  13.370
12742W        W76686  41.537  33.528  13.344
12743W        W76687  21.132  12.719  14.291
12744W        W76688  24.480  10.837  12.890
12745W        W76689   8.263  41.878   1.351
12746W        W76690  30.490  28.947  14.901
12747W        W76691  31.623  25.665  14.958
12748W        W76692  16.649  12.246  13.847
12749W        W76693  30.125  10.863  13.823
12750W        W76694  19.620  27.967   3.217
12751W        W76695  42.953   6.762  12.410
12752W        W76696  40.455  39.443  14.788
12753W        W76697  21.592   2.949  14.391
12754W        W76698  18.698  17.768   1.823
12755W        W76699  23.577   8.215  14.415
12756W        W76700  12.329  23.735  12.884
12757W        W76701  23.628  20.737  11.534
12758W        W76702   2.458  26.602   2.248
12759W        W76703  43.340  17.233   1.300
12760W        W76704  32.975  38.511   4.237
12761W        W76705  40.303  44.853   0.894
12762W        W76706  31.437  19.215  13.996
12763W        W76707  21.651  39.535  13.454
12764W        W76708  21.088   2.281  13.500
12765W        W76709   3.430  44.868   0.916
12766W        W76710  11.665  31.058  14.910
12767W        W76711  36.517   7.760   1.882
12768W        W76712   1.375   3.232   4.263
12769W        W76713  26.565  35.072   4.604
12770W        W76714   8.274  41.042  14.461
12771W        W76715   8.288  44.967  14.972
12772W        W76716  21.224  38.952   2.714
12773W        W76717  32.583  37.860  12.390
12774W        W76718  42.994  41.316   1.432
12775W        W76719   6.196  11.360   2.712
12776W        W76720  26.540  38.519  11.563
12777W        W76721  21.041  33.404   1.229
12778W        W76722  28.447   2.842   0.739
12779W        W76723  13.266  30.020  12.382
12780W        W76724  31.477  11.130  11.887
12781W        W76725  32.904  25.990   0.376
12782W        W76726  24.984   3.280  12.054
12783W        W76727  19.113  21.059   0.420
12784W        W76728  18.689   2.924  14.949
12785W        W76729  35.582   8.357  12.974
12786W        W76730  33.387   5.850  10.039
12787W        W76731  18.592  19.631  11.474
12788W        W76732  30.025  11.240   3.315
12789W        W76733  43.497  23.027   4.354
12790W        W76734  42.411  14.655  14.028
12791W        W76735  24.173  24.657  12.900
12792W        W76736  37.067  34.464   2.762
12793W        W76737   4.724  32.961   1.327
12794W        W76738   7.295  30.540  13.055
12795W        W76739   6.920   7.793  10.907
12796W        W76740  42.997  25.594   3.846
12797W        W76741  28.534  38.919  13.872
12798W        W76742  31.490  28.112   4.266
12799W        W76743  43.940  42.330  12.897
12800W        W76744  34.099  28.658   1.708
12801W        W76745  35.547  35.400   0.257
12802W        W76746  39.560   9.316   2.416
12803W        W76747  38.836  15.205   0.897
12804W        W76748   6.255  10.866   2.756
12805W        W76749  16.078   6.735  11.493
12806W        W76750  26.173  29.090  10.445
12807W        W76751  29.597  34.450   0.343
12808W        W76752  27.601  19.279   0.810
12809W        W76753   0.443  23.218  12.520
12810W        W76754  38.986  40.935   1.698
12811W        W76755  27.522   0.483   0.330
12812W        W76756  27.015  38.458   1.829
12813W        W76757   2.266  25.017   1.877
12814W        W76758  38.961   8.665   4.312
12815W        W76759   2.375  21.711  12.053
12816W        W76760  42.982  43.493   1.847
12817W        W76761   4.812  19.600  13.991
12818W        W76762  25.514  26.089  12.440
12819W        W76763  18.600   0.440   0.309
12820W        W76764  12.808   5.416  13.010
12821W        W76765   0.907  20.584  12.502
12822W        W76766   5.363  28.090   0.809
12823W        W76767  11.347   6.257  11.903
12824W        W76768  13.170  41.880   3.844
12825W        W76769  33.896   5.279   1.344
12826W        W76770  24.104  11.857  13.956
12827W        W76771   1.399  40.354   1.765
12828W        W76772  28.014  42.985   0.796
12829W        W76773  25.526  42.009   5.156
12830W        W76774   8.792  44.002   4.793
12831W        W76775  17.254  25.671  13.821
12832W        W76776   1.775  41.455   1.778
12833W        W76777  31.521  37.046   4.620
12834W        W76778  34.537  23.115  11.566
12835W        W76779  26.190  26.646   0.355
12836W        W76780   2.733  19.615   4.621
12837W        W76781   9.341   6.328  10.030
12838W        W76782  30.563  41.902  14.976
12839W        W76783  35.402  40.028  13.856
12840W        W76784  28.029   5.783   1.859
12841W        W76785  13.776  43.399   3.275
12842W        W76786  25.548  13.247   0.730
12843W        W76787  22.594  26.991  12.448
12844W        W76788  18.059  19.092  13.799
12845W        W76789   2.418   2.831   3.769
12846W        W76790  37.943  18.277  10.890
12847W        W76791  43.316  37.884   4.614
12848W        W76792  23.107   5.247   1.345
12849W        W76793  35.870  35.943   0.446
12850W        W76794  36.070  31.634   0.928
12851W        W76795  37.950  14.591  11.127
12852W        W76796   2.736  17.764   0.392
12853W        W76797   3.260  15.614   2.410
12854W        W76798   6.814  27.481  14.445
12855W        W76799  25.699  32.994   0.807
12856W        W76800  40.506  26.497   3.336
12857W        W76801  24.052  29.443   3.320
12858W        W76802  29.570  10.653  11.421
12859W        W76803   0.889  35.428   4.655
12860W        W76804   7.369  35.476  12.423
12861W        W76805   9.693  37.022  12.522
12862W        W76806  44.388   3.783   0.777
12863W        W76807  11.130  35.855   0.343
12864W        W76808  41.416   0.967  13.918
12865W        W76809   8.266  17.095  14.288
12866W        W76810   1.267  34.437  12.843
12867W        W76811  16.686  16.081   4.799
12868W        W76812   9.804   7.785  13.861
12869W        W76813  27.504  12.257  11.093
12870W        W76814  13.282  11.135   0.938
12871W        W76815   9.360  28.169   2.737
12872W        W76816  23.602  11.631  11.569
12873W        W76817   2.248  25.116  14.975
12874W        W76818   1.731  19.069  11.972
12875W        W76819  40.352  29.007  10.462
12876W        W76820  41.999  20.254  14.514
12877W        W76821  28.585   6.388   2.401
12878W        W76822  15.756  12.308   2.193
12879W        W76823   9.343  31.538   3.373
12880W        W76824  30.565  44.295  13.997
12881W        W76825  11.692  23.501  13.928
12882W        W76826   3.866  37.029   4.654
12883W        W76827  32.067   5.814  14.761
12884W        W76828   4.349   3.396   0.828
12885W        W76829  21.171  21.153  12.041
12886W        W76830   7.816  40.905   2.235
12887W        W76831  37.868   6.292   3.690
12888W        W76832  17.086  30.143   2.285
12889W        W76833  29.509  39.321   3.783
12890W        W76834  10.193  29.169  11.879
12891W        W76835  39.060  40.421  14.412
12892W        W76836  30.147  28.628   4.307
12893W        W76837  18.587   7.728  11.111
12894W        W76838  42.000  24.710  13.963
12895W        W76839  40.338   4.803  10.487
12896W        W76840   9.158  30.430   5.646
12897W        W76841  27.982  25.988   0.468
12898W        W76842   7.405  15.749   9.657
12899W        W76843   9.700  12.741  10.426
12900W        W76844   1.743  25.495  11.565
12901W        W76845  17.671  14.157  13.420
12902W        W76846   6.842  44.373   0.898
12903W        W76847   1.896  24.133   1.769
12904W        W76848  31.127  42.978  12.947
12905W        W76849  20.150  42.285  12.998
12906W        W76850  33.451  42.299   1.796
12907W        W76851  38.004  17.775  13.424
12908W        W76852  25.216  40.977   1.807
12909W        W76853  38.441  35.864  13.923
12910W        W76854  15.179  26.970  13.922
12911W        W76855   8.193  36.355   3.741
12912W        W76856  39.028  23.075  13.995
12913W        W76857   5.774  19.772   1.344
12914W        W76858   1.844  42.907   0.776
12915W        W76859  36.442  24.161   4.353
12916W        W76860   4.205  32.421  11.871
12917W        W76861   3.777  18.709  14.785
12918W        W76862  35.541   9.802   0.292
12919W        W76863  26.099  39.452   2.203
12920W        W76864  23.064  20.563   4.745
12921W        W76865   5.398  14.309  14.823
12922W        W76866  28.469  39.840   0.861
12923W        W76867  22.030  43.980   1.863
12924W        W76868  22.530  29.998   1.217
12925W        W76869  16.775  24.492  13.377
12926W        W76870   2.930  16.616   3.767
12927W        W76871  18.094  39.475  12.887
12928W        W76872  43.921  22.589  11.560
12929W        W76873  37.888  26.594   4.286
12930W        W76874  21.568  32.573   1.337
12931W        W76875  44.388  18.684  11.523
12932W        W76876  24.494  16.689   3.345
12933W        W76877  44.381   2.835   0.929
12934W        W76878   9.165  36.393  13.056
12935W        W76879  19.179  11.329  14.947
12936W        W76880  21.742  27.642   4.335
12937W        W76881  17.244   3.352  14.437
12938W        W76882  16.749   6.813  14.788
12939W        W76883   6.187  14.751  12.445
12940W        W76884   7.188  27.087  13.926
12941W        W76885  27.642  29.982   2.359
12942W        W76886  38.874  33.398  14.983
12943W        W76887  43.480  31.598   1.315
12944W        W76888  18.772  31.026   1.356
12945W        W76889  21.535  23.013  10.911
12946W        W76890  16.268   2.952   4.778
12947W        W76891  40.350   1.392  12.548
12948W        W76892  28.591  42.282  13.439
12949W        W76893  18.631  11.285   0.786
12950W        W76894  29.146  38.064   1.719
12951W        W76895   8.662   0.272  14.332
12952W        W76896  12.826   6.276   4.325
12953W        W76897  19.237  19.250   0.937
12954W        W76898  32.016  44.287  13.895
12955W        W76899  42.377  14.820  12.522
12956W        W76900  21.157  33.885   4.688
12957W        W76901  38.027   5.824  11.117
12958W        W76902  17.644  19.051   4.204
12959W        W76903  12.842   2.944   4.313
12960W        W76904  23.058   9.872  13.026
12961W        W76905  12.710  44.805  14.858
12962W        W76906  16.687  33.436  11.543
12963W        W76907  26.183   7.381  14.023
12964W        W76908  24.202   2.821   1.736
12965W        W76909  43.328   4.779   1.708
12966W        W76910  12.201   7.842   2.788
12967W        W76911   9.172  13.326  10.581
12968W        W76912  36.403  43.809  11.088
12969W        W76913   9.753  42.470  11.597
12970W        W76914  20.211  22.145  10.537
12971W        W76915  23.064  11.356  13.367
12972W        W76916  13.265  29.087   4.150
12973W        W76917  26.524  14.314  12.045
12974W        W76918   6.380  10.862   3.745
12975W        W76919  36.857  31.066  10.413
12976W        W76920  29.168  25.683   0.904
12977W        W76921   5.413  40.305   4.792
12978W        W76922  42.945   0.957  12.388
12979W        W76923  27.192   5.844  10.977
12980W        W76924  43.468  44.261   1.399
12981W        W76925  10.790  34.120  12.058
12982W        W76926   4.255   7.680   4.241
12983W        W76927  27.161  30.536  11.495
12984W        W76928  24.527   7.417   1.253
12985W        W76929  44.312  21.681   3.184
12986W        W76930   7.379  37.042  13.858
12987W        W76931  42.307  44.382   0.355
12988W        W76932  29.654   6.217   5.086
12989W        W76933  15.306   7.801   1.427
12990W        W76934  11.643  15.168   9.965
12991W        W76935   7.903  19.044  14.986
12992W        W76936   6.384  11.754  13.044
12993W        W76937  14.663  38.533   2.237
12994W        W76938   9.795  37.996   1.738
12995W        W76939  36.417  21.050   4.664
12996W        W76940  22.680   6.407  13.384
12997W        W76941  30.454  12.351   2.875
12998W        W76942  40.009  44.996   2.820
12999W        W76943   3.252  11.307   1.824
13000W        W76944  38.035   6.912   4.123
13001W        W76945  44.371  43.484   1.447
13002W        W76946   0.251  17.615  14.317
13003W        W76947   7.749   0.430  12.893
13004W        W76948  10.288  40.872   0.247
13005W        W76949  43.872  41.375   4.774
13006W        W76950   0.439  20.699   4.707
13007W        W76951  37.562  34.532   3.851
13008W        W76952  12.132  16.212  14.961
13009W        W76953  23.627  36.939  14.991
13010W        W76954  30.125   0.841   0.453
13011W        W76955  30.000  22.237   3.325
13012W        W76956  17.581   6.364   4.801
13013W        W76957  35.404   3.347   2.729
13014W        W76958   7.780  20.714  10.449
13015W        W76959  10.254  26.123  10.644
13016W        W76960  26.101   0.374  14.280
13017W        W76961  36.587   0.789   4.273
13018W        W76962  42.322  39.943  10.991
13019W        W76963  34.597  36.353   3.813
13020W        W76964   2.266  31.126   2.860
13021W        W76965   5.829  44.851   3.205
13022W        W76966  13.790   6.777  14.981
13023W        W76967  17.287  44.850   1.880
13024W        W76968  19.773  34.510  11.485
13025W        W76969   2.351  11.830  11.523
13026W        W76970  30.163  40.492  13.922
13027W        W76971  36.567  19.746  12.971
13028W        W76972  21.631   0.369  12.539
13029W        W76973   4.913   5.326   1.852
13030W        W76974  40.512  30.627   3.328
13031W        W76975  26.464  33.935  12.051
13032W        W76976   8.307  15.196  10.122
13033W        W76977  14.259   0.920  12.368
13034W        W76978   6.283  12.168  13.425
13035W        W76979   0.301   1.319   1.707
13036W        W76980  31.006   1.942   2.775
13037W        W76981  28.163  32.470  12.980
13038W        W76982  36.400  28.166  11.006
13039W        W76983  44.338  25.028   5.199
13040W        W76984   1.291  43.501   3.690
13041W        W76985  41.786   3.245   3.318
13042W        W76986  26.059  21.607   4.637
13043W        W76987   1.942   2.310   2.714
13044W        W76988  38.540  37.412  11.964
13045W        W76989  22.549  39.338   3.803
13046W        W76990   5.912  19.661   0.733
13047W        W76991  20.247  12.239   4.346
13048W        W76992   6.383  27.676   3.673
13049W        W76993  35.525   6.322   2.868
13050W        W76994  40.859  26.557  11.930
13051W        W76995  41.537  36.394  11.967
13052W        W76996  18.746  30.046   2.842
13053W        W76997   5.334  25.550   0.868
13054W        W76998  16.277   1.844  11.025
13055W        W76999  12.267  32.430   2.821
13056W        W77000  37.510   8.793  10.101
13057W        W77001  33.609  14.784   2.729
13058W        W77002   9.846  43.432   1.721
13059W        W77003   4.389  35.041   1.724
13060W        W77004   5.855  21.694  13.877
13061W        W77005   8.194  22.635   2.214
13062W        W77006  23.704  11.630  12.066
13063W        W77007  36.085  14.266  12.039
13064W        W77008  44.315  44.270   4.655
13065W        W77009  35.376   6.700   3.670
13066W        W77010  40.393  29.100   4.660
13067W        W77011  25.013  13.249   0.815
13068W        W77012  33.558  27.655   0.869
13069W        W77013  43.843  39.847   2.279
13070W        W77014  22.028  40.040  10.887
13071W        W77015  11.356  16.294  12.993
13072W        W77016  43.303  19.066   1.247
13073W        W77017   1.361  17.674   4.248
13074W        W77018  20.228  43.361  10.506
13075W        W77019  31.450  19.581  12.345
13076W        W77020  39.375  33.565   4.650
13077W        W77021  10.353  32.529  12.431
13078W        W77022  17.126  39.361  10.621
13079W        W77023  23.003  44.304  10.063
13080W        W77024  17.635   3.749   3.698
13081W        W77025  22.007  24.989   0.879
13082W        W77026   2.735  22.668  11.544
13083W        W77027  10.831  15.670   5.706
13084W        W77028  30.547  12.162  12.060
13085W        W77029  18.667  37.848  12.055
13086W        W77030  18.106  24.057   1.791
13087W        W77031  40.358   4.212  13.462
13088W        W77032   5.367   7.235   4.618
13089W        W77033  32.555   0.303   2.726
13090W        W77034  35.430  32.078   2.238
13091W        W77035  40.426   6.224   0.388
13092W        W77036  39.530   5.265   5.637
13093W        W77037  29.929  15.096  10.910
13094W        W77038  20.063   3.763  14.874
13095W        W77039  37.409  24.567   1.883
13096W        W77040  26.060  14.298  11.584
13097W        W77041  33.599   2.274   3.347
13098W        W77042  38.935  36.962  11.605
13099W        W77043  20.129  27.671  14.907
13100W        W77044  11.848  42.806   3.820
13101W        W77045   2.276  38.931  12.874
13102W        W77046  22.705  31.999   4.617
13103W        W77047  14.110  10.636   4.818
13104W        W77048  20.694   5.333  13.337
13105W        W77049  27.071   1.328   1.895
13106W        W77050   0.409  17.641   0.828
13107W        W77051  44.333   6.297   4.154
13108W        W77052  16.251  43.857   4.802
13109W        W77053  26.620  39.449   1.787
13110W        W77054   2.276  16.246   3.851
13111W        W77055  26.539  27.598  11.054
13112W        W77056  44.392  41.915   1.254
13113W        W77057  24.162  43.328  12.404
13114W        W77058  36.545  43.335   3.779
13115W        W77059  39.880  28.478   1.425
13116W        W77060  18.275  13.152   1.829
13117W        W77061  13.610   4.414   4.142
13118W        W77062  19.656  21.198  11.421
13119W        W77063  33.979   5.746  11.584
13120W        W77064  32.916  28.567  11.091
13121W        W77065  26.628   5.783   3.211
13122W        W77066  31.048   7.358  11.403
13123W        W77067  14.183  17.779  13.814
13124W        W77068  30.527  36.426  13.833
13125W        W77069  32.573   4.243   0.430
13126W        W77070  36.586  41.406   5.174
13127W        W77071  32.081  18.276   4.628
13128W        W77072  12.167  35.910  14.766
13129W        W77073  27.595  27.151  12.926
13130W        W77074   8.379   5.310  12.962
13131W        W77075   3.793  34.049   0.411
13132W        W77076   1.954   7.366  13.887
13133W        W77077  44.424   2.382   4.751
13134W        W77078   4.784  44.358   9.966
13135W        W77079  30.908  27.133   2.779
13136W        W77080  32.569  13.822  13.961
13137W        W77081  15.798  34.946   3.858
13138W        W77082  21.687  27.577  11.031
13139W        W77083   3.884  26.471  14.457
13140W        W77084   2.265  13.206   0.257
13141W        W77085   9.775  34.922   2.286
13142W        W77086  12.263  13.244   3.723
13143W        W77087  10.232  29.163  14.444
13144W        W77088  43.807   3.907  11.509
13145W        W77089  40.047  32.599   0.442
13146W        W77090   9.655  15.816   1.804
13147W        W77091  11.142  17.671  14.956
13148W        W77092  38.073  29.526   0.820
13149W        W77093  40.503  35.886   3.369
13150W        W77094  24.117   9.678  14.878
13151W        W77095  10.818  28.059   5.132
13152W        W77096  40.908   5.733  10.556
13153W        W77097  38.901   8.250  12.361
13154W        W77098  23.059  32.903   1.926
13155W        W77099   9.373  33.976   4.225
13156W        W77100  28.497  18.171   2.837
13157W        W77101  35.938  43.366  10.983
13158W        W77102  28.068  16.089   3.685
13159W        W77103  14.771  42.340   3.838
13160W        W77104  22.091  43.982   4.157
13161W        W77105  44.319  42.516   1.298
13162W        W77106  26.132  35.538   3.158
13163W        W77107  38.894  42.843  14.819
13164W        W77108   2.296  30.971  13.408
13165W        W77109  35.909  28.619   3.245
13166W        W77110  40.833  28.168  11.417
13167W        W77111  11.135   7.374  11.948
13168W        W77112   4.918  10.212  14.013
13169W        W77113  20.650  37.048  10.632
13170W        W77114  41.019  22.055  14.809
13171W        W77115  44.004  20.183  14.790
13172W        W77116  30.582  18.280  12.958
13173W        W77117  23.206  37.025   2.731
13174W        W77118  34.376  20.178  12.367
13175W        W77119  35.880   8.224   1.405
13176W        W77120  18.719  29.531  12.004
13177W        W77121   4.897  39.536   2.311
13178W        W77122  40.843  36.441   0.839
13179W        W77123  26.068   6.749   0.257
13180W        W77124   9.656  43.778  13.394
13181W        W77125  14.741  42.966  12.346
13182W        W77126  16.302  10.255   4.722
13183W        W77127  13.123  44.433  13.050
13184W        W77128  40.379  25.607   4.346
13185W        W77129   0.323   1.744   3.821
13186W        W77130  14.215  19.760  12.522
13187W        W77131  25.127   0.909  13.385
13188W        W77132   8.348  36.443  12.477
13189W        W77133  37.870  43.487   4.271
13190W        W77134  42.353  15.623   4.735
13191W        W77135  32.933  16.804   3.347
13192W        W77136  30.420  19.263   0.810
13193W        W77137  29.565  30.523   4.164
13194W        W77138  44.302  20.675   1.818
13195W        W77139  12.685  25.650   2.379
13196W        W77140  42.492  27.968  13.445
13197W        W77141  30.417  33.009  13.490
13198W        W77142  30.482  35.969  11.885
13199W        W77143  26.114  44.001  13.378
13200W        W77144  30.029  14.827   0.926
13201W        W77145  15.199   9.815  14.298
13202W        W77146  21.545  35.595  12.898
13203W        W77147   7.839  24.478   2.669
13204W        W77148  22.243  26.539  12.373
13205W        W77149  37.963   5.424   2.264
13206W        W77150   6.186  39.362  14.411
13207W        W77151  40.336  32.988   1.811
13208W        W77152   2.737  31.609  11.419
13209W        W77153  41.391  22.230   2.705
13210W        W77154  27.054  28.136   0.820
13211W        W77155  36.473  35.917   9.960
13212W        W77156  26.622  25.029   2.200
13213W        W77157  13.273   6.833   2.734
13214W        W77158   7.875  44.327   3.313
13215W        W77159   7.883  23.714  12.527
13216W        W77160  20.723  16.238  14.000
13217W        W77161  31.962  30.148  14.359
13218W        W77162  35.009  37.955  14.396
13219W        W77163  34.460  25.586  11.081
13220W        W77164  19.766  25.133  11.407
13221W        W77165  25.071   3.781   4.184
13222W        W77166  27.494  25.685   4.813
13223W        W77167  44.937  21.021  11.888
13224W        W77168  31.493  22.066  13.935
13225W        W77169  21.104  38.378   2.902
13226W        W77170  31.918  14.616   4.795
13227W        W77171  11.135  12.736  12.522
13228W        W77172  26.703  19.237  12.019
13229W        W77173   0.423  10.276   2.412
13230W        W77174  14.107  31.971   2.177
13231W        W77175  18.659  36.558  14.471
13232W        W77176  42.349   3.736  12.569
13233W        W77177  33.419  22.702   4.237
13234W        W77178  35.860   6.723   0.799
13235W        W77179  15.787  25.519  13.896
13236W        W77180  21.068  32.486   0.426
13237W        W77181  22.726  39.974  10.444
13238W        W77182   2.776  12.131  14.840
13239W        W77183  12.265   7.771  11.403
13240W        W77184   0.340  26.063   3.147
13241W        W77185  37.872  20.605   3.749
13242W        W77186  41.363   6.256   0.463
13243W        W77187  43.408   1.833   4.647
13244W        W77188  22.131  19.278   0.408
13245W        W77189  21.717   4.724   1.805
13246W        W77190   3.879   5.902  12.351
13247W        W77191  35.093  43.362  12.504
13248W        W77192   9.387  18.290   1.776
13249W        W77193   1.237  23.100   1.287
13250W        W77194  44.395  20.661   1.263
13251W        W77195  33.389   9.769   1.822
13252W        W77196  23.605  32.570  13.899
13253W        W77197  11.856  13.186   1.450
13254W        W77198  38.883   3.417   3.327
13255W        W77199  36.865  28.450  13.977
13256W        W77200   1.479  22.037  11.101
13257W        W77201  40.962  29.550   3.261
13258W        W77202  24.081   4.845  11.406
13259W        W77203   1.273  43.791  13.891
13260W        W77204  11.233  24.604  13.339
13261W        W77205   2.727  14.219   1.704
13262W        W77206  24.208  41.875   1.290
13263W        W77207  28.075  22.507  12.554
13264W        W77208  40.503   9.880   1.745
13265W        W77209  34.532  29.544   0.763
13266W        W77210   9.245  23.079   0.942
13267W        W77211  10.696  44.496   4.278
13268W        W77212  34.428  30.959   3.739
13269W        W77213  37.370  30.146  11.450
13270W        W77214  38.065  20.753   3.151
13271W        W77215  16.625  13.106   2.382
13272W        W77216   7.854  14.096  12.877
13273W        W77217  28.490  27.597   1.293
13274W        W77218  28.562  27.172   0.805
13275W        W77219  40.820  40.975  10.913
13276W        W77220  16.296  23.596  14.857
13277W        W77221  29.642   1.406   1.433
13278W        W77222  34.386  42.472   4.621
13279W        W77223  28.534  31.574  10.497
13280W        W77224  31.420   6.393  11.893
13281W        W77225  34.923  39.398  11.879
13282W        W77226  25.583  15.600   5.090
13283W        W77227   7.300   9.728  11.862
13284W        W77228  11.276   9.814   1.451
13285W        W77229  36.850  15.310   3.855
13286W        W77230  12.613  29.166   4.684
13287W        W77231  18.110   7.205  12.577
13288W        W77232  35.008  11.346   2.390
13289W        W77233  37.499  25.050  12.058
13290W        W77234   3.342   9.356  13.507
13291W        W77235  18.566  18.636   1.237
13292W        W77236  43.395   5.343  10.640
13293W        W77237  26.630  32.944   3.736
13294W        W77238  17.734  34.523   0.939
13295W        W77239  36.423  16.582   3.314
13296W        W77240  14.202  42.935  10.605
13297W        W77241  10.257  17.783   5.298
13298W        W77242  19.744  14.680   1.766
13299W        W77243   6.766  27.603   0.399
13300W        W77244  20.045  34.390   3.294
13301W        W77245   9.821  39.975   4.197
13302W        W77246  18.172  14.233  11.083
13303W        W77247   8.660  17.086   0.760
13304W        W77248  40.825  18.225  13.429
13305W        W77249  34.030  31.605  13.897
13306W        W77250  33.901   4.300   3.358
13307W        W77251  15.581  17.139  11.074
13308W        W77252  40.534  43.487  12.491
13309W        W77253   2.887  28.589  10.484
13310W        W77254   4.444   2.472   3.845
13311W        W77255  34.080  38.502   0.483
13312W        W77256   7.722  24.074  10.479
13313W        W77257  26.197  40.002  12.019
13314W        W77258  26.647  42.383   2.372
13315W        W77259  34.494  29.080  11.416
13316W        W77260  18.626  42.498   0.295
13317W        W77261   9.709  37.005   1.927
13318W        W77262   2.846  39.846  11.910
13319W        W77263  10.205  35.594  13.926
13320W        W77264  12.337  27.163   4.667
13321W        W77265   4.822  25.191  12.365
13322W        W77266   7.745  41.835  11.882
13323W        W77267   8.168  29.538  14.467
13324W        W77268  26.609  35.971   3.738
13325W        W77269  36.960   4.742  14.289
13326W        W77270  42.814  30.032  10.888
13327W        W77271  23.082  23.691  10.541
13328W        W77272  28.578   9.352   4.206
13329W        W77273  41.908  14.608   0.282
13330W        W77274  16.575  10.202   4.737
13331W        W77275   8.724   2.887   3.316
13332W        W77276   5.330  40.036   2.720
13333W        W77277  29.924  17.098   0.799
13334W        W77278   4.883   1.379  13.940
13335W        W77279   3.240  29.112  10.477
13336W        W77280   7.691  34.048  13.388
13337W        W77281   4.914  24.718   2.218
13338W        W77282  22.070  34.526   3.698
13339W        W77283  32.567  16.077   3.340
13340W        W77284  44.460  12.820   4.748
13341W        W77285  31.148  32.592   0.279
13342W        W77286  43.773  30.489  10.420
13343W        W77287  24.035  35.573  12.896
13344W        W77288  16.259  18.215  14.428
13345W        W77289   9.202  19.102  13.532
13346W        W77290  36.350  41.996   4.172
13347W        W77291  11.625  39.368  12.461
13348W        W77292  22.576  13.809   0.801
13349W        W77293  41.494  21.152  13.937
13350W        W77294  27.455  37.903   4.174
13351W        W77295  36.552  20.541   3.756
13352W        W77296  40.342  19.628  13.314
13353W        W77297   8.406   7.305  12.576
13354W        W77298  21.081  33.109  13.487
13355W        W77299  21.218  35.951  10.071
13356W        W77300  42.855  39.343   0.942
13357W        W77301   4.393  34.404   1.873
13358W        W77302  43.443  11.626  13.855
13359W        W77303  29.667  14.602   1.244
13360W        W77304  19.706  24.050  11.562
13361W        W77305   4.911  22.686  14.421
13362W        W77306  12.829  32.064   0.367
13363W        W77307  40.967  39.362  10.926
13364W        W77308  17.282  21.165   3.162
13365W        W77309  19.055  34.002   2.819
13366W        W77310  33.994  28.049   4.178
13367W        W77311  39.850   5.721   4.134
13368W        W77312  18.093  13.245  13.879
13369W        W77313  19.089  28.010  13.523
13370W        W77314  20.625  16.596   1.388
13371W        W77315  29.509  10.237  11.463
13372W        W77316  32.443  31.026  14.891
13373W        W77317   3.748  41.799   3.157
13374W        W77318  12.202  12.699  12.059
13375W        W77319   2.806  22.206   1.328
13376W        W77320   6.887  31.989   1.794
13377W        W77321   8.793  26.645  10.638
13378W        W77322  11.795  43.489   2.417
13379W        W77323  19.731  37.481  11.457
13380W        W77324   2.728   8.873   1.312
13381W        W77325   0.758  36.982  14.902
13382W        W77326   3.221  23.036  13.401
13383W        W77327  30.925  22.583  13.543
13384W        W77328  20.051  36.429   4.262
13385W        W77329  37.401  39.002  11.440
13386W        W77330  38.565  27.617   1.381
13387W        W77331  11.334  13.831   2.767
13388W        W77332  38.845  30.968  12.438
13389W        W77333  30.070  25.968  13.334
13390W        W77334  31.406  15.618  13.333
13391W        W77335   9.758  10.181  14.010
13392W        W77336  36.567  14.764   2.836
13393W        W77337  37.980  42.471   2.718
13394W        W77338  20.523  23.177  14.843
13395W        W77339  42.959  26.168   4.825
13396W        W77340   2.768  24.500  13.045
13397W        W77341   1.258   6.217  10.914
13398W        W77342  29.497  24.096  11.391
13399W        W77343  35.410   9.297  12.492
13400W        W77344  15.273   3.233   2.384
13401W        W77345  13.635  35.984   3.672
13402W        W77346  44.392  15.307  12.555
13403W        W77347  41.789  33.505  14.351
13404W        W77348   9.335   8.819   5.161
13405W        W77349  25.006  27.091  11.952
13406W        W77350  24.080  11.267  14.771
13407W        W77351   9.669  17.632  13.515
13408W        W77352  23.050  11.275   0.781
13409W        W77353  41.848  41.473  11.421
13410W        W77354  22.153   0.908   3.287
13411W        W77355  17.698  35.885  14.937
13412W        W77356  35.036   9.297  14.499
13413W        W77357  24.138  33.969  10.933
13414W        W77358  20.126  19.548   4.234
13415W        W77359  42.297  40.906   2.811
13416W        W77360   7.808   7.286   4.168
13417W        W77361  17.745  31.056  14.858
13418W        W77362  22.528  14.334   1.833
13419W        W77363  11.827   0.833   0.347
13420W        W77364  14.648  29.969  14.916
13421W        W77365  42.509  35.412  13.988
13422W        W77366   9.161  28.447  12.037
13423W        W77367  34.471   7.744  11.438
13424W        W77368  32.537  10.650  11.954
13425W        W77369  19.117   8.803  14.855
13426W        W77370  43.455   8.401   4.685
13427W        W77371  13.176  38.334  13.311
13428W        W77372  38.529  24.161   2.313
13429W        W77373   8.870  23.995  10.617
13430W        W77374  41.368   9.719   3.813
13431W        W77375  22.215  33.415   3.371
13432W        W77376  33.584  28.023   2.856
13433W        W77377  37.878  38.404  14.021
13434W        W77378  44.878   0.390  14.812
13435W        W77379  12.128  31.598   2.739
13436W        W77380   2.759  26.514  14.857
13437W        W77381  26.530  39.924  10.063
13438W        W77382  27.021  10.823   4.767
13439W        W77383  23.648  43.305   1.377
13440W        W77384   3.353  27.987  13.896
13441W        W77385   4.294  34.492  13.051
13442W        W77386  10.683  30.508   2.844
13443W        W77387  42.949   8.883   0.957
13444W        W77388  23.541  38.857  14.283
13445W        W77389  31.547  35.093   0.869
13446W        W77390   0.313  19.253   2.262
13447W        W77391  29.972  36.368  14.308
13448W        W77392  38.356  13.322  10.580
13449W        W77393  22.668  23.996   1.798
13450W        W77394   2.293  32.890   1.929
13451W        W77395  32.041  10.677  12.930
13452W        W77396  16.200  42.426  12.434
13453W        W77397   0.938  30.485  13.962
13454W        W77398  18.780  18.625  14.502
13455W        W77399  34.027  26.205   3.824
13456W        W77400  33.898  10.716   3.843
13457W        W77401  11.670   0.268   4.334
13458W        W77402  35.882  41.378   3.161
13459W        W77403  13.301  38.967   4.345
13460W        W77404  28.143  37.833   0.456
13461W        W77405  23.223  10.314   2.716
13462W        W77406   2.273  16.272   4.216
13463W        W77407  15.743  43.878  12.085
13464W        W77408  42.423  40.452   0.763
13465W        W77409  28.600   0.854   0.264
13466W        W77410  32.593  27.042  14.020
13467W        W77411   6.211   7.734  12.056
13468W        W77412  35.852  37.974   0.890
13469W        W77413  27.014  39.408  13.386
13470W        W77414  33.041   3.754   0.407
13471W        W77415  11.301  34.463  11.513
13472W        W77416  28.036   5.275  14.289
13473W        W77417  39.505  43.833  13.939
13474W        W77418  37.993  42.998   2.369
13475W        W77419   9.331   9.216   0.732
13476W        W77420  35.101  26.091   2.683
13477W        W77421  32.437  41.428   2.809
13478W        W77422   3.831   6.185   0.770
13479W        W77423  31.994  31.055   3.659
13480W        W77424  35.578  27.618   0.955
13481W        W77425  20.224   4.290  14.862
13482W        W77426  21.112  27.061   2.739
13483W        W77427  28.096  26.539   1.283
13484W        W77428  26.690  43.479   2.311
13485W        W77429   9.883   4.731  10.953
13486W        W77430  22.632  37.061  10.004
13487W        W77431  18.587   0.394  14.015
13488W        W77432  43.868  14.226   1.311
13489W        W77433  41.482  10.635   2.800
13490W        W77434  19.768  29.637   1.431
13491W        W77435   1.944   5.774   0.790
13492W        W77436  20.571  20.665   0.265
13493W        W77437  10.733  18.581  11.033
13494W        W77438  11.182  15.643   4.135
13495W        W77439  12.647  12.771   3.240
13496W        W77440  29.955  25.015  12.435
13497W        W77441  15.819  36.888   4.242
13498W        W77442   5.736  23.999   4.800
13499W        W77443   4.763  15.745   0.926
13500W        W77444  10.281  42.880  11.476
13501W        W77445  30.460  26.481  10.442
13502W        W77446  24.123   3.454   1.888
13503W        W77447  13.651  19.591   2.322
13504W        W77448   4.788  19.207   0.310
13505W        W77449  28.958  14.678   5.573
13506W        W77450  30.920  43.873   0.297
13507W        W77451   2.450   2.336  13.989
13508W        W77452  13.263   3.340   3.282
13509W        W77453   2.236  38.952   1.723
13510W        W77454  40.378  25.195  11.044
13511W        W77455  34.094  31.087   1.432
13512W        W77456  15.181   5.406   1.875
13513W        W77457   7.757  40.952  11.608
13514W        W77458  14.113  40.814  14.878
13515W        W77459  10.846  38.026   1.839
13516W        W77460   5.903  11.842  14.982
13517W        W77461  12.270  38.898  13.497
13518W        W77462  26.131  44.826  14.317
13519W        W77463  41.922  19.716   3.721
13520W        W77464  40.864  12.737   2.765
13521W        W77465  26.653   1.448  11.520
13522W        W77466  36.418  31.063  11.067
13523W        W77467  36.925  21.562  14.320
13524W        W77468  18.728  15.219  11.451
13525W        W77469  25.602  42.805   9.932
13526W        W77470   4.758  12.820   2.840
13527W        W77471  44.400  35.962  10.450
13528W        W77472  35.899   8.181   0.246
13529W        W77473  42.850   3.418  10.906
13530W        W77474  41.814  43.367  14.389
13531W        W77475  31.020  37.924   1.270
13532W        W77476  28.078   7.342  10.041
13533W        W77477  33.016  41.881   4.776
13534W        W77478  23.101  19.279  13.059
13535W        W77479   0.749   4.894  11.027
13536W        W77480  29.018  28.626  13.902
13537W        W77481  24.034  43.931   3.339
13538W        W77482  39.948   2.461  12.923
13539W        W77483   1.847  20.717  11.891
13540W        W77484  29.000   4.885   2.859
13541W        W77485   2.275  31.524  10.420
13542W        W77486  32.976   0.346   2.367
13543W        W77487  24.143  16.733   2.294
13544W        W77488  33.480  15.783  14.404
13545W        W77489  12.117  33.069  14.391
13546W        W77490  40.474  29.478  11.991
13547W        W77491   5.694   3.302  11.586
13548W        W77492  36.099  17.741  10.429
13549W        W77493   1.391  10.683  14.325
13550W        W77494  40.477  31.983  10.596
13551W        W77495  36.592  28.184  10.013
13552W        W77496  18.720   7.362  10.415
13553W        W77497  43.506  33.980  14.925
13554W        W77498   5.725  42.412  14.395
13555W        W77499  10.763   9.677  14.282
13556W        W77500  25.026  22.092  12.901
13557W        W77501   6.780   4.705   2.732
13558W        W77502  42.996  13.110   3.378
13559W        W77503  44.861  37.065   4.760
13560W        W77504  15.653  27.169   0.843
13561W        W77505  20.037   9.801   5.193
13562W        W77506  17.270  29.667   4.206
13563W        W77507  44.340  32.108   1.760
13564W        W77508  15.802  10.276   0.416
13565W        W77509  17.235  30.450  10.129
13566W        W77510  44.452   1.797  11.977
13567W        W77511   3.332  44.384  10.515
13568W        W77512  21.668   1.812  13.476
13569W        W77513  25.152  23.527   3.777
13570W        W77514   9.833  16.606  11.459
13571W        W77515  13.607   2.294   2.238
13572W        W77516  26.136   6.757   0.915
13573W        W77517  39.883  24.567   1.892
13574W        W77518  40.488  40.454   0.756
13575W        W77519   2.382  12.219   2.901
13576W        W77520  30.565   7.395  11.905
13577W        W77521   4.792  44.770   0.261
13578W        W77522  42.811  28.452  13.988
13579W        W77523  17.148  13.628  10.619
13580W        W77524   7.234  24.987  14.851
13581W        W77525  43.488  20.187  10.412
13582W        W77526  38.940  10.678   1.375
13583W        W77527  29.077  32.512  13.508
13584W        W77528  43.494  30.097   1.736
13585W        W77529  10.332  19.618  13.814
13586W        W77530  42.825  43.865   2.385
13587W        W77531  11.783  17.115  11.885
13588W        W77532  39.963  43.832   0.274
13589W        W77533  42.935  30.643  11.549
13590W        W77534   7.689  42.428  11.062
13591W        W77535   2.265  36.520  12.359
13592W        W77536  43.456   9.879  13.847
13593W        W77537  12.268  38.876   0.910
13594W        W77538  39.943  20.677  10.610
13595W        W77539  41.853  44.417   3.169
13596W        W77540  42.443   5.403  14.454
13597W        W77541  37.478  33.626  11.012
13598W        W77542  21.592   9.753   1.825
13599W        W77543  19.640  30.508  14.474
13600W        W77544  28.056  29.617  14.488
13601W        W77545   5.925  32.938  14.335
13602W        W77546  41.903  42.358   3.688
13603W        W77547  25.019  35.474   2.337
13604W        W77548   1.774  36.405  12.858
13605W        W77549  10.707  19.622   3.673
13606W        W77550   9.391  43.294  10.605
13607W        W77551  18.269   1.292  10.587
13608W        W77552  27.145  22.600   3.788
13609W        W77553  38.902  35.583  10.624
13610W        W77554  18.729  23.666  14.011
13611W        W77555  42.778  16.244   2.860
13612W        W77556   4.710  13.783  12.924
13613W        W77557  39.333  39.030   0.417
13614W        W77558  32.062  44.952   4.271
13615W        W77559  31.128  12.244  13.980
13616W        W77560  16.149  24.501   2.212
13617W        W77561  16.680  36.036  13.049
13618W        W77562   5.279  41.874  12.362
13619W        W77563  44.435  42.987   4.328
13620W        W77564  23.539  18.554  12.400
13621W        W77565  12.680  10.253  14.484
13622W        W77566  34.398   7.845   2.202
13623W        W77567  29.098  12.771  13.835
13624W        W77568  34.871  42.430  14.283
13625W        W77569  20.732  31.913  10.483
13626W        W77570  22.246  44.330   0.873
13627W        W77571  24.532  43.393   2.262
13628W        W77572  22.210  37.980   0.948
13629W        W77573  10.756  25.213  14.502
13630W        W77574  34.479   0.850  11.530
13631W        W77575   4.424  24.134   3.286
13632W        W77576   8.667  41.338  10.054
13633W        W77577  11.853  17.620  10.426
13634W        W77578  15.126  41.039  14.488
13635W        W77579   3.371  13.694  12.504
13636W        W77580  25.979  21.684  13.894
13637W        W77581  37.549  30.008  12.355
13638W        W77582  20.207  38.521   0.269
13639W        W77583   3.845  28.550  11.377
13640W        W77584  37.018  20.199  14.358
13641W        W77585   7.204  19.734   0.465
13642W        W77586  10.164  43.374   4.747
13643W        W77587  11.860  24.021  12.465
13644W        W77588  36.929   7.184  12.043
13645W        W77589  42.331  27.162   2.378
13646W        W77590  10.228   6.267  10.590
13647W        W77591  22.218  29.159  13.862
13648W        W77592  18.171   4.358  11.591
13649W        W77593   8.382  41.786  10.524
13650W        W77594  24.093  11.820  12.840
13651W        W77595  12.128  22.592   0.354
13652W        W77596  42.976  21.052  10.497
13653W        W77597  40.344  19.686  12.421
13654W        W77598  12.748   3.454   9.667
13655W        W77599  31.441   5.931   4.623
13656W        W77600  12.170  17.085  14.814
13657W        W77601  23.073  12.811   4.746
13658W        W77602  33.499  24.497   2.383
13659W        W77603  17.236   0.983  14.891
13660W        W77604   3.713  43.903  14.482
13661W        W77605  38.433  34.564   3.652
13662W        W77606  39.877   9.162  11.544
13663W        W77607  44.853  40.364  11.125
13664W        W77608  35.935  36.909   3.188
13665W        W77609  19.250  12.151   3.321
13666W        W77610   9.369   0.983  13.540
13667W        W77611   7.198  11.861   2.213
13668W        W77612  23.491  39.386  11.053
13669W        W77613  38.328  22.070  14.439
13670W        W77614   0.337  21.673  13.439
13671W        W77615   5.776  37.868   0.885
13672W        W77616  39.436  14.805  13.854
13673W        W77617  20.635  15.614  14.026
13674W        W77618  33.395  28.664  12.853
13675W        W77619  39.045  16.748  11.116
13676W        W77620  28.104  21.748  14.785
13677W        W77621  11.182   2.461  14.832
13678W        W77622  14.186   4.264   3.219
13679W        W77623  13.260  23.030  13.837
13680W        W77624  42.361  35.957   2.895
13681W        W77625  16.087  44.337  14.466
13682W        W77626   6.341  16.130  10.456
13683W        W77627  41.500  16.258  14.359
13684W        W77628  20.613  29.524  11.967
13685W        W77629  12.324  17.067  13.022
13686W        W77630  40.925   8.262   0.396
13687W        W77631  24.034  19.688  10.024
13688W        W77632  27.972  26.580   2.867
13689W        W77633   5.738  10.343  12.491
13690W        W77634  39.858  30.107  11.063
13691W        W77635  44.879  18.118  14.924
13692W        W77636  43.415   9.181  11.517
13693W        W77637  37.981   1.296   4.754
13694W        W77638  11.197  40.892  12.897
13695W        W77639  42.449  32.522  14.320
13696W        W77640  19.632  40.817   2.743
13697W        W77641  39.008  26.658  14.403
13698W        W77642  27.973   0.382   0.411
13699W        W77643  34.524   6.255  11.556
13700W        W77644   5.286  32.013  12.359
13701W        W77645  11.268   0.372  11.884
13702W        W77646  38.005   3.289   3.278
13703W        W77647  33.053   6.329   4.289
13704W        W77648  15.109  37.534  12.437
13705W        W77649  20.106  32.433   1.225
13706W        W77650  35.033   6.246   4.317
13707W        W77651  42.392  21.534   0.827
13708W        W77652   2.802  16.201   4.659
13709W        W77653  22.714  11.796  10.143
13710W        W77654  37.489   3.436   0.371
13711W        W77655   1.831  30.559  11.531
13712W        W77656  22.171  26.118   1.314
13713W        W77657   8.680  17.083   1.272
13714W        W77658  15.315  41.358   2.697
13715W        W77659  14.701  11.709   4.832
13716W        W77660  23.161  25.577  14.401
13717W        W77661  11.157  24.558   4.338
13718W        W77662  38.531  18.729   0.448
13719W        W77663  28.049  20.172  10.944
13720W        W77664   7.734  37.549   2.293
13721W        W77665  12.237  25.537   1.252
13722W        W77666  37.896  42.357  14.399
13723W        W77667  34.387  41.925  12.454
13724W        W77668  24.685  35.934   2.407
13725W        W77669  11.843   2.359  13.966
13726W        W77670  17.693  35.075   3.852
13727W        W77671  32.036  10.683  11.609
13728W        W77672  14.742   1.477   0.765
13729W        W77673  13.686  10.745  11.914
13730W        W77674  10.195   8.804  13.871
13731W        W77675  39.316  11.678   2.206
13732W        W77676  14.114  40.975  13.862
13733W        W77677  26.058  14.308   4.141
13734W        W77678  20.566  40.843  14.900
13735W        W77679   8.865  32.566   4.352
13736W        W77680  19.624  22.580   3.769
13737W        W77681  31.982  41.390   0.372
13738W        W77682  17.765  33.908  11.867
13739W        W77683  41.931  40.315   5.195
13740W        W77684  36.372  28.543  11.890
13741W        W77685  39.855  11.372   3.380
13742W        W77686  27.080  42.327  11.087
13743W        W77687  40.041  25.679  12.904
13744W        W77688  36.981  33.062  14.400
13745W        W77689  30.649  41.836   2.333
13746W        W77690   8.726  20.204   1.355
13747W        W77691  14.334  44.832   1.341
13748W        W77692   4.411  34.467   2.749
13749W        W77693  33.617  17.595  11.900
13750W        W77694  33.896  13.738   0.769
13751W        W77695  22.091  20.038  10.900
13752W        W77696  35.107  26.458  14.817
13753W        W77697  29.009  16.181   4.221
13754W        W77698  29.641  14.294   1.239
13755W        W77699  42.462  23.063  12.357
13756W        W77700  15.768  12.132  12.927
13757W        W77701  21.714  17.144   4.760
13758W        W77702  27.117  44.989  12.466
13759W        W77703  39.514   9.725   3.303
13760W        W77704  18.790  44.498  11.512
13761W        W77705  27.179  34.047   4.755
13762W        W77706   6.723  14.828  12.407
13763W        W77707  23.116  41.005  13.895
13764W        W77708  36.094  12.318  14.903
13765W        W77709   0.910  14.702  13.054
13766W        W77710  33.419  27.031   3.668
13767W        W77711   5.707  22.145   2.194
13768W        W77712  31.027  32.078   0.947
13769W        W77713  24.124  39.861  11.918
13770W        W77714   6.195   7.696   1.395
13771W        W77715   9.842   1.402  11.546
13772W        W77716  37.000  40.377   0.418
13773W        W77717  37.832   3.815   2.891
13774W        W77718  16.774  38.487  10.972
13775W        W77719  12.283   0.767  12.555
13776W        W77720  29.446   0.850  13.383
13777W        W77721  44.943  22.629   3.667
13778W        W77722  34.428  31.909  12.516
13779W        W77723  44.937  27.069   0.899
13780W        W77724  25.662  12.834  12.526
13781W        W77725  30.160  22.737  10.988
13782W        W77726   9.210  30.531   4.218
13783W        W77727  43.294  13.674   1.853
13784W        W77728   7.340  37.399  11.896
13785W        W77729  21.687  29.567   4.237
13786W        W77730   1.239  43.019   4.170
13787W        W77731   6.677   2.941   3.167
13788W        W77732  13.645  36.021  12.935
13789W        W77733  14.289  16.623   1.262
13790W        W77734  34.013   4.913   4.771
13791W        W77735  32.454  28.929   3.184
13792W        W77736  43.450  24.021  12.074
13793W        W77737  31.076  15.721   3.671
13794W        W77738  43.980  28.154   1.903
13795W        W77739  11.641  19.683  13.391
13796W        W77740  29.023   1.764   4.298
13797W        W77741  24.562   3.954   3.384
13798W        W77742  36.964  23.560   2.205
13799W        W77743  18.183  27.478   2.350
13800W        W77744  15.299  21.032   3.235
13801W        W77745  17.612  31.002  11.915
13802W        W77746  28.587  25.075   4.627
13803W        W77747  23.056  25.660   0.739
13804W        W77748  18.176   8.224   1.442
13805W        W77749   5.796  33.957   2.741
13806W        W77750  39.968   0.326  14.364
13807W        W77751  11.700  27.014   3.358
13808W        W77752   8.721  36.858  12.433
13809W        W77753  28.556  42.021  14.480
13810W        W77754  35.417  15.675   2.715
13811W        W77755   1.797  44.802  14.403
13812W        W77756  31.507  21.556   2.781
13813W        W77757  15.258  28.176   2.739
13814W        W77758  39.953  36.988   0.953
13815W        W77759  28.487  38.523  14.025
13816W        W77760  14.133  25.648   0.322
13817W        W77761  29.518  44.009  10.547
13818W        W77762  10.800   8.368  10.492
13819W        W77763   8.656  23.191  14.783
13820W        W77764   9.306   5.927   4.663
13821W        W77765  18.175   2.428   2.770
13822W        W77766  43.807   5.702  10.644
13823W        W77767  42.423   3.750  11.507
13824W        W77768   6.341   0.454   2.812
13825W        W77769  15.584  20.659   0.924
13826W        W77770  13.318  14.311   2.186
13827W        W77771   7.707  25.541   4.131
13828W        W77772  23.227  42.333  10.993
13829W        W77773  39.496  35.989   0.954
13830W        W77774  40.874  24.603  13.854
13831W        W77775   3.843  34.949   0.444
13832W        W77776  39.921  14.107  13.820
13833W        W77777  34.988  28.458  14.343
13834W        W77778  24.130   8.343  13.938
13835W        W77779  22.193  17.206  14.938
13836W        W77780  27.095  10.656  11.561
13837W        W77781  21.243  25.592   0.922
13838W        W77782  15.607  11.825   3.723
13839W        W77783  35.944   5.419  14.885
13840W        W77784  33.388  36.401   4.774
13841W        W77785  33.510  31.625   3.789
13842W        W77786   9.644  17.593   4.649
13843W        W77787  20.034  14.659   4.281
13844W        W77788  37.889  37.340  10.086
13845W        W77789  11.734  36.530  14.882
13846W        W77790   1.245   0.433   2.390
13847W        W77791  23.195  34.442  14.940
13848W        W77792  20.697  26.952   2.348
13849W        W77793  30.431   4.742   0.436
13850W        W77794  15.729   3.844  11.005
13851W        W77795  12.245  32.915  13.826
13852W        W77796  28.979   1.855  12.986
13853W        W77797  31.904  40.019   1.283
13854W        W77798  21.049  19.260  12.905
13855W        W77799  13.712  11.148  11.546
13856W        W77800   8.723   7.183   2.398
13857W        W77801  32.097  24.564   0.810
13858W        W77802  32.443  44.272  12.452
13859W        W77803  35.558   0.434  13.861
13860W        W77804   8.298  35.979  12.566
13861W        W77805  21.076  44.938   1.810
13862W        W77806  17.658  25.615   3.731
13863W        W77807  42.949  25.547   5.147
13864W        W77808   0.348   7.301   5.584
13865W        W77809  32.467  39.431   4.300
13866W        W77810  23.185  14.800  13.805
13867W        W77811   0.971  23.685   3.812
13868W        W77812  16.271  29.627   0.841
13869W        W77813   4.792  38.487  12.865
13870W        W77814  42.302   3.854   3.764
13871W        W77815  42.355  44.907   0.431
13872W        W77816   6.735  16.100   2.800
13873W        W77817  31.519   6.796  11.906
13874W        W77818  29.564   3.367  14.017
13875W        W77819  26.091  12.298   4.623
13876W        W77820   1.942  22.659  14.824
13877W        W77821  14.177   9.307  11.446
13878W        W77822  40.494  33.929   4.129
13879W        W77823  26.668   0.764   5.184
13880W        W77824   9.745  36.888  13.022
13881W        W77825  11.226   8.380  10.951
13882W        W77826   8.660   8.269   4.673
13883W        W77827  11.642  44.783  10.501
13884W        W77828  43.901  10.713  11.109
13885W        W77829  19.251  43.923   0.921
13886W        W77830  33.050  14.143   0.958
13887W        W77831  24.583  43.776   3.722
13888W        W77832  16.164   3.421   3.266
13889W        W77833  23.029  34.073   2.895
13890W        W77834  14.335  19.548   4.786
13891W        W77835  30.473  44.005  10.514
13892W        W77836  15.099   9.157  11.995
13893W        W77837   9.835  35.589  13.454
13894W        W77838  32.132  37.575   1.787
13895W        W77839  30.415  36.896  12.016
13896W        W77840  38.371  17.093  11.435
13897W        W77841  11.741   8.658  11.515
13898W        W77842  31.910  18.665  10.625
13899W        W77843  26.475  28.087   1.824
13900W        W77844  23.147  39.333  10.440
13901W        W77845  42.514   2.405  11.521
13902W        W77846   4.796  25.088  13.469
13903W        W77847  17.233  20.254  12.049
13904W        W77848  23.493   7.225   0.246
13905W        W77849  12.313  21.722  11.434
13906W        W77850  24.227  19.041   2.759
13907W        W77851  34.464  39.977  13.355
13908W        W77852  38.853  19.125  10.435
13909W        W77853  23.229  22.133  12.059
13910W        W77854   9.790  28.086  11.417
13911W        W77855  32.511  35.465   2.878
13912W        W77856  27.553  38.515  11.877
13913W        W77857  15.661   1.323  12.420
13914W        W77858  15.236  31.563  11.448
13915W        W77859  32.492  37.058   3.734
13916W        W77860  13.134  21.732  13.322
13917W        W77861  39.001  33.926   1.864
13918W        W77862  38.944  44.379   2.778
13919W        W77863  11.281  22.697  11.922
13920W        W77864  40.502  10.210   3.847
13921W        W77865   8.710  23.730   1.430
13922W        W77866   1.803  22.728  10.605
13923W        W77867  12.316   6.420  12.569
13924W        W77868  34.980   8.655   4.225
13925W        W77869   0.958  22.205   2.901
13926W        W77870  27.612  41.983  10.478
13927W        W77871   3.411  24.479   4.304
13928W        W77872  22.189  33.017  10.468
13929W        W77873  11.719  21.147   1.231
13930W        W77874  27.574  44.330   4.284
13931W        W77875  20.232   1.441  14.007
13932W        W77876  32.119   3.370  10.111
13933W        W77877  28.092  42.998   2.270
13934W        W77878  10.318  31.076   0.358
13935W        W77879  18.582   7.830  13.915
13936W        W77880  35.434  11.158  10.998
13937W        W77881  25.071  14.644  10.636
13938W        W77882  44.338  43.368  10.582
13939W        W77883  39.394  32.960  14.937
13940W        W77884   8.235  25.556  10.455
13941W        W77885  36.943  16.790   3.631
13942W        W77886  25.672  39.479   3.203
13943W        W77887   9.872   3.401   4.727
13944W        W77888  22.229  20.122  11.396
13945W        W77889  11.702  26.129   1.217
13946W        W77890  38.383   2.753  10.422
13947W        W77891  24.088  20.069   0.952
13948W        W77892  22.227   7.313   0.765
13949W        W77893  16.188  27.111   0.279
13950W        W77894  18.770  40.830  14.513
13951W        W77895  38.820  42.843   0.249
13952W        W77896   1.413  27.565   0.925
13953W        W77897  31.464   7.875  12.054
13954W        W77898  38.426  35.559   1.357
13955W        W77899  16.783   2.776  14.368
13956W        W77900  39.994  24.625   4.758
13957W        W77901  29.613  44.455   0.845
13958W        W77902  13.694  44.965  10.566
13959W        W77903  10.329   7.788   0.449
13960W        W77904  15.798  29.992   4.266
13961W        W77905  35.530  13.653   3.191
13962W        W77906  32.458  41.359  12.543
13963W        W77907  36.080  12.250   4.632
13964W        W77908  44.464  42.302   0.916
13965W        W77909  31.525  24.100   3.759
13966W        W77910  36.956  24.543  11.003
13967W        W77911   8.803   1.838  12.034
13968W        W77912  16.228   9.189   1.271
13969W        W77913  20.643  39.559  11.446
13970W        W77914   7.823  37.508   4.251
13971W        W77915  16.105   2.468   9.590
13972W        W77916  16.243  36.035  12.971
13973W        W77917   3.874   7.904   5.230
13974W        W77918  41.918  28.128   5.317
13975W        W77919  16.110  23.672   3.262
13976W        W77920  34.495  33.972   4.310
13977W        W77921  42.865  28.670   0.870
13978W        W77922  37.988   1.787  14.357
13979W        W77923  31.642   4.261  10.422
13980W        W77924   0.821  26.972   2.834
13981W        W77925  34.948  24.142   3.680
13982W        W77926  31.097  16.082   2.386
13983W        W77927  16.212  25.641   0.853
13984W        W77928  39.467   6.737   2.200
13985W        W77929  27.038   8.336   1.365
13986W        W77930  34.369   5.924   0.304
13987W        W77931  22.217  16.608  10.482
13988W        W77932   0.852  24.150  12.348
13989W        W77933  10.321  12.329  14.926
13990W        W77934  11.247  11.363  11.900
13991W        W77935   5.779  41.355   2.336
13992W        W77936  30.069  14.193  12.029
13993W        W77937  13.299  35.927   4.624
13994W        W77938  10.277  12.322  11.603
13995W        W77939  40.809  41.516   0.300
13996W        W77940  29.571  22.244   2.813
13997W        W77941  30.473  13.142  10.423
13998W        W77942  37.071   9.358   4.617
13999W        W77943  11.317  39.335   4.299
14000W        W77944  38.510  30.598  12.385
14001W        W77945  27.610  33.588   1.435
14002W        W77946  34.118   8.671   3.351
14003W        W77947  40.873  31.476   2.833
14004W        W77948   0.409  14.662   3.181
14005W        W77949   7.408   9.266   1.798
14006W        W77950  13.206  40.466  13.906
14007W        W77951  30.652   6.838  14.970
14008W        W77952  12.323  10.239   3.382
14009W        W77953  21.239  16.139  11.864
14010W        W77954  41.341  23.215  14.420
14011W        W77955  38.342  26.971  14.806
14012W        W77956  44.287  19.656   3.765
14013W        W77957  19.754   9.736  10.024
14014W        W77958  42.869  34.481   0.856
14015W        W77959   4.755  28.590  12.895
14016W        W77960  14.296  34.100  10.955
14017W        W77961   9.336  36.857  12.990
14018W        W77962  39.952  15.688   1.248
14019W        W77963  38.071  27.081   2.282
14020W        W77964  15.806  19.158   5.302
14021W        W77965  20.737  39.430  14.856
14022W        W77966  30.522  16.133   4.141
14023W        W77967  37.854  36.387  14.883
14024W        W77968  25.483  13.156   0.355
14025W        W77969  11.358   3.459   1.712
14026W        W77970  30.947  27.993  11.524
14027W        W77971  19.721  30.503  12.556
14028W        W77972   1.337  32.422  12.404
14029W        W77973  44.262  42.963  11.084
14030W        W77974  43.953   3.380  12.041
14031W        W77975   9.661  19.172  11.420
14032W        W77976   3.798  31.118   0.259
14033W        W77977  14.798  14.307   5.157
14034W        W77978  20.065  30.508  13.422
14035W        W77979   6.920   5.838  10.619
14036W        W77980  26.108  27.512   1.741
14037W        W77981  17.686  25.540   4.782
14038W        W77982  39.838  27.059  12.580
14039W        W77983  13.682  24.601  13.973
14040W        W77984  24.979  25.134   2.761
14041W        W77985  23.240  43.320   1.328
14042W        W77986   6.288  36.891  13.373
14043W        W77987   0.937  10.173  11.398
14044W        W77988   5.207  32.085   3.377
14045W        W77989   4.908  25.600   4.234
14046W        W77990  33.616   9.286  13.907
14047W        W77991  31.026   9.249   0.464
14048W        W77992  18.727  22.190  10.992
14049W        W77993  23.197  32.082  12.532
14050W        W77994   9.887  27.977   0.244
14051W        W77995  32.616   8.699   0.796
14052W        W77996  32.523  18.671   1.821
14053W        W77997  44.297  19.602  13.423
14054W        W77998   1.446   7.911   2.737
14055W        W77999  37.916  39.021  11.968
14056W        W78000  35.497  24.191   3.724
14057W        W78001  24.624  44.337  14.870
14058W        W78002  36.053  43.274   1.327
14059W        W78003   9.793  17.299  13.894
14060W        W78004   5.724  15.797   1.765
14061W        W78005  20.655  44.995   4.723
14062W        W78006  13.830  13.822   2.240
14063W        W78007  40.514  36.464   0.459
14064W        W78008  21.074  41.322  10.944
14065W        W78009  27.518  18.201   5.190
14066W        W78010   7.858  11.265   2.360
14067W        W78011  14.305  10.808  13.042
14068W        W78012   2.232   6.762   1.328
14069W        W78013   6.784  44.295  14.378
14070W        W78014  24.118   5.885   3.317
14071W        W78015  23.490  43.414   4.803
14072W        W78016  26.193   6.224   3.347
14073W        W78017  39.051   8.268  12.027
14074W        W78018  41.447   8.776  11.593
14075W        W78019   9.270  25.108  13.357
14076W        W78020  42.497  12.729   2.732
14077W        W78021  40.409  30.068  11.595
14078W        W78022  18.586  36.037   3.811
14079W        W78023  21.044  11.629   1.252
14080W        W78024  18.111  23.994   0.363
14081W        W78025  19.629  39.907  12.373
14082W        W78026  13.279   3.231  12.431
14083W        W78027   0.484   5.687  10.975
14084W        W78028   4.350  27.165  14.007
14085W        W78029  24.080  36.451  10.503
14086W        W78030  14.285  34.379   2.220
14087W        W78031  38.418  40.317  13.924
14088W        W78032   6.888  24.583  11.380
14089W        W78033  23.699  29.100   2.669
14090W        W78034  14.817  41.435  13.004
14091W        W78035  11.644   2.446   9.983
14092W        W78036   7.736  40.022  11.118
14093W        W78037  17.630   8.374  14.997
14094W        W78038  21.037   7.179  11.453
14095W        W78039  17.207  21.067  12.381
14096W        W78040  40.546  13.350  13.485
14097W        W78041  43.367  17.712   3.150
14098W        W78042   3.912   2.378  14.959
14099W        W78043  24.162   9.361   0.365
14100W        W78044   5.226  20.609   2.808
14101W        W78045  14.329  41.502   0.905
14102W        W78046   6.423  17.227  13.970
14103W        W78047  16.778  16.283   0.274
14104W        W78048  24.974  24.061  14.886
14105W        W78049  40.423  39.063   2.301
14106W        W78050  31.015  22.029  13.039
14107W        W78051  18.084  39.838  11.946
14108W        W78052  40.473  26.463   0.761
14109W        W78053  27.607  11.214   3.845
14110W        W78054   8.213  29.943  12.871
14111W        W78055  14.222  39.440  12.567
14112W        W78056   8.248  30.010   0.735
14113W        W78057  35.917  38.914   2.407
14114W        W78058  39.464  37.946  11.601
14115W        W78059  18.294  43.892  10.985
14116W        W78060  14.340  27.635   4.180
14117W        W78061   0.881  37.515  13.536
14118W        W78062  40.497  38.869   3.708
14119W        W78063  15.699  24.008   3.324
14120W        W78064  39.941  17.730  13.990
14121W        W78065   7.699  23.519  10.638
14122W        W78066  41.924  23.100  12.873
14123W        W78067  37.977  37.940  14.388
14124W        W78068  35.473  21.669   0.783
14125W        W78069  30.030  44.936   2.212
14126W        W78070  38.993  30.436  14.436
14127W        W78071  26.000   9.781  12.914
14128W        W78072  26.115  44.409   1.816
14129W        W78073  21.053  15.785  14.026
14130W        W78074  14.302  40.326   0.319
14131W        W78075  25.097  17.238   0.456
14132W        W78076   6.391  30.985   0.468
14133W        W78077  15.127  27.614  11.123
14134W        W78078  19.088  44.360   0.959
14135W        W78079  21.197  16.664   4.200
14136W        W78080  29.546  43.015  10.422
14137W        W78081  18.119  21.607  11.996
14138W        W78082  16.243  28.573  13.860
14139W        W78083   4.216  15.224   0.896
14140W        W78084   0.304  39.990  11.602
14141W        W78085   9.318  42.379  10.551
14142W        W78086   8.820  20.132  14.914
14143W        W78087  32.972  39.825   0.286
14144W        W78088   0.950  20.150   0.284
14145W        W78089  31.123  40.880  14.491
14146W        W78090  42.024  24.561   1.763
14147W        W78091   4.747  24.992  10.137
14148W        W78092   1.788   8.706   2.206
14149W        W78093  40.801  23.507   1.713
14150W        W78094  37.004   1.293  11.959
14151W        W78095  39.954  27.474   2.381
14152W        W78096  38.541  41.965   0.838
14153W        W78097  38.841  37.886   3.652
14154W        W78098  28.527  23.072   1.926
14155W        W78099   7.391   1.824   2.301
14156W        W78100  21.204  24.170  13.498
14157W        W78101  44.792   2.283  12.538
14158W        W78102   4.892   8.197  12.431
14159W        W78103  29.976   9.794   1.387
14160W        W78104   4.888  10.747  12.999
14161W        W78105  25.638  31.956   0.758
14162W        W78106  15.711  21.530  11.984
14163W        W78107  23.639  28.510  12.005
14164W        W78108  18.646  43.984  12.932
14165W        W78109   7.889  26.031   2.267
14166W        W78110  15.156   3.832   5.715
14167W        W78111  19.639   2.810  14.862
14168W        W78112   8.805  13.816  10.429
14169W        W78113  21.187   2.291  11.509
14170W        W78114  11.248  15.714  14.513
14171W        W78115  35.038  15.277   1.335
14172W        W78116  43.805  41.439  13.346
14173W        W78117  35.071   1.954  10.420
14174W        W78118  39.010  42.953  12.858
14175W        W78119  34.482  11.153   4.607
14176W        W78120   9.839  33.594  11.009
14177W        W78121   9.171  33.995   1.714
14178W        W78122   1.905   8.898   9.944
14179W        W78123  40.956  26.166  14.947
14180W        W78124  40.025  37.486   2.887
14181W        W78125  15.115  14.748  12.559
14182W        W78126  37.573  39.017  14.830
14183W        W78127   8.688  42.950   3.799
14184W        W78128  11.757  25.156   4.210
14185W        W78129  27.475  40.041  11.596
14186W        W78130  34.400  31.639  13.429
14187W        W78131   7.209  18.050  12.507
14188W        W78132  23.593  25.146  14.917
14189W        W78133   3.862  36.033   2.384
14190W        W78134  27.977  20.196   3.767
14191W        W78135   4.337  30.632  11.419
14192W        W78136  12.154  18.068   4.792
14193W        W78137  39.354  36.487   0.386
14194W        W78138   8.366  22.570  13.063
14195W        W78139  36.928  41.036   2.797
14196W        W78140  20.199  31.502   2.413
14197W        W78141  20.097  12.184   3.311
14198W        W78142  41.984  43.469   1.368
14199W        W78143  39.005  16.141   2.187
14200W        W78144   1.891  10.214  10.015
14201W        W78145  14.591   2.405  10.910
14202W        W78146  10.196   5.252   2.413
14203W        W78147  23.987  16.623  10.119
14204W        W78148   5.799   9.774   1.756
14205W        W78149  35.598  26.952  12.910
14206W        W78150  35.867  39.487   0.468
14207W        W78151  15.611  31.578   2.688
14208W        W78152  40.546  16.709   3.706
14209W        W78153  33.107  39.434  12.421
14210W        W78154   9.245  28.630   1.316
14211W        W78155  26.524  18.647   2.693
14212W        W78156  32.580   9.176   1.226
14213W        W78157  14.709  14.210  14.022
14214W        W78158   4.392  34.467   0.459
14215W        W78159   6.270  14.332   4.761
14216W        W78160  25.638  34.593   0.774
14217W        W78161   6.902   2.458   0.354
14218W        W78162  27.571  43.283  11.109
14219W        W78163  21.633   7.883   1.363
14220W        W78164  27.478   2.279  13.334
14221W        W78165   5.705   0.769  11.920
14222W        W78166   3.757  26.692   1.420
14223W        W78167  14.338  20.607  12.844
14224W        W78168   7.374  14.716  13.504
14225W        W78169   8.263   3.277   0.270
14226W        W78170  24.186  20.054   1.701
14227W        W78171  11.282  42.399   4.332
14228W        W78172  28.669  41.796  10.626
14229W        W78173  21.532  38.826  14.812
14230W        W78174  35.400  37.439   2.238
14231W        W78175  33.017   8.707   0.344
14232W        W78176  43.004  27.559  10.152
14233W        W78177   1.370  27.635  10.480
14234W        W78178  16.718  39.014   1.855
14235W        W78179   0.922  26.508   1.717
14236W        W78180  42.982  23.547   4.349
14237W        W78181  26.612  24.629  13.836
14238W        W78182  12.286  19.669   4.723
14239W        W78183  15.639   9.702  13.372
14240W        W78184  27.682  44.885  12.081
14241W        W78185  44.885  35.481  13.394
14242W        W78186  11.833  16.638   5.705
14243W        W78187   6.797  38.545  11.589
14244W        W78188  23.220   5.897   1.448
14245W        W78189  25.119  43.010   2.792
14246W        W78190  43.273   1.357  14.778
14247W        W78191  30.985  18.551  14.916
14248W        W78192  18.119  23.183  13.928
14249W        W78193  40.498  27.105   0.952
14250W        W78194  25.687  13.660  13.858
14251W        W78195  19.175  28.471   3.150
14252W        W78196  26.505  42.463   9.982
14253W        W78197  26.054  42.806  13.985
14254W        W78198  40.924  15.234  10.644
14255W        W78199   3.374  12.146  13.814
14256W        W78200  27.618  17.069  14.897
14257W        W78201  37.365  23.728   4.318
14258W        W78202  21.121   5.712   1.784
14259W        W78203   7.343  14.296  13.396
14260W        W78204  36.500  25.219   2.665
14261W        W78205  27.960   5.431   4.218
14262W        W78206  11.795  30.500  14.892
14263W        W78207  26.659  40.492  12.840
14264W        W78208  14.294  36.859   0.883
14265W        W78209  20.223  16.270   0.345
14266W        W78210  19.111  37.975  12.375
14267W        W78211  22.594  35.393  11.940
14268W        W78212  11.686  36.979   2.303
14269W        W78213  31.465  44.917  12.508
14270W        W78214   9.835  18.770   5.159
14271W        W78215  12.814  32.497  14.955
14272W        W78216  27.002   1.384  13.899
14273W        W78217   3.460  44.354  14.898
14274W        W78218  29.153   8.837  12.968
14275W        W78219  20.580  21.239  10.135
14276W        W78220  24.142  44.309  14.943
14277W        W78221  27.057  19.071   4.698
14278W        W78222  29.576  30.635  10.118
14279W        W78223  17.269  11.279  12.528
14280W        W78224  20.551   3.949  12.370
14281W        W78225  15.713  12.291  11.113
14282W        W78226  28.012  41.486  10.432
14283W        W78227  38.852   4.342   4.694
14284W        W78228  29.069  34.117  11.585
14285W        W78229  38.924  14.778   3.736
14286W        W78230  28.575  19.647   2.359
14287W        W78231  22.208  31.071   1.294
14288W        W78232  33.977  10.285  11.528
14289W        W78233  30.439   1.461  10.986
14290W        W78234  27.090  26.956   0.389
14291W        W78235   8.262  39.017   3.343
14292W        W78236  26.202  16.682   1.288
14293W        W78237  32.054  26.571  12.581
14294W        W78238  41.944   3.943  10.434
14295W        W78239  19.192  17.757  14.940
14296W        W78240  26.600  14.119   1.367
14297W        W78241  23.654  33.935   0.918
14298W        W78242  44.857  33.907  14.002
14299W        W78243  30.607  20.648  10.633
14300W        W78244  18.146  38.365  13.408
14301W        W78245  28.043   7.266  12.920
14302W        W78246  32.137  36.459  13.931
14303W        W78247  33.461  41.842   3.799
14304W        W78248   6.822  41.880  12.919
14305W        W78249  18.280  43.848  13.374
14306W        W78250  36.097  31.546  12.392
14307W        W78251  43.334  42.503   0.921
14308W        W78252  14.818  20.739  14.812
14309W        W78253  23.217   7.248  14.406
14310W        W78254   5.875  22.500  13.452
14311W        W78255  18.175  15.796   1.747
14312W        W78256  27.638  35.915  11.078
14313W        W78257  31.513  42.358   2.687
14314W        W78258   6.843  36.861   3.235
14315W        W78259  39.048  11.227  14.965
14316W        W78260  12.297   8.231  13.032
14317W        W78261  35.972  23.633  11.096
14318W        W78262  19.045   1.834  11.374
14319W        W78263  33.389  10.233   2.207
14320W        W78264  44.325  12.635   0.415
14321W        W78265   8.873  42.909  13.396
14322W        W78266  29.496  19.596  12.891
14323W        W78267  41.860  26.069  14.996
14324W        W78268  28.119  33.402  13.372
14325W        W78269  14.698   9.193   5.658
14326W        W78270  19.625  17.675   0.924
14327W        W78271   2.723  41.904  14.018
14328W        W78272   7.255   3.912  11.416
14329W        W78273   7.173  10.804  11.115
14330W        W78274  42.426  25.651  13.408
14331W        W78275  35.001  26.127  10.561
14332W        W78276  22.522  27.971  13.810
14333W        W78277  22.195  16.251   4.122
14334W        W78278  17.096  35.916   5.098
14335W        W78279  39.937  36.436   2.712
14336W        W78280  27.608   9.737   1.227
14337W        W78281   7.301  42.304  10.433
14338W        W78282  36.964   5.794  13.837
14339W        W78283  43.806   3.943  14.822
14340W        W78284  12.856  40.055   2.374
14341W        W78285  26.599  31.597  11.531
14342W        W78286  38.458  43.016  11.565
14343W        W78287  35.914  30.164   4.168
14344W        W78288  24.196   3.952  11.551
14345W        W78289  28.176  43.305   1.840
14346W        W78290  13.326  17.303  11.456
14347W        W78291   8.805  17.681  12.374
14348W        W78292   3.358  38.947  13.335
14349W        W78293  36.981  18.289  12.389
14350W        W78294  25.171  30.138  13.387
14351W        W78295  32.481  14.141  13.894
14352W        W78296  30.483  13.137   2.663
14353W        W78297   9.684   8.370   0.864
14354W        W78298  28.954  14.818  10.454
14355W        W78299   6.245  27.497   4.323
14356W        W78300  28.105   0.459  13.914
14357W        W78301  43.900  17.182   0.317
14358W        W78302   2.381   6.688  14.844
14359W        W78303  29.497  38.335   1.261
14360W        W78304  25.695  39.947   5.294
14361W        W78305  14.137  29.934   4.657
14362W        W78306  44.473  43.793  10.505
14363W        W78307  18.690   2.333  14.906
14364W        W78308  27.504  24.632   4.119
14365W        W78309  33.054  35.461  10.479
14366W        W78310  22.147   2.356  13.869
14367W        W78311  35.028  44.978  12.012
14368W        W78312  31.972  15.258   2.881
14369W        W78313  24.057  24.682   4.826
14370W        W78314  16.681   4.222  10.526
14371W        W78315  24.697  28.503   1.369
14372W        W78316  26.669  10.816   1.409
14373W        W78317  31.097  22.723   0.823
14374W        W78318  35.543  14.821   2.297
14375W        W78319  36.091  43.850  14.313
14376W        W78320   9.174  12.235   0.843
14377W        W78321  34.965  23.084   0.439
14378W        W78322  32.417   5.416  14.864
14379W        W78323  13.760  36.549   3.728
14380W        W78324  22.193  37.961   3.294
14381W        W78325  21.168  36.457  13.955
14382W        W78326  17.594  13.139  11.956
14383W        W78327  34.869  24.540  11.444
14384W        W78328  18.774   7.808   0.465
14385W        W78329  43.876   0.977  12.091
14386W        W78330   2.465  36.516  13.822
14387W        W78331  10.139  21.726   2.226
14388W        W78332  35.914   7.685  12.441
14389W        W78333   4.899  25.156   1.720
14390W        W78334   5.728   7.401  10.628
14391W        W78335  39.313  17.095  14.512
14392W        W78336  23.632  19.221  11.544
14393W        W78337  18.731  19.114  11.507
14394W        W78338   8.343   2.774   3.633
14395W        W78339  14.282  37.549  13.904
14396W        W78340   9.784   2.868  12.357
14397W        W78341  30.516  38.464   3.818
14398W        W78342  37.487  41.428  11.928
14399W        W78343  13.160   4.798  10.427
14400W        W78344   4.913   5.242  10.965
14401W        W78345  31.078  44.833   2.773
14402W        W78346  23.552   9.331  13.850
14403W        W78347  27.039  37.836   0.846
14404W        W78348  37.912  33.569  14.502
14405W        W78349   7.298  20.143  10.452
14406W        W78350  13.685   1.330   2.386
14407W        W78351  14.179  24.030  14.804
14408W        W78352  40.510  28.502   2.179
14409W        W78353  36.434   7.172   3.333
14410W        W78354  31.574  18.780  14.319
14411W        W78355  24.127  40.534   4.135
14412W        W78356  19.604   5.248   3.766
14413W        W78357  36.961  27.480  14.806
14414W        W78358  30.944  17.269   2.686
14415W        W78359   8.386   4.795  13.058
14416W        W78360  31.917  25.977   0.782
14417W        W78361   4.905  21.128  14.914
14418W        W78362  39.315  44.947  10.455
14419W        W78363  41.884  17.603  13.458
14420W        W78364  17.085  35.478   0.452
14421W        W78365   5.856  30.502  13.801
14422W        W78366  21.134  29.046  14.920
14423W        W78367  14.179  23.571   1.309
14424W        W78368   9.782  19.042   4.148
14425W        W78369  15.642  20.533  12.846
14426W        W78370  42.895  22.607  12.366
14427W        W78371  32.529  32.885   2.314
14428W        W78372  21.627  12.695  14.764
14429W        W78373   6.307   6.885   1.390
14430W        W78374  20.557   2.770  13.418
14431W        W78375  18.639  20.199  12.048
14432W        W78376  30.599  20.238  10.428
14433W        W78377  17.767  24.030  12.853
14434W        W78378  22.188  29.510  12.501
14435W        W78379  24.055  29.998  14.417
14436W        W78380   2.791  28.024   2.884
14437W        W78381  44.880   4.755   1.260
14438W        W78382  36.071  40.467  13.817
14439W        W78383  21.698  26.534  10.604
14440W        W78384  11.868   1.977   0.899
14441W        W78385  29.047  28.528  14.987
14442W        W78386  35.930   1.429   3.242
14443W        W78387  29.553  44.422  13.949
14444W        W78388  37.067  16.180  11.448
14445W        W78389   7.866  35.079   0.761
14446W        W78390   6.284  15.273   2.227
14447W        W78391   4.878  19.687   2.850
14448W        W78392  18.623   2.923  11.993
14449W        W78393   1.894  11.255  14.857
14450W        W78394  38.922  22.612   5.258
14451W        W78395  28.519  33.505   3.175
14452W        W78396  24.517  11.703   0.471
14453W        W78397  41.357  29.020  13.340
14454W        W78398  14.102  35.410   3.318
14455W        W78399  13.734  17.656  11.115
14456W        W78400  24.056  34.532  10.984
14457W        W78401  29.016  27.025  12.933
14458W        W78402  40.341   3.302   2.189
14459W        W78403   9.687   8.363  12.389
14460W        W78404  10.635  44.280  11.024
14461W        W78405   2.787  38.038   1.304
14462W        W78406  30.086  31.149   3.767
14463W        W78407  34.984  40.832   2.192
14464W        W78408  43.314  21.561  12.048
14465W        W78409   2.339  43.302   4.309
14466W        W78410  34.049  12.780   1.343
14467W        W78411  24.020  30.049   4.284
14468W        W78412  24.482  35.361  10.977
14469W        W78413  26.124   0.382  11.438
14470W        W78414   3.870  40.902  12.891
14471W        W78415  22.207   2.324   4.756
14472W        W78416  29.119  37.845   0.921
14473W        W78417  33.558  38.442   2.679
14474W        W78418   1.258  41.520  13.011
14475W        W78419  26.193  24.579   1.889
14476W        W78420   9.259   4.371   0.455
14477W        W78421  33.067  35.557   0.909
14478W        W78422  12.829  42.443   1.430
14479W        W78423  18.120  33.495   4.181
14480W        W78424  41.889  30.150  14.998
14481W        W78425  13.767  28.959  13.528
14482W        W78426  28.949  16.109   1.368
14483W        W78427  27.535  10.233  14.477
14484W        W78428  20.528   1.260   2.292
14485W        W78429  28.589   2.388   0.791
14486W        W78430  15.800  14.202  10.624
14487W        W78431  37.916  31.607   0.397
14488W        W78432   2.881  25.560  12.523
14489W        W78433  23.693  17.147  11.983
14490W        W78434  16.085  41.315   2.313
14491W        W78435  24.724   9.297  13.468
14492W        W78436  33.080  17.113   1.232
14493W        W78437  12.671   2.310   0.931
14494W        W78438  14.622  14.136   3.349
14495W        W78439  28.469  17.183   3.796
14496W        W78440  43.874  44.939  13.928
14497W        W78441   2.942  13.131   2.302
14498W        W78442  25.099  32.472  11.608
14499W        W78443  42.379  11.673  13.357
14500W        W78444  37.540  35.536   0.857
14501W        W78445  43.009  44.283   0.812
14502W        W78446  17.716  43.340  13.909
14503W        W78447  16.603   5.754  10.980
14504W        W78448   7.202  10.353  10.045
14505W        W78449  33.501  12.837   5.188
14506W        W78450  40.798  29.598  13.997
14507W        W78451  39.406   4.285  11.029
14508W        W78452  33.538  37.057   0.403
14509W        W78453   3.351   7.345   0.884
14510W        W78454  15.243   3.811   2.731
14511W        W78455  14.719  36.421  14.886
14512W        W78456  29.145  21.139   1.763
14513W        W78457  26.473  43.793   1.780
14514W        W78458  24.171  39.868  13.923
14515W        W78459  13.767  17.081   1.284
14516W        W78460  26.181  17.702   1.811
14517W        W78461  44.424  42.031  13.451
14518W        W78462  13.774  20.071   2.743
14519W        W78463  40.466  28.112  11.066
14520W        W78464  18.224  32.418  11.598
14521W        W78465  16.270   2.398   5.292
14522W        W78466  21.102  37.493  13.810
14523W        W78467  42.464  16.620  14.797
14524W        W78468  19.057  24.696  12.043
14525W        W78469   2.452  12.655  13.971
14526W        W78470  26.655  27.050   3.176
14527W        W78471   6.357   4.341   0.963
14528W        W78472  40.371  22.006  14.319
14529W        W78473  22.191   8.321   4.739
14530W        W78474  35.023   8.225  11.023
14531W        W78475  39.389  41.998  12.359
14532W        W78476  24.099  18.728  10.533
14533W        W78477  44.431   7.860   4.240
14534W        W78478  36.360   9.721   4.800
14535W        W78479  16.257  24.577   4.170
14536W        W78480  18.206   8.190   2.289
14537W        W78481  36.903  27.099   2.798
14538W        W78482   7.282  40.506   2.757
14539W        W78483   2.368  21.085   3.674
14540W        W78484  29.028  26.117   2.317
14541W        W78485  40.046  11.678  10.895
14542W        W78486   2.421   9.304  10.428
14543W        W78487  22.146  21.234   0.744
14544W        W78488  24.509  39.974   0.883
14545W        W78489   0.778   0.958   3.846
14546W        W78490   6.845  29.494  10.966
14547W        W78491  13.771  11.782  13.424
14548W        W78492  22.528  29.575   0.825
14549W        W78493  11.681  41.849   0.864
14550W        W78494   6.377  20.184  12.501
14551W        W78495  25.065   5.220  12.838
14552W        W78496  18.558  19.606  13.447
14553W        W78497   5.348   4.352  14.302
14554W        W78498   3.401  23.728  11.968
14555W        W78499  35.379  30.939   0.355
14556W        W78500  12.307  30.546   4.602
14557W        W78501  23.515  11.319   0.961
14558W        W78502   7.878  15.696   2.411
14559W        W78503  19.114  37.455  11.014
14560W        W78504   0.911   5.437   3.755
14561W        W78505  32.997  18.162   2.313
14562W        W78506  36.538   1.865   3.286
14563W        W78507   8.820  44.407  13.842
14564W        W78508  18.777  42.941  13.470
14565W        W78509  34.521  36.929   4.180
14566W        W78510  33.535   2.411   4.790
14567W        W78511  11.191   7.242  14.026
14568W        W78512  24.536  17.754   2.702
14569W        W78513  10.764  25.159   4.349
14570W        W78514   9.188  19.752   4.619
14571W        W78515  43.901  41.517   0.342
14572W        W78516  20.714  10.853   0.338
14573W        W78517  24.684  44.850   3.853
14574W        W78518  34.063  17.776  12.001
14575W        W78519  29.623  26.019  13.885
14576W        W78520  13.244  18.150  10.090
14577W        W78521  15.773  36.063  13.953
14578W        W78522  38.881  36.879   0.262
14579W        W78523   1.463  39.454   2.825
14580W        W78524   3.413  17.275  14.366
14581W        W78525  14.833  23.010   1.389
14582W        W78526  30.495  25.047   0.859
14583W        W78527  32.908   2.260   1.446
14584W        W78528   2.229   3.275  10.414
14585W        W78529   4.846   9.831   3.202
14586W        W78530  37.399  44.798   3.709
14587W        W78531  37.835   7.810  14.509
14588W        W78532   0.455   8.335   3.721
14589W        W78533  30.102  42.787  13.794
14590W        W78534  24.522   6.222  12.502
14591W        W78535  40.360  20.204   1.865
14592W        W78536   0.381  13.172   1.371
14593W        W78537  19.271  27.076   2.397
14594W        W78538  32.132  21.232  12.025
14595W        W78539   6.326  21.528   3.758
14596W        W78540  17.118  35.995  11.440
14597W        W78541  44.446  39.995   4.148
14598W        W78542  37.351  15.700  12.356
14599W        W78543   7.825  19.647  11.009
14600W        W78544  23.065  41.473   1.432
14601W        W78545   1.844  37.903  13.387
14602W        W78546  28.136  26.476   2.310
14603W        W78547  15.812   6.904   2.243
14604W        W78548  30.617  40.016   4.749
14605W        W78549  13.719  13.308  14.400
14606W        W78550  42.302  32.097   2.390
14607W        W78551   1.965   5.765  11.100
14608W        W78552   1.970  26.191  13.025
14609W        W78553  14.651  39.390   0.959
14610W        W78554   1.909  12.206   3.653
14611W        W78555  10.847  11.351  10.429
14612W        W78556   7.304  31.645  10.097
14613W        W78557  37.981  29.592  14.832
14614W        W78558  15.215   8.388   0.304
14615W        W78559  11.183  43.303   3.824
14616W        W78560  26.606   4.417  13.015
14617W        W78561  16.617  33.966  12.081
14618W        W78562  34.578  43.321   1.908
14619W        W78563  29.111  32.909  13.856
14620W        W78564  28.488  21.733  12.984
14621W        W78565  36.363  20.739   2.721
14622W        W78566  12.742  17.104   3.745
14623W        W78567   3.387   1.940  12.872
14624W        W78568  39.015   6.289  12.021
14625W        W78569  32.580  22.604   0.788
14626W        W78570  14.315  16.249  14.951
14627W        W78571   3.219  11.770   4.756
14628W        W78572  24.132  31.455  11.493
14629W        W78573  19.115  25.132  14.918
14630W        W78574  17.618  13.606   3.696
14631W        W78575  24.031  29.027  13.515
14632W        W78576  18.699  21.671  12.444
14633W        W78577  15.144  34.376   2.245
14634W        W78578  19.533  44.973  13.858
14635W        W78579  12.168  10.263   4.245
14636W        W78580  18.247   0.255  11.508
14637W        W78581  28.157   2.292  14.308
14638W        W78582  15.788  32.498  13.497
14639W        W78583  42.805  38.944   0.809
14640W        W78584  27.049  29.034   1.769
14641W        W78585   4.734  10.327   1.292
14642W        W78586   7.248  15.817   4.218
14643W        W78587  32.538  28.446   3.721
14644W        W78588  14.226  25.056   3.210
14645W        W78589  33.380  38.009   4.613
14646W        W78590  10.646   7.707   3.819
14647W        W78591  43.366  14.146  10.089
14648W        W78592   6.241  32.056  14.926
14649W        W78593  38.540  32.432   3.287
14650W        W78594   6.693  14.181  11.604
14651W        W78595   6.777  14.311  12.444
14652W        W78596  10.644  24.081  14.361
14653W        W78597  39.386  44.842   0.930
14654W        W78598  38.397  16.160  13.468
14655W        W78599   1.778  38.551  13.337
14656W        W78600  35.901  19.744   4.148
14657W        W78601  42.499  20.175  12.945
14658W        W78602  29.082  39.345   0.943
14659W        W78603  32.507  44.928  11.898
14660W        W78604  41.445  23.083   1.416
14661W        W78605  41.809  41.868  14.471
14662W        W78606  10.638  22.606  12.904
14663W        W78607  31.005  31.519  10.944
14664W        W78608  33.623  41.520   3.216
14665W        W78609  17.584   9.222   3.272
14666W        W78610  36.878  37.386  11.037
14667W        W78611  12.131  34.390   0.410
14668W        W78612  24.085  39.324  13.061
14669W        W78613  43.373   2.266  14.984
14670W        W78614   4.861  31.991   5.220
14671W        W78615  20.637  29.000  14.835
14672W        W78616  15.311   6.249   2.738
14673W        W78617  34.566   1.946   4.233
14674W        W78618  35.430  18.073   4.737
14675W        W78619   1.965  36.533   0.459
14676W        W78620  37.883  26.180  10.613
14677W        W78621  21.651  25.528  13.520
14678W        W78622  13.215  42.788  11.429
14679W        W78623  14.796   2.374   2.775
14680W        W78624  44.477  30.442   9.976
14681W        W78625  38.523  40.337   1.866
14682W        W78626  37.358  36.991  10.575
14683W        W78627  12.226  26.682   4.838
14684W        W78628  13.779  35.519   5.705
14685W        W78629   9.744  15.639  11.933
14686W        W78630  10.661  31.081  14.901
14687W        W78631  43.499  38.482   0.802
14688W        W78632  26.130  20.546  13.446
14689W        W78633  31.412  17.738  10.576
14690W        W78634  26.017  41.374  13.957
14691W        W78635  15.273   0.771   9.561
14692W        W78636  29.495  41.908   0.922
14693W        W78637  41.014  22.049  10.431
14694W        W78638  36.951  29.522   0.423
14695W        W78639  26.472  27.037  10.569
14696W        W78640  43.318  44.370  10.111
14697W        W78641  10.795  37.914  13.991
14698W        W78642   0.379  14.722  12.565
14699W        W78643   1.299  15.790  10.475
14700W        W78644  24.704  16.712   3.718
14701W        W78645  44.363  15.210  10.512
14702W        W78646  12.212  26.007   3.170
14703W        W78647  18.128  16.665  10.607
14704W        W78648  14.767  19.239   4.638
14705W        W78649   1.358  41.040   0.807
14706W        W78650   0.890  31.117  14.453
14707W        W78651  16.620  29.958   4.747
14708W        W78652  37.844  34.475  10.915
14709W        W78653  36.459  25.167  14.997
14710W        W78654  42.344  35.438   0.799
14711W        W78655   2.813  41.448   1.722
14712W        W78656  25.195   6.371   4.780
14713W        W78657  31.918  18.605   3.664
14714W        W78658  38.074  27.954  13.863
14715W        W78659  44.834   9.735  11.556
14716W        W78660   5.773  27.588   2.400
14717W        W78661  44.001  34.604   2.416
14718W        W78662   2.780  28.139   3.742
14719W        W78663  19.081   2.728   2.387
14720W        W78664  31.418  18.116  10.529
14721W        W78665  32.928  39.433   1.301
14722W        W78666   4.216   2.457   0.807
14723W        W78667  21.231   0.292  13.428
14724W        W78668  22.601   9.748   4.326
14725W        W78669  18.682  19.255   0.876
14726W        W78670  42.032   2.456   2.348
14727W        W78671  10.676  36.506   4.199
14728W        W78672   0.314  28.013  14.845
14729W        W78673  44.418  42.524  11.977
14730W        W78674   0.899  20.764  10.435
14731W        W78675  16.298  10.268  12.001
14732W        W78676  30.454  20.742  14.492
14733W        W78677  18.276  15.138   4.722
14734W        W78678  33.481   1.874   0.930
14735W        W78679  39.862  42.015   0.282
14736W        W78680   4.374  15.784   2.180
14737W        W78681  27.464   0.309   2.216
14738W        W78682   3.829  32.087  11.513
14739W        W78683  36.928  44.428   4.247
14740W        W78684  34.070  30.987  11.867
14741W        W78685  32.061  34.936  13.352
14742W        W78686  37.875  35.358   1.830
14743W        W78687  42.868  38.456  13.374
14744W        W78688  17.066  13.115   0.817
14745W        W78689  41.483  29.918   1.285
14746W        W78690  10.701  39.525   2.893
14747W        W78691  11.846  14.239  11.475
14748W        W78692  32.054  37.833   1.915
14749W        W78693  27.516  39.933   0.908
14750W        W78694  34.971  15.723  14.381
14751W        W78695  16.303  35.886  11.530
14752W        W78696  33.608  22.227   0.835
14753W        W78697  40.950  33.573   1.414
14754W        W78698  19.615  13.337   4.603
14755W        W78699  10.315   3.791   1.395
14756W        W78700   6.791  10.677  13.356
14757W        W78701  42.503   9.756   0.897
14758W        W78702  39.902  43.006  14.792
14759W        W78703  26.996  34.531   1.872
14760W        W78704  40.971  10.677  12.909
14761W        W78705  12.843  14.316   1.831
14762W        W78706  19.592  27.194   1.861
14763W        W78707   4.921  24.061  12.092
14764W        W78708  44.264  12.706  10.121
14765W        W78709   2.428  39.066   4.781
14766W        W78710  10.767  29.640  11.035
14767W        W78711  39.493  26.023   3.168
14768W        W78712  10.752   2.256  13.998
14769W        W78713  11.850  37.384  11.098
14770W        W78714  23.562  42.426  13.443
14771W        W78715  29.062  20.560  13.927
14772W        W78716  13.156  44.897   1.430
14773W        W78717  27.581   5.393   3.660
14774W        W78718  36.091  14.738   4.348
14775W        W78719   1.822  14.105  12.051
14776W        W78720   4.338  32.973  13.040
14777W        W78721  18.244  11.166   1.935
14778W        W78722  37.511  41.990   1.350
14779W        W78723  41.408  10.331  11.593
14780W        W78724   3.374  30.129  13.848
14781W        W78725  14.692   8.822   2.811
14782W        W78726  38.965  42.412   0.809
14783W        W78727  26.159  21.092  14.429
14784W        W78728   3.926  43.363   0.386
14785W        W78729  13.696  44.495   1.370
14786W        W78730  14.757  27.621   1.443
14787W        W78731  12.782  12.700   1.914
14788W        W78732  22.732   7.182  13.532
14789W        W78733  30.471   1.880  14.356
14790W        W78734  30.524  19.149   4.820
14791W        W78735  41.883  19.577  11.430
14792W        W78736  28.541  18.666   5.583
14793W        W78737  13.731  29.653   2.688
14794W        W78738  42.440  14.131  14.505
14795W        W78739  13.636  41.291  12.951
14796W        W78740  37.509  13.304   0.784
14797W        W78741   5.703  17.120  13.414
14798W        W78742  42.452  37.514  12.927
14799W        W78743  14.198  11.776   0.938
14800W        W78744  40.477  23.241   1.273
14801W        W78745  44.452  22.570   3.813
14802W        W78746  11.349  27.031   1.747
14803W        W78747  26.686  34.067  13.394
14804W        W78748  18.612  28.584  11.976
14805W        W78749   9.199  14.647   0.352
14806W        W78750   8.268  43.886   1.869
14807W        W78751   6.186  44.773   1.435
14808W        W78752  26.574  44.501   1.754
14809W        W78753  18.597  19.565   4.173
14810W        W78754   1.737  21.081  14.409
14811W        W78755   0.886   1.821   2.752
14812W        W78756  16.109   8.751   1.435
14813W        W78757  16.609  27.055   3.670
14814W        W78758  22.587  31.092   0.470
14815W        W78759  29.942  20.643  10.560
14816W        W78760  18.060  25.186   4.733
14817W        W78761  21.020  31.625   2.400
14818W        W78762  36.535  35.360   3.342
14819W        W78763  11.696  42.890   2.246
14820W        W78764  25.180  17.672  14.803
14821W        W78765  35.388  19.741  12.861
14822W        W78766  15.739   0.376   1.397
14823W        W78767  14.804  10.743   0.817
14824W        W78768  43.466  14.240   1.401
14825W        W78769  15.306  29.077   0.778
14826W        W78770   0.908  10.634   3.265
14827W        W78771  43.417  38.995  10.468
14828W        W78772   0.270  11.694   4.779
14829W        W78773  32.576  18.137   4.256
14830W        W78774  31.966  40.900   1.392
14831W        W78775  27.000  27.024  14.774
14832W        W78776   0.945  33.002   2.388
14833W        W78777  35.452  43.281  10.941
14834W        W78778  11.132  17.596  10.604
14835W        W78779  28.122  34.013   0.340
14836W        W78780  30.640  23.038  12.556
14837W        W78781   3.327  43.420   0.388
14838W        W78782  43.413   6.798   2.189
14839W        W78783   7.195   5.687   0.773
14840W        W78784  25.105   5.280   2.758
14841W        W78785  20.258   1.927  10.543
14842W        W78786  29.529  13.783   4.343
14843W        W78787   1.756  35.555  11.917
14844W        W78788  25.489  28.050  12.052
14845W        W78789  25.060  11.220  12.016
14846W        W78790   0.878  21.040   1.933
14847W        W78791  19.194   6.366  14.774
14848W        W78792  44.906  39.835   1.847
14849W        W78793  16.247  40.442   3.832
14850W        W78794   0.250   0.361  13.488
14851W        W78795  38.893  17.707  14.335
14852W        W78796   6.269  24.670   4.138
14853W        W78797  14.814  13.740  12.566
14854W        W78798  23.578  26.603  12.435
14855W        W78799  34.987   3.812   4.210
14856W        W78800  41.867  36.505   4.167
14857W        W78801  36.076   0.477  12.345
14858W        W78802  29.591  17.688  12.873
14859W        W78803  42.308  12.636  12.021
14860W        W78804  30.973  19.277  10.491
14861W        W78805  27.145  36.476  12.567
14862W        W78806  10.269  14.197   4.332
14863W        W78807  16.570  37.953  12.888
14864W        W78808  22.183  31.906  10.066
14865W        W78809   4.287  44.877  11.955
14866W        W78810  16.594  44.836   0.284
14867W        W78811  23.603  27.035   4.247
14868W        W78812  43.953  36.440  14.865
14869W        W78813  30.570  32.499   1.313
14870W        W78814  44.958  29.552  12.415
14871W        W78815   5.838  10.277   0.474
14872W        W78816   4.892  16.147   1.702
14873W        W78817  21.033  37.419   1.442
14874W        W78818  10.183   9.669   2.844
14875W        W78819   8.880  33.116   1.433
14876W        W78820  12.223  43.845   4.316
14877W        W78821  43.456  37.878   4.338
14878W        W78822  18.288   8.856  13.874
14879W        W78823  13.655  36.045   3.148
14880W        W78824   1.260  32.079   1.384
14881W        W78825   7.699  39.829  12.878
14882W        W78826  36.503  14.781   1.724
14883W        W78827  32.904  39.473  14.941
14884W        W78828  25.585   3.383   1.928
14885W        W78829  36.459  33.956  12.993
14886W        W78830  29.561  36.398  14.818
14887W        W78831  39.350  30.051   1.700
14888W        W78832  11.251  19.053  10.975
14889W        W78833   4.257  14.599  12.566
14890W        W78834   7.259  41.940  14.881
14891W        W78835  23.542   8.691  10.449
14892W        W78836   9.683  17.589   5.571
14893W        W78837  13.287  21.228  10.063
14894W        W78838   2.428   4.257  13.445
14895W        W78839  27.118  27.981  11.906
14896W        W78840  24.062   4.750   4.170
14897W        W78841  15.577   0.774   0.357
14898W        W78842  33.438  14.601  10.563
14899W        W78843  44.777   0.981  14.996
14900W        W78844  38.985  27.541  12.407
14901W        W78845  30.990   5.807   0.732
14902W        W78846  32.900  30.090  12.837
14903W        W78847  32.482  21.633   4.740
14904W        W78848  36.078  16.079   4.610
14905W        W78849  20.640  33.890   1.347
14906W        W78850  19.253  27.111   0.248
14907W        W78851  12.282  30.642   4.155
14908W        W78852   0.989  42.919   2.719
14909W        W78853   4.425   6.840  14.005
14910W        W78854  32.137  42.513  13.943
14911W        W78855  10.747   6.338   3.659
14912W        W78856  40.527   1.736  14.326
14913W        W78857  28.044  14.143  11.475
14914W        W78858   0.974  44.476   2.836
14915W        W78859   4.700   5.719   3.247
14916W        W78860  40.487  26.659   4.688
14917W        W78861  13.200   0.859  12.497
14918W        W78862  25.640   6.690   4.770
14919W        W78863   0.363  39.904  13.547
14920W        W78864  40.808  18.706  14.947
14921W        W78865   6.200   5.249  11.596
14922W        W78866  15.145  22.670  10.510
14923W        W78867  13.240  19.766  13.053
14924W        W78868  29.641  28.647   4.717
14925W        W78869   5.387  15.183   3.831
14926W        W78870  11.793  12.696  13.328
14927W        W78871  10.325  34.887  12.535
14928W        W78872  33.548  25.136   1.339
14929W        W78873  17.289  12.744   1.305
14930W        W78874  17.708  36.048   3.797
14931W        W78875  15.715  42.942   1.245
14932W        W78876  25.027  44.967   1.316
14933W        W78877   4.408  25.062  13.798
14934W        W78878  16.208  37.086  12.937
14935W        W78879  14.158  34.532  14.856
14936W        W78880  14.198  30.500  10.069
14937W        W78881  21.547   3.717   2.820
14938W        W78882  37.418   2.310   0.883
14939W        W78883  38.911  30.580   2.247
14940W        W78884  21.041  31.636   2.825
14941W        W78885  43.344   2.858  11.525
14942W        W78886  35.987  32.962  12.519
14943W        W78887   4.380   3.752   0.370
14944W        W78888  16.721  28.025   3.848
14945W        W78889   0.300  33.015  11.516
14946W        W78890   6.384  29.613  11.927
14947W        W78891  19.122  28.435  10.446
14948W        W78892  37.988   8.189  11.385
14949W        W78893  21.624  15.273   0.450
14950W        W78894  37.994  15.160  13.922
14951W        W78895   9.274  43.339   4.238
14952W        W78896  26.145  14.213  10.902
14953W        W78897   9.648  43.411   3.156
14954W        W78898  18.649   9.203  14.872
14955W        W78899  36.465   8.743   2.771
14956W        W78900   8.666  24.541   0.815
14957W        W78901  20.158  36.379  11.468
14958W        W78902  10.146  31.522  11.589
14959W        W78903  39.021  42.429   3.685
14960W        W78904  18.692  36.883  12.845
14961W        W78905  12.732   9.663   4.667
14962W        W78906  39.384  26.515   5.155
14963W        W78907   1.449  37.061  12.504
14964W        W78908  16.209  41.994  13.030
14965W        W78909  38.038  28.096  14.822
14966W        W78910  24.117  20.643   0.831
14967W        W78911  42.879  25.657  11.104
14968W        W78912  16.767  33.922  12.918
14969W        W78913  33.567   7.182   5.227
14970W        W78914   8.334  41.804   4.667
14971W        W78915  17.557  23.727  11.928
14972W        W78916  16.569  22.209  12.497
14973W        W78917  19.232   7.865  14.795
14974W        W78918  13.761  14.308  11.417
14975W        W78919   1.465  10.720   1.860
14976W        W78920  13.170  39.861  13.858
14977W        W78921  14.339  17.225   3.755
14978W        W78922   9.818   3.358  10.969
14979W        W78923  15.675  11.224  14.985
14980W        W78924  43.918  24.075  14.865
14981W        W78925  38.490  42.886   2.884
14982W        W78926  21.581  22.237  11.001
14983W        W78927  27.115  36.872  11.048
14984W        W78928   0.894   6.841   2.880
14985W        W78929  35.509  21.063  12.892
14986W        W78930  39.492  23.587  10.413
14987W        W78931  11.298  20.193   1.213
14988W        W78932  17.671   3.825   0.278
14989W        W78933  12.190   8.212   3.328
14990W        W78934  21.040  20.242  13.941
14991W        W78935  24.565  38.558   1.257
14992W        W78936  28.147   9.753  14.876
14993W        W78937  30.584  33.488   4.330
14994W        W78938  15.795  37.486  13.871
14995W        W78939  25.575   5.270  13.485
14996W        W78940   7.679  23.999   1.371
14997W        W78941   4.446   9.365   3.301
14998W        W78942  31.541   9.212   4.821
14999W        W78943  10.214  13.297   3.726
15000W        W78944  12.664   4.243   9.938
15001W        W78945   5.710   2.952  14.504
15002W        W78946  23.096  25.503  14.798
15003W        W78947  32.588  15.138   2.777
15004W        W78948  37.984  32.096   1.260
15005W        W78949  14.809  24.181   1.782
15006W        W78950  37.841   6.802  11.091
15007W        W78951  43.378  23.676   2.233
15008W        W78952  35.576  42.354  14.863
15009W        W78953   4.829   8.201  10.038
15010W        W78954  13.164  14.096   4.225
15011W        W78955  22.642  31.440   3.152
15012W        W78956  37.395   8.217   4.160
15013W        W78957  36.390   2.300   4.171
15014W        W78958  28.057  15.823  14.355
15015W        W78959  43.432  21.018   9.966
15016W        W78960   5.807  40.476  11.445
15017W        W78961  17.617   9.793  11.054
15018W        W78962  18.055  23.509   0.939
15019W        W78963  41.379  18.078  11.596
15020W        W78964   0.795  21.681  11.007
15021W        W78965  25.087   7.893   2.796
15022W        W78966  27.065  30.597   1.347
15023W        W78967   4.863   7.897  11.973
15024W        W78968  16.088   8.810   4.811
15025W        W78969   9.859  19.133   3.237
15026W        W78970  12.302  44.476   1.228
15027W        W78971  33.540  27.109  13.423
15028W        W78972   7.185  27.636   1.739
15029W        W78973  22.614  21.618   1.389
15030W        W78974  27.486  34.582   3.663
15031W        W78975  13.155  22.533  14.480
15032W        W78976  16.200  40.807   1.318
15033W        W78977   6.754  31.601   2.844
15034W        W78978  17.785  26.098   4.340
15035W        W78979  33.607  27.061   3.319
15036W        W78980   3.838   9.779   2.724
15037W        W78981   1.457  13.333  14.348
15038W        W78982  29.137  43.349  14.015
15039W        W78983  33.487   6.912   1.696
15040W        W78984  15.751  43.897  12.877
15041W        W78985  14.637  44.385  10.550
15042W        W78986  41.813  32.458   0.853
15043W        W78987  30.519  16.107  10.521
15044W        W78988  18.755   9.880  14.448
15045W        W78989  26.568  27.187  13.409
15046W        W78990   6.312  21.682  11.395
15047W        W78991  13.740   7.910   4.771
15048W        W78992  26.581   2.840   1.288
15049W        W78993  21.255  38.468  14.442
15050W        W78994   1.472  20.068  10.617
15051W        W78995  18.079  22.725   3.700
15052W        W78996  20.563  29.073   1.769
15053W        W78997  28.010   5.324  10.447
15054W        W78998  37.842  21.039  14.891
15055W        W78999  22.582   9.780   3.781
15056W        W79000   3.383  44.762  13.899
15057W        W79001  17.661  11.857  13.967
15058W        W79002  35.957   6.824  14.950
15059W        W79003  23.996  34.962   3.363
15060W        W79004   3.887  17.787  14.977
15061W        W79005   8.382  41.329   1.310
15062W        W79006  34.883  26.669  14.294
15063W        W79007  15.241  30.535  12.482
15064W        W79008   9.226  28.026   3.850
15065W        W79009  16.726  23.691   2.209
15066W        W79010  26.124  16.297  11.058
15067W        W79011   9.152  16.575   4.829
15068W        W79012  11.290   5.879   1.222
15069W        W79013  42.977  35.855   1.400
15070W        W79014   2.317   3.393  14.958
15071W        W79015  40.887  31.485   1.289
15072W        W79016   3.258  33.515   3.336
15073W        W79017  20.578   7.824  10.517
15074W        W79018   0.782  33.403  11.490
15075W        W79019   5.726  42.840   1.266
15076W        W79020   7.730  28.605  13.808
15077W        W79021  17.075  10.663   3.237
15078W        W79022   3.282  44.758  13.438
15079W        W79023  17.291   8.201  12.550
15080W        W79024  37.854   3.798   1.222
15081W        W79025  40.799  31.070  11.426
15082W        W79026   4.859  17.742   0.956
15083W        W79027  42.798  21.535   2.363
15084W        W79028  15.681  41.343  10.999
15085W        W79029  28.517  33.592  11.911
15086W        W79030  15.704   1.332   0.773
15087W        W79031  13.773   3.810  13.864
15088W        W79032   6.782  39.931  11.872
15089W        W79033   7.844   9.665  14.394
15090W        W79034  42.291  24.644   1.847
15091W        W79035  23.116  15.199   0.414
15092W        W79036  44.421  43.326  11.423
15093W        W79037  25.102   3.804  14.863
15094W        W79038  13.142  44.413   1.768
15095W        W79039   3.314  33.012   3.352
15096W        W79040   9.744  39.930   4.671
15097W        W79041  24.490  19.745   2.709
15098W        W79042  37.471  43.911   1.727
15099W        W79043   6.236  29.988  13.321
15100W        W79044  31.525  39.842   1.367
15101W        W79045   3.376   4.269   1.875
15102W        W79046   8.353  43.359  13.399
15103W        W79047   6.922  15.314  14.515
15104W        W79048  10.747  20.679   4.302
15105W        W79049  37.982   8.727   1.402
15106W        W79050  19.622  44.433  11.517
15107W        W79051  29.627  13.747  12.475
15108W        W79052   5.408  35.998   4.669
15109W        W79053   2.335  17.287  14.760
15110W        W79054  34.594  38.972  14.860
15111W        W79055  33.515  35.007  14.827
15112W        W79056  15.133  18.558   0.822
15113W        W79057  32.126   8.254  14.285
15114W        W79058  19.133  42.009   4.608
15115W        W79059  42.991  31.939   1.864
15116W        W79060  41.377  18.197  12.828
15117W        W79061   0.354   4.924   2.863
15118W        W79062  12.764   9.780   0.298
15119W        W79063   8.778   4.377   3.384
15120W        W79064  19.243  30.506  13.457
15121W        W79065  44.376  22.720  12.992
15122W        W79066  40.344  12.313  13.046
15123W        W79067  32.577  29.625  11.949
15124W        W79068  13.790  14.813   4.311
15125W        W79069  32.957  15.167  13.845
15126W        W79070  44.893  35.050   0.740
15127W        W79071   8.371   6.857   0.838
15128W        W79072  11.821  38.016   1.801
15129W        W79073  13.273  10.663   3.702
15130W        W79074   6.279  24.552  14.395
15131W        W79075  27.955  43.456  13.009
15132W        W79076  30.658   5.832  12.003
15133W        W79077  44.473  32.421   4.658
15134W        W79078   8.862  37.441   2.864
15135W        W79079  44.504   9.877  10.100
15136W        W79080   2.426  36.582  11.378
15137W        W79081  20.121  33.564   4.189
15138W        W79082   1.360   2.365   3.836
15139W        W79083  27.599  20.150   2.856
15140W        W79084  28.179   9.680  10.473
15141W        W79085  28.978  22.070   0.755
15142W        W79086   4.233  14.152  11.023
15143W        W79087   1.836   8.732  11.074
15144W        W79088  36.084  37.337   2.324
15145W        W79089   3.713  21.537  12.367
15146W        W79090  12.738  36.012   1.925
15147W        W79091  36.519  13.794   3.702
15148W        W79092   9.274   0.806  14.959
15149W        W79093  17.559  14.157  12.919
15150W        W79094   3.346   1.303   2.739
15151W        W79095  27.197  24.113   0.357
15152W        W79096   1.388  24.230  11.581
15153W        W79097  34.455  21.152  14.819
15154W        W79098  42.400  34.872  11.069
15155W        W79099  39.507  16.679   2.718
15156W        W79100  33.394  44.483  13.808
15157W        W79101  20.590   1.313  13.865
15158W        W79102  13.189  39.536  10.942
15159W        W79103  34.937   3.921  12.988
15160W        W79104  27.955  38.422   2.348
15161W        W79105  12.807  18.705  11.957
15162W        W79106  36.882   3.942   3.313
15163W        W79107  16.712   7.683  12.943
15164W        W79108  20.090  23.010   4.215
15165W        W79109  11.322  33.453   4.610
15166W        W79110  38.890   1.912   3.826
15167W        W79111  39.013  11.746  12.066
15168W        W79112  36.067  16.182  11.588
15169W        W79113  28.444  25.597   0.479
15170W        W79114  28.043  26.494  10.970
15171W        W79115  39.525  40.394   3.183
15172W        W79116  26.114  34.095   4.730
15173W        W79117   5.884  22.549   3.683
15174W        W79118   4.768  22.644  13.369
15175W        W79119  33.897  32.058   4.804
15176W        W79120  40.873  17.081   2.732
15177W        W79121  12.669  11.351   4.160
15178W        W79122  41.856  43.902  11.557
15179W        W79123  11.621   8.765   4.794
15180W        W79124   4.768  42.315  11.998
15181W        W79125  36.944  35.069   3.718
15182W        W79126  23.645  31.411   1.252
15183W        W79127  25.593   2.256   1.698
15184W        W79128   9.317  29.631   0.777
15185W        W79129  34.094  14.638   4.220
15186W        W79130  34.404  39.330  14.304
15187W        W79131   8.348  31.573   1.315
15188W        W79132  38.883  31.438  11.537
15189W        W79133   8.717  22.046   4.140
15190W        W79134  18.099  28.057   2.201
15191W        W79135  38.418  29.525  11.902
15192W        W79136  38.327  10.382  13.485
15193W        W79137  42.481  20.713   0.394
15194W        W79138  30.914   7.701   4.751
15195W        W79139  10.169  41.926   1.759
15196W        W79140  43.954  37.045  10.528
15197W        W79141  32.134  36.956  11.531
15198W        W79142  11.778  33.962  11.120
15199W        W79143  29.611  43.963  11.520
15200W        W79144  44.948   9.785   1.295
15201W        W79145  12.686  18.270   4.720
15202W        W79146  20.600  31.568  10.932
15203W        W79147   0.472   8.894  13.804
15204W        W79148  38.935  38.849   3.850
15205W        W79149  17.735  22.164   4.249
15206W        W79150  28.561   3.281   0.405
15207W        W79151  26.094  11.700   3.266
15208W        W79152  19.725   7.232   4.749
15209W        W79153  31.648  31.582  11.428
15210W        W79154  29.101   0.751   4.765
15211W        W79155   5.824  31.092   4.627
15212W        W79156  22.658  14.230   4.242
15213W        W79157  38.075  26.023   3.258
15214W        W79158  29.153  22.706  14.363
15215W        W79159  21.573   7.269  11.435
15216W        W79160  39.867  16.782  11.608
15217W        W79161  16.567  10.875   0.291
15218W        W79162  38.540   6.363   9.625
15219W        W79163  13.225  26.193  10.484
15220W        W79164  39.965  12.760   3.728
15221W        W79165  35.887  23.233  10.612
15222W        W79166   7.320  44.927  13.353
15223W        W79167  29.067   8.310  14.914
15224W        W79168  20.099   2.422   4.164
15225W        W79169  10.332   3.425  12.047
15226W        W79170  43.478   2.881  10.983
15227W        W79171   3.439   5.866   3.658
15228W        W79172  24.611  25.567  11.578
15229W        W79173  24.194  20.690   2.885
15230W        W79174  13.195  16.263  13.336
15231W        W79175  23.103  40.448  11.016
15232W        W79176  25.592  38.542   4.122
15233W        W79177  10.282  36.589   4.767
15234W        W79178  13.341  30.960  14.821
15235W        W79179  33.933  14.727  13.899
15236W        W79180  44.445  34.057  13.887
15237W        W79181  17.139   4.753   1.857
15238W        W79182  26.001  15.591   2.242
15239W        W79183  23.005  18.729   4.352
15240W        W79184   3.916  19.245   4.650
15241W        W79185  32.520   1.759   1.329
15242W        W79186  31.471  40.487   3.383
15243W        W79187  27.066   4.223   2.880
15244W        W79188  17.641  41.375  12.960
15245W        W79189  26.054  33.059   1.238
15246W        W79190  42.287  29.652  14.359
15247W        W79191  35.423   7.811  12.870
15248W        W79192  33.883  38.915  14.032
15249W        W79193  35.454  16.209  12.982
15250W        W79194  11.219  40.985   3.277
15251W        W79195  36.492   4.365  12.856
15252W        W79196   3.872   9.754  11.410
15253W        W79197  44.299  26.104   2.363
15254W        W79198  34.083  19.636  13.916
15255W        W79199  19.736  35.863   2.755
15256W        W79200  24.709   1.283  12.065
15257W        W79201  25.101  22.171  11.432
15258W        W79202   8.307  22.641   0.961
15259W        W79203  41.846  36.020   4.235
15260W        W79204  41.006   3.408  10.596
15261W        W79205   3.936  40.508  10.922
15262W        W79206  42.402  10.721   2.264
15263W        W79207  18.170   4.217   0.934
15264W        W79208  34.450  12.657   2.419
15265W        W79209  39.530  17.187   3.268
15266W        W79210  13.254  30.430  10.132
15267W        W79211   8.359  31.407  11.570
15268W        W79212  19.767  36.040   1.893
15269W        W79213  11.806   8.885   3.667
15270W        W79214  20.240  38.453  12.362
15271W        W79215   1.754  19.130  11.381
15272W        W79216  15.597  43.014   4.351
15273W        W79217  36.901  26.597   4.814
15274W        W79218  13.625  44.892  12.907
15275W        W79219  22.080  41.385   2.691
15276W        W79220  24.061  28.515  10.890
15277W        W79221  28.983   0.846  11.986
15278W        W79222  34.057  12.763  13.411
15279W        W79223  43.900  24.109   1.880
15280W        W79224  35.996  26.999   1.718
15281W        W79225  38.538  26.687   0.315
15282W        W79226  11.194  38.561   1.247
15283W        W79227  24.584  12.849   4.275
15284W        W79228   6.339  35.526  11.943
15285W        W79229  18.728  19.558  10.451
15286W        W79230  28.543   6.858  14.905
15287W        W79231  37.063  37.990  13.487
15288W        W79232  25.568  28.073   2.392
15289W        W79233  23.548  36.868   3.316
15290W        W79234  24.164  19.272  13.499
15291W        W79235   1.261  42.857   2.234
15292W        W79236  18.177  44.381  12.361
15293W        W79237  42.795  41.038   4.834
15294W        W79238   1.731  39.844  11.379
15295W        W79239  24.093  23.008   1.817
15296W        W79240  20.595  28.998   4.116
15297W        W79241  13.260  15.646   4.727
15298W        W79242  41.802  27.148  13.863
15299W        W79243  37.088   3.784  11.484
15300W        W79244  28.536  39.847  10.995
15301W        W79245  19.279  27.083  11.382
15302W        W79246  14.105  26.074   4.726
15303W        W79247   5.369  43.011  14.863
15304W        W79248  15.677  15.672   2.206
15305W        W79249  41.029   7.267  11.468
15306W        W79250  12.830  25.139  12.010
15307W        W79251  29.494   1.779   3.641
15308W        W79252  12.163  42.427   0.280
15309W        W79253  30.911  20.076   0.728
15310W        W79254   6.426  18.155   3.725
15311W        W79255  27.550  26.470  14.452
15312W        W79256  14.727  27.607  10.915
15313W        W79257  24.605  43.350   3.375
15314W        W79258  15.716  35.062   5.593
15315W        W79259  37.469   7.258   9.937
15316W        W79260  38.001   3.228   5.671
15317W        W79261  34.979  30.547   1.335
15318W        W79262  38.407  39.897   4.638
15319W        W79263  21.622  30.532   3.840
15320W        W79264  26.550  15.321   1.422
15321W        W79265  39.884   4.251  13.473
15322W        W79266  13.764  37.369   0.424
15323W        W79267  26.077  35.868  12.373
15324W        W79268  20.654  34.497   2.868
15325W        W79269  10.821   2.775  13.519
15326W        W79270  14.249  20.100   3.744
15327W        W79271  31.130  24.225   4.354
15328W        W79272  23.615  17.169  11.384
15329W        W79273  23.650  32.010   2.303
15330W        W79274  38.018  29.030  14.945
15331W        W79275  39.814  22.159  14.314
15332W        W79276  19.054  24.057  14.881
15333W        W79277   5.704   5.412  14.292
15334W        W79278  15.206  11.708  13.410
15335W        W79279  32.929  27.545   2.819
15336W        W79280  29.654   9.348  11.520
15337W        W79281  34.935  33.585  11.451
15338W        W79282  37.357  16.617   0.869
15339W        W79283  39.906  34.545  12.991
15340W        W79284  17.063   5.210  10.130
15341W        W79285  24.218  21.187   4.684
15342W        W79286  16.115   0.318  11.463
15343W        W79287  11.826  19.195   1.345
15344W        W79288  43.330   2.409  10.603
15345W        W79289  36.348   1.463  12.376
15346W        W79290  42.989  16.264  14.764
15347W        W79291  11.757  20.250   3.178
15348W        W79292  19.176   6.284  11.606
15349W        W79293  25.597  40.914  14.463
15350W        W79294   3.894  30.030  12.869
15351W        W79295  10.187   7.717  13.884
15352W        W79296   1.365  42.338  11.855
15353W        W79297   8.816   5.331   1.347
15354W        W79298  40.428  19.257  13.811
15355W        W79299  43.905  23.683  12.419
15356W        W79300  32.431  33.432   4.284
15357W        W79301  38.388  14.226  12.446
15358W        W79302  33.601  12.792  11.496
15359W        W79303  37.049  22.207   3.686
15360W        W79304  12.733  10.264  14.799
15361W        W79305   9.238  14.636  13.835
15362W        W79306  18.547  16.695  13.477
15363W        W79307   1.736  30.520  11.954
15364W        W79308  22.610  26.138  12.042
15365W        W79309  22.162  10.782   1.373
15366W        W79310   0.416  44.354  12.051
15367W        W79311  24.054   3.724   2.380
15368W        W79312  40.498  37.443   4.799
15369W        W79313  24.043  32.142  12.396
15370W        W79314  11.251  14.755  10.942
15371W        W79315  38.448  23.644   2.419
15372W        W79316   2.935  27.189  10.964
15373W        W79317  19.095   7.291   1.751
15374W        W79318  23.623  43.481   0.909
15375W        W79319  27.666   7.832  10.440
15376W        W79320  37.039  22.538   3.815
15377W        W79321  37.525   7.673   1.841
15378W        W79322  30.115   9.189   2.197
15379W        W79323  40.891  41.383  11.077
15380W        W79324  11.847  28.525  14.459
15381W        W79325   4.356  16.115   1.342
15382W        W79326   7.787   7.225  10.925
15383W        W79327  42.492  11.867   3.794
15384W        W79328  37.902  21.667  13.492
15385W        W79329  40.902  42.874   3.340
15386W        W79330  14.143  18.062  11.570
15387W        W79331   9.682  36.533  11.486
15388W        W79332  18.764  36.888   0.261
15389W        W79333  40.962  44.259   0.313
15390W        W79334  18.679  14.110  12.875
15391W        W79335  16.300  42.500   4.261
15392W        W79336   4.308  18.067   3.254
15393W        W79337  32.448   6.772   3.685
15394W        W79338  44.869   0.871  13.809
15395W        W79339  24.602   6.295   0.787
15396W        W79340  35.953  23.240   4.668
15397W        W79341  28.075   4.743  10.417
15398W        W79342   3.930  13.117   2.226
15399W        W79343  41.787   3.880   0.296
15400W        W79344  31.050   4.886   4.720
15401W        W79345  41.790   0.973  12.023
15402W        W79346   4.798   6.880  12.361
15403W        W79347  41.438  28.534   4.188
15404W        W79348  40.884  15.797  13.479
15405W        W79349   4.755  37.433   0.254
15406W        W79350   1.266  35.533   2.783
15407W        W79351  38.434   1.482  12.512
15408W        W79352  35.417  44.303  13.862
15409W        W79353  23.634  20.197   4.229
15410W        W79354  32.442  38.903   0.842
15411W        W79355   4.221   0.915  13.964
15412W        W79356  13.827  31.429  13.000
15413W        W79357  25.541   4.289  12.449
15414W        W79358  33.896  21.101  10.489
15415W        W79359   3.439  19.622  13.457
15416W        W79360  20.138   0.250   1.880
15417W        W79361  31.452  42.010   1.385
15418W        W79362  38.559  40.549  12.461
15419W        W79363   8.344  24.491  10.406
15420W        W79364   8.372  18.169   3.165
15421W        W79365  35.477  28.000  12.017
15422W        W79366  20.086  15.085   4.823
15423W        W79367  39.942  17.599  11.119
15424W        W79368  11.651   9.736  12.554
15425W        W79369   3.947   5.699  10.464
15426W        W79370  32.909  11.686  14.030
15427W        W79371   8.717  34.073  11.423
15428W        W79372  25.007  28.660  13.481
15429W        W79373  37.439  13.296   3.842
15430W        W79374  31.486  30.036  13.962
15431W        W79375  42.481  28.585   3.744
15432W        W79376  34.476  18.124  13.418
15433W        W79377  40.402   2.358   3.244
15434W        W79378  12.765  18.068  13.527
15435W        W79379  19.587  18.273  13.933
15436W        W79380  42.491  43.481  13.837
15437W        W79381  34.480  17.741   0.430
15438W        W79382  12.628   5.915   4.126
15439W        W79383  42.868  41.895  12.002
15440W        W79384  40.456  41.345   2.840
15441W        W79385  13.626  39.404   1.397
15442W        W79386  32.517  44.833   3.187
15443W        W79387   6.762  38.906   2.777
15444W        W79388  32.477  38.428  11.873
15445W        W79389  17.758  25.594   1.810
15446W        W79390  28.679   5.224   2.714
15447W        W79391  44.267  36.000   1.723
15448W        W79392  18.250  37.410   0.334
15449W        W79393  14.320  23.022  10.561
15450W        W79394  18.676  18.279   2.189
15451W        W79395  29.526  10.220  13.354
15452W        W79396  22.093  32.102  14.484
15453W        W79397   6.799  27.078   3.704
15454W        W79398  20.240  11.743  13.932
15455W        W79399   5.363  35.897   4.162
15456W        W79400  35.567   0.808  13.315
15457W        W79401  12.611   7.412  13.459
15458W        W79402  11.185  25.588  12.881
15459W        W79403  11.177  32.892  13.889
15460W        W79404   0.746  24.061   3.180
15461W        W79405   0.820  13.662  11.566
15462W        W79406  41.436  15.263   4.189
15463W        W79407  33.417  33.967   2.257
15464W        W79408  26.077  43.506   1.421
15465W        W79409  20.132  25.006   4.829
15466W        W79410  29.026  41.882  14.306
15467W        W79411  16.208   6.769   1.356
15468W        W79412  15.698   5.306  11.023
15469W        W79413   7.252  12.850   2.334
15470W        W79414  26.102   4.920  12.934
15471W        W79415   0.814   9.829  10.999
15472W        W79416   9.188  30.021   5.287
15473W        W79417  16.636   1.909   2.797
15474W        W79418  27.110  33.948  11.067
15475W        W79419  18.093  28.567   2.877
15476W        W79420  42.899   5.293  12.009
15477W        W79421  38.500  43.794  13.465
15478W        W79422   7.685  40.854   1.920
15479W        W79423   7.762  14.630   2.848
15480W        W79424  36.527  29.958   1.766
15481W        W79425  42.284  41.802   1.289
15482W        W79426  19.661  16.160   3.658
15483W        W79427  19.078  33.072  11.566
15484W        W79428  12.360  27.469   0.901
15485W        W79429  30.026  33.621  14.357
15486W        W79430  38.057   0.406   4.318
15487W        W79431  25.135  26.089   4.752
15488W        W79432  38.007  12.226   3.249
15489W        W79433  13.325  30.066  12.900
15490W        W79434  31.005  12.696   5.097
15491W        W79435  28.062  27.106  10.891
15492W        W79436  16.806  36.950   1.889
15493W        W79437  44.366  38.393   4.266
15494W        W79438  35.362  16.292   0.321
15495W        W79439  31.142  10.141  10.577
15496W        W79440   6.219  14.149   3.386
15497W        W79441  34.587   6.421   0.250
15498W        W79442  35.471  22.235   2.795
15499W        W79443  37.421  33.956  14.422
15500W        W79444  36.887  22.567  13.355
15501W        W79445  39.336   2.437   0.270
15502W        W79446  13.660  27.952  10.450
15503W        W79447  16.284  23.035  14.938
15504W        W79448  12.672  16.658   0.274
15505W        W79449  15.175  24.132  11.111
15506W        W79450  41.422  29.164  10.982
15507W        W79451  14.177  34.451   1.373
15508W        W79452   2.949   9.187   5.197
15509W        W79453  28.439  42.487  13.845
15510W        W79454  37.900  27.071   4.187
15511W        W79455  34.957  22.189   1.386
15512W        W79456  42.360  19.172   3.722
15513W        W79457  38.015  38.446   2.777
15514W        W79458  42.378  25.212   1.413
15515W        W79459  22.692   0.261   0.939
15516W        W79460   5.817   2.408   0.362
15517W        W79461  24.176  40.404   1.301
15518W        W79462  32.065  17.587  11.066
15519W        W79463  26.680  16.248  13.476
15520W        W79464  30.618  43.800  14.021
15521W        W79465  23.673  35.041  12.884
15522W        W79466  38.399  41.514   2.314
15523W        W79467  38.072   6.248   0.455
15524W        W79468  11.859  43.999   3.279
15525W        W79469  24.600  40.865  10.605
15526W        W79470  31.577  22.674   2.869
15527W        W79471  15.186  11.143   2.738
15528W        W79472   3.918  31.117   2.402
15529W        W79473  39.975  44.791  12.066
15530W        W79474   2.736   9.706   5.289
15531W        W79475  27.567  39.318  13.392
15532W        W79476  15.304   8.278   4.299
15533W        W79477  19.254  12.835   3.292
15534W        W79478  12.356  16.128   3.267
15535W        W79479   9.176  33.544   0.941
15536W        W79480  23.181  24.226   4.662
15537W        W79481  40.831   0.280   1.823
15538W        W79482  12.283  26.596   0.809
15539W        W79483  21.256  25.188  13.030
15540W        W79484  37.551  35.489  12.049
15541W        W79485  43.005  38.502   2.666
15542W        W79486   2.247  19.088  12.920
15543W        W79487  11.795  33.432   1.410
15544W        W79488  22.614  16.172   4.148
15545W        W79489  32.434   7.217   0.250
15546W        W79490  38.434  25.662   3.849
15547W        W79491  22.683  19.735   2.811
15548W        W79492  39.355   8.293  12.496
15549W        W79493  25.096  22.189   0.950
15550W        W79494  25.677  13.129  14.982
15551W        W79495  24.182  26.133   4.787
15552W        W79496  20.249  41.974   4.252
15553W        W79497  12.143  33.963   4.674
15554W        W79498  22.580   8.701   2.806
15555W        W79499  11.866   1.392  10.913
15556W        W79500  19.124  39.433  10.980
15557W        W79501   0.290   2.967   0.359
15558W        W79502  29.928  32.589   2.756
15559W        W79503  30.952  33.918   2.845
15560W        W79504  36.522  11.711  13.820
15561W        W79505  11.284  35.941  11.056
15562W        W79506  12.825  39.441  10.437
15563W        W79507  25.665  28.586  14.449
15564W        W79508  40.954  41.932  12.857
15565W        W79509  40.020  20.532  12.967
15566W        W79510  34.899   7.240  12.064
15567W        W79511  38.376  18.177   2.760
15568W        W79512  13.680  39.996   4.657
15569W        W79513  38.525  14.316   0.752
15570W        W79514  13.211   1.781   4.316
15571W        W79515   8.756  19.768  12.066
15572W        W79516   8.206  30.948  13.460
15573W        W79517  14.788   2.782  11.032
15574W        W79518  12.715  40.539   4.265
15575W        W79519   8.258   9.340  12.455
15576W        W79520  19.154  32.050   2.722
15577W        W79521  18.221  22.710  14.322
15578W        W79522  15.139  42.934   2.846
15579W        W79523  20.596  39.995   1.823
15580W        W79524  12.153   7.396   3.357
15581W        W79525  18.253  35.430  14.364
15582W        W79526  30.160   3.844   2.265
15583W        W79527  32.457   4.387  14.429
15584W        W79528  44.434  34.580   1.797
15585W        W79529  36.986  29.097  11.861
15586W        W79530  35.602  40.947  13.917
15587W        W79531  28.678  29.166   1.268
15588W        W79532  17.726  10.299   5.096
15589W        W79533   8.187  12.318   2.813
15590W        W79534  24.101  18.246  12.549
15591W        W79535  29.047   9.716  10.618
15592W        W79536  36.010  37.424   0.298
15593W        W79537  34.464  38.946  10.604
15594W        W79538  18.597  37.483   2.288
15595W        W79539  43.822  29.619   3.347
15596W        W79540  27.008  20.681  14.021
15597W        W79541  38.371  44.946   0.279
15598W        W79542  29.068  28.055  12.868
15599W        W79543  26.580  21.655   5.211
15600W        W79544  43.957  18.741  13.406
15601W        W79545  22.135   8.861   3.658
15602W        W79546  39.004  19.536  14.000
15603W        W79547  19.709  24.522  13.896
15604W        W79548  44.981  11.178   1.862
15605W        W79549   2.384  43.012  10.600
15606W        W79550  23.533  23.685  13.531
15607W        W79551  40.880  13.617   1.228
15608W        W79552   1.862  31.484  13.517
15609W        W79553  44.396  20.541   3.865
15610W        W79554  22.057  43.888  11.961
15611W        W79555   2.378   0.891  14.765
15612W        W79556  20.659  11.302   0.307
15613W        W79557   7.673  38.075   3.842
15614W        W79558   9.834  12.350   2.774
15615W        W79559  28.591  26.991   1.702
15616W        W79560  36.923  26.159   1.734
15617W        W79561  17.557  20.556   5.673
15618W        W79562  15.203   4.340  12.360
15619W        W79563  35.083  36.429   2.701
15620W        W79564  31.094  23.016  13.060
15621W        W79565  32.478  20.166   3.326
15622W        W79566  26.969  13.826   1.821
15623W        W79567  21.227  11.658  14.956
15624W        W79568  21.720  39.946  12.024
15625W        W79569  40.840  42.837  13.429
15626W        W79570  16.073  31.476  14.912
15627W        W79571  15.663  40.925   5.117
15628W        W79572  35.385  31.148   2.330
15629W        W79573   3.364  39.874  13.962
15630W        W79574  20.116  11.753   9.953
15631W        W79575   4.704   0.867  12.513
15632W        W79576   6.719   8.733  14.305
15633W        W79577   7.272  38.915  11.065
15634W        W79578  44.462   3.264  13.801
15635W        W79579  32.023   9.335   2.702
15636W        W79580  21.577  41.461  13.545
15637W        W79581   3.365  32.634   2.240
15638W        W79582  42.841   4.902  14.996
15639W        W79583   8.788   8.344   0.383
15640W        W79584  16.601  16.077  10.936
15641W        W79585   1.307  29.066   4.296
15642W        W79586  34.931   4.226  12.961
15643W        W79587  18.757  17.617  14.000
15644W        W79588  13.119  19.698  11.578
15645W        W79589  14.664  23.176   4.321
15646W        W79590   6.918   5.364   3.368
15647W        W79591  16.235  26.647  13.925
15648W        W79592   3.421  13.250   2.369
15649W        W79593   0.985   5.811  10.033
15650W        W79594  43.306  36.011   3.157
15651W        W79595  10.678  38.409   0.406
15652W        W79596  12.688  30.643  13.051
15653W        W79597  27.992  26.150  12.452
15654W        W79598  44.959  11.836  13.453
15655W        W79599   2.744  15.115  14.015
15656W        W79600   9.164  35.026  13.394
15657W        W79601   8.874   3.371   4.691
15658W        W79602   4.740   4.770  13.414
15659W        W79603   9.686  27.955   0.891
15660W        W79604  10.791  23.021  12.969
15661W        W79605  10.851  36.087  11.385
15662W        W79606  23.688   6.268  11.474
15663W        W79607  17.198  30.648   1.220
15664W        W79608  11.731  21.707   3.655
15665W        W79609  15.268  12.819   4.177
15666W        W79610  44.874   5.200   1.239
15667W        W79611  22.735  20.531   1.728
15668W        W79612   6.861  21.160  10.408
15669W        W79613  43.405   2.286  10.949
15670W        W79614  40.932  30.570   1.306
15671W        W79615  16.195   6.357  11.501
15672W        W79616  29.483  32.508   4.756
15673W        W79617  19.248  12.811   1.868
15674W        W79618  15.248  16.108  10.952
15675W        W79619  32.083  31.035   2.888
15676W        W79620  35.369  20.230   3.221
15677W        W79621   0.937   7.360  13.492
15678W        W79622  18.211  14.140   4.601
15679W        W79623  36.843  10.849   3.299
15680W        W79624   4.408  33.971   0.958
15681W        W79625  36.588  42.010   0.800
15682W        W79626  11.231  14.223  13.060
15683W        W79627  18.675   6.730  12.942
15684W        W79628  31.587  28.066   1.743
15685W        W79629   4.300  29.106   3.260
15686W        W79630  20.673   8.689   3.799
15687W        W79631  19.130   7.219   1.337
15688W        W79632  15.590  38.029   0.421
15689W        W79633   7.808  34.434  13.844
15690W        W79634  29.095  18.757  12.925
15691W        W79635  33.015   0.353   3.236
15692W        W79636  15.820  29.945   2.311
15693W        W79637  26.676  15.157   2.674
15694W        W79638   9.862  37.855  14.890
15695W        W79639   4.829  33.599   0.914
15696W        W79640  30.513  19.567  14.992
15697W        W79641   5.281  41.527  14.286
15698W        W79642   8.393  24.018   0.387
15699W        W79643  40.922  17.564  11.036
15700W        W79644   6.263  37.997  13.037
15701W        W79645  26.620  43.415   0.879
15702W        W79646  24.600  34.446   2.315
15703W        W79647   2.960  17.247   3.307
15704W        W79648   6.290  20.211  12.952
15705W        W79649  39.442   6.274   1.217
15706W        W79650   7.176  18.277   3.852
15707W        W79651  11.242  40.911  13.441
15708W        W79652  33.126  22.011   4.749
15709W        W79653  42.948   5.306  12.961
15710W        W79654  11.849  35.059   1.365
15711W        W79655  25.550   8.868  14.390
15712W        W79656  37.945  20.566   4.169
15713W        W79657  23.598  43.410   0.473
15714W        W79658   8.843  42.417   4.136
15715W        W79659   1.962  24.639   4.260
15716W        W79660   8.226  14.119  12.858
15717W        W79661   2.913   1.952  13.840
15718W        W79662  37.924   8.343   3.841
15719W        W79663  11.225  15.110  13.510
15720W        W79664   2.435  15.223  13.948
15721W        W79665  24.698  40.868  13.856
15722W        W79666  14.132  17.619  14.456
15723W        W79667  28.584  24.191  14.881
15724W        W79668  42.295  43.402   4.767
15725W        W79669  22.743   5.832   0.920
15726W        W79670  37.067   5.222   2.403
15727W        W79671  15.694  23.659  11.523
15728W        W79672  26.555   7.175   1.922
15729W        W79673  16.678   9.312  13.954
15730W        W79674  31.999  10.645   2.221
15731W        W79675  33.562   8.256  14.283
15732W        W79676  43.955  40.957   4.713
15733W        W79677  17.631  32.972  12.855
15734W        W79678  35.080  36.036   2.794
15735W        W79679  36.020   6.868  11.914
15736W        W79680  14.763   1.254   0.407
15737W        W79681  36.444   5.776  12.994
15738W        W79682   5.375   1.849   4.748
15739W        W79683   7.680  16.780  13.408
15740W        W79684   9.774  24.694  11.884
15741W        W79685  40.944  16.143   4.154
15742W        W79686   6.796  37.552  13.537
15743W        W79687   4.832  18.138  10.912
15744W        W79688  17.621   1.478   4.354
15745W        W79689  22.245  13.816   1.864
15746W        W79690  18.120  42.797  10.406
15747W        W79691  13.655   2.414   0.839
15748W        W79692   9.271  33.927  11.986
15749W        W79693  14.246  35.062   2.299
15750W        W79694   1.288   1.436  12.553
15751W        W79695  32.958  26.496   1.268
15752W        W79696   2.465   7.220   3.822
15753W        W79697  25.566  11.366  11.899
15754W        W79698   3.315   2.723   0.793
15755W        W79699  10.805  34.925  12.873
15756W        W79700  13.760   7.309  11.879
15757W        W79701  25.998   2.315   1.438
15758W        W79702   3.849  11.860   1.806
15759W        W79703   9.838  28.503   4.158
15760W        W79704  12.840  31.134  14.854
15761W        W79705   2.342  31.114   4.211
15762W        W79706   0.437   4.333   2.711
15763W        W79707  28.537  31.609  12.429
15764W        W79708   5.245  11.651   1.815
15765W        W79709   0.286  21.248   4.708
15766W        W79710  41.301  43.513  14.002
15767W        W79711  24.712   9.230   2.678
15768W        W79712  17.300  28.665  11.123
15769W        W79713  33.480  27.191   0.749
15770W        W79714  29.020   7.185   1.740
15771W        W79715  28.508  12.222   3.249
15772W        W79716  32.931  13.233   0.261
15773W        W79717  11.756  40.903  12.864
15774W        W79718  32.596  37.382  11.960
15775W        W79719  39.451  22.578  12.569
15776W        W79720  33.516  14.102  14.834
15777W        W79721  31.144  11.293  14.031
15778W        W79722  18.063  37.887   2.803
15779W        W79723   5.216  30.152   2.829
15780W        W79724  17.301  43.471   0.305
15781W        W79725   2.405  25.605   1.287
15782W        W79726  21.671  27.949   3.383
15783W        W79727  38.481  36.873   2.327
15784W        W79728  37.402  30.908  14.403
15785W        W79729  30.114  35.868  14.911
15786W        W79730  41.889  25.583   4.671
15787W        W79731  33.099  24.083   2.823
15788W        W79732  25.083  43.306   4.310
15789W        W79733   5.804   3.380  10.960
15790W        W79734   9.747  16.277  11.913
15791W        W79735   3.257  16.758   1.270
15792W        W79736  26.976  12.303   0.251
15793W        W79737  40.852  22.665   4.192
15794W        W79738  30.548   7.911  11.487
15795W        W79739   5.213  18.554  12.980
15796W        W79740  35.419  41.927  14.305
15797W        W79741  33.427  12.795   0.261
15798W        W79742  23.677  36.042   4.200
15799W        W79743  39.017  25.145   4.169
15800W        W79744  33.441  28.625  13.459
15801W        W79745  25.630  29.941  12.408
15802W        W79746  30.414  24.146  12.832
15803W        W79747  35.507  40.033   1.281
15804W        W79748  19.731  27.031  11.891
15805W        W79749  13.777  44.480  12.989
15806W        W79750   9.198  16.115   4.605
15807W        W79751  34.473  39.442   2.239
15808W        W79752  16.686  29.462   1.762
15809W        W79753   7.307  37.050  14.824
15810W        W79754  23.654  33.402   1.271
15811W        W79755   6.272  37.937   3.298
15812W        W79756  11.786  42.368  14.347
15813W        W79757   3.457  27.477  11.090
15814W        W79758  40.930   3.439   1.250
15815W        W79759  38.072  38.392  12.504
15816W        W79760   8.171  29.459   3.155
15817W        W79761   4.351  14.170   0.411
15818W        W79762  36.882  24.199   2.862
15819W        W79763  44.843  33.923  11.433
15820W        W79764  44.900   4.796  13.868
15821W        W79765  15.134   3.725  11.997
15822W        W79766   4.751  20.240   0.313
15823W        W79767  44.954  11.245   4.194
15824W        W79768  28.034   5.927   1.273
15825W        W79769   6.390  16.257  11.594
15826W        W79770  26.201  11.373   3.861
15827W        W79771  34.583   2.320  10.898
15828W        W79772  24.631  24.025   3.236
15829W        W79773   5.413  41.506   0.252
15830W        W79774  19.600  44.879   4.696
15831W        W79775   3.231  20.718   2.693
15832W        W79776  34.615  16.570   4.343
15833W        W79777  20.197  15.636  14.791
15834W        W79778   5.850  10.355  14.481
15835W        W79779  42.002   1.390  13.916
15836W        W79780  29.122  19.630   1.833
15837W        W79781  32.125  44.375   5.293
15838W        W79782  19.222  32.100  13.448
15839W        W79783  43.854  31.479  13.313
15840W        W79784   7.265   0.271  13.019
15841W        W79785  26.125  17.193  10.610
15842W        W79786  27.454  25.581   1.324
15843W        W79787  37.900  37.579  12.455
15844W        W79788  36.076  37.083  14.889
15845W        W79789  24.101   0.819   5.222
15846W        W79790  38.905  32.508  11.481
15847W        W79791  36.593  28.515   2.361
15848W        W79792  10.679  39.408   2.215
15849W        W79793  34.004  35.369  13.922
15850W        W79794   0.278  35.869   2.351
15851W        W79795   3.713  30.483  11.468
15852W        W79796  31.009  22.121  11.089
15853W        W79797   2.312   1.341   4.118
15854W        W79798  17.144  27.180  13.854
15855W        W79799  40.954  31.615   4.300
15856W        W79800  15.727  41.898   2.347
15857W        W79801   5.705  44.912   0.881
15858W        W79802  35.423  34.908   1.216
15859W        W79803  34.421  12.288  14.445
15860W        W79804  29.502  13.753   4.686
15861W        W79805  15.649  15.586  10.531
15862W        W79806  19.636  14.290  12.445
15863W        W79807   3.255   6.753   1.838
15864W        W79808  36.451  27.999  10.554
15865W        W79809  10.777   0.265  13.933
15866W        W79810  37.519  37.504   0.796
15867W        W79811  11.838  28.109   4.727
15868W        W79812  36.461  43.347   3.211
15869W        W79813  35.551  39.494   1.811
15870W        W79814  20.267   2.858  10.992
15871W        W79815  42.844  39.832  14.851
15872W        W79816  36.436  18.238  13.453
15873W        W79817  23.188  37.830  13.841
15874W        W79818  13.741   4.238  10.528
15875W        W79819  23.509  42.831  14.919
15876W        W79820  41.438  43.291   0.884
15877W        W79821  25.489  19.542   2.190
15878W        W79822  39.972  38.868   1.449
15879W        W79823   4.312  18.686  10.620
15880W        W79824  28.991  14.183  12.450
15881W        W79825  20.227  30.521   1.828
15882W        W79826  22.640  25.697   4.258
15883W        W79827  23.186  33.599  13.880
15884W        W79828  24.993  42.523   0.407
15885W        W79829  44.380  40.833   2.310
15886W        W79830  40.009  19.217  11.076
15887W        W79831  27.582   9.701   4.293
15888W        W79832  14.826  33.611  14.282
15889W        W79833  23.522  27.991  11.049
15890W        W79834  28.095  35.027  11.381
15891W        W79835  28.547   8.205   2.325
15892W        W79836  27.956   9.198   3.810
15893W        W79837  12.648  42.928   4.235
15894W        W79838  14.327  29.453  14.935
15895W        W79839   1.834  43.414  12.367
15896W        W79840   6.326   1.896  11.980
15897W        W79841  20.657  24.563   5.188
15898W        W79842  16.084  32.394  10.932
15899W        W79843   0.465  17.274   3.654
15900W        W79844   2.862  16.076   1.295
15901W        W79845  42.443   5.772  13.921
15902W        W79846  27.179  44.454   0.865
15903W        W79847   3.920   8.200  12.065
15904W        W79848  24.595  33.558  10.565
15905W        W79849  19.189  28.086   3.756
15906W        W79850  31.061  15.783   4.131
15907W        W79851  19.698  27.143  13.836
15908W        W79852   0.803  16.732   3.850
15909W        W79853   3.425  37.508  12.918
15910W        W79854   1.236  15.127   2.222
15911W        W79855  33.605  30.089   4.764
15912W        W79856   3.461  34.543   1.367
15913W        W79857  42.478  24.118  13.545
15914W        W79858  19.158  38.516  12.566
15915W        W79859   2.327   4.430  12.401
15916W        W79860  23.625   4.301   0.251
15917W        W79861   4.717  23.149   0.916
15918W        W79862   2.258   1.896  12.390
15919W        W79863   7.283   4.369   1.868
15920W        W79864  43.878  38.942   0.426
15921W        W79865   3.756  34.586   0.482
15922W        W79866  21.658  12.340  13.972
15923W        W79867  11.810  25.555   3.295
15924W        W79868  21.689  26.631  14.380
15925W        W79869   2.417  23.500  10.634
15926W        W79870  26.105  35.464  12.467
15927W        W79871  38.419  11.211  12.836
15928W        W79872  27.134  10.207  11.994
15929W        W79873   9.286   0.918   0.472
15930W        W79874  37.904  28.947  11.067
15931W        W79875   6.755  27.123   2.248
15932W        W79876  30.052  43.368  12.887
15933W        W79877  14.135  20.273  11.003
15934W        W79878  20.265  17.678   3.670
15935W        W79879   3.461  24.084  12.380
15936W        W79880  36.908  27.953  14.927
15937W        W79881  22.070  21.680   2.317
15938W        W79882  29.550  29.956  14.953
15939W        W79883  34.385  31.502   3.315
15940W        W79884  30.956  44.786   4.173
15941W        W79885   0.321  34.021  13.048
15942W        W79886  23.698   2.781   1.379
15943W        W79887  43.410   8.197  11.984
15944W        W79888  27.617   3.230   1.226
15945W        W79889  10.702  34.550   3.859
15946W        W79890  24.197  41.347   3.312
15947W        W79891  33.892  17.296   2.852
15948W        W79892  15.823  22.660   2.235
15949W        W79893  43.472   8.221   2.244
15950W        W79894  41.815  25.525   2.828
15951W        W79895  13.839  26.634  12.978
15952W        W79896  43.307  23.129  13.907
15953W        W79897  23.557  17.555   0.482
15954W        W79898  26.064   9.682   4.718
15955W        W79899   6.873  40.905   1.844
15956W        W79900  10.740  35.382  14.987
15957W        W79901  35.456   8.680   1.825
15958W        W79902  11.710  25.024   0.938
15959W        W79903  27.564  27.471  10.632
15960W        W79904  15.109   8.324   5.156
15961W        W79905  15.304   7.305  13.852
15962W        W79906  33.604  21.168   1.242
15963W        W79907  15.771  18.755  11.966
15964W        W79908  39.356  42.849   9.947
15965W        W79909  30.001   0.358   0.423
15966W        W79910  19.216  43.395   1.883
15967W        W79911  36.069   7.708  13.356
15968W        W79912  19.678  16.770  14.385
15969W        W79913  20.607  42.959  14.764
15970W        W79914  24.014   8.262   1.345
15971W        W79915  15.154  18.276   4.738
15972W        W79916  37.905  14.788   0.400
15973W        W79917  30.053  16.162  11.013
15974W        W79918  42.401   8.302  10.631
15975W        W79919  25.153  26.627   2.260
15976W        W79920  34.115  30.159  11.594
15977W        W79921  31.515   0.913   2.771
15978W        W79922  34.446  44.314   4.141
15979W        W79923  44.956  41.800   1.244
15980W        W79924  26.037  39.332  14.355
15981W        W79925  25.512   9.870   0.925
15982W        W79926  14.303  29.926   3.629
15983W        W79927  44.495  25.659   1.759
15984W        W79928  42.313  23.610  14.342
15985W        W79929  27.565   8.692   1.311
15986W        W79930  29.117  29.128   0.271
15987W        W79931  20.559  15.113   3.202
15988W        W79932   3.451   5.232  12.379
15989W        W79933  40.040  32.573  13.498
15990W        W79934  12.187  34.934  10.911
15991W        W79935  37.490   6.773  12.889
15992W        W79936  33.983   0.279   0.789
15993W        W79937  41.939  29.577   4.177
15994W        W79938  22.105  18.087  13.331
15995W        W79939  32.570  10.714  14.310
15996W        W79940  12.296  27.568  13.470
15997W        W79941  28.072  36.492  11.085
15998W        W79942  22.665  31.959  10.990
15999W        W79943  22.518  20.241  13.492
16000W        W79944  36.486  42.853   2.401
16001W        W79945  15.306  24.545  13.800
16002W        W79946  18.257  37.366  12.517
16003W        W79947  41.536  17.304  11.567
16004W        W79948  39.850  19.670   4.173
16005W        W79949  38.035  20.049   4.598
16006W        W79950  35.512  16.212   2.815
16007W        W79951  40.507   9.767  13.433
16008W        W79952  42.378  38.376  14.502
16009W        W79953  41.992  44.292   1.892
16010W        W79954  19.563  17.688  13.013
16011W        W79955  40.357  29.438  12.982
16012W        W79956  22.540  17.772  13.043
16013W        W79957  43.394  21.662  14.459
16014W        W79958  18.763   8.655  13.480
16015W        W79959  36.085  25.649   4.119
16016W        W79960   3.898  44.305   1.345
16017W        W79961  33.950  21.197   1.811
16018W        W79962   5.204   5.294  14.275
16019W        W79963  40.918  18.242   0.869
16020W        W79964  23.233  12.788  13.056
16021W        W79965  39.436  33.402   1.880
16022W        W79966  39.031   7.317  11.014
16023W        W79967  44.756  30.638   4.672
16024W        W79968  25.086  23.074  11.412
16025W        W79969  16.124  31.424  11.602
16026W        W79970   5.405   7.310   3.378
16027W        W79971  36.932  16.710   3.222
16028W        W79972  34.585  25.586   0.291
16029W        W79973   3.762  25.606   2.370
16030W        W79974  21.539   2.309  11.410
16031W        W79975  10.307   7.823   4.141
16032W        W79976  43.288  37.445  12.906
16033W        W79977  31.064  41.345  12.964
16034W        W79978   7.219  37.011  12.859
16035W        W79979  23.241  44.466  14.424
16036W        W79980  38.033  39.992  12.069
16037W        W79981  37.054  15.134  13.481
16038W        W79982   2.456   3.759  14.975
16039W        W79983  44.419  33.399   4.653
16040W        W79984  31.587  18.088  12.946
16041W        W79985  43.003   8.174  11.443
16042W        W79986  22.574  30.029   0.317
16043W        W79987   5.415  25.609   3.796
16044W        W79988  14.099  11.312   4.198
16045W        W79989  34.561  20.551  14.445
16046W        W79990   3.790  12.156   3.756
16047W        W79991  22.209  27.050  14.817
16048W        W79992   0.260   8.239   2.901
16049W        W79993  33.003  36.954  14.328
16050W        W79994  27.992  24.527  13.054
16051W        W79995  34.055   4.850   1.857
16052W        W79996   8.226  12.736  14.962
16053W        W79997   0.255  41.894  10.557
16054W        W79998   6.806  17.241   0.963
16055W        W79999  27.520  29.639  11.936
16056W        W80000  32.574  22.155  10.958
16057W        W80001  28.649  21.233  10.600
16058W        W80002  16.122  35.050   0.423
16059W        W80003  32.949  39.455   0.321
16060W        W80004  43.387  40.395   1.838
16061W        W80005  20.186  24.481  14.761
16062W        W80006   4.362   0.746  14.459
16063W        W80007   5.814  23.550   4.821
16064W        W80008   5.914  42.329  11.574
16065W        W80009  16.082  44.929  13.335
16066W        W80010  22.059  23.617   1.361
16067W        W80011  20.766  42.301  11.067
16068W        W80012  36.902  18.154  12.061
16069W        W80013  13.793  28.520  10.889
16070W        W80014  10.189  26.527  10.631
16071W        W80015   8.711  40.303  11.097
16072W        W80016  37.020  36.508   3.686
16073W        W80017  35.596  41.879  12.456
16074W        W80018  39.369  14.338   4.610
16075W        W80019  14.714  37.359   0.785
16076W        W80020  11.663  20.207   2.723
16077W        W80021  29.125   8.302  11.542
16078W        W80022  33.424  16.594   2.266
16079W        W80023  23.040  19.704   2.330
16080W        W80024  21.061  16.657  12.380
16081W        W80025  15.323  15.237  12.401
16082W        W80026  30.988  35.987   1.798
16083W        W80027  23.656   1.364  10.604
16084W        W80028  26.696   7.218  14.005
16085W        W80029  17.761  40.392   3.342
16086W        W80030   9.713   3.444   3.166
16087W        W80031  18.718   6.806  12.545
16088W        W80032  23.023  36.979  12.922
16089W        W80033  33.903  21.604   2.891
16090W        W80034  36.360   0.829   1.350
16091W        W80035  31.997  43.311   0.297
16092W        W80036  12.692  38.036   2.808
16093W        W80037  28.093  13.194   1.712
16094W        W80038  42.397  19.051  11.120
16095W        W80039  43.364  15.180  11.888
16096W        W80040  41.506   5.397   1.406
16097W        W80041  34.438  20.704  14.903
16098W        W80042   6.270  28.504  14.011
16099W        W80043   7.755  42.484   1.918
16100W        W80044  27.585  12.778  14.298
16101W        W80045  13.218  20.274   2.814
16102W        W80046   2.422  29.550   2.839
16103W        W80047  24.993   9.674  13.916
16104W        W80048  35.914  20.727  13.006
16105W        W80049  14.238  21.743   2.801
16106W        W80050  20.756   3.779  14.830
16107W        W80051  37.884  36.431   2.251
16108W        W80052   6.255   4.274  11.449
16109W        W80053   9.237   6.732   2.297
16110W        W80054  15.591   8.364  11.496
16111W        W80055  19.615  44.930   1.439
16112W        W80056  15.196  34.988   0.268
16113W        W80057  10.842  38.995  10.057
16114W        W80058  38.379  38.821  10.593
16115W        W80059  15.669  22.631   5.219
16116W        W80060  34.909  14.818   3.816
16117W        W80061   5.242  10.384   3.203
16118W        W80062   8.244  11.733   0.438
16119W        W80063   1.252  24.105   2.673
16120W        W80064  42.526   2.445  11.096
16121W        W80065  29.157  29.964   0.282
16122W        W80066  30.453  41.812  10.054
16123W        W80067  20.756   3.224   4.799
16124W        W80068  20.684  39.054   2.683
16125W        W80069  33.620  17.678  13.979
16126W        W80070  30.511   4.718   5.206
16127W        W80071  43.508  24.069   0.304
16128W        W80072  35.539  34.490  11.481
16129W        W80073   3.867  42.431   4.137
16130W        W80074  24.978  38.995  13.438
16131W        W80075   1.274  27.645  14.973
16132W        W80076  39.046   0.308  10.070
16133W        W80077  14.655  32.611   3.799
16134W        W80078  19.280   4.792   4.199
16135W        W80079  27.043   8.868   2.898
16136W        W80080  15.593  41.798  10.441
16137W        W80081  14.315  26.187  14.017
16138W        W80082  18.666  44.316  14.802
16139W        W80083  22.689  39.465   0.867
16140W        W80084   5.400  39.032  10.444
16141W        W80085  29.450  28.446  14.812
16142W        W80086  17.570  13.328   1.367
16143W        W80087  18.772   5.787  13.010
16144W        W80088  11.657  31.076   0.964
16145W        W80089  22.686  32.132   2.870
16146W        W80090  11.621  20.255  13.547
16147W        W80091  31.949   6.726   4.778
16148W        W80092  31.471   0.817  14.449
16149W        W80093  37.496  34.951   2.419
16150W        W80094   4.430  26.582  10.058
16151W        W80095  18.569  23.710  13.507
16152W        W80096  35.891   6.831  12.575
16153W        W80097  18.083  40.993  10.913
16154W        W80098  38.988   9.347   4.766
16155W        W80099  18.278  34.959   4.735
16156W        W80100  38.390  11.866   4.257
16157W        W80101  20.043  21.654   2.378
16158W        W80102  17.067  34.114   0.350
16159W        W80103  38.545  43.301   0.793
16160W        W80104  41.808  24.543  12.533
16161W        W80105  12.144  28.582   0.859
16162W        W80106  10.794  26.475  11.509
16163W        W80107  39.359  30.006  12.982
16164W        W80108  28.038   1.784   2.367
16165W        W80109  34.987  42.302   3.653
16166W        W80110  31.025  12.253  12.569
16167W        W80111  27.955  14.216   1.925
16168W        W80112  22.067  23.069   1.435
16169W        W80113  27.996  31.125  12.411
16170W        W80114  44.422  12.317   0.871
16171W        W80115   7.764   3.824  10.554
16172W        W80116  23.124  18.748  10.895
16173W        W80117  35.494  22.742   0.819
16174W        W80118   6.192  29.971   1.734
16175W        W80119  22.050  30.086  12.970
16176W        W80120  28.021  34.893  13.495
16177W        W80121  30.072   4.714   3.169
16178W        W80122  19.181  27.082   0.764
16179W        W80123  10.860  26.514   2.669
16180W        W80124   2.362  15.815   2.735
16181W        W80125  17.684  26.971  10.588
16182W        W80126  28.100  10.162  14.820
16183W        W80127  23.700   6.784   0.806
16184W        W80128  40.874  23.497   2.214
16185W        W80129   8.279  16.079  14.883
16186W        W80130  31.503  31.020   2.302
16187W        W80131   9.658   9.821  14.470
16188W        W80132  13.246  32.530  12.043
16189W        W80133   0.381  27.610  12.400
16190W        W80134   0.907  11.294   1.745
16191W        W80135  11.860  23.185   9.958
16192W        W80136  10.833  36.375  10.537
16193W        W80137  39.874  44.863  12.951
16194W        W80138  13.724  41.033   1.901
16195W        W80139  32.944  32.125  10.956
16196W        W80140  11.160   5.871  12.845
16197W        W80141  34.433   8.348  14.893
16198W        W80142   8.193  35.468  12.064
16199W        W80143   4.296  36.073   0.778
16200W        W80144  43.805   7.224   3.776
16201W        W80145   1.948   7.283   1.247
16202W        W80146  21.556  22.073   2.708
16203W        W80147   8.236  28.034   0.958
16204W        W80148  11.148   4.256  12.456
16205W        W80149   4.761  27.460  11.993
16206W        W80150  19.688  12.239  13.858
16207W        W80151   1.939  42.322  11.046
16208W        W80152   0.364  27.994   1.250
16209W        W80153   8.207  44.762  14.403
16210W        W80154  41.413  33.112   3.191
16211W        W80155   3.316  15.253   0.782
16212W        W80156  15.742  21.756  13.368
16213W        W80157   2.375   7.324  12.949
16214W        W80158  42.346  39.464  11.009
16215W        W80159   8.740  23.158  11.024
16216W        W80160  41.969  12.713  13.451
16217W        W80161  30.969   8.186  11.422
16218W        W80162  17.706   8.268  12.904
16219W        W80163  23.013  28.653   3.274
16220W        W80164   7.202  25.559   3.181
16221W        W80165  19.151  30.569   2.846
16222W        W80166  14.277  40.475   4.806
16223W        W80167  14.637  21.742   1.226
16224W        W80168  11.274  28.592  10.527
16225W        W80169   9.836  27.189   1.761
16226W        W80170  37.071  44.953   0.838
16227W        W80171  14.629  26.034  11.098
16228W        W80172   6.256  35.859   1.301
16229W        W80173   6.905   9.164   2.200
16230W        W80174  43.337   6.195  11.412
16231W        W80175  30.475  29.514  11.567
16232W        W80176  42.897  26.139  11.016
16233W        W80177  34.439   2.871   0.930
16234W        W80178  44.934  15.089  13.445
16235W        W80179  42.982  36.532  14.852
16236W        W80180  44.468  20.643  14.849
16237W        W80181  36.992  29.096   0.345
16238W        W80182  41.485   4.754   0.244
16239W        W80183  10.661   7.767  14.323
16240W        W80184  35.451  34.044   4.703
16241W        W80185  38.445   9.819   4.140
16242W        W80186   9.357   6.698   1.333
16243W        W80187   9.801  39.430   2.214
16244W        W80188  18.192  14.728  14.347
16245W        W80189  37.553  18.063   4.204
16246W        W80190   8.838  10.873  11.035
16247W        W80191   8.680  27.568   0.337
16248W        W80192  25.114  39.859  13.963
16249W        W80193  40.316  19.091  11.897
16250W        W80194   3.954  18.054  12.050
16251W        W80195  28.018  37.925  12.343
16252W        W80196   3.818  13.272  12.007
16253W        W80197  10.289  18.637  14.969
16254W        W80198  36.062  38.565   2.897
16255W        W80199  41.936  19.069   2.275
16256W        W80200  14.782  16.208   0.848
16257W        W80201  24.480   4.372  10.941
16258W        W80202   4.212  27.095  10.431
16259W        W80203  18.228  27.660   3.651
16260W        W80204  22.510  13.644   3.233
16261W        W80205   8.231  37.518  12.569
16262W        W80206   9.149  34.960  11.099
16263W        W80207  26.656  38.427   0.727
16264W        W80208  22.625  22.680  11.462
16265W        W80209  27.152  12.718   3.348
16266W        W80210  39.376  31.982   3.290
16267W        W80211  27.065  31.054  14.382
16268W        W80212  30.469  22.684   1.876
16269W        W80213  25.536  20.051  12.844
16270W        W80214  22.010  16.623   3.848
16271W        W80215   6.188  21.610   0.469
16272W        W80216   8.821   0.379  11.942
16273W        W80217  42.438  31.410  13.928
16274W        W80218   5.206  40.051   0.376
16275W        W80219  17.117   1.243  12.472
16276W        W80220   8.304  26.073  11.877
16277W        W80221  16.109  37.452  10.556
16278W        W80222  13.214  44.400   1.256
16279W        W80223   1.928  13.836  14.796
16280W        W80224  22.663  11.648  10.586
16281W        W80225   8.230  13.801  11.123
16282W        W80226  41.955  12.191   1.284
16283W        W80227  29.443  33.392  11.597
16284W        W80228  41.873  30.137   0.350
16285W        W80229  33.976  29.947  14.407
16286W        W80230  15.776   0.964   1.416
16287W        W80231  22.558   4.782  12.968
16288W        W80232  11.807  39.434  13.357
16289W        W80233  12.301  12.230  14.314
16290W        W80234  19.547  44.290   4.618
16291W        W80235  37.548  36.526   1.754
16292W        W80236   2.917   4.788   2.669
16293W        W80237  42.344  40.912  12.383
16294W        W80238   4.440  12.793  13.396
16295W        W80239  41.411   2.756   0.260
16296W        W80240  25.042  24.546   4.244
16297W        W80241  44.323  35.541  11.489
16298W        W80242  37.441   5.700   4.734
16299W        W80243  37.482  10.672   0.355
16300W        W80244  14.790  13.220  14.885
16301W        W80245  34.939  40.041  13.997
16302W        W80246  34.513  13.746   2.856
16303W        W80247  28.175  29.533  10.963
16304W        W80248   6.683   1.776   1.240
16305W        W80249  30.145  25.606  12.408
16306W        W80250  40.395  15.262  10.439
16307W        W80251   1.431  20.691  12.546
16308W        W80252  40.472  26.977   4.135
16309W        W80253   2.868   4.806   3.724
16310W        W80254  19.244  40.512   1.383
16311W        W80255  16.569  17.278   2.765
16312W        W80256   2.959   4.248  11.990
16313W        W80257  18.148  16.653  14.353
16314W        W80258  17.656  32.438  10.037
16315W        W80259  37.496  37.028   3.698
16316W        W80260  17.119   9.294   9.952
16317W        W80261  15.176   0.970  10.954
16318W        W80262  28.578  29.426   0.793
16319W        W80263  20.203   4.839   2.853
16320W        W80264   9.737  11.276   0.935
16321W        W80265  25.151  21.597  13.476
16322W        W80266  21.653  22.143  14.790
16323W        W80267   3.285  12.271   3.659
16324W        W80268  36.986  16.270  14.356
16325W        W80269  11.318  22.078  13.325
16326W        W80270  17.557   5.279   2.797
16327W        W80271  42.502  38.888  13.828
16328W        W80272   4.792  17.296   3.249
16329W        W80273   6.360   0.812  13.928
16330W        W80274  21.242  32.597  11.119
16331W        W80275  20.056  14.265  11.011
16332W        W80276   0.400  41.797  14.290
16333W        W80277   8.723  33.523  11.610
16334W        W80278  19.219  26.637  14.763
16335W        W80279  28.541  42.468  12.402
16336W        W80280  43.928   2.338  14.322
16337W        W80281  14.792   6.393  14.815
16338W        W80282  17.106  31.930  13.505
16339W        W80283  17.176   7.387  14.434
16340W        W80284  38.396   4.795  14.994
16341W        W80285  41.026  24.524  10.597
16342W        W80286  43.009  37.400  10.555
16343W        W80287   0.249  28.036  12.987
16344W        W80288   5.907  20.558   3.765
16345W        W80289  31.589  41.017  12.458
16346W        W80290  40.946  14.620  13.007
16347W        W80291  37.014   2.722   1.411
16348W        W80292   0.347   8.242   0.266
16349W        W80293   8.240  39.879  13.434
16350W        W80294  33.983  17.103   0.343
16351W        W80295  36.566  36.367   3.171
16352W        W80296  41.363  24.491  11.099
16353W        W80297  37.511  42.782   0.834
16354W        W80298   3.780   6.297   2.753
16355W        W80299  28.149   5.905   4.272
16356W        W80300   5.349  15.752  14.419
16357W        W80301  15.604  37.505   4.837
16358W        W80302   4.408  26.651   0.905
16359W        W80303  22.553   3.454  12.942
16360W        W80304  14.757  33.112   1.422
16361W        W80305  15.585  38.494  14.894
16362W        W80306  42.478  20.551   1.830
16363W        W80307  31.499  16.136   1.269
16364W        W80308   0.819  41.905   0.407
16365W        W80309  13.132  16.617  10.952
16366W        W80310  22.503  16.786   0.281
16367W        W80311  34.877   0.945  12.953
16368W        W80312  11.631   6.414   0.909
16369W        W80313  18.614  11.664  14.376
16370W        W80314   1.868  15.231   3.635
16371W        W80315  43.388  30.936  13.792
16372W        W80316  29.622  13.746   1.288
16373W        W80317   9.782  22.252  12.421
16374W        W80318  12.824  41.914  12.557
16375W        W80319   2.257  11.208   1.288
16376W        W80320   4.366   7.281   3.720
16377W        W80321  37.946  40.038   2.792
16378W        W80322  40.018  14.262   2.742
16379W        W80323  22.637  42.489  12.540
16380W        W80324  44.800  18.195   0.462
16381W        W80325  34.042  26.633   4.681
16382W        W80326  10.174  30.479   2.815
16383W        W80327  42.391  27.554  12.573
16384W        W80328  44.304  13.168  14.878
16385W        W80329  18.562  43.831   1.807
16386W        W80330  30.556  31.605  12.992
16387W        W80331   1.471  36.034  14.002
16388W        W80332  38.947  44.841   0.336
16389W        W80333  39.866  39.812  14.376
16390W        W80334   2.300  29.610  11.039
16391W        W80335  28.460   4.257  11.378
16392W        W80336  27.032  18.779   2.866
16393W        W80337   2.759  37.970   1.840
16394W        W80338  10.777   3.266  10.558
16395W        W80339   6.353  24.981   2.686
16396W        W80340  40.831  10.674   4.257
16397W        W80341  12.675  39.857  10.440
16398W        W80342   3.814   3.768   3.775
16399W        W80343   3.744   5.321  11.559
16400W        W80344  39.544  39.501  12.509
16401W        W80345  35.957  30.940   0.809
16402W        W80346  44.877  24.980  14.008
16403W        W80347  35.594   8.672   1.410
16404W        W80348  21.198  14.678  13.535
16405W        W80349   6.767  26.051   1.357
16406W        W80350  26.036  28.144   4.328
16407W        W80351  21.517  24.160   2.256
16408W        W80352  33.525  25.999   0.316
16409W        W80353   4.730  32.602  13.015
16410W        W80354   0.869  12.258  13.862
16411W        W80355  34.447  23.040   2.214
16412W        W80356  12.353  41.933  13.030
16413W        W80357  16.685   7.810  12.094
16414W        W80358   8.404  31.432   1.887
16415W        W80359  11.717  24.223  13.909
16416W        W80360  22.101   4.936   4.621
16417W        W80361   0.806   4.819  12.365
16418W        W80362  11.158  40.984  11.069
16419W        W80363  32.914  13.220  14.820
16420W        W80364  33.897  34.519  14.869
16421W        W80365  20.610   5.319  12.010
16422W        W80366  41.431  29.626   0.271
16423W        W80367  38.981  39.537   4.790
16424W        W80368  15.577  36.941  10.031
16425W        W80369   1.895  29.068  12.561
16426W        W80370  36.929  25.115   4.175
16427W        W80371  13.773  30.050   0.839
16428W        W80372  42.518  21.522   2.896
16429W        W80373  23.053  33.538   2.702
16430W        W80374  43.806  19.204   4.264
16431W        W80375  13.200  34.012  11.874
16432W        W80376  28.175  35.365   4.716
16433W        W80377  23.520   3.272   5.152
16434W        W80378   7.362  38.354  11.128
16435W        W80379  39.818  26.207   3.694
16436W        W80380  44.972  30.097  12.967
16437W        W80381  28.670   9.649   4.196
16438W        W80382  30.456  20.194  13.942
16439W        W80383   1.779  42.327  10.604
16440W        W80384   2.963   0.887   4.176
16441W        W80385  39.441  39.499  13.524
16442W        W80386   2.787   1.782  13.053
16443W        W80387  18.166  39.977   1.705
16444W        W80388   3.882  29.040   0.838
16445W        W80389  12.776  23.580   1.309
16446W        W80390  15.104  10.147  14.415
16447W        W80391  21.665  20.192   2.198
16448W        W80392   4.741   3.350  11.432
16449W        W80393   3.874   7.881   2.812
16450W        W80394   3.236  22.231  10.486
16451W        W80395  41.814  11.297   1.308
16452W        W80396  10.228   5.270  12.945
16453W        W80397  29.430   0.412  13.329
16454W        W80398  33.883  38.504  13.528
16455W        W80399  26.120  16.299  13.878
16456W        W80400  33.504  37.963   3.218
16457W        W80401  21.726  16.141   4.288
16458W        W80402  27.000  21.141  14.011
16459W        W80403  32.073   6.297  13.467
16460W        W80404  42.831   9.253   4.145
16461W        W80405  39.400  29.661   4.206
16462W        W80406  42.925  24.714   0.901
16463W        W80407  31.567  33.972   1.450
16464W        W80408  43.801  42.450   3.196
16465W        W80409  34.487  32.026   2.279
16466W        W80410  12.295   0.964   0.953
16467W        W80411   9.819  37.839   4.646
16468W        W80412   8.685  28.001   4.759
16469W        W80413  39.023  42.430  13.314
16470W        W80414  42.948  43.952   1.301
16471W        W80415  18.692  40.404  13.453
16472W        W80416   6.869  35.935   3.848
16473W        W80417  42.909  34.522   3.695
16474W        W80418  38.992   6.733   0.955
16475W        W80419  25.521  14.778   2.319
16476W        W80420  13.263  41.956  12.343
16477W        W80421  10.323  27.643   4.641
16478W        W80422  44.790  41.384  13.942
16479W        W80423  20.569  41.527  11.412
16480W        W80424   7.725  38.377  13.382
16481W        W80425  31.131   0.318  13.512
16482W        W80426  15.098  41.913   2.826
16483W        W80427  43.975   1.738   1.784
16484W        W80428  25.169  14.629  14.954
16485W        W80429   7.328  24.704   0.805
16486W        W80430  28.143  22.721   2.831
16487W        W80431  42.907   6.381  13.397
16488W        W80432  43.982  27.940   4.763
16489W        W80433   4.246  10.321  11.004
16490W        W80434  39.851   6.336  14.890
16491W        W80435  19.229  32.123  12.427
16492W        W80436  27.529  13.677   2.237
16493W        W80437  17.731  39.961   0.859
16494W        W80438  22.584  12.701  13.412
16495W        W80439  37.989  22.106  11.905
16496W        W80440  18.063   1.841  14.469
16497W        W80441  25.665  37.436   2.395
16498W        W80442   3.793  39.912   3.695
16499W        W80443  13.111  11.780  10.145
16500W        W80444  43.809   8.193   0.878
16501W        W80445   7.750  28.029  12.000
16502W        W80446  22.669  31.460   3.722
16503W        W80447   5.291   9.781  11.377
16504W        W80448   0.770  13.170  13.909
16505W        W80449  29.593   9.746   4.217
16506W        W80450  31.906  21.175  14.440
16507W        W80451  23.651  17.740  11.903
16508W        W80452  12.743  28.676   4.315
16509W        W80453  14.116  20.195   2.386
16510W        W80454  42.331   6.700  14.937
16511W        W80455  24.055  26.675  14.338
16512W        W80456  29.499  35.572  10.966
16513W        W80457  27.588   5.736  10.928
16514W        W80458  23.201  34.958  11.525
16515W        W80459  18.077  15.166   3.376
16516W        W80460  15.754  31.126   1.846
16517W        W80461  34.057  22.652   2.237
16518W        W80462  33.603  14.685   0.849
16519W        W80463  43.931   5.896  14.412
16520W        W80464  14.788  16.102   4.127
16521W        W80465   0.255  19.064  12.955
16522W        W80466  32.053  11.372  12.037
16523W        W80467   4.388  24.018   2.900
16524W        W80468   8.721   3.913   4.269
16525W        W80469  13.167   1.863   5.587
16526W        W80470   6.365  37.507  11.609
16527W        W80471  43.446   3.908   4.769
16528W        W80472   4.270   4.715   0.824
16529W        W80473  11.212   9.876  14.455
16530W        W80474   3.459  34.464  11.129
16531W        W80475  10.660  25.072   1.852
16532W        W80476   2.274   0.871   1.744
16533W        W80477  28.661   0.321   2.189
16534W        W80478  21.618  39.476  14.354
16535W        W80479  35.535  28.024  11.552
16536W        W80480  10.194  36.056   0.760
16537W        W80481  21.552  42.329   1.385
16538W        W80482  16.694  38.365   2.204
16539W        W80483   2.236  16.107   4.726
16540W        W80484   7.279  14.307  14.489
16541W        W80485   2.255   4.711   0.254
16542W        W80486  41.291   5.852   2.242
16543W        W80487  25.486   1.753   4.753
16544W        W80488  25.202   1.348  13.446
16545W        W80489  22.624  27.044   1.864
16546W        W80490  32.016   4.885  14.008
16547W        W80491  29.437  40.407  11.431
16548W        W80492  20.074  15.708  13.833
16549W        W80493  18.708   3.324   1.393
16550W        W80494  38.543  11.349   2.833
16551W        W80495  29.585   3.248   2.687
16552W        W80496  18.075   4.438   4.696
16553W        W80497   5.890   9.889  13.970
16554W        W80498   4.274  37.363   2.789
16555W        W80499  30.486  23.997   3.225
16556W        W80500  17.161  10.177  10.941
16557W        W80501  26.022  12.289   2.835
16558W        W80502  18.061   1.936  12.510
16559W        W80503  25.468   9.746   2.375
16560W        W80504  14.225  36.358  10.404
16561W        W80505  39.063  28.118  10.543
16562W        W80506   6.889  38.888   3.759
16563W        W80507  16.307  32.130  15.000
16564W        W80508  32.963  15.761  14.997
16565W        W80509  42.416  10.646   0.400
16566W        W80510  30.047  13.683   4.690
16567W        W80511  40.408   1.975   0.889
16568W        W80512   9.181  40.328  11.983
16569W        W80513  40.014  43.283  10.947
16570W        W80514  20.635  15.646  14.489
16571W        W80515  39.517  34.450   2.697
16572W        W80516   1.438   4.311   1.911
16573W        W80517  14.120  42.471   0.939
16574W        W80518  42.369  31.026  10.923
16575W        W80519  27.584  33.391  12.015
16576W        W80520  37.342   9.685   0.305
16577W        W80521   2.285  27.609   1.724
16578W        W80522  26.508  31.000   0.249
16579W        W80523  26.114  27.474  10.904
16580W        W80524  31.409  10.198  12.012
16581W        W80525  23.632  42.467   1.927
16582W        W80526   4.842  32.030   3.206
16583W        W80527  39.461  29.991  12.401
16584W        W80528  34.514   2.235   3.162
16585W        W80529  26.570  33.586  12.016
16586W        W80530  33.115  44.774   3.763
16587W        W80531  28.944  20.072   4.272
16588W        W80532  38.854   2.760  13.531
16589W        W80533  43.937  44.007   4.116
16590W        W80534   2.332  18.725   3.744
16591W        W80535  43.986  24.071  11.048
16592W        W80536  23.506   2.402   2.700
16593W        W80537  34.601  42.895  13.547
16594W        W80538  38.989  38.500  13.960
16595W        W80539  17.294   9.686   0.471
16596W        W80540  15.819  35.973   3.802
16597W        W80541  28.006   0.402  10.901
16598W        W80542  29.604  35.933  10.435
16599W        W80543  28.591  34.987  14.370
16600W        W80544   0.909  40.960   4.253
16601W        W80545  26.571  22.559   4.256
16602W        W80546  11.792  25.073  11.595
16603W        W80547  10.694  44.870   3.181
16604W        W80548  18.178  23.560  11.974
16605W        W80549  35.580  23.096  12.576
16606W        W80550  18.791  10.320   0.885
16607W        W80551   5.754  41.297  13.900
16608W        W80552  14.330  44.931   0.366
16609W        W80553   7.413   0.891  11.039
16610W        W80554  38.067  31.076  13.982
16611W        W80555   3.816   4.747   3.191
16612W        W80556   2.301  35.093   3.321
16613W        W80557  37.958  12.132   1.882
16614W        W80558  33.078   3.453  11.873
16615W        W80559  35.576  32.930   4.247
16616W        W80560   9.370  13.351  14.953
16617W        W80561  39.859  42.017  11.932
16618W        W80562  27.534  26.656   1.817
16619W        W80563  22.512   3.840  14.854
16620W        W80564  39.809  32.098  10.125
16621W        W80565  42.827  25.583   1.280
16622W        W80566  43.991  34.410  10.989
16623W        W80567  26.524   1.286  10.563
16624W        W80568  39.044  37.978  13.016
16625W        W80569  16.604  29.638  10.914
16626W        W80570   0.887   3.773  13.933
16627W        W80571  16.599   8.393   3.232
16628W        W80572  13.304   7.891  10.500
16629W        W80573   7.760  40.935  12.394
16630W        W80574  40.500  37.388   3.216
16631W        W80575  36.563  39.901  13.984
16632W        W80576   7.384   0.399   4.663
16633W        W80577  14.642  28.000  10.892
16634W        W80578  28.516  26.981  12.951
16635W        W80579  22.556  10.230   0.735
16636W        W80580   8.276  32.129   2.316
16637W        W80581  40.340  23.099   3.384
16638W        W80582   7.247  41.301   1.773
16639W        W80583  30.416  10.177   1.211
16640W        W80584  24.025  38.328  10.976
16641W        W80585  14.818  10.279  14.439
16642W        W80586  12.164  44.963   4.740
16643W        W80587   6.267  12.166   2.351
16644W        W80588  39.364  35.531   3.640
16645W        W80589  14.152  41.937  13.429
16646W        W80590  25.556  17.177   1.424
16647W        W80591   6.411  32.130  11.860
16648W        W80592  17.655  32.619   4.339
16649W        W80593  11.353  32.906   4.655
16650W        W80594  16.100  41.534  11.425
16651W        W80595  11.781  31.533  13.435
16652W        W80596   8.843  24.515  12.554
16653W        W80597  12.313  43.817  12.853
16654W        W80598  18.591  31.507  14.417
16655W        W80599  40.962  16.759   3.782
16656W        W80600  39.041  25.002  13.806
16657W        W80601  11.165  37.396   0.251
16658W        W80602  34.577   1.731  11.015
16659W        W80603   1.935  26.535  10.464
16660W        W80604  36.436   3.808  11.936
16661W        W80605   3.788  17.662  10.946
16662W        W80606   4.257  43.299   1.888
16663W        W80607  26.969  16.745  13.320
16664W        W80608  40.991  35.602  14.421
16665W        W80609   1.264  35.916  14.298
16666W        W80610  17.556  21.743   3.334
16667W        W80611  26.983   6.398   3.320
16668W        W80612   9.239  38.856  14.497
16669W        W80613   6.390  14.253  11.878
16670W        W80614   9.766  13.746  13.044
16671W        W80615   3.872  38.980   3.730
16672W        W80616  33.472  13.162   1.803
16673W        W80617  31.577  26.035   3.633
16674W        W80618  23.093   8.697   1.236
16675W        W80619  22.614  34.924  11.936
16676W        W80620  22.229  32.901   2.683
16677W        W80621  25.082  27.495   0.770
16678W        W80622  17.774  37.908  13.796
16679W        W80623  37.370  41.515   4.704
16680W        W80624  17.579  24.702  11.612
16681W        W80625  35.411  21.690  13.371
16682W        W80626   7.912  41.346  14.779
16683W        W80627  35.031  21.080   0.727
16684W        W80628  18.680   6.357   1.792
16685W        W80629  28.448  24.137  11.999
16686W        W80630  42.856  17.218   0.760
16687W        W80631   8.282   5.928  11.421
16688W        W80632   2.373  10.809  14.000
16689W        W80633  29.622  42.296  13.971
16690W        W80634  13.108  28.157  10.924
16691W        W80635  44.450  17.146   1.425
16692W        W80636  42.510  20.175  12.475
16693W        W80637  30.580   8.253  13.496
16694W        W80638  15.630   6.268   0.815
16695W        W80639  25.520  36.020  12.917
16696W        W80640  27.588  35.563  11.601
16697W        W80641   1.295  14.215   4.125
16698W        W80642  43.466  18.703  14.959
16699W        W80643  12.236  35.853   1.853
16700W        W80644  41.930  13.808   3.312
16701W        W80645   4.264  25.664  14.461
16702W        W80646  39.061  12.130  14.823
16703W        W80647  41.352   1.444  12.399
16704W        W80648  18.576   5.299  13.383
16705W        W80649  36.005  30.087  12.461
16706W        W80650  30.149   0.817  12.388
16707W        W80651  31.117  11.822  11.539
16708W        W80652  44.306  37.888  14.881
16709W        W80653  12.627   4.839  13.996
16710W        W80654  29.652  36.564   0.352
16711W        W80655   3.753  12.670   2.319
16712W        W80656  27.515   3.722  12.945
16713W        W80657  25.072   2.355  13.413
16714W        W80658  32.040  10.641  11.091
16715W        W80659  40.973  12.854   4.816
16716W        W80660   8.264  34.413  11.399
16717W        W80661  15.311  13.180   1.790
16718W        W80662  19.218   7.808   1.345
16719W        W80663  18.097   2.416  13.515
16720W        W80664   7.222  18.770  14.874
16721W        W80665   3.906  39.545  14.834
16722W        W80666  14.715   5.380  13.932
16723W        W80667  44.428  30.137   0.272
16724W        W80668  21.656  30.982  12.511
16725W        W80669   9.740  37.404   2.705
16726W        W80670  23.125   0.346   3.264
16727W        W80671  20.040  22.539   2.315
16728W        W80672  27.133  10.267   1.270
16729W        W80673  32.512  22.621   0.336
16730W        W80674  43.928  12.177   4.145
16731W        W80675  44.327  14.794   2.252
16732W        W80676  16.134  14.777   2.783
16733W        W80677  38.367  42.856  12.954
16734W        W80678  21.031  19.186  11.488
16735W        W80679   8.386  17.143   2.834
16736W        W80680   4.935   1.463   2.799
16737W        W80681  25.499   8.833  11.596
16738W        W80682  36.435  14.629   4.177
16739W        W80683  34.564   3.770  14.441
16740W        W80684  30.986  39.379   1.265
16741W        W80685   4.765  38.986   2.354
16742W        W80686  39.398  13.340  10.488
16743W        W80687  15.707   8.887   2.850
16744W        W80688  10.635   9.880   1.429
16745W        W80689  43.940   5.841   2.379
16746W        W80690  10.141  11.841  12.401
16747W        W80691   3.353  30.531   4.298
16748W        W80692  41.988  15.252   3.377
16749W        W80693  12.641  30.977   0.942
16750W        W80694  18.764  27.621   4.637
16751W        W80695  13.346  16.315  13.048
16752W        W80696  39.937   1.277   4.331
16753W        W80697  24.101  28.993  14.316
16754W        W80698  41.024   2.751   1.366
16755W        W80699  19.575  25.495   3.189
16756W        W80700  39.909  20.164  12.511
16757W        W80701  13.791  12.344  10.624
16758W        W80702  15.645  41.470  10.013
16759W        W80703  36.917  27.092   0.463
16760W        W80704  13.760  27.084  14.282
16761W        W80705  41.323  33.033  12.908
16762W        W80706   2.260  29.634   3.644
16763W        W80707  19.600  11.137   4.728
16764W        W80708  30.108  27.452   3.820
16765W        W80709  19.571  30.448  11.026
16766W        W80710  19.131  41.538  12.993
16767W        W80711  40.871  42.790  11.566
16768W        W80712   8.269  16.768  13.413
16769W        W80713   6.692  24.533  13.828
16770W        W80714   0.856  25.204   0.967
16771W        W80715  37.971  10.285  13.386
16772W        W80716  18.596  15.086  14.327
16773W        W80717  25.561  30.635   1.315
16774W        W80718  42.932  27.157   3.760
16775W        W80719   1.895  40.999  13.314
16776W        W80720   9.293  39.527   0.355
16777W        W80721  38.505  36.560  11.559
16778W        W80722   4.264  33.587   0.838
16779W        W80723   2.944  37.546   0.842
16780W        W80724   6.857  35.922  14.899
16781W        W80725  18.789  40.010   2.678
16782W        W80726  15.650  23.004  12.018
16783W        W80727  32.927  31.470   3.298
16784W        W80728   6.345  23.545   0.438
16785W        W80729   4.261  15.727  10.579
16786W        W80730  35.931  43.504   0.746
16787W        W80731  23.171  17.702   1.374
16788W        W80732  22.627  28.063  12.500
16789W        W80733  25.592  26.127   0.921
16790W        W80734   4.424  25.081   3.260
16791W        W80735  15.592  29.530  13.357
16792W        W80736  36.375  38.926   0.815
16793W        W80737   9.294  43.296  14.400
16794W        W80738   9.661  26.611  14.859
16795W        W80739  13.769  10.698   2.707
16796W        W80740   1.290  39.398   4.732
16797W        W80741  19.738  11.200   3.649
16798W        W80742  33.497   3.863   0.463
16799W        W80743   2.781  38.922   2.760
16800W        W80744  35.911  26.520   3.231
16801W        W80745  44.930  31.077  11.050
16802W        W80746  18.187   4.793   1.737
16803W        W80747  14.714  34.978  14.328
16804W        W80748  14.141  34.588   0.375
16805W        W80749  36.982  44.438  10.607
16806W        W80750   9.855   6.883  10.610
16807W        W80751  20.768  12.357  13.832
16808W        W80752  21.075  39.485   2.822
16809W        W80753   3.732  31.641   4.781
16810W        W80754  26.005  11.663   4.805
16811W        W80755   5.708  25.709   3.718
16812W        W80756  18.756  12.800   4.340
16813W        W80757  16.275  33.009   4.226
16814W        W80758  22.578  24.692   4.663
16815W        W80759   5.303  35.859   3.655
16816W        W80760  17.651  29.144   3.184
16817W        W80761  25.075  30.151   1.392
16818W        W80762  13.345  34.119   1.853
16819W        W80763  44.968  15.596   2.248
16820W        W80764  43.362   3.933   1.339
16821W        W80765   3.856  35.852   5.119
16822W        W80766   6.334   7.216   0.281
16823W        W80767   2.389  27.119   2.878
16824W        W80768  24.577  32.140   4.269
16825W        W80769   4.441  27.582  14.000
16826W        W80770  42.998  41.500  10.084
16827W        W80771  25.146  22.503   3.261
16828W        W80772  12.639  40.045   1.430
16829W        W80773  15.748   0.946  12.830
16830W        W80774   9.325  32.564  10.546
16831W        W80775  28.179   7.356   4.176
16832W        W80776  14.295   5.340  13.522
16833W        W80777   5.773  40.017  14.434
16834W        W80778  42.031  27.052  14.877
16835W        W80779  12.644   3.712  12.032
16836W        W80780  18.202  31.942  12.399
16837W        W80781  29.061  30.068   1.769
16838W        W80782  40.501  33.543   2.292
16839W        W80783  18.789  10.219   2.682
16840W        W80784  26.113   6.287  11.907
16841W        W80785   9.181  21.078   3.294
16842W        W80786  10.668  36.091   4.637
16843W        W80787  35.984   9.877  12.041
16844W        W80788   0.880   7.760  11.502
16845W        W80789   1.303  18.555  12.881
16846W        W80790  33.510  28.942  11.431
16847W        W80791   3.899  31.070  11.032
16848W        W80792  28.505  10.830  10.959
16849W        W80793  15.230  42.286   0.443
16850W        W80794  40.862   1.454  14.023
16851W        W80795  13.700  23.025   0.737
16852W        W80796   8.816  37.976  10.441
16853W        W80797  43.288  33.578  12.438
16854W        W80798  34.483  43.995  12.055
16855W        W80799  13.244   5.261   1.865
16856W        W80800  23.007  40.976   3.631
16857W        W80801  41.532  28.944   1.275
16858W        W80802  42.862  40.936  14.887
16859W        W80803   4.911  28.478  12.484
16860W        W80804  42.855  27.963  11.057
16861W        W80805  27.196   2.424  11.382
16862W        W80806   7.759  37.077   1.801
16863W        W80807  18.694  39.842   1.348
16864W        W80808  35.586  27.686   2.838
16865W        W80809  18.099  38.438  11.112
16866W        W80810  42.882  27.976   1.737
16867W        W80811   4.788  38.075   2.751
16868W        W80812   0.878   1.874  13.530
16869W        W80813   1.901  38.911   1.303
16870W        W80814  11.149  10.378  13.456
16871W        W80815  17.647  38.919  10.074
16872W        W80816  40.436  26.509  14.413
16873W        W80817  15.195  11.684   0.881
16874W        W80818  11.186  28.141   3.342
16875W        W80819   6.686  31.102   1.840
16876W        W80820  11.340  22.136  10.495
16877W        W80821   5.235   3.423  13.360
16878W        W80822   1.974  24.498   1.378
16879W        W80823   6.730  39.352   3.792
16880W        W80824  15.793  23.006   1.796
16881W        W80825  17.117  40.909  12.999
16882W        W80826  29.951  15.197   4.125
16883W        W80827  31.147  18.236  12.512
16884W        W80828  25.641  37.446   0.373
16885W        W80829  44.944  19.773   4.794
16886W        W80830  31.521  12.718  13.797
16887W        W80831  21.657  37.381  14.850
16888W        W80832  11.370  31.526   3.248
16889W        W80833   9.260  34.409  10.635
16890W        W80834   1.473  20.682  10.452
16891W        W80835  31.970   5.277   0.412
16892W        W80836  24.540  12.301  14.870
16893W        W80837  43.403  26.048  11.932
16894W        W80838   5.355  11.334   2.307
16895W        W80839  16.571  34.463  13.525
16896W        W80840  28.603  24.559   0.791
16897W        W80841  25.603  29.573   0.336
16898W        W80842  16.171   0.484   3.184
16899W        W80843  18.164  36.473  14.403
16900W        W80844  19.165   2.256   2.754
16901W        W80845  29.426  17.269  12.029
16902W        W80846   1.749   7.686   4.213
16903W        W80847  26.665   6.341   0.831
16904W        W80848  35.018  37.477   4.829
16905W        W80849  24.230  38.062   3.857
16906W        W80850  25.043  38.547   0.948
16907W        W80851   7.872  14.096   3.660
16908W        W80852  37.936   4.382   3.774
16909W        W80853  12.641  37.934  10.462
16910W        W80854  43.401  18.146  12.960
16911W        W80855  17.294  43.963   1.743
16912W        W80856  19.622  23.176  14.855
16913W        W80857  13.346  28.145   2.794
16914W        W80858  11.321  29.962   1.702
16915W        W80859   4.928  33.964  11.581
16916W        W80860  21.148   9.176   0.796
16917W        W80861  36.458   2.270  14.424
16918W        W80862  16.644   1.925   4.180
16919W        W80863  37.336  25.007   0.908
16920W        W80864  42.380  17.637   3.832
16921W        W80865  25.212   4.934  14.900
16922W        W80866   3.259  32.905  11.951
16923W        W80867  17.609  13.731  13.332
16924W        W80868  28.628  35.453  11.991
16925W        W80869   8.347  32.002   1.252
16926W        W80870  16.674  41.863   2.372
16927W        W80871  14.784  21.198   0.895
16928W        W80872  20.634  10.639  14.497
16929W        W80873  28.654  39.004  10.906
16930W        W80874  39.931  27.152   0.836
16931W        W80875   4.787   3.345   0.341
16932W        W80876  41.384  31.516   4.327
16933W        W80877  35.939  11.355   1.764
16934W        W80878  38.927   5.876   4.676
16935W        W80879  22.032  39.347   1.696
16936W        W80880  40.522   4.906   2.313
16937W        W80881   9.340  34.439   3.219
16938W        W80882  26.157  12.309  12.350
16939W        W80883  41.996  44.313   5.280
16940W        W80884  34.903  10.186   2.680
16941W        W80885  17.632   0.940   2.362
16942W        W80886  42.856  33.407  14.466
16943W        W80887  14.309  40.516  13.331
16944W        W80888  22.588  26.117  13.037
16945W        W80889   8.882   0.790   2.269
16946W        W80890  11.825  11.152   3.846
16947W        W80891  44.299  39.856  12.570
16948W        W80892  26.102  43.454   0.953
16949W        W80893  14.770   7.819  12.970
16950W        W80894  35.072  11.288   0.358
16951W        W80895  15.615  14.169   1.873
16952W        W80896  15.134   3.396   5.721
16953W        W80897  44.339   1.864  13.999
16954W        W80898   0.852   5.235  10.938
16955W        W80899  35.543  26.064   3.659
16956W        W80900   4.734   0.396   0.480
16957W        W80901  41.869  35.940   0.851
16958W        W80902  21.747  12.680   2.742
16959W        W80903  34.587   0.303   0.357
16960W        W80904  41.373  20.042   0.866
16961W        W80905  37.416  28.973  11.495
16962W        W80906  30.516  37.894   3.832
16963W        W80907  12.722   0.249  13.974
16964W        W80908  30.029   2.327  11.445
16965W        W80909  41.380  32.073  14.401
16966W        W80910  10.858  42.783   0.450
16967W        W80911  29.111   9.787   2.757
16968W        W80912   6.271  14.755   2.192
16969W        W80913  20.133  44.832  12.878
16970W        W80914  19.583  19.171   2.302
16971W        W80915  35.540  39.860   0.871
16972W        W80916   2.924  24.485   4.736
16973W        W80917   2.229  38.514  11.079
16974W        W80918  11.266  28.109  13.538
16975W        W80919  32.067  23.179  12.483
16976W        W80920  15.312  22.214  12.031
16977W        W80921  19.118  23.694   2.662
16978W        W80922  11.361  28.163   1.255
16979W        W80923   0.365  17.683   2.382
16980W        W80924  16.754   0.403   4.167
16981W        W80925  26.011  43.320  10.464
16982W        W80926  38.035   9.866   4.741
16983W        W80927  28.610  29.664  12.532
16984W        W80928   4.823  18.678  12.503
16985W        W80929  22.603  14.220   0.333
16986W        W80930  31.553  36.038   1.319
16987W        W80931  37.490  30.058   1.904
16988W        W80932  32.479  14.232  13.007
16989W        W80933   2.877  36.429  13.482
16990W        W80934   6.797  38.975   4.242
16991W        W80935  29.442   3.457   3.378
16992W        W80936  28.533  13.301  13.471
16993W        W80937  26.477  38.446   4.115
16994W        W80938   8.714  25.032  14.277
16995W        W80939  29.933   0.913   0.780
16996W        W80940  31.033  38.870  11.576
16997W        W80941   8.291   8.882  14.297
16998W        W80942  18.787  30.112   2.259
16999W        W80943   0.364  28.063  13.817
17000W        W80944  37.963   5.395  10.475
17001W        W80945  13.786  16.178   0.388
17002W        W80946  21.125  44.458  11.085
17003W        W80947  25.690  26.545   2.818
17004W        W80948  19.713  39.315  12.834
17005W        W80949  22.179  20.562   1.359
17006W        W80950  28.011  22.106  13.521
17007W        W80951  38.332  38.473   1.430
17008W        W80952  28.057  42.920  13.039
17009W        W80953  41.442  30.088  11.118
17010W        W80954  39.397   5.241  13.028
17011W        W80955   8.792  25.579   1.384
17012W        W80956  27.600  32.075   0.427
17013W        W80957  37.408  28.148  11.589
17014W        W80958  13.810  23.512  11.942
17015W        W80959  13.815  13.649  11.970
17016W        W80960   9.207   0.478  14.972
17017W        W80961   9.159  41.431  12.375
17018W        W80962  26.113  19.166  13.379
17019W        W80963  28.108   8.670  10.958
17020W        W80964  32.497  13.322  11.531
17021W        W80965  13.145  22.622   2.823
17022W        W80966   1.371   1.747  14.423
17023W        W80967  10.759  22.624  10.019
17024W        W80968  40.485  41.029   1.331
17025W        W80969   7.227  44.474  10.600
17026W        W80970   8.405   8.730   0.849
17027W        W80971  13.724  25.608   0.870
17028W        W80972  10.314  29.615   3.163
17029W        W80973  44.964   2.859   1.900
17030W        W80974   2.278  15.088  12.936
17031W        W80975  34.898  21.095   3.295
17032W        W80976  41.398  28.523  14.488
17033W        W80977  17.296   1.474   4.276
17034W        W80978  44.469  10.350   4.818
17035W        W80979   5.707  43.967   1.732
17036W        W80980   2.863  39.845  12.427
17037W        W80981  41.963  32.086   5.284
17038W        W80982   2.731  15.793  11.439
17039W        W80983  24.590  26.075  11.081
17040W        W80984   1.776  21.072   0.755
17041W        W80985  14.771   4.317  13.479
17042W        W80986  13.642  17.577  13.433
17043W        W80987  42.937   8.172  13.924
17044W        W80988  44.808  39.425   0.382
17045W        W80989  25.066  30.096  14.280
17046W        W80990   0.953  28.084   4.699
17047W        W80991  20.739  37.460  13.532
17048W        W80992  37.979  14.204   0.789
17049W        W80993   8.715  36.524  12.429
17050W        W80994  37.030   8.214   3.693
17051W        W80995  17.716  32.430  12.049
17052W        W80996  33.959  27.476   4.197
17053W        W80997   3.891   7.721  14.350
17054W        W80998   1.298  35.057  12.395
17055W        W80999  25.060  43.405   3.676
17056W        W81000  30.520  43.310   3.682
17057W        W81001  42.933  21.686   1.272
17058W        W81002  20.603  16.241  11.905
17059W        W81003  28.483   8.242   2.759
17060W        W81004  44.317  18.692   1.850
17061W        W81005  26.580   1.867  14.001
17062W        W81006   7.305  42.984   1.328
17063W        W81007  29.955   6.358   3.345
17064W        W81008   5.843  34.532  13.064
17065W        W81009  32.483   0.921   1.878
17066W        W81010  36.431  24.660  12.037
17067W        W81011  16.684  17.783   3.333
17068W        W81012  23.008  34.017  14.801
17069W        W81013  22.054  25.986   0.945
17070W        W81014  42.305   7.379  14.792
17071W        W81015  12.789  34.891   4.670
17072W        W81016   4.756   0.872   0.482
17073W        W81017   0.373  28.578   4.229
17074W        W81018  15.815  39.056   4.134
17075W        W81019   2.277  25.569  12.845
17076W        W81020  28.935  26.106  14.834
17077W        W81021   7.217   2.807  11.862
17078W        W81022  32.080  27.992  10.524
17079W        W81023  30.933  36.087  11.520
17080W        W81024  13.762  19.685   1.358
17081W        W81025   9.811   0.324   5.740
17082W        W81026  35.593  18.603   2.195
17083W        W81027  20.757   0.937  12.047
17084W        W81028  17.763   7.264   5.741
17085W        W81029   9.363  42.796  13.811
17086W        W81030  24.167  35.873   3.809
17087W        W81031  42.430   5.885   1.712
17088W        W81032  14.780  41.447   3.241
17089W        W81033  13.191  20.585  13.798
17090W        W81034  29.081  11.356   3.671
17091W        W81035   6.803   7.269   2.825
17092W        W81036  31.065   6.870   4.726
17093W        W81037   4.341  15.247   1.831
17094W        W81038  10.307  17.095   1.364
17095W        W81039  27.677  20.674  10.930
17096W        W81040   5.383  29.434   0.964
17097W        W81041   7.314  10.326  12.580
17098W        W81042  33.536  31.917   4.614
17099W        W81043   1.276  22.241  13.908
17100W        W81044  29.086  14.777  10.948
17101W        W81045  21.670  30.104  12.501
17102W        W81046  29.044   9.278   2.723
17103W        W81047  36.096  19.615   0.291
17104W        W81048  22.179  40.529  14.293
17105W        W81049  35.873  30.022  13.010
17106W        W81050   5.198  36.917  13.447
17107W        W81051   8.274  16.673   3.152
17108W        W81052   0.769  18.168  13.063
17109W        W81053   7.383  18.751  11.555
17110W        W81054  15.583  15.619  11.605
17111W        W81055  14.206  19.593   3.201
17112W        W81056  31.928  30.092   0.732
17113W        W81057  30.091  24.078   4.192
17114W        W81058  39.545  40.405  11.381
17115W        W81059  17.161  16.602  14.804
17116W        W81060  25.705  41.335  10.139
17117W        W81061   0.971  42.924   0.250
17118W        W81062  34.988  35.867  13.522
17119W        W81063  18.115  34.589   1.847
17120W        W81064  27.466  14.826   3.190
17121W        W81065  36.363  24.071   1.372
17122W        W81066  11.710  24.205   3.300
17123W        W81067  16.093  18.768   1.834
17124W        W81068  41.392   8.340  14.993
17125W        W81069  44.990   7.237  10.105
17126W        W81070   4.223  11.628   0.783
17127W        W81071  41.865   0.786   0.298
17128W        W81072   0.878  41.885  14.885
17129W        W81073  10.731  19.044  13.019
17130W        W81074  36.448  38.510   1.247
17131W        W81075  41.984  31.638  13.936
17132W        W81076  34.106  15.809   4.728
17133W        W81077   6.887  35.985  12.541
17134W        W81078  22.099  32.481   4.824
17135W        W81079  41.451  40.866  13.484
17136W        W81080   9.271   5.780   2.385
17137W        W81081  12.215   5.215  13.036
17138W        W81082  37.516  40.407  12.914
17139W        W81083   3.802  40.807   4.657
17140W        W81084  38.878  40.949  10.637
17141W        W81085  20.534  42.003  12.926
17142W        W81086   6.829   4.800  12.916
17143W        W81087  24.083   5.386  11.605
17144W        W81088  30.934  33.592  10.949
17145W        W81089  37.482  44.273   0.386
17146W        W81090  23.192  27.176  14.924
17147W        W81091  43.814  14.142   2.239
17148W        W81092  26.501  17.211   2.335
17149W        W81093  28.490  25.515  11.497
17150W        W81094  32.096  38.004   2.787
17151W        W81095  26.551  35.599  10.407
17152W        W81096  12.164  29.071  11.008
17153W        W81097  20.234   1.966   3.226
17154W        W81098   3.369  29.664   1.314
17155W        W81099  32.432  43.949   1.450
17156W        W81100  25.625  25.062  11.518
17157W        W81101   4.915  42.401   3.801
17158W        W81102  37.965  35.396  10.942
17159W        W81103  14.302  16.589  11.441
17160W        W81104   2.743  39.060  12.560
17161W        W81105  18.151  25.500   1.925
17162W        W81106  35.993  18.130  14.897
17163W        W81107  11.357  24.059   2.318
17164W        W81108  33.467  15.599  10.103
17165W        W81109  15.585  35.403  11.097
17166W        W81110   7.405  18.273  14.875
17167W        W81111  13.612  39.396   2.877
17168W        W81112  21.050  36.546   4.157
17169W        W81113  25.655   0.865   2.747
17170W        W81114  12.624   8.701   2.733
17171W        W81115  39.975  25.191   4.751
17172W        W81116   3.790  14.094  10.034
17173W        W81117  42.472  20.051   3.220
17174W        W81118  14.311  13.630  14.348
17175W        W81119  42.796  12.778  10.499
17176W        W81120  31.530  12.193   2.691
17177W        W81121  43.778  31.002  10.601
17178W        W81122   6.319  21.024  10.101
17179W        W81123   7.241   6.261   4.746
17180W        W81124  26.635   2.731   0.371
17181W        W81125  26.609   6.719   4.725
17182W        W81126  12.646   9.784   3.202
17183W        W81127  34.950  20.111  11.897
17184W        W81128  27.514  27.495   0.847
17185W        W81129   2.749  17.750  10.992
17186W        W81130  22.584  44.307   9.945
17187W        W81131  40.952  41.521   1.279
17188W        W81132  18.057  24.544   9.612
17189W        W81133  17.231   0.915   4.737
17190W        W81134  31.973  15.615   0.899
17191W        W81135  42.821  43.940  11.982
17192W        W81136  43.951  40.887   0.894
17193W        W81137  19.271  34.516  12.074
17194W        W81138  13.226  23.673  10.470
17195W        W81139  14.243  35.376   4.612
17196W        W81140   4.254  34.599  10.889
17197W        W81141  43.473   5.805   0.951
17198W        W81142  28.056   9.741   3.384
17199W        W81143  40.369   6.760  13.522
17200W        W81144  13.307  10.226  11.960
17201W        W81145   6.344  26.652   0.873
17202W        W81146  15.705  17.679  11.967
17203W        W81147  18.289  42.319   3.741
17204W        W81148  33.925  20.613   3.381
17205W        W81149   0.337  21.663  14.810
17206W        W81150  25.208  39.002   1.792
17207W        W81151   1.848  28.071  12.976
17208W        W81152  27.632  41.353  12.902
17209W        W81153  30.971  28.545  13.941
17210W        W81154  40.355  21.252  13.497
17211W        W81155  42.869   9.377   2.213
17212W        W81156  21.556  14.622   1.872
17213W        W81157  28.096  19.062  13.977
17214W        W81158  24.520  25.083  10.913
17215W        W81159  30.151   8.226   1.305
17216W        W81160  26.159  17.777  14.496
17217W        W81161  31.001  14.781  11.388
17218W        W81162  21.180  27.603   1.898
17219W        W81163  22.236  18.587   1.759
17220W        W81164  24.612  34.015  11.921
17221W        W81165  29.611  38.383   2.256
17222W        W81166  14.636  19.054   3.368
17223W        W81167  23.024  27.056   0.806
17224W        W81168  16.232  33.919  11.967
17225W        W81169  16.244  24.061  10.516
17226W        W81170  22.041   4.241  11.912
17227W        W81171   3.915  39.852  14.368
17228W        W81172  37.424  28.526  14.999
17229W        W81173  42.290  12.343   2.724
17230W        W81174  24.691  13.840   0.830
17231W        W81175  26.679   2.920   2.320
17232W        W81176  27.038  37.890  13.818
17233W        W81177   1.908  32.610  11.870
17234W        W81178  14.778  44.309  12.861
17235W        W81179   1.394  42.961   1.744
17236W        W81180  35.378  40.416   4.180
17237W        W81181  28.154  30.570   4.233
17238W        W81182  29.616  40.970  11.540
17239W        W81183  16.119  27.508   2.301
17240W        W81184  17.711  44.915   3.367
17241W        W81185  10.176  35.885   9.969
17242W        W81186  36.559  42.508   1.236
17243W        W81187  38.851  18.676   1.239
17244W        W81188  16.197   8.353  13.529
17245W        W81189  44.761  44.309   0.912
17246W        W81190  12.701  31.992   4.817
17247W        W81191  44.447  37.357  12.425
17248W        W81192  18.637  15.645   2.860
17249W        W81193  30.027  43.791   0.796
17250W        W81194  14.698  42.424  11.925
17251W        W81195   0.963   7.307   0.884
17252W        W81196  25.472  27.614   2.754
17253W        W81197  24.133  23.646   3.849
17254W        W81198  23.036  32.499  12.408
17255W        W81199  38.851  20.028  14.819
17256W        W81200  18.790   4.841   1.718
17257W        W81201  17.241  41.519   3.698
17258W        W81202   0.252   5.231  13.409
17259W        W81203  21.225  20.650  13.412
17260W        W81204  15.771  32.538   1.394
17261W        W81205   4.393   4.340  13.833
17262W        W81206  33.009  16.705  12.057
17263W        W81207  11.688  41.343  11.962
17264W        W81208  38.358  42.406  12.946
17265W        W81209  34.062   7.736   0.897
17266W        W81210   3.742   5.802   5.708
17267W        W81211  36.064  27.518  14.923
17268W        W81212   5.250  44.905   2.873
17269W        W81213  25.620  40.955  13.351
17270W        W81214  25.046  40.466  11.036
17271W        W81215  40.008  23.138  11.929
17272W        W81216   0.328  13.307  11.094
17273W        W81217  10.274  30.634   1.896
17274W        W81218   9.285  43.470  11.524
17275W        W81219   9.179  15.584  13.001
17276W        W81220  44.313   7.801   4.646
17277W        W81221  39.538  12.856   2.866
17278W        W81222  38.859  11.185   2.741
17279W        W81223  44.317   9.297   5.309
17280W        W81224  24.141  14.150   3.257
17281W        W81225  26.645   5.373  12.351
17282W        W81226   7.820  27.622  12.347
17283W        W81227  14.602  44.502   2.747
17284W        W81228  16.184  25.508  10.937
17285W        W81229  32.067   6.407   3.218
17286W        W81230  37.563  35.936   3.315
17287W        W81231  33.045   1.745  14.310
17288W        W81232   5.915   2.426   0.917
17289W        W81233   5.387  13.231   2.792
17290W        W81234  24.670  39.334  10.466
17291W        W81235  33.458  16.615   4.319
17292W        W81236  42.311  22.050  11.545
17293W        W81237   2.448   7.691  10.135
17294W        W81238   0.847  16.776  11.949
17295W        W81239   4.794  24.156  11.437
17296W        W81240  24.207  31.087   0.309
17297W        W81241  43.513  31.144  10.558
17298W        W81242  42.438  26.631   3.195
17299W        W81243  10.257  12.238   3.325
17300W        W81244   8.886  10.681  13.048
17301W        W81245  11.152  30.019   3.291
17302W        W81246  16.809   1.418   4.125
17303W        W81247  13.156  11.274  13.034
17304W        W81248  17.802  34.381  12.942
17305W        W81249  42.473   9.374   2.192
17306W        W81250   9.813  32.533   2.226
17307W        W81251   4.236  28.468   3.854
17308W        W81252  24.015  22.633  11.008
17309W        W81253  40.877  23.205   1.780
17310W        W81254  30.096  35.063   2.254
17311W        W81255  18.286  39.416   3.676
17312W        W81256   7.402  27.515  11.878
17313W        W81257   8.743   4.860   4.623
17314W        W81258   4.853   4.345  10.088
17315W        W81259  18.552  39.463   0.888
17316W        W81260  14.335   6.857   4.149
17317W        W81261   8.705  30.984   5.276
17318W        W81262  36.062  21.155   3.317
17319W        W81263  13.835   9.644   0.871
17320W        W81264   0.879   6.353  12.475
17321W        W81265   8.323  17.726  11.052
17322W        W81266  32.100   3.383  13.452
17323W        W81267  11.791  10.818  14.323
17324W        W81268  29.535  13.118   3.636
17325W        W81269  37.549  31.475  11.097
17326W        W81270  42.422  22.702   2.289
17327W        W81271  44.459   2.901   3.332
17328W        W81272  17.609   9.809  12.349
17329W        W81273  16.803  44.888   2.882
17330W        W81274  17.557  29.103   1.906
17331W        W81275  18.248  35.978  13.336
17332W        W81276  36.892  19.228   2.255
17333W        W81277   4.927  39.524   3.274
17334W        W81278  19.112  33.380  10.474
17335W        W81279  15.249  22.596  11.084
17336W        W81280  35.098  23.222   3.381
17337W        W81281  29.940   6.800   2.235
17338W        W81282  32.620   8.191  13.961
17339W        W81283  10.680  22.219  12.368
17340W        W81284   1.449  19.122   0.775
17341W        W81285  42.937  39.333   3.864
17342W        W81286  42.292  25.637   0.728
17343W        W81287  27.503   0.753  12.934
17344W        W81288  21.256  17.163   3.266
17345W        W81289   5.439  35.415   2.896
17346W        W81290  33.425  29.935   3.739
17347W        W81291   0.380  13.742   0.890
17348W        W81292  16.093  27.498  10.922
17349W        W81293  30.450  25.514  10.905
17350W        W81294   6.857  35.919   3.211
17351W        W81295  40.798  44.883   2.300
17352W        W81296  33.038  11.347  10.445
17353W        W81297  17.631   9.872   2.780
17354W        W81298  21.559  41.815   0.260
17355W        W81299   9.847  40.481   4.313
17356W        W81300  11.186  21.243   3.186
17357W        W81301  22.729  28.679   4.274
17358W        W81302  19.775  38.023   4.233
17359W        W81303  40.022  12.202  13.929
17360W        W81304   9.300  19.601   1.934
17361W        W81305  42.287  42.481   4.735
17362W        W81306  20.577  20.075  14.858
17363W        W81307  40.424  17.765   3.800
17364W        W81308  26.028   6.415  14.466
17365W        W81309   9.194  27.670   5.595
17366W        W81310  34.972  44.282   4.618
17367W        W81311  20.698  26.112   0.255
17368W        W81312  16.215   6.757   2.762
17369W        W81313   5.904  14.262  10.936
17370W        W81314  24.187  12.671   2.687
17371W        W81315  43.437  41.973   4.286
17372W        W81316  41.393   1.417   4.328
17373W        W81317  34.075  36.433  10.464
17374W        W81318  18.558  28.066   1.343
17375W        W81319  32.090  37.415  13.045
17376W        W81320  34.916  34.052   0.368
17377W        W81321  19.081  12.812   1.246
17378W        W81322  22.708  28.996   5.285
17379W        W81323   3.332  25.692  13.846
17380W        W81324   7.239   4.931  10.949
17381W        W81325  18.560  41.809  10.578
17382W        W81326   4.251  37.506  12.921
17383W        W81327  17.720   9.870  13.816
17384W        W81328   2.445  16.716  10.623
17385W        W81329  26.466  28.967   4.220
17386W        W81330   9.154  24.989   0.945
17387W        W81331  39.380  25.709  14.428
17388W        W81332  37.005  33.950  14.350
17389W        W81333  29.060   3.377   5.186
17390W        W81334  25.625  25.999  12.020
17391W        W81335  33.415  42.283   0.429
17392W        W81336  32.945  35.887  13.538
17393W        W81337  15.144  35.560   5.681
17394W        W81338  27.080  29.156   4.210
17395W        W81339   2.373  37.377  10.502
17396W        W81340  20.166   4.208   0.882
17397W        W81341  23.549  31.970  10.437
17398W        W81342   0.857   8.292  11.126
17399W        W81343  32.958   2.391   4.316
17400W        W81344  20.576  13.216   4.723
17401W        W81345   7.211  40.481   1.424
17402W        W81346  31.049  37.032   4.329
17403W        W81347  11.803  18.642  14.003
17404W        W81348  24.135  14.248  12.492
17405W        W81349   9.362  26.703   2.815
17406W        W81350   5.233  43.319  12.514
17407W        W81351  14.607  40.015  11.501
17408W        W81352  24.680  27.521  10.645
17409W        W81353  24.556  17.123   2.381
17410W        W81354  21.631   3.380  10.979
17411W        W81355  13.305  32.893   1.306
17412W        W81356  18.701  37.889  14.809
17413W        W81357  26.575  35.014   1.358
17414W        W81358  34.079  39.013  11.960
17415W        W81359  40.984  13.749   4.313
17416W        W81360  43.416  31.459  11.935
17417W        W81361  44.403   0.869   3.703
17418W        W81362  39.884   5.727   3.733
17419W        W81363  10.729   3.745   2.250
17420W        W81364  44.833  27.072  13.481
17421W        W81365  24.193  25.672  10.479
17422W        W81366  35.079  20.133  14.958
17423W        W81367   9.268  20.643  13.016
17424W        W81368   4.797   0.980   4.184
17425W        W81369  14.746  26.642   4.204
17426W        W81370   9.376  26.539  14.464
17427W        W81371  15.613  43.842  10.055
17428W        W81372  23.013  32.973   3.158
17429W        W81373  28.181  12.744   2.820
17430W        W81374  14.214   1.739  14.998
17431W        W81375   3.721  26.668   9.963
17432W        W81376  25.697  35.076  12.054
17433W        W81377   1.801  21.736  11.562
17434W        W81378  44.935  24.508   3.752
17435W        W81379   8.850   3.724  12.525
17436W        W81380  19.759  24.519   3.847
17437W        W81381   7.820   5.882  10.575
17438W        W81382   1.254  42.348   0.877
17439W        W81383   0.852  37.010  11.000
17440W        W81384   6.784   4.341  13.012
17441W        W81385  23.663  23.730   1.859
17442W        W81386  18.268  11.259  13.823
17443W        W81387  39.060  12.827  12.392
17444W        W81388  25.664   8.746   2.769
17445W        W81389   6.334  11.704   2.348
17446W        W81390  21.576  38.536  13.404
17447W        W81391   9.349  43.326  11.994
17448W        W81392  15.172   1.838   0.438
17449W        W81393  24.537  36.943  12.356
17450W        W81394  16.137  28.099   0.813
17451W        W81395  31.622  27.454  13.977
17452W        W81396  16.684  32.635  12.907
17453W        W81397  26.654  32.032  13.403
17454W        W81398  31.098   2.422   1.428
17455W        W81399  20.674  42.428   1.727
17456W        W81400  42.459  23.629  12.023
17457W        W81401   2.741  30.497  13.027
17458W        W81402  14.330  14.269  12.375
17459W        W81403  24.540  30.000   3.381
17460W        W81404  42.833  13.342   0.732
17461W        W81405  35.009   2.253   4.294
17462W        W81406  44.270  42.894   1.804
17463W        W81407  41.904  13.162   2.841
17464W        W81408  20.097   3.333   1.704
17465W        W81409  27.110  34.067   2.310
17466W        W81410  39.958  37.363   2.275
17467W        W81411  26.177   9.179  10.991
17468W        W81412   1.931  12.170  11.977
17469W        W81413  10.730  39.328  10.517
17470W        W81414  15.820   5.716   1.242
17471W        W81415  33.109  20.039  13.381
17472W        W81416  15.114  36.443  12.400
17473W        W81417  35.069   2.964   2.807
17474W        W81418  32.111  13.783   2.411
17475W        W81419   6.323  33.438  13.968
17476W        W81420  20.646   8.303   2.780
17477W        W81421  24.195  27.036  14.393
17478W        W81422  19.096   7.892  14.322
17479W        W81423  27.538  28.509  12.969
17480W        W81424  19.694   5.831  14.025
17481W        W81425  30.458  12.255  12.474
17482W        W81426   2.422  32.992  13.472
17483W        W81427   2.370  13.122   2.386
17484W        W81428  18.163   2.298  12.453
17485W        W81429  33.471  28.137   4.597
17486W        W81430   4.844  32.616   2.344
17487W        W81431  26.134  28.157   2.689
17488W        W81432  27.658  30.452   2.824
17489W        W81433   0.372  22.184   0.383
17490W        W81434  27.524  30.011  12.358
17491W        W81435   4.292  18.285  12.366
17492W        W81436  11.336  18.770   3.753
17493W        W81437   0.266  33.480   3.301
17494W        W81438   8.358  28.949  13.826
17495W        W81439  21.033  31.075  10.406
17496W        W81440   5.763  32.523   1.303
17497W        W81441  11.751   8.297   1.766
17498W        W81442  42.903  41.790   3.178
17499W        W81443  14.593  34.999   1.263
17500W        W81444  41.846  14.695   2.696
17501W        W81445  16.189  29.498  14.309
17502W        W81446  40.867   3.919   1.793
17503W        W81447  38.347   1.379  10.502
17504W        W81448  40.923  30.587   4.781
17505W        W81449  22.708  32.444  14.943
17506W        W81450  37.367  34.961   1.295
17507W        W81451  20.033   1.301   0.445
17508W        W81452  20.120  10.255  12.414
17509W        W81453  43.890  14.751  12.364
17510W        W81454   5.274  44.842   1.866
17511W        W81455  28.662  15.245   0.860
17512W        W81456   4.401  30.927   4.659
17513W        W81457  41.472  40.505   1.424
17514W        W81458  43.021  34.459  14.496
17515W        W81459  16.196  35.378  11.456
17516W        W81460   3.829  14.321   5.102
17517W        W81461  42.862  41.443   0.826
17518W        W81462  38.541  37.834   0.246
17519W        W81463   7.373  19.083   0.330
17520W        W81464  24.106  13.263  10.923
17521W        W81465   5.844  37.448  12.497
17522W        W81466  38.902  31.518  13.828
17523W        W81467  24.656  41.471  14.501
17524W        W81468  11.630  40.315  10.002
17525W        W81469  30.651  38.053  13.994
17526W        W81470  35.105  14.317   5.311
17527W        W81471  27.084   4.843  13.344
17528W        W81472   0.942  29.508   3.784
17529W        W81473  35.599  12.125   3.372
17530W        W81474   3.262  11.324   4.666
17531W        W81475  31.636  37.531  11.439
17532W        W81476  31.499  15.714  10.472
17533W        W81477  25.211  14.178  14.914
17534W        W81478  39.837   0.379   3.864
17535W        W81479   5.878  40.534   1.379
17536W        W81480   1.734  29.473  13.028
17537W        W81481  21.086   1.299  11.475
17538W        W81482  27.659  43.386   2.289
17539W        W81483  17.146   5.901  11.560
17540W        W81484  39.512   0.772  13.969
17541W        W81485  21.228  19.122   1.273
17542W        W81486   2.966  14.133  14.803
17543W        W81487  39.446  42.391  10.501
17544W        W81488   2.774  40.358  12.875
17545W        W81489  28.672  43.946  12.446
17546W        W81490   0.470   1.836  14.945
17547W        W81491  31.144   6.413  12.093
17548W        W81492  11.159  22.125  12.500
17549W        W81493   8.731  18.259   0.808
17550W        W81494  36.446  13.687   3.295
17551W        W81495  25.493   8.398   1.709
17552W        W81496   7.837   8.321  12.095
17553W        W81497  40.429   0.879   4.675
17554W        W81498  29.652   3.830   2.289
17555W        W81499  16.077  41.371   2.740
17556W        W81500  37.885  39.543  11.576
17557W        W81501  37.967   0.808  12.891
17558W        W81502  26.198  16.679   2.342
17559W        W81503  17.153   9.229  12.924
17560W        W81504  15.730  18.239   3.369
17561W        W81505   1.843   1.865   2.353
17562W        W81506  40.470  38.362  14.502
17563W        W81507  23.169   6.767   1.373
17564W        W81508  20.576  43.501  13.820
17565W        W81509  29.087   0.253  10.570
17566W        W81510  24.017  29.953   1.883
17567W        W81511  22.108  29.526  14.998
17568W        W81512  25.640  35.870  10.988
17569W        W81513  12.779  43.865  12.078
17570W        W81514  32.496  24.512   1.710
17571W        W81515  16.305   2.376  12.970
17572W        W81516   1.250   6.427  12.363
17573W        W81517  14.596  25.153  10.641
17574W        W81518  31.500  43.301   4.212
17575W        W81519  38.932  31.966  12.384
17576W        W81520  30.432  32.982   2.391
17577W        W81521  27.156   9.758  10.573
17578W        W81522  34.926  30.947   4.169
17579W        W81523  16.748  29.006   0.468
17580W        W81524   4.942  30.939  10.948
17581W        W81525  14.233  41.918   0.323
17582W        W81526  39.009  28.466  10.083
17583W        W81527  25.569  42.995  12.032
17584W        W81528  39.036  26.981  10.408
17585W        W81529  34.028  31.052   4.814
17586W        W81530  16.579   6.239  11.586
17587W        W81531  10.634  38.840  11.445
17588W        W81532  11.239  34.534  12.965
17589W        W81533   8.655   0.754   3.181
17590W        W81534  31.421  44.981  13.541
17591W        W81535   0.889  41.303  11.586
17592W        W81536  43.966  26.052   4.127
17593W        W81537  33.095  23.177   1.299
17594W        W81538  18.149  20.581   5.141
17595W        W81539  17.072   8.714  12.548
17596W        W81540  42.936  10.380   1.250
17597W        W81541  22.070  44.959  13.866
17598W        W81542   6.906  39.044   2.200
17599W        W81543  24.150  32.566  12.865
17600W        W81544   2.772  20.118  12.365
17601W        W81545   5.816   9.362   3.662
17602W        W81546  27.115  37.975  12.498
17603W        W81547  29.662  11.351  14.798
17604W        W81548  23.088   8.876   0.357
17605W        W81549  18.141  17.210   3.273
17606W        W81550  10.701  35.570  14.312
17607W        W81551  25.215  33.071   0.896
17608W        W81552  40.887  38.981   3.726
17609W        W81553  21.583   4.927  11.035
17610W        W81554  33.443  35.477   0.762
17611W        W81555  13.192  44.807   4.192
17612W        W81556  32.141  42.860  12.999
17613W        W81557   3.333  37.395   1.704
17614W        W81558   3.860   7.375   9.565
17615W        W81559  24.632  20.577  13.914
17616W        W81560  32.626  15.812   4.116
17617W        W81561  42.422  15.230   4.686
17618W        W81562   3.788  44.436  14.929
17619W        W81563  12.836  43.865  12.506
17620W        W81564  26.530   7.728  11.412
17621W        W81565  25.215   4.887   2.765
17622W        W81566   7.779  15.299   0.846
17623W        W81567  42.971  21.190   1.420
17624W        W81568  41.915  29.578  13.528
17625W        W81569   0.944  11.829  11.464
17626W        W81570  26.636  35.502   2.812
17627W        W81571  12.252  31.969   1.308
17628W        W81572  29.949  17.572  13.500
17629W        W81573  21.512  35.915   0.410
17630W        W81574  11.363  29.141   4.833
17631W        W81575   3.894  27.665   4.154
17632W        W81576  21.530  34.906  13.350
17633W        W81577   2.397  38.039  14.027
17634W        W81578  23.670  15.228   3.721
17635W        W81579  18.659  14.171  14.027
17636W        W81580  33.395  30.613  14.298
17637W        W81581  11.335  43.434   0.253
17638W        W81582  20.533   2.304   1.783
17639W        W81583  16.587   2.842   2.870
17640W        W81584  40.364  36.420  14.290
17641W        W81585  40.861   7.837  14.505
17642W        W81586   6.873  13.677   3.207
17643W        W81587  34.903  33.881  13.922
17644W        W81588   5.426  30.148  14.988
17645W        W81589  12.811   6.181   0.855
17646W        W81590  18.758  40.536  11.602
17647W        W81591   7.271  33.424   2.218
17648W        W81592  20.680  26.085  14.945
17649W        W81593  34.044  36.051  11.987
17650W        W81594  27.498  28.140   4.233
17651W        W81595  12.199  30.952  14.454
17652W        W81596  24.594  22.101   3.838
17653W        W81597  39.459  38.002   4.223
17654W        W81598  43.478   4.831  10.410
17655W        W81599   8.321  33.102   1.705
17656W        W81600  24.513  13.695   0.408
17657W        W81601  44.771  26.636   0.851
17658W        W81602  31.092  33.089   1.401
17659W        W81603  10.787  25.980  14.956
17660W        W81604   8.326   6.323   2.258
17661W        W81605  36.407   3.905   3.386
17662W        W81606  17.147  14.822  14.031
17663W        W81607   1.873  39.530   0.783
17664W        W81608  14.589  20.139  11.513
17665W        W81609  37.928  40.873  12.829
17666W        W81610  32.114  38.829   1.333
17667W        W81611   0.456  40.345   4.662
17668W        W81612  37.078   9.768   2.726
17669W        W81613  29.993  16.173  11.477
17670W        W81614  14.115   3.944   0.839
17671W        W81615  27.622  37.480   3.787
17672W        W81616  17.284  41.933   0.390
17673W        W81617   2.844  44.924   0.733
17674W        W81618  34.434  14.133   2.280
17675W        W81619  42.303  35.483  13.449
17676W        W81620  21.124  43.458  10.997
17677W        W81621  38.845   9.312  11.009
17678W        W81622  34.390  32.460  14.314
17679W        W81623  14.173  22.156   4.203
17680W        W81624   3.364  42.442  12.389
17681W        W81625  16.201   0.399  10.412
17682W        W81626   0.823  33.889  11.576
17683W        W81627  35.590   9.226  11.423
17684W        W81628  31.467  39.520   5.273
17685W        W81629  17.276  35.067  11.055
17686W        W81630  15.767  37.387  10.073
17687W        W81631  37.866  41.396   0.864
17688W        W81632  41.318  42.287   0.941
17689W        W81633   1.470  16.168   1.395
17690W        W81634  17.748   5.820  10.910
17691W        W81635   0.936  18.707   3.347
17692W        W81636  31.093  16.692  13.920
17693W        W81637  40.958  15.779  13.955
17694W        W81638  40.050   5.812  14.341
17695W        W81639  17.574  14.206   0.479
17696W        W81640  27.150  21.739  14.430
17697W        W81641  35.997   9.838   4.235
17698W        W81642   9.342  14.295  10.910
17699W        W81643   0.420  22.548   4.764
17700W        W81644  15.255  44.823  13.546
17701W        W81645  30.540  43.371  12.896
17702W        W81646  41.297  11.154   4.621
17703W        W81647  31.534   2.847  13.308
17704W        W81648   3.878  11.727  14.943
17705W        W81649  22.084  39.973   4.640
17706W        W81650  31.903  12.704   2.793
17707W        W81651  34.987  22.232  10.975
17708W        W81652  28.126   4.707   0.868
17709W        W81653   1.931  21.035   9.924
17710W        W81654  35.084  26.182  12.071
17711W        W81655  23.701   5.367  14.857
17712W        W81656  30.584  22.559  13.477
17713W        W81657  27.016  24.640  12.436
17714W        W81658  20.607   1.238  12.989
17715W        W81659  22.632   1.460   1.841
17716W        W81660  36.419  14.704   4.645
17717W        W81661   0.299  37.923   0.934
17718W        W81662   8.892   1.909  13.021
17719W        W81663   3.379  36.557  11.384
17720W        W81664  40.046   7.187   2.221
17721W        W81665  40.987  32.064  11.033
17722W        W81666  43.494  16.610   4.731
17723W        W81667   3.754  24.087  12.359
17724W        W81668  44.390  29.471  14.369
17725W        W81669  32.901  41.984   0.406
17726W        W81670   3.425  39.495   0.410
17727W        W81671  35.974  24.634  11.977
17728W        W81672  21.243  36.373  14.803
17729W        W81673  43.021  11.325   2.678
17730W        W81674  37.076  14.188   0.784
17731W        W81675  15.723  26.111   2.220
17732W        W81676  30.984  26.132   2.811
17733W        W81677  22.658  31.644   4.627
17734W        W81678  30.917  15.603  11.505
17735W        W81679  37.071  38.030   1.262
17736W        W81680  35.558   3.774  12.879
17737W        W81681   9.264   4.746  12.511
17738W        W81682  39.379  25.512  11.013
17739W        W81683  21.092  18.269  14.019
17740W        W81684  16.116  19.761  12.515
17741W        W81685  10.663  29.132  11.017
17742W        W81686  21.180  29.490   0.930
17743W        W81687   9.816   3.369   0.478
17744W        W81688  11.710  24.979  14.991
17745W        W81689  30.452  10.220   4.652
17746W        W81690  10.735   3.237  13.904
17747W        W81691  17.791  30.581   2.261
17748W        W81692  23.142   7.189  10.431
17749W        W81693  34.957  24.132  13.945
17750W        W81694   7.819   0.865   1.867
17751W        W81695   7.779  16.734   1.400
17752W        W81696  13.696  21.240  13.355
17753W        W81697   5.417  41.431   2.886
17754W        W81698  28.577  12.350   4.166
17755W        W81699  40.310  29.466  10.956
17756W        W81700  24.047  44.308  13.374
17757W        W81701   2.384  30.049   0.446
17758W        W81702  18.770  27.159  14.429
17759W        W81703  24.981   6.225   3.862
17760W        W81704  37.048  34.960  10.917
17761W        W81705  32.934   9.177   0.846
17762W        W81706  31.411  27.686   1.234
17763W        W81707  23.632   0.904   1.812
17764W        W81708   8.364  25.964   2.239
17765W        W81709  17.767   8.687   2.894
17766W        W81710   8.792  22.243   4.714
17767W        W81711   2.732  37.972  10.497
17768W        W81712  43.472  28.633  13.373
17769W        W81713  29.006  20.170  13.792
17770W        W81714   6.334  38.568  11.029
17771W        W81715  13.682  44.980  10.927
17772W        W81716  20.118  20.065   4.654
17773W        W81717  27.958  31.498  14.424
17774W        W81718   8.795   5.822   2.828
17775W        W81719  33.952  32.602   0.829
17776W        W81720   3.862  42.851   1.364
17777W        W81721   2.728  39.348   0.727
17778W        W81722  38.560   9.244  13.429
17779W        W81723  23.669  16.160   3.336
17780W        W81724   5.303  16.087  10.894
17781W        W81725  18.677   5.194   2.187
17782W        W81726  31.966  25.710  11.891
17783W        W81727  13.748  37.965   0.342
17784W        W81728   9.306  18.632   4.713
17785W        W81729  31.541  18.087   0.822
17786W        W81730  32.120  13.244   4.322
17787W        W81731  26.972  20.721   2.873
17788W        W81732   7.905  11.813   2.327
17789W        W81733  22.125   8.384  10.575
17790W        W81734  10.280  41.852  11.437
17791W        W81735  36.868  31.466   4.793
17792W        W81736  17.118  24.544  13.905
17793W        W81737  37.337  34.511   4.717
17794W        W81738  31.613  36.559  11.589
17795W        W81739  11.835  31.469   4.674
17796W        W81740  24.588   1.378  14.506
17797W        W81741  23.999  44.473  11.493
17798W        W81742   3.403   4.840   3.266
17799W        W81743   1.371   8.398   4.784
17800W        W81744   3.904  41.420  13.015
17801W        W81745  10.344  30.468  13.023
17802W        W81746   3.878   7.773   3.746
17803W        W81747   2.463   9.191   1.916
17804W        W81748  38.877  31.111   1.417
17805W        W81749  22.727  36.592  13.907
17806W        W81750  32.405  36.441  13.406
17807W        W81751   1.477   7.779   2.214
17808W        W81752   4.347  35.020  11.125
17809W        W81753   5.362  21.074  12.928
17810W        W81754  19.558  28.032  11.454
17811W        W81755  23.564  27.473   1.288
17812W        W81756  10.322  30.554  10.980
17813W        W81757   8.783  18.736   0.775
17814W        W81758  22.691  40.467  10.442
17815W        W81759  35.934   7.818   3.813
17816W        W81760  20.766  11.644   3.820
17817W        W81761  29.470  35.019  11.042
17818W        W81762   2.743  38.980  13.953
17819W        W81763  16.751  23.515  11.588
17820W        W81764   5.407  15.637  10.911
17821W        W81765   4.387  39.386  10.944
17822W        W81766  16.266  44.007   1.298
17823W        W81767  14.648   6.313   5.182
17824W        W81768   5.221  20.541  14.759
17825W        W81769   4.297  42.816   4.320
17826W        W81770  10.814  13.213  11.005
17827W        W81771  42.413  10.249  13.387
17828W        W81772  34.963  25.702  14.280
17829W        W81773   6.681  40.013  10.462
17830W        W81774  15.266   9.723  13.974
17831W        W81775  26.073  38.495   1.236
17832W        W81776  22.045  14.803  11.879
17833W        W81777  30.147  36.061   3.369
17834W        W81778  41.872  44.950  14.398
17835W        W81779  17.725  41.484  14.948
17836W        W81780  39.964  14.326  12.482
17837W        W81781  34.405  35.050   2.697
17838W        W81782   2.744  15.818  14.859
17839W        W81783  15.690   6.836   0.921
17840W        W81784   8.368  40.937  13.518
17841W        W81785   8.721  27.129  14.991
17842W        W81786  24.658  32.125   1.834
17843W        W81787  40.909   9.824   4.626
17844W        W81788   3.918   5.874  14.994
17845W        W81789  20.086  20.535  12.361
17846W        W81790  10.229  18.664  10.941
17847W        W81791   0.463   9.268  13.888
17848W        W81792  29.106   7.793   4.114
17849W        W81793  26.206  21.075   0.881
17850W        W81794   0.821   3.850  11.416
17851W        W81795   2.920   6.418  12.003
17852W        W81796  11.683  43.913   4.801
17853W        W81797   4.835  40.923   3.845
17854W        W81798  20.251  43.446   4.229
17855W        W81799   8.166  41.984  12.040
17856W        W81800  32.486  15.665   0.375
17857W        W81801  22.730  26.700   2.395
17858W        W81802  36.021   7.889  14.444
17859W        W81803   7.266  43.343   1.424
17860W        W81804  10.813  36.869  13.014
17861W        W81805  22.140   7.354   2.347
17862W        W81806  21.733   5.196   1.413
17863W        W81807  41.309   2.462  11.406
17864W        W81808  30.499   5.869   0.475
17865W        W81809  36.442  25.208   3.842
17866W        W81810  34.578  31.136   2.213
17867W        W81811   4.263   0.827  10.625
17868W        W81812   0.964  38.916   5.145
17869W        W81813  40.348  38.824  14.027
17870W        W81814  34.965  36.897  12.898
17871W        W81815  37.394   2.748  14.457
17872W        W81816  39.925  41.946   4.803
17873W        W81817  31.536  24.019  13.802
17874W        W81818   1.431  44.772  12.561
17875W        W81819  28.048  19.719   4.623
17876W        W81820  18.246  23.222  10.527
17877W        W81821  23.219  11.146   0.483
17878W        W81822  23.216  13.263  14.351
17879W        W81823  20.143  15.207   1.266
17880W        W81824  33.089  30.999  13.956
17881W        W81825  23.049   3.279   4.172
17882W        W81826  18.266  22.211  11.486
17883W        W81827   6.184  28.639   3.779
17884W        W81828  44.854  17.742  13.341
17885W        W81829  38.498   9.680   1.934
17886W        W81830  17.067  42.408   4.214
17887W        W81831  35.386   1.754   3.863
17888W        W81832  27.641  41.430   1.865
17889W        W81833  32.622  35.503   1.845
17890W        W81834  10.716   8.736   1.891
17891W        W81835  30.491  16.241   5.311
17892W        W81836  41.989  13.179   3.315
17893W        W81837  11.212  42.833   3.375
17894W        W81838  35.969  25.064   3.171
17895W        W81839   9.711   4.854   4.305
17896W        W81840  13.714   9.783   3.191
17897W        W81841  30.559  24.534   3.317
17898W        W81842  43.832   5.345  14.851
17899W        W81843  44.784  24.228  13.455
17900W        W81844   8.665  28.106  14.443
17901W        W81845  43.913  30.154  12.419
17902W        W81846  35.978  23.590   0.248
17903W        W81847  43.843  29.061   0.477
17904W        W81848  12.237  29.608   3.634
17905W        W81849  32.951   9.257   4.662
17906W        W81850   3.264  41.429  10.479
17907W        W81851  24.504  13.144  12.050
17908W        W81852   9.198  42.379   0.743
17909W        W81853  13.615  27.471   1.373
17910W        W81854  39.466  21.735   3.820
17911W        W81855  16.711   7.735   0.413
17912W        W81856  24.585   6.753  13.035
17913W        W81857  44.437  28.035  13.998
17914W        W81858  24.716  21.683   2.285
17915W        W81859   3.714  43.889  12.938
17916W        W81860  24.518  43.510  12.978
17917W        W81861  17.305  44.270   0.281
17918W        W81862   6.404  14.170   2.857
17919W        W81863  15.230  18.188   2.702
17920W        W81864  18.236  38.075   2.236
17921W        W81865   1.789   2.391  14.919
17922W        W81866  13.157  40.968  11.930
17923W        W81867   2.817  13.830  12.559
17924W        W81868   9.681   2.807  13.964
17925W        W81869  42.309  18.137   3.801
17926W        W81870   8.811   2.814   1.730
17927W        W81871  20.573  35.566   2.797
17928W        W81872   7.689  36.885  14.809
17929W        W81873  33.382   5.775   0.867
17930W        W81874  30.631  35.517   3.794
17931W        W81875  38.822  26.645  11.998
17932W        W81876  41.402  36.590  14.922
17933W        W81877  20.550  29.591  14.980
17934W        W81878  35.487  27.196   4.715
17935W        W81879  20.728  25.146  12.493
17936W        W81880  12.254  20.614   1.780
17937W        W81881  44.944  41.961   2.389
17938W        W81882  28.655   2.721   1.272
17939W        W81883   1.282  43.306   2.278
17940W        W81884  11.231  10.168  11.000
17941W        W81885  13.327  20.699  13.334
17942W        W81886  16.288  11.652   1.283
17943W        W81887   4.717  17.781  12.424
17944W        W81888  25.600  39.324   2.693
17945W        W81889  20.710  39.972   0.428
17946W        W81890   0.872  10.728  12.547
17947W        W81891  11.260   9.208   2.310
17948W        W81892  41.407  17.074   1.804
17949W        W81893  26.478  13.122   2.784
17950W        W81894  12.352  30.146  11.470
17951W        W81895  40.884  16.110  13.443
17952W        W81896  22.099  40.402  12.039
17953W        W81897  16.228  35.366   0.352
17954W        W81898   0.390  20.691   2.873
17955W        W81899  31.908  19.674  11.857
17956W        W81900  39.433  40.946  13.429
17957W        W81901  40.817  23.210   0.773
17958W        W81902  40.379  13.262   1.448
17959W        W81903  44.871  44.773   2.801
17960W        W81904  16.107  42.981   2.855
17961W        W81905  14.781  20.215   4.834
17962W        W81906  39.934  19.780   1.740
17963W        W81907  31.085  11.136   0.799
17964W        W81908  19.050  27.580  14.886
17965W        W81909  13.707   6.850  14.431
17966W        W81910  37.851   1.330   3.378
17967W        W81911  40.041  22.217   4.194
17968W        W81912  36.554  34.395   2.355
17969W        W81913  43.494  31.459   1.801
17970W        W81914  16.166  15.614  14.938
17971W        W81915  26.178   0.974  12.093
17972W        W81916  30.952   4.845  10.031
17973W        W81917  36.480  30.107  13.980
17974W        W81918  22.081  33.018  12.465
17975W        W81919  38.365  34.897   2.682
17976W        W81920  30.065   6.403  13.519
17977W        W81921   3.734   8.674   2.239
17978W        W81922  43.485  18.545   0.391
17979W        W81923   6.282  40.921  13.439
17980W        W81924   3.351  42.862   2.856
17981W        W81925   8.819  44.276   0.881
17982W        W81926   3.422  42.924   4.222
17983W        W81927  11.196  40.326  14.816
17984W        W81928  11.225   5.243   1.757
17985W        W81929  15.661  38.506   4.307
17986W        W81930  27.533  22.571   4.628
17987W        W81931  26.169  44.418  11.452
17988W        W81932  19.059   4.754  12.827
17989W        W81933   1.861  26.675  12.952
17990W        W81934  24.575   6.314   3.755
17991W        W81935  14.321  14.676  14.027
17992W        W81936  21.529   4.413   3.174
17993W        W81937  44.460  10.303  13.361
17994W        W81938  44.472  39.854   4.765
17995W        W81939  31.409  41.490   4.238
17996W        W81940  15.286   5.424  14.462
17997W        W81941  36.441   8.887  13.048
17998W        W81942   4.399  25.691  12.845
17999W        W81943  44.772  25.687   4.815
18000W        W81944  18.700  41.442  12.346
18001W        W81945  19.538  11.629   0.772
18002W        W81946  32.425  35.525  10.924
18003W        W81947  12.802  34.034  14.423
18004W        W81948   6.830   7.413  14.900
18005W        W81949  36.083  43.496  12.428
18006W        W81950  33.518  23.203   3.341
18007W        W81951  39.865   1.762   3.718
18008W        W81952  43.440  21.673  11.453
18009W        W81953  18.594  11.626   4.322
18010W        W81954  14.264   7.701   3.668
18011W        W81955  40.367  21.079  14.391
18012W        W81956  35.515  32.901   1.266
18013W        W81957  22.727  36.945   1.371
18014W        W81958  40.458  20.733  10.433
18015W        W81959  14.796   4.216  14.306
18016W        W81960  14.663  31.961   0.730
18017W        W81961   7.878  18.701  14.770
18018W        W81962  28.941  26.615  12.386
18019W        W81963  34.457  25.604  12.034
18020W        W81964   9.256  38.854   4.283
18021W        W81965  10.315  29.635   2.389
18022W        W81966  25.610  33.546  10.112
18023W        W81967  14.619   2.342   4.274
18024W        W81968  26.531  19.204   3.298
18025W        W81969  13.778  15.167  14.446
18026W        W81970   6.374   4.945   4.242
18027W        W81971  42.439   2.315   2.340
18028W        W81972  41.024  12.842   0.946
18029W        W81973  39.545  16.762   3.647
18030W        W81974  23.135  17.579  13.937
18031W        W81975   9.718  13.742  14.352
18032W        W81976  31.589  34.059  12.365
18033W        W81977  31.573   0.925  13.030
18034W        W81978   2.281  25.998   0.928
18035W        W81979  30.496  35.372  14.397
18036W        W81980  26.957  44.004   0.413
18037W        W81981  21.095  16.253   0.377
18038W        W81982   2.921  36.926   1.357
18039W        W81983  34.910   4.391  12.563
18040W        W81984   6.363   3.366   2.349
18041W        W81985  14.595  40.353   1.243
18042W        W81986   8.348  10.365   0.372
18043W        W81987  27.661  19.709  12.448
18044W        W81988   3.388  44.988  10.933
18045W        W81989  42.393  33.546  10.461
18046W        W81990  20.586  26.506   2.751
18047W        W81991  37.865  31.567  13.432
18048W        W81992  10.664   1.817  10.465
18049W        W81993  20.037  19.285  12.378
18050W        W81994  38.887  20.750   3.847
18051W        W81995  44.420  12.825  10.965
18052W        W81996   3.917  10.275   3.146
18053W        W81997  17.694  30.934  14.302
18054W        W81998  30.468  32.953  14.445
18055W        W81999   2.240   6.830  12.019
18056W        W82000  41.388  16.574  10.484
18057W        W82001  15.770  37.020   3.280
18058W        W82002   0.807  31.648  14.958
18059W        W82003  44.953   0.881  12.415
18060W        W82004  19.653   3.391   2.848
18061W        W82005  10.335  38.994   4.230
18062W        W82006  21.028  42.789   2.346
18063W        W82007  41.031  34.051   3.304
18064W        W82008  21.107   7.746  14.498
18065W        W82009   2.235  35.010  10.936
18066W        W82010  21.515  21.728  11.036
18067W        W82011  42.802   5.890  11.584
18068W        W82012   2.278   6.238  10.914
18069W        W82013  23.988  40.894   2.387
18070W        W82014  32.074  17.065   0.291
18071W        W82015  41.936  18.265  12.043
18072W        W82016  32.408  37.869   4.251
18073W        W82017  27.945  10.846   1.291
18074W        W82018  30.955   6.421   5.205
18075W        W82019   3.281   6.379   1.822
18076W        W82020   2.949   4.938   4.245
18077W        W82021  29.553  37.966   0.849
18078W        W82022  25.683   5.439   2.721
18079W        W82023  44.496   1.446  11.902
18080W        W82024  18.571  25.507   3.287
18081W        W82025  12.145  39.976   3.250
18082W        W82026  27.031  29.165  11.871
18083W        W82027   4.354  36.374   4.159
18084W        W82028  38.493   5.392   0.354
18085W        W82029  27.131  39.543   0.362
18086W        W82030  13.757   3.406   0.758
18087W        W82031  35.924  12.852   4.316
18088W        W82032  17.122  22.594   4.136
18089W        W82033  18.114  15.139   2.268
18090W        W82034  15.701  30.096  14.372
18091W        W82035  38.929   2.383  11.929
18092W        W82036   0.427  26.488  14.477
18093W        W82037   5.906  42.521   4.773
18094W        W82038  18.575   5.282   4.624
18095W        W82039  40.317  24.724   3.793
18096W        W82040  15.103  39.011   4.346
18097W        W82041  24.022  31.540   1.847
18098W        W82042   8.163   1.419  10.495
18099W        W82043  35.962   2.414   1.792
18100W        W82044   3.391   4.334  10.589
18101W        W82045  36.383   4.302  12.015
18102W        W82046  26.045  24.974   2.843
18103W        W82047  35.407  10.702  10.936
18104W        W82048  13.730  39.399  12.442
18105W        W82049  11.222  23.088  14.434
18106W        W82050  24.049  37.963   2.892
18107W        W82051  34.063  17.754   4.738
18108W        W82052  14.260   1.340   1.707
18109W        W82053   1.814  23.146   3.344
18110W        W82054  38.354  16.746   3.791
18111W        W82055  26.561  37.965   1.739
18112W        W82056  36.073  16.304  14.853
18113W        W82057  10.652  15.169  12.527
18114W        W82058  33.969   2.786   1.745
18115W        W82059  13.190  19.682   4.213
18116W        W82060  22.159  38.878  14.338
18117W        W82061  29.985  36.446   4.619
18118W        W82062  33.529  36.915   0.762
18119W        W82063  40.540  29.085   3.155
18120W        W82064  43.959   6.356   2.371
18121W        W82065  24.511  33.526  13.437
18122W        W82066  14.333  12.191   3.160
18123W        W82067  18.705  16.188  14.471
18124W        W82068  36.431  38.897  14.895
18125W        W82069   4.260  24.041  10.916
18126W        W82070   7.672  13.821   0.461
18127W        W82071  21.686  21.557   1.909
18128W        W82072  19.671  10.809   3.152
18129W        W82073   5.726  35.049   0.475
18130W        W82074   9.652  18.774  13.914
18131W        W82075  24.075  40.002   5.232
18132W        W82076  43.985  25.110   1.233
18133W        W82077  41.368  16.209   0.351
18134W        W82078  21.513  24.184   1.768
18135W        W82079  38.924  29.660   3.647
18136W        W82080  34.026  26.136   4.157
18137W        W82081  38.443  18.157   4.278
18138W        W82082  20.607  20.753   4.800
18139W        W82083  38.034  30.009   2.244
18140W        W82084  16.810  41.463  12.069
18141W        W82085   9.259   1.897   2.315
18142W        W82086  41.007  23.667   4.256
18143W        W82087   5.814   9.177  14.005
18144W        W82088   3.402   8.858   1.872
18145W        W82089  32.402  35.431   0.248
18146W        W82090  41.481  42.364   4.236
18147W        W82091  31.584  37.992   2.196
18148W        W82092  28.552   7.396  12.946
18149W        W82093  42.792  29.668  12.881
18150W        W82094   3.445   0.318   3.797
18151W        W82095  34.561   8.691  14.784
18152W        W82096   2.940  26.530   1.282
18153W        W82097   3.342  21.060  11.439
18154W        W82098  10.634  12.844   3.641
18155W        W82099  12.264   6.728  14.402
18156W        W82100  24.137  32.405   0.306
18157W        W82101  20.242  11.668   0.270
18158W        W82102  16.106   6.701   0.952
18159W        W82103  10.318   8.393  11.904
18160W        W82104  40.974  42.309  12.488
18161W        W82105  35.073   9.284  11.912
18162W        W82106  23.515   2.750  12.566
18163W        W82107  23.724  15.734  10.156
18164W        W82108  11.348  28.096  10.053
18165W        W82109  31.948  43.967  14.833
18166W        W82110   7.311  20.650  13.008
18167W        W82111   9.371  14.740   5.794
18168W        W82112  23.623   0.362   3.276
18169W        W82113  30.022   8.764   1.779
18170W        W82114  37.468  39.459  14.962
18171W        W82115   8.689  14.115   4.721
18172W        W82116  12.187  39.840  13.872
18173W        W82117  16.568  34.043   2.880
18174W        W82118  21.754  25.607   2.699
18175W        W82119  15.798  24.988   4.216
18176W        W82120  15.215  34.098  12.997
18177W        W82121  22.177  13.660   2.680
18178W        W82122   4.925  23.549  13.924
18179W        W82123  43.789  39.532  13.826
18180W        W82124   2.771  37.869  12.960
18181W        W82125   9.740  38.981   1.241
18182W        W82126  36.412  26.627   4.823
18183W        W82127   9.874  29.649  12.862
18184W        W82128  22.229   5.759  13.017
18185W        W82129  42.437  23.619  13.940
18186W        W82130  18.657  22.080  12.403
18187W        W82131  10.252  20.266   3.784
18188W        W82132  26.051   0.341  12.067
18189W        W82133   8.364  13.158  12.902
18190W        W82134  24.133  39.832   4.347
18191W        W82135  29.022   9.659   3.673
18192W        W82136  43.851  35.079  13.401
18193W        W82137  18.771  24.609   0.302
18194W        W82138  22.709   7.344   2.683
18195W        W82139  10.160  39.488   4.236
18196W        W82140  20.718   2.856  10.453
18197W        W82141  38.495  32.634   4.815
18198W        W82142  11.242   7.239   4.116
18199W        W82143  24.021   8.804  11.971
18200W        W82144   7.760  30.584  14.427
18201W        W82145   0.426  41.969   3.652
18202W        W82146  17.569  16.166   1.762
18203W        W82147  37.389   7.807  11.866
18204W        W82148  20.692  23.653   0.965
18205W        W82149  30.969  17.252  12.912
18206W        W82150  43.304   5.819  14.301
18207W        W82151  11.703  29.566   1.710
18208W        W82152   4.877  34.539   2.833
18209W        W82153  16.619  26.192  14.454
18210W        W82154  16.663  40.511  14.782
18211W        W82155  23.141   9.358  13.944
18212W        W82156   9.332  26.462  11.491
18213W        W82157  13.211  29.996   3.692
18214W        W82158  21.624  34.510  12.376
18215W        W82159  20.211  13.267   3.199
18216W        W82160  38.490  14.611   4.127
18217W        W82161  40.473  15.641  14.503
18218W        W82162  20.075  28.062  12.412
18219W        W82163  30.017  20.098  14.884
18220W        W82164  37.855  37.563  14.007
18221W        W82165  31.556  42.381   3.817
18222W        W82166  12.217  30.650  10.953
18223W        W82167  27.032  36.980   2.417
18224W        W82168   9.879  19.656   3.675
18225W        W82169   3.952  44.813   0.381
18226W        W82170   0.327  14.634  10.473
18227W        W82171  40.016  18.693  13.980
18228W        W82172  29.568  43.988  13.520
18229W        W82173  13.138  32.610  12.979
18230W        W82174   7.825  37.385  14.466
18231W        W82175  12.739   5.299  10.940
18232W        W82176   4.925   0.309  10.616
18233W        W82177  10.245  34.427  12.859
18234W        W82178   3.778  43.972   0.258
18235W        W82179  20.258   5.749   4.638
18236W        W82180   3.242   7.866   1.427
18237W        W82181  21.240  26.536  10.473
18238W        W82182  26.979  20.555  14.438
18239W        W82183  18.080  22.691   0.387
18240W        W82184  37.335  29.093   1.825
18241W        W82185  12.656  15.119  11.009
18242W        W82186   9.803  31.060  14.858
18243W        W82187  12.751  12.229   4.771
18244W        W82188   5.820  10.804  10.446
18245W        W82189  33.603  30.928  13.878
18246W        W82190  11.658  10.669   0.883
18247W        W82191  32.972  26.599  12.047
18248W        W82192  32.447   6.324   4.730
18249W        W82193  28.150  25.987   3.638
18250W        W82194  18.566  42.002  12.865
18251W        W82195  30.110  41.839   3.858
18252W        W82196   4.710  10.771  11.987
18253W        W82197  15.112  29.468   1.257
18254W        W82198  30.489   3.239  11.949
18255W        W82199  21.609  23.208   3.646
18256W        W82200  27.683  44.486   0.834
18257W        W82201  15.084   5.378   2.209
18258W        W82202  19.611  43.783   4.165
18259W        W82203  19.072   1.365  12.470
18260W        W82204  18.051  11.143   0.324
18261W        W82205   0.915  38.377   3.320
18262W        W82206  42.325  35.943   3.847
18263W        W82207  30.473  13.234   1.368
18264W        W82208  40.844  30.574  13.312
18265W        W82209  10.256  21.645   1.894
18266W        W82210  10.379  10.300   5.084
18267W        W82211  39.508  43.376  11.111
18268W        W82212  27.683  13.167  14.401
18269W        W82213  24.193  17.689   0.903
18270W        W82214  11.345   5.278  11.084
18271W        W82215   8.406   5.867  14.760
18272W        W82216  28.596  29.437  14.450
18273W        W82217  36.936   5.733  11.069
18274W        W82218  10.346   0.323   4.302
18275W        W82219  22.016  38.454   1.897
18276W        W82220  44.870  13.681   2.247
18277W        W82221  23.560  32.605  14.311
18278W        W82222  24.206  18.121   4.794
18279W        W82223  42.400  39.551   2.239
18280W        W82224  32.947  36.980   3.373
18281W        W82225  27.476  31.941   1.260
18282W        W82226  44.287  41.491  13.379
18283W        W82227  36.404  34.030  14.387
18284W        W82228  30.619  39.551   5.190
18285W        W82229  20.753  14.805   0.338
18286W        W82230   1.908  28.111   0.383
18287W        W82231  41.952  22.534   3.151
18288W        W82232  29.425  10.853  10.934
18289W        W82233  17.220  39.496   4.200
18290W        W82234  27.540  22.169   0.828
18291W        W82235  21.075  18.117   1.774
18292W        W82236  32.448  38.052  13.389
18293W        W82237  10.187  37.868   1.798
18294W        W82238  22.565  24.983  14.426
18295W        W82239  32.944  21.219  14.459
18296W        W82240  17.763  31.428   2.879
18297W        W82241  15.145  25.613  14.988
18298W        W82242   8.390  36.413  11.035
18299W        W82243  14.735  39.893   2.412
18300W        W82244  18.601  15.325  10.468
18301W        W82245  36.469  13.156  13.334
18302W        W82246  20.246   1.260  13.422
18303W        W82247  25.549   7.252  13.934
18304W        W82248  37.948   4.398   1.831
18305W        W82249   6.338  29.176   3.182
18306W        W82250  34.021  21.592   4.763
18307W        W82251   6.747  29.085  12.941
18308W        W82252  38.031  10.661   0.298
18309W        W82253  30.559  37.544   2.325
18310W        W82254  42.316  40.957  11.510
18311W        W82255  29.602  20.266  14.903
18312W        W82256  18.186  25.066   2.866
18313W        W82257  20.648  17.130  10.629
18314W        W82258  13.328  37.564   3.256
18315W        W82259   4.865  38.484   3.270
18316W        W82260  42.517  33.973   4.312
18317W        W82261   4.414   5.866   2.841
18318W        W82262  24.986  12.786  11.560
18319W        W82263   0.934  32.130   1.274
18320W        W82264  19.647  21.017   3.334
18321W        W82265   4.359  41.532   1.233
18322W        W82266  13.718  20.229  12.493
18323W        W82267  14.787  20.091  12.505
18324W        W82268  18.785  30.981   3.818
18325W        W82269  17.672  11.309  11.022
18326W        W82270  27.608  12.257   0.365
18327W        W82271  17.763  11.773   0.831
18328W        W82272  29.427  37.914  10.558
18329W        W82273  11.631   1.804  11.908
18330W        W82274  37.434  30.957  13.330
18331W        W82275  30.090  41.524  10.945
18332W        W82276  32.044  31.039   4.229
18333W        W82277  25.703  26.631  10.119
18334W        W82278  28.938  26.459   3.184
18335W        W82279   7.838   7.365   5.282
18336W        W82280  25.668  20.673   3.646
18337W        W82281  41.479  42.025   1.313
18338W        W82282  14.812  23.547   3.657
18339W        W82283  36.004   6.237  14.413
18340W        W82284  32.400  16.153  10.558
18341W        W82285  11.773  34.975  14.440
18342W        W82286  13.131   4.369   1.255
18343W        W82287   4.266  15.150  14.790
18344W        W82288  44.468  31.452   9.981
18345W        W82289   3.223  39.922  14.460
18346W        W82290  23.194  38.489  14.494
18347W        W82291  39.972   6.348   0.886
18348W        W82292  23.645  24.725  11.099
18349W        W82293  43.788  43.328   2.418
18350W        W82294  26.700  31.488  14.493
18351W        W82295  26.024   3.931  13.969
18352W        W82296  31.420  40.333  13.876
18353W        W82297   7.895  26.200   3.190
18354W        W82298  33.101  33.959   4.716
18355W        W82299  31.911   1.760  12.467
18356W        W82300  33.564  38.020  14.822
18357W        W82301  19.630  43.973   1.865
18358W        W82302  29.613   0.874   9.951
18359W        W82303  15.086   7.349   1.408
18360W        W82304  18.740  39.902  12.357
18361W        W82305  44.322   2.788   3.800
18362W        W82306  30.636  30.055   3.650
18363W        W82307   3.781  44.755   3.705
18364W        W82308  24.554  11.161  13.312
18365W        W82309  43.954  44.783   3.150
18366W        W82310  37.851  25.966   4.121
18367W        W82311   7.365  29.132  12.925
18368W        W82312   3.900  14.665   4.738
18369W        W82313  17.631  15.278   0.965
18370W        W82314   7.407  32.912   2.412
18371W        W82315  33.036  20.140   3.231
18372W        W82316  19.647  35.951   0.395
18373W        W82317  31.574  36.004   4.726
18374W        W82318   1.306   1.784  11.129
18375W        W82319  15.790  29.469  11.868
18376W        W82320  22.522  15.683   5.301
18377W        W82321  30.106  13.717  13.463
18378W        W82322  19.740  22.661   2.810
18379W        W82323   8.888  40.336   3.183
18380W        W82324  20.140  22.650   0.931
18381W        W82325  13.189  20.164   3.703
18382W        W82326  12.238  44.912  12.367
18383W        W82327   6.678  22.640  13.375
18384W        W82328  18.094  29.031  12.415
18385W        W82329   9.344  21.018  11.922
18386W        W82330  19.270  25.697  10.510
18387W        W82331  33.491  37.537   3.346
18388W        W82332  18.274   4.354  12.834
18389W        W82333  36.982   6.709   9.636
18390W        W82334  44.926  25.548   3.746
18391W        W82335   3.380  12.164  14.326
18392W        W82336  37.007   6.206   5.759
18393W        W82337  19.226  33.435   0.731
18394W        W82338  27.675  29.588  14.804
18395W        W82339   7.342  24.076   0.902
18396W        W82340  38.867  28.114   3.170
18397W        W82341  35.935  44.419   3.355
18398W        W82342  35.906  32.907   1.317
18399W        W82343  39.333   0.332   3.739
18400W        W82344  17.073  12.855  12.968
18401W        W82345   3.904   9.823   0.422
18402W        W82346  30.501  37.019   2.371
18403W        W82347  23.654  23.031  11.107
18404W        W82348  39.372  29.149  13.339
18405W        W82349  25.962  23.016  12.385
18406W        W82350  31.116  43.013   4.793
18407W        W82351  29.933  17.710   0.805
18408W        W82352  16.256  38.010   1.319
18409W        W82353  31.125  31.439   0.281
18410W        W82354  40.871   2.377  13.503
18411W        W82355  18.658  17.285  11.391
18412W        W82356   1.384  39.343  12.534
18413W        W82357  20.702  29.930  12.047
18414W        W82358  26.100  26.127   0.947
18415W        W82359  17.293  42.519   1.751
18416W        W82360  24.220  11.162  14.003
18417W        W82361  43.372  17.750   4.148
18418W        W82362  21.522  31.403  13.468
18419W        W82363  23.044  24.119   1.341
18420W        W82364  41.988  11.167   0.825
18421W        W82365  26.131  14.804   2.743
18422W        W82366  10.768   5.807   2.316
18423W        W82367  14.120   4.436   0.949
18424W        W82368   9.295   0.435   0.937
18425W        W82369   8.700  43.835  10.991
18426W        W82370  19.232   2.365   0.296
18427W        W82371  40.360   6.785   3.668
18428W        W82372  44.008  10.276  11.596
18429W        W82373   5.719  11.145   2.670
18430W        W82374   1.450  19.153  12.441
18431W        W82375  41.415  14.699  14.350
18432W        W82376   8.381  31.468   0.451
18433W        W82377  33.953  13.778  13.464
18434W        W82378   1.872  25.673   3.857
18435W        W82379  10.302  31.004  11.464
18436W        W82380  22.645  21.710  10.099
18437W        W82381  18.766  39.913  10.917
18438W        W82382  28.494  26.485  14.901
18439W        W82383  36.354  43.842   1.709
18440W        W82384  34.598  39.942  14.294
18441W        W82385  39.959  28.504   0.730
18442W        W82386  24.005  11.287   0.939
18443W        W82387  43.499  10.788   1.300
18444W        W82388  30.428   8.396  12.075
18445W        W82389  28.653  22.114  11.551
18446W        W82390  29.615  44.881  14.330
18447W        W82391  20.122  38.868  12.047
18448W        W82392  14.818   7.313   3.156
18449W        W82393   2.349  30.031  13.367
18450W        W82394   2.827  23.696  12.566
18451W        W82395  29.638  20.264   1.855
18452W        W82396   2.882  42.785  13.374
18453W        W82397  18.749  15.247  12.967
18454W        W82398  39.029  20.733  14.363
18455W        W82399  31.120   7.894   0.380
18456W        W82400  44.820  17.763  14.778
18457W        W82401  41.456  28.642  10.597
18458W        W82402   6.894  40.960  12.521
18459W        W82403  23.184   6.917   1.762
18460W        W82404  39.990  12.817   1.866
18461W        W82405   5.815  28.947  12.357
18462W        W82406  40.437  17.756   4.810
18463W        W82407  18.294  15.318  11.977
18464W        W82408  14.768  14.641  12.497
18465W        W82409  38.373  22.219  12.839
18466W        W82410  27.493  37.951  13.004
18467W        W82411   5.246  24.546  12.905
18468W        W82412  31.406  11.719  13.416
18469W        W82413  24.176  14.192  12.913
18470W        W82414  10.755  23.674  12.900
18471W        W82415  33.422  12.354   1.712
18472W        W82416   1.259  18.684  14.929
18473W        W82417   9.369  20.095  11.525
18474W        W82418  43.799  21.749  11.128
18475W        W82419  23.091  27.647   1.283
18476W        W82420   7.251  16.214   3.185
18477W        W82421  13.625  43.280  13.429
18478W        W82422  37.030  22.631  14.789
18479W        W82423  44.912  10.220  14.406
18480W        W82424  22.629   3.902  13.037
18481W        W82425  10.302  15.661   1.441
18482W        W82426  19.541  13.204   1.284
18483W        W82427  29.483  20.652   1.405
18484W        W82428  16.737  16.194   3.238
18485W        W82429  41.444  44.993  13.022
18486W        W82430  13.652  42.888  10.026
18487W        W82431  40.837  44.997  11.594
18488W        W82432   3.387  35.379   3.285
18489W        W82433   7.365   0.759   2.730
18490W        W82434  33.025  16.250  13.996
18491W        W82435  35.477   8.855   2.787
18492W        W82436  31.988  14.181   5.164
18493W        W82437  31.495  39.923   1.882
18494W        W82438  39.016  43.935   2.805
18495W        W82439   3.812   3.822  12.543
18496W        W82440   5.310  19.098  13.035
18497W        W82441  43.860  11.668   3.235
18498W        W82442  35.546  40.497   2.290
18499W        W82443  15.792   9.866  11.542
18500W        W82444  24.533   5.768   2.410
18501W        W82445   8.376  41.517  11.067
18502W        W82446   7.395  28.007   4.729
18503W        W82447  23.515   5.389   2.892
18504W        W82448  30.085  14.207  13.850
18505W        W82449  42.907  35.016  11.058
18506W        W82450  41.395  43.421   1.774
18507W        W82451  31.009  36.492   1.766
18508W        W82452  38.947  15.810  13.547
18509W        W82453  41.516   9.264  14.009
18510W        W82454  38.442   6.886  10.563
18511W        W82455   9.751  40.990  11.072
18512W        W82456   8.737  36.892   0.744
18513W        W82457  39.043  35.087  10.536
18514W        W82458   9.675  17.135  12.919
18515W        W82459  13.183  31.497  12.506
18516W        W82460  10.734  31.112  13.006
18517W        W82461  29.619  16.613  11.870
18518W        W82462   7.789  36.482  12.894
18519W        W82463  26.566  41.793  13.495
18520W        W82464  40.518  15.281  12.568
18521W        W82465  15.662  24.088  13.527
18522W        W82466  44.909  24.636   4.133
18523W        W82467   5.758  33.584   3.269
18524W        W82468   1.415  21.556   3.663
18525W        W82469  16.756  32.438  14.432
18526W        W82470  30.150  42.894   3.676
18527W        W82471  15.746  26.585   4.277
18528W        W82472  43.424  43.423   0.742
18529W        W82473  14.656  29.536   0.404
18530W        W82474   9.843  18.223   3.684
18531W        W82475  33.431  18.588   4.246
18532W        W82476  18.614  22.241   1.406
18533W        W82477  31.065  10.850   0.733
18534W        W82478  31.523  38.461  12.971
18535W        W82479   1.834  38.860  11.379
18536W        W82480  42.491  43.808  12.898
18537W        W82481  43.802   1.299   3.316
18538W        W82482  34.575  26.973   3.771
18539W        W82483  11.742  15.819   3.732
18540W        W82484  22.995  43.004  14.024
18541W        W82485   4.280  18.701  13.901
18542W        W82486  29.560  29.639   3.166
18543W        W82487  28.972  40.848  11.069
18544W        W82488  25.967  31.478   0.381
18545W        W82489  31.932  15.614  14.978
18546W        W82490  30.048  27.629  12.896
18547W        W82491  40.822  32.451  14.764
18548W        W82492  22.539  40.852   0.394
18549W        W82493  35.462  14.642  14.402
18550W        W82494  26.608  11.140  11.512
18551W        W82495  33.040   9.380   1.762
18552W        W82496  41.920   1.795  13.935
18553W        W82497  34.096  38.344   2.760
18554W        W82498  32.975   4.847  11.092
18555W        W82499  14.728  38.570  13.449
18556W        W82500  12.774  27.973   0.268
18557W        W82501  24.657   9.194   4.130
18558W        W82502  44.352  24.505  12.887
18559W        W82503  28.168  41.015   0.320
18560W        W82504  11.686  30.027   4.145
18561W        W82505   2.955  37.462   2.798
18562W        W82506  22.621  27.646   4.309
18563W        W82507  30.438  28.515  12.040
18564W        W82508  44.867  40.335   2.359
18565W        W82509   9.685  31.492   9.512
18566W        W82510  23.100   6.766   2.397
18567W        W82511  22.227  37.401  11.861
18568W        W82512  27.059  25.710  11.975
18569W        W82513   5.801   6.202  13.833
18570W        W82514  21.187  27.999  14.422
18571W        W82515   8.795  40.832   1.434
18572W        W82516  41.473  42.906   1.806
18573W        W82517  25.088   6.856  13.329
18574W        W82518   7.175  43.916   1.713
18575W        W82519  33.496   8.345   4.752
18576W        W82520  38.515   2.742   5.123
18577W        W82521  36.352  33.062  13.006
18578W        W82522   2.406  12.842   2.728
18579W        W82523  44.787  11.728  12.004
18580W        W82524   2.382  23.567   2.826
18581W        W82525  10.747  19.083   3.858
18582W        W82526   3.267  26.459   1.906
18583W        W82527  28.046   8.358   4.666
18584W        W82528  19.231   6.290  13.326
18585W        W82529  11.725  25.106  12.396
18586W        W82530   1.365  11.789   4.823
18587W        W82531  21.184   5.776  13.443
18588W        W82532  30.574  12.635   4.647
18589W        W82533  13.723  15.619  13.853
18590W        W82534  33.585  33.884   4.294
18591W        W82535   6.267  21.174  11.893
18592W        W82536  29.562  44.473   4.157
18593W        W82537  43.396  32.612   0.291
18594W        W82538  30.596  29.048  11.562
18595W        W82539   0.796  18.742  11.471
18596W        W82540  30.148  22.009  11.890
18597W        W82541  18.745  26.110  13.416
18598W        W82542  15.701   2.744  10.481
18599W        W82543  10.281  37.993   2.717
18600W        W82544  22.520  12.300   1.912
18601W        W82545  36.948  32.498   2.323
18602W        W82546  39.540   4.219  13.902
18603W        W82547   8.717   3.455  10.052
18604W        W82548  23.143  24.607  11.858
18605W        W82549  37.338   7.311   2.365
18606W        W82550   2.847  27.594  11.018
18607W        W82551  43.964  24.155  11.417
18608W        W82552   4.902  26.193   1.724
18609W        W82553   1.320   6.279   0.858
18610W        W82554  28.963  21.168   4.235
18611W        W82555  15.586  10.755   4.123
18612W        W82556  40.470  29.494  14.951
18613W        W82557  23.560   9.857   1.323
18614W        W82558  38.853   3.410   0.866
18615W        W82559  32.970   8.366  10.889
18616W        W82560  23.188   9.353  12.045
18617W        W82561  19.199  10.240  13.439
18618W        W82562  26.489   2.730  14.388
18619W        W82563  16.280  11.852   4.348
18620W        W82564  39.986   5.902   2.884
18621W        W82565  42.810  42.487   3.819
18622W        W82566  17.718  13.250   3.747
18623W        W82567  26.560  41.019  12.031
18624W        W82568  11.759  23.553   1.916
18625W        W82569  26.128  33.893   0.477
18626W        W82570  31.131  38.556   1.414
18627W        W82571  20.737  35.858   4.229
18628W        W82572  33.472   0.346  11.441
18629W        W82573  34.062  18.126  14.826
18630W        W82574   4.252  26.512   2.871
18631W        W82575  33.876   4.280  10.502
18632W        W82576  30.528  38.014   2.894
18633W        W82577  31.579  29.444   0.358
18634W        W82578  24.109  41.479   0.459
18635W        W82579  37.857   8.888   4.204
18636W        W82580   5.934  42.023  13.963
18637W        W82581   8.244  43.281   2.217
18638W        W82582  29.532  17.149  13.040
18639W        W82583  32.532  24.160   1.245
18640W        W82584  38.834   3.422  13.959
18641W        W82585  14.322  42.291  13.433
18642W        W82586   8.376  12.732  14.314
18643W        W82587   9.300  27.490   1.230
18644W        W82588   0.278  11.780  13.870
18645W        W82589  38.828   2.377   5.215
18646W        W82590  13.147   4.441   2.664
18647W        W82591  24.992  26.956   4.673
18648W        W82592  25.522  16.610  11.511
18649W        W82593  29.018  16.210  14.474
18650W        W82594  22.701   6.811  12.928
18651W        W82595   2.919  35.076   2.290
18652W        W82596   0.295  16.779   2.192
18653W        W82597  12.329  43.931   2.222
18654W        W82598  43.791  25.053   2.181
18655W        W82599  35.404  37.003   0.407
18656W        W82600  19.263  23.038   0.952
18657W        W82601  35.997  32.560  11.579
18658W        W82602  25.967   6.821   4.603
18659W        W82603  24.704   9.344   2.339
18660W        W82604   2.757  32.949   0.831
18661W        W82605  19.216  44.987   3.750
18662W        W82606  40.516  23.136  12.559
18663W        W82607   4.884  34.515   4.316
18664W        W82608   7.730  13.828   2.190
18665W        W82609  27.541   3.838  14.368
18666W        W82610  34.943  37.075   0.837
18667W        W82611   4.413  36.943   1.766
18668W        W82612  38.450  25.047   3.724
18669W        W82613   4.943  22.193   5.154
18670W        W82614  11.242   0.420  11.562
18671W        W82615   3.914   9.193  14.006
18672W        W82616  25.624  34.454  13.447
18673W        W82617   8.167  35.397   1.915
18674W        W82618   8.186  28.050   4.599
18675W        W82619   5.352   8.161   1.310
18676W        W82620  37.851  37.569  13.461
18677W        W82621  15.290  39.555  12.490
18678W        W82622  31.051  25.197   2.181
18679W        W82623   7.799   4.715  11.444
18680W        W82624   4.448   3.218  13.793
18681W        W82625  41.042  28.180  12.912
18682W        W82626  35.367  21.128   2.731
18683W        W82627   0.959  43.844   0.300
18684W        W82628  13.661  35.034  13.931
18685W        W82629   9.214  14.764   5.109
18686W        W82630  10.835   8.731   0.440
18687W        W82631   1.305  31.485   1.428
18688W        W82632  22.584  30.960   4.730
18689W        W82633  21.040  10.662  11.982
18690W        W82634  28.185  19.589   9.982
18691W        W82635  36.075  39.451   4.710
18692W        W82636  28.471   0.308  13.383
18693W        W82637   6.265   7.795   2.401
18694W        W82638  10.269   3.733  12.917
18695W        W82639  30.048  34.981   3.264
18696W        W82640  15.110  36.467   0.468
18697W        W82641  39.459   5.693  12.474
18698W        W82642  37.493  12.843   1.422
18699W        W82643  34.050  11.697   1.802
18700W        W82644  37.911  21.651   2.352
18701W        W82645  23.077  27.006  10.626
18702W        W82646  36.369   8.854   3.701
18703W        W82647  39.333  38.508  11.562
18704W        W82648   1.880  21.602  11.976
18705W        W82649  31.955  33.002   1.215
18706W        W82650  40.440  40.919  10.496
18707W        W82651  29.622  17.690   2.294
18708W        W82652  43.387  40.007   4.746
18709W        W82653  31.052   3.312   0.377
18710W        W82654  30.050  37.386   3.163
18711W        W82655  30.969  37.404   2.210
18712W        W82656  17.631  17.604  12.053
18713W        W82657   5.833  18.769   1.230
18714W        W82658  30.499  21.752   4.216
18715W        W82659  11.250  40.312  13.474
18716W        W82660  24.064  15.678   3.303
18717W        W82661   2.234   8.809   3.218
18718W        W82662  12.139  43.922   5.584
18719W        W82663  17.640   2.926   0.842
18720W        W82664   2.324  32.462   1.698
18721W        W82665   3.921  12.361  14.838
18722W        W82666   2.276  35.496  10.461
18723W        W82667  28.167   7.843   4.661
18724W        W82668  11.787  21.736  13.873
18725W        W82669  28.680  23.514   2.299
18726W        W82670  30.421  16.663   3.832
18727W        W82671   3.283  35.105   3.780
18728W        W82672  36.525  41.471   3.834
18729W        W82673  27.496  34.040   4.679
18730W        W82674   4.843  35.918  12.504
18731W        W82675   7.790  33.544   0.382
18732W        W82676   9.670  41.363  12.550
18733W        W82677   5.346   7.789   1.929
18734W        W82678  28.458  25.597  11.018
18735W        W82679  33.936  44.894  13.498
18736W        W82680  16.111  12.766   3.672
18737W        W82681  38.017  20.175  12.883
18738W        W82682  23.601  25.041   2.738
18739W        W82683  10.340  41.976   1.250
18740W        W82684  21.256  23.589  10.480
18741W        W82685  39.525  40.325  10.967
18742W        W82686   1.382  38.336   0.248
18743W        W82687  10.329  29.547   0.310
18744W        W82688  43.304  43.862   3.148
18745W        W82689  43.867  36.881  11.457
18746W        W82690  11.320   7.205   0.831
18747W        W82691   7.768   3.340  12.426
18748W        W82692   8.835  21.156   1.360
18749W        W82693   7.243  35.387  14.909
18750W        W82694  12.737  40.397  11.573
18751W        W82695  30.595  39.860  12.977
18752W        W82696  23.195  44.458   0.426
18753W        W82697  26.115  19.555   1.882
18754W        W82698   3.275  20.543   1.383
18755W        W82699  18.550  23.556  11.386
18756W        W82700  21.706   5.814  10.482
18757W        W82701   7.366  38.406   4.601
18758W        W82702   4.366  39.031   1.432
18759W        W82703  28.017  16.768   1.247
18760W        W82704  16.791  23.709  12.385
18761W        W82705  37.036  37.516   0.306
18762W        W82706   1.869   0.766  13.040
18763W        W82707  15.177  16.672  10.602
18764W        W82708  34.914  41.982  14.319
18765W        W82709  18.295  10.859  10.947
18766W        W82710   9.752  14.152  10.965
18767W        W82711   4.342   7.896  10.456
18768W        W82712  32.088   3.438   2.365
18769W        W82713  19.229  25.564   1.757
18770W        W82714   6.732   2.837   1.786
18771W        W82715  35.026   2.302   4.750
18772W        W82716  30.974  25.514   1.291
18773W        W82717  44.446  25.588   3.807
18774W        W82718  12.789  21.153   0.919
18775W        W82719  34.020  29.985   3.190
18776W        W82720  40.826  12.255   3.251
18777W        W82721  17.242  25.048   4.184
18778W        W82722   1.424  26.468   4.790
18779W        W82723  21.585  21.089   3.723
18780W        W82724  40.402  25.553   2.259
18781W        W82725  24.183  12.682  13.948
18782W        W82726  24.675  29.429  11.064
18783W        W82727   3.300   4.847  14.939
18784W        W82728  24.551  22.162  14.409
18785W        W82729  43.990  37.486   3.666
18786W        W82730  31.436  14.590   4.690
18787W        W82731  14.251  11.843  10.920
18788W        W82732  34.948  32.596   1.903
18789W        W82733   4.773   7.673   4.669
18790W        W82734  41.334   0.971   0.437
18791W        W82735  12.180  38.008  12.476
18792W        W82736   9.173  30.099   5.600
18793W        W82737   8.391  23.171   4.733
18794W        W82738  20.033  24.228   2.897
18795W        W82739  10.361  18.153   3.203
18796W        W82740  16.673  39.008  11.468
18797W        W82741  44.820  18.720  13.351
18798W        W82742  25.568  38.877   0.797
18799W        W82743  22.561  40.364  14.976
18800W        W82744  18.103   9.747  10.638
18801W        W82745   1.319  24.075   3.258
18802W        W82746  25.011   1.282   2.701
18803W        W82747  37.079  22.157   0.812
18804W        W82748   6.738   7.896  14.862
18805W        W82749   9.211   4.891  11.934
18806W        W82750  39.997   3.343  12.060
18807W        W82751  14.213  42.987  12.012
18808W        W82752  23.539   8.804   0.278
18809W        W82753  18.126  10.796  13.799
18810W        W82754  22.687   4.720   4.168
18811W        W82755  27.034  40.819   3.263
18812W        W82756   5.889  11.650  14.405
18813W        W82757  34.944  31.531  12.871
18814W        W82758  33.958  23.048  10.571
18815W        W82759  44.822  36.494  12.447
18816W        W82760  19.060   3.932   4.168
18817W        W82761  30.954  26.104  11.096
18818W        W82762  33.913  29.977   3.710
18819W        W82763  38.494  41.927   4.597
18820W        W82764  37.869  16.788   2.672
18821W        W82765  32.037  44.468   4.673
18822W        W82766  13.824  11.624  12.526
18823W        W82767  15.815  34.868   9.580
18824W        W82768  15.702  28.063  13.051
18825W        W82769  27.002  11.361  14.915
18826W        W82770  38.529   9.252   0.243
18827W        W82771  10.286  20.121  13.870
18828W        W82772  38.525  30.438   1.331
18829W        W82773  44.386  10.366   0.909
18830W        W82774  15.787   2.883  10.140
18831W        W82775  42.924  39.375   4.742
18832W        W82776  15.603  31.090   3.762
18833W        W82777  38.370  44.974   1.859
18834W        W82778  32.990  39.326   2.394
18835W        W82779  32.606  32.580  10.577
18836W        W82780  29.659  21.587   1.810
18837W        W82781  38.898  39.888  13.986
18838W        W82782  17.063  12.753  10.106
18839W        W82783  41.459  37.040  11.098
18840W        W82784  19.270  25.008  11.405
18841W        W82785  19.726   1.804   0.809
18842W        W82786  13.655   4.795   1.327
18843W        W82787  42.887  25.005   3.194
18844W        W82788  22.685  38.411   3.822
18845W        W82789  22.180  20.749   4.736
18846W        W82790  11.776  38.540  12.403
18847W        W82791  32.947  34.527   2.206
18848W        W82792  15.810   5.883   3.718
18849W        W82793  14.622  31.134   0.731
18850W        W82794  31.906  15.201   4.739
18851W        W82795  24.037  24.985  13.377
18852W        W82796  21.512  10.157  13.796
18853W        W82797  18.188   6.886  12.084
18854W        W82798  31.615   6.345   0.733
18855W        W82799  18.098  42.889   3.856
18856W        W82800   7.788  31.567  10.998
18857W        W82801  10.223  37.882   2.202
18858W        W82802  12.138   7.789   1.792
18859W        W82803  31.908   4.284  11.554
18860W        W82804   2.740  37.433  13.375
18861W        W82805   2.885  25.164   0.928
18862W        W82806  11.334  25.974  10.479
18863W        W82807  18.091  42.958   4.170
18864W        W82808  31.501  23.723  12.006
18865W        W82809  36.996   3.343   4.606
18866W        W82810  29.095  10.845  13.846
18867W        W82811   6.761  10.211   4.750
18868W        W82812   0.345  35.453   3.164
18869W        W82813  38.068  25.213   0.886
18870W        W82814  20.765  10.222  14.910
18871W        W82815   4.860  13.316  11.061
18872W        W82816  22.600  17.798   1.354
18873W        W82817  40.340  43.956   1.769
18874W        W82818   9.801  24.107  10.536
18875W        W82819   1.267  35.363  11.959
18876W        W82820  41.441   5.904  10.614
18877W        W82821   9.364   9.289  12.875
18878W        W82822  35.060  26.990   1.781
18879W        W82823  26.036   8.163  10.510
18880W        W82824  43.971  11.732   4.198
18881W        W82825  14.280  21.519   1.294
18882W        W82826  34.495  36.370   4.677
18883W        W82827   0.913  21.591   3.743
18884W        W82828  30.464  31.080   4.660
18885W        W82829   2.940   7.821   3.351
18886W        W82830  20.747   6.855  14.894
18887W        W82831  28.615  21.192   4.778
18888W        W82832  18.296  38.875   2.843
18889W        W82833  32.440  15.232  10.557
18890W        W82834  10.660  10.688  12.396
18891W        W82835  25.610   2.248  10.448
18892W        W82836  30.062   2.766  10.519
18893W        W82837  11.303   8.726  11.427
18894W        W82838   4.928  29.632   1.935
18895W        W82839  24.119   6.272   1.366
18896W        W82840  43.402   4.923  12.987
18897W        W82841  36.428  36.566   4.349
18898W        W82842  43.840  29.155   0.751
18899W        W82843  43.489  28.148   2.276
18900W        W82844  31.110  27.566   1.375
18901W        W82845  35.492  22.102   0.783
18902W        W82846  21.234  43.404   4.126
18903W        W82847  23.065  22.712  11.570
18904W        W82848  38.508   9.711  14.031
18905W        W82849  32.565  38.500  14.966
18906W        W82850   3.724  10.642  14.867
18907W        W82851  29.130  35.544  14.951
18908W        W82852  20.048  41.434  11.500
18909W        W82853  19.629  40.051  13.945
18910W        W82854  19.668  42.822  10.541
18911W        W82855   0.450  28.024   4.712
18912W        W82856  23.199  29.470   3.282
18913W        W82857  41.929  22.189   3.149
18914W        W82858  31.527   8.321  13.835
18915W        W82859   1.428  18.183  13.429
18916W        W82860  25.482  39.818  10.421
18917W        W82861  24.992  16.798  12.842
18918W        W82862   5.822  44.347   0.449
18919W        W82863   5.786   9.700   3.769
18920W        W82864   1.271  11.164   0.918
18921W        W82865  35.589   8.301   3.313
18922W        W82866  30.971  39.869   9.514
18923W        W82867  25.146  13.740   3.866
18924W        W82868  12.735   4.809   0.305
18925W        W82869   0.787  42.427  11.994
18926W        W82870  28.647  30.484  14.315
18927W        W82871  10.678  18.073   3.301
18928W        W82872  32.027  10.197  11.122
18929W        W82873  33.899   4.723   1.367
18930W        W82874   7.226  30.553  14.761
18931W        W82875  34.089   1.968  12.094
18932W        W82876  35.542  21.539  10.908
18933W        W82877   9.220  30.095  13.345
18934W        W82878  43.016   1.402  12.386
18935W        W82879  18.128  42.820   0.392
18936W        W82880  24.704   0.794   0.928
18937W        W82881  11.149  43.339   1.704
18938W        W82882  29.082  37.422   2.844
18939W        W82883  29.666  21.618  11.004
18940W        W82884   3.317  15.320   2.217
18941W        W82885  40.879  44.504   3.823
18942W        W82886   1.263  25.214   0.356
18943W        W82887  22.550  13.286  13.474
18944W        W82888  20.665  25.573  14.407
18945W        W82889  37.961  40.985  14.892
18946W        W82890  43.501   5.849   4.200
18947W        W82891  21.532  30.579   2.336
18948W        W82892   0.895  43.986  13.022
18949W        W82893  12.360  10.163  11.450
18950W        W82894   9.648  18.251  11.401
18951W        W82895   7.363  32.941   0.294
18952W        W82896  20.073  15.194   1.846
18953W        W82897  14.698  18.749  11.033
18954W        W82898   6.785   3.759   4.163
18955W        W82899  25.057  20.660   3.738
18956W        W82900  15.261   2.733  10.960
18957W        W82901  44.907   1.963  13.370
18958W        W82902  24.576  32.592   1.864
18959W        W82903  30.036  42.889  12.096
18960W        W82904   3.371  36.035   4.125
18961W        W82905  23.501   1.836   0.967
18962W        W82906   7.785   9.294   4.817
18963W        W82907  35.477  28.443  14.847
18964W        W82908   6.767  40.397  11.948
18965W        W82909  42.936   3.443   2.230
18966W        W82910  13.845  24.073  13.448
18967W        W82911  42.988  36.033   2.304
18968W        W82912   9.853  38.914  13.058
18969W        W82913  18.128  41.485   4.285
18970W        W82914  13.610  24.591  12.855
18971W        W82915  32.056  38.328  14.814
18972W        W82916  42.973  21.179  13.925
18973W        W82917  43.912  20.571  12.360
18974W        W82918  41.004  39.995  13.962
18975W        W82919  38.496   1.963   4.673
18976W        W82920  21.737  13.761   0.463
18977W        W82921   6.288  28.046  14.516
18978W        W82922   0.313   5.797  11.994
18979W        W82923   2.440   3.900  11.503
18980W        W82924  32.958  18.225  14.460
18981W        W82925  20.580  19.741   2.669
18982W        W82926  31.034  24.638  12.551
18983W        W82927  20.574   9.376  13.043
18984W        W82928  22.533  33.610  12.388
18985W        W82929   3.400  35.035  12.499
18986W        W82930  34.575  21.553   3.355
18987W        W82931  19.216  21.700  13.319
18988W        W82932  15.620  28.582  14.482
18989W        W82933   1.255  32.933  13.350
18990W        W82934  31.459   6.293  10.999
18991W        W82935   0.255  22.233   1.351
18992W        W82936  17.581   3.391  12.526
18993W        W82937  41.402  24.113  12.470
18994W        W82938  19.648   7.840   0.871
18995W        W82939  11.661  10.691   2.771
18996W        W82940  24.161   5.245   4.319
18997W        W82941  11.291  17.612   3.639
18998W        W82942   9.246   1.853  12.038
18999W        W82943  15.633  34.521  11.897
19000W        W82944  39.987  19.584  13.989
19001W        W82945  32.136  40.508   3.235
19002W        W82946  24.203  14.108  12.039
19003W        W82947  14.791  11.291  13.330
19004W        W82948   2.254  42.889   0.396
19005W        W82949   9.385  22.082  13.458
19006W        W82950   6.184  19.278  14.965
19007W        W82951  26.656   6.231  10.408
19008W        W82952  11.346  12.715  10.974
19009W        W82953  12.133  29.999   3.378
19010W        W82954  33.387  29.071   3.740
19011W        W82955   9.351  36.558  11.488
19012W        W82956  29.176   5.699   0.888
19013W        W82957  29.603  39.346  13.523
19014W        W82958   1.263  16.179   0.825
19015W        W82959   6.764   5.227  12.830
19016W        W82960  20.219  29.622  11.544
19017W        W82961  18.693  16.700  10.905
19018W        W82962  41.320  30.414   0.870
19019W        W82963   5.423  18.107  14.477
19020W        W82964   8.699  26.987  11.887
19021W        W82965  41.984  34.387   0.824
19022W        W82966  42.489  32.007  12.003
19023W        W82967  43.839  22.127  12.081
19024W        W82968  35.393  37.832   2.746
19025W        W82969  19.612  24.614   2.713
19026W        W82970  24.636  12.696   2.704
19027W        W82971  41.391   2.301   2.902
19028W        W82972  25.190  16.225   0.413
19029W        W82973   9.379   0.899   4.256
19030W        W82974  23.510  28.947  14.493
19031W        W82975  38.941  18.063   3.209
19032W        W82976  19.701  32.569   0.401
19033W        W82977  27.507  35.905  11.481
19034W        W82978  33.617  11.742  13.372
19035W        W82979   1.973   8.894   3.179
19036W        W82980   3.756  25.163   1.271
19037W        W82981  26.551  32.504  12.034
19038W        W82982  13.284  12.228   3.177
19039W        W82983   1.971  10.263   5.243
19040W        W82984  13.285  42.803  11.904
19041W        W82985  32.558  18.668  14.920
19042W        W82986  41.411  17.238  14.312
19043W        W82987  44.472  19.077  14.937
19044W        W82988  11.355  22.027   0.926
19045W        W82989   7.846  14.809   3.679
19046W        W82990  38.943  24.004   1.696
19047W        W82991   3.344  25.110   1.272
19048W        W82992  26.650  21.545   3.253
19049W        W82993   5.233  15.217   0.398
19050W        W82994   0.874  33.997   2.264
19051W        W82995  24.691  10.844  10.951
19052W        W82996  14.731  31.073  10.618
19053W        W82997  13.344  14.830   0.910
19054W        W82998  21.550   6.782  10.545
19055W        W82999  22.151  27.596  10.537
19056W        W83000  18.575  33.475   0.403
19057W        W83001  32.405  33.022  12.468
19058W        W83002  32.920   0.377   1.280
19059W        W83003  34.011  22.723  14.447
19060W        W83004  13.309   8.828  10.107
19061W        W83005  20.735  31.119  11.075
19062W        W83006  30.958  38.000   2.224
19063W        W83007   0.390  12.273  12.860
19064W        W83008  21.552  42.353   4.201
19065W        W83009  18.634   9.330   0.826
19066W        W83010   4.391  17.672   4.279
19067W        W83011   2.367  44.334  11.030
19068W        W83012  35.920  16.238  13.378
19069W        W83013  35.920  29.113  11.574
19070W        W83014   1.354   6.349   4.132
19071W        W83015   9.808   6.731   4.135
19072W        W83016  30.996  21.622   0.259
19073W        W83017  13.291  24.512   2.226
19074W        W83018  28.527  44.775   3.387
19075W        W83019  22.691   1.901  13.994
19076W        W83020  41.474   4.939   3.231
19077W        W83021  11.154   8.727  14.344
19078W        W83022   8.662   3.873   3.308
19079W        W83023  20.620  19.171  11.089
19080W        W83024  17.086  14.668  10.931
19081W        W83025  25.076  28.983  10.541
19082W        W83026  33.512   1.464  10.427
19083W        W83027  43.307  38.015  14.878
19084W        W83028  28.959  20.621  11.947
19085W        W83029  29.494  42.975   1.268
19086W        W83030   3.747   8.678  14.781
19087W        W83031  32.108  29.036   4.614
19088W        W83032  15.099  31.949   5.613
19089W        W83033  32.990  40.372   2.217
19090W        W83034  26.037  24.198   0.786
19091W        W83035  34.522  33.093   2.820
19092W        W83036   7.853   0.334  14.434
19093W        W83037  44.324  36.931   3.849
19094W        W83038  19.534  10.297  10.460
19095W        W83039   2.388  20.710  14.412
19096W        W83040  17.283   6.271  12.378
19097W        W83041  33.497  29.059   1.739
19098W        W83042   5.419   8.382  11.910
19099W        W83043  29.921  23.656  12.877
19100W        W83044  27.456  31.525   4.173
19101W        W83045  23.568  44.926   0.330
19102W        W83046   0.425   5.323   2.841
19103W        W83047  21.742  44.369   9.947
19104W        W83048  18.546  39.927   4.697
19105W        W83049  42.880  14.728  12.883
19106W        W83050  18.268  35.437   2.377
19107W        W83051   8.734  26.656   4.162
19108W        W83052  43.410  24.540  13.402
19109W        W83053  13.670  25.086   1.327
19110W        W83054  29.545   0.334   4.250
19111W        W83055  33.426  25.020  13.010
19112W        W83056  34.883  25.617  13.984
19113W        W83057  36.909   6.210  11.921
19114W        W83058  17.230  32.509  10.952
19115W        W83059  37.549   4.717   1.926
19116W        W83060  35.037  44.323  10.419
19117W        W83061  27.556  17.069   1.843
19118W        W83062  41.507  19.542  11.546
19119W        W83063  16.073  43.422   0.911
19120W        W83064   1.395  37.532  14.976
19121W        W83065  27.575  36.389  12.857
19122W        W83066  10.845  17.590  12.067
19123W        W83067  35.513  35.527   3.660
19124W        W83068  43.439  13.316   3.848
19125W        W83069   7.733  44.392   5.319
19126W        W83070  11.853  16.661   2.295
19127W        W83071   9.223   1.404   4.327
19128W        W83072  21.200  26.624   1.283
19129W        W83073  22.635  29.588  10.090
19130W        W83074   4.294  44.974   3.230
19131W        W83075   3.392   1.739  11.980
19132W        W83076  30.999  26.592   4.747
19133W        W83077   1.874   7.827  14.857
19134W        W83078   3.753  37.941  12.846
19135W        W83079  16.206  23.654   2.725
19136W        W83080  35.511  43.788   1.357
19137W        W83081  32.559  30.431  12.364
19138W        W83082  31.982  30.638  13.330
19139W        W83083   3.725  34.042   2.767
19140W        W83084  38.336  43.458   1.884
19141W        W83085   3.951   1.343   0.421
19142W        W83086  38.391   2.359   3.814
19143W        W83087  40.410  15.221   1.266
19144W        W83088   6.396  18.153  13.423
19145W        W83089   9.684  40.877  10.542
19146W        W83090  11.369  35.538  13.815
19147W        W83091  22.129  11.629   0.304
19148W        W83092  11.275  26.542  13.334
19149W        W83093  28.564  34.556  10.985
19150W        W83094  29.944  24.657   0.781
19151W        W83095   8.705  38.039   3.186
19152W        W83096  33.461  42.482  13.018
19153W        W83097  42.961  34.533   2.883
19154W        W83098  17.727  38.428  13.931
19155W        W83099  12.349  43.438   1.388
19156W        W83100   4.821  27.164  13.418
19157W        W83101  22.076  11.146   2.802
19158W        W83102  16.244   4.866  10.606
19159W        W83103  34.517   7.355   1.364
19160W        W83104  39.352  33.577  11.461
19161W        W83105   6.272  30.648  14.876
19162W        W83106  11.627  22.052  12.918
19163W        W83107  41.533  40.953  13.857
19164W        W83108  27.507  14.643   0.469
19165W        W83109  15.135  19.119   1.834
19166W        W83110  20.740   0.859  14.782
19167W        W83111   3.339  39.534   1.702
19168W        W83112  35.955  24.145   2.388
19169W        W83113   7.336  21.529  13.396
19170W        W83114  12.763   4.273  14.833
19171W        W83115  40.914  26.073  12.942
19172W        W83116   2.466  12.713  10.454
19173W        W83117   5.379  41.524   3.770
19174W        W83118  27.126  19.222   3.223
19175W        W83119  42.510  13.309   1.752
19176W        W83120  10.373  15.158  13.940
19177W        W83121  35.387  35.859   2.874
19178W        W83122  28.044  10.660   1.721
19179W        W83123   2.734  37.349  10.929
19180W        W83124  17.307  31.957   3.267
19181W        W83125  15.810  17.722   0.442
19182W        W83126  43.322   4.768   3.658
19183W        W83127   0.750  41.361   3.735
19184W        W83128  15.786  43.779  12.470
19185W        W83129   0.285  28.556  12.399
19186W        W83130  36.564  31.914  14.945
19187W        W83131   3.389   3.796  11.930
19188W        W83132  43.828   5.311  14.351
19189W        W83133  20.067  39.336   2.353
19190W        W83134  28.099  17.067   2.771
19191W        W83135  28.454   2.377  13.495
19192W        W83136  15.782  27.134   4.241
19193W        W83137  30.017   6.229   0.747
19194W        W83138  30.059  41.879  13.866
19195W        W83139  21.233  18.691   0.798
19196W        W83140  25.658  44.807  13.364
19197W        W83141  32.421   2.284  14.980
19198W        W83142  30.493  27.116   2.185
19199W        W83143   0.795  13.183   0.421
19200W        W83144  20.053  18.148   0.278
19201W        W83145  22.034  20.212   4.288
19202W        W83146  29.111  40.361  13.529
19203W        W83147  16.314  41.037   3.287
19204W        W83148  44.410   5.892   2.811
19205W        W83149  32.471  42.822  13.415
19206W        W83150  11.840  40.024  11.023
19207W        W83151  27.176   0.331  14.905
19208W        W83152   5.195  29.617  10.433
19209W        W83153  28.041  26.986   2.348
19210W        W83154  10.212  35.950   4.785
19211W        W83155  23.734  25.709  13.959
19212W        W83156  37.991  23.228  14.957
19213W        W83157  32.036   4.781   4.636
19214W        W83158  26.629  30.076  13.821
19215W        W83159  43.019  17.251   3.826
19216W        W83160  40.830  39.057   3.236
19217W        W83161  34.594  10.382  14.927
19218W        W83162  36.914  17.141   3.177
19219W        W83163  42.910  37.938   0.865
19220W        W83164  17.643  21.180  14.906
19221W        W83165   3.848  16.101   0.828
19222W        W83166  17.772  35.853  12.899
19223W        W83167  13.835  27.519  11.974
19224W        W83168  29.079  43.371   3.334
19225W        W83169  14.131  43.352   3.351
19226W        W83170  30.564   5.279  12.432
19227W        W83171   9.316   7.351  13.867
19228W        W83172   8.725  15.300   1.904
19229W        W83173  30.093   5.893   2.373
19230W        W83174   7.318  21.676  13.060
19231W        W83175  22.514  30.556   4.745
19232W        W83176   8.310  27.514   2.230
19233W        W83177  16.162  32.460   0.298
19234W        W83178  26.116  30.036   3.331
19235W        W83179  37.995  12.158   4.156
19236W        W83180  31.542  15.667  11.033
19237W        W83181  27.521  10.805   2.691
19238W        W83182   7.795  23.077  13.858
19239W        W83183  36.976  23.712  11.471
19240W        W83184  12.624  34.557  13.364
19241W        W83185  32.496   2.886  10.421
19242W        W83186  15.197  42.455   3.786
19243W        W83187  37.567   7.351   0.285
19244W        W83188  35.852  22.546   0.909
19245W        W83189   2.295   6.395   2.357
19246W        W83190   1.937  15.668  10.593
19247W        W83191  20.589  35.043   2.674
19248W        W83192  32.992   8.355   4.683
19249W        W83193  32.024  10.354  13.871
19250W        W83194   7.384  34.592  12.541
19251W        W83195  21.031  22.016   5.113
19252W        W83196  24.177  30.466  12.362
19253W        W83197  25.184   5.800  13.339
19254W        W83198   0.922   3.893   3.793
19255W        W83199  37.358  41.854  11.482
19256W        W83200   6.858  25.034   2.798
19257W        W83201   0.445  42.007  12.366
19258W        W83202  35.436   4.902  12.897
19259W        W83203  15.796  42.483  11.523
19260W        W83204   6.842  29.956  11.881
19261W        W83205   3.776  36.548  12.433
19262W        W83206  31.939  30.053  11.908
19263W        W83207   0.266  18.614  12.542
19264W        W83208  32.115  39.992   1.723
19265W        W83209  31.536  24.016  13.397
19266W        W83210  35.910   7.343  11.948
19267W        W83211  27.641  15.139  12.929
19268W        W83212   5.777   6.913   3.671
19269W        W83213  10.312  43.321  13.801
19270W        W83214  38.957   7.217   4.723
19271W        W83215  42.378  10.683  12.058
19272W        W83216  13.640  32.043  10.058
19273W        W83217   7.750  43.500   0.281
19274W        W83218  32.548  17.675  12.565
19275W        W83219   1.381  44.281   3.156
19276W        W83220  23.555  20.660  13.952
19277W        W83221   8.725  35.555   2.372
19278W        W83222   3.845  38.983  13.376
19279W        W83223  31.540  25.675  11.891
19280W        W83224  27.979  13.120   4.251
19281W        W83225   0.795  10.848  14.479
19282W        W83226  10.365  25.166  10.430
19283W        W83227  12.300  30.622  12.419
19284W        W83228  13.829  37.056   3.350
19285W        W83229  39.013  39.442   3.636
19286W        W83230  15.816  26.207   3.214
19287W        W83231  27.031   0.858  14.486
19288W        W83232  26.083   4.303  12.083
19289W        W83233  17.561  22.613   4.192
19290W        W83234  29.933  11.364   0.886
19291W        W83235  34.056  17.658  10.453
19292W        W83236  11.696  22.554  13.370
19293W        W83237  29.443  43.413   0.419
19294W        W83238  34.979  30.583   4.636
19295W        W83239  36.530  21.050   4.299
19296W        W83240  24.975  16.641  14.480
19297W        W83241  38.074  33.073   1.788
19298W        W83242  22.053  32.426   3.799
19299W        W83243  24.129  39.511  13.445
19300W        W83244  29.617  14.683   2.319
19301W        W83245  39.353  17.579   3.253
19302W        W83246  41.478  33.887   4.329
19303W        W83247  41.793  25.651   3.752
19304W        W83248  39.050  12.247   3.193
19305W        W83249   1.923  26.474   2.664
19306W        W83250  11.330  14.761   3.774
19307W        W83251  31.023  40.875  10.159
19308W        W83252  19.638  43.511  10.980
19309W        W83253  25.613  21.736   4.737
19310W        W83254  42.979   1.793   0.272
19311W        W83255   1.776  42.930   4.163
19312W        W83256  15.779   0.420   9.568
19313W        W83257  21.095  25.530   5.127
19314W        W83258  37.045   6.850  13.792
19315W        W83259   7.322  36.027   3.802
19316W        W83260  28.653  14.649   1.857
19317W        W83261  39.519  28.473  14.776
19318W        W83262  42.510   3.292  10.936
19319W        W83263  14.756  23.087  11.444
19320W        W83264  27.123   8.242   0.853
19321W        W83265  25.605  39.322  11.567
19322W        W83266  40.438  33.492   3.679
19323W        W83267  43.473   3.827  11.006
19324W        W83268  38.418  13.683   3.370
19325W        W83269   0.851   5.708  12.082
19326W        W83270   6.428  10.233  12.002
19327W        W83271  38.438  21.180   4.749
19328W        W83272  15.142  28.998   0.284
19329W        W83273   5.917  44.797  13.461
19330W        W83274  29.996  29.987   0.451
19331W        W83275  40.829   9.297  13.063
19332W        W83276  10.825   2.360   4.825
19333W        W83277  25.550  11.770  14.284
19334W        W83278  31.938  17.700  11.503
19335W        W83279  44.282  38.356   1.334
19336W        W83280  25.202  37.926  11.985
19337W        W83281   3.294  29.083  12.364
19338W        W83282  24.157  28.581  12.949
19339W        W83283  25.997  21.197  13.394
19340W        W83284  38.051  35.075  14.871
19341W        W83285  31.521  34.984  13.467
19342W        W83286   4.794  37.838  12.057
19343W        W83287  27.109  14.615  12.898
19344W        W83288  44.496   5.194   0.427
19345W        W83289  33.996  26.676  10.146
19346W        W83290   9.769   4.804  10.612
19347W        W83291   6.202  34.964  10.892
19348W        W83292  11.308  31.481  10.527
19349W        W83293  27.020  37.898   0.455
19350W        W83294  27.454  41.895  14.394
19351W        W83295  35.426  23.214  11.470
19352W        W83296  13.271   9.684   1.755
19353W        W83297  28.522  16.643   5.083
19354W        W83298   8.319   5.848   1.318
19355W        W83299  25.486  15.701  12.885
19356W        W83300  29.971  22.664   1.324
19357W        W83301  28.962  44.385  13.822
19358W        W83302  22.011  21.095  13.973
19359W        W83303  11.758  13.131  11.543
19360W        W83304   9.365   9.256  14.330
19361W        W83305  38.832  16.656  11.378
19362W        W83306   2.242  18.230   4.288
19363W        W83307  34.039  44.917  11.954
19364W        W83308  17.566  12.168   2.756
19365W        W83309  19.763  20.115  11.504
19366W        W83310   0.394  15.629  13.416
19367W        W83311  27.563  18.088  10.983
19368W        W83312   6.226  12.802   5.120
19369W        W83313  40.012  28.030   1.352
19370W        W83314  29.639  38.027   3.860
19371W        W83315   4.936  28.461   1.332
19372W        W83316  31.634  39.977   3.300
19373W        W83317  21.043   7.849  11.112
19374W        W83318  32.564  36.850  13.339
19375W        W83319  17.560   7.855  14.904
19376W        W83320  17.769  22.110  14.801
19377W        W83321   6.764  16.740  10.411
19378W        W83322  16.222  40.485  14.929
19379W        W83323   1.874  18.105  11.444
19380W        W83324  38.380  31.973   5.223
19381W        W83325   1.427  29.488   2.304
19382W        W83326   5.725  32.555   0.787
19383W        W83327   1.846  17.637   1.935
19384W        W83328  14.762   0.776   0.949
19385W        W83329  39.499  15.323   0.462
19386W        W83330  39.503  25.701   2.821
19387W        W83331  36.559  10.647  13.007
19388W        W83332  20.065  33.948  12.903
19389W        W83333  20.076  42.013   0.775
19390W        W83334   2.408  19.103  14.976
19391W        W83335  41.009  29.171   0.745
19392W        W83336  19.256  27.466  11.071
19393W        W83337  30.974   1.453  13.995
19394W        W83338  13.640  14.829  13.479
19395W        W83339  16.643  18.065   0.913
19396W        W83340  26.122  19.058  13.879
19397W        W83341  34.947  28.142   5.254
19398W        W83342  30.146  21.725   1.304
19399W        W83343  33.943  20.263   2.733
19400W        W83344  28.960   2.898  13.484
19401W        W83345  33.557  31.093  14.857
19402W        W83346   1.426   2.345  13.002
19403W        W83347  13.257  28.675   0.337
19404W        W83348  36.573  18.573  14.848
19405W        W83349  17.614   7.346   0.876
19406W        W83350  11.855  22.186   1.831
19407W        W83351  16.742   9.192  11.964
19408W        W83352   8.254  39.843  11.059
19409W        W83353  41.830   8.193   4.233
19410W        W83354  33.406  41.464  10.947
19411W        W83355  32.620   4.840   0.733
19412W        W83356   2.906  30.567  14.834
19413W        W83357   8.732  10.854  12.519
19414W        W83358  33.534  44.762  11.924
19415W        W83359  15.216  25.492  11.860
19416W        W83360  30.530   1.302  13.464
19417W        W83361  19.685  36.909   0.391
19418W        W83362  42.987  28.678  11.607
19419W        W83363   8.897  14.199  12.982
19420W        W83364  38.502   4.388  11.955
19421W        W83365  20.752  39.510  13.442
19422W        W83366  21.077   3.857  13.890
19423W        W83367  18.207  24.113   3.262
19424W        W83368  19.177   7.735   1.799
19425W        W83369   5.870   1.874  11.073
19426W        W83370   7.389  15.298  10.956
19427W        W83371  14.314  43.913  11.495
19428W        W83372  26.493  14.306   1.713
19429W        W83373   4.807  32.485   2.855
19430W        W83374  43.861  24.639   3.639
19431W        W83375  43.860  33.115   1.260
19432W        W83376  31.000   1.912  13.905
19433W        W83377  23.085  35.380  14.822
19434W        W83378  28.004  14.296  12.081
19435W        W83379  40.799   6.849  14.967
19436W        W83380  44.439  32.481  12.408
19437W        W83381  44.768  28.999   3.825
19438W        W83382  22.642   1.320   2.751
19439W        W83383   7.330   3.943  11.986
19440W        W83384   3.336  18.278   0.909
19441W        W83385  37.021   1.406  14.420
19442W        W83386  44.884  39.521  10.896
19443W        W83387  38.867  44.485  10.975
19444W        W83388  19.107  39.412  12.884
19445W        W83389  15.110  35.592  14.926
19446W        W83390   2.381  11.237   2.768
19447W        W83391  17.609  43.347  14.488
19448W        W83392   8.745  19.182   3.147
19449W        W83393   4.281  12.639  11.391
19450W        W83394  42.444  33.033  11.461
19451W        W83395  12.173  41.846  12.033
19452W        W83396   5.324  26.967  12.415
19453W        W83397  42.024  40.400   3.382
19454W        W83398  12.693   6.303   4.839
19455W        W83399   0.755  34.052   2.763
19456W        W83400  22.252  16.223  11.025
19457W        W83401  36.084  12.176   1.735
19458W        W83402   0.865  33.465  14.814
19459W        W83403  26.516  35.359  11.571
19460W        W83404  39.833  26.083  10.529
19461W        W83405  20.655  22.573  14.953
19462W        W83406  27.676  39.491  12.021
19463W        W83407  29.448  35.391  10.487
19464W        W83408   3.949  42.780  14.859
19465W        W83409  38.062  10.302  10.589
19466W        W83410   2.448  27.144  11.924
19467W        W83411  25.149  11.195  14.999
19468W        W83412  25.502  28.047   4.221
19469W        W83413  14.731   8.887  14.935
19470W        W83414   4.406  28.129  11.605
19471W        W83415  13.153  36.969   1.764
19472W        W83416  23.160   9.393   1.347
19473W        W83417  19.270  13.178  13.460
19474W        W83418  31.952  31.066   4.624
19475W        W83419  44.493  18.106  12.024
19476W        W83420  22.054  43.944  12.999
19477W        W83421  21.069  21.184  13.416
19478W        W83422  15.225  16.803  11.028
19479W        W83423  30.527  42.939  14.835
19480W        W83424  42.938   4.424  14.296
19481W        W83425   5.221  25.628  10.949
19482W        W83426  36.557  23.069   3.155
19483W        W83427  23.009  34.517  11.568
19484W        W83428   8.792  37.526   0.424
19485W        W83429  10.277  25.677  10.990
19486W        W83430   9.769   7.714   1.823
19487W        W83431   0.306  15.096   4.228
19488W        W83432  28.138  14.702   0.727
19489W        W83433   0.322  39.057   1.441
19490W        W83434  43.328  23.091   2.871
19491W        W83435  21.231  39.058   4.114
19492W        W83436  33.983  28.616   3.641
19493W        W83437   1.337  24.188  12.890
19494W        W83438  42.966  37.025   4.650
19495W        W83439  23.675  36.919   3.716
19496W        W83440  22.014  36.969  13.382
19497W        W83441   8.802  13.350   2.800
19498W        W83442   1.897  18.162  12.937
19499W        W83443  39.493  22.097   3.653
19500W        W83444  41.297  13.194   4.226
19501W        W83445  27.554  42.851   0.865
19502W        W83446  35.889   0.287   2.309
19503W        W83447   1.835   5.282  14.848
19504W        W83448  19.706  39.985   2.182
19505W        W83449  31.471  21.022  14.374
19506W        W83450  35.974  28.538  13.400
19507W        W83451  31.974  28.042   5.280
19508W        W83452  40.354  18.118  10.506
19509W        W83453  19.045  14.767   4.260
19510W        W83454   5.845  12.641   2.726
19511W        W83455   6.224   4.930  13.800
19512W        W83456  14.695  16.134   2.729
19513W        W83457  15.739  12.193   1.221
19514W        W83458  18.640  29.555   2.252
19515W        W83459  40.369  29.152  14.400
19516W        W83460  36.913  18.115  14.283
19517W        W83461  22.200   1.375   2.313
19518W        W83462   1.971  16.762  12.375
19519W        W83463  27.087  30.123  13.525
19520W        W83464  18.212  21.130  13.464
19521W        W83465  19.211  32.035  10.903
19522W        W83466  25.055  41.969   1.885
19523W        W83467  19.127  34.044   3.769
19524W        W83468  11.238  43.833   3.826
19525W        W83469  12.127  28.507  14.908
19526W        W83470  39.543  32.073   3.657
19527W        W83471  40.824  15.639  11.880
19528W        W83472   4.927  28.588  11.987
19529W        W83473  19.664  38.957  14.835
19530W        W83474  10.364  15.775  11.508
19531W        W83475  37.346  37.077  13.954
19532W        W83476  28.629  43.901  10.509
19533W        W83477  12.119   0.774   0.421
19534W        W83478  43.988  17.105   4.759
19535W        W83479  10.687   9.285   2.788
19536W        W83480  21.112   9.658  14.799
19537W        W83481   0.965  28.936  10.155
19538W        W83482  39.976  21.230  10.031
19539W        W83483  43.017   5.286  12.458
19540W        W83484   6.243  40.039  11.892
19541W        W83485  23.548  13.226  13.001
19542W        W83486   0.831   1.306   2.390
19543W        W83487   7.295  16.285  14.975
19544W        W83488  22.022  31.913  12.493
19545W        W83489  25.055  39.850  11.925
19546W        W83490  25.965  22.217  12.986
19547W        W83491   2.283  30.564   0.847
19548W        W83492  41.433  17.161  12.016
19549W        W83493  26.961  42.842   3.170
19550W        W83494  32.595  12.664   2.697
19551W        W83495  25.483  22.177   3.351
19552W        W83496  12.155   2.914   0.433
19553W        W83497  29.143  34.401  10.490
19554W        W83498  23.619  43.811   1.745
19555W        W83499  41.908  38.400  14.814
19556W        W83500  13.685   5.340   0.359
19557W        W83501  39.063  32.011   0.288
19558W        W83502  20.221   4.240   0.372
19559W        W83503  19.189   2.947   2.808
19560W        W83504  36.359  43.966   3.250
19561W        W83505  21.221  38.457  10.489
19562W        W83506  10.770  22.209  14.966
19563W        W83507   9.714  28.153   3.146
19564W        W83508  42.320  20.758  11.071
19565W        W83509  25.173   2.228   3.740
19566W        W83510   0.318  20.570   1.343
19567W        W83511  40.422  25.538  12.995
19568W        W83512  16.189   1.431  12.460
19569W        W83513  40.324   7.277   4.819
19570W        W83514  22.696  41.494   2.233
19571W        W83515  10.787  17.705  10.585
19572W        W83516  24.636   6.417  11.924
19573W        W83517  23.506  22.717   1.354
19574W        W83518   9.650  11.838  14.492
19575W        W83519  26.990  25.548   0.865
19576W        W83520   9.375  17.565  12.354
19577W        W83521  37.944   0.898   4.168
19578W        W83522  26.528  34.535  14.784
19579W        W83523   8.729  31.115   2.665
19580W        W83524  31.493  40.399   2.416
19581W        W83525  31.569  39.926  14.767
19582W        W83526  11.697   6.367   3.820
19583W        W83527  25.528  33.535   4.340
19584W        W83528   3.806  22.223  14.390
19585W        W83529  11.794   8.827  10.919
19586W        W83530  20.765  40.374  13.312
19587W        W83531  14.282  39.536   0.824
19588W        W83532  38.498   8.733  11.035
19589W        W83533   6.831   3.401   3.323
19590W        W83534   8.712  23.529   3.206
19591W        W83535  44.789   4.724   4.599
19592W        W83536  33.612  29.428  14.437
19593W        W83537  23.039  22.730  13.526
19594W        W83538  18.627  33.619  14.843
19595W        W83539  37.416  33.066  12.063
19596W        W83540  40.979  26.633  13.978
19597W        W83541  32.402  31.933  11.097
19598W        W83542  16.180  44.331   3.769
19599W        W83543  30.003  27.460   0.812
19600W        W83544  29.512  32.097  14.443
19601W        W83545  38.400  14.214   1.340
19602W        W83546   8.260  11.825  11.516
19603W        W83547  37.868   1.475   0.476
19604W        W83548  20.766  31.084  11.903
19605W        W83549   1.783  19.664   3.847
19606W        W83550  10.766   1.821  14.317
19607W        W83551  10.319   4.332  13.310
19608W        W83552  42.864  35.909  11.376
19609W        W83553   0.360   5.409   0.913
19610W        W83554  12.231  28.677  12.519
19611W        W83555   2.728  33.012   0.456
19612W        W83556  23.592  31.403   4.210
19613W        W83557  32.004  33.424  11.501
19614W        W83558  18.122  42.305  10.593
19615W        W83559  34.920  16.271   4.603
19616W        W83560  25.592   6.253  13.805
19617W        W83561   6.856  37.433   4.232
19618W        W83562  27.111  27.645  13.503
19619W        W83563  30.058   9.310   4.149
19620W        W83564  42.436  28.672  12.526
19621W        W83565  33.028  23.544  10.565
19622W        W83566   2.884  18.276  11.948
19623W        W83567   0.901  35.039  13.021
19624W        W83568  17.303  21.716   1.370
19625W        W83569   9.757  19.563  10.618
19626W        W83570  26.577  27.079   1.222
19627W        W83571   1.440  43.509  12.452
19628W        W83572  12.251  20.722  12.926
19629W        W83573   8.226   8.826   4.149
19630W        W83574   1.903   9.842  11.430
19631W        W83575  20.252  35.449   3.863
19632W        W83576  17.618   4.364   3.246
19633W        W83577  34.400  26.086   0.948
19634W        W83578   5.362  43.890  11.887
19635W        W83579  22.149  12.817  11.073
19636W        W83580   8.820  19.669   1.349
19637W        W83581  35.534  14.128  14.315
19638W        W83582  38.026  13.183  14.275
19639W        W83583  39.553  12.249   3.847
19640W        W83584  23.032  12.253   3.708
19641W        W83585   4.899   7.692   4.278
19642W        W83586   0.804   2.753  13.997
19643W        W83587  34.961  44.300  11.980
19644W        W83588  17.653  18.783   2.383
19645W        W83589  13.138  42.321   4.266
19646W        W83590  39.439  11.792   1.801
19647W        W83591   2.869  38.840  14.279
19648W        W83592  25.671  38.917  14.876
19649W        W83593  12.838  33.112  13.332
19650W        W83594  21.720  41.339  10.438
19651W        W83595   0.278  29.166  11.961
19652W        W83596  23.022  19.757  11.525
19653W        W83597   0.483  11.301  14.346
19654W        W83598  43.958  30.647   0.308
19655W        W83599  32.948  43.012   3.173
19656W        W83600  39.899  23.713   0.447
19657W        W83601  18.765   9.353  11.396
19658W        W83602  17.652  18.107   4.632
19659W        W83603  22.638  16.579  14.773
19660W        W83604   4.288  29.000   4.825
19661W        W83605  20.232  44.791   1.757
19662W        W83606   9.183  33.912  12.993
19663W        W83607   4.249  38.481   1.235
19664W        W83608  36.925  29.155  10.526
19665W        W83609  43.303  20.638  14.291
19666W        W83610  29.424  37.562  14.030
19667W        W83611   7.225   8.396   0.322
19668W        W83612  42.381  20.227  14.776
19669W        W83613  15.719   7.806   4.821
19670W        W83614  15.174  30.993   2.189
19671W        W83615  25.561   4.871  11.445
19672W        W83616  19.179   6.422   4.166
19673W        W83617   4.859   2.244  13.841
19674W        W83618  13.138  12.829  12.929
19675W        W83619  16.135  27.623   2.815
19676W        W83620  26.155  28.125   1.292
19677W        W83621   8.830  22.233   0.386
19678W        W83622  20.029  40.508   5.291
19679W        W83623  43.924  11.144   3.168
19680W        W83624  34.405  27.638  14.973
19681W        W83625  30.122   0.821  10.520
19682W        W83626  20.040   4.829   1.819
19683W        W83627  13.143   9.268  13.054
19684W        W83628   5.843  10.290  10.525
19685W        W83629  26.192  29.152   4.817
19686W        W83630  31.076  35.383   0.261
19687W        W83631  25.191  31.020   3.233
19688W        W83632  27.189  40.349   2.824
19689W        W83633  36.034  29.466   3.737
19690W        W83634  34.031  30.450  12.383
19691W        W83635  34.018   0.489  13.316
19692W        W83636  36.474   0.425   2.793
19693W        W83637  17.719  39.522  11.965
19694W        W83638  17.215  35.582   2.283
19695W        W83639  31.473   7.814  14.840
19696W        W83640  12.763   9.198   3.674
19697W        W83641  22.027  12.820   1.780
19698W        W83642  43.291  16.573  14.294
19699W        W83643   0.876  23.178  12.874
19700W        W83644  37.487  29.512  11.999
19701W        W83645  31.516   0.421   4.765
19702W        W83646  30.541  20.039   0.364
19703W        W83647  17.767  18.567   4.230
19704W        W83648  38.430  44.828   0.808
19705W        W83649  28.621  33.446  11.594
19706W        W83650  23.702  18.184  10.561
19707W        W83651   4.723   9.244  13.803
19708W        W83652  40.813  30.074   1.241
19709W        W83653   8.226  43.508   4.724
19710W        W83654  39.379  25.002  13.827
19711W        W83655  13.763  42.008  12.559
19712W        W83656  27.635   3.217   2.305
19713W        W83657   7.330   2.376   2.296
19714W        W83658   9.223  32.039  13.536
19715W        W83659  38.037  28.100  10.426
19716W        W83660  16.755  18.241  13.966
19717W        W83661  36.859  27.459   4.755
19718W        W83662  20.164  20.554   2.345
19719W        W83663   7.759   5.199   2.179
19720W        W83664  11.744   8.841   3.187
19721W        W83665  11.204  22.696  14.368
19722W        W83666   8.305   7.666   4.334
19723W        W83667  31.464   2.776   3.854
19724W        W83668   1.292  14.146   3.711
19725W        W83669  31.538   3.263  11.398
19726W        W83670  17.200  11.302   3.840
19727W        W83671  27.107  28.562   1.921
19728W        W83672  38.505  27.606   0.811
19729W        W83673  27.524  12.620   1.852
19730W        W83674  27.618  41.419   2.300
19731W        W83675   8.721  35.556  11.515
19732W        W83676  38.515  20.656  11.948
19733W        W83677  13.109  35.098  12.434
19734W        W83678  34.044  26.662  14.441
19735W        W83679   4.331  26.686  11.471
19736W        W83680  13.775  24.719  10.951
19737W        W83681  10.834  33.081  14.422
19738W        W83682  33.383  10.763  12.974
19739W        W83683  44.436   5.782   4.661
19740W        W83684  43.018   6.324   2.366
19741W        W83685   7.181  29.928   0.356
19742W        W83686  40.980   8.829  14.913
19743W        W83687  30.017   8.710   0.297
19744W        W83688   3.812  23.227   2.380
19745W        W83689  41.867  23.591  12.406
19746W        W83690   5.301   2.335  13.402
19747W        W83691   6.414  28.978   1.694
19748W        W83692  35.007  28.125  12.488
19749W        W83693   2.858  35.513  10.992
19750W        W83694   9.701  33.468   2.826
19751W        W83695  37.084  19.090   3.830
19752W        W83696   5.876  29.519  14.812
19753W        W83697  16.649  31.025   3.375
19754W        W83698  35.403   7.881   1.776
19755W        W83699  13.809  36.875  14.768
19756W        W83700  36.583  39.025   2.747
19757W        W83701  43.892  40.524   4.681
19758W        W83702  30.048  16.668  10.888
19759W        W83703   1.793  31.467  13.975
19760W        W83704  23.179   8.830  11.507
19761W        W83705  40.047  39.359  13.925
19762W        W83706  18.285  32.522   2.784
19763W        W83707  13.142   4.384  14.494
19764W        W83708  25.061  25.090  14.946
19765W        W83709  23.627   7.322  13.509
19766W        W83710  17.107  20.742   1.261
19767W        W83711   3.926  18.688  11.487
19768W        W83712  25.110  44.782  12.975
19769W        W83713  44.281  30.938  10.529
19770W        W83714  21.237  19.556  11.022
19771W        W83715  23.007  29.018  13.905
19772W        W83716  40.836  20.232  14.377
19773W        W83717  18.087   4.384   0.401
19774W        W83718   4.932  37.353   3.678
19775W        W83719  33.621  44.319  10.446
19776W        W83720  39.334  43.371   2.774
19777W        W83721  34.506  21.163   2.845
19778W        W83722  20.641  34.499  14.439
19779W        W83723   4.242  12.216  14.798
19780W        W83724  27.630   3.221   4.656
19781W        W83725   7.401  32.399   1.704
19782W        W83726  18.138   9.862   0.858
19783W        W83727  42.463  28.026  14.811
19784W        W83728  42.876  44.464  12.488
19785W        W83729   8.871   7.253  10.896
19786W        W83730  21.660  44.305  13.061
19787W        W83731  33.506  14.308   4.789
19788W        W83732   3.912  27.118   0.451
19789W        W83733  28.615  15.738  11.079
19790W        W83734   2.742   0.272   1.357
19791W        W83735  42.351   3.887   0.322
19792W        W83736  21.623  28.647  14.938
19793W        W83737   0.854  32.969  12.431
19794W        W83738  36.052  19.130   4.602
19795W        W83739  29.521   3.878   1.225
19796W        W83740  31.582  35.472  13.022
19797W        W83741   8.278  32.974  11.948
19798W        W83742  17.717  39.440   4.708
19799W        W83743  17.097  18.209  13.531
19800W        W83744  38.920   5.929   0.764
19801W        W83745  38.475  10.841   4.133
19802W        W83746   6.275  33.438   0.383
19803W        W83747  34.374  41.979  10.498
19804W        W83748  29.603  25.130  13.064
19805W        W83749  37.877   2.418   3.714
19806W        W83750  24.147  40.924   0.873
19807W        W83751   1.459  29.510   2.674
19808W        W83752  17.286   2.471   0.483
19809W        W83753  22.186   3.740  13.329
19810W        W83754  14.188  33.023   3.833
19811W        W83755  39.422  29.629   3.329
19812W        W83756   5.719  35.438  10.545
19813W        W83757  20.639  15.790  14.980
19814W        W83758  31.617  30.129  13.333
19815W        W83759  32.448  21.090   3.683
19816W        W83760  26.033  25.203  11.560
19817W        W83761  20.143  35.081  14.352
19818W        W83762  24.031  35.412   1.773
19819W        W83763  44.896  23.572   4.277
19820W        W83764  25.525  14.692   4.690
19821W        W83765  42.906  20.224  10.617
19822W        W83766  20.193  35.404   0.854
19823W        W83767  35.922  42.339   0.429
19824W        W83768  33.070  36.593   4.338
19825W        W83769  13.693  12.795   0.348
19826W        W83770   5.349  31.503   3.749
19827W        W83771  16.275  39.955   0.847
19828W        W83772  41.982  31.486  12.875
19829W        W83773   4.821  18.142  14.362
19830W        W83774  10.764  39.864  13.536
19831W        W83775   2.728  30.927  12.085
19832W        W83776  36.849  25.631   3.217
19833W        W83777  28.961   3.873  13.517
19834W        W83778  13.303  37.457   0.416
19835W        W83779  30.510  38.562  14.023
19836W        W83780  23.104   8.318  11.988
19837W        W83781   7.309   1.399  10.507
19838W        W83782  44.805  36.382   4.751
19839W        W83783  35.463  33.390   1.284
19840W        W83784  30.989  11.757   4.290
19841W        W83785  10.796  11.751   1.840
19842W        W83786  28.481   4.853  10.135
19843W        W83787  27.167   8.714  14.383
19844W        W83788  12.141  10.352   1.717
19845W        W83789  30.909  26.586   0.424
19846W        W83790   0.882   9.214  14.822
19847W        W83791   7.313  29.606  12.372
19848W        W83792   8.731  42.788  13.898
19849W        W83793   9.695   4.806   2.263
19850W        W83794   3.286  30.986  11.428
19851W        W83795   6.423  42.292   1.371
19852W        W83796  41.393  13.343  14.955
19853W        W83797  39.921   9.870  14.759
19854W        W83798   6.694  41.317  12.475
19855W        W83799  10.218   3.278  12.536
19856W        W83800  18.707  34.008   1.767
19857W        W83801  13.747   8.691   0.424
19858W        W83802  22.597  19.082  14.506
19859W        W83803  12.641  26.589   3.704
19860W        W83804  33.999  40.843  11.027
19861W        W83805  38.459   9.192  14.858
19862W        W83806  31.643  43.322   2.661
19863W        W83807  26.611  34.384   4.719
19864W        W83808  42.972  18.630  13.844
19865W        W83809  25.570  20.044  14.849
19866W        W83810  35.585  27.988   2.665
19867W        W83811  10.699  12.189   2.714
19868W        W83812  22.025  10.240  13.500
19869W        W83813  14.790  11.253  11.491
19870W        W83814  19.655  10.795   4.283
19871W        W83815   0.278  10.761  10.524
19872W        W83816  38.898  22.526  14.000
19873W        W83817   0.842  13.249  12.369
19874W        W83818  22.061  42.522   4.207
19875W        W83819  31.144  19.611   3.217
19876W        W83820   7.694  35.984   2.217
19877W        W83821  42.863   0.900  14.490
19878W        W83822  17.756  20.590  14.290
19879W        W83823  18.127  33.053   0.732
19880W        W83824  43.010   3.316   1.810
19881W        W83825  33.953  41.498  11.864
19882W        W83826  23.697   1.888  14.963
19883W        W83827   5.854  33.414   3.746
19884W        W83828  13.297  40.908  10.589
19885W        W83829  29.052  16.316  13.357
19886W        W83830  43.834  27.457   0.951
19887W        W83831  40.492  19.619   9.988
19888W        W83832  16.808   7.175   3.703
19889W        W83833   8.346  32.936   2.395
19890W        W83834  33.014  43.777  12.081
19891W        W83835  10.374   2.772  14.883
19892W        W83836  33.125   5.688  12.827
19893W        W83837  11.192  20.578  10.968
19894W        W83838  24.013  17.064   0.919
19895W        W83839  21.678   4.765  11.373
19896W        W83840   5.878  26.096   4.167
19897W        W83841  34.948  25.694   3.817
19898W        W83842  13.218  10.787  14.431
19899W        W83843  26.975  39.369   2.311
19900W        W83844   1.248   4.273  13.952
19901W        W83845  24.537  12.213  11.897
19902W        W83846  24.121  24.093  12.853
19903W        W83847   5.218  32.989  13.924
19904W        W83848  15.623  31.097  11.076
19905W        W83849  37.900  30.542  13.908
19906W        W83850  15.673  10.347  13.359
19907W        W83851   4.372  20.072  11.539
19908W        W83852  43.782  23.019   1.285
19909W        W83853  38.553  31.616   2.289
19910W        W83854  41.328  33.926  10.624
19911W        W83855  16.665  13.803  14.485
19912W        W83856  43.293  13.106   0.408
19913W        W83857  43.405  29.450  14.291
19914W        W83858  32.936  16.789  11.058
19915W        W83859  14.800   8.329   4.817
19916W        W83860   6.213  23.707  12.536
19917W        W83861  30.642  12.207  11.562
19918W        W83862  26.675   8.853   4.289
19919W        W83863   8.706   6.395   1.729
19920W        W83864  19.051  30.521   1.448
19921W        W83865  33.413  41.814   2.248
19922W        W83866  26.142  34.890   2.402
19923W        W83867  21.093   1.356  13.309
19924W        W83868  24.640   1.355  10.907
19925W        W83869  29.511  35.883  12.865
19926W        W83870  33.592  11.361   0.792
19927W        W83871  36.896   3.804   1.327
19928W        W83872   8.755  17.768   9.973
19929W        W83873  28.154   0.909  12.395
19930W        W83874  29.075  42.832   3.699
19931W        W83875   5.273  18.595  14.489
19932W        W83876  18.142  18.157  12.509
19933W        W83877  26.176  23.572  10.891
19934W        W83878   1.900  31.020   3.679
19935W        W83879   6.895  31.018   4.740
19936W        W83880  22.126   3.758   0.271
19937W        W83881  14.742  36.516  11.488
19938W        W83882   5.834   4.262  14.886
19939W        W83883  14.163   6.386   3.691
19940W        W83884  20.215  15.146   3.777
19941W        W83885  43.777   5.337  10.511
19942W        W83886  35.936  16.753   2.661
19943W        W83887   5.438   8.229   2.691
19944W        W83888  11.299  40.972   0.743
19945W        W83889  23.705  37.479  11.590
19946W        W83890  34.040  43.798  10.912
19947W        W83891   6.383  25.078   2.249
19948W        W83892  30.485   1.367  13.938
19949W        W83893  22.008  12.643  13.835
19950W        W83894  44.409  29.012  13.896
19951W        W83895   4.792  26.531  14.963
19952W        W83896  21.724  36.884   0.762
19953W        W83897  19.546   4.740  12.024
19954W        W83898  22.234  10.685   3.704
19955W        W83899   8.873  16.176   2.882
19956W        W83900  37.883   6.346   1.333
19957W        W83901   2.228  39.373  12.967
19958W        W83902   8.691  40.436  11.949
19959W        W83903   1.816  18.231  14.791
19960W        W83904  25.050   8.854  13.984
19961W        W83905  18.595  30.976  13.948
19962W        W83906  10.822  18.654  14.768
19963W        W83907   8.321   1.361   0.360
19964W        W83908  21.089  22.123   4.150
19965W        W83909   0.843  26.544  12.997
19966W        W83910  36.004   9.328  14.486
19967W        W83911  43.853  44.471   4.280
19968W        W83912  44.924  32.435  13.520
19969W        W83913  24.195   1.932   4.599
19970W        W83914  29.038   6.187   2.763
19971W        W83915  37.952  10.753   2.327
19972W        W83916  15.180   2.390   4.610
19973W        W83917  34.424   4.877   2.716
19974W        W83918  27.085  16.155  11.573
19975W        W83919  31.501  10.157   0.455
19976W        W83920  31.421  27.581   1.797
19977W        W83921   3.824  24.088  13.871
19978W        W83922  36.537  44.485   2.306
19979W        W83923  25.038  43.808  12.520
19980W        W83924   2.939  11.143   2.231
19981W        W83925  39.549  35.884   2.745
19982W        W83926  32.071   3.361   2.761
19983W        W83927  39.010  16.693   1.805
19984W        W83928  43.851  44.993   0.275
19985W        W83929  31.457  17.097   1.282
19986W        W83930   9.335  32.998  14.984
19987W        W83931  43.397  17.624  14.284
19988W        W83932  10.178   2.333  13.867
19989W        W83933  32.058  41.400  11.464
19990W        W83934   2.898  38.972   0.952
19991W        W83935  10.201  32.619   1.772
19992W        W83936  15.322  12.160   0.809
19993W        W83937  37.946   2.396  11.959
19994W        W83938  23.103   9.265   4.769
19995W        W83939  43.801  31.025   0.425
19996W        W83940  23.119  26.116   1.813
19997W        W83941  37.914  28.057   1.933
19998W        W83942  25.175  18.717   3.368
19999W        W83943   0.491   2.410   3.224
20000W        W83944  39.384  42.938   2.698
20001W        W83945  31.091  22.652  11.394
20002W        W83946  11.850  12.137  12.917
20003W        W83947   5.751  37.076  12.878
20004W        W83948  21.201  33.418  11.043
20005W        W83949  39.333  31.564  10.599
20006W        W83950   2.884  19.111  13.862
20007W        W83951  30.147  33.039   0.457
20008W        W83952  40.405  21.521   3.216
20009W        W83953   1.837   4.211   1.934
20010W        W83954   8.219   2.828  13.867
20011W        W83955  28.614  24.114  12.931
20012W        W83956  16.091  40.404  11.997
20013W        W83957  27.067  33.066  10.558
20014W        W83958  28.944  43.280   2.878
20015W        W83959  25.608   2.303   2.266
20016W        W83960  21.033  23.634   2.765
20017W        W83961  44.005   2.426  13.447
20018W        W83962  11.822  42.318   3.200
20019W        W83963  28.956  26.601   2.404
20020W        W83964  13.140  15.200  10.505
20021W        W83965  10.836  42.032   2.875
20022W        W83966  34.611   0.443   3.806
20023W        W83967  41.392   5.253  12.351
20024W        W83968  15.290  31.956  11.537
20025W        W83969   5.279  30.413   2.703
20026W        W83970  38.908  35.899  11.061
20027W        W83971  39.960   6.184  10.405
20028W        W83972  25.624   0.754  12.473
20029W        W83973  10.140  43.408  12.966
20030W        W83974   0.982   4.809   4.309
20031W        W83975   9.169  37.016  14.873
20032W        W83976   2.860   9.860   4.709
20033W        W83977   9.174   9.271   1.212
20034W        W83978   6.896  42.520   3.750
20035W        W83979  39.989   3.367   2.284
20036W        W83980  16.783  19.105  11.427
20037W        W83981   8.225  37.839  14.018
20038W        W83982  44.429  30.553   2.286
20039W        W83983  10.748  41.008  10.955
20040W        W83984  14.235  24.068  14.483
20041W        W83985  19.715  17.681   2.179
20042W        W83986  29.665  30.573  11.478
20043W        W83987   4.330  21.085   1.884
20044W        W83988   3.376  19.752   0.444
20045W        W83989  31.008  39.494   4.688
20046W        W83990   0.827  37.027   2.770
20047W        W83991  13.126  42.475   0.785
20048W        W83992  37.869  13.291   4.337
20049W        W83993  14.212  41.006  12.421
20050W        W83994  44.921   2.388   4.157
20051W        W83995  10.264  35.954  12.523
20052W        W83996  41.828  30.508   1.780
20053W        W83997  36.506   6.748   0.941
20054W        W83998   7.709  40.403   0.826
20055W        W83999  16.198  23.698   4.344
20056W        W84000   9.271  20.262   3.251
20057W        W84001  21.703  43.442  11.891
20058W        W84002  43.323  35.109   2.322
20059W        W84003  15.211   3.764  10.072
20060W        W84004  11.249  11.768   4.311
20061W        W84005  14.198  10.288   4.286
20062W        W84006  43.504  29.547   0.898
20063W        W84007  16.811  32.051   0.332
20064W        W84008  44.379  41.490  11.016
20065W        W84009   9.803  11.834   0.794
20066W        W84010   0.296   3.919   2.356
20067W        W84011  21.019  14.276   0.265
20068W        W84012  15.802  15.788   4.779
20069W        W84013  34.402  25.579  14.294
20070W        W84014  36.091  22.060   1.864
20071W        W84015  36.485   6.415   1.915
20072W        W84016  23.044   5.364  12.550
20073W        W84017  18.689  26.460   0.320
20074W        W84018  44.490  24.052  13.845
20075W        W84019  32.024  44.882  13.516
20076W        W84020  14.742   5.294  11.561
20077W        W84021   6.416   3.297  10.519
20078W        W84022  42.325  36.972   2.378
20079W        W84023  31.440   5.874  14.352
20080W        W84024   4.904   9.193  14.937
20081W        W84025  39.396   4.254   0.367
20082W        W84026  35.934   3.878   4.820
20083W        W84027  19.136  11.311  10.411
20084W        W84028  43.886   3.951  13.828
20085W        W84029  19.719  41.804   4.310
20086W        W84030  21.757  35.503   1.840
20087W        W84031   9.684  20.728  12.503
20088W        W84032  16.566  25.174   1.381
20089W        W84033  25.469  44.822  10.475
20090W        W84034   3.894  44.982   2.389
20091W        W84035   1.457  43.868   3.853
20092W        W84036   8.881   3.386   1.364
20093W        W84037   1.397  25.081  10.415
20094W        W84038  33.533  21.123   4.809
20095W        W84039  19.774  18.086   3.845
20096W        W84040  30.960  33.403  12.394
20097W        W84041  28.627  36.851   4.292
20098W        W84042   5.861  41.973   2.748
20099W        W84043  23.003  25.212  13.006
20100W        W84044  40.305  10.640   0.937
20101W        W84045  43.438  20.709   4.350
20102W        W84046  37.920   7.877  12.425
20103W        W84047  44.299  29.922  13.339
20104W        W84048   7.858   1.879  11.470
20105W        W84049  38.480   0.923   3.337
20106W        W84050  14.773  19.211  14.462
20107W        W84051  19.227  23.063   2.662
20108W        W84052  24.025  19.573   4.735
20109W        W84053  37.920  44.413   0.420
20110W        W84054   7.194  23.120  11.592
20111W        W84055   0.366   6.223  10.519
20112W        W84056  26.600  41.302   5.141
20113W        W84057  29.643  41.929   2.718
20114W        W84058  21.702  21.751   0.261
20115W        W84059  44.004  27.565  13.924
20116W        W84060  18.110  20.738  12.868
20117W        W84061  17.196  26.508  14.325
20118W        W84062  16.115   6.428   0.346
20119W        W84063  14.791  23.120   3.701
20120W        W84064  24.648   0.257   2.310
20121W        W84065  11.661  28.477   2.303
20122W        W84066  15.114  32.582   3.864
20123W        W84067  39.009   6.749  10.579
20124W        W84068  34.869  34.919  11.963
20125W        W84069  21.601  14.714   4.145
20126W        W84070  35.428  38.385   4.639
20127W        W84071  25.122  19.128  12.868
20128W        W84072  16.134  16.118   4.162
20129W        W84073  17.626  22.508  10.993
20130W        W84074  10.289  30.958  11.063
20131W        W84075   6.810  24.153   1.920
20132W        W84076   5.889  37.041   2.228
20133W        W84077  29.932  23.021  12.879
20134W        W84078  43.917  34.029  10.608
20135W        W84079  15.666   7.698  13.359
20136W        W84080  36.904  31.068  13.827
20137W        W84081  29.002  16.681   1.329
20138W        W84082   9.316  17.280  11.457
20139W        W84083  17.676   9.259  11.862
20140W        W84084  21.593  35.856  13.460
20141W        W84085  44.961  11.339  14.015
20142W        W84086  11.864  18.182   0.802
20143W        W84087   7.848  26.648  12.057
20144W        W84088  40.047  29.606   4.613
20145W        W84089  34.034  17.725   1.734
20146W        W84090  44.277  11.637   4.688
20147W        W84091  42.905   8.361  11.861
20148W        W84092  38.523  23.600   3.810
20149W        W84093   7.874  12.709   0.927
20150W        W84094  22.022   7.769  14.912
20151W        W84095  15.692  16.644  14.474
20152W        W84096  32.443   9.648   2.213
20153W        W84097  14.645  29.144  12.446
20154W        W84098   8.314   8.348  14.320
20155W        W84099  41.393  32.560  13.458
20156W        W84100  16.231  40.033   2.817
20157W        W84101  15.184  31.441  12.095
20158W        W84102  19.183  26.046  13.986
20159W        W84103  25.196  39.937   4.174
20160W        W84104   1.380  19.662  13.926
20161W        W84105  26.603  32.616  12.559
20162W        W84106  26.599  11.221  14.415
20163W        W84107  19.241  24.121   0.448
20164W        W84108  20.177  22.072   4.305
20165W        W84109   3.336   9.373  10.929
20166W        W84110  32.131  24.687  12.413
20167W        W84111   2.356   7.173   4.712
20168W        W84112  25.560  23.638  10.499
20169W        W84113  24.179  42.406   3.840
20170W        W84114  44.883  22.605  13.538
20171W        W84115   8.274  15.800  14.450
20172W        W84116   7.851   3.760  13.981
20173W        W84117   8.399  26.079   1.888
20174W        W84118  43.409  15.710  13.343
20175W        W84119  23.115  26.470   2.401
20176W        W84120  21.128  22.162  14.352
20177W        W84121   5.909  37.987   4.140
20178W        W84122  37.072   3.333   0.348
20179W        W84123   3.816  41.824  10.573
20180W        W84124  19.133   5.295   1.235
20181W        W84125   6.404  43.327  14.426
20182W        W84126  35.444  31.457   3.862
20183W        W84127  17.776  42.399   2.408
20184W        W84128   2.427  32.013  10.492
20185W        W84129  38.855  12.327  13.431
20186W        W84130  36.846  26.120  13.028
20187W        W84131  13.835   2.824  11.405
20188W        W84132  18.705  40.406   1.307
20189W        W84133  33.044   3.314   3.755
20190W        W84134   8.366   3.740  14.904
20191W        W84135   4.390  16.760  11.509
20192W        W84136   9.376  26.154   3.180
20193W        W84137  18.708  25.208  14.859
20194W        W84138  18.111  12.321  12.503
20195W        W84139  36.965  31.132  11.040
20196W        W84140  11.279  16.705  13.026
20197W        W84141   3.277  15.695  11.455
20198W        W84142   9.241  34.583   4.704
20199W        W84143  31.027  33.954   1.275
20200W        W84144   7.225  17.618  12.947
20201W        W84145  21.144  24.589   2.307
20202W        W84146  12.356   7.378  11.078
20203W        W84147  23.075  10.280  12.462
20204W        W84148  21.718  33.003  10.483
20205W        W84149   6.239  14.196  12.413
20206W        W84150  43.791  34.461  14.276
20207W        W84151  16.230  24.480   0.381
20208W        W84152  31.978  10.805  14.846
20209W        W84153  34.524  12.746  12.544
20210W        W84154  43.902  30.470   2.865
20211W        W84155   3.278  37.537  10.600
20212W        W84156  34.537  42.929  10.029
20213W        W84157  33.937   4.300  12.996
20214W        W84158  36.476  28.444  11.525
20215W        W84159  35.981  12.139   4.273
20216W        W84160  34.434  13.792  10.472
20217W        W84161  21.223  31.488   0.377
20218W        W84162  17.765  35.469   4.714
20219W        W84163  26.591  16.312  12.007
20220W        W84164  39.386  29.571   1.389
20221W        W84165  21.532   7.276   2.221
20222W        W84166   1.837  26.697  11.520
20223W        W84167   3.809   0.436  13.965
20224W        W84168  26.024   4.942  12.486
20225W        W84169  15.636  39.536  11.902
20226W        W84170  31.560  26.061  11.079
20227W        W84171  15.107  44.778   0.813
20228W        W84172  22.585  23.106   3.354
20229W        W84173   4.907  36.382   4.664
20230W        W84174  13.204   7.826   3.231
20231W        W84175   2.941  38.456   3.305
20232W        W84176   6.227   3.434  11.963
20233W        W84177  34.502  17.596  11.015
20234W        W84178  40.393  21.196   3.276
20235W        W84179  15.721  39.393  11.055
20236W        W84180   2.941  11.177  13.014
20237W        W84181  38.026  39.935   4.184
20238W        W84182   3.226  31.403   1.928
20239W        W84183  15.211  39.859  11.874
20240W        W84184  29.148  12.166  13.979
20241W        W84185  19.735   8.722  11.588
20242W        W84186  25.661  23.039   4.654
20243W        W84187  39.956   0.438  13.487
20244W        W84188  44.293   2.416  11.119
20245W        W84189  40.451   6.918  12.439
20246W        W84190  40.331  30.435   0.822
20247W        W84191  15.738   3.270   9.940
20248W        W84192   3.368  15.320   4.354
20249W        W84193  14.761  32.022  11.513
20250W        W84194  24.029  19.685  11.897
20251W        W84195  22.112   4.774   4.128
20252W        W84196  24.148  28.060   3.670
20253W        W84197  25.608   6.709   2.862
20254W        W84198   1.896  35.919  10.926
20255W        W84199  33.988  15.315   4.621
20256W        W84200   3.435  27.630   0.882
20257W        W84201  24.023  23.144  10.578
20258W        W84202  42.501  21.582   3.631
20259W        W84203  18.719  23.032  11.379
20260W        W84204  34.110   2.393  11.519
20261W        W84205   4.424  18.603   4.178
20262W        W84206  32.581  18.716   3.261
20263W        W84207  31.485   2.788   2.345
20264W        W84208  11.165  16.735   3.260
20265W        W84209  33.392  25.675  14.954
20266W        W84210  19.060   6.874   5.198
20267W        W84211   2.262   6.679  13.862
20268W        W84212   4.396  12.618  12.465
20269W        W84213   0.888  36.873  12.856
20270W        W84214  22.106  40.469   2.301
20271W        W84215   2.914   9.318   1.725
20272W        W84216  39.913  38.354   3.633
20273W        W84217  17.188  13.215   1.858
20274W        W84218  13.168  39.049   4.689
20275W        W84219  33.437   2.270  12.403
20276W        W84220   8.843  31.479  14.001
20277W        W84221  15.627  25.991   1.421
20278W        W84222  44.762   2.750  11.885
20279W        W84223  20.108  14.713  13.323
20280W        W84224  33.426  17.559  12.567
20281W        W84225  38.560  29.116   3.832
20282W        W84226  32.602  31.963  11.471
20283W        W84227  38.046  25.181   2.251
20284W        W84228  39.045  20.688  12.051
20285W        W84229  39.847   3.948   2.793
20286W        W84230  34.545  28.139  13.330
20287W        W84231   6.409  33.981  11.953
20288W        W84232   9.870  14.315   0.399
20289W        W84233  39.391  10.832  11.496
20290W        W84234  25.019  26.203  12.871
20291W        W84235  18.553  39.889  13.954
20292W        W84236   3.431  21.177   5.269
20293W        W84237  23.712  26.024  13.018
20294W        W84238  28.039  41.981   5.313
20295W        W84239  28.581   2.245   3.293
20296W        W84240   7.315   3.250  12.560
20297W        W84241  43.512  28.982  12.454
20298W        W84242  14.230   8.703   9.989
20299W        W84243  40.977  29.570   1.824
20300W        W84244  24.195   9.372   1.313
20301W        W84245   0.847  31.949   0.256
20302W        W84246  23.553  31.032  14.371
20303W        W84247  40.443  21.026  12.371
20304W        W84248  40.489  40.019   2.827
20305W        W84249  24.523  11.788  11.104
20306W        W84250  41.378  35.922   0.260
20307W        W84251  23.597  41.528   0.790
20308W        W84252  17.143  43.346  14.779
20309W        W84253   3.947  24.612   0.958
20310W        W84254  23.136  36.568  13.491
20311W        W84255  21.066   6.705  13.937
20312W        W84256  26.539  20.105  12.927
20313W        W84257  12.823  35.361  11.454
20314W        W84258  39.944  13.717  10.940
20315W        W84259  10.750   3.846  10.944
20316W        W84260  16.126  13.130  13.033
20317W        W84261   5.330   8.713  14.880
20318W        W84262  43.944  14.785   0.794
20319W        W84263  17.791  26.107   0.466
20320W        W84264  16.700  32.510  13.423
20321W        W84265  18.271  36.490   4.712
20322W        W84266  40.920  27.044  11.115
20323W        W84267  12.270   9.285  13.874
20324W        W84268  17.247  34.085  10.453
20325W        W84269   0.440   4.847  13.967
20326W        W84270  20.597  12.332   3.752
20327W        W84271  42.362  24.623  12.498
20328W        W84272  13.259  30.064   1.838
20329W        W84273  38.860  36.371   3.204
20330W        W84274  38.364  31.584  13.857
20331W        W84275  40.482  31.582  12.395
20332W        W84276   8.192   2.923   1.731
20333W        W84277  24.627  14.702  12.094
20334W        W84278  26.652  43.430  13.919
20335W        W84279   1.477   7.880  13.038
20336W        W84280  29.919   7.345  14.802
20337W        W84281  41.907  27.470  11.069
20338W        W84282  25.626  24.589  13.470
20339W        W84283  19.043  24.518   1.411
20340W        W84284  10.199   6.852   0.367
20341W        W84285  13.203  24.131  10.933
20342W        W84286  43.932  35.012   3.296
20343W        W84287  16.292  25.563  14.774
20344W        W84288   5.834   8.261   0.787
20345W        W84289  22.683  43.913   0.392
20346W        W84290   8.876  11.813   2.231
20347W        W84291  27.516  22.615  14.499
20348W        W84292   9.219  34.371   3.799
20349W        W84293   3.365  35.105   1.320
20350W        W84294  34.539  37.417  11.981
20351W        W84295   1.798  14.813   2.847
20352W        W84296  23.561   9.173   0.830
20353W        W84297  16.086  26.535  12.830
20354W        W84298  41.951  15.738  13.019
20355W        W84299  37.866  34.391   0.358
20356W        W84300   3.768  39.881  12.840
20357W        W84301  40.853  17.175   4.208
20358W        W84302  33.488  28.079   0.755
20359W        W84303   1.866   8.683  11.882
20360W        W84304  27.092   8.710   3.361
20361W        W84305   6.363  13.804   2.678
20362W        W84306  37.551   0.263  13.824
20363W        W84307  22.042  22.562  11.858
20364W        W84308  40.308   2.818   5.114
20365W        W84309   6.848  31.958  11.466
20366W        W84310  10.323  40.518   4.621
20367W        W84311  17.237   3.939  11.407
20368W        W84312  26.199  31.071   2.674
20369W        W84313  30.557   8.272   4.769
20370W        W84314   3.262  44.394   4.707
20371W        W84315  38.515  24.554   3.251
20372W        W84316   4.425  32.598   3.214
20373W        W84317  33.885  32.898   2.688
20374W        W84318  33.435  39.319   3.274
20375W        W84319  24.036   7.687   2.395
20376W        W84320  23.182  18.288   2.742
20377W        W84321  25.205  10.685  12.879
20378W        W84322  27.179  22.031  12.922
20379W        W84323  18.654   7.787   3.351
20380W        W84324  17.757  12.806   3.295
20381W        W84325  14.141  36.060  14.358
20382W        W84326   7.897  32.004  13.314
20383W        W84327  28.026  27.504  13.436
20384W        W84328  38.509  38.379   0.335
20385W        W84329   0.365   6.257  13.054
20386W        W84330  16.176  18.153   3.195
20387W        W84331  21.577  22.151   3.725
20388W        W84332  29.037  28.023  11.958
20389W        W84333  14.337  36.018  12.555
20390W        W84334   6.709  21.104  11.563
20391W        W84335  20.047  28.153   3.338
20392W        W84336  28.661  33.578  14.931
20393W        W84337   8.341  43.880  11.552
20394W        W84338  16.086  41.836  11.929
20395W        W84339  33.970  29.100   1.916
20396W        W84340  31.980  39.926  12.479
20397W        W84341  42.448  16.792   1.771
20398W        W84342  14.227  29.075   4.721
20399W        W84343   9.700  22.103   3.716
20400W        W84344   7.912  40.380   4.717
20401W        W84345  30.012  29.499   3.189
20402W        W84346  10.251   2.296  13.016
20403W        W84347  44.333   6.770  12.019
20404W        W84348  44.395  37.459   4.353
20405W        W84349  19.707  29.554  13.898
20406W        W84350  33.996   4.792   3.383
20407W        W84351  40.905  21.558  13.818
20408W        W84352   3.818  10.379   0.329
20409W        W84353  29.043   4.840   2.286
20410W        W84354  27.596   5.780   0.436
20411W        W84355  21.152  35.948  12.501
20412W        W84356  32.425  19.590   2.680
20413W        W84357  30.602  29.115  14.307
20414W        W84358  16.119  20.756  14.013
20415W        W84359  23.221  34.028  10.449
20416W        W84360   1.917  27.054  12.555
20417W        W84361  30.072  16.766   0.921
20418W        W84362  21.574  33.962   1.741
20419W        W84363  21.634   4.719   0.424
20420W        W84364   8.842  28.172   9.669
20421W        W84365  11.695  30.480  14.426
20422W        W84366   9.370   1.865  15.000
20423W        W84367   4.383  37.057  13.836
20424W        W84368  16.726  25.095   0.918
20425W        W84369  23.688  36.480  14.978
20426W        W84370  34.944  14.307   4.306
20427W        W84371  10.636  12.344  13.376
20428W        W84372  34.078  37.474  12.485
20429W        W84373  40.825  32.141   0.804
20430W        W84374   6.734  29.581   3.323
20431W        W84375  11.356   1.815  11.493
20432W        W84376  31.468   3.407  13.036
20433W        W84377  29.588  15.162   2.381
20434W        W84378  19.172  20.561  13.973
20435W        W84379  13.792  27.654   0.821
20436W        W84380   4.899  33.956   3.269
20437W        W84381  26.550  20.078   3.284
20438W        W84382  16.167   4.911  13.954
20439W        W84383   2.251   4.431  13.837
20440W        W84384   4.783  36.457  14.404
20441W        W84385   5.280  13.776   1.766
20442W        W84386  36.506   5.293   3.651
20443W        W84387  18.607  37.909  14.276
20444W        W84388  20.119  28.518   4.180
20445W        W84389  32.417   5.914   3.865
20446W        W84390  12.794   7.353   0.757
20447W        W84391  39.472  31.154  14.509
20448W        W84392  22.040  20.630  12.834
20449W        W84393  33.430  34.460  14.917
20450W        W84394   8.167  30.914  11.110
20451W        W84395   2.825  26.979  10.540
20452W        W84396  16.690  30.021   2.190
20453W        W84397  41.459  13.324   4.774
20454W        W84398  15.798  13.623  11.502
20455W        W84399  13.613  41.831  13.913
20456W        W84400  25.682   8.364   2.812
20457W        W84401  36.476  40.967   4.335
20458W        W84402   1.386  22.187  14.984
20459W        W84403   6.784  29.067   2.329
20460W        W84404  24.208   2.935  13.856
20461W        W84405  41.012  11.168   4.809
20462W        W84406  18.165  34.056   9.967
20463W        W84407  27.553  11.225   2.240
20464W        W84408  11.263  23.160   4.212
20465W        W84409  43.329  29.602   1.890
20466W        W84410  19.216  39.954   2.246
20467W        W84411  35.939   5.860  10.925
20468W        W84412  31.626  28.124  14.838
20469W        W84413   8.760  23.075  12.358
20470W        W84414  17.652  19.114   3.226
20471W        W84415   7.864   9.209   3.664
20472W        W84416   2.350  35.594   4.699
20473W        W84417   5.290  13.210  13.513
20474W        W84418  40.506   2.794   3.646
20475W        W84419  14.336  18.648   3.830
20476W        W84420  25.075   3.756  12.977
20477W        W84421  15.114  14.731   3.179
20478W        W84422  25.602  37.419  10.076
20479W        W84423   8.791   7.283   2.885
20480W        W84424  28.955  42.402  14.400
20481W        W84425  15.280   0.907  11.393
20482W        W84426   8.272  13.178  13.949
20483W        W84427  17.738  37.062   2.784
20484W        W84428   7.314  21.609  14.998
20485W        W84429   8.760  32.975  11.065
20486W        W84430  25.134  14.623  12.901
20487W        W84431  28.476  13.209  11.540
20488W        W84432  40.902   3.917  11.009
20489W        W84433  11.148  19.714   3.871
20490W        W84434  33.405   3.745  13.833
20491W        W84435  34.418  36.079  12.947
20492W        W84436   4.837  43.987   0.903
20493W        W84437  26.010  39.910   1.800
20494W        W84438   1.920  31.967   4.354
20495W        W84439  29.991   2.826  11.457
20496W        W84440  40.535  24.597  11.578
20497W        W84441  36.456  35.389  10.923
20498W        W84442   8.696  26.013  11.408
20499W        W84443  31.429  26.180  13.007
20500W        W84444  11.368  15.691  12.552
20501W        W84445  14.698  19.243   4.192
20502W        W84446   1.454  31.086  14.299
20503W        W84447  15.596  36.355   4.701
20504W        W84448  18.571  15.682   0.912
20505W        W84449  18.209  44.828  12.362
20506W        W84450  35.539  33.485   4.818
20507W        W84451  25.639  31.072   3.839
20508W        W84452  37.061  10.785   3.702
20509W        W84453  32.440   7.676   2.399
20510W        W84454   4.757  30.982   1.854
20511W        W84455  19.651  25.476  13.903
20512W        W84456  27.085  11.238  13.057
20513W        W84457  31.434   6.849  12.480
20514W        W84458  38.911   9.155   3.160
20515W        W84459  10.748  22.135  11.025
20516W        W84460  32.488  14.646  14.899
20517W        W84461   4.789  40.312  13.415
20518W        W84462   7.888  30.518  10.100
20519W        W84463  15.822   0.370  11.422
20520W        W84464  16.723   6.808  11.998
20521W        W84465   3.764  27.496   2.415
20522W        W84466  27.518  16.174   4.202
20523W        W84467   5.245  13.819   3.370
20524W        W84468   0.364  36.413  14.982
20525W        W84469  15.145  32.141   1.369
20526W        W84470  19.201  28.079  11.869
20527W        W84471  44.427  25.974  11.566
20528W        W84472  27.564  16.651  11.459
20529W        W84473  27.998  10.789  12.457
20530W        W84474   5.882  43.769   2.877
20531W        W84475   8.896  36.525  11.473
20532W        W84476  30.130  23.076   2.715
20533W        W84477  31.622  23.061  12.551
20534W        W84478  21.672   9.752  14.378
20535W        W84479  16.748  25.986  11.927
20536W        W84480  20.689  24.194  14.324
20537W        W84481  38.565  42.298  12.344
20538W        W84482  24.551  29.551   1.235
20539W        W84483  32.525  41.993  10.597
20540W        W84484  27.044  14.728  10.484
20541W        W84485  27.995  39.925  11.499
20542W        W84486  23.096  37.954   1.717
20543W        W84487  30.107  40.314  14.901
20544W        W84488  29.427  31.119   3.862
20545W        W84489  13.327  26.999   2.685
20546W        W84490   8.194  31.412  14.887
20547W        W84491   2.797   0.339   1.895
20548W        W84492  29.427   9.829   3.736
20549W        W84493  27.095  41.317  13.523
20550W        W84494   3.927  27.569  14.450
20551W        W84495  34.874  42.453  11.919
20552W        W84496   3.721  11.802   2.691
20553W        W84497  18.063  24.194   4.696
20554W        W84498  18.592  32.601  11.037
20555W        W84499  34.383   8.789   1.376
20556W        W84500  16.133   2.362   3.229
20557W        W84501  29.632  24.077  11.959
20558W        W84502  19.721  17.219   0.822
20559W        W84503  16.189   2.326  12.460
20560W        W84504   7.757  41.875   1.910
20561W        W84505  40.927  29.999  14.489
20562W        W84506  24.124  40.358  12.002
20563W        W84507  43.433  38.534  12.039
20564W        W84508  40.480   7.289  14.439
20565W        W84509  16.277  35.005  13.473
20566W        W84510  16.100  38.426   0.785
20567W        W84511  15.585   1.828  12.354
20568W        W84512  29.966  28.669  14.425
20569W        W84513  40.797   7.715  11.012
20570W        W84514  29.667  29.510  10.908
20571W        W84515  37.562  12.741  13.828
20572W        W84516  40.404  19.209   2.822
20573W        W84517  24.975  20.087  10.945
20574W        W84518  31.594  28.034   0.765
20575W        W84519   8.365  27.677  10.932
20576W        W84520  42.412   6.267   0.916
20577W        W84521   5.876  43.014   2.274
20578W        W84522  29.168  15.795   2.270
20579W        W84523  15.631   2.385   3.750
20580W        W84524   0.356  30.030  14.014
20581W        W84525  12.303  35.918  10.990
20582W        W84526  29.129  12.668  13.001
20583W        W84527   9.674   0.986   2.901
20584W        W84528   4.244  12.312   4.627
20585W        W84529  42.332  32.410  13.804
20586W        W84530  12.841  30.445  12.377
20587W        W84531  38.340  38.044  13.330
20588W        W84532   9.697  13.148   2.703
20589W        W84533  35.065  13.328   4.601
20590W        W84534   7.398  23.562  13.048
20591W        W84535  30.079  27.062  14.935
20592W        W84536  32.512  40.867   2.862
20593W        W84537  34.441  18.748   2.193
20594W        W84538  16.309  32.142  14.010
20595W        W84539   9.863  31.046  11.463
20596W        W84540  21.741  13.218   4.790
20597W        W84541  23.619  35.869  11.417
20598W        W84542  31.017   4.892  11.594
20599W        W84543  43.999  12.618  14.904
20600W        W84544  39.918  25.110   2.385
20601W        W84545  35.447  26.184  12.024
20602W        W84546  29.454  42.019  12.840
20603W        W84547  35.105  28.951  11.493
20604W        W84548  26.036  15.284  12.982
20605W        W84549  13.615  20.699  11.380
20606W        W84550  38.379   6.709  13.052
20607W        W84551   0.969  18.204  10.897
20608W        W84552  32.621  36.394  12.451
20609W        W84553  39.974  20.108  14.500
20610W        W84554   5.357  25.133   0.769
20611W        W84555  29.571   9.731  11.474
20612W        W84556  20.060   1.465   2.384
20613W        W84557  27.685   1.322  14.357
20614W        W84558  35.863  42.440  14.333
20615W        W84559  41.391   5.194   1.727
20616W        W84560  16.297  31.538   0.469
20617W        W84561  26.148  43.779  11.494
20618W        W84562  13.347  32.019  10.565
20619W        W84563  32.607   5.865   4.778
20620W        W84564  27.646   6.893   3.681
20621W        W84565   3.275   8.844   3.646
20622W        W84566  20.258  22.996   3.193
20623W        W84567  20.734   6.733   2.898
20624W        W84568  24.049  43.887   4.228
20625W        W84569  26.993  15.269   4.320
20626W        W84570  43.792   1.367  11.081
20627W        W84571  33.898   0.966  11.075
20628W        W84572  30.926  35.929  14.842
20629W        W84573  20.267  34.496   4.770
20630W        W84574  22.747  39.373  13.476
20631W        W84575  36.874  22.558   0.794
20632W        W84576   3.400  19.673  11.084
20633W        W84577  17.765   4.267  11.445
20634W        W84578   5.386  41.030  13.483
20635W        W84579   9.268  17.184   1.235
20636W        W84580  20.671  18.284   0.243
20637W        W84581  33.541  32.483  12.833
20638W        W84582  34.935  28.123  11.371
20639W        W84583   1.433  34.926   3.149
20640W        W84584  27.517  40.800  14.314
20641W        W84585  17.695  26.576   2.239
20642W        W84586  15.328  21.112   1.849
20643W        W84587  21.569  12.359   3.829
20644W        W84588   1.255  31.480  12.484
20645W        W84589  38.900  34.002  14.828
20646W        W84590  21.691  34.460   0.406
20647W        W84591  20.228  44.496   0.771
20648W        W84592  31.482   9.266  11.371
20649W        W84593  22.033  39.549  11.863
20650W        W84594  39.933  11.284   1.302
20651W        W84595  14.800  27.673   4.335
20652W        W84596  36.491  43.792  11.588
20653W        W84597  15.609  27.961  13.498
20654W        W84598   1.825   8.284  13.032
20655W        W84599  38.535  36.435   2.683
20656W        W84600  26.044   2.806  13.394
20657W        W84601  14.829  13.301  14.374
20658W        W84602  31.920   2.898   0.880
20659W        W84603  12.692  33.507   0.938
20660W        W84604  30.997  24.707   0.454
20661W        W84605  20.684   8.224   3.328
20662W        W84606   1.343  32.432   2.203
20663W        W84607  15.635  25.165  11.910
20664W        W84608  10.183  44.878  10.433
20665W        W84609  43.020  21.262   4.693
20666W        W84610  14.782  17.220  11.111
20667W        W84611  18.749   8.667  12.937
20668W        W84612  18.208  40.812  13.401
20669W        W84613   2.822   4.247   0.795
20670W        W84614  32.086  17.609  13.427
20671W        W84615  33.895  44.483   2.775
20672W        W84616  36.955  41.008   4.787
20673W        W84617  44.896   0.349  13.027
20674W        W84618   7.841  13.713   0.959
20675W        W84619  27.646  32.935  10.582
20676W        W84620  23.714   0.342   3.774
20677W        W84621   0.769  12.852  13.050
20678W        W84622  27.076  14.238  12.554
20679W        W84623  32.505   5.701  11.448
20680W        W84624  10.663  32.589  11.865
20681W        W84625  41.299   3.905   0.880
20682W        W84626   2.375   2.298   0.431
20683W        W84627  18.606  10.676  11.103
20684W        W84628   0.966  15.654  13.843
20685W        W84629  28.602  38.475  13.353
20686W        W84630   9.287   2.341   0.817
20687W        W84631  28.538  20.579  12.339
20688W        W84632   7.198  24.031   1.451
20689W        W84633  41.957  29.088  14.485
20690W        W84634  39.006   1.255  10.571
20691W        W84635  38.927  42.789   2.280
20692W        W84636  14.639  22.215  12.025
20693W        W84637  10.161  19.042   4.147
20694W        W84638   5.384  34.120   2.692
20695W        W84639  22.053  34.447   2.708
20696W        W84640  11.708  12.256   2.833
20697W        W84641  11.168  44.466  14.913
20698W        W84642  16.145  29.138   2.851
20699W        W84643  44.303  35.425  12.908
20700W        W84644  42.430  17.727  12.917
20701W        W84645   1.361  27.560  11.006
20702W        W84646   0.311  44.937   3.296
20703W        W84647  25.523  18.648  13.837
20704W        W84648  24.075  33.942   3.800
20705W        W84649  11.701  13.175   0.849
20706W        W84650  32.588  16.294  13.051
20707W        W84651   5.237  10.278   2.692
20708W        W84652  22.631  32.527  10.899
20709W        W84653  23.005   8.719   2.744
20710W        W84654  28.658   2.433  14.765
20711W        W84655   7.321  37.073  12.074
20712W        W84656  14.158  24.171  12.893
20713W        W84657  10.236   5.846  12.380
20714W        W84658  37.385  12.276  11.876
20715W        W84659   7.395  26.536   4.781
20716W        W84660  16.241  13.736  13.851
20717W        W84661  27.468  16.272  12.489
20718W        W84662  39.810  41.003   4.656
20719W        W84663  41.981  30.162   4.811
20720W        W84664  20.125  15.164  14.993
20721W        W84665  27.178  36.885  14.346
20722W        W84666  14.232  26.561   1.914
20723W        W84667  42.507  40.481  14.011
20724W        W84668  34.495  30.462   2.723
20725W        W84669  16.767  20.680   1.401
20726W        W84670   4.263   2.873   2.688
20727W        W84671  14.105  42.944   0.813
20728W        W84672  21.756  22.695   0.862
20729W        W84673  23.075  16.790  10.556
20730W        W84674   7.248  34.485   2.827
20731W        W84675  19.122  41.320   0.331
20732W        W84676  39.865  43.339  12.945
20733W        W84677  26.460  33.546   3.825
20734W        W84678  20.164  39.884   0.737
20735W        W84679   5.849  11.190   3.834
20736W        W84680  35.082  30.628  10.544
20737W        W84681  32.422  26.141  10.926
20738W        W84682  44.291  36.377   4.346
20739W        W84683  40.858   2.244  11.885
20740W        W84684  24.571  44.984  13.011
20741W        W84685  43.355  12.792   1.910
20742W        W84686  44.829  42.514  14.412
20743W        W84687  13.166   1.354   0.740
20744W        W84688  38.073   8.245   2.814
20745W        W84689  25.632  31.072   0.948
20746W        W84690  11.368  20.215  14.904
20747W        W84691   0.779  39.038   3.805
20748W        W84692   6.816   2.252   0.924
20749W        W84693  12.701  44.296  12.089
20750W        W84694  31.582   6.919  13.336
20751W        W84695  35.521  17.217  10.938
20752W        W84696   8.223  35.870  12.897
20753W        W84697   0.906  13.775   4.699
20754W        W84698  18.260  18.669  12.956
20755W        W84699  34.086  38.357   3.294
20756W        W84700  25.184  13.709   4.350
20757W        W84701   0.347   0.971  14.323
20758W        W84702  15.087  29.619  11.465
20759W        W84703   4.825   9.770   1.402
20760W        W84704  23.139  21.203   1.771
20761W        W84705  35.546  28.955  13.870
20762W        W84706  39.952   9.356  14.328
20763W        W84707  30.527  42.393  10.482
20764W        W84708  22.127   7.816   4.763
20765W        W84709  37.841  12.723   0.253
20766W        W84710   9.882   8.369   2.415
20767W        W84711  11.865  42.450   4.716
20768W        W84712  20.243  34.962   1.918
20769W        W84713  24.070  21.724   4.293
20770W        W84714  16.697  19.722   3.653
20771W        W84715  10.140  33.409   1.703
20772W        W84716  25.212  42.987  14.816
20773W        W84717   6.774  19.089   1.712
20774W        W84718   6.291   6.220   0.421
20775W        W84719  11.838  23.643  11.980
20776W        W84720  13.295  38.009   4.832
20777W        W84721  43.832  18.776   1.849
20778W        W84722  43.011   5.876   0.342
20779W        W84723   9.724  35.502  13.026
20780W        W84724  13.139  30.583   4.195
20781W        W84725  42.984  16.145   3.693
20782W        W84726  44.982  10.810  11.474
20783W        W84727   6.285   4.768   3.272
20784W        W84728  24.036  38.027  13.316
20785W        W84729  34.012  15.296   2.805
20786W        W84730  43.443  18.630  12.890
20787W        W84731   7.345  11.655   2.830
20788W        W84732  43.361  16.616  12.362
20789W        W84733  14.294  31.144   4.179
20790W        W84734  14.191  16.102  11.467
20791W        W84735   7.182   9.191   0.467
20792W        W84736  17.590  22.734  14.422
20793W        W84737  41.905  15.619  13.478
20794W        W84738   3.293  43.441  14.343
20795W        W84739  32.142  19.612  11.382
20796W        W84740   2.928  31.075  14.921
20797W        W84741  16.213   4.887  10.090
20798W        W84742   9.702  10.270  11.926
20799W        W84743  44.419  37.567   5.249
20800W        W84744  15.703  42.939   4.660
20801W        W84745   4.269   1.866   4.192
20802W        W84746  39.456   8.766   0.394
20803W        W84747  35.983  20.205  13.861
20804W        W84748   1.322   3.356  12.524
20805W        W84749  42.901  42.387  10.987
20806W        W84750  40.918  30.457  12.041
20807W        W84751  43.799   8.720  11.584
20808W        W84752  44.366  10.218   1.420
20809W        W84753  40.018  43.447  12.366
20810W        W84754   0.772  31.503   0.307
20811W        W84755  12.319  33.492   1.865
20812W        W84756  31.063  34.964  12.437
20813W        W84757  14.728  33.077  14.874
20814W        W84758  22.230   8.225   1.925
20815W        W84759  12.665  23.125   3.231
20816W        W84760  13.110  15.192   2.717
20817W        W84761  34.049  34.029   0.303
20818W        W84762  26.469  19.633   2.845
20819W        W84763  23.991  33.447   1.283
20820W        W84764  37.402  16.795   1.774
20821W        W84765  16.757  26.167   0.467
20822W        W84766  34.105   9.296  13.953
20823W        W84767  32.481  23.071  10.901
20824W        W84768  17.568  36.520  11.119
20825W        W84769  13.769  36.404  13.352
20826W        W84770   1.942   4.901  12.534
20827W        W84771  32.567  20.137   0.341
20828W        W84772  35.495  13.815  11.532
20829W        W84773  31.135  24.518   1.846
20830W        W84774  20.660  32.969   1.375
20831W        W84775  24.200  27.183   4.797
20832W        W84776  11.158  43.982  11.534
20833W        W84777  37.342  17.595  11.521
20834W        W84778   1.404  27.999  12.080
20835W        W84779  27.571  28.032   2.790
20836W        W84780  42.418  17.282  14.913
20837W        W84781  10.767  38.432   2.216
20838W        W84782  36.371  41.007   1.754
20839W        W84783   7.888  35.014   1.444
20840W        W84784  36.575  39.960   4.813
20841W        W84785   4.211   5.368   0.879
20842W        W84786  10.167  18.622   3.866
20843W        W84787  15.724  15.588  13.487
20844W        W84788  19.244   7.240   0.254
20845W        W84789   2.340  24.100   2.266
20846W        W84790  34.591  29.616  11.488
20847W        W84791  18.611   9.187  13.882
20848W        W84792   2.879  39.010   1.839
20849W        W84793  34.413  35.031  13.501
20850W        W84794  25.980   1.483  13.796
20851W        W84795  42.298  36.533  14.396
20852W        W84796  43.421   7.872  11.026
20853W        W84797   0.489  14.681  12.958
20854W        W84798  43.365  28.067   3.232
20855W        W84799  36.492  41.452  13.357
20856W        W84800   3.915   5.309  12.578
20857W        W84801   4.715  10.312   2.333
20858W        W84802   1.835  13.321   1.888
20859W        W84803  15.624  41.877   0.299
20860W        W84804  23.002   1.759  13.943
20861W        W84805  21.171  33.940  13.437
20862W        W84806  12.665  33.063   1.734
20863W        W84807   0.388   0.837   1.891
20864W        W84808  10.381  15.786  14.894
20865W        W84809   5.901   4.317   2.347
20866W        W84810   0.745  20.647   0.941
20867W        W84811  29.941  32.949   4.343
20868W        W84812  19.073  44.349   3.854
20869W        W84813   3.878  28.177   0.732
20870W        W84814  37.547   0.919   1.277
20871W        W84815  30.140  43.823  12.922
20872W        W84816   7.377   6.713  11.554
20873W        W84817   6.358  34.892   5.236
20874W        W84818  39.462  37.879  12.004
20875W        W84819   2.783  43.780  14.488
20876W        W84820   8.261  32.954   1.235
20877W        W84821   8.683  12.652  12.907
20878W        W84822  39.048  38.934  12.960
20879W        W84823  11.198  11.293   2.715
20880W        W84824   7.371  17.760   2.183
20881W        W84825  12.685  17.076   0.730
20882W        W84826  32.113  36.068   1.252
20883W        W84827   7.345  18.135   9.949
20884W        W84828  16.614   8.262  13.547
20885W        W84829   9.193  17.710   0.344
20886W        W84830  17.619  22.251  10.000
20887W        W84831  26.545  42.355   9.644
20888W        W84832  26.673  22.010  13.980
20889W        W84833  26.615  13.229   1.368
20890W        W84834  38.015  30.641   0.730
20891W        W84835  20.582  38.935  14.484
20892W        W84836  10.814   8.196  11.601
20893W        W84837  16.254  39.909  12.938
20894W        W84838  20.048   0.801   0.396
20895W        W84839  25.648  12.690  10.520
20896W        W84840  33.400   7.218  14.358
20897W        W84841  43.970  14.802   0.385
20898W        W84842  41.470  12.359   2.806
20899W        W84843  25.506  17.226   1.718
20900W        W84844  28.185  18.291  12.441
20901W        W84845  13.136  36.895  11.877
20902W        W84846  24.479  39.934   4.698
20903W        W84847  32.538   8.881  11.890
20904W        W84848  41.412   5.206   4.292
20905W        W84849  11.249  36.499  11.497
20906W        W84850  32.928  17.636   4.763
20907W        W84851  14.166   1.808  11.555
20908W        W84852  22.526  41.976  12.464
20909W        W84853  27.040  42.481   2.302
20910W        W84854  19.741  28.531  13.518
20911W        W84855  33.116   5.772   4.790
20912W        W84856  38.382   8.204  12.888
20913W        W84857  38.854  28.181  11.466
20914W        W84858  43.309  23.064   3.840
20915W        W84859  14.245  21.064   2.376
20916W        W84860  35.034  19.258  12.832
20917W        W84861   0.312  40.923   3.374
20918W        W84862  39.971   6.761  12.929
20919W        W84863  22.040  14.729   4.287
20920W        W84864  30.151  27.598  11.513
20921W        W84865  44.275  27.071  13.821
20922W        W84866  31.089  22.646   4.256
20923W        W84867  13.143   1.258  14.401
20924W        W84868   7.706  28.519   1.328
20925W        W84869  28.536  18.732   1.792
20926W        W84870   8.790  27.513  10.087
20927W        W84871  14.782  39.516   1.815
20928W        W84872  28.030  11.255   3.250
20929W        W84873   4.823  32.517   0.353
20930W        W84874  29.607  42.281   3.795
20931W        W84875  34.563  25.180  13.053
20932W        W84876   5.879  10.354   1.792
20933W        W84877  15.619  27.030  11.950
20934W        W84878  17.293  37.529  10.139
20935W        W84879  23.602  42.886   4.194
20936W        W84880  43.428   7.732   1.408
20937W        W84881  27.482  30.519   0.962
20938W        W84882  16.144  32.015   2.308
20939W        W84883  11.175  16.174   3.259
20940W        W84884  38.820  28.654  11.091
20941W        W84885  25.542  24.200   1.771
20942W        W84886   9.843  26.144   2.339
20943W        W84887  28.473  30.095   2.724
20944W        W84888  14.256  38.043  14.017
20945W        W84889  30.112  41.465   0.467
20946W        W84890  38.842  18.704  14.380
20947W        W84891  29.453  21.702  13.353
20948W        W84892  12.269   7.907   1.376
20949W        W84893  38.838   6.780   2.291
20950W        W84894  12.219  17.733   3.836
20951W        W84895  10.322  18.547   1.763
20952W        W84896  32.467  33.958  12.367
20953W        W84897  36.351  34.939  11.510
20954W        W84898  32.117  25.111  13.485
20955W        W84899  35.073  11.622   4.292
20956W        W84900  29.122   5.700   2.762
20957W        W84901  20.603  28.170   2.788
20958W        W84902  13.135  44.439  11.597
20959W        W84903  25.590  16.577   0.960
20960W        W84904  34.417  26.168  12.409
20961W        W84905  23.182  27.525   3.816
20962W        W84906   9.745   5.918  14.765
20963W        W84907   0.952  14.675  14.437
20964W        W84908  28.609  16.689  11.120
20965W        W84909   1.743   1.400  10.900
20966W        W84910   9.851  35.958  14.782
20967W        W84911  30.076  13.707   3.193
20968W        W84912  10.862  31.415   2.862
20969W        W84913   9.192  37.862   4.690
20970W        W84914   3.307  42.388  12.907
20971W        W84915  36.433  33.478   2.765
20972W        W84916   5.724   8.298   3.233
20973W        W84917  38.413  12.773  10.483
20974W        W84918  27.093  41.945  13.323
20975W        W84919  40.338  21.580  13.059
20976W        W84920  24.650  35.591   1.725
20977W        W84921  24.017  34.063   2.873
20978W        W84922  19.654   5.339   0.923
20979W        W84923   9.293  20.175  11.957
20980W        W84924  34.104  20.151  14.012
20981W        W84925   4.906  39.500  13.039
20982W        W84926  21.713   9.316  12.024
20983W        W84927  24.037  40.915   1.925
20984W        W84928   7.298   5.726   1.903
20985W        W84929  32.121   1.965   1.233
20986W        W84930  23.114   1.370  12.521
20987W        W84931  18.610  38.348  12.446
20988W        W84932   1.263  44.856  13.432
20989W        W84933  34.464  28.494   1.440
20990W        W84934  15.291   8.843  10.040
20991W        W84935  32.966  30.111  14.920
20992W        W84936   3.308  26.199   4.775
20993W        W84937  16.110  18.665  11.374
20994W        W84938  31.932   5.259  10.991
20995W        W84939  26.996  39.889   1.849
20996W        W84940  24.517   8.186  10.469
20997W        W84941   4.884  31.941  12.523
20998W        W84942   4.435  41.473  13.371
20999W        W84943  32.903  23.004  11.495
21000W        W84944  11.835  26.679   2.317
21001W        W84945  18.258  28.075   0.381
21002W        W84946  28.166  13.605  10.496
21003W        W84947  41.978  14.629  10.524
21004W        W84948  41.990  13.186   4.685
21005W        W84949  20.128  23.034   2.310
21006W        W84950  41.963  17.127   1.339
21007W        W84951  14.774  44.463   3.694
21008W        W84952  34.522  34.483   2.203
21009W        W84953  28.038  34.471   1.857
21010W        W84954  41.942  10.815   2.360
21011W        W84955  29.589  21.262  10.110
21012W        W84956  28.941  17.593  13.325
21013W        W84957  10.745  21.528   4.315
21014W        W84958   2.934  23.044   1.433
21015W        W84959  22.527  19.108  13.385
21016W        W84960  22.199   8.761  13.523
21017W        W84961  41.836  23.177   1.324
21018W        W84962  44.884  28.047   3.347
21019W        W84963  40.536  14.230  12.992
21020W        W84964  27.946  30.553  10.476
21021W        W84965  25.714  40.991  11.574
21022W        W84966  16.600   0.467  11.374
21023W        W84967  28.973   5.378   2.792
21024W        W84968  16.662  34.119   3.658
21025W        W84969  16.102   2.438   9.982
21026W        W84970   6.883  33.103   0.771
21027W        W84971  28.965  30.466   2.309
21028W        W84972  16.184  29.044  12.514
21029W        W84973  32.032  31.477   0.896
21030W        W84974  25.016  38.367  13.849
21031W        W84975  14.224  33.475   4.197
21032W        W84976  10.204  24.481   2.867
21033W        W84977  22.197  35.558   3.374
21034W        W84978  18.113  40.391  11.607
21035W        W84979  32.945  31.018   2.859
21036W        W84980  40.872  17.103  11.053
21037W        W84981  42.499  43.018   9.979
21038W        W84982   6.184  35.472   2.364
21039W        W84983  20.254  30.089   1.698
21040W        W84984   1.436  22.609   3.806
21041W        W84985  37.402   5.227   0.386
21042W        W84986  14.310  37.557   2.776
21043W        W84987  29.434  14.751   5.205
21044W        W84988  34.990  31.925  13.545
21045W        W84989   2.358  38.502   4.723
21046W        W84990  18.753  15.247  13.968
21047W        W84991  38.065  16.709   3.201
21048W        W84992  22.103  13.726   3.187
21049W        W84993  23.681  26.984  13.380
21050W        W84994  33.477  31.587   4.759
21051W        W84995  12.733  29.567  13.836
21052W        W84996  28.661  42.507   0.347
21053W        W84997   3.460  34.897  10.995
21054W        W84998   7.820  18.142   0.477
21055W        W84999  25.004  33.923  12.498
21056W        W85000  23.192  20.042   3.788
21057W        W85001  27.483  39.552  12.836
21058W        W85002  34.985  38.398  13.932
21059W        W85003  10.838  42.032   3.235
21060W        W85004   3.452  40.876   3.708
21061W        W85005   5.212  13.324   1.284
21062W        W85006  35.457  13.121  12.432
21063W        W85007  31.453  25.065   2.678
21064W        W85008  16.091  16.646   4.159
21065W        W85009  41.997  36.857   3.244
21066W        W85010  20.701  18.191  11.528
21067W        W85011  42.311   1.881   2.748
21068W        W85012  15.764   9.285   1.220
21069W        W85013  42.509   0.794   2.189
21070W        W85014  17.717   1.286  14.502
21071W        W85015  35.976  37.399   5.198
21072W        W85016  24.015  15.781  11.936
21073W        W85017  39.457  26.967  11.519
21074W        W85018   3.374  25.624   2.405
21075W        W85019  27.136  14.283   2.346
21076W        W85020  24.069  24.676   1.833
21077W        W85021   8.226  30.582  10.468
21078W        W85022  21.151  28.958   4.331
21079W        W85023  42.830  12.281   3.217
21080W        W85024  39.546   7.333  14.026
21081W        W85025  27.084   1.325  14.850
21082W        W85026   0.340  10.344  12.009
21083W        W85027  33.090  17.194   4.770
21084W        W85028  39.843  11.226  12.974
21085W        W85029  18.283   4.820   1.382
21086W        W85030  33.462  29.943  13.351
21087W        W85031  18.227   4.339   3.178
21088W        W85032  21.177  34.492   9.955
21089W        W85033  33.899  34.970   0.780
21090W        W85034  32.505  40.818  13.920
21091W        W85035  16.690  37.338   4.321
21092W        W85036  26.962  42.399   2.663
21093W        W85037  18.611  12.289   0.775
21094W        W85038   8.382  43.868  12.973
21095W        W85039   1.912  19.205  11.044
21096W        W85040  14.724   2.455   5.153
21097W        W85041  25.181  29.556  14.807
21098W        W85042  39.886  19.095   1.921
21099W        W85043  27.509  35.457  12.928
21100W        W85044  38.460  14.125   4.820
21101W        W85045  10.686  42.932   3.644
21102W        W85046  41.320  38.904   0.435
21103W        W85047   7.686  27.005   1.746
21104W        W85048   0.865  18.572  13.932
21105W        W85049  22.675  11.625   0.370
21106W        W85050  43.514  12.279   0.267
21107W        W85051  39.838  36.450  10.983
21108W        W85052  43.898  19.259  12.010
21109W        W85053  28.978  39.057  14.884
21110W        W85054  35.921  27.539  13.404
21111W        W85055  35.404  33.559  13.989
21112W        W85056   8.799  30.096   2.815
21113W        W85057  20.621  14.635  13.035
21114W        W85058  44.482   2.430   1.374
21115W        W85059  42.882  11.780   5.178
21116W        W85060  32.468  28.597  12.832
21117W        W85061   9.385  27.679   3.169
21118W        W85062   0.764   7.174  11.994
21119W        W85063   1.851   2.819  12.416
21120W        W85064   1.740  39.984  13.473
21121W        W85065  37.479  16.157  13.338
21122W        W85066  41.465   9.150  14.791
21123W        W85067  11.356  28.661   1.411
21124W        W85068  17.235  40.476  13.542
21125W        W85069  41.393  28.184  11.896
21126W        W85070   7.882  34.408  12.377
21127W        W85071  29.546  31.598  14.298
21128W        W85072  15.670  32.140  11.473
21129W        W85073   9.862  16.672   3.771
21130W        W85074  11.857  43.824  12.026
21131W        W85075  38.901  24.022   0.245
21132W        W85076  25.505  10.153  12.530
21133W        W85077   7.903  10.850  10.419
21134W        W85078  29.924   7.809  13.931
21135W        W85079  34.505  37.934   0.961
21136W        W85080  28.586  40.342   4.129
21137W        W85081  24.695  35.530  10.532
21138W        W85082  22.584  25.972  10.911
21139W        W85083  39.048   4.267  13.793
21140W        W85084  17.132  28.124  11.084
21141W        W85085  18.246  31.137  11.074
21142W        W85086  10.204  30.994  14.289
21143W        W85087  32.581  10.666  10.595
21144W        W85088  43.323  30.633   4.323
21145W        W85089  17.745  12.643   4.753
21146W        W85090  31.015   8.838  13.005
21147W        W85091  23.238  36.005  11.459
21148W        W85092  22.168  19.692  13.349
21149W        W85093  10.764  37.537  10.564
21150W        W85094  35.391  22.055   3.835
21151W        W85095  10.146  44.388   4.829
21152W        W85096   2.330  44.912   3.776
21153W        W85097  37.400   3.261   2.342
21154W        W85098  42.509  20.103  11.500
21155W        W85099  13.107  41.505  14.424
21156W        W85100  13.837  12.140  11.577
21157W        W85101   1.284  25.658  14.482
21158W        W85102   4.933  22.653   0.759
21159W        W85103   9.302  26.176  13.432
21160W        W85104  25.645  19.168  11.909
21161W        W85105   6.193  10.749  14.396
21162W        W85106  14.703  22.080  11.401
21163W        W85107  23.105  35.060   3.630
21164W        W85108  15.089   2.789  12.572
21165W        W85109  18.218  33.497   4.653
21166W        W85110  21.073   3.862   2.898
21167W        W85111   9.365  22.511  11.976
21168W        W85112   9.149  20.254  13.968
21169W        W85113  24.023  15.741  13.329
21170W        W85114  33.540  13.210   0.906
21171W        W85115  21.559  23.667  13.352
21172W        W85116   1.738  32.998  12.088
21173W        W85117   1.282  32.072  12.556
21174W        W85118  36.844   3.284  13.861
21175W        W85119   3.419  35.030  14.876
21176W        W85120  33.481  22.233  14.983
21177W        W85121  13.654  35.988   1.830
21178W        W85122  21.693  18.590  13.453
21179W        W85123   9.385   7.267   1.211
21180W        W85124  21.220  26.016   3.293
21181W        W85125   4.784   6.345   0.438
21182W        W85126   9.231  28.666   2.283
21183W        W85127   2.353  21.614   4.789
21184W        W85128   2.773  26.526  10.117
21185W        W85129  26.589  27.617  11.944
21186W        W85130  26.091  35.056   1.707
21187W        W85131  32.567   4.789   3.709
21188W        W85132   2.279  38.541  11.501
21189W        W85133   0.292  34.995  12.576
21190W        W85134  22.050  29.470  11.109
21191W        W85135  34.040  19.694   0.923
21192W        W85136  19.682  35.557  10.578
21193W        W85137   2.803  35.107  14.020
21194W        W85138  28.548   0.823  13.475
21195W        W85139   0.486  19.218  10.421
21196W        W85140  43.927  19.130  13.482
21197W        W85141  14.767  44.309   1.852
21198W        W85142  41.313  36.978   3.318
21199W        W85143  22.212  30.430   3.742
21200W        W85144  40.038  42.460   1.230
21201W        W85145  27.987  26.526  14.469
21202W        W85146  42.012  11.746   1.786
21203W        W85147   5.310  19.580   2.189
21204W        W85148  30.997  33.389  13.900
21205W        W85149  37.891  23.732   4.304
21206W        W85150   1.478  36.413   3.323
21207W        W85151  31.136   6.757   3.689
21208W        W85152   6.898  44.890   4.118
21209W        W85153  42.823  37.051  10.599
21210W        W85154   4.318  18.221   2.418
21211W        W85155  37.481  31.102  11.124
21212W        W85156  31.636   6.700  13.064
21213W        W85157  16.718  44.467   3.741
21214W        W85158  23.029  44.367   3.249
21215W        W85159  28.077  33.014   4.149
21216W        W85160  11.342  35.906  13.394
21217W        W85161  44.856  23.494   3.193
21218W        W85162  41.949  31.420   2.773
21219W        W85163  17.191  10.708   2.364
21220W        W85164  33.416  43.353  12.347
21221W        W85165  10.666  23.038  11.935
21222W        W85166   5.240   0.290   3.274
21223W        W85167  17.287  29.942   1.427
21224W        W85168  43.770  15.720   3.749
21225W        W85169   3.779  31.533  14.424
21226W        W85170  21.547  10.851   4.787
21227W        W85171  21.562   5.222  10.600
21228W        W85172  30.590   9.772  12.987
21229W        W85173  20.730  25.559   1.812
21230W        W85174  32.131   7.803   3.309
21231W        W85175  36.503  18.646  10.101
21232W        W85176   6.902  31.062   1.439
21233W        W85177   3.436   5.689   2.185
21234W        W85178   3.217  42.896  10.408
21235W        W85179  13.322  13.656  11.863
21236W        W85180   6.774  44.374   0.288
21237W        W85181  27.591  34.012  13.472
21238W        W85182  31.444  35.071   1.857
21239W        W85183   3.761  26.040   1.329
21240W        W85184  32.095  10.673   0.849
21241W        W85185   8.700  34.111   3.250
21242W        W85186  29.485   9.243   2.244
21243W        W85187  42.489   1.454  12.460
21244W        W85188  29.065  30.604   4.804
21245W        W85189  22.677  22.675   2.793
21246W        W85190   7.704  24.103  11.604
21247W        W85191  10.200  13.322  10.405
21248W        W85192   8.713  27.110  13.821
21249W        W85193  15.294  19.611   3.774
21250W        W85194  34.974  14.267   2.338
21251W        W85195  38.938  13.740   1.367
21252W        W85196   2.229   0.425  11.483
21253W        W85197  27.596  35.506   4.140
21254W        W85198  43.959  37.978  14.928
21255W        W85199  39.319  39.058   1.700
21256W        W85200   0.485  41.985  12.076
21257W        W85201  17.074  11.818   4.339
21258W        W85202   0.903  19.265   1.908
21259W        W85203   9.655  18.159   3.289
21260W        W85204  20.073  24.084   5.159
21261W        W85205   5.427  38.991  13.923
21262W        W85206  17.207   4.709   3.357
21263W        W85207  18.083  18.120   3.823
21264W        W85208  36.964  15.782  14.946
21265W        W85209  40.041  41.826   1.809
21266W        W85210  10.792  43.976   3.146
21267W        W85211  43.985  35.456   4.829
21268W        W85212  38.461  19.087  10.924
21269W        W85213   7.213  30.958  10.592
21270W        W85214  37.955   9.837   2.203
21271W        W85215  36.540  40.979  11.553
21272W        W85216  31.559  27.114  10.414
21273W        W85217  13.620  34.523  11.508
21274W        W85218  26.595  27.476   2.676
21275W        W85219  35.071   8.167  13.542
21276W        W85220  25.044  32.116  13.005
21277W        W85221  32.496  21.031  12.846
21278W        W85222  44.892  21.141  11.386
21279W        W85223  44.262  33.995  10.507
21280W        W85224  25.176  34.520   0.396
21281W        W85225  28.467  28.139   0.438
21282W        W85226  26.511  44.357  10.892
21283W        W85227   6.921  12.226  13.447
21284W        W85228   3.448  11.727  12.033
21285W        W85229  10.285  37.087  12.937
21286W        W85230  13.211  11.791  10.624
21287W        W85231   7.257  16.663   2.747
21288W        W85232  32.415  24.650   1.402
21289W        W85233  29.174  35.517  10.485
21290W        W85234   5.292  27.949   1.710
21291W        W85235  10.317  13.802  10.953
21292W        W85236  25.610   0.338   1.318
21293W        W85237  19.646   4.208   2.252
21294W        W85238   4.933  10.252  12.956
21295W        W85239  34.886  44.307   3.236
21296W        W85240   3.894  24.154   0.327
21297W        W85241   9.646  16.601   1.815
21298W        W85242  27.064  10.384  10.527
21299W        W85243  38.984  20.553  14.837
21300W        W85244  24.149  17.742   1.847
21301W        W85245  14.339  35.864  11.894
21302W        W85246   4.209  38.843   0.854
21303W        W85247  16.756  23.993  10.915
21304W        W85248   6.712  39.933   2.733
21305W        W85249  38.841  27.124   4.351
21306W        W85250  42.357   6.709  12.523
21307W        W85251  32.518  39.428   1.419
21308W        W85252  27.537  15.717   3.736
21309W        W85253   2.343  16.231  12.561
21310W        W85254  22.247  25.538   1.859
21311W        W85255  42.439  23.048  11.402
21312W        W85256  32.452   2.913   1.260
21313W        W85257  21.537  30.545   1.827
21314W        W85258   7.359  23.104  13.461
21315W        W85259  11.294  10.872   0.463
21316W        W85260   3.806  34.909   4.634
21317W        W85261   0.912  41.878   4.275
21318W        W85262   7.370  16.626  13.793
21319W        W85263  12.818  10.179  11.898
21320W        W85264  38.984  33.468  10.436
21321W        W85265  11.658  32.585  13.357
21322W        W85266  33.021  28.085   4.685
21323W        W85267  21.050  12.857  12.365
21324W        W85268  31.114  29.173   2.671
21325W        W85269  20.682   6.796   4.285
21326W        W85270  28.123  25.201   1.319
21327W        W85271  12.179  24.710   1.362
21328W        W85272  39.329   3.845  13.314
21329W        W85273  13.607   8.278  13.320
21330W        W85274  15.312  34.084  13.437
21331W        W85275  32.442  28.126  14.929
21332W        W85276  36.853   2.966   2.805
21333W        W85277  12.730  20.742   0.387
21334W        W85278  28.624  32.626  13.035
21335W        W85279  22.052  34.959  14.319
21336W        W85280   8.193   1.256  13.927
21337W        W85281   1.955   9.152  11.562
21338W        W85282  41.884  10.770   2.825
21339W        W85283  32.422  12.222  14.479
21340W        W85284  34.478  34.559   4.211
21341W        W85285  39.846  21.613  12.974
21342W        W85286  28.172  44.382   0.482
21343W        W85287  16.603   4.274   1.338
21344W        W85288  11.631   9.273   1.324
21345W        W85289   6.325  33.529  14.896
21346W        W85290  19.775   3.717  12.394
21347W        W85291  44.398   4.284   4.836
21348W        W85292  17.125  13.678  11.112
21349W        W85293  43.922  23.184  14.795
21350W        W85294  35.942   4.253  10.957
21351W        W85295  27.958  35.378   4.258
21352W        W85296  40.909  37.437   3.838
21353W        W85297  14.632  14.311  12.902
21354W        W85298   7.793  30.127   4.194
21355W        W85299  34.869  21.212   0.411
21356W        W85300  34.967  21.038  14.902
21357W        W85301  21.075  15.759  11.553
21358W        W85302  35.562  24.141  12.361
21359W        W85303  44.957  23.714   2.769
21360W        W85304  42.354  18.291   2.229
21361W        W85305  28.520  22.514   3.177
21362W        W85306  38.533  28.143  14.409
21363W        W85307  23.703  38.028   2.205
21364W        W85308  27.605  18.072  11.389
21365W        W85309   9.379  18.130   0.868
21366W        W85310  39.997   0.938  13.043
21367W        W85311  25.693   0.824  13.847
21368W        W85312  25.006   8.366   2.776
21369W        W85313  42.355  44.495  13.886
21370W        W85314  27.620  22.996   0.940
21371W        W85315  19.760   3.905   2.360
21372W        W85316   5.431  42.423   0.432
21373W        W85317  37.914  23.604   2.369
21374W        W85318  38.393  37.365  13.865
21375W        W85319  40.353  12.155   3.356
21376W        W85320   8.661  30.491  14.451
21377W        W85321  35.903   5.699   0.822
21378W        W85322  20.741  24.120   0.761
21379W        W85323  32.406  34.478  12.067
21380W        W85324   5.281   2.761   4.777
21381W        W85325   6.200  44.793   3.156
21382W        W85326  16.594  22.192  11.471
21383W        W85327  27.946  29.982  11.445
21384W        W85328   1.767  29.465  14.954
21385W        W85329  24.650   0.939   1.751
21386W        W85330   1.942  33.413  10.617
21387W        W85331   4.786  27.564   0.807
21388W        W85332  38.862  13.821   2.274
21389W        W85333  16.568   4.868   2.408
21390W        W85334  23.573  20.594   2.740
21391W        W85335   6.805   7.292  14.281
21392W        W85336  30.058   1.473   0.247
21393W        W85337  28.468  26.468   1.258
21394W        W85338  20.766  30.935   2.214
21395W        W85339   1.483  11.153   1.278
21396W        W85340  21.721  37.458   4.216
21397W        W85341  44.380  44.374  12.515
21398W        W85342  36.990  10.703  12.507
21399W        W85343  27.136   1.760  14.831
21400W        W85344  44.007  19.772   1.925
21401W        W85345  32.599  22.131  14.881
21402W        W85346  12.754  18.170   2.316
21403W        W85347   6.310   8.753  10.524
21404W        W85348  44.977  33.127  11.499
21405W        W85349  41.841  39.835  12.478
21406W        W85350  30.621   7.382  10.496
21407W        W85351  34.391  40.502  11.947
21408W        W85352  27.119  27.527   4.703
21409W        W85353  28.984  41.991   4.235
21410W        W85354  29.545  36.888   1.883
21411W        W85355   6.335   3.946   4.751
21412W        W85356  16.307  21.211  14.820
21413W        W85357   1.409  33.582  14.830
21414W        W85358  34.999  24.717  14.361
21415W        W85359   6.274   9.185   3.318
21416W        W85360  31.119  15.259  14.781
21417W        W85361  22.157  18.553  13.973
21418W        W85362  21.608  25.021  13.388
21419W        W85363   8.894  42.846  12.091
21420W        W85364  15.320  27.171   2.697
21421W        W85365  31.410  11.281  10.924
21422W        W85366  42.484  21.525  14.800
21423W        W85367  18.673   2.882   4.144
21424W        W85368  15.758   8.160  12.054
21425W        W85369  43.786   6.779  12.902
21426W        W85370  37.356  15.667   4.775
21427W        W85371  19.551   0.366   2.801
21428W        W85372  10.684  40.467  10.470
21429W        W85373  15.317  19.621  13.828
21430W        W85374  24.664  25.644  12.889
21431W        W85375  39.913  42.920   2.370
21432W        W85376  36.500  14.656  12.939
21433W        W85377  12.680   1.754   2.685
21434W        W85378  27.562  35.445  14.882
21435W        W85379  22.632   6.737  11.610
21436W        W85380  41.412  22.094  11.544
21437W        W85381  36.349   6.331  10.920
21438W        W85382  11.719  44.380   1.851
21439W        W85383  40.459   8.891  14.474
21440W        W85384  17.169  38.947  13.967
21441W        W85385  19.169  25.540  11.417
21442W        W85386  33.905   5.801  12.951
21443W        W85387  18.561  14.680   0.859
21444W        W85388  14.301   8.867  12.887
21445W        W85389  28.594  33.920   3.863
21446W        W85390  41.933   3.297   0.779
21447W        W85391  10.867  11.344   4.697
21448W        W85392   3.900  13.772   4.277
21449W        W85393  38.049  20.258  11.010
21450W        W85394  14.129  10.250   0.289
21451W        W85395  34.404  30.642   1.214
21452W        W85396   3.392  40.955  12.986
21453W        W85397   2.953  19.133   2.194
21454W        W85398   1.738  34.526  11.023
21455W        W85399  29.027  25.971  14.421
21456W        W85400  23.093   1.732   3.640
21457W        W85401  37.553   8.757  13.361
21458W        W85402  32.623  29.562   3.187
21459W        W85403   9.769  11.273   3.733
21460W        W85404  11.814  20.035   3.871
21461W        W85405  43.972   9.787   4.307
21462W        W85406  10.873  20.689  14.490
21463W        W85407  19.050  43.813   1.889
21464W        W85408   5.254  42.905  11.855
21465W        W85409   7.381  17.649   1.743
21466W        W85410  13.158  12.161  14.812
21467W        W85411   8.704  43.967   2.290
21468W        W85412  25.059  22.135  13.495
21469W        W85413  25.637  30.061   2.231
21470W        W85414  37.542  27.683  13.407
21471W        W85415  35.589   1.940   3.194
21472W        W85416  13.826  36.570  13.044
21473W        W85417  31.554  16.238  14.293
21474W        W85418   1.406  10.201  14.955
21475W        W85419  23.650  17.095   3.266
21476W        W85420   6.214  41.301  12.480
21477W        W85421  17.714  32.464  13.496
21478W        W85422  33.525  37.373   3.849
21479W        W85423  22.072  28.097  13.522
21480W        W85424  10.264  33.390   0.898
21481W        W85425  19.184  37.447  12.500
21482W        W85426   0.386  27.952  10.628
21483W        W85427  17.274   6.293  11.055
21484W        W85428  44.872  17.208   0.766
21485W        W85429  33.890  20.213   3.249
21486W        W85430  33.535  20.595  13.467
21487W        W85431   2.240  19.177   1.394
21488W        W85432   1.802  31.460   1.305
21489W        W85433  11.715   0.856  10.990
21490W        W85434  29.557  43.271  14.498
21491W        W85435   5.829   5.304  13.364
21492W        W85436   5.702  15.146   2.833
21493W        W85437  44.819  40.305   0.800
21494W        W85438  21.587   1.382   4.678
21495W        W85439  24.505   2.765  14.797
21496W        W85440   0.368  40.024  11.090
21497W        W85441  25.551  26.468  14.486
21498W        W85442  12.818  17.175  14.333
21499W        W85443   2.406  32.577  10.461
21500W        W85444   9.744   0.300  10.960
21501W        W85445  38.825  37.535   3.848
21502W        W85446  17.624  19.149   0.246
21503W        W85447  39.009  37.837   4.611
21504W        W85448  37.066  14.799   1.743
21505W        W85449  16.299  13.673   0.861
21506W        W85450  34.502   3.283   2.221
21507W        W85451  17.597  35.940  11.869
21508W        W85452  43.325  41.508   0.736
21509W        W85453  12.137  35.082   0.966
21510W        W85454   0.817  29.586  10.471
21511W        W85455  42.321  37.384   1.907
21512W        W85456  25.962  20.161  13.997
21513W        W85457  12.677   6.726  13.450
21514W        W85458  44.280  23.119  10.914
21515W        W85459  22.167  28.582  12.031
21516W        W85460  25.967  37.559   0.423
21517W        W85461  30.051  23.209   1.234
21518W        W85462   6.402  31.503   3.237
21519W        W85463  26.020  40.408   3.704
21520W        W85464   9.701  39.357  14.773
21521W        W85465   5.703  33.056   3.681
21522W        W85466  12.806  35.964  13.506
21523W        W85467  44.897  31.074   1.254
21524W        W85468   3.293  41.315   2.829
21525W        W85469  37.929  37.949  14.012
21526W        W85470  42.457  11.647   2.189
21527W        W85471   2.867   4.437  13.450
21528W        W85472  41.334   0.981   5.169
21529W        W85473  23.497  39.870   1.248
21530W        W85474  30.423  19.108  13.959
21531W        W85475  29.967  37.985   1.756
21532W        W85476  28.034  36.524  14.791
21533W        W85477  44.803   9.706   1.848
21534W        W85478   4.720  34.087   0.350
21535W        W85479  43.316  34.986   4.782
21536W        W85480  13.193  35.975  12.991
21537W        W85481  13.772  18.659   0.391
21538W        W85482  25.517  29.654   1.257
21539W        W85483  42.392  33.028  14.289
21540W        W85484  39.317   8.786  13.820
21541W        W85485   7.673  23.232   4.700
21542W        W85486  30.590  10.734   1.745
21543W        W85487  30.004  30.631  14.781
21544W        W85488  26.039  44.826  11.458
21545W        W85489  28.671  27.608  10.644
21546W        W85490  16.215  28.137   1.894
21547W        W85491  35.601   7.857   4.238
21548W        W85492  37.945  30.043   3.160
21549W        W85493  36.940   7.902  14.467
21550W        W85494  16.282  24.697   0.878
21551W        W85495  31.970  13.677  14.814
21552W        W85496   8.798   4.332   0.951
21553W        W85497  18.173  33.547   2.410
21554W        W85498  31.566  15.321  13.823
21555W        W85499   1.975   1.430   1.738
21556W        W85500  13.631  37.520   3.193
21557W        W85501  44.956  35.418   2.235
21558W        W85502  18.180  10.645  14.850
21559W        W85503   9.804  30.549  14.505
21560W        W85504  16.788  23.005  14.283
21561W        W85505   5.394   3.785   3.738
21562W        W85506  19.096  27.665  10.525
21563W        W85507  25.103  29.524   1.745
21564W        W85508   4.357  42.290   2.178
21565W        W85509  42.343  11.774  12.004
21566W        W85510  27.617  35.871  10.558
21567W        W85511  35.556  30.028  10.616
21568W        W85512  20.076  18.254  14.822
21569W        W85513  28.655  37.863  13.321
21570W        W85514  17.217  30.065  13.486
21571W        W85515  44.003   2.392   1.222
21572W        W85516  29.428   5.345   0.371
21573W        W85517   0.865   7.391   4.232
21574W        W85518   4.339  18.162  11.099
21575W        W85519  14.820  33.405  13.039
21576W        W85520  18.066  19.773   4.700
21577W        W85521  19.695  33.098   9.934
21578W        W85522  29.938  11.645   0.728
21579W        W85523  22.506  33.421   4.149
21580W        W85524  13.245   5.376   2.694
21581W        W85525   2.945  26.108  10.520
21582W        W85526  21.240  16.651  13.990
21583W        W85527  27.156  30.108  14.313
21584W        W85528  24.715  32.044   4.762
21585W        W85529   9.873   0.758   1.311
21586W        W85530   2.412  36.577  10.454
21587W        W85531  17.173  43.009   5.133
21588W        W85532  12.196  24.989   1.346
21589W        W85533  21.576  38.556   0.817
21590W        W85534  30.137  27.943   1.274
21591W        W85535   0.249  12.310  14.007
21592W        W85536   7.798  44.764  13.472
21593W        W85537  16.605  20.708   3.812
21594W        W85538   2.876  33.884  14.854
21595W        W85539  12.125   4.304  10.422
21596W        W85540  15.809   6.835   1.219
21597W        W85541  18.295   2.745  13.975
21598W        W85542   4.431  43.492   2.211
21599W        W85543  14.262  14.658   0.279
21600W        W85544  35.855  15.236   0.799
21601W        W85545  38.544  12.691  13.907
21602W        W85546  44.772  35.025   0.460
21603W        W85547  40.799  26.698   4.726
21604W        W85548   2.430  44.794   0.358
21605W        W85549  30.462  30.082   1.898
21606W        W85550   8.803  30.932   3.781
21607W        W85551  21.149  34.059  14.827
21608W        W85552  34.421  28.074  11.877
21609W        W85553   1.329  28.641   1.738
21610W        W85554  33.950  41.426  13.357
21611W        W85555  32.093   3.395   4.232
21612W        W85556  21.580  43.915  10.585
21613W        W85557   8.279  42.507  13.457
21614W        W85558  20.548   8.820   0.311
21615W        W85559  39.344  13.755   0.384
21616W        W85560   8.249  11.723   4.153
21617W        W85561   5.197  44.819   0.448
21618W        W85562  22.509  44.957  14.284
21619W        W85563  13.808  20.754  13.949
21620W        W85564  23.049  20.564   0.955
21621W        W85565  17.741   2.255  11.108
21622W        W85566  31.521   4.894   4.160
21623W        W85567  12.785   0.269  13.398
21624W        W85568  34.875  23.555  12.896
21625W        W85569  40.895  31.517  14.281
21626W        W85570  27.466  42.961  13.404
21627W        W85571  24.606  11.301  12.889
21628W        W85572  21.061  30.071  13.479
21629W        W85573   9.288  11.627   3.183
21630W        W85574  22.684   8.293  11.975
21631W        W85575  21.592  37.925   4.299
21632W        W85576  39.355  17.769  11.944
21633W        W85577  30.596  35.021   4.645
21634W        W85578  20.235   8.291  10.573
21635W        W85579  20.066  41.472   2.716
21636W        W85580  30.942   8.372   1.250
21637W        W85581  43.955   0.411   3.852
21638W        W85582  30.585  33.999   4.354
21639W        W85583  27.091   3.891  13.464
21640W        W85584   8.333  44.997  11.510
21641W        W85585  28.649  22.163   0.787
21642W        W85586  35.049  42.483  13.914
21643W        W85587  36.547   7.703   1.270
21644W        W85588  40.352  32.033   1.747
21645W        W85589   6.805   3.807  12.404
21646W        W85590  40.481  15.207   2.815
21647W        W85591   3.237  34.526  11.424
21648W        W85592  44.917  16.080  13.360
21649W        W85593  35.067  40.991   1.432
21650W        W85594  14.809   7.705   1.741
21651W        W85595   1.309  20.188  13.958
21652W        W85596  17.763   4.770   2.723
21653W        W85597  41.822  13.210   3.663
21654W        W85598  20.652  15.697  13.511
21655W        W85599  44.440  38.036  13.842
21656W        W85600  26.053  12.756   2.778
21657W        W85601  21.042  23.113  14.881
21658W        W85602  19.105  37.838   1.261
21659W        W85603  20.260  10.150  12.861
21660W        W85604  18.678  33.127  12.012
21661W        W85605  10.816  13.648   2.752
21662W        W85606  42.830   1.783   3.338
21663W        W85607  43.347  10.240  11.503
21664W        W85608   1.823   6.233  10.959
21665W        W85609  39.821  44.281   2.251
21666W        W85610  33.978  36.437  11.540
21667W        W85611   3.366  15.821   1.700
21668W        W85612  38.489   5.780  11.038
21669W        W85613  27.539   7.788   3.660
21670W        W85614  34.873  12.304  14.306
21671W        W85615  23.528  23.513  12.579
21672W        W85616  16.691  33.519  12.885
21673W        W85617  10.234  26.540  10.103
21674W        W85618  22.161  18.695   1.217
21675W        W85619   3.881  13.639   2.277
21676W        W85620  23.699  29.553   0.952
21677W        W85621  34.991  11.353  12.970
21678W        W85622  10.791  35.577   0.802
21679W        W85623  21.617  31.089  11.108
21680W        W85624  32.116  25.165   4.116
21681W        W85625  37.833  38.853  14.966
21682W        W85626  19.758  17.774   2.877
21683W        W85627  19.686  18.662  11.561
21684W        W85628  35.989   5.848  11.442
21685W        W85629   9.348  40.866  13.976
21686W        W85630  31.990  25.013  14.969
21687W        W85631  19.704   7.211  11.532
21688W        W85632  29.657  34.008   2.865
21689W        W85633   9.779   2.789   2.324
21690W        W85634  37.354  31.081   2.867
21691W        W85635  26.597  41.440  11.947
21692W        W85636  41.466  36.866   2.707
21693W        W85637   6.356   2.453  14.941
21694W        W85638  15.317  25.491  14.400
21695W        W85639  32.533  41.365  11.539
21696W        W85640   6.338  42.911   2.681
21697W        W85641  33.623  28.140  10.512
21698W        W85642  31.985  24.596  12.020
21699W        W85643  37.031   7.219   1.784
21700W        W85644  30.428  36.057   2.870
21701W        W85645  19.687   8.880  12.517
21702W        W85646  37.457   4.272  13.335
21703W        W85647  34.486  35.852   2.246
21704W        W85648  26.500  15.092   3.158
21705W        W85649  31.999  35.558  10.543
21706W        W85650   8.698  40.002  12.348
21707W        W85651  31.145  30.427   4.200
21708W        W85652  27.184  40.018   0.863
21709W        W85653  35.058  16.625   4.790
21710W        W85654   1.879   5.281  13.426
21711W        W85655  21.688   5.899  12.545
21712W        W85656  26.141   9.731  14.022
21713W        W85657  18.639  38.869  14.999
21714W        W85658  23.086  37.376  10.124
21715W        W85659  12.299   5.386  10.453
21716W        W85660  26.184  18.579   3.196
21717W        W85661  28.565  29.065   0.302
21718W        W85662  27.973   1.761   5.207
21719W        W85663  37.858  35.452   2.772
21720W        W85664  12.746   2.229   4.726
21721W        W85665  27.678   2.245   2.855
21722W        W85666  42.441  25.552  14.864
21723W        W85667  29.541   5.785  11.063
21724W        W85668  43.441  21.198  13.898
21725W        W85669  20.526  38.949   2.203
21726W        W85670  44.846  38.442  14.441
21727W        W85671  19.713  14.206   2.413
21728W        W85672   3.864  24.536  12.563
21729W        W85673  21.171  30.517  14.430
21730W        W85674   2.743   3.270  13.822
21731W        W85675  17.069   9.343  14.400
21732W        W85676  37.938  17.712   0.967
21733W        W85677   2.821  13.201   1.385
21734W        W85678   3.424   4.218   4.273
21735W        W85679  26.022  23.202   0.413
21736W        W85680  12.628  12.844   2.681
21737W        W85681  17.774  20.659  11.940
21738W        W85682  16.129   8.267  14.395
21739W        W85683  20.714   6.756   3.254
21740W        W85684   5.386  33.581   3.657
21741W        W85685  31.152  33.471  14.485
21742W        W85686   2.828  35.911  14.281
21743W        W85687  13.757  11.276  14.478
21744W        W85688  12.230  34.984  14.815
21745W        W85689  41.396  20.759  11.951
21746W        W85690  39.337  18.265   0.943
21747W        W85691  33.130  20.034  13.884
21748W        W85692  10.634   4.409  14.426
21749W        W85693  22.726  19.046  10.617
21750W        W85694  26.702  10.252   0.321
21751W        W85695  26.464  18.561  13.520
21752W        W85696  26.173  38.466  14.491
21753W        W85697  35.544  18.601   0.267
21754W        W85698  34.381  28.992   1.902
21755W        W85699  25.583   0.275   3.673
21756W        W85700  34.048  20.166   1.906
21757W        W85701   8.221  18.295   1.300
21758W        W85702  36.076  24.011   0.259
21759W        W85703  25.042  15.749  14.805
21760W        W85704  31.495  42.453   0.428
21761W        W85705  43.878  44.895   2.367
21762W        W85706  12.678  30.085  12.080
21763W        W85707  32.041  17.591  12.378
21764W        W85708   6.405  37.459  10.415
21765W        W85709   5.340  33.005   0.264
21766W        W85710  27.081  37.856   4.828
21767W        W85711   3.720  18.626  14.279
21768W        W85712   1.833   8.222  12.362
21769W        W85713  29.148  16.264   0.435
21770W        W85714  27.057  32.056  11.946
21771W        W85715  22.114  34.435  14.503
21772W        W85716   2.303  29.447   1.379
21773W        W85717   1.391   2.915   4.780
21774W        W85718   6.216  32.939  10.436
21775W        W85719   5.884  22.712  11.918
21776W        W85720  10.275  10.296   2.208
21777W        W85721  32.394  22.642  14.021
21778W        W85722  44.973   9.193  12.349
21779W        W85723   4.876  11.261   4.297
21780W        W85724   5.880  16.776  11.081
21781W        W85725  41.327   5.890  12.445
21782W        W85726  44.953  15.308  14.957
21783W        W85727  32.481  39.370  13.328
21784W        W85728  31.427  17.184  11.422
21785W        W85729   4.725   8.275   2.856
21786W        W85730  18.093  22.168   1.303
21787W        W85731  26.514  22.200  10.082
21788W        W85732  18.073  33.989  11.553
21789W        W85733  11.828  23.992  11.921
21790W        W85734  22.196  22.655  12.890
21791W        W85735   7.801  13.815   3.866
21792W        W85736  31.153  25.539   1.848
21793W        W85737  36.427  33.462  14.468
21794W        W85738  32.049  11.182   0.820
21795W        W85739  25.616  43.884  14.979
21796W        W85740  24.177   6.766   2.805
21797W        W85741  22.250  42.781   2.234
21798W        W85742  19.565  43.326  13.014
21799W        W85743  12.253  32.992   2.842
21800W        W85744  19.621  23.641   1.274
21801W        W85745  14.718  15.293   1.711
21802W        W85746  31.147   4.719   0.397
21803W        W85747  38.824   2.739  14.419
21804W        W85748  30.584  44.969   1.320
21805W        W85749   9.164  35.064   4.757
21806W        W85750  43.292  37.986  12.539
21807W        W85751  12.630  44.953   3.702
21808W        W85752  38.959  35.062   4.632
21809W        W85753  12.135   1.330   1.755
21810W        W85754  39.907  28.531   4.153
21811W        W85755   4.361  15.716  13.825
21812W        W85756  20.555  32.582   0.890
21813W        W85757  15.779  23.523  13.843
21814W        W85758  30.142  44.288   3.786
21815W        W85759  35.912  26.103  14.324
21816W        W85760  31.607  19.273  12.973
21817W        W85761  30.654  40.931  11.083
21818W        W85762  35.889  26.488   3.827
21819W        W85763   2.735  28.056   4.756
21820W        W85764  24.675  20.768  12.505
21821W        W85765  39.500  20.663  14.982
21822W        W85766  13.683   9.881  12.434
21823W        W85767   1.379   4.704  11.522
21824W        W85768   9.290  43.998  10.425
21825W        W85769   8.196   0.936  12.388
21826W        W85770  12.156  32.429  12.906
21827W        W85771  44.490  44.419   4.344
21828W        W85772   2.845   3.391   0.740
21829W        W85773  22.703   6.690  12.340
21830W        W85774  33.584  11.289   2.700
21831W        W85775   6.344  31.104   4.836
21832W        W85776   0.765  42.973   3.307
21833W        W85777   1.903  16.275   2.695
21834W        W85778  33.417  26.672   1.215
21835W        W85779  29.978  31.912  11.858
21836W        W85780   4.905  34.921   2.260
21837W        W85781  38.984  14.278   2.242
21838W        W85782  11.865  28.013   0.372
21839W        W85783  14.141  36.486  11.573
21840W        W85784  16.583  29.042  10.971
21841W        W85785  25.972  44.306   3.155
21842W        W85786  38.862  38.531   5.136
21843W        W85787  43.281  42.284  11.060
21844W        W85788  16.316  11.317  11.123
21845W        W85789  11.697  35.903  12.844
21846W        W85790  34.584   1.850   0.308
21847W        W85791  34.477  37.490   1.251
21848W        W85792  16.683   7.265   3.308
21849W        W85793  23.706  33.903   2.182
21850W        W85794   0.407  16.726  14.834
21851W        W85795  22.596   2.811  11.127
21852W        W85796  35.037  12.746   2.781
21853W        W85797   9.876  10.737  14.983
21854W        W85798  40.823  25.042   4.181
21855W        W85799   6.237  14.670  11.489
21856W        W85800  26.586  42.283  10.966
21857W        W85801   8.775  14.305  14.435
21858W        W85802  24.651  23.655  14.918
21859W        W85803  17.093  30.013   3.339
21860W        W85804   0.460  27.135   0.879
21861W        W85805  19.253  30.522  12.050
21862W        W85806  43.335  22.589   3.158
21863W        W85807  43.415  33.023  12.013
21864W        W85808   8.719  42.920   3.172
21865W        W85809  13.126   0.248   1.357
21866W        W85810  29.644  11.293  10.413
21867W        W85811  19.751   7.901  13.015
21868W        W85812  17.119  29.159  13.837
21869W        W85813  27.125  40.915   1.439
21870W        W85814  32.068   3.335  12.926
21871W        W85815  37.428   3.954   4.206
21872W        W85816   6.861  27.621   1.859
21873W        W85817  19.643   4.287   1.736
21874W        W85818  27.522   2.917   0.929
21875W        W85819   3.307  39.036  11.926
21876W        W85820   1.468  17.683  13.935
21877W        W85821  13.666  21.231  12.944
21878W        W85822  32.093  33.026   0.777
21879W        W85823  26.561   9.691  13.345
21880W        W85824   9.296   4.271   4.757
21881W        W85825   3.240  27.606   3.281
21882W        W85826   9.352  32.470  11.381
21883W        W85827  40.470  36.402   3.640
21884W        W85828  23.680  27.059  12.847
21885W        W85829  18.742  21.622   4.827
21886W        W85830  41.913  15.589   2.397
21887W        W85831   8.735  24.676   2.309
21888W        W85832   0.431   7.286   0.960
21889W        W85833  19.740  27.535  14.842
21890W        W85834  16.193  18.224   3.759
21891W        W85835   6.728  10.213  11.919
21892W        W85836  20.094  18.714  11.416
21893W        W85837  20.080  43.446   3.372
21894W        W85838  33.393  41.009   0.371
21895W        W85839  23.725   5.274  12.989
21896W        W85840  41.505  25.618  11.547
21897W        W85841  11.179  11.842  13.426
21898W        W85842  43.919  29.951  12.968
21899W        W85843  26.968   0.327  11.058
21900W        W85844  37.898  17.164   2.305
21901W        W85845  16.576  37.042  11.526
21902W        W85846  30.036  18.284   4.832
21903W        W85847   3.336   4.824   4.208
21904W        W85848  35.426  37.532   3.318
21905W        W85849   4.787  15.136   3.186
21906W        W85850  43.817  30.423  13.453
21907W        W85851   4.352  11.823   0.251
21908W        W85852  14.812  10.160  11.396
21909W        W85853  44.840  35.493   4.830
21910W        W85854  29.128  38.010  11.428
21911W        W85855  23.197  32.513   0.276
21912W        W85856  10.289  31.568  12.449
21913W        W85857  26.657   0.442  14.906
21914W        W85858   9.337  10.346  11.865
21915W        W85859  16.285  11.218   4.275
21916W        W85860  41.474  28.522   1.850
21917W        W85861  23.214  12.822   0.419
21918W        W85862  19.188  44.945   4.253
21919W        W85863  42.859  16.155  13.829
21920W        W85864  16.619  12.271  14.291
21921W        W85865  28.547  10.304   3.672
21922W        W85866  25.053  44.334  11.873
21923W        W85867  19.134  20.073   4.768
21924W        W85868   8.282  26.065  12.836
21925W        W85869  41.414  33.559   0.925
21926W        W85870  21.581   5.312  13.808
21927W        W85871  28.975  17.198  13.832
21928W        W85872  14.097  41.044  14.436
21929W        W85873   6.820  44.916   4.657
21930W        W85874  31.907  18.634   5.211
21931W        W85875  23.238   9.278  14.818
21932W        W85876  12.246   9.356   0.246
21933W        W85877  30.611  15.788   3.155
21934W        W85878  32.479  33.477   1.800
21935W        W85879  41.927  17.654   1.292
21936W        W85880   7.399  17.800   4.622
21937W        W85881  31.587   1.458  13.468
21938W        W85882  24.155  33.936  10.632
21939W        W85883   6.766   2.913  11.441
21940W        W85884   4.316  16.290  14.973
21941W        W85885  38.959  35.994  13.798
21942W        W85886  22.247  15.657  10.902
21943W        W85887   7.211  38.040   0.892
21944W        W85888  20.765  44.271  11.998
21945W        W85889  15.263  25.024   2.413
21946W        W85890  35.028   1.918  13.052
21947W        W85891  43.339  36.928   2.208
21948W        W85892  28.510   8.306   4.283
21949W        W85893  25.120   6.917  14.377
21950W        W85894  16.704  29.965  11.935
21951W        W85895  21.056  36.875   3.306
21952W        W85896  29.484  13.261   1.752
21953W        W85897  20.069  41.460  12.515
21954W        W85898  20.039  17.101  13.383
21955W        W85899  28.025  29.003  14.501
21956W        W85900  24.529  32.556   2.790
21957W        W85901  40.054  36.883   4.327
21958W        W85902  28.514  23.595   3.839
21959W        W85903  37.956  17.738  12.973
21960W        W85904  28.508  43.508  10.630
21961W        W85905   3.322  44.475  13.953
21962W        W85906   5.283  38.468   0.733
21963W        W85907   8.192  44.366  11.378
21964W        W85908  42.362  29.004  13.844
21965W        W85909  38.489   1.447   9.464
21966W        W85910  12.354  26.562   3.722
21967W        W85911  11.177  41.853  11.048
21968W        W85912  31.507  33.947   2.221
21969W        W85913  32.890  40.348  11.861
21970W        W85914   6.847  28.446   5.669
21971W        W85915  20.267  33.412   4.651
21972W        W85916   2.257  13.149   2.751
21973W        W85917  30.568  34.110  12.039
21974W        W85918  21.080  27.522   2.330
21975W        W85919   8.200  34.032   1.434
21976W        W85920  35.894  26.475  10.954
21977W        W85921  23.694  25.527   3.208
21978W        W85922  26.973   9.355   4.260
21979W        W85923  34.081   4.204  13.988
21980W        W85924  23.219  31.512  14.787
21981W        W85925   6.225  12.306   2.884
21982W        W85926  20.741   9.665   2.291
21983W        W85927   6.376  12.749   4.190
21984W        W85928  42.835   2.296  11.047
21985W        W85929  10.187  38.034   5.264
21986W        W85930  26.018  38.866  10.503
21987W        W85931  37.066  25.683  14.941
21988W        W85932  36.435  38.907  14.452
21989W        W85933  43.916  10.359  14.409
21990W        W85934   8.190  23.700   3.666
21991W        W85935  27.980  24.004   3.734
21992W        W85936  19.718   0.747  11.444
21993W        W85937  23.660   0.292   4.222
21994W        W85938  27.580  19.067   1.795
21995W        W85939  15.802  17.296   2.180
21996W        W85940  23.577  17.752   1.779
21997W        W85941  29.116  42.933   1.340
21998W        W85942  30.522  41.536   4.335
21999W        W85943  23.699  43.789   1.414
22000W        W85944  18.786  26.083   3.180
22001W        W85945  10.723  34.940   4.143
22002W        W85946  39.353  22.087   2.685
22003W        W85947  33.521  37.467  14.298
22004W        W85948  39.350  28.534  11.497
22005W        W85949  36.394  31.067  14.359
22006W        W85950  33.066  16.791  14.969
22007W        W85951  38.427  42.823   0.956
22008W        W85952  40.358  38.457   0.259
22009W        W85953  20.706   4.859   0.395
22010W        W85954  31.960   5.759   0.770
22011W        W85955   2.734  31.631   0.437
22012W        W85956  35.883  28.572  12.452
22013W        W85957  27.537  38.528  10.430
22014W        W85958  10.249  19.538  10.604
22015W        W85959   8.834  25.179  11.056
22016W        W85960  28.575  23.178  13.478
22017W        W85961  35.466  12.825  14.282
22018W        W85962  37.007  16.655  14.764
22019W        W85963  26.471   1.971   1.387
22020W        W85964  21.624  29.999   0.812
22021W        W85965  31.084   4.210  13.449
22022W        W85966   8.224  40.382  11.502
22023W        W85967  12.847  41.303   3.242
22024W        W85968  29.152  17.248  10.915
22025W        W85969  18.082  11.200  12.579
22026W        W85970  29.969  26.568   4.181
22027W        W85971  25.066  27.176   0.385
22028W        W85972  20.688  19.704  11.551
22029W        W85973  32.549   6.852   0.941
22030W        W85974  24.228  23.062   3.313
22031W        W85975  12.147  43.282   2.844
22032W        W85976  30.581  30.147  14.974
22033W        W85977  11.856  30.559  12.918
22034W        W85978   7.790  35.983  12.521
22035W        W85979  29.498   9.704  12.489
22036W        W85980  21.612   2.897   3.739
22037W        W85981  34.914   4.700  13.372
22038W        W85982  13.324  25.095  11.524
22039W        W85983  33.049   0.485   1.713
22040W        W85984  18.764  38.958  12.533
22041W        W85985  28.647  25.970  14.847
22042W        W85986  31.578  43.917   3.307
22043W        W85987   1.417   2.341   3.385
22044W        W85988  16.742  38.347  14.481
22045W        W85989   5.746  31.580  14.295
22046W        W85990  35.948  39.001  12.578
22047W        W85991  38.860  20.613   1.834
22048W        W85992  40.899  23.034  11.408
22049W        W85993  27.555   8.756   1.902
22050W        W85994   9.148  41.967   2.897
22051W        W85995  10.695  43.766  11.612
22052W        W85996  28.574   7.866   4.324
22053W        W85997  39.811   5.819  11.597
22054W        W85998   5.345   5.270  12.005
22055W        W85999  30.032  39.844  11.044
22056W        W86000  19.552   2.300   1.211
22057W        W86001  43.323   2.297   3.176
22058W        W86002  35.579   4.430   3.734
22059W        W86003   8.355  14.260  13.837
22060W        W86004  24.084  43.901   2.845
22061W        W86005  39.531   0.424  11.580
22062W        W86006  38.472  19.079  14.780
22063W        W86007   9.183  32.569  13.314
22064W        W86008   9.753  21.739   3.157
22065W        W86009  32.485  33.412  11.001
22066W        W86010  44.266   2.355   1.798
22067W        W86011   9.752  34.374  14.863
22068W        W86012  12.711  36.078   3.227
22069W        W86013   6.216  16.275   3.772
22070W        W86014  26.005  40.816  10.625
22071W        W86015  41.373  20.144  11.540
22072W        W86016  37.049  42.935   1.822
22073W        W86017  33.890  21.523  11.932
22074W        W86018  16.253   7.287  10.530
22075W        W86019   3.339   5.903   2.856
22076W        W86020  28.633  15.678  12.374
22077W        W86021  11.676  41.987   1.249
22078W        W86022  12.318  17.097  13.463
22079W        W86023  27.446   4.250  14.416
22080W        W86024   7.848  33.494  14.923
22081W        W86025  43.455  12.705   4.806
22082W        W86026   5.232   4.903   4.792
22083W        W86027  30.951   8.706  10.482
22084W        W86028  23.174  27.685  14.845
22085W        W86029  31.413   5.812   0.780
22086W        W86030   3.929   5.300   3.692
22087W        W86031  11.343   9.189   4.757
22088W        W86032  41.821  34.558   0.470
22089W        W86033  15.794  27.608   0.808
22090W        W86034  28.443  14.628   3.317
22091W        W86035  40.311  35.967  10.594
22092W        W86036  30.029   5.343   0.352
22093W        W86037  30.035  23.679   3.663
22094W        W86038  22.071  44.393   3.804
22095W        W86039  14.119  44.823   5.155
22096W        W86040  32.622  36.547  14.981
22097W        W86041  15.223   9.655   4.738
22098W        W86042  39.356   1.935   4.831
22099W        W86043  34.486  13.771   4.748
22100W        W86044  27.613  14.282   0.476
22101W        W86045  18.272  30.540   3.219
22102W        W86046  39.522   9.841  12.380
22103W        W86047  36.033  15.181   2.814
22104W        W86048  40.320  41.837  10.423
22105W        W86049  38.897  21.631   3.205
22106W        W86050  29.650  27.075   0.412
22107W        W86051  30.131  14.715   2.727
22108W        W86052  29.960  39.456   3.821
22109W        W86053  29.555  20.554  10.640
22110W        W86054  22.617  15.181  11.419
22111W        W86055  18.572  31.505   2.839
22112W        W86056  36.352  30.543   0.434
22113W        W86057   9.301  36.934   0.773
22114W        W86058   6.815  22.173   3.194
22115W        W86059  33.876  42.346  14.026
22116W        W86060  34.023  19.098   4.279
22117W        W86061  10.156  13.171   0.921
22118W        W86062  10.264  23.201   4.823
22119W        W86063  32.440  27.621   0.300
22120W        W86064   1.283  38.374   4.619
22121W        W86065   8.223   9.785  12.534
22122W        W86066  23.685  23.528  12.011
22123W        W86067  42.851  32.454  10.978
22124W        W86068   2.749   1.972   2.295
22125W        W86069  15.219   6.389  13.826
22126W        W86070  20.153  33.436  11.491
22127W        W86071   0.962  26.147  10.442
22128W        W86072  42.958  13.622   2.877
22129W        W86073   8.713  35.558   3.191
22130W        W86074  26.665   6.843   4.217
22131W        W86075  14.825  25.506  10.450
22132W        W86076  10.701  42.012   3.701
22133W        W86077   9.160  18.263  11.940
22134W        W86078  24.077  20.221  11.032
22135W        W86079  43.496  17.128   4.701
22136W        W86080  37.422  36.913   4.145
22137W        W86081  19.152  43.863   0.339
22138W        W86082  27.096  10.828  14.312
22139W        W86083  21.086   5.344   3.264
22140W        W86084   9.823   0.973  13.880
22141W        W86085  24.221  41.004   3.269
22142W        W86086  28.512  38.483   2.767
22143W        W86087  30.656  18.059  10.459
22144W        W86088  18.595  21.052   0.439
22145W        W86089  34.421  24.000   1.804
22146W        W86090  31.018  36.960  12.921
22147W        W86091  24.974  36.437  12.824
22148W        W86092  44.978   9.883   0.281
22149W        W86093   7.858  42.810   2.320
22150W        W86094  15.183  21.212   3.701
22151W        W86095  40.863  33.890  11.585
22152W        W86096  34.452  42.290   2.254
22153W        W86097   3.916  42.021   4.663
22154W        W86098  30.076  39.332   5.200
22155W        W86099  25.044   7.756   4.350
22156W        W86100  27.050  27.996   4.158
22157W        W86101  17.558  38.892  12.890
22158W        W86102  12.618  31.902  13.866
22159W        W86103  17.298  10.807  10.560
22160W        W86104  27.607  11.351  11.959
22161W        W86105  11.665  32.098   4.204
22162W        W86106  42.966  12.672  12.999
22163W        W86107  18.545  19.697  11.106
22164W        W86108  27.527  25.679   2.188
22165W        W86109  16.120  20.241  12.464
22166W        W86110  32.928  41.411   1.215
22167W        W86111   8.718   8.766   1.879
22168W        W86112  10.817  42.804   1.751
22169W        W86113  31.930  42.375   1.711
22170W        W86114  38.528   0.750  12.847
22171W        W86115  30.419  19.154   9.515
22172W        W86116   0.900   4.359  13.512
22173W        W86117   1.908  27.596   4.690
22174W        W86118  29.102  31.080  11.413
22175W        W86119  15.784  12.683  14.017
22176W        W86120  26.028   3.348  13.932
22177W        W86121  15.294   5.772   1.378
22178W        W86122  10.810  15.171  11.864
22179W        W86123  33.380  33.412  13.820
22180W        W86124   5.711  17.570  10.571
22181W        W86125  18.577  21.701  12.012
22182W        W86126  15.293   4.427   3.271
22183W        W86127  39.833  35.530  11.503
22184W        W86128   0.485  14.200   2.193
22185W        W86129  28.941  18.630   4.801
22186W        W86130  11.837   2.242   2.317
22187W        W86131   9.822  10.756   2.701
22188W        W86132   4.374  39.054   3.299
22189W        W86133  40.449   2.879  14.349
22190W        W86134  10.257  13.778  12.018
22191W        W86135  41.507  38.860  12.993
22192W        W86136  22.074  42.841  11.445
22193W        W86137  18.562  25.560  13.308
22194W        W86138  37.849  38.904  13.804
22195W        W86139  30.466   4.242  14.298
22196W        W86140  19.538  41.488  12.354
22197W        W86141  29.128   3.785   3.805
22198W        W86142  30.520   9.850  13.967
22199W        W86143  31.919   2.822  13.419
22200W        W86144  28.016  14.598   5.751
22201W        W86145  11.309  30.975  10.598
22202W        W86146  19.725   2.856   1.700
22203W        W86147  22.038  33.503  12.455
22204W        W86148  10.860  34.933   2.892
22205W        W86149   8.330  21.624   2.770
22206W        W86150  10.265  28.183   5.158
22207W        W86151  24.549  38.882  11.093
22208W        W86152  22.183   0.765   4.606
22209W        W86153  23.491  25.587   1.215
22210W        W86154   6.680  35.425  13.910
22211W        W86155  30.422  16.316  12.905
22212W        W86156   8.822  13.270  10.583
22213W        W86157  35.937  15.302  14.863
22214W        W86158  31.971  33.920  12.016
22215W        W86159  11.141  33.006   2.373
22216W        W86160  29.033  10.374  12.347
22217W        W86161   6.758  13.627  13.381
22218W        W86162  16.693  35.434   0.350
22219W        W86163  20.544   3.228  13.995
22220W        W86164  16.788  34.487   3.258
22221W        W86165  15.810  21.617   2.846
22222W        W86166  15.194   3.313  14.953
22223W        W86167   0.266   9.710  13.355
22224W        W86168  19.169  20.100   3.684
22225W        W86169  17.569  26.995   4.598
22226W        W86170  38.422  29.023   4.723
22227W        W86171  26.086  27.043   4.252
22228W        W86172   7.373  29.124   2.790
22229W        W86173  40.972   9.254   1.892
22230W        W86174  17.791  21.115  13.850
22231W        W86175  31.540   8.813   2.836
22232W        W86176  36.004  26.559   0.481
22233W        W86177  39.336  22.155  10.578
22234W        W86178  16.171  32.125  10.970
22235W        W86179   4.383  11.785   2.207
22236W        W86180  41.531  36.433  14.377
22237W        W86181  27.565   6.271  14.839
22238W        W86182  13.126  43.490   0.475
22239W        W86183  38.009  18.748   1.834
22240W        W86184  17.140  31.008  14.816
22241W        W86185  37.536  10.852   1.735
22242W        W86186   9.242  40.337   2.833
22243W        W86187  33.986  36.952  14.010
22244W        W86188  13.668   7.245  13.515
22245W        W86189  44.773  32.105  12.051
22246W        W86190  21.556  38.941  14.311
22247W        W86191   1.802  33.398  12.933
22248W        W86192  20.215  24.195   1.875
22249W        W86193   7.213  43.949   3.639
22250W        W86194  17.600  24.641   2.412
22251W        W86195  41.399   0.393   2.381
22252W        W86196  10.196  15.159   0.965
22253W        W86197  21.641   0.926   3.261
22254W        W86198  42.023  10.820   4.668
22255W        W86199  10.335   0.476   1.917
22256W        W86200  23.607   4.749   3.363
22257W        W86201  33.038  34.955   3.658
22258W        W86202   3.732   7.353  14.399
22259W        W86203  18.590  34.021  10.027
22260W        W86204  14.793  40.887   1.437
22261W        W86205  14.630  21.146   3.303
22262W        W86206  12.338  36.542  10.526
22263W        W86207  42.856  15.608   4.686
22264W        W86208   4.415  16.677  14.789
22265W        W86209  28.038  42.490   1.757
22266W        W86210  14.606   8.276  14.462
22267W        W86211  27.451  24.657   1.933
22268W        W86212  23.089   5.302   4.254
22269W        W86213  10.831  13.775  13.307
22270W        W86214  33.482  34.943   2.257
22271W        W86215  44.481  24.652  10.933
22272W        W86216   7.853  40.374  11.067
22273W        W86217   2.815  41.406  12.559
22274W        W86218  31.641  12.292   3.310
22275W        W86219  23.538  37.930  12.360
22276W        W86220   5.406  23.195  11.981
22277W        W86221  43.816  12.739  13.933
22278W        W86222  27.051  20.554  14.825
22279W        W86223  10.871  17.697   1.412
22280W        W86224   0.370   9.661   4.211
22281W        W86225  44.758  15.159  10.438
22282W        W86226   5.816  41.851  13.447
22283W        W86227  16.082  27.450  12.363
22284W        W86228   9.647  34.017   4.676
22285W        W86229  28.154  41.008  14.983
22286W        W86230  42.438  35.932  14.387
22287W        W86231  30.137  15.588  12.444
22288W        W86232   0.371  42.517   2.802
22289W        W86233  10.864  25.978   4.153
22290W        W86234  13.306  13.845   1.217
22291W        W86235   6.385  18.261  11.012
22292W        W86236  34.527  42.513   4.336
22293W        W86237  15.131  10.208  10.498
22294W        W86238  34.946  12.774   3.226
22295W        W86239  39.402  12.120   3.230
22296W        W86240   4.210  36.365   1.773
22297W        W86241  33.885  35.866   3.160
22298W        W86242  29.991   0.367  13.405
22299W        W86243  22.546  13.609   0.435
22300W        W86244   1.338   7.777   0.916
22301W        W86245  44.449  15.203  14.862
22302W        W86246  21.026  11.781  13.830
22303W        W86247  32.597  23.095  13.544
22304W        W86248  22.672   6.365   4.787
22305W        W86249  25.197  24.504  14.903
22306W        W86250   4.227  30.908   3.353
22307W        W86251   7.395  24.654   2.389
22308W        W86252  31.997  11.815  12.929
22309W        W86253  23.234   3.730   3.193
22310W        W86254   7.758  24.544   1.314
22311W        W86255  11.194  35.083   4.257
22312W        W86256  16.133  34.064   1.701
22313W        W86257  37.444  25.970  11.103
22314W        W86258  22.635  11.778  14.935
22315W        W86259  41.459  26.203  14.913
22316W        W86260  19.590  17.082  10.481
22317W        W86261  22.208  36.363   3.856
22318W        W86262   5.874  42.955  11.464
22319W        W86263  12.666   8.258  13.542
22320W        W86264  43.304   3.431  14.365
22321W        W86265  33.528  12.310  12.900
22322W        W86266  26.982  13.126   1.796
22323W        W86267   0.746  11.289  12.538
22324W        W86268  19.081  10.666  11.517
22325W        W86269   3.799   8.890  11.377
22326W        W86270  34.083   5.708   3.240
22327W        W86271  23.233   7.735  13.822
22328W        W86272  38.072  14.832  12.055
22329W        W86273  16.214   5.904  13.811
22330W        W86274  43.482  40.336  10.058
22331W        W86275   4.809  31.520  13.923
22332W        W86276   4.343  31.012   2.779
22333W        W86277  12.257   2.228   0.415
22334W        W86278   6.916  29.558   0.774
22335W        W86279  44.340  20.031   4.683
22336W        W86280  21.116  39.355  11.572
22337W        W86281  10.668   2.903  12.826
22338W        W86282  44.313  16.740   1.399
22339W        W86283   5.713   5.824   0.928
22340W        W86284  30.153  42.329   2.734
22341W        W86285   4.707  16.212   3.174
22342W        W86286  17.732  41.887  14.855
22343W        W86287  11.249   4.897  10.635
22344W        W86288   5.358  33.525  11.435
22345W        W86289  15.619  31.912  11.096
22346W        W86290  33.603   9.718   2.355
22347W        W86291  29.496  32.021  11.450
22348W        W86292  37.029  40.516  11.570
22349W        W86293  22.727  43.420   2.840
22350W        W86294  29.976  26.187  14.870
22351W        W86295  23.037  44.449  13.543
22352W        W86296  21.142  11.228   4.324
22353W        W86297  10.667  14.122  10.594
22354W        W86298   4.877  21.680   0.915
22355W        W86299  27.686  38.846  14.995
22356W        W86300  21.545  27.685   1.738
22357W        W86301  19.645  13.809   4.750
22358W        W86302  31.440  12.820  13.390
22359W        W86303  12.680  44.787   1.371
22360W        W86304   2.334  21.252  10.068
22361W        W86305  21.151  42.354   4.708
22362W        W86306  43.939  25.687   1.448
22363W        W86307  14.127   5.812  13.396
22364W        W86308  39.493  18.279  11.103
22365W        W86309  26.083  32.949  11.878
22366W        W86310   2.238  37.875  14.822
22367W        W86311  12.271   3.836  13.347
22368W        W86312  33.002  28.107   2.397
22369W        W86313  18.058  11.144   4.827
22370W        W86314  17.138  33.913   0.810
22371W        W86315  40.010  20.164   4.649
22372W        W86316   9.154  14.258   1.335
22373W        W86317  44.758  44.989   0.414
22374W        W86318  10.765  32.142  14.315
22375W        W86319  31.004  27.609   2.243
22376W        W86320   6.883   7.271   4.666
22377W        W86321  11.741   4.813  12.048
22378W        W86322  34.415   8.271  13.463
22379W        W86323  24.047  20.711  10.978
22380W        W86324  33.009  32.922  10.975
22381W        W86325  23.492  26.083  14.316
22382W        W86326  35.587  37.568   4.237
22383W        W86327   4.804  44.300  13.994
22384W        W86328   5.743  32.426  12.427
22385W        W86329  22.211  41.532  11.100
22386W        W86330  33.508  28.167   3.785
22387W        W86331  34.945  32.503   3.254
22388W        W86332   6.280  11.637   3.294
22389W        W86333  30.071  29.064   3.709
22390W        W86334  23.703  20.110  14.459
22391W        W86335  42.372  16.089  14.786
22392W        W86336  27.504  43.321   3.661
22393W        W86337  14.311  44.346   4.651
22394W        W86338   6.805  43.865  14.987
22395W        W86339  39.831  28.610  14.328
22396W        W86340   8.208  38.022  13.459
22397W        W86341  43.506   6.330  13.042
22398W        W86342  22.145   2.882   3.755
22399W        W86343  33.111  44.395  13.951
22400W        W86344  26.627  10.864   3.798
22401W        W86345  11.153  14.265  12.096
22402W        W86346  13.726  27.600  10.440
22403W        W86347   3.811   0.820   0.794
22404W        W86348  13.651   6.208   0.398
22405W        W86349  28.030  26.183   0.756
22406W        W86350   1.811  33.402   3.789
22407W        W86351  24.093  42.393  13.329
22408W        W86352  21.669   3.446   1.274
22409W        W86353  38.871  44.837  12.422
22410W        W86354  37.470   3.446   1.902
22411W        W86355  42.968  31.508   1.766
22412W        W86356   2.812  27.182   1.925
22413W        W86357  38.053   4.428  12.379
22414W        W86358  16.775  13.188  10.632
22415W        W86359  33.399   1.474   4.226
22416W        W86360  40.499  31.977  14.915
22417W        W86361   2.921  33.083   1.767
22418W        W86362  32.606  34.473   1.786
22419W        W86363  23.537   4.890  14.913
22420W        W86364  10.146  16.277  10.930
22421W        W86365  44.938  23.593  14.326
22422W        W86366  28.071  15.292  13.462
22423W        W86367  34.524  24.692  12.549
22424W        W86368  21.192  35.434  12.429
22425W        W86369  15.149  13.789  11.894
22426W        W86370  31.132  33.020  13.015
22427W        W86371  24.618  18.055   2.853
22428W        W86372   6.920  36.482  12.976
22429W        W86373  39.518   8.191  14.000
22430W        W86374  28.607  37.018   0.926
22431W        W86375  28.657  30.575   2.758
22432W        W86376  11.684  13.118   0.473
22433W        W86377   1.350  33.918  11.497
22434W        W86378  24.580  40.863   1.417
22435W        W86379  39.811  19.250  10.407
22436W        W86380  26.963   0.966   2.261
22437W        W86381  42.311   5.298  12.493
22438W        W86382  20.227  18.779   3.805
22439W        W86383  41.537   7.764  14.377
22440W        W86384  25.980  30.096   2.888
22441W        W86385  37.530  10.829   2.690
22442W        W86386  42.872   7.721  12.566
22443W        W86387   1.932  12.673  13.836
22444W        W86388  31.954  12.819  12.493
22445W        W86389  36.374   9.244  11.909
22446W        W86390  10.349  12.260  10.992
22447W        W86391  15.789   8.271   2.405
22448W        W86392  36.532  37.478  11.572
22449W        W86393  44.398  26.150   4.807
22450W        W86394   7.200  19.554  14.788
22451W        W86395   6.885  22.637   0.398
22452W        W86396  32.404   5.814  14.809
22453W        W86397  44.420  16.756  10.118
22454W        W86398   2.289  44.868   4.684
22455W        W86399   9.178  37.958   0.759
22456W        W86400  13.310  11.722   1.262
22457W        W86401  27.044  43.512  13.970
22458W        W86402  32.423  27.132   0.334
22459W        W86403  27.169   0.270   1.365
22460W        W86404  14.328  41.401  13.443
22461W        W86405   5.831  30.565   4.600
22462W        W86406  34.389   5.436   1.267
22463W        W86407  33.944  34.544   4.313
22464W        W86408  16.716  20.113   4.299
22465W        W86409  36.865  37.357  10.466
22466W        W86410  38.340  19.209   2.266
22467W        W86411  35.493  30.114  10.912
22468W        W86412  41.922  28.528   4.242
22469W        W86413   0.795   8.184  12.956
22470W        W86414   7.311  26.569  12.569
22471W        W86415   3.803  34.573   4.806
22472W        W86416  44.308  27.661   4.295
22473W        W86417  15.303  16.223   2.752
22474W        W86418  23.567  25.505   4.120
22475W        W86419  34.934  22.037  12.939
22476W        W86420  16.247  22.219  12.906
22477W        W86421  33.578  26.111  13.971
22478W        W86422  23.169  36.919   3.800
22479W        W86423   0.830  38.847  12.011
22480W        W86424  10.766   1.832   0.380
22481W        W86425  19.245  10.691  14.848
22482W        W86426   0.359  16.152  13.322
22483W        W86427  39.006  44.403   4.697
22484W        W86428  23.209  12.306  14.765
22485W        W86429  26.053   3.841   1.905
22486W        W86430  27.668   4.922   2.706
22487W        W86431  17.755  42.375   3.361
22488W        W86432  31.100  24.222  12.957
22489W        W86433  25.600  22.548  10.626
22490W        W86434  10.330  22.684  10.578
22491W        W86435  38.964   4.368   2.844
22492W        W86436  16.090  40.515  13.467
22493W        W86437  42.516  13.220   1.430
22494W        W86438  25.558   2.406  13.328
22495W        W86439   8.834  11.715  13.510
22496W        W86440  30.115  42.798   2.897
22497W        W86441   4.316  11.825   3.183
22498W        W86442   2.817   9.749   1.782
22499W        W86443  41.918  20.709  11.502
22500W        W86444   2.900  33.436   4.130
22501W        W86445  44.274  44.273   1.833
22502W        W86446  41.819  33.997  11.108
22503W        W86447  38.960   0.474  11.551
22504W        W86448   7.713  24.525  14.469
22505W        W86449  37.023  43.005  12.854
22506W        W86450  26.100  13.637  12.436
22507W        W86451  19.585  13.168   1.869
22508W        W86452   4.924  32.136   2.229
22509W        W86453  18.755   1.805   3.322
22510W        W86454   0.855   2.232   0.882
22511W        W86455   9.683  10.863   2.180
22512W        W86456   5.915  27.170  11.428
22513W        W86457   1.261   0.794  13.350
22514W        W86458  22.016  35.020  11.075
22515W        W86459  10.246  42.022  14.490
22516W        W86460   4.343  29.123  11.449
22517W        W86461  11.175  17.732   1.800
22518W        W86462  24.547  36.533  11.568
22519W        W86463  42.414   9.184  14.970
22520W        W86464  22.580  23.492   4.118
22521W        W86465  43.847  11.223   2.865
22522W        W86466  29.527  42.963   9.982
22523W        W86467  33.537  31.502  12.941
22524W        W86468  24.158  30.638  14.899
22525W        W86469  36.906  26.690   4.257
22526W        W86470  29.551  38.558  14.409
22527W        W86471  38.951  39.453  12.525
22528W        W86472  24.160   4.709   1.286
22529W        W86473   9.150  38.821   4.794
22530W        W86474  23.217  12.751   1.421
22531W        W86475  22.676  38.447  10.590
22532W        W86476  38.554  18.157  13.923
22533W        W86477   8.778   7.779  11.404
22534W        W86478  11.354  30.536   4.200
22535W        W86479   0.753   7.827   0.871
22536W        W86480   7.849  28.133   0.266
22537W        W86481  31.900  37.507  10.502
22538W        W86482  30.560   4.935  11.563
22539W        W86483  25.474  17.305  14.840
22540W        W86484  25.584  24.200  10.485
22541W        W86485  17.306   1.797   2.338
22542W        W86486  43.393  25.096   2.848
22543W        W86487  18.612  34.508   3.185
22544W        W86488  15.229   3.299  12.522
22545W        W86489   7.292  30.638   2.386
22546W        W86490  40.836  33.500  11.110
22547W        W86491  27.965  11.765   2.380
22548W        W86492  16.620  26.159   3.200
22549W        W86493   3.808  24.113   1.919
22550W        W86494   6.693  39.868  12.375
22551W        W86495   1.881   4.711   5.229
22552W        W86496  16.685  28.109  12.068
22553W        W86497   1.798  22.645   3.713
22554W        W86498  21.236  12.774   4.161
22555W        W86499  39.041  43.432   0.338
22556W        W86500  23.999  25.199  14.862
22557W        W86501  39.552   2.896  13.047
22558W        W86502  18.255  26.565   4.193
22559W        W86503  40.360   0.901  12.061
22560W        W86504  30.129  34.572  12.994
22561W        W86505  28.185   0.845   0.377
22562W        W86506  36.022  25.639  13.400
22563W        W86507  11.334  20.620  13.525
22564W        W86508  34.535   9.779  10.417
22565W        W86509  27.951  19.175   4.624
22566W        W86510  18.107  29.111   2.262
22567W        W86511  44.829   1.246  12.049
22568W        W86512  44.935  17.140  10.088
22569W        W86513  25.071   5.914  12.936
22570W        W86514  42.784  35.006   2.288
22571W        W86515  32.062   3.937  14.506
22572W        W86516  21.160  28.031   1.835
22573W        W86517  17.147  35.920   1.325
22574W        W86518  38.898  31.114  12.941
22575W        W86519  42.317  33.441  10.980
22576W        W86520   0.953  29.028  14.004
22577W        W86521  34.917  26.571   0.291
22578W        W86522   4.715  41.858   3.251
22579W        W86523  41.340  21.159  10.540
22580W        W86524   4.804  33.065  12.863
22581W        W86525  11.657  36.457  11.053
22582W        W86526   3.268  27.197   4.354
22583W        W86527  14.781  37.928  12.545
22584W        W86528  21.215   4.409   2.791
22585W        W86529  11.346   4.900   4.346
22586W        W86530  20.239   8.677   3.810
22587W        W86531  40.021  35.922  10.592
22588W        W86532  18.185  14.634   4.701
22589W        W86533   5.746  35.595   0.786
22590W        W86534  32.458  11.712   1.839
22591W        W86535  14.812  38.007  11.026
22592W        W86536  10.353  32.591   2.871
22593W        W86537  17.128  41.515   3.184
22594W        W86538  27.950  42.003   3.668
22595W        W86539  26.970  31.012   1.387
22596W        W86540  19.714   6.912  13.914
22597W        W86541  36.553  13.218  11.381
22598W        W86542  29.121   5.722   1.372
22599W        W86543  17.642  24.594  10.533
22600W        W86544  43.431  32.045   0.375
22601W        W86545  35.470   5.740   3.246
22602W        W86546   2.427  40.335  12.871
22603W        W86547  38.337   7.876   2.843
22604W        W86548   7.411  39.452  10.948
22605W        W86549  25.096  37.970  14.511
22606W        W86550  35.580  20.251   1.797
22607W        W86551  22.730  42.908  10.580
22608W        W86552  12.276   9.685   2.736
22609W        W86553   4.834   5.264  12.929
22610W        W86554   5.426   4.738   1.335
22611W        W86555  39.954  43.789  13.033
22612W        W86556  32.424   3.842  10.638
22613W        W86557  31.491  21.191   3.783
22614W        W86558   6.714  41.419   0.840
22615W        W86559   1.789   7.671   2.853
22616W        W86560  10.379  24.110   4.267
22617W        W86561  22.017  42.464   1.777
22618W        W86562  17.096  41.305  14.312
22619W        W86563  43.475  21.168  13.347
22620W        W86564  17.688   6.699  12.939
22621W        W86565   1.970  17.573  14.892
22622W        W86566  41.027  41.371   2.288
22623W        W86567  15.699  20.217   2.829
22624W        W86568  18.584  12.125  12.836
22625W        W86569  37.349   8.688  13.020
22626W        W86570  20.676  31.616  14.420
22627W        W86571  25.968  19.702   3.833
22628W        W86572  24.637  42.999   1.285
22629W        W86573  10.857  30.461   4.237
22630W        W86574   7.682  19.257   3.250
22631W        W86575  12.688  16.189  11.562
22632W        W86576  32.446   9.160  10.522
22633W        W86577  37.370  28.178   1.774
22634W        W86578  23.589   3.919  11.399
22635W        W86579  19.557  13.844  10.642
22636W        W86580  34.873  15.730  14.004
22637W        W86581  42.449  19.201  14.437
22638W        W86582  32.595  11.767  10.161
22639W        W86583  17.306  31.080   2.686
22640W        W86584  30.113  27.125  12.943
22641W        W86585  30.471  44.943  13.487
22642W        W86586   7.382   3.927  10.514
22643W        W86587  15.255  14.802  14.391
22644W        W86588  25.075   3.279   4.810
22645W        W86589  16.636  20.266  10.991
22646W        W86590  41.000  29.484   4.753
22647W        W86591   0.348  37.957  13.890
22648W        W86592  35.998  18.242   1.402
22649W        W86593   4.862   4.805   5.239
22650W        W86594   3.831  26.086  13.370
22651W        W86595   5.692  28.540   0.373
22652W        W86596   0.892  13.663   3.634
22653W        W86597   7.378  38.990  12.366
22654W        W86598  14.765  35.380   3.800
22655W        W86599  42.797  17.166  14.476
22656W        W86600  18.123  13.263   2.845
22657W        W86601  30.440  40.392  14.999
22658W        W86602  10.225  10.812   3.726
22659W        W86603  19.049  32.452   4.215
22660W        W86604   2.799   4.721   9.612
22661W        W86605  42.890  28.937  14.764
22662W        W86606  13.637  30.059  13.934
22663W        W86607  30.946  33.916   0.252
22664W        W86608  11.641  17.626  12.900
22665W        W86609  27.947  24.174   3.357
22666W        W86610  42.808  31.538  10.619
22667W        W86611  26.483  22.171   4.756
22668W        W86612  27.029   3.789  10.480
22669W        W86613  23.021  34.549   1.724
22670W        W86614   2.337  13.809   2.191
22671W        W86615  13.342  26.072  14.502
22672W        W86616  12.702  26.629   0.284
22673W        W86617  21.699  43.467   0.738
22674W        W86618   9.210  23.508   0.459
22675W        W86619   7.792  22.701   1.740
22676W        W86620  27.988   2.377  11.598
22677W        W86621  17.199  36.436  11.088
22678W        W86622  20.737  22.009  12.549
22679W        W86623  40.005  25.115   0.251
22680W        W86624  29.479  26.102  11.388
22681W        W86625  25.595   9.171   0.897
22682W        W86626  37.372  14.178  11.560
22683W        W86627  35.903   4.886  11.379
22684W        W86628  17.222   5.747   3.707
22685W        W86629  41.371  18.253   1.411
22686W        W86630  34.944  10.824  11.037
22687W        W86631   9.152  11.173   1.817
22688W        W86632  10.668  32.558   0.377
22689W        W86633  39.358  18.560  12.365
22690W        W86634  12.682  28.078  11.110
22691W        W86635  16.775   1.324  14.776
22692W        W86636  15.190  22.243   3.378
22693W        W86637  12.852   7.406  10.457
22694W        W86638  17.755   8.296   1.779
22695W        W86639  17.148  12.777  11.513
22696W        W86640  13.350  42.840  13.864
22697W        W86641  16.597  31.453  10.908
22698W        W86642  28.119  35.460  12.879
22699W        W86643  10.656  10.375  14.878
22700W        W86644   1.266   9.840   1.266
22701W        W86645   5.789   5.317   2.356
22702W        W86646  41.462  34.063  12.577
22703W        W86647  10.173  22.744  13.438
22704W        W86648  11.697  32.038  10.526
22705W        W86649  12.279  40.344  10.908
22706W        W86650   4.878  12.197  13.482
22707W        W86651  27.030  14.142  14.330
22708W        W86652   8.303  33.910   0.386
22709W        W86653  21.031  33.104   3.806
22710W        W86654   9.709  30.148  11.543
22711W        W86655   5.333  43.784   2.197
22712W        W86656  11.270   2.833   1.805
22713W        W86657  28.607  40.996  12.341
22714W        W86658  30.484  30.627   1.742
22715W        W86659   1.294  39.559  10.983
22716W        W86660  15.279  11.652   3.804
22717W        W86661  37.364  21.058  11.127
22718W        W86662  14.310  25.642  14.493
22719W        W86663  38.970  19.698  12.422
22720W        W86664  10.875  37.030   4.278
22721W        W86665   6.722  23.135  10.911
22722W        W86666  27.522  17.225  13.978
22723W        W86667  10.844  41.379   0.841
22724W        W86668  25.651  42.016  10.631
22725W        W86669  34.521  39.866   0.772
22726W        W86670   8.250  42.299   2.705
22727W        W86671  33.440  14.182  13.802
22728W        W86672  14.290  34.046   5.286
22729W        W86673   4.935  10.857  10.997
22730W        W86674  13.781  21.195   4.703
22731W        W86675  30.468  29.005   3.645
22732W        W86676  10.683  38.350   1.816
22733W        W86677  22.597   3.307   2.767
22734W        W86678  41.940  24.102  12.838
22735W        W86679  30.931  29.432  14.282
22736W        W86680   0.798  44.314  11.456
22737W        W86681  40.915  31.965  13.497
22738W        W86682  34.562  34.391   1.340
22739W        W86683  36.916   7.873  13.824
22740W        W86684  18.683  23.694   2.413
22741W        W86685  22.730  11.659   0.878
22742W        W86686   8.311  32.535   1.301
22743W        W86687  43.845  11.830   1.263
22744W        W86688  11.865  39.509   1.355
22745W        W86689   4.442  21.256  13.013
22746W        W86690   2.449   5.373  11.434
22747W        W86691   8.809  42.514   0.806
22748W        W86692   3.772  30.605  11.020
22749W        W86693   3.877  34.406   1.884
22750W        W86694  44.913  39.453  11.502
22751W        W86695  11.662  19.698   2.688
22752W        W86696  23.562   5.325   1.321
22753W        W86697   5.355   9.392  12.916
22754W        W86698  28.119  26.702  12.888
22755W        W86699  36.912   6.900  11.966
22756W        W86700  40.017  41.904   3.268
22757W        W86701  29.451  36.065  14.955
22758W        W86702  23.103  42.872   0.779
22759W        W86703  16.072   3.383   0.422
22760W        W86704  40.477  32.559   3.637
22761W        W86705   6.894  37.048  10.426
22762W        W86706  11.708  10.875  13.022
22763W        W86707  40.818  29.174  11.437
22764W        W86708  39.965  34.407   3.351
22765W        W86709  25.216  30.519  14.372
22766W        W86710  20.634  22.088  11.560
22767W        W86711  17.703  41.445   4.743
22768W        W86712  11.369   6.736   3.228
22769W        W86713  28.087  42.952  11.537
22770W        W86714  22.619  29.528   2.245
22771W        W86715   9.161  24.550   0.362
22772W        W86716  33.020   5.703   4.193
22773W        W86717   1.360  38.958   3.702
22774W        W86718   5.836  20.210   0.851
22775W        W86719  32.066  19.250   4.833
22776W        W86720  10.150  19.136   2.745
22777W        W86721  15.760  29.132   3.229
22778W        W86722   3.348  11.660  10.955
22779W        W86723  30.084   8.899   2.789
22780W        W86724  37.524  44.000   2.378
22781W        W86725  13.632  17.128   1.825
22782W        W86726  14.301  23.014  11.903
22783W        W86727   5.692  40.540   3.159
22784W        W86728  18.252  30.987   3.853
22785W        W86729  20.153  34.914   4.178
22786W        W86730  10.237   6.837  13.347
22787W        W86731   5.825  42.844   5.167
22788W        W86732  43.279  22.719  11.467
22789W        W86733   8.317  39.373  11.477
22790W        W86734   1.834  30.637  14.958
22791W        W86735  43.977  44.944  11.471
22792W        W86736  25.619  44.501   0.313
22793W        W86737  21.605  36.439  12.037
22794W        W86738  29.576  42.878  14.894
22795W        W86739  19.050  27.500  12.041
22796W        W86740  33.034  32.025   2.397
22797W        W86741  19.619  14.220  11.103
22798W        W86742  21.042  13.324  12.539
22799W        W86743  12.174  20.722   0.863
22800W        W86744  11.134  35.875  13.870
22801W        W86745  37.056   8.858   0.736
22802W        W86746   3.731   8.813  12.389
22803W        W86747  41.383  16.797  11.499
22804W        W86748   3.353  19.761   3.375
22805W        W86749   4.370   0.910  11.930
22806W        W86750  19.611  39.043  11.990
22807W        W86751  23.534  40.971  12.950
22808W        W86752   6.341  21.197   3.660
22809W        W86753  26.989  24.693  13.049
22810W        W86754   4.339   0.494   4.784
22811W        W86755  19.167  15.633  11.395
22812W        W86756   2.914  13.625  12.955
22813W        W86757  15.139  30.415   5.118
22814W        W86758  10.362  24.136  14.392
22815W        W86759   4.901  30.510   3.276
22816W        W86760  38.465  17.284   0.922
22817W        W86761  25.632  22.100  10.465
22818W        W86762  31.033  11.809  12.928
22819W        W86763  34.913  12.272   3.807
22820W        W86764  27.660  39.937   0.483
22821W        W86765  12.187  19.547  13.978
22822W        W86766   2.929  26.138   3.854
22823W        W86767   3.458   3.393   2.385
22824W        W86768  13.680  27.521  12.523
22825W        W86769   5.354  13.719  14.467
22826W        W86770  33.480  13.259  11.028
22827W        W86771  42.440  23.146   3.326
22828W        W86772  16.148  44.951  12.892
22829W        W86773   2.804  13.168   2.791
22830W        W86774  40.798  14.099   4.254
22831W        W86775  33.932  42.864   4.164
22832W        W86776  29.558  22.033  13.907
22833W        W86777  43.331  10.653  11.857
22834W        W86778   6.363  21.146  11.601
22835W        W86779   6.916  12.740  14.921
22836W        W86780  10.679  20.131   2.408
22837W        W86781  31.439  44.979  14.343
22838W        W86782  29.480  26.164   4.673
22839W        W86783   3.746  39.334   1.810
22840W        W86784  10.682  20.186   2.675
22841W        W86785  33.461  35.498   0.293
22842W        W86786  15.256  30.481  10.601
22843W        W86787  44.467  32.971   2.351
22844W        W86788  21.598  26.152   0.317
22845W        W86789  18.194  33.521   0.728
22846W        W86790  27.548   7.857  10.930
22847W        W86791  23.118   9.203  10.510
22848W        W86792  18.584  32.460   0.409
22849W        W86793  39.495  35.540   3.314
22850W        W86794  24.226  43.008  12.560
22851W        W86795  21.754  31.463  14.011
22852W        W86796   8.768  10.678  13.896
22853W        W86797   3.358   3.799   3.705
22854W        W86798   7.820  34.081  14.462
22855W        W86799   1.904  41.942  14.768
22856W        W86800  13.321   0.848  12.055
22857W        W86801  35.376  36.550   2.265
22858W        W86802  39.910  42.964  13.880
22859W        W86803   4.319  41.450  10.501
22860W        W86804  30.143  33.065   0.871
22861W        W86805  24.511  21.038  12.512
22862W        W86806  28.591  37.345  11.944
22863W        W86807  39.062   8.405  13.356
22864W        W86808  32.415   6.706   1.276
22865W        W86809   6.912   2.749   3.642
22866W        W86810  10.193  26.119  13.041
22867W        W86811  34.978   5.931  13.028
22868W        W86812  27.651  36.473   2.309
22869W        W86813   1.808  38.420  10.465
22870W        W86814  27.040  32.081  12.537
22871W        W86815   9.375  27.460  12.500
22872W        W86816   3.418   7.191  13.450
22873W        W86817   3.241  14.172   3.794
22874W        W86818  38.826  22.544   0.918
22875W        W86819  10.725  21.029   2.313
22876W        W86820  12.658   9.383   2.899
22877W        W86821  41.329  17.273   3.270
22878W        W86822  18.760  40.392   0.456
22879W        W86823  41.534  38.449   1.437
22880W        W86824  37.396  21.751  13.368
22881W        W86825   8.890   2.742  10.914
22882W        W86826  14.782  28.937  10.940
22883W        W86827  44.499  38.548  10.974
22884W        W86828   2.251   0.489   1.709
22885W        W86829   5.752  25.491  11.565
22886W        W86830  28.626   7.220   2.259
22887W        W86831  13.181  37.960  11.410
22888W        W86832  37.559   8.264  12.003
22889W        W86833   2.913  28.126   1.402
22890W        W86834  29.976  16.209   4.644
22891W        W86835  35.987  44.883  13.397
22892W        W86836   1.480   9.222  10.435
22893W        W86837  34.955   3.836   0.346
22894W        W86838  27.064  41.827  11.384
22895W        W86839  43.418   5.871  11.002
22896W        W86840  11.239   3.833   0.841
22897W        W86841  42.358  17.754  12.457
22898W        W86842  38.542  35.859  11.422
22899W        W86843  28.146  29.967   3.667
22900W        W86844  36.870  42.356  14.999
22901W        W86845  25.547  18.682  12.532
22902W        W86846  38.540   2.846   0.274
22903W        W86847  28.544  12.298  13.428
22904W        W86848  25.984  28.486  10.568
22905W        W86849  17.582  33.075   2.760
22906W        W86850  39.035   2.750  11.528
22907W        W86851  36.949  42.856  10.472
22908W        W86852  43.462  19.680  11.942
22909W        W86853   9.652  16.217   1.395
22910W        W86854  12.127  24.211   1.746
22911W        W86855  28.536   7.714  10.531
22912W        W86856  41.345  37.055   1.434
22913W        W86857  19.561  44.306   2.662
22914W        W86858  11.153   8.797  12.505
22915W        W86859  43.910  20.078   1.304
22916W        W86860  17.711  31.644   1.256
22917W        W86861  26.528  42.829  14.458
22918W        W86862  40.996  30.125  11.510
22919W        W86863  30.957  31.979   3.800
22920W        W86864  36.891  33.490   4.205
22921W        W86865  11.243  41.954  14.027
22922W        W86866  27.618  17.628  12.027
22923W        W86867   0.284   0.471   1.240
22924W        W86868  18.692  40.020  14.437
22925W        W86869  37.012  31.540   2.277
22926W        W86870   3.357  43.779  14.821
22927W        W86871   5.767  21.029   4.266
22928W        W86872   5.398  25.205  14.930
22929W        W86873  23.633  17.168  14.503
22930W        W86874  27.972  17.794  13.531
22931W        W86875  22.594  14.153  13.863
22932W        W86876   3.733  41.492   0.298
22933W        W86877  13.607   2.950   9.561
22934W        W86878  43.383  31.544   4.228
22935W        W86879   5.753   5.215  10.547
22936W        W86880  36.380   1.745  11.003
22937W        W86881   1.288   3.913   4.739
22938W        W86882   0.874  41.987   2.216
22939W        W86883  17.089   3.234   9.962
22940W        W86884  41.947  28.663   3.343
22941W        W86885   6.195   4.364   3.208
22942W        W86886  41.980  31.425  11.535
22943W        W86887   4.796  27.586   1.446
22944W        W86888  42.872  37.832   3.317
22945W        W86889  12.343  29.669   4.231
22946W        W86890  22.574  27.992  14.286
22947W        W86891  43.277  38.390   4.276
22948W        W86892   7.886  27.481   3.237
22949W        W86893  43.424  25.160   1.798
22950W        W86894   4.318  28.135   0.336
22951W        W86895  41.507  32.598  10.625
22952W        W86896   3.785  22.149  12.863
22953W        W86897  36.391  12.333  12.531
22954W        W86898  38.832  18.108   1.359
22955W        W86899  29.583  15.286   3.720
22956W        W86900  38.995  41.917   3.735
22957W        W86901   4.828  30.082  13.415
22958W        W86902  21.053  17.077   2.312
22959W        W86903  34.057  13.662  11.571
22960W        W86904   9.889   4.281  13.468
22961W        W86905   2.950  30.955   0.912
22962W        W86906  13.800   0.925   2.753
22963W        W86907  15.315  33.574   4.204
22964W        W86908  16.208  33.096  12.447
22965W        W86909  26.085  39.934   4.641
22966W        W86910  15.314  32.886   0.409
22967W        W86911  35.895   2.310  10.946
22968W        W86912   3.434  30.641   4.698
22969W        W86913  26.051  24.722   0.398
22970W        W86914   7.834  37.564   4.697
22971W        W86915  19.702  25.611  14.817
22972W        W86916  19.045  30.992  11.995
22973W        W86917  10.330  42.870  13.882
22974W        W86918  12.215  23.172   1.781
22975W        W86919  17.207  17.219  13.950
22976W        W86920  41.359  22.058   0.804
22977W        W86921  38.368  30.102  14.414
22978W        W86922  10.727   7.699  11.050
22979W        W86923  44.456  11.167  11.404
22980W        W86924  40.398   6.391   4.225
22981W        W86925   7.189  14.320  12.870
22982W        W86926  15.306  37.844  13.427
22983W        W86927  36.067   0.384  13.459
22984W        W86928  28.117  20.644   2.282
22985W        W86929  19.250  24.710   1.918
22986W        W86930  29.072  36.887  14.933
22987W        W86931  23.619   6.217  12.032
22988W        W86932  17.713  14.833  12.948
22989W        W86933   2.801   8.732  13.030
22990W        W86934  33.501  39.024   4.710
22991W        W86935  21.552  33.076   3.744
22992W        W86936  23.995   8.815   4.260
22993W        W86937   5.259  39.335   1.344
22994W        W86938  31.630  33.457  11.581
22995W        W86939   8.371  18.659  11.448
22996W        W86940  17.075   4.752   3.727
22997W        W86941  35.593  36.558  12.056
22998W        W86942  13.703  14.165   4.615
22999W        W86943  36.551  29.919   4.282
23000W        W86944  32.015  16.151  12.941
23001W        W86945  11.190  26.003   4.284
23002W        W86946  18.218   3.710  13.314
23003W        W86947   0.778  21.250   0.369
23004W        W86948  20.582  28.556   1.851
23005W        W86949  31.116  34.540  13.060
23006W        W86950  24.676  28.633  13.999
23007W        W86951  10.829  32.026  10.979
23008W        W86952  36.553   9.197  14.850
23009W        W86953  37.345  19.722   3.282
23010W        W86954  32.616   6.889  13.033
23011W        W86955  31.486  31.969  12.446
23012W        W86956  13.776   5.867   2.898
23013W        W86957  38.039  22.232  10.420
23014W        W86958   2.335   8.340   0.293
23015W        W86959  16.141  16.255  10.475
23016W        W86960  20.058   8.310   0.796
23017W        W86961  40.423  28.979   2.382
23018W        W86962  26.021  25.207  13.376
23019W        W86963  20.106  20.739  13.507
23020W        W86964  32.442  16.626  12.934
23021W        W86965   8.677  19.540  12.537
23022W        W86966  27.631  19.136  10.606
23023W        W86967  14.273   4.938   1.211
23024W        W86968  35.060  11.755   2.771
23025W        W86969   7.694   5.905   2.347
23026W        W86970   7.271  24.552   3.289
23027W        W86971  23.997  43.010  13.386
23028W        W86972   7.177  16.745   0.340
23029W        W86973   9.252  32.092   1.358
23030W        W86974   3.860  18.101  11.548
23031W        W86975   0.869  42.493  11.389
23032W        W86976  38.945  30.498   5.084
23033W        W86977  35.043  23.186  13.547
23034W        W86978  24.683  12.808   2.260
23035W        W86979  34.063  33.405  12.403
23036W        W86980  24.058  28.601   2.223
23037W        W86981  19.244  15.731   4.182
23038W        W86982  30.132  21.176   1.791
23039W        W86983   4.765  15.800  14.814
23040W        W86984  16.660  13.624  13.856
23041W        W86985  31.438  28.598  12.491
23042W        W86986   5.296  12.642   1.882
23043W        W86987  25.566  39.528   1.302
23044W        W86988   7.839  23.152  13.458
23045W        W86989  20.047  32.636  11.437
23046W        W86990  12.244  42.441   2.257
23047W        W86991  21.104  44.314   3.672
23048W        W86992  34.537  25.043   1.391
23049W        W86993  28.042   9.788  12.091
23050W        W86994  36.357  10.841   0.433
23051W        W86995  14.751  37.533   4.655
23052W        W86996  38.850  28.087   5.192
23053W        W86997   4.724  39.439  14.872
23054W        W86998  18.100  13.314  13.330
23055W        W86999  41.020  34.952  11.424
23056W        W87000  40.941  28.949  10.538
23057W        W87001  25.579  25.496   2.828
23058W        W87002  26.114  16.696  11.405
23059W        W87003  17.653  41.944  12.856
23060W        W87004   9.226   5.201   1.761
23061W        W87005  39.365  24.553  13.051
23062W        W87006  32.525   4.918  13.466
23063W        W87007  42.416  37.912   4.799
23064W        W87008  31.001  10.215   5.137
23065W        W87009  16.681   8.683   3.757
23066W        W87010  20.074   7.863  14.375
23067W        W87011  27.481  15.264   0.245
23068W        W87012  42.416   4.300   4.720
23069W        W87013   4.785  16.795   1.374
23070W        W87014  20.101  17.156  14.999
23071W        W87015  22.095  43.504   1.861
23072W        W87016  41.952  36.043   2.901
23073W        W87017  10.339   0.792  10.566
23074W        W87018   1.281  30.136  12.861
23075W        W87019  12.627  30.441  13.880
23076W        W87020  25.132  33.616  11.379
23077W        W87021  33.561  44.813  14.004
23078W        W87022  11.200  15.708   1.728
23079W        W87023  39.818  14.132  11.388
23080W        W87024  27.535  26.461  10.140
23081W        W87025  34.923   1.260  11.384
23082W        W87026  43.953  19.704  12.388
23083W        W87027  28.661  23.067   0.447
23084W        W87028  18.085  35.988   4.255
23085W        W87029  18.715   7.808   2.710
23086W        W87030   9.164   9.696  12.369
23087W        W87031  24.069   8.225   3.806
23088W        W87032  28.468  33.385   4.249
23089W        W87033  11.828  38.977  10.032
23090W        W87034  41.413  18.126  13.970
23091W        W87035   7.883  14.628   3.164
23092W        W87036  18.110  32.597  10.949
23093W        W87037   2.302  40.021   2.372
23094W        W87038   4.276  35.364  11.542
23095W        W87039  24.697  42.412  10.583
23096W        W87040  31.540  32.414  14.816
23097W        W87041   4.838   1.942  12.344
23098W        W87042  31.117  19.695  10.452
23099W        W87043  30.484  31.535   4.232
23100W        W87044  33.407  26.502   1.716
23101W        W87045  19.695  20.201   4.837
23102W        W87046  33.524   8.727  11.458
23103W        W87047  26.052  31.544   4.763
23104W        W87048   7.308  35.108  11.400
23105W        W87049  15.178  31.150   4.685
23106W        W87050  26.620   6.225   2.235
23107W        W87051   1.862  38.940  12.576
23108W        W87052   1.855  44.833   2.807
23109W        W87053  13.288  31.094  10.518
23110W        W87054   3.296  14.692  14.812
23111W        W87055  30.015  33.608  13.905
23112W        W87056  30.583  33.584  14.969
23113W        W87057   3.736  11.831   3.236
23114W        W87058   6.837   8.240   1.241
23115W        W87059   3.742  25.639   2.748
23116W        W87060  42.410  15.162   0.432
23117W        W87061  27.629  15.603  10.985
23118W        W87062  24.562  11.162   3.300
23119W        W87063  38.936  32.942  13.992
23120W        W87064  30.497  18.149  14.514
23121W        W87065  41.916   9.700  12.829
23122W        W87066   3.724  14.127  11.460
23123W        W87067   6.823   7.852   4.702
23124W        W87068  41.468  10.815   0.445
23125W        W87069  31.504  23.227  13.436
23126W        W87070   7.841  32.141   9.983
23127W        W87071   3.715  16.155   3.723
23128W        W87072  28.056  32.555   3.277
23129W        W87073  20.101   9.654   4.175
23130W        W87074  18.066   6.828  13.034
23131W        W87075  21.106   4.769   2.355
23132W        W87076  24.053  30.938  13.830
23133W        W87077  24.985  11.777  10.542
23134W        W87078  17.628   7.318  13.427
23135W        W87079  38.419  41.388  13.322
23136W        W87080   5.205  35.380  12.350
23137W        W87081  43.868  35.369   3.307
23138W        W87082  34.594  23.233  14.030
23139W        W87083   5.253  37.034   3.235
23140W        W87084  42.915  26.039   4.234
23141W        W87085   0.257  43.459  14.874
23142W        W87086   8.691  37.019   0.349
23143W        W87087  35.601  35.923   4.234
23144W        W87088  29.591  10.138   9.989
23145W        W87089   3.240  43.009   3.666
23146W        W87090  11.210  14.303   0.741
23147W        W87091  39.480  40.392   0.827
23148W        W87092  13.219  34.957   0.915
23149W        W87093   6.403   8.752   0.261
23150W        W87094   6.766  33.612  14.441
23151W        W87095  10.152  44.906  14.905
23152W        W87096  33.965  39.395   1.413
23153W        W87097  14.633   8.364  10.519
23154W        W87098   4.899  12.320  10.623
23155W        W87099  23.509  29.462   3.739
23156W        W87100  28.653   8.374   0.932
23157W        W87101  15.242  17.257   3.223
23158W        W87102  33.558   2.286   5.153
23159W        W87103  10.790  14.677   2.818
23160W        W87104  28.932   1.385   4.766
23161W        W87105   4.701  10.773  14.441
23162W        W87106  26.050  33.002   4.659
23163W        W87107  22.567   8.248  14.341
23164W        W87108  16.170   4.812   2.703
23165W        W87109   8.304  17.752   2.686
23166W        W87110  16.629  17.149  13.895
23167W        W87111  24.977  35.032   2.679
23168W        W87112   6.208   9.749  11.407
23169W        W87113  12.224  31.912   0.776
23170W        W87114  34.908  27.526  12.072
23171W        W87115  22.625   4.899  13.831
23172W        W87116  24.092  37.944  12.930
23173W        W87117  32.498   3.308   4.834
23174W        W87118   7.276  12.747   0.755
23175W        W87119  18.770  17.765  11.576
23176W        W87120  19.741  25.050  14.969
23177W        W87121   9.226  27.617   9.554
23178W        W87122  22.735  30.641   0.297
23179W        W87123  21.178  18.606  14.980
23180W        W87124  33.478  40.352  13.975
23181W        W87125   5.430  19.226   4.645
23182W        W87126  17.223   5.219   3.318
23183W        W87127   0.383  12.774   1.411
23184W        W87128   6.920  32.428  13.865
23185W        W87129   4.431  18.552   3.663
23186W        W87130  24.220   7.249   4.158
23187W        W87131   8.252  11.699   2.182
23188W        W87132  22.149  29.426  12.023
23189W        W87133   2.911  29.968  14.394
23190W        W87134  40.331  27.503  11.005
23191W        W87135  26.981  39.505   1.320
23192W        W87136  41.324  11.707   3.317
23193W        W87137  40.438  33.620  10.991
23194W        W87138   3.290  28.651  14.898
23195W        W87139  40.973  21.700   2.796
23196W        W87140  19.102  36.925   4.319
23197W        W87141  43.809  24.040   2.372
23198W        W87142  29.594  11.253   2.201
23199W        W87143  11.818  30.931  10.579
23200W        W87144  37.841  15.777   4.315
23201W        W87145  24.631   0.977  11.918
23202W        W87146  32.005   3.296   0.372
23203W        W87147  26.462  17.681   3.806
23204W        W87148   7.902  28.938  12.063
23205W        W87149  11.837   6.384   4.253
23206W        W87150  35.057   3.304   5.302
23207W        W87151  42.847  20.564   2.880
23208W        W87152  31.137  29.002  13.925
23209W        W87153   6.726  41.516  13.380
23210W        W87154  12.128   1.291  13.897
23211W        W87155  29.638   6.761   3.714
23212W        W87156  39.486  26.021  12.580
23213W        W87157  17.061  11.751   0.826
23214W        W87158  19.769   8.815   4.244
23215W        W87159  10.792   4.730  14.471
23216W        W87160  23.721  27.553  14.475
23217W        W87161   5.261  21.574   3.272
23218W        W87162  32.110   1.903   2.821
23219W        W87163   0.416  43.883   0.290
23220W        W87164  11.809  36.352  12.924
23221W        W87165  23.142  10.283  10.937
23222W        W87166   5.866  25.052  11.872
23223W        W87167  30.130  39.976  12.926
23224W        W87168  22.515   3.735   1.433
23225W        W87169  25.547  13.669   4.199
23226W        W87170  22.637  10.870  12.501
23227W        W87171  23.156  20.067   0.478
23228W        W87172   7.362  41.322  11.395
23229W        W87173  36.414  31.090   1.310
23230W        W87174  42.463   7.341  12.364
23231W        W87175  43.399  20.536   1.837
23232W        W87176  13.211  22.661  11.048
23233W        W87177  39.994   1.468   2.862
23234W        W87178  33.581   0.930  12.447
23235W        W87179  16.258  20.597  12.509
23236W        W87180  40.986  31.531  10.981
23237W        W87181  37.344  28.511   4.756
23238W        W87182  38.536  18.650  10.894
23239W        W87183  23.626  16.223  14.845
23240W        W87184  19.763  35.032   1.269
23241W        W87185  30.993   1.449  10.504
23242W        W87186  25.589  14.299   4.272
23243W        W87187  42.364  39.528   2.830
23244W        W87188  29.170  16.760   3.331
23245W        W87189  34.967  25.484   2.265
23246W        W87190   8.860   3.439   3.813
23247W        W87191  38.996  25.609  10.490
23248W        W87192   2.830  23.711  12.832
23249W        W87193  39.019  32.885  11.857
23250W        W87194   1.255   0.249   4.164
23251W        W87195   7.227  37.075   3.246
23252W        W87196  20.051  24.081   1.270
23253W        W87197  33.486  37.995   1.366
23254W        W87198  11.844  40.482   0.401
23255W        W87199  11.633  16.607  12.461
23256W        W87200   9.751  34.560  11.504
23257W        W87201  21.612   9.661   2.675
23258W        W87202  16.703  43.498  10.441
23259W        W87203  33.036  14.758  13.509
23260W        W87204   3.401  10.270   2.199
23261W        W87205   9.361  20.563   3.835
23262W        W87206  37.545  14.289  13.525
23263W        W87207  30.659  10.704  11.445
23264W        W87208  39.845  17.590   0.826
23265W        W87209   8.260  32.134   4.310
23266W        W87210  38.356   8.376   2.888
23267W        W87211  44.375  35.522   1.449
23268W        W87212  41.858  37.539   4.124
23269W        W87213  17.089  38.893   0.854
23270W        W87214  43.403  23.581  14.966
23271W        W87215  35.411  32.028   2.890
23272W        W87216  21.147  43.881  14.973
23273W        W87217  10.166  17.716   2.730
23274W        W87218  31.018   1.776   9.972
23275W        W87219   7.405   0.821  13.818
23276W        W87220  30.009  35.423   0.855
23277W        W87221  11.335  22.726   1.789
23278W        W87222  40.844  35.054   0.390
23279W        W87223  11.256  35.084  13.801
23280W        W87224  18.564  31.601  10.524
23281W        W87225  16.168  23.094   3.834
23282W        W87226  18.244  10.369  11.604
23283W        W87227  21.659   0.452  11.878
23284W        W87228  16.765  44.974  11.538
23285W        W87229  15.191  39.026   1.835
23286W        W87230  31.008   4.854  12.908
23287W        W87231  35.068  30.528  13.037
23288W        W87232  39.470  41.476  12.850
23289W        W87233  34.557  33.067  10.504
23290W        W87234  22.584   1.959   1.279
23291W        W87235   8.864  32.458  10.499
23292W        W87236  15.139  30.142   2.316
23293W        W87237  10.276  23.992  11.379
23294W        W87238   7.184  10.344   1.429
23295W        W87239  43.439  25.542   2.312
23296W        W87240  29.061  33.542  11.030
23297W        W87241   4.761   8.713   0.281
23298W        W87242  17.123   4.383  13.029
23299W        W87243  35.106  29.963  14.469
23300W        W87244  26.623  23.495  10.534
23301W        W87245   8.398  44.996   3.669
23302W        W87246  36.351  27.103   4.143
23303W        W87247  31.632  27.980   4.675
23304W        W87248  31.648  21.532   4.189
23305W        W87249  34.941  38.386   3.158
23306W        W87250  32.969  32.601  12.900
23307W        W87251   8.311   0.957   1.279
23308W        W87252  14.785   5.346  12.903
23309W        W87253  14.133   1.342   3.186
23310W        W87254  14.206   0.953   1.912
23311W        W87255  39.332   3.371  13.980
23312W        W87256  24.130  13.338   2.684
23313W        W87257  29.987  25.684   1.823
23314W        W87258  24.622  24.138  10.507
23315W        W87259  26.660  18.076  12.004
23316W        W87260  42.312  16.264  13.381
23317W        W87261  29.609  15.280  11.588
23318W        W87262   4.401  21.197   1.225
23319W        W87263  36.515  32.489  12.905
23320W        W87264  27.947  28.183   0.277
23321W        W87265  39.373   5.709   0.297
23322W        W87266  20.090  26.588   2.787
23323W        W87267  33.382   0.403   3.375
23324W        W87268  28.601  34.424   0.401
23325W        W87269  33.449  19.704   3.221
23326W        W87270  30.956  22.531   3.182
23327W        W87271  13.752  14.602   0.295
23328W        W87272  25.191  28.991   0.382
23329W        W87273  17.218   6.687   5.177
23330W        W87274  15.712  42.404  13.800
23331W        W87275  44.835   1.316   4.838
23332W        W87276   8.304   7.184   1.371
23333W        W87277  33.109  42.526   2.765
23334W        W87278  10.819  29.134   2.726
23335W        W87279  42.870  35.096  12.508
23336W        W87280  37.581  41.454  13.327
23337W        W87281   3.865   5.860   2.331
23338W        W87282  13.687   5.847  11.079
23339W        W87283  29.578  33.100  14.373
23340W        W87284   8.253  35.883   2.885
23341W        W87285  21.578   5.827  13.795
23342W        W87286  22.632   5.712   4.240
23343W        W87287  24.181  33.881   4.293
23344W        W87288   2.826  11.725   1.246
23345W        W87289   2.735  21.213   4.311
23346W        W87290  20.626  28.080  14.770
23347W        W87291  37.539  36.908  13.415
23348W        W87292  20.271   9.692  13.914
23349W        W87293  26.065  44.342  13.994
23350W        W87294  28.472  16.119  10.623
23351W        W87295  30.527  44.400   3.161
23352W        W87296  39.525   8.753   1.935
23353W        W87297  41.499   2.938   0.919
23354W        W87298   6.729  20.131   4.218
23355W        W87299  33.492  23.998   4.735
23356W        W87300  18.782  19.219  13.889
23357W        W87301  30.456  41.377  10.911
23358W        W87302   8.365   9.380   3.317
23359W        W87303  35.884  27.144   0.865
23360W        W87304  31.062   6.258  13.879
23361W        W87305   8.331  32.502   4.777
23362W        W87306  33.478  24.651  13.518
23363W        W87307  35.075  42.395  11.472
23364W        W87308  20.168  39.972   2.206
23365W        W87309  23.010   2.778  14.806
23366W        W87310  33.925  19.175  13.921
23367W        W87311  31.964   5.835  11.035
23368W        W87312  10.160  33.912   2.886
23369W        W87313  25.469  19.763  11.519
23370W        W87314  44.481  16.568  13.043
23371W        W87315  21.580  38.378  14.312
23372W        W87316  17.568  39.504  14.759
23373W        W87317  20.665  41.973  13.435
23374W        W87318  37.905  33.968  12.873
23375W        W87319  23.229   4.425   1.754
23376W        W87320  38.031  43.943   4.606
23377W        W87321  43.845  28.038   2.879
23378W        W87322  33.477  17.648  10.447
23379W        W87323   7.754  14.660   4.146
23380W        W87324  23.705  42.969  12.904
23381W        W87325   3.339  20.057  14.894
23382W        W87326  11.740   0.395  12.526
23383W        W87327  17.192   7.219   4.171
23384W        W87328   1.450  14.618  12.500
23385W        W87329   0.893  26.632  10.620
23386W        W87330  36.062   4.938  14.399
23387W        W87331  17.732   5.849   2.393
23388W        W87332  22.235  25.631   2.205
23389W        W87333  40.303  21.120   2.328
23390W        W87334   7.771  16.107  11.073
23391W        W87335   3.717  19.094  13.892
23392W        W87336  17.159  29.544   0.337
23393W        W87337  18.685  20.169   0.820
23394W        W87338  10.856  33.610   4.114
23395W        W87339  34.452  44.771   4.237
23396W        W87340  43.314  44.800  14.495
23397W        W87341  38.325  39.549   4.674
23398W        W87342  33.067  21.085  13.410
23399W        W87343  35.368   2.349   1.311
23400W        W87344  20.687  18.650   3.828
23401W        W87345   5.805  38.864  12.421
23402W        W87346  23.710  10.651  14.304
23403W        W87347  19.155   0.353  10.642
23404W        W87348  35.967   1.289  11.450
23405W        W87349  39.862   2.792  11.585
23406W        W87350  22.538  25.982   4.800
23407W        W87351  10.294  14.255   2.207
23408W        W87352  17.561  31.452  11.444
23409W        W87353  16.695  13.759   1.706
23410W        W87354  24.717  25.523   2.672
23411W        W87355  32.932   0.984  12.844
23412W        W87356  31.069  29.960  11.087
23413W        W87357   3.938   9.262  11.472
23414W        W87358  35.898  21.553   0.884
23415W        W87359   2.447  30.090   0.734
23416W        W87360   7.770  41.366   1.254
23417W        W87361  43.865  44.776   4.721
23418W        W87362  11.215  15.293   2.185
23419W        W87363  31.014  43.508   3.716
23420W        W87364  25.078   0.403  13.364
23421W        W87365  32.037  40.497  10.907
23422W        W87366  26.490  22.622  13.850
23423W        W87367   3.858   4.847   4.791
23424W        W87368   8.882  19.252  11.503
23425W        W87369  19.749  32.558   0.904
23426W        W87370  21.537   7.859   2.705
23427W        W87371  20.592  28.510  14.455
23428W        W87372  24.149  43.977   0.447
23429W        W87373   1.752  16.708   4.213
23430W        W87374  38.332   1.262  11.409
23431W        W87375   8.197   0.855  13.822
23432W        W87376  28.621  22.210  14.803
23433W        W87377  44.270  30.164  11.445
23434W        W87378  44.933  24.509  11.015
23435W        W87379  37.984  28.157  11.569
23436W        W87380   9.187  42.398  14.473
23437W        W87381  37.958   5.828   3.190
23438W        W87382   2.744  26.206   0.904
23439W        W87383   6.889  40.484  13.913
23440W        W87384  19.216  11.268   0.797
23441W        W87385  13.609   0.859  12.400
23442W        W87386  44.903  37.977  12.020
23443W        W87387   1.390  11.210  14.281
23444W        W87388  21.180   7.242  10.429
23445W        W87389   1.358  31.582  13.948
23446W        W87390  42.509  37.367  13.893
23447W        W87391  37.843  31.421  13.938
23448W        W87392   1.856  12.620  12.449
23449W        W87393  40.539  44.286   3.686
23450W        W87394  30.082  34.044   2.861
23451W        W87395   3.387  11.860   3.196
23452W        W87396  12.252  27.574  11.970
23453W        W87397  31.447  28.974  13.883
23454W        W87398  41.449  34.375   2.267
23455W        W87399  21.156   5.832  11.996
23456W        W87400  43.004  27.023   3.284
23457W        W87401  17.065  43.391   1.405
23458W        W87402  17.801  40.483  13.961
23459W        W87403  36.483  31.618  12.032
23460W        W87404  16.575   0.927  12.025
23461W        W87405   7.757  35.411   0.818
23462W        W87406  40.518  25.672   3.844
23463W        W87407  23.502  32.989   0.949
23464W        W87408   9.815   6.685   4.807
23465W        W87409  21.598  29.110   1.450
23466W        W87410  39.032  36.356  14.926
23467W        W87411  20.709   3.908   4.602
23468W        W87412   7.226  13.758  10.897
23469W        W87413  24.120   7.273  13.903
23470W        W87414  27.007  23.007  10.923
23471W        W87415  33.389   9.177  12.409
23472W        W87416  36.959   9.149   4.181
23473W        W87417  23.158  35.443   3.705
23474W        W87418  27.152   4.276   1.218
23475W        W87419  14.617  37.984  10.451
23476W        W87420  41.294  23.023   3.371
23477W        W87421  26.635  35.898   0.460
23478W        W87422  27.578   1.264  10.455
23479W        W87423  32.885  18.650  13.472
23480W        W87424  10.797  17.284   1.310
23481W        W87425   1.956  36.048   3.825
23482W        W87426  34.385  28.955  14.970
23483W        W87427  37.934  42.783   4.771
23484W        W87428  43.969   4.261   4.249
23485W        W87429  30.563   6.841  12.502
23486W        W87430  22.166  40.944   1.752
23487W        W87431  27.494  39.401   3.376
23488W        W87432   2.436  44.005   0.402
23489W        W87433  22.546  24.484   1.717
23490W        W87434  30.563  44.431   3.793
23491W        W87435  39.364  36.552  11.433
23492W        W87436  17.112  37.449  12.383
23493W        W87437  32.546   5.240   1.348
23494W        W87438   8.822  39.534   2.879
23495W        W87439  39.826  40.442   3.852
23496W        W87440  16.273   7.839   3.194
23497W        W87441  28.556  18.193   4.220
23498W        W87442  30.004  23.550   4.330
23499W        W87443  11.776   4.438  11.055
23500W        W87444   3.715  22.166  13.495
23501W        W87445  37.347  16.689  13.063
23502W        W87446  32.598  35.539   0.943
23503W        W87447  38.000  16.181   4.618
23504W        W87448  17.156   1.800  11.067
23505W        W87449  21.049   1.854  14.452
23506W        W87450   4.825  14.601   2.314
23507W        W87451  25.167  32.425  13.394
23508W        W87452  17.635  31.941   3.189
23509W        W87453   2.758  19.604  14.494
23510W        W87454   6.383   5.351  12.975
23511W        W87455   9.267  42.005  11.046
23512W        W87456  40.314  25.689   3.289
23513W        W87457  15.802  13.825  12.421
23514W        W87458  25.214  15.767   2.189
23515W        W87459  27.459   7.321   3.743
23516W        W87460  34.946  36.434  13.401
23517W        W87461   8.250  23.214  13.844
23518W        W87462   2.312   3.778   0.766
23519W        W87463  31.510  37.921  13.485
23520W        W87464  18.688  37.838   4.338
23521W        W87465   8.207   8.831  14.936
23522W        W87466  30.432  31.511  10.489
23523W        W87467  12.770   4.749  12.523
23524W        W87468  20.192  20.761  11.430
23525W        W87469   4.781  34.020  10.432
23526W        W87470  31.634  34.419   0.913
23527W        W87471   3.951  44.474  13.028
23528W        W87472  10.871  44.800   1.269
23529W        W87473   5.400  17.265   3.255
23530W        W87474  34.970  21.050  12.359
23531W        W87475   9.218  33.593  12.088
23532W        W87476  27.093  34.570   0.814
23533W        W87477   7.352  35.942   0.849
23534W        W87478  27.546  25.115  12.974
23535W        W87479   2.918   9.354   3.728
23536W        W87480  13.207   0.921   3.755
23537W        W87481  19.111  29.435   2.194
23538W        W87482  29.090  16.791  11.030
23539W        W87483  23.545  44.009  13.484
23540W        W87484   1.381  10.217   3.808
23541W        W87485  17.123  41.986  14.515
23542W        W87486  10.309  12.118   0.430
23543W        W87487  13.655  38.329   1.871
23544W        W87488   9.853  33.092   4.682
23545W        W87489  26.195   5.848   2.332
23546W        W87490  39.514  26.005   1.348
23547W        W87491  31.907   0.834  11.879
23548W        W87492   2.261  15.758   3.818
23549W        W87493  43.352   7.390  12.450
23550W        W87494  42.326  29.563   0.842
23551W        W87495  30.102  26.680  13.834
23552W        W87496  37.037   5.907   0.957
23553W        W87497  36.092  24.621   1.900
23554W        W87498  23.614  23.001  10.543
23555W        W87499  42.924  12.226  12.548
23556W        W87500  41.988   9.189  13.453
23557W        W87501  31.585  18.188  11.441
23558W        W87502  24.981  30.587   0.474
23559W        W87503  32.985  22.647  10.406
23560W        W87504  22.614  44.851   1.694
23561W        W87505  40.449  16.301   4.343
23562W        W87506  20.266  43.376   0.378
23563W        W87507   7.699   1.848   9.967
23564W        W87508  32.442  29.162  11.515
23565W        W87509   1.299  42.477   2.802
23566W        W87510  36.022  32.391   2.340
23567W        W87511  25.602  12.265   0.431
23568W        W87512  11.294  20.524   0.338
23569W        W87513  38.834   0.847  13.821
23570W        W87514   4.703   1.309   1.447
23571W        W87515  10.326   6.307  13.383
23572W        W87516  18.550  12.615   0.422
23573W        W87517   6.921  10.209  14.416
23574W        W87518  31.440  39.426  13.855
23575W        W87519  23.061  18.638   3.206
23576W        W87520  34.969  41.819  14.985
23577W        W87521  31.465   1.474   1.388
23578W        W87522   9.645  20.042  11.423
23579W        W87523  44.299   8.768   4.627
23580W        W87524  15.240   4.387  11.026
23581W        W87525  23.704  14.743   4.172
23582W        W87526  28.998   3.864   0.482
23583W        W87527  44.397  10.377   2.810
23584W        W87528  23.658   1.966  13.962
23585W        W87529  26.595  12.767  12.076
23586W        W87530  16.301  35.477   2.393
23587W        W87531  42.887  28.027   0.245
23588W        W87532   8.332   5.824   3.723
23589W        W87533  10.670  21.662  13.436
23590W        W87534  26.674  17.206   3.775
23591W        W87535  15.109  25.055  13.504
23592W        W87536   2.319   4.244   2.801
23593W        W87537   5.270  40.849  10.899
23594W        W87538  15.709  35.945   2.340
23595W        W87539  18.757  17.137   2.385
23596W        W87540  34.536  31.058   4.125
23597W        W87541  15.605   5.362  14.487
23598W        W87542  20.253  42.493   0.360
23599W        W87543  19.220   1.857  12.854
23600W        W87544  41.003  26.465   2.399
23601W        W87545  11.292  42.407  11.040
23602W        W87546   2.755  30.075   3.750
23603W        W87547  36.363   9.294  13.323
23604W        W87548  10.877  38.523  12.550
23605W        W87549  41.369   8.382  11.411
23606W        W87550   7.372  37.552   1.711
23607W        W87551  22.522  16.091  11.009
23608W        W87552  41.531   1.403   0.952
23609W        W87553  25.201  29.080   4.644
23610W        W87554   8.754   8.729  11.463
23611W        W87555   5.306  36.898   3.821
23612W        W87556   7.266  19.544   1.227
23613W        W87557  39.037  32.988   1.765
23614W        W87558  37.869  21.567   0.345
23615W        W87559   1.914  12.285   1.769
23616W        W87560  36.958  30.459  14.499
23617W        W87561  33.568  30.067   0.793
23618W        W87562  12.148  28.514   0.406
23619W        W87563  44.852   7.336  13.880
23620W        W87564   6.298  18.666   3.853
23621W        W87565   7.227  24.491  12.975
23622W        W87566  24.993  19.660  12.438
23623W        W87567  30.525   6.340  11.017
23624W        W87568   4.400  24.115  14.939
23625W        W87569  31.107  26.097   1.365
23626W        W87570   9.886  38.547  14.931
23627W        W87571   4.886  44.790  11.502
23628W        W87572  24.054  40.518   0.752
23629W        W87573  10.643  41.821  11.447
23630W        W87574  21.121   9.855   2.296
23631W        W87575  32.448  13.688   2.858
23632W        W87576  24.008  17.142  14.813
23633W        W87577  12.144  32.399  14.345
23634W        W87578   7.289  41.000  11.874
23635W        W87579  20.078  36.065   2.703
23636W        W87580   7.249  32.518  14.835
23637W        W87581  27.025  18.229   0.785
23638W        W87582   2.469  41.321   4.334
23639W        W87583   9.686  42.508  14.303
23640W        W87584  25.584  32.529   2.382
23641W        W87585   6.237   9.823  11.004
23642W        W87586  42.487  11.212  14.466
23643W        W87587  22.655  25.082   4.662
23644W        W87588  36.385  26.026   1.925
23645W        W87589  20.103  16.670   0.776
23646W        W87590  26.634  12.343  12.086
23647W        W87591  35.455  23.533   1.443
23648W        W87592  29.518   9.850   3.155
23649W        W87593  13.135  17.694  12.973
23650W        W87594  22.549   5.723   1.837
23651W        W87595  26.120   5.714  10.644
23652W        W87596  34.377  28.932   2.205
23653W        W87597   8.248  17.599  14.831
23654W        W87598  17.068   4.269  12.442
23655W        W87599  17.597   2.358  12.569
23656W        W87600   9.324   6.285  14.378
23657W        W87601  14.797  21.673   2.283
23658W        W87602  26.079  28.539   2.671
23659W        W87603  11.356  29.156  11.073
23660W        W87604  15.219  14.134   3.785
23661W        W87605  25.559  41.465  11.518
23662W        W87606  30.539  43.968  11.045
23663W        W87607  32.535  25.649  13.937
23664W        W87608  33.571  13.241  10.629
23665W        W87609  22.113  43.800   3.381
23666W        W87610  13.797  36.438   1.372
23667W        W87611   9.787  12.783  12.828
23668W        W87612  30.160  13.131   0.413
23669W        W87613  35.414  39.536   0.734
23670W        W87614  34.433  29.028   0.249
23671W        W87615  20.029   6.334  13.830
23672W        W87616   2.373  21.620   3.170
23673W        W87617  31.027  41.030   0.367
23674W        W87618  15.114  40.478   1.237
23675W        W87619  15.282  40.829  12.478
23676W        W87620  23.202  29.977  14.775
23677W        W87621  25.658   6.407  14.915
23678W        W87622  24.560  25.190  14.868
23679W        W87623  18.122  22.996   0.921
23680W        W87624  10.272  26.088   2.693
23681W        W87625  31.077  25.162   1.879
23682W        W87626  26.674  31.625   1.278
23683W        W87627   7.174  42.856  14.290
23684W        W87628   2.406  23.169  14.952
23685W        W87629   4.263  22.229  13.456
23686W        W87630   0.386   5.418   5.251
23687W        W87631  32.128  12.178  11.868
23688W        W87632  44.476   9.330   2.709
23689W        W87633  25.007  14.720   1.349
23690W        W87634  18.616   4.337  12.397
23691W        W87635  24.227  37.043  10.968
23692W        W87636   1.751   9.701  13.990
23693W        W87637  31.630  13.724  13.416
23694W        W87638   3.872  20.071   3.233
23695W        W87639   2.282  32.942   0.963
23696W        W87640  20.606   5.913  13.462
23697W        W87641  21.047  19.732   0.961
23698W        W87642  43.930   2.783   1.398
23699W        W87643  43.811  11.334  14.840
23700W        W87644   3.792   3.856   1.845
23701W        W87645  26.094  30.065  11.893
23702W        W87646  28.475  33.952  10.570
23703W        W87647  18.064   8.191  12.912
23704W        W87648  33.623   5.345  14.376
23705W        W87649  21.182   8.773   1.793
23706W        W87650  11.263   8.309   1.776
23707W        W87651  31.903  31.028   3.259
23708W        W87652  37.373   8.834   2.279
23709W        W87653  17.111  13.203  10.943
23710W        W87654  28.018  11.622   1.901
23711W        W87655   3.756  43.833   3.842
23712W        W87656   5.350  12.162   0.755
23713W        W87657  34.407   4.323   3.708
23714W        W87658  22.517  38.847  12.574
23715W        W87659  43.975  37.955  13.416
23716W        W87660  44.940  23.656  14.896
23717W        W87661  20.043  21.688   3.708
23718W        W87662  13.807  27.613  13.001
23719W        W87663  32.069  18.121   3.678
23720W        W87664  16.705  20.688  14.929
23721W        W87665   4.224   6.299   9.547
23722W        W87666  24.537  28.456  12.910
23723W        W87667  22.168  33.122  10.972
23724W        W87668  22.743  18.747   2.398
23725W        W87669  39.513  10.261  12.381
23726W        W87670  36.050  13.725  13.447
23727W        W87671  18.109  19.200   3.364
23728W        W87672  25.148  28.186   1.395
23729W        W87673  41.943  31.032   4.158
23730W        W87674  36.386  28.525  13.315
23731W        W87675  36.541  44.986   1.303
23732W        W87676  14.621  30.599  12.504
23733W        W87677  31.483  38.829  13.445
23734W        W87678  19.146   3.950  10.985
23735W        W87679   0.912  41.849  11.545
23736W        W87680  36.018  20.593  12.483
23737W        W87681  11.710   9.759   0.424
23738W        W87682  21.607   3.869  14.765
23739W        W87683  29.023  39.430   1.228
23740W        W87684  37.551  25.069   2.683
23741W        W87685   0.862  28.083   1.400
23742W        W87686  15.108  40.549   2.853
23743W        W87687   4.933  19.637  12.424
23744W        W87688   2.317  14.312  10.444
23745W        W87689  25.107  32.636  13.804
23746W        W87690  21.222  16.719   1.861
23747W        W87691  12.265   7.195   1.777
23748W        W87692  29.065  19.092   0.871
23749W        W87693  14.145  39.042   4.660
23750W        W87694  42.429  39.891  13.995
23751W        W87695  42.426  14.761  11.025
23752W        W87696  22.571  23.043  12.036
23753W        W87697  17.137  22.681   1.922
23754W        W87698  42.938  17.139   1.419
23755W        W87699  24.996   0.746   4.312
23756W        W87700  16.573  23.025  12.898
23757W        W87701  13.248  10.843   2.665
23758W        W87702   7.723  24.646   4.339
23759W        W87703   5.402  16.218  10.485
23760W        W87704  29.651  25.214  13.439
23761W        W87705  22.188   2.733   4.615
23762W        W87706  20.547  37.435  12.841
23763W        W87707  20.576  15.596   3.219
23764W        W87708   8.855  39.879   2.813
23765W        W87709   4.857  32.564  10.487
23766W        W87710  30.430  41.474  12.421
23767W        W87711  25.166   7.217   1.926
23768W        W87712   0.912  10.355  12.502
23769W        W87713  44.911   2.922  13.532
23770W        W87714  20.545  34.421  12.864
23771W        W87715  26.696  32.114  12.525
23772W        W87716   9.887  28.605  14.324
23773W        W87717   4.309  42.009  12.494
23774W        W87718  10.838  25.985  12.440
23775W        W87719  25.495  32.053   3.248
23776W        W87720  26.958   6.785   4.819
23777W        W87721  15.328  43.768  12.501
23778W        W87722   8.310  33.041  10.991
23779W        W87723  31.435  38.461   4.807
23780W        W87724  20.733  39.499  12.525
23781W        W87725  30.150   1.434  11.017
23782W        W87726  39.032   7.727   4.660
23783W        W87727  32.935  24.552  12.963
23784W        W87728  20.549  36.593   3.818
23785W        W87729   1.309  44.306   3.706
23786W        W87730  16.114   3.750  12.868
23787W        W87731  22.722   7.359  14.427
23788W        W87732  14.758  29.506   3.662
23789W        W87733  25.089   8.810   0.771
23790W        W87734  34.464   1.857  13.484
23791W        W87735  12.160   0.794  12.912
23792W        W87736  27.055   3.329  14.513
23793W        W87737  40.416   5.359  14.338
23794W        W87738   9.648  22.655   3.786
23795W        W87739   2.915  33.468   3.707
23796W        W87740  42.849  38.881   5.259
23797W        W87741  16.765  34.458  11.858
23798W        W87742  40.838  34.369  14.278
23799W        W87743  33.104  21.748  10.442
23800W        W87744   2.241  14.314   1.787
23801W        W87745   9.252  35.027  14.763
23802W        W87746  22.059   7.245  13.024
23803W        W87747  21.756  44.305   2.334
23804W        W87748   7.372  24.685  12.568
23805W        W87749  22.104  26.691  13.878
23806W        W87750  25.649  35.585   1.264
23807W        W87751  43.908  35.017   2.193
23808W        W87752  25.668   3.886   4.805
23809W        W87753  43.861   1.797   3.172
23810W        W87754   4.807   5.379   3.653
23811W        W87755  11.630   8.252  10.559
23812W        W87756  18.621  20.115   1.795
23813W        W87757  20.539  40.379   4.682
23814W        W87758  13.842  23.180   0.408
23815W        W87759  41.037  38.414  11.931
23816W        W87760  20.223  25.595   2.289
23817W        W87761  40.004   2.226   1.374
23818W        W87762   3.416  23.604   0.272
23819W        W87763  38.959  37.067   3.750
23820W        W87764  43.844  25.549   3.247
23821W        W87765  19.730  23.619   2.372
23822W        W87766  43.957  34.403   4.602
23823W        W87767  10.239   3.767  13.811
23824W        W87768  43.778  42.977  10.536
23825W        W87769   3.271  44.960   0.482
23826W        W87770  32.064  39.922   2.309
23827W        W87771  13.151   6.352   4.752
23828W        W87772  26.114  12.689   3.232
23829W        W87773  26.565  35.081   4.278
23830W        W87774  24.058  18.172  13.870
23831W        W87775  40.360  18.054  10.961
23832W        W87776  37.375  17.589  14.347
23833W        W87777  12.302  22.103  14.926
23834W        W87778  16.597  11.639   2.396
23835W        W87779  10.687  17.703  11.465
23836W        W87780  39.333   9.361   4.734
23837W        W87781  19.181   6.250  12.858
23838W        W87782  23.042  10.634   2.369
23839W        W87783   2.818  44.325   3.291
23840W        W87784   9.688  13.297   3.758
23841W        W87785   0.320  14.175  14.422
23842W        W87786  34.964   1.419   2.414
23843W        W87787  15.726  43.359  14.354
23844W        W87788   3.731  38.543   0.335
23845W        W87789   9.312  28.140  11.497
23846W        W87790   6.823  25.524   2.832
23847W        W87791  33.900  10.728  10.418
23848W        W87792  29.157  17.157   3.737
23849W        W87793  14.182  43.940   4.149
23850W        W87794  39.897  44.852  12.469
23851W        W87795   0.808  11.195   3.838
23852W        W87796  11.696  27.999   4.280
23853W        W87797  29.635  25.661  11.391
23854W        W87798   3.223   1.734  13.387
23855W        W87799  40.437  39.981   0.798
23856W        W87800  30.498   3.274  10.962
23857W        W87801   3.309  11.199   2.887
23858W        W87802  39.530  26.570  14.889
23859W        W87803  43.887  14.610  11.934
23860W        W87804  42.424  31.645   1.376
23861W        W87805  36.889  22.152   1.910
23862W        W87806  24.986  32.623   0.855
23863W        W87807  15.141  20.764  12.074
23864W        W87808   6.369  25.039   4.299
23865W        W87809   0.337  15.308  10.630
23866W        W87810   0.920   2.916  14.315
23867W        W87811  26.633  31.942  10.978
23868W        W87812  43.992  12.116   1.696
23869W        W87813  27.183  16.183   1.884
23870W        W87814  21.728  21.119  13.977
23871W        W87815  42.855  44.262  11.492
23872W        W87816  31.094  14.605  10.499
23873W        W87817  17.762  30.014  14.881
23874W        W87818   9.384  39.333   1.793
23875W        W87819  17.105  44.391   2.845
23876W        W87820  16.234  39.510   3.323
23877W        W87821  10.374  22.040  14.351
23878W        W87822  24.042  11.250   1.705
23879W        W87823  11.160  17.183  13.030
23880W        W87824  31.008  14.813  11.909
23881W        W87825   4.784  22.201   3.633
23882W        W87826   8.732  27.663  10.982
23883W        W87827   0.793   0.425  13.393
23884W        W87828  35.070  41.508  12.009
23885W        W87829   7.360  28.443  14.358
23886W        W87830  32.901  40.948   4.661
23887W        W87831  25.650  28.000   4.599
23888W        W87832  12.157  12.644  14.310
23889W        W87833   8.815  41.893  12.964
23890W        W87834  22.035   5.781   4.833
23891W        W87835   3.812   3.461   0.742
23892W        W87836   8.855  44.274   1.709
23893W        W87837  22.634  29.077  10.500
23894W        W87838  19.178  39.867  11.030
23895W        W87839  41.841  44.902  11.953
23896W        W87840  28.995  25.994  12.976
23897W        W87841  44.490  44.816   4.707
23898W        W87842  27.554   8.173  13.508
23899W        W87843  26.517  25.070  10.581
23900W        W87844  29.154  32.588  11.608
23901W        W87845   9.821  17.240  13.388
23902W        W87846   5.915  42.942  12.963
23903W        W87847  34.027  37.012  12.438
23904W        W87848  23.011  16.705   4.615
23905W        W87849  10.828   4.857   4.799
23906W        W87850  13.293  11.804   2.901
23907W        W87851  40.548  14.160   3.858
23908W        W87852   9.387   0.340   4.693
23909W        W87853  24.609  29.926   2.187
23910W        W87854  27.117  40.920  12.934
23911W        W87855  18.735  29.965   3.844
23912W        W87856  42.432  32.632  14.841
23913W        W87857  37.991  34.464  11.388
23914W        W87858  14.255  21.757  10.949
23915W        W87859   5.908  32.024   0.785
23916W        W87860  37.039  12.332   3.790
23917W        W87861  17.218  33.023   0.858
23918W        W87862  41.832  23.582  14.913
23919W        W87863  30.522  17.658   2.249
23920W        W87864  12.261  44.359  13.822
23921W        W87865   5.723  29.560   0.943
23922W        W87866  40.029   5.241   0.423
23923W        W87867  29.595  44.897  13.526
23924W        W87868  13.679   6.399   2.318
23925W        W87869  12.809  38.847   1.440
23926W        W87870  32.575  16.692  14.365
23927W        W87871   3.859  26.178  11.518
23928W        W87872  37.478  34.953  14.358
23929W        W87873   8.688  12.128   0.881
23930W        W87874  23.178  12.857   0.785
23931W        W87875   0.298  41.459  12.989
23932W        W87876  34.007   9.762  11.128
23933W        W87877  10.380  23.562  11.039
23934W        W87878  40.478  43.777  13.398
23935W        W87879  25.109  26.530  13.028
23936W        W87880  18.784  27.187   3.775
23937W        W87881  31.555  38.550  11.986
23938W        W87882  29.482  23.630   3.252
23939W        W87883  33.917   1.390   4.319
23940W        W87884  16.700   9.195   3.646
23941W        W87885   5.743  12.730  11.962
23942W        W87886  33.875  25.584   2.189
23943W        W87887  32.621   8.878  11.018
23944W        W87888  40.376  41.369   4.651
23945W        W87889  30.993  20.032  13.339
23946W        W87890   6.413  23.170  12.460
23947W        W87891  37.047  13.135   2.352
23948W        W87892  24.667  36.887  11.396
23949W        W87893  10.835  29.662   4.343
23950W        W87894  31.031   7.398  13.366
23951W        W87895  10.377  34.901  13.508
23952W        W87896  39.514  12.217  12.952
23953W        W87897  40.493   0.747  13.370
23954W        W87898  30.462  26.557  13.357
23955W        W87899  15.684  23.021   0.256
23956W        W87900  42.405  16.291  13.868
23957W        W87901  10.836  31.637   0.446
23958W        W87902  27.445  17.744   3.162
23959W        W87903  39.332  15.277  12.569
23960W        W87904   8.848  35.047  12.095
23961W        W87905  13.266  34.910  11.573
23962W        W87906  12.640  38.420   0.873
23963W        W87907  40.360  37.538  13.905
23964W        W87908  28.084  18.234   0.960
23965W        W87909  17.154  11.784   1.406
23966W        W87910  33.576  16.234   4.763
23967W        W87911  13.255  43.773  11.868
23968W        W87912  13.804  38.440  11.913
23969W        W87913   3.352   3.855  14.400
23970W        W87914  28.988  43.966   1.876
23971W        W87915  39.878  23.508  13.062
23972W        W87916   9.851  40.826  14.328
23973W        W87917   6.781  13.602  14.279
23974W        W87918  36.953   6.300   3.246
23975W        W87919  35.862  33.417   0.458
23976W        W87920   8.404   6.258  12.052
23977W        W87921   5.378  25.055   3.364
23978W        W87922   7.230  22.129  14.426
23979W        W87923  18.211   1.385   2.799
23980W        W87924  25.104  25.536   4.298
23981W        W87925  13.124  16.140  14.875
23982W        W87926  27.497  10.198  13.509
23983W        W87927  17.623  43.295  11.958
23984W        W87928  39.404  15.605   0.431
23985W        W87929  18.103  42.310   0.761
23986W        W87930  19.106  16.156   4.730
23987W        W87931  13.190  11.349  10.613
23988W        W87932  37.516   6.381  12.981
23989W        W87933  36.403  19.760  10.017
23990W        W87934  23.147   5.383  11.925
23991W        W87935  20.746  43.373  11.034
23992W        W87936  12.696   0.778   0.865
23993W        W87937  29.508  20.573  12.907
23994W        W87938  18.071  27.092  11.897
23995W        W87939  32.007  19.236  13.812
23996W        W87940  32.443  18.715  12.414
23997W        W87941  26.555  43.777  11.995
23998W        W87942   6.916  30.475  13.471
23999W        W87943  13.223  38.374   2.193
24000W        W87944  17.641  20.255  13.029
24001W        W87945  41.450  42.293  12.447
24002W        W87946  34.491   6.233   2.760
24003W        W87947  39.557  19.132  14.308
24004W        W87948  34.995   5.909  11.001
24005W        W87949  39.342  25.687   0.338
24006W        W87950  17.287   3.932  12.433
24007W        W87951   0.434  36.462  13.795
24008W        W87952  26.679   3.908   3.730
24009W        W87953   3.416  24.217  11.977
24010W        W87954  42.957   1.789  11.401
24011W        W87955  14.607  37.371  10.893
24012W        W87956   2.383   1.937  11.490
24013W        W87957  21.234  32.063  11.562
24014W        W87958  44.407  34.959   3.386
24015W        W87959  23.116  10.734   1.900
24016W        W87960  38.852  21.067  11.911
24017W        W87961  30.485  14.100   2.767
24018W        W87962  10.368  43.978  13.548
24019W        W87963   1.374  31.045  10.564
24020W        W87964  30.002  19.645  14.342
24021W        W87965   0.489  14.282  11.911
24022W        W87966  24.112  21.100  12.096
24023W        W87967  21.210  38.555   3.316
24024W        W87968   7.812   5.792  11.981
24025W        W87969  15.201  39.486  12.012
24026W        W87970   1.384   6.788   2.720
24027W        W87971  13.203   3.786   4.223
24028W        W87972  19.738  13.174  12.913
24029W        W87973   5.317  25.515  12.850
24030W        W87974  38.369  28.978  13.998
24031W        W87975  27.066  26.473  12.028
24032W        W87976   4.924   6.344   0.960
24033W        W87977   5.398  26.176   0.769
24034W        W87978  31.430  41.865   0.301
24035W        W87979   1.246  23.135   4.777
24036W        W87980   5.282  29.069  10.993
24037W        W87981  26.174  15.736  10.888
24038W        W87982   5.893  20.568   3.302
24039W        W87983  30.553   0.435   3.387
24040W        W87984  32.928  21.105   0.795
24041W        W87985  35.426  44.421  14.484
24042W        W87986  33.572  10.721   0.846
24043W        W87987  31.086   6.809  13.027
24044W        W87988   9.323  11.770  12.341
24045W        W87989  24.142  27.033   3.862
24046W        W87990  38.993   8.385   4.175
24047W        W87991  12.302   0.903  13.392
24048W        W87992   5.852  10.163   4.308
24049W        W87993  13.237   5.365  11.985
24050W        W87994  41.043  12.237   2.765
24051W        W87995  25.549   4.351   4.335
24052W        W87996  13.803  22.607  14.774
24053W        W87997  40.990   4.712   3.187
24054W        W87998  35.532  44.788   3.258
24055W        W87999  44.396  42.031   3.254
24056W        W88000  40.434   4.253   1.829
24057W        W88001  15.119   5.890  11.900
24058W        W88002  16.711  39.357   1.739
24059W        W88003  20.223  26.076   0.483
24060W        W88004   8.315  20.242  14.316
24061W        W88005  19.739  19.158   0.463
24062W        W88006  32.106  40.545  11.945
24063W        W88007  30.033  27.050  11.596
24064W        W88008  29.156  33.389  12.965
24065W        W88009   1.466  42.996   4.623
24066W        W88010  24.664  37.418  13.382
24067W        W88011  38.471  26.524  11.435
24068W        W88012  28.672  23.022  13.887
24069W        W88013   5.848  11.705   1.846
24070W        W88014  40.501  17.759  12.387
24071W        W88015  10.670  29.570  13.995
24072W        W88016  15.143  28.978   3.258
24073W        W88017  30.030  39.477  12.533
24074W        W88018  26.167  20.151  11.572
24075W        W88019  23.154  27.158   2.368
24076W        W88020  17.151  12.821  13.471
24077W        W88021  28.535   1.246  11.065
24078W        W88022  19.259  40.830  10.978
24079W        W88023  13.765  21.713  13.905
24080W        W88024  37.868   4.337  11.977
24081W        W88025  30.930  31.910   1.843
24082W        W88026   0.893  32.129   2.800
24083W        W88027  43.406  12.728   2.781
24084W        W88028  30.446  19.113   2.694
24085W        W88029  31.065  39.975   0.248
24086W        W88030  11.138  42.449   2.413
24087W        W88031  36.571  18.147  11.400
24088W        W88032  36.402  33.517   1.731
24089W        W88033   7.189  27.488   4.222
24090W        W88034   1.868  30.432   2.237
24091W        W88035  22.644  33.549  12.885
24092W        W88036  11.733  20.127  12.557
24093W        W88037  39.864  12.271  14.482
24094W        W88038  32.456  42.843  12.545
24095W        W88039  39.559  27.058   2.365
24096W        W88040  23.681  34.989  13.543
24097W        W88041  21.733   3.225  12.959
24098W        W88042  34.973   1.244   3.273
24099W        W88043  18.579   8.880   2.195
24100W        W88044   4.815  17.766   3.809
24101W        W88045  21.224  28.493  13.326
24102W        W88046  44.490   9.776   3.231
24103W        W88047  43.884  22.020  13.391
24104W        W88048  12.803   2.359  14.003
24105W        W88049  34.429   5.381  10.590
24106W        W88050  15.602  44.984  12.361
24107W        W88051  40.534  12.188  14.758
24108W        W88052   3.216  15.173   4.701
24109W        W88053  31.571  22.140   1.860
24110W        W88054  31.609  42.007   4.723
24111W        W88055  15.638  44.309  12.475
24112W        W88056  30.064   7.889  14.342
24113W        W88057  28.620  41.482  13.827
24114W        W88058  34.111  30.043  10.437
24115W        W88059  11.175  22.092  14.288
24116W        W88060  25.528   8.174  12.957
24117W        W88061   8.887   7.859   2.862
24118W        W88062  17.603  42.017  11.881
24119W        W88063  43.323  41.958  12.081
24120W        W88064  12.242   4.220   1.447
24121W        W88065  38.477  24.204   4.762
24122W        W88066   4.784  37.847  11.077
24123W        W88067  42.790  14.170  12.957
24124W        W88068  39.916   6.904  13.412
24125W        W88069  13.822  25.585   1.370
24126W        W88070  33.964  42.981  14.455
24127W        W88071   8.799  26.491   1.746
24128W        W88072   1.870  25.148   4.247
24129W        W88073   1.313  27.999  13.915
24130W        W88074  34.102  11.309   3.726
24131W        W88075  37.938  29.614  14.032
24132W        W88076  19.120  26.510  13.491
24133W        W88077  12.346  14.122   0.251
24134W        W88078  42.856  41.443  12.418
24135W        W88079  38.510  42.861  10.432
24136W        W88080  33.571  12.779  14.820
24137W        W88081   0.259  22.061  10.934
24138W        W88082  11.764  17.668   2.745
24139W        W88083   1.800  21.228   4.786
24140W        W88084  30.629  36.403  12.503
24141W        W88085  36.964  13.803   1.441
24142W        W88086  12.223  21.186  13.971
24143W        W88087  10.324  14.797  11.562
24144W        W88088  17.120  32.932   0.375
24145W        W88089  32.934  29.955   4.252
24146W        W88090  24.153  38.882  12.824
24147W        W88091  14.818  38.906   0.839
24148W        W88092  28.030  42.982  13.950
24149W        W88093  37.496   2.931   4.746
24150W        W88094  34.993  22.613  12.836
24151W        W88095   5.331  25.495   2.708
24152W        W88096  36.843  43.434   2.404
24153W        W88097  12.134  40.875   2.374
24154W        W88098   7.268  40.891   4.710
24155W        W88099  41.786  38.571  13.475
24156W        W88100  30.540  41.988   3.323
24157W        W88101  41.976  17.793   0.958
24158W        W88102   4.380  23.095  12.402
24159W        W88103  27.684   9.671  12.907
24160W        W88104  42.781  23.559  11.378
24161W        W88105  14.251  31.085   4.606
24162W        W88106  38.458   6.362   2.727
24163W        W88107  14.661  12.285  13.827
24164W        W88108   8.187  25.506  14.327
24165W        W88109   7.775  10.348  12.861
24166W        W88110  43.814  25.575  12.912
24167W        W88111  34.900  43.491  10.973
24168W        W88112  28.173  24.222   2.889
24169W        W88113   1.468  27.069   3.663
24170W        W88114   3.316   6.325  12.397
24171W        W88115  39.881  42.829  12.835
24172W        W88116  39.036  15.806   0.961
24173W        W88117   0.386  41.481   3.729
24174W        W88118   5.773  28.175  12.080
24175W        W88119  32.976  18.175  11.603
24176W        W88120  28.984   5.784  13.915
24177W        W88121   2.822  12.721   2.697
24178W        W88122   6.916  10.817   3.286
24179W        W88123  14.199  32.987  13.547
24180W        W88124  35.383   3.356  12.853
24181W        W88125  25.639   7.291   0.313
24182W        W88126  22.584  23.617  12.084
24183W        W88127  35.024   5.409  12.509
24184W        W88128  33.622  26.090  13.366
24185W        W88129  36.462   7.814   4.829
24186W        W88130  21.212  23.032  12.420
24187W        W88131   2.390  11.819   2.253
24188W        W88132  36.935  38.932   0.861
24189W        W88133  39.995   7.265  11.498
24190W        W88134  19.739   2.772   3.261
24191W        W88135  17.614  10.736  10.972
24192W        W88136  26.076  15.269  14.936
24193W        W88137  41.976  34.982  11.586
24194W        W88138   4.785  11.783   1.286
24195W        W88139  37.855  39.824  14.028
24196W        W88140  23.535  42.987  13.458
24197W        W88141   2.391  18.772  13.405
24198W        W88142   0.956   1.870  10.620
24199W        W88143  35.947  29.982  14.866
24200W        W88144  30.558  44.966  11.553
24201W        W88145  35.541  41.857   0.747
24202W        W88146   8.303  26.563  14.864
24203W        W88147  17.224  43.887  12.834
24204W        W88148  24.622  15.699  13.802
24205W        W88149  18.739  25.153  11.397
24206W        W88150  14.253   4.816   0.738
24207W        W88151  15.259   0.867  12.877
24208W        W88152  37.035  11.637   4.644
24209W        W88153   4.873   1.762  14.799
24210W        W88154  34.978  30.540  12.044
24211W        W88155  19.129   1.391   1.441
24212W        W88156  29.073  40.394   1.794
24213W        W88157   3.720  27.479  12.024
24214W        W88158  13.613  18.162   3.663
24215W        W88159  32.632  17.162  12.507
24216W        W88160  25.623  38.844   5.112
24217W        W88161  41.930  17.087  10.554
24218W        W88162  12.243   4.388   0.871
24219W        W88163  34.605   8.283  13.870
24220W        W88164  15.692  42.328  13.366
24221W        W88165  16.202   9.843   0.418
24222W        W88166  28.514   0.866   4.307
24223W        W88167   5.697  34.881   3.865
24224W        W88168  38.014  13.219   2.350
24225W        W88169  40.329   4.705   5.684
24226W        W88170  26.621  28.561   3.324
24227W        W88171  19.560  31.094   2.838
24228W        W88172  10.807   6.267   4.724
24229W        W88173  34.917  37.442  11.862
24230W        W88174  37.846  34.905   4.804
24231W        W88175  20.234  28.526  14.890
24232W        W88176  43.837   9.287  14.960
24233W        W88177  22.531   2.431  10.905
24234W        W88178  34.040  30.018   1.451
24235W        W88179  27.144  16.205   1.283
24236W        W88180  28.149  20.630   1.425
24237W        W88181  12.829   3.439   0.444
24238W        W88182  35.583  37.987   0.908
24239W        W88183   9.226  30.448   4.753
24240W        W88184   7.759  20.720   0.739
24241W        W88185  39.556  35.021   2.895
24242W        W88186  22.087  39.877   2.795
24243W        W88187  14.832   1.745  12.573
24244W        W88188  13.679  29.987   4.115
24245W        W88189  37.544  29.986   0.424
24246W        W88190  33.062  15.684  11.982
24247W        W88191  33.887  27.001   2.879
24248W        W88192  20.528  42.284   0.827
24249W        W88193  38.361  16.165  12.089
24250W        W88194   5.270   5.752  12.432
24251W        W88195  18.167  29.137  13.882
24252W        W88196  24.097   4.709  13.416
24253W        W88197  15.634  43.331  10.545
24254W        W88198  29.453   8.804   3.732
24255W        W88199   3.308  19.672  14.360
24256W        W88200   5.915  29.057   1.798
24257W        W88201  32.441  28.464  13.831
24258W        W88202   0.336  34.532  11.927
24259W        W88203  25.076  43.013   3.651
24260W        W88204  34.371   0.890   1.695
24261W        W88205  18.161  25.154  12.019
24262W        W88206  43.814  32.540  13.935
24263W        W88207  35.480   5.346  12.380
24264W        W88208  30.572  36.860  14.390
24265W        W88209  13.114  30.508   0.444
24266W        W88210  29.996  24.062   2.200
24267W        W88211   7.889   3.833  12.486
24268W        W88212  18.294   1.822   0.929
24269W        W88213   8.847  32.610  14.383
24270W        W88214  26.057   8.232  11.393
24271W        W88215  15.095  32.492  14.431
24272W        W88216  42.932   0.268  10.621
24273W        W88217  28.583  13.711  12.853
24274W        W88218  24.980  41.925   5.102
24275W        W88219  21.617  26.565   4.604
24276W        W88220  23.725  44.448   0.318
24277W        W88221  21.657  22.657   1.841
24278W        W88222  31.899  39.824  12.979
24279W        W88223  18.781  28.983   2.246
24280W        W88224  29.098  34.988  12.083
24281W        W88225  26.982  43.504  14.938
24282W        W88226  14.799  31.000   3.266
24283W        W88227  25.545   3.775   2.791
24284W        W88228  29.634  18.216  13.991
24285W        W88229   4.753  38.437   0.960
24286W        W88230  13.116  15.245  14.941
24287W        W88231  36.902   8.782  13.890
24288W        W88232  15.748   9.772  10.607
24289W        W88233  35.947  17.750   0.947
24290W        W88234  16.201  20.206  13.526
24291W        W88235  25.028  42.926   1.775
24292W        W88236  15.627   8.812  10.064
24293W        W88237  43.377  25.499  13.548
24294W        W88238   0.988  15.146   2.246
24295W        W88239  35.982  14.815  11.523
24296W        W88240   1.447  37.545  11.471
24297W        W88241  26.991   1.969  13.329
24298W        W88242  32.099   0.387  12.025
24299W        W88243  41.326  11.679  12.404
24300W        W88244   5.927  13.647   2.842
24301W        W88245  26.154  33.522   2.185
24302W        W88246  41.957  24.015   1.892
24303W        W88247  17.247  32.436  12.075
24304W        W88248   8.222  17.069   9.484
24305W        W88249  37.381  35.921   3.762
24306W        W88250  37.554  24.180   1.441
24307W        W88251  14.280  11.327  12.884
24308W        W88252  42.908  23.648  14.837
24309W        W88253   0.859  29.577  14.799
24310W        W88254   2.323  24.644   2.820
24311W        W88255   3.874  41.839   0.761
24312W        W88256  36.370  15.772  12.549
24313W        W88257  29.567  21.171  13.425
24314W        W88258  43.815   4.293  11.610
24315W        W88259  21.709  43.499   2.258
24316W        W88260  12.217   4.729  13.319
24317W        W88261   4.357  42.909  13.528
24318W        W88262  32.085  17.093   0.939
24319W        W88263  28.018  43.898  14.486
24320W        W88264  43.821  32.626   3.715
24321W        W88265  42.809  21.614   2.777
24322W        W88266   2.235  15.203   4.828
24323W        W88267  25.211  17.307  10.042
24324W        W88268  33.592   6.251  13.014
24325W        W88269  26.590  22.688  14.961
24326W        W88270  23.148   4.259  13.426
24327W        W88271  34.442  16.613   2.674
24328W        W88272  10.730  26.564   0.449
24329W        W88273  17.607  13.636  11.464
24330W        W88274  37.390  39.909  11.954
24331W        W88275  35.942   1.390   1.787
24332W        W88276  40.510  34.606  11.520
24333W        W88277   9.160  38.912  12.042
24334W        W88278  35.858   3.867   9.968
24335W        W88279  11.371  27.560   1.710
24336W        W88280  34.521  12.836  14.470
24337W        W88281   4.924  41.938  14.818
24338W        W88282  22.631  27.052  11.029
24339W        W88283  36.574  26.959   0.476
24340W        W88284  39.443  10.382   1.796
24341W        W88285   8.888  35.966  10.436
24342W        W88286  17.284  37.970   4.261
24343W        W88287   2.875   1.381   2.748
24344W        W88288  28.152  23.574  12.362
24345W        W88289  32.539   4.943   0.308
24346W        W88290  24.120  31.084   0.875
24347W        W88291   6.269  16.190   4.768
24348W        W88292  43.464   1.354  13.511
24349W        W88293   5.766   3.746  13.794
24350W        W88294  34.530  36.906  14.363
24351W        W88295  30.516  13.648   3.204
24352W        W88296  14.656  34.468  12.533
24353W        W88297  36.591  32.399   3.828
24354W        W88298   1.263  43.282  10.452
24355W        W88299  29.992  18.169  11.866
24356W        W88300  13.729   5.863  12.515
24357W        W88301  44.924  28.107   0.742
24358W        W88302  11.359  44.479   1.739
24359W        W88303  20.272  27.073   1.695
24360W        W88304   2.866  15.155   3.181
24361W        W88305  37.860   9.685  13.534
24362W        W88306  40.377  25.974  13.867
24363W        W88307  23.053   4.802  11.414
24364W        W88308  10.788  12.849   2.714
24365W        W88309  25.610  18.118   0.834
24366W        W88310  34.954  34.883  12.929
24367W        W88311  15.197  30.643  12.021
24368W        W88312  18.735  29.582   4.728
24369W        W88313  42.883  41.994  11.053
24370W        W88314   7.201  23.136   4.297
24371W        W88315   8.255  20.707  10.904
24372W        W88316  17.169   0.341  13.997
24373W        W88317  36.020  11.127   0.846
24374W        W88318   2.385  22.226  11.514
24375W        W88319  43.862  14.671  13.974
24376W        W88320  16.683  24.976   3.210
24377W        W88321  43.432  22.074  12.436
24378W        W88322   6.200  26.563   2.700
24379W        W88323  38.404  31.975   1.840
24380W        W88324  19.705   9.661  14.816
24381W        W88325  37.024  14.835  11.560
24382W        W88326  44.491  10.831   1.786
24383W        W88327   3.449  10.658  10.532
24384W        W88328  18.162  28.055  11.453
24385W        W88329   0.289  30.511   2.672
24386W        W88330  42.355  37.932  14.491
24387W        W88331  44.467  25.137  11.916
24388W        W88332  28.641  20.559   4.307
24389W        W88333  18.135  30.604   3.812
24390W        W88334  13.626  16.163   1.421
24391W        W88335   8.874  21.586  14.838
24392W        W88336  35.062  34.035   4.207
24393W        W88337   4.725  27.021  11.013
24394W        W88338  21.193   3.770  14.479
24395W        W88339  16.126   6.888   3.186
24396W        W88340  27.109  22.592  13.394
24397W        W88341  19.755   2.888  10.515
24398W        W88342   8.254  39.826  14.363
24399W        W88343  22.130  44.842  14.501
24400W        W88344  38.385  21.117   1.330
24401W        W88345  21.710  36.445  13.314
24402W        W88346  31.916   0.763   0.303
24403W        W88347  34.548  23.014  10.934
24404W        W88348  13.335  10.687   1.414
24405W        W88349  26.570  38.341  12.913
24406W        W88350  41.014  40.864   4.214
24407W        W88351   3.811   6.373  10.938
24408W        W88352  35.931  34.042  10.462
24409W        W88353  43.772  19.158  10.559
24410W        W88354  22.059  27.462  14.507
24411W        W88355  34.370  25.678   2.305
24412W        W88356  13.207  42.351  12.055
24413W        W88357  29.142  19.065  11.924
24414W        W88358  15.654  24.180   2.750
24415W        W88359  28.150  29.581   4.297
24416W        W88360  32.410  21.586   1.884
24417W        W88361  15.621  36.902   1.438
24418W        W88362  22.229  42.483   0.901
24419W        W88363  15.153  28.975   4.295
24420W        W88364   6.205  41.926  14.760
24421W        W88365  17.801  38.328  12.375
24422W        W88366  44.367   0.319  14.394
24423W        W88367   5.331  28.632   1.362
24424W        W88368  18.272  40.833   1.925
24425W        W88369  44.007  33.078  10.925
24426W        W88370   1.890   7.666   0.281
24427W        W88371  20.211   0.447  11.563
24428W        W88372  17.724  21.245  10.508
24429W        W88373  38.928  33.592   4.344
24430W        W88374  29.949  27.558  14.777
24431W        W88375  40.009  37.419  13.828
24432W        W88376   7.313  35.423   1.838
24433W        W88377  39.475  36.863   4.181
24434W        W88378  28.491  38.460  13.044
24435W        W88379  40.378  38.375   3.798
24436W        W88380  37.947  17.653  13.978
24437W        W88381  35.859  19.102  14.942
24438W        W88382  29.918  29.974  13.016
24439W        W88383   1.781  40.030   2.381
24440W        W88384  37.501  42.318   3.298
24441W        W88385  41.946  22.225  12.471
24442W        W88386   1.917  28.560   4.232
24443W        W88387  16.228   1.272  14.298
24444W        W88388  23.618  26.667   1.217
24445W        W88389  35.988  35.956  14.376
24446W        W88390  34.517  33.031  13.468
24447W        W88391  38.395  24.692  10.478
24448W        W88392  11.795   8.697  13.018
24449W        W88393  25.071   3.800   2.268
24450W        W88394   9.801   3.274   4.333
24451W        W88395   0.970   5.230   2.299
24452W        W88396  24.166  33.982   2.308
24453W        W88397   5.396  35.462   4.746
24454W        W88398   1.245  19.556  11.033
24455W        W88399   0.907  28.010  13.517
24456W        W88400  40.803  19.158   4.689
24457W        W88401  33.898  34.964   1.696
24458W        W88402  29.621  20.167  12.007
24459W        W88403  39.821  27.171  10.583
24460W        W88404  16.644  13.636  12.556
24461W        W88405  27.676  17.780  14.856
24462W        W88406  17.225   9.735   0.761
24463W        W88407  14.300  36.365   3.638
24464W        W88408   6.790  23.626   4.701
24465W        W88409  42.445  41.802  14.790
24466W        W88410  42.476   9.828  14.310
24467W        W88411  37.429  26.500  12.503
24468W        W88412  25.093  44.979   3.327
24469W        W88413   3.263  14.634  11.587
24470W        W88414   6.393  33.537   1.372
24471W        W88415  17.783  26.488   0.309
24472W        W88416  24.534   7.713  12.873
24473W        W88417  15.292  16.651  11.903
24474W        W88418  10.825  35.561  13.409
24475W        W88419  31.966   6.269  13.021
24476W        W88420  40.867  11.219  14.469
24477W        W88421  10.368  20.082  14.947
24478W        W88422  32.636  13.773   3.308
24479W        W88423  43.406  22.016   2.364
24480W        W88424  38.381  21.583   1.724
24481W        W88425  29.060  30.414  13.959
24482W        W88426   0.268   6.297   5.739
24483W        W88427  30.953   6.680   2.283
24484W        W88428  20.200   9.728  10.963
24485W        W88429  23.622  38.960   3.280
24486W        W88430   0.824   7.381  13.059
24487W        W88431  21.649   7.323  14.313
24488W        W88432  15.762  38.927  11.093
24489W        W88433  42.297  13.217   2.894
24490W        W88434  14.217  23.164   4.232
24491W        W88435  16.114  13.780   0.376
24492W        W88436  37.415  19.586  13.316
24493W        W88437  40.372  32.492   4.676
24494W        W88438   8.358  17.581  11.570
24495W        W88439  33.120   6.194   3.710
24496W        W88440  11.306   2.265   3.368
24497W        W88441   0.378  18.722   0.478
24498W        W88442  12.627   1.424   1.860
24499W        W88443  12.362   3.890  12.552
24500W        W88444  35.584  32.004   1.796
24501W        W88445   3.289   4.415  12.393
24502W        W88446  19.182  13.215   4.741
24503W        W88447  37.953  38.436  14.387
24504W        W88448   2.470  28.549   3.294
24505W        W88449  15.718   4.806  14.289
24506W        W88450   6.807  18.198  13.398
24507W        W88451  42.823  31.531  14.758
24508W        W88452  32.057   4.866  14.999
24509W        W88453  29.921  27.632   4.690
24510W        W88454  43.516   9.888  10.541
24511W        W88455   4.252  44.283  12.859
24512W        W88456  16.239  39.373  12.407
24513W        W88457  28.095  29.452   1.249
24514W        W88458  21.225   0.464  13.865
24515W        W88459  23.721   3.923  14.892
24516W        W88460   3.806  30.030  11.039
24517W        W88461  41.996  29.489  12.049
24518W        W88462  13.118  29.980  13.857
24519W        W88463   3.942   4.740  10.449
24520W        W88464  22.197  17.293  10.594
24521W        W88465  43.016  31.973  10.146
24522W        W88466  17.274  22.162  14.343
24523W        W88467  27.979   7.368   0.271
24524W        W88468  19.236  19.592  10.927
24525W        W88469  34.893  44.482  12.386
24526W        W88470  27.940  32.992   1.214
24527W        W88471  38.450  20.639   0.925
24528W        W88472  33.052   4.366  13.002
24529W        W88473  26.670  14.604  12.446
24530W        W88474  27.951  21.195  13.992
24531W        W88475  39.496  17.640  11.461
24532W        W88476  34.083  39.900   3.275
24533W        W88477  16.611  35.085  14.424
24534W        W88478  41.984  16.663  12.979
24535W        W88479  16.317  25.471   0.256
24536W        W88480  31.096  24.710   3.306
24537W        W88481   5.263  33.385  14.514
24538W        W88482  44.888  24.031   0.832
24539W        W88483  16.682   7.736  14.830
24540W        W88484   9.818  17.792   4.273
24541W        W88485  12.356  12.155  12.513
24542W        W88486  17.739   2.896   1.785
24543W        W88487   4.800  14.234  11.493
24544W        W88488   7.838   6.342  13.923
24545W        W88489  11.257  11.217  13.348
24546W        W88490  10.238  10.769   4.735
24547W        W88491  38.974  44.449  10.008
24548W        W88492   2.328   5.835   1.244
24549W        W88493  10.655  39.879  14.965
24550W        W88494   8.166  18.178   3.798
24551W        W88495  28.051  12.752  14.376
24552W        W88496  23.116   1.822   3.214
24553W        W88497  23.639  36.359  12.408
24554W        W88498  11.787  43.332  14.770
24555W        W88499  32.949  15.651   5.314
24556W        W88500  42.973  12.180  13.392
24557W        W88501  33.915  31.040   2.693
24558W        W88502  12.350  20.070  13.049
24559W        W88503   5.909  23.191  13.906
24560W        W88504  35.866  13.625   3.722
24561W        W88505  42.901  36.878   1.295
24562W        W88506  42.962  25.117   4.249
24563W        W88507  28.667  18.088  12.488
24564W        W88508   4.839   1.962   3.327
24565W        W88509   3.874  17.129  10.899
24566W        W88510  13.838  31.598   2.265
24567W        W88511  13.159  31.012  14.289
24568W        W88512  16.308  43.807   3.370
24569W        W88513  37.900  31.983  11.598
24570W        W88514   8.689  38.880   3.189
24571W        W88515  12.220  25.962  13.346
24572W        W88516  28.681  28.456   2.361
24573W        W88517   5.419  41.977   4.295
24574W        W88518  22.068  24.163   2.762
24575W        W88519  28.449  31.462   4.278
24576W        W88520  23.668  41.349   0.417
24577W        W88521  44.923  18.748   4.169
24578W        W88522   7.684  32.892   1.216
24579W        W88523  24.635   0.832   3.813
24580W        W88524   5.299  42.812  13.468
24581W        W88525  32.140  42.996   4.212
24582W        W88526  37.355  14.174  14.004
24583W        W88527  23.523  19.646   1.702
24584W        W88528  37.077   7.800  11.554
24585W        W88529  29.974  38.390   0.767
24586W        W88530  29.446  27.167  12.914
24587W        W88531   6.709   5.283   0.469
24588W        W88532  21.139  34.416   0.753
24589W        W88533   4.748  13.304  13.395
24590W        W88534  33.476  21.147  14.016
24591W        W88535   2.329  14.311  10.084
24592W        W88536  33.088   0.805   2.846
24593W        W88537  19.685  37.548  14.401
24594W        W88538   9.394  32.403   4.199
24595W        W88539  37.472  28.070  14.279
24596W        W88540  26.096  14.711  11.937
24597W        W88541  16.679   5.356  14.022
24598W        W88542  27.178  14.271   0.869
24599W        W88543   6.193  37.415   4.145
24600W        W88544  31.594   7.325  11.422
24601W        W88545  30.145  13.728   0.244
24602W        W88546   4.329  19.771   2.827
24603W        W88547  24.593   0.482   0.305
24604W        W88548  27.638  11.741   4.833
24605W        W88549  22.665   6.192   0.733
24606W        W88550  16.209   8.753   0.419
24607W        W88551   1.256  44.978  14.462
24608W        W88552  10.383  37.504  10.917
24609W        W88553   3.438  27.528   4.177
24610W        W88554   0.952  23.700  11.034
24611W        W88555  38.913  14.325  14.476
24612W        W88556  28.017   0.754   1.344
24613W        W88557  34.045  35.437   3.792
24614W        W88558  17.798  34.980   2.186
24615W        W88559  41.393  17.757  12.479
24616W        W88560   5.239   9.775  14.916
24617W        W88561  11.302  38.873   2.344
24618W        W88562  17.744  18.262  14.927
24619W        W88563  40.533   4.744   0.256
24620W        W88564  25.058  40.839   3.260
24621W        W88565   4.829  14.276   4.714
24622W        W88566  22.561   9.309   9.950
24623W        W88567  12.196  44.890   3.670
24624W        W88568  23.610  41.476  12.380
24625W        W88569  35.031   5.390   3.243
24626W        W88570  13.634  15.749  10.442
24627W        W88571  12.659   3.827   2.836
24628W        W88572  26.565  32.020  11.460
24629W        W88573   4.426  31.427  13.437
24630W        W88574   8.169  12.308  14.758
24631W        W88575  26.599  36.026  11.120
24632W        W88576  39.820  34.536  14.485
24633W        W88577  33.519  16.081   3.688
24634W        W88578  24.605   8.345  11.491
24635W        W88579  31.483  15.151   4.779
24636W        W88580  11.828   2.965  11.999
24637W        W88581  18.758  33.005   1.712
24638W        W88582  21.029  12.285   4.186
24639W        W88583  11.322  32.445  11.436
24640W        W88584  10.661   6.801  14.346
24641W        W88585  35.959   9.818  14.903
24642W        W88586  18.093  27.008  14.774
24643W        W88587  41.504  22.576   2.705
24644W        W88588  26.475  15.282  14.945
24645W        W88589  19.163   3.735   1.750
24646W        W88590  27.129   9.865  14.303
24647W        W88591  19.140   3.417   1.227
24648W        W88592  40.982  27.035  10.517
24649W        W88593  37.054  26.490   2.742
24650W        W88594  31.646  26.500   0.765
24651W        W88595  35.534  20.661  12.860
24652W        W88596  38.054   7.764  11.932
24653W        W88597   6.194  28.470  10.623
24654W        W88598  30.024  36.358  11.477
24655W        W88599  21.056  37.894  12.396
24656W        W88600  40.520   0.843   1.875
24657W        W88601   4.262  33.968   1.718
24658W        W88602   9.690  12.198  13.813
24659W        W88603   9.362  12.726  12.846
24660W        W88604  14.114  39.925   0.259
24661W        W88605  18.635  22.638  14.863
24662W        W88606  21.087  36.440  10.411
24663W        W88607  22.547  13.198   4.828
24664W        W88608  27.468  24.151  14.807
24665W        W88609   1.822  13.318  11.585
24666W        W88610  13.780  34.965   4.835
24667W        W88611  39.316  36.901   2.400
24668W        W88612  17.135  15.739   4.805
24669W        W88613   1.976  26.049   4.116
24670W        W88614  43.772  33.900  11.467
24671W        W88615   3.828  31.505  12.014
24672W        W88616  27.671  44.357   1.221
24673W        W88617  34.483  16.693   4.791
24674W        W88618   1.320  21.075  14.896
24675W        W88619  31.478  21.676   4.620
24676W        W88620  16.131  11.758  13.405
24677W        W88621   5.357  13.346   2.375
24678W        W88622  30.593  10.713  14.933
24679W        W88623  41.017   6.900   0.813
24680W        W88624  23.509   0.950  10.582
24681W        W88625  28.052   0.830  11.937
24682W        W88626  28.583  41.998   2.181
24683W        W88627  30.952  31.562  11.866
24684W        W88628  22.628  20.596   9.999
24685W        W88629  17.178  41.863   2.804
24686W        W88630  16.198  21.072   1.715
24687W        W88631  43.501  11.817   2.880
24688W        W88632  44.845  15.626   2.682
24689W        W88633  27.093  31.406  13.809
24690W        W88634  40.459  18.258  13.818
24691W        W88635   2.335  32.620   1.326
24692W        W88636   1.931  11.252  13.515
24693W        W88637  38.485   1.786   3.829
24694W        W88638  11.861  34.073   0.449
24695W        W88639  14.331  17.792   3.178
24696W        W88640  27.112  12.610   4.625
24697W        W88641   3.726   8.688   0.408
24698W        W88642   5.250  43.434   3.147
24699W        W88643  35.057  31.617   3.634
24700W        W88644  25.472  23.208  13.879
24701W        W88645  39.443   1.790   9.579
24702W        W88646  14.107  22.155  10.585
24703W        W88647   0.781  15.598  10.044
24704W        W88648  14.595  26.534  13.510
24705W        W88649  39.543   5.786  11.491
24706W        W88650  41.532  21.712   2.362
24707W        W88651  11.656  18.642  11.380
24708W        W88652  35.417  37.482   0.314
24709W        W88653   3.332  27.992   0.763
24710W        W88654  28.500  36.947  10.601
24711W        W88655  11.859  31.123   0.348
24712W        W88656  25.684  38.023   4.661
24713W        W88657   6.764  34.495  12.478
24714W        W88658  40.427  36.991   2.297
24715W        W88659   7.871  41.984  13.831
24716W        W88660  28.652  38.993   3.806
24717W        W88661  18.608  31.920   3.381
24718W        W88662  17.094  38.972   4.810
24719W        W88663  15.180  29.504   3.707
24720W        W88664   1.293  14.835   4.114
24721W        W88665  13.757  22.682  11.599
24722W        W88666  24.637  40.392   4.748
24723W        W88667   0.401  20.030  10.506
24724W        W88668  24.061  37.897  12.024
24725W        W88669  31.507  17.225  11.995
24726W        W88670  30.545  19.118   1.238
24727W        W88671  33.964   1.442  10.911
24728W        W88672  38.356  33.970   3.703
24729W        W88673  37.042   0.845  12.375
24730W        W88674  19.191  42.294  14.357
24731W        W88675  30.946  43.931  10.507
24732W        W88676  40.047  37.878   1.750
24733W        W88677  32.957  34.937  13.937
24734W        W88678  22.088   1.355  12.964
24735W        W88679   6.885   0.456   4.296
24736W        W88680  15.129  44.768  10.973
24737W        W88681  43.472  23.622   4.757
24738W        W88682  13.638  27.541  14.770
24739W        W88683   7.880  14.818   1.897
24740W        W88684  21.622  24.676  10.983
24741W        W88685  27.686   1.293   3.296
24742W        W88686  34.020  41.968  14.390
24743W        W88687  17.236   0.834   1.822
24744W        W88688  13.765  15.139  11.908
24745W        W88689   4.734  18.171  10.449
24746W        W88690  29.167   7.872  11.506
24747W        W88691   5.742  10.870   1.736
24748W        W88692  19.587  42.882  13.381
24749W        W88693   2.360   3.257  10.037
24750W        W88694   6.202   9.312   4.252
24751W        W88695   7.670  33.052  10.470
24752W        W88696  44.998  23.490   3.864
24753W        W88697  27.676  29.625   3.861
24754W        W88698  40.464  26.538  10.887
24755W        W88699  38.844  18.591   2.382
24756W        W88700  15.779   6.709   0.312
24757W        W88701  10.754  27.040   4.685
24758W        W88702  28.629  44.957   0.774
24759W        W88703  21.095  28.487  11.864
24760W        W88704  27.581  11.838   1.699
24761W        W88705   7.807   4.722   1.863
24762W        W88706  16.237  24.058   4.168
24763W        W88707  12.783  13.797  13.450
24764W        W88708  42.379  31.153   4.305
24765W        W88709  42.335  17.570   4.176
24766W        W88710   6.318  26.564   3.664
24767W        W88711  32.079  28.510  12.990
24768W        W88712  25.135   5.783  10.618
24769W        W88713  37.003   3.457   3.179
24770W        W88714  35.372  21.530  13.955
24771W        W88715  25.559  21.634  14.400
24772W        W88716  19.075   7.355  11.075
24773W        W88717  34.612  30.017   3.695
24774W        W88718  25.691  27.980  13.896
24775W        W88719  28.514  17.117  13.422
24776W        W88720  27.135  26.148   3.664
24777W        W88721  16.196   9.288   0.276
24778W        W88722   9.196  39.019  13.885
24779W        W88723  44.413  43.846  11.396
24780W        W88724  20.056  39.513   4.793
24781W        W88725  20.542   8.389   2.297
24782W        W88726   6.404  11.754  11.533
24783W        W88727  39.978  31.908   1.898
24784W        W88728  27.527  22.156  11.608
24785W        W88729  25.550  27.028  13.518
24786W        W88730  20.555   8.761   4.765
24787W        W88731  23.500  38.880  10.979
24788W        W88732  28.153   9.367   4.744
24789W        W88733   1.474  18.275  11.082
24790W        W88734  39.393   2.428  14.960
24791W        W88735  27.966  28.668   0.356
24792W        W88736   9.854  41.788   4.601
24793W        W88737   2.432  19.234   3.375
24794W        W88738   2.760  13.715   2.765
24795W        W88739  10.859  43.861   3.647
24796W        W88740  37.406  31.530   1.748
24797W        W88741  29.562   1.355   3.276
24798W        W88742  21.167  42.464  14.956
24799W        W88743   0.252  36.516   3.162
24800W        W88744  15.311  23.678   2.207
24801W        W88745  35.575   6.357  14.319
24802W        W88746  16.110  42.990  11.389
24803W        W88747   6.313  13.175   1.803
24804W        W88748   5.345  26.144  10.485
24805W        W88749  42.965  30.431  14.909
24806W        W88750  13.304  28.614   0.739
24807W        W88751  41.497  43.432   2.225
24808W        W88752  42.967  29.517  14.776
24809W        W88753  41.373  43.773   1.426
24810W        W88754  23.545  40.324   2.715
24811W        W88755  44.364   9.224  14.933
24812W        W88756  34.579   8.688   0.798
24813W        W88757  43.292   5.328   1.449
24814W        W88758  15.779  24.608   2.665
24815W        W88759  36.983  19.582   1.715
24816W        W88760  18.242  10.769  11.988
24817W        W88761   2.842  12.316  13.848
24818W        W88762  12.341  22.071  13.964
24819W        W88763  38.904  15.659   2.350
24820W        W88764  22.652  41.981   0.924
24821W        W88765  11.212   0.884   1.830
24822W        W88766   4.862   7.180   4.118
24823W        W88767  33.982  35.949  10.472
24824W        W88768  32.417   5.362   2.861
24825W        W88769  35.062  35.422   0.853
24826W        W88770  20.566  37.447  12.394
24827W        W88771   0.419  42.355  12.851
24828W        W88772  35.094  28.958   2.685
24829W        W88773  18.559  22.622   1.329
24830W        W88774  28.576  39.809  10.417
24831W        W88775  39.971  25.693   4.183
24832W        W88776   9.332   9.182  11.459
24833W        W88777   6.219  44.293  11.477
24834W        W88778  19.282  30.989  12.498
24835W        W88779  26.677  27.499  13.006
24836W        W88780  11.137   3.853   2.260
24837W        W88781  28.036  21.074  14.449
24838W        W88782  21.218   7.695   0.477
24839W        W88783  36.895  35.453  12.482
24840W        W88784  31.449   8.277   0.914
24841W        W88785  20.194  29.425   0.399
24842W        W88786  44.953   7.407  12.051
24843W        W88787  40.032   3.807  12.377
24844W        W88788  23.012  24.509  12.844
24845W        W88789  26.164  34.002  12.472
24846W        W88790  39.015  32.971  10.562
24847W        W88791   8.689   0.958   1.777
24848W        W88792  18.630  41.792  11.500
24849W        W88793  43.393  31.519  14.882
24850W        W88794  11.816  43.930  12.535
24851W        W88795  16.150  20.563   2.890
24852W        W88796  29.662  37.059  12.429
24853W        W88797  41.374  14.125  14.811
24854W        W88798  23.712  37.567   3.340
24855W        W88799  34.484  34.486  13.897
24856W        W88800  16.654   4.338   2.701
24857W        W88801  41.814   2.414  13.882
24858W        W88802  20.241  24.006  14.413
24859W        W88803  17.073  41.332   4.323
24860W        W88804  39.012   9.371  10.505
24861W        W88805  27.476  29.025  14.416
24862W        W88806  24.149   2.839  14.772
24863W        W88807   9.265   6.190  10.536
24864W        W88808  29.521  30.144  12.994
24865W        W88809   5.226  19.232   2.386
24866W        W88810   5.284   6.739  13.326
24867W        W88811  30.040  16.289  13.483
24868W        W88812  41.531  13.315  10.590
24869W        W88813   5.264  12.181  13.921
24870W        W88814   0.392  18.592  10.530
24871W        W88815  40.828  26.003   0.944
24872W        W88816  36.496  11.818   2.180
24873W        W88817  34.899  35.569  14.391
24874W        W88818   0.384  16.679  13.373
24875W        W88819  10.203  19.112   1.338
24876W        W88820  32.122   1.394  10.459
24877W        W88821  10.345  35.540   1.304
24878W        W88822   1.738  26.134  14.358
24879W        W88823  30.143  20.579  11.898
24880W        W88824   9.757  22.589  13.401
24881W        W88825  25.214  28.481   2.771
24882W        W88826   1.399  29.946  10.464
24883W        W88827  36.965  22.541  12.951
24884W        W88828  21.551  13.132  10.415
24885W        W88829  44.261  27.494  11.495
24886W        W88830  12.248   6.291  13.444
24887W        W88831  41.912  24.684  12.919
24888W        W88832  12.144   8.754   0.778
24889W        W88833  33.097  29.970   0.413
24890W        W88834  42.860   2.357   2.417
24891W        W88835  14.335  25.157   1.437
24892W        W88836   2.868  25.514   1.869
24893W        W88837  44.317  13.295   4.692
24894W        W88838  41.324  11.858   4.693
24895W        W88839  25.542  28.595   4.330
24896W        W88840  10.746   2.376   3.229
24897W        W88841   2.833   6.260   0.917
24898W        W88842  15.329  44.977  12.908
24899W        W88843   0.404  12.202   1.433
24900W        W88844  12.646  40.858   2.721
24901W        W88845   4.783  41.364  12.958
24902W        W88846  27.119  12.839   3.870
24903W        W88847  26.521  26.618   0.276
24904W        W88848   5.754  34.546   1.285
24905W        W88849  13.720   2.253   0.469
24906W        W88850   2.256  30.454  10.449
24907W        W88851  28.528  37.932  10.411
24908W        W88852  37.060  13.311  11.432
24909W        W88853  40.952  32.540   1.851
24910W        W88854  17.111  15.119  11.423
24911W        W88855   0.983   1.330   3.774
24912W        W88856  17.670  32.938   4.617
24913W        W88857  39.362   9.305  14.886
24914W        W88858  40.309  16.151   3.186
24915W        W88859  27.046  27.070   1.306
24916W        W88860  40.032  35.365  13.049
24917W        W88861  40.037  40.907  14.869
24918W        W88862  18.123  22.083   2.245
24919W        W88863  42.832  12.675  11.493
24920W        W88864  40.847  20.074  12.482
24921W        W88865  32.530  40.032   4.782
24922W        W88866   8.358  23.046  13.371
24923W        W88867  18.598   9.390  10.968
24924W        W88868   5.400   4.408   3.266
24925W        W88869  19.748  39.957  14.975
24926W        W88870  38.462  19.751   1.866
24927W        W88871  31.951  26.623  11.443
24928W        W88872  31.002   6.394   2.707
24929W        W88873   0.309  44.290  13.959
24930W        W88874  42.346  19.752  10.553
24931W        W88875  24.553  40.912   3.641
24932W        W88876  30.480   8.376   4.142
24933W        W88877  32.566  41.390  11.120
24934W        W88878  34.388  38.975  10.932
24935W        W88879  13.320   9.234   0.376
24936W        W88880  34.069   8.192   0.729
24937W        W88881  30.523  42.932  14.334
24938W        W88882   8.354  35.005  14.883
24939W        W88883  28.478  35.006  11.112
24940W        W88884  22.705  29.494  12.960
24941W        W88885  23.711  24.133  12.486
24942W        W88886  20.724  39.054  10.929
24943W        W88887  40.470  25.173  14.962
24944W        W88888  30.965   2.768   1.322
24945W        W88889  39.412  40.027  12.442
24946W        W88890   1.420  39.978  13.413
24947W        W88891  34.597  31.619   3.844
24948W        W88892  12.619  19.592   1.812
24949W        W88893  30.140   8.333  10.575
24950W        W88894  44.407  44.474   0.339
24951W        W88895  44.846  26.680   3.308
24952W        W88896  41.033  42.441  14.483
24953W        W88897  22.207  37.889   4.123
24954W        W88898   7.852  40.015   3.747
24955W        W88899  31.063  30.154  14.028
24956W        W88900  10.286  34.391   0.414
24957W        W88901  39.831  10.839   2.270
24958W        W88902  15.322  30.141   3.201
24959W        W88903  20.151  28.964  13.865
24960W        W88904  34.992  31.916   1.418
24961W        W88905  43.965  40.345  14.966
24962W        W88906  37.869  32.067  13.446
24963W        W88907   3.912   5.272   1.331
24964W        W88908  28.638  34.471   3.154
24965W        W88909   3.269  18.186   2.210
24966W        W88910   9.712  29.544   2.262
24967W        W88911  35.473  18.687  11.892
24968W        W88912  35.093  22.098   4.704
24969W        W88913  21.144  35.448   1.895
24970W        W88914  17.207  19.702   0.440
24971W        W88915  22.995  16.187  13.415
24972W        W88916  26.460   3.717  12.457
24973W        W88917  24.032   9.322  14.359
24974W        W88918   3.385  25.163   2.792
24975W        W88919  12.189  17.260   5.312
24976W        W88920  34.902  28.120  10.512
24977W        W88921   3.343  14.262  11.928
24978W        W88922  35.579  42.833  11.900
24979W        W88923  12.687  10.847  13.924
24980W        W88924  30.922  22.118  13.517
24981W        W88925  17.633   3.290  13.468
24982W        W88926  27.554  21.627  14.802
24983W        W88927  18.137  44.289   3.372
24984W        W88928   2.945   2.938   4.117
24985W        W88929   8.718  29.167  14.959
24986W        W88930  30.039  15.764  14.360
24987W        W88931   0.784   4.704  14.275
24988W        W88932  34.887  18.196   1.788
24989W        W88933   6.786   3.239   1.374
24990W        W88934  15.250  34.868   3.324
24991W        W88935  18.162  10.357   1.414
24992W        W88936  30.984  14.325  14.354
24993W        W88937   4.319  13.735   3.243
24994W        W88938  29.957  37.946   1.374
24995W        W88939  13.778  42.498  12.568
24996W        W88940  34.971   5.353   1.337
24997W        W88941   3.433  35.549   1.435
24998W        W88942  20.150  19.546  12.884
24999W        W88943  43.383  32.123   1.729
25000W        W88944  10.300  23.009  12.475
25001W        W88945  43.278   1.929  11.926
25002W        W88946  36.055  18.225   1.881
25003W        W88947  15.127  35.552  13.494
25004W        W88948  26.109   0.837  10.630
25005W        W88949   6.704  16.266   3.772
25006W        W88950  42.523   1.745  11.067
25007W        W88951  35.578  31.458  12.383
25008W        W88952  39.950  38.033   4.694
25009W        W88953  42.972   7.907  13.422
25010W        W88954   1.384  23.171   2.804
25011W        W88955  28.506  17.232  10.624
25012W        W88956  34.611  39.888  11.873
25013W        W88957   8.382   0.322  11.963
25014W        W88958  34.378   1.804   3.302
25015W        W88959   2.438  39.421   1.850
25016W        W88960  13.267  34.502  13.953
25017W        W88961  26.593  44.793  10.498
25018W        W88962  24.486   5.334   2.304
25019W        W88963   4.232  39.811  11.979
25020W        W88964  26.673  13.346   0.928
25021W        W88965  17.559  25.060  10.544
25022W        W88966  31.913  14.710   1.391
25023W        W88967  38.401   8.777  14.348
25024W        W88968  30.933  37.468   4.798
25025W        W88969  16.097   1.778  13.048
25026W        W88970  14.283  23.593   2.776
25027W        W88971  37.060  33.005   3.348
25028W        W88972  17.156  29.518   0.939
25029W        W88973  21.218  24.114  10.589
25030W        W88974  26.116  17.764   0.739
25031W        W88975   4.419  23.574   2.724
25032W        W88976  44.864   8.706   2.205
25033W        W88977  33.485  27.627  11.864
25034W        W88978  36.912  44.457  11.514
25035W        W88979  12.339  44.823   3.372
25036W        W88980  30.600  30.155   4.174
25037W        W88981   8.293  27.627   3.708
25038W        W88982  19.116   3.716  13.524
25039W        W88983  36.504  40.991  12.085
25040W        W88984   2.288  13.783   1.287
25041W        W88985  23.015  24.135  12.431
25042W        W88986   3.338  24.587  10.537
25043W        W88987  36.928  35.394   4.244
25044W        W88988  25.476  22.740   1.892
25045W        W88989  44.457  12.748   0.887
25046W        W88990  42.494  44.293   0.910
25047W        W88991  26.977   8.187  11.085
25048W        W88992  41.318  31.512  12.904
25049W        W88993  36.589   4.824  14.892
25050W        W88994  20.664  34.445  10.600
25051W        W88995   4.275  34.073  14.297
25052W        W88996  28.597  16.144   0.248
25053W        W88997  30.430  16.630  10.007
25054W        W88998   7.823  36.919  10.462
25055W        W88999  38.835  17.621  11.970
25056W        W89000  35.076  30.942   2.301
25057W        W89001   1.811  33.074   3.314
25058W        W89002   1.327  10.381   1.840
25059W        W89003  30.603  24.181  10.944
25060W        W89004  23.188  17.802   2.806
25061W        W89005  37.018  15.756   4.820
25062W        W89006  29.626  41.431  12.916
25063W        W89007  10.727  41.034   3.337
25064W        W89008   6.397   2.390  13.462
25065W        W89009   3.275  39.954  10.465
25066W        W89010  28.984   2.850  13.013
25067W        W89011  26.106  11.261  12.897
25068W        W89012  26.191   5.438   3.376
25069W        W89013  43.926   9.312  11.070
25070W        W89014  33.488  23.060  11.933
25071W        W89015   9.176  19.656  14.988
25072W        W89016  32.435  14.591   3.359
25073W        W89017  38.867  13.195   2.702
25074W        W89018  16.679  34.569  14.806
25075W        W89019  35.387  27.681   4.337
25076W        W89020  44.405  37.996   2.277
25077W        W89021   9.275  43.483   4.631
25078W        W89022  42.972  39.345  14.824
25079W        W89023  25.133  28.638   1.314
25080W        W89024   9.877  19.280  13.031
25081W        W89025  41.932  32.032  14.875
25082W        W89026   3.844   0.366  11.973
25083W        W89027  34.000  41.298   4.787
25084W        W89028  26.024  37.431  14.463
25085W        W89029  31.410   0.896  12.514
25086W        W89030   6.236  44.360  10.423
25087W        W89031  30.482   9.294  14.003
25088W        W89032   5.720   8.863  14.943
25089W        W89033  16.693  23.001   2.722
25090W        W89034  31.505  17.271   3.659
25091W        W89035  32.572  19.159   2.792
25092W        W89036  31.614  40.806   0.913
25093W        W89037  20.228  33.048  14.418
25094W        W89038  18.763  28.970   0.794
25095W        W89039   0.494  25.469   1.826
25096W        W89040  19.281   4.846   3.734
25097W        W89041   0.389   0.789   3.792
25098W        W89042  44.969  38.374  13.851
25099W        W89043  13.805  43.010  14.400
25100W        W89044  32.611  23.187   4.231
25101W        W89045  35.534  21.528  12.497
25102W        W89046  23.040  38.419  14.811
25103W        W89047   4.411   5.396   3.355
25104W        W89048  30.984  10.276   3.218
25105W        W89049  27.012  30.582   1.886
25106W        W89050  22.247  18.747   0.928
25107W        W89051  34.117  21.069   0.324
25108W        W89052  35.495   4.449  10.969
25109W        W89053  14.106  23.510  12.879
25110W        W89054   7.908  30.989   2.777
25111W        W89055  24.537   6.282  14.910
25112W        W89056  33.068  27.140   3.174
25113W        W89057  40.411  32.110  14.424
25114W        W89058   1.247   6.743  13.033
25115W        W89059  39.529  40.978  10.893
25116W        W89060  36.910   3.871  13.895
25117W        W89061  11.237  20.538   3.376
25118W        W89062  34.389  38.830  13.055
25119W        W89063  29.570  13.145   2.745
25120W        W89064   8.664  28.140  10.135
25121W        W89065   4.296  44.369   1.774
25122W        W89066   1.855  22.242   4.813
25123W        W89067   3.306  26.095  14.460
25124W        W89068  40.539  41.888   4.704
25125W        W89069  44.920  16.599  14.479
25126W        W89070  33.564   7.741   3.215
25127W        W89071  42.897  26.502  12.471
25128W        W89072  23.584  14.742  10.977
25129W        W89073  44.504  21.618   2.859
25130W        W89074  17.072  27.460  13.943
25131W        W89075   6.799  40.936   0.431
25132W        W89076   6.882  43.892   2.704
25133W        W89077  35.910  21.690  12.503
25134W        W89078   8.862  33.007  13.484
25135W        W89079  41.826  22.710  14.959
25136W        W89080  10.728   0.823   3.710
25137W        W89081  38.329  11.676   4.729
25138W        W89082  44.889  38.965  14.919
25139W        W89083  16.261  35.569  10.554
25140W        W89084  21.027  27.002   0.371
25141W        W89085  17.586  35.600   0.864
25142W        W89086   9.707  37.408   3.709
25143W        W89087  13.648  16.184   1.932
25144W        W89088  24.193   4.917  12.492
25145W        W89089  33.932  32.920   3.853
25146W        W89090   2.457  34.032  14.778
25147W        W89091   6.683  11.369  12.514
25148W        W89092  34.051   1.333  13.474
25149W        W89093  41.307  15.690   4.132
25150W        W89094  29.653   5.895  14.786
25151W        W89095  10.154  13.676   0.916
25152W        W89096  20.727  11.302  12.890
25153W        W89097  36.438  21.263   5.181
25154W        W89098  14.182  37.853  10.908
25155W        W89099  34.602  24.605   4.223
25156W        W89100  20.693  19.188   4.255
25157W        W89101  33.947  39.420   0.809
25158W        W89102  34.023  32.075   3.634
25159W        W89103  38.844   8.823  13.954
25160W        W89104  40.933  37.975  10.960
25161W        W89105  27.516   0.782   3.352
25162W        W89106  41.847  33.109   0.847
25163W        W89107  42.329  24.009   1.256
25164W        W89108   0.900  27.625  11.480
25165W        W89109   5.703  43.897  14.472
25166W        W89110  42.440  17.272  10.575
25167W        W89111  28.486  35.068   3.326
25168W        W89112  42.333  24.545  11.382
25169W        W89113  32.002  39.499  13.927
25170W        W89114  21.111  18.233  11.428
25171W        W89115   4.789  34.878   4.307
25172W        W89116  39.386  18.774  14.817
25173W        W89117   9.697   1.949  10.920
25174W        W89118  44.915  25.668  14.902
25175W        W89119  20.600  14.681  11.911
25176W        W89120  39.978  35.915   2.245
25177W        W89121   9.294  43.434   0.864
25178W        W89122   3.276   7.865  11.546
25179W        W89123  10.326  11.337   2.666
25180W        W89124  17.767  28.079   3.175
25181W        W89125  32.120   7.875  13.332
25182W        W89126  43.782  16.692  13.053
25183W        W89127  19.192   2.402  13.457
25184W        W89128  14.703  33.885   1.265
25185W        W89129  38.888   7.309   3.764
25186W        W89130  30.644  11.166   0.953
25187W        W89131  44.791   1.884   3.866
25188W        W89132  40.481  21.517  14.014
25189W        W89133  44.384  15.205  10.031
25190W        W89134  30.961   9.186  11.127
25191W        W89135  35.972  33.620  13.905
25192W        W89136  28.990   5.783  12.959
25193W        W89137   4.214  29.659  12.958
25194W        W89138   3.281  26.151  14.021
25195W        W89139  13.709  20.708  12.448
25196W        W89140  39.417  36.428   4.716
25197W        W89141  43.818  37.886   3.725
25198W        W89142  34.601  43.021   3.814
25199W        W89143   6.421  32.090   2.300
25200W        W89144   5.236  14.750   3.297
25201W        W89145  36.951  37.835   4.338
25202W        W89146  11.232  38.856  13.994
25203W        W89147  26.532   4.208   2.861
25204W        W89148  29.635   1.771  10.433
25205W        W89149  24.604   7.840   3.150
25206W        W89150   6.215  38.002   3.658
25207W        W89151   6.316  34.464  11.891
25208W        W89152  34.045  28.672  12.091
25209W        W89153  35.450  25.705   3.259
25210W        W89154  39.444  27.650   0.320
25211W        W89155  21.580  21.031   4.319
25212W        W89156  24.079  27.633   4.830
25213W        W89157  10.803  34.023   0.905
25214W        W89158   3.379  32.551  11.088
25215W        W89159  38.452   3.383   1.322
25216W        W89160  41.492  42.888   2.889
25217W        W89161  25.534  13.342  10.042
25218W        W89162  21.026  28.038   2.686
25219W        W89163  16.084  19.176  12.471
25220W        W89164  33.075  21.527   4.269
25221W        W89165   8.745  10.340   4.641
25222W        W89166   6.234  11.660   1.740
25223W        W89167   3.894  42.984   4.265
25224W        W89168  26.702  43.832  12.484
25225W        W89169   9.859  31.082  12.836
25226W        W89170  25.076  19.119   3.828
25227W        W89171  34.584  41.881   3.282
25228W        W89172  16.195  25.484  12.391
25229W        W89173   0.306  31.111   2.409
25230W        W89174  15.128  25.132  10.466
25231W        W89175  39.047  39.960  11.556
25232W        W89176   6.286  26.150  11.057
25233W        W89177  26.145  33.006  12.437
25234W        W89178  16.136   9.266  14.415
25235W        W89179  16.782  35.439   0.770
25236W        W89180  26.574   3.771   0.798
25237W        W89181  29.653  40.957   2.746
25238W        W89182  11.306  12.206   1.311
25239W        W89183  18.635   1.952  14.513
25240W        W89184  40.376  38.351  12.955
25241W        W89185   3.360  17.642  14.982
25242W        W89186  42.334  43.867  10.637
25243W        W89187   4.827  36.847   1.437
25244W        W89188  24.024   6.787   0.331
25245W        W89189  22.107   5.851   1.745
25246W        W89190  43.501   4.903  13.907
25247W        W89191   3.460  41.794  14.784
25248W        W89192  21.598  27.018   4.835
25249W        W89193  32.029  18.647  14.996
25250W        W89194  19.120   9.845   2.818
25251W        W89195   5.934  23.137  11.894
25252W        W89196  22.730  12.199  10.498
25253W        W89197  25.637   2.781  13.507
25254W        W89198   1.857  22.161  10.423
25255W        W89199  43.345  19.579   0.463
25256W        W89200  26.048  30.463  13.875
25257W        W89201  14.661   0.445   5.251
25258W        W89202   8.204  21.554   4.126
25259W        W89203   0.301  12.186  14.406
25260W        W89204   0.904   4.899   2.231
25261W        W89205  14.795  40.506  13.025
25262W        W89206  10.261  14.317   0.811
25263W        W89207  44.938   7.372   1.743
25264W        W89208  11.792  25.546   4.808
25265W        W89209  35.983  31.550   2.727
25266W        W89210  43.392  42.418  12.363
25267W        W89211  26.623   6.804  11.943
25268W        W89212  42.321  18.628  13.951
25269W        W89213  27.642  43.853   4.706
25270W        W89214  21.680  31.946   0.439
25271W        W89215  21.698  23.984  14.964
25272W        W89216  34.918  37.570   1.419
25273W        W89217  13.726  26.478   3.318
25274W        W89218   0.910  16.298  14.367
25275W        W89219  22.234  22.130   1.778
25276W        W89220  13.139  33.901   3.667
25277W        W89221  32.934  22.178  13.448
25278W        W89222  26.684  28.122   3.289
25279W        W89223  21.614  25.545   1.738
25280W        W89224   9.750   8.294  10.995
25281W        W89225  31.422   8.399  12.901
25282W        W89226   1.447  41.830   4.616
25283W        W89227  20.691   4.759   4.343
25284W        W89228  39.888  13.730   1.270
25285W        W89229  22.570  32.465  11.871
25286W        W89230  11.212  36.001  11.528
25287W        W89231   1.737  35.908  13.519
25288W        W89232  33.984  42.478  11.875
25289W        W89233  36.081  38.888   1.726
25290W        W89234  10.220  13.164   2.673
25291W        W89235  10.751   9.212   2.336
25292W        W89236  36.079  39.498   1.219
25293W        W89237  26.167  10.169   0.909
25294W        W89238  43.332  35.530  11.410
25295W        W89239  37.914  30.486   4.757
25296W        W89240   0.275  17.228   2.754
25297W        W89241  14.294  16.175  12.952
25298W        W89242   6.264   3.281  11.382
25299W        W89243  10.168  35.036   1.285
25300W        W89244  14.116   6.259  11.996
25301W        W89245  19.275   9.347  11.916
25302W        W89246  11.659  15.759   0.326
25303W        W89247  34.376  32.945   1.742
25304W        W89248  18.773   8.296   3.157
25305W        W89249   2.377  39.921  10.617
25306W        W89250  18.174  16.748   4.120
25307W        W89251   5.224  42.990  12.445
25308W        W89252  28.451  23.580   0.920
25309W        W89253  29.559   6.903  13.984
25310W        W89254  15.591   5.726  11.972
25311W        W89255   3.457  40.541   3.259
25312W        W89256  14.297   9.751   2.306
25313W        W89257  14.162  44.793   1.859
25314W        W89258  21.744  33.449  13.308
25315W        W89259   9.677  30.971   1.295
25316W        W89260  16.797  14.292  14.362
25317W        W89261  19.126  17.299   2.840
25318W        W89262  36.465  17.571   3.691
25319W        W89263  41.403  30.987   0.463
25320W        W89264  24.228  10.730   0.437
25321W        W89265  11.653  25.553  14.430
25322W        W89266  23.731   2.909  12.877
25323W        W89267   4.759  15.810  12.046
25324W        W89268  41.462  31.908  12.547
25325W        W89269  32.610   1.933  13.490
25326W        W89270  33.416   9.235  11.880
25327W        W89271  14.236  16.720  13.855
25328W        W89272  31.005   0.808  11.956
25329W        W89273   2.389  13.742  11.451
25330W        W89274   5.872  40.869   1.229
25331W        W89275  11.258  39.514   2.314
25332W        W89276  33.432  15.124   0.473
25333W        W89277   2.847   3.380  10.481
25334W        W89278  10.159   3.303  10.610
25335W        W89279  20.670   6.341  12.825
25336W        W89280  40.824   6.317  10.434
25337W        W89281   0.275  44.767   1.393
25338W        W89282  38.417  18.247   0.441
25339W        W89283  34.506   3.266  13.057
25340W        W89284  37.445  40.391  13.952
25341W        W89285   3.354  44.481   0.452
25342W        W89286  42.941  42.507  14.764
25343W        W89287   8.251   0.314  13.862
25344W        W89288  11.775  38.062  10.633
25345W        W89289   4.260  39.438   0.773
25346W        W89290  12.186  15.214   1.792
25347W        W89291  12.645   8.672  10.593
25348W        W89292   7.207  43.417  14.872
25349W        W89293  22.681  17.265  12.840
25350W        W89294  33.579   6.764  10.571
25351W        W89295  15.593  17.118  12.480
25352W        W89296  30.155  40.942   9.604
25353W        W89297  44.327  10.164   5.271
25354W        W89298  22.706  14.624   3.660
25355W        W89299   5.255  31.953  11.387
25356W        W89300  26.495  41.841  12.474
25357W        W89301  43.874   3.345   0.877
25358W        W89302  17.155  33.965  14.791
25359W        W89303  10.163  10.745   3.335
25360W        W89304  33.087  11.181   3.240
25361W        W89305  16.737  10.651  12.516
25362W        W89306  39.333   5.771   1.275
25363W        W89307   4.943  23.656   2.828
25364W        W89308  13.791  36.402   4.176
25365W        W89309  33.987  32.909  10.609
25366W        W89310  26.081  31.052  13.825
25367W        W89311  21.554   0.896   1.812
25368W        W89312   7.297   5.793  12.975
25369W        W89313  39.984  21.053   3.643
25370W        W89314  38.493   4.210  14.818
25371W        W89315  33.392  20.585   2.751
25372W        W89316  14.631  23.216  12.498
25373W        W89317  23.634  32.002   2.751
25374W        W89318  36.412   1.881   4.149
25375W        W89319  13.156  31.613  13.511
25376W        W89320  29.155   1.929  11.968
25377W        W89321   2.454   4.737  10.041
25378W        W89322  34.579  31.101  14.833
25379W        W89323  26.629  35.562   2.337
25380W        W89324  29.929   3.351   2.195
25381W        W89325  34.427   9.180   2.689
25382W        W89326   3.732  29.033  11.608
25383W        W89327  41.959   0.945   2.181
25384W        W89328   6.782   7.404  10.423
25385W        W89329  21.143  26.609   4.807
25386W        W89330  11.787   4.874  14.461
25387W        W89331  42.801   9.333   1.256
25388W        W89332  42.004  29.156   5.140
25389W        W89333  34.408  13.322  10.420
25390W        W89334  15.611  40.997  10.453
25391W        W89335  38.381  44.447   0.861
25392W        W89336  19.692  14.645  13.459
25393W        W89337  18.638   0.889   3.281
25394W        W89338  36.951  43.515   3.353
25395W        W89339  30.557  35.560   0.246
25396W        W89340  29.618  16.175  11.408
25397W        W89341  18.644  34.520  10.476
25398W        W89342  34.612  38.000  11.066
25399W        W89343   2.449  41.495   0.333
25400W        W89344  23.071   7.370   3.673
25401W        W89345   4.755  33.591   1.790
25402W        W89346  23.210  26.698  13.797
25403W        W89347  17.092  23.528   2.810
25404W        W89348   8.258  10.345   9.981
25405W        W89349  33.529  32.087  11.605
25406W        W89350  21.068  26.175   0.883
25407W        W89351   7.863   4.754  13.023
25408W        W89352   7.402  29.617   0.754
25409W        W89353  43.842  15.107  13.967
25410W        W89354  24.069  30.493  10.433
25411W        W89355  15.281   0.406   1.376
25412W        W89356  23.496  12.343  12.004
25413W        W89357  40.313   1.821   1.851
25414W        W89358  17.274  20.624   0.339
25415W        W89359  13.769  27.646   4.732
25416W        W89360  20.030  31.481  11.072
25417W        W89361  30.557  33.619   1.879
25418W        W89362  20.695   3.224   1.360
25419W        W89363  32.071  36.558  11.115
25420W        W89364   4.348   9.189  14.930
25421W        W89365  37.367  27.180  13.937
25422W        W89366  18.153   5.822   0.768
25423W        W89367   6.797  42.027  12.457
25424W        W89368  41.919  33.918  13.887
25425W        W89369   0.295  42.445  13.326
25426W        W89370  19.694   6.303   3.630
25427W        W89371  19.651  39.365  13.311
25428W        W89372  30.119  25.484   1.362
25429W        W89373  28.013  24.614   1.306
25430W        W89374   5.342   0.274   0.844
25431W        W89375  41.970   3.308   2.758
25432W        W89376  10.709  30.083  14.382
25433W        W89377  32.099   1.415  12.016
25434W        W89378  32.625  27.081  14.474
25435W        W89379  11.318  10.820  11.991
25436W        W89380   8.241  17.733  11.970
25437W        W89381  33.467  41.339  14.432
25438W        W89382   4.937  21.120   0.847
25439W        W89383  27.136  35.513  10.457
25440W        W89384  22.012   8.269  14.931
25441W        W89385  25.609   4.395   2.763
25442W        W89386  41.966  33.500  10.947
25443W        W89387  37.536  24.124  12.475
25444W        W89388  40.991  42.375   1.768
25445W        W89389  24.640  40.999  14.379
25446W        W89390   3.789  12.129   1.809
25447W        W89391  30.033  42.933   2.250
25448W        W89392   5.869  17.664   5.609
25449W        W89393  13.135  13.825   0.424
25450W        W89394  23.564   7.743   1.863
25451W        W89395  34.466   5.437  11.413
25452W        W89396  15.269  27.167  13.025
25453W        W89397  12.855  16.746  12.353
25454W        W89398  32.977  26.104   2.361
25455W        W89399  40.034  39.469  12.837
25456W        W89400  28.503  39.333  14.818
25457W        W89401  25.160  38.371   2.198
25458W        W89402  24.501  44.398  14.280
25459W        W89403  39.875   8.852   0.394
25460W        W89404   4.404  18.233   3.694
25461W        W89405   1.259  10.681  10.926
25462W        W89406  38.394   6.838  10.160
25463W        W89407  13.188  32.431  12.530
25464W        W89408  12.743   1.865  10.940
25465W        W89409  43.923  18.195   0.346
25466W        W89410  30.489   3.776   3.651
25467W        W89411  40.404   3.827   0.745
25468W        W89412  42.495  31.421  10.492
25469W        W89413  19.577   0.903   2.393
25470W        W89414  42.932  29.959  14.427
25471W        W89415  24.157   9.375  12.950
25472W        W89416  11.674  20.177   0.280
25473W        W89417   2.871  32.061   0.476
25474W        W89418  32.930  21.632   0.349
25475W        W89419  10.704  13.602   1.391
25476W        W89420  15.329  15.657   0.367
25477W        W89421   9.809   3.241   2.720
25478W        W89422  16.578  13.185  11.920
25479W        W89423  33.971   4.376  11.997
25480W        W89424  42.954  10.816   0.412
25481W        W89425  31.110  26.508  10.955
25482W        W89426  22.560  36.411   4.337
25483W        W89427  36.483  37.526   2.262
25484W        W89428  37.003  38.356  14.491
25485W        W89429   8.285   9.799   0.357
25486W        W89430  35.591   0.757  13.859
25487W        W89431  13.797  23.607  14.365
25488W        W89432  29.554  16.737   2.742
25489W        W89433  17.651   0.278  14.817
25490W        W89434  35.977  44.789   4.181
25491W        W89435  29.156  33.092  13.455
25492W        W89436  19.091  22.209   5.164
25493W        W89437  11.859  30.073   0.261
25494W        W89438  38.428  28.471   0.291
25495W        W89439   2.431  17.599   4.324
25496W        W89440   9.721  18.216   5.189
25497W        W89441  12.262  24.033  14.373
25498W        W89442  30.627  12.182   4.322
25499W        W89443  33.973   5.811   2.213
25500W        W89444  39.342  25.080   3.857
25501W        W89445  28.979  35.420  13.878
25502W        W89446  25.487  28.566  14.964
25503W        W89447   0.746  32.048  10.914
25504W        W89448  42.860  36.958  13.462
25505W        W89449   2.345   9.707  11.410
25506W        W89450  32.947  39.404   2.678
25507W        W89451   0.426  31.943  10.006
25508W        W89452   4.296  35.586  14.809
25509W        W89453   6.411  22.212  14.280
25510W        W89454  12.854  21.641  12.419
25511W        W89455  32.603  16.763   4.146
25512W        W89456  14.116  31.071   0.789
25513W        W89457  27.979  27.113   3.631
25514W        W89458  21.634  37.550   1.355
25515W        W89459  43.863  10.848   0.370
25516W        W89460   3.727  30.957  10.591
25517W        W89461   1.349  28.009   1.241
25518W        W89462  10.328  44.975  12.867
25519W        W89463  15.624  14.269   5.266
25520W        W89464  43.372  35.996   1.319
25521W        W89465   4.217  22.105   0.280
25522W        W89466  30.438   8.792  13.007
25523W        W89467  25.206  41.418  14.021
25524W        W89468  28.535  42.508  12.033
25525W        W89469   5.432  14.181  10.633
25526W        W89470  28.579  15.596   3.325
25527W        W89471  33.093  11.287  10.896
25528W        W89472  11.686   9.265   1.885
25529W        W89473  25.644  35.406   0.792
25530W        W89474   6.893  32.051  12.570
25531W        W89475  38.488  38.936   2.295
25532W        W89476   0.273   8.375   0.954
25533W        W89477  41.855  25.148  14.964
25534W        W89478  16.136  20.157  13.964
25535W        W89479  44.938  32.539  12.558
25536W        W89480  13.688   2.961  11.983
25537W        W89481  18.704   8.371  11.865
25538W        W89482  22.051  28.980  13.404
25539W        W89483   6.732  14.207   0.886
25540W        W89484  36.094  41.977   3.785
25541W        W89485   4.240  22.687   3.830
25542W        W89486  34.086  19.542  10.898
25543W        W89487  19.549  32.092   2.335
25544W        W89488  38.891  24.198   2.843
25545W        W89489   0.335  36.585   1.715
25546W        W89490  41.004   6.817   3.703
25547W        W89491   8.809   6.922  13.375
25548W        W89492   3.268  42.499   1.444
25549W        W89493  25.489  19.692  13.890
25550W        W89494   0.973  20.043  11.034
25551W        W89495  13.698   8.317   4.759
25552W        W89496  18.155  35.579  10.523
25553W        W89497  25.711  11.718  13.013
25554W        W89498   0.831   4.892   3.185
25555W        W89499   7.788  41.450   4.188
25556W        W89500  12.757   6.677   3.658
25557W        W89501  39.547  21.147  14.487
25558W        W89502  35.374  18.732   4.795
25559W        W89503  33.974  11.809   3.756
25560W        W89504  32.924  11.731   1.307
25561W        W89505  41.916  18.068  14.805
25562W        W89506  30.504  26.133   2.851
25563W        W89507  14.255   3.889  13.496
25564W        W89508  38.856  26.579   2.237
25565W        W89509  14.127  39.431   0.273
25566W        W89510  30.097  22.250   1.296
25567W        W89511   2.271   3.318   2.244
25568W        W89512  17.300   9.340   3.685
25569W        W89513  17.099  17.752   0.326
25570W        W89514  39.508  13.239   0.938
25571W        W89515  36.927  30.124   3.380
25572W        W89516   7.402  23.521  13.495
25573W        W89517  18.592  24.657   5.169
25574W        W89518  36.416  38.923   4.175
25575W        W89519  22.696  18.147  10.594
25576W        W89520  25.562  29.499   3.775
25577W        W89521   0.411  22.198   3.806
25578W        W89522  11.133  29.482   2.191
25579W        W89523  35.081  13.842   4.827
25580W        W89524  44.399   2.378   0.800
25581W        W89525  15.314  43.894  14.889
25582W        W89526  44.944  33.529   0.896
25583W        W89527  17.643   7.406  12.514
25584W        W89528   6.915  26.506  13.966
25585W        W89529  40.379  13.652   0.394
25586W        W89530  37.338  25.527  13.991
25587W        W89531  30.957  10.829   2.321
25588W        W89532  15.807   2.445  11.018
25589W        W89533  20.171  18.217  10.431
25590W        W89534  40.827  40.827   4.800
25591W        W89535  29.042  13.612  12.044
25592W        W89536  19.096  16.300  13.467
25593W        W89537  22.600  15.805  11.857
25594W        W89538   3.395  35.580   1.839
25595W        W89539  40.490  18.211  14.302
25596W        W89540   9.708  25.003   1.429
25597W        W89541   7.417  28.590  12.361
25598W        W89542   5.368  25.495   1.739
25599W        W89543  23.509  11.807   4.816
25600W        W89544  18.276   7.325  14.997
25601W        W89545  21.635  28.152  10.421
25602W        W89546  17.076  27.998   4.256
25603W        W89547  30.524  39.034   2.196
25604W        W89548  38.528  31.000  12.989
25605W        W89549  23.984  11.355   0.255
25606W        W89550   8.248  10.873  10.967
25607W        W89551  23.104   5.874  12.003
25608W        W89552  14.324  19.648   2.362
25609W        W89553  14.285  18.113   2.302
25610W        W89554  23.016   4.433  10.931
25611W        W89555  24.508   5.324  10.998
25612W        W89556  29.934   7.330  10.907
25613W        W89557   0.247  20.265   1.254
25614W        W89558  39.533   1.352  14.481
25615W        W89559  43.922  41.354  11.426
25616W        W89560  27.103  28.475  11.489
25617W        W89561  33.446  41.008   1.244
25618W        W89562  23.627  40.321   3.385
25619W        W89563  15.766  42.295   3.321
25620W        W89564   8.394  13.610   3.281
25621W        W89565   2.877  18.575  14.980
25622W        W89566   4.266  17.167  12.835
25623W        W89567   7.849  11.242  14.801
25624W        W89568   2.876  41.395  10.475
25625W        W89569  40.422  20.220  14.985
25626W        W89570  20.160  29.946  12.427
25627W        W89571  30.503  31.139   1.722
25628W        W89572  16.173  25.557   9.518
25629W        W89573  19.231  13.624   3.842
25630W        W89574   8.844   1.808  14.003
25631W        W89575  29.077  23.229  10.413
25632W        W89576  40.304   0.451   2.796
25633W        W89577  38.408   7.290   1.448
25634W        W89578   6.777  43.273  13.355
25635W        W89579  42.303   0.947   3.736
25636W        W89580  23.236   7.855  14.483
25637W        W89581  10.324   7.720   4.742
25638W        W89582   1.445  35.985  12.355
25639W        W89583  37.941  30.936   4.837
25640W        W89584  41.806  39.016   2.700
25641W        W89585  30.995   5.205   0.458
25642W        W89586   3.264  30.944  13.419
25643W        W89587  25.592  19.665   1.330
25644W        W89588  30.612  36.566  14.819
25645W        W89589   6.844   3.270   2.416
25646W        W89590  26.053  21.668   4.324
25647W        W89591  11.239   8.209  13.410
25648W        W89592  33.921  38.425   3.635
25649W        W89593   4.341  15.659   4.786
25650W        W89594  21.580  24.118  10.421
25651W        W89595  18.763  42.942  11.400
25652W        W89596   9.364   8.217   0.745
25653W        W89597  22.611  33.461  12.022
25654W        W89598  32.029  23.155  12.040
25655W        W89599  32.442  42.820  10.892
25656W        W89600   8.333  44.486   3.762
25657W        W89601  33.619  13.279   4.679
25658W        W89602   8.259  13.745   2.324
25659W        W89603  32.983  39.040  12.447
25660W        W89604  26.030   9.278   0.867
25661W        W89605  43.357   0.483  12.440
25662W        W89606  44.835  35.991  13.046
25663W        W89607  15.706   6.908   9.961
25664W        W89608  36.571   5.689  14.808
25665W        W89609  14.690  10.378   4.175
25666W        W89610  30.618  37.417   1.369
25667W        W89611   4.771  44.787  11.050
25668W        W89612  27.970  30.937   3.263
25669W        W89613  27.190  17.794  11.011
25670W        W89614   3.757  20.028   0.272
25671W        W89615  37.032  10.223  12.428
25672W        W89616  21.545  19.729   1.933
25673W        W89617  17.787  36.402   2.185
25674W        W89618  25.531  43.819  10.640
25675W        W89619   3.449  22.032   4.786
25676W        W89620  27.949  24.989  14.361
25677W        W89621  22.550  14.708  12.079
25678W        W89622  33.408   5.231  13.900
25679W        W89623  13.190  18.571   2.777
25680W        W89624  17.224   2.855  13.496
25681W        W89625   0.912  41.319   0.920
25682W        W89626  17.276  14.687  14.412
25683W        W89627   8.876  37.063  12.093
25684W        W89628  37.436  23.153  12.912
25685W        W89629  16.714  11.690  14.346
25686W        W89630  17.093  29.975  10.623
25687W        W89631  37.467  31.510   3.703
25688W        W89632  11.362   5.736   3.186
25689W        W89633  11.642  30.420   3.869
25690W        W89634  28.086  10.715  13.004
25691W        W89635  14.199  32.602   2.239
25692W        W89636   7.354  20.214   4.226
25693W        W89637  26.125  42.796   1.400
25694W        W89638  28.464  27.622  10.931
25695W        W89639  17.646   4.360   2.244
25696W        W89640  27.075  38.944   4.604
25697W        W89641   8.290   0.844  11.949
25698W        W89642  11.325  12.781  14.481
25699W        W89643  36.440  36.507  14.897
25700W        W89644  29.463  30.483   2.865
25701W        W89645  12.247  14.747   0.899
25702W        W89646   9.212  30.144  13.869
25703W        W89647   4.305  31.540   4.267
25704W        W89648   9.213  27.140   3.207
25705W        W89649  13.733   8.808   4.186
25706W        W89650  36.359  16.293  12.953
25707W        W89651  31.984  22.079  11.081
25708W        W89652   9.359  12.339   3.817
25709W        W89653  39.897  23.503   1.934
25710W        W89654   4.258  35.947   1.878
25711W        W89655  10.370  28.151  14.869
25712W        W89656  32.491   3.355   0.834
25713W        W89657  29.440  20.757   1.744
25714W        W89658   3.400   8.224  14.512
25715W        W89659  11.257  12.697   2.887
25716W        W89660  13.833  44.402  13.966
25717W        W89661  34.102  39.538   4.680
25718W        W89662  34.567  15.674   2.387
25719W        W89663  31.937  12.757  11.042
25720W        W89664   2.446  29.120   3.209
25721W        W89665  21.583   7.824   1.715
25722W        W89666  11.679  10.808   2.292
25723W        W89667  19.261   4.272  14.853
25724W        W89668   8.350  24.216  11.573
25725W        W89669  31.948  14.247  14.014
25726W        W89670  36.412   5.243   1.840
25727W        W89671  13.669  15.245  10.640
25728W        W89672  29.044  42.974  10.404
25729W        W89673  36.426  13.308   2.863
25730W        W89674  22.642  41.359  14.821
25731W        W89675   4.884  37.052  13.373
25732W        W89676  32.942  37.966  12.854
25733W        W89677  23.116  25.503   4.185
25734W        W89678   9.814  29.654  12.468
25735W        W89679   6.202  14.272  14.350
25736W        W89680  19.764  11.666  13.483
25737W        W89681  19.573  10.260  13.516
25738W        W89682  26.125   2.226   2.757
25739W        W89683   5.727  17.106   4.344
25740W        W89684  22.626   0.337   2.745
25741W        W89685  16.791  40.468  12.507
25742W        W89686  36.097  11.365  11.017
25743W        W89687  10.368   8.311   0.242
25744W        W89688  24.554  24.563  11.407
25745W        W89689  39.035  12.339  11.549
25746W        W89690  10.802   4.766  13.323
25747W        W89691  28.484  17.574   1.727
25748W        W89692  39.951  20.080  10.522
25749W        W89693  37.512  11.250   0.845
25750W        W89694  32.987  15.262  10.937
25751W        W89695  25.051   4.287   3.364
25752W        W89696   7.290  12.738   3.767
25753W        W89697  27.039  42.986  13.498
25754W        W89698   8.170  27.139  13.498
25755W        W89699  41.829   9.357  11.391
25756W        W89700  18.687  26.020  10.149
25757W        W89701  36.027  32.123  11.125
25758W        W89702   1.314  16.212  14.499
25759W        W89703  41.940   9.243   4.270
25760W        W89704  26.044  34.952  10.978
25761W        W89705   2.430  41.387  12.015
25762W        W89706  20.732  41.911  13.904
25763W        W89707  13.816   2.818   5.084
25764W        W89708   9.158   5.221  11.010
25765W        W89709  33.003  19.187  14.764
25766W        W89710  26.203  34.022  12.989
25767W        W89711  27.946  11.353  13.436
25768W        W89712  20.259  20.145  11.948
25769W        W89713  13.182  30.539  11.973
25770W        W89714   9.815  40.861  13.003
25771W        W89715  17.742  39.025   2.722
25772W        W89716  15.313  40.397   2.308
25773W        W89717  13.740  41.310  11.451
25774W        W89718   1.970  28.999   1.323
25775W        W89719   1.857  44.334   3.282
25776W        W89720  38.327  37.521  12.823
25777W        W89721  33.538   3.361  13.381
25778W        W89722   5.196  19.163   3.865
25779W        W89723  17.230   3.765  13.855
25780W        W89724  13.606  25.976   4.248
25781W        W89725  22.557  18.629  14.491
25782W        W89726  34.092  15.660  12.025
25783W        W89727   2.760  42.358   2.882
25784W        W89728  27.475  19.612   2.188
25785W        W89729  20.144  19.565   0.758
25786W        W89730  11.708  10.230   0.447
25787W        W89731   2.354  35.888  10.610
25788W        W89732  21.173  40.003  14.973
25789W        W89733  42.306  19.636  12.379
25790W        W89734   5.355   9.388  12.490
25791W        W89735  11.747  33.485   0.751
25792W        W89736  36.046  14.589   1.775
25793W        W89737  43.898  27.640  11.972
25794W        W89738  31.487  19.583   3.319
25795W        W89739   1.749  44.290   0.904
25796W        W89740  13.616  35.866   4.611
25797W        W89741  18.145  13.326   3.339
25798W        W89742   4.796  32.422  13.847
25799W        W89743  29.137  32.035   4.669
25800W        W89744   8.722  21.734  14.337
25801W        W89745  42.826  33.532   2.798
25802W        W89746  19.230  10.292  10.478
25803W        W89747  24.977  23.577  10.418
25804W        W89748  16.187   4.761   0.746
25805W        W89749  33.394   8.235  13.794
25806W        W89750  23.607  20.150  13.827
25807W        W89751   8.193  14.159   0.917
25808W        W89752  19.174  41.037   4.819
25809W        W89753  31.404  24.577   0.341
25810W        W89754  22.174  31.084  12.942
25811W        W89755  29.018  12.688  13.356
25812W        W89756   1.737  26.058   3.742
25813W        W89757   6.739  11.835  12.959
25814W        W89758   7.235  44.902   2.753
25815W        W89759  16.114  43.292   0.323
25816W        W89760  29.669  22.093  12.923
25817W        W89761  31.405   5.210   1.268
25818W        W89762   3.263  35.583   0.829
25819W        W89763  14.588   5.875  11.411
25820W        W89764  39.961  16.309   0.732
25821W        W89765  30.157  25.115   4.114
25822W        W89766  35.046  24.480   3.838
25823W        W89767  14.127  27.666   0.906
25824W        W89768  34.564   5.691  10.604
25825W        W89769   8.365  36.477  13.063
25826W        W89770   7.777  19.228   2.741
25827W        W89771   5.397   0.952   3.214
25828W        W89772  10.226  38.067   4.776
25829W        W89773  39.501   2.738   3.381
25830W        W89774  21.590  43.871   1.724
25831W        W89775  44.865  37.925  14.988
25832W        W89776  37.895  22.537  11.908
25833W        W89777  18.236  25.020   1.733
25834W        W89778  18.634  27.141   1.409
25835W        W89779  13.752  21.596   0.423
25836W        W89780  22.628  11.680  13.471
25837W        W89781  23.667   7.904  14.873
25838W        W89782  15.794  21.597  12.466
25839W        W89783  18.216  31.923   0.326
25840W        W89784  26.548  10.727  13.486
25841W        W89785   6.696  17.292   3.681
25842W        W89786  26.157   2.905   0.380
25843W        W89787   9.220   3.922  12.535
25844W        W89788  19.678   1.393  13.055
25845W        W89789  20.136   3.910   0.362
25846W        W89790  11.293  22.131  13.061
25847W        W89791  33.124  24.699   2.885
25848W        W89792  23.036  36.017   1.888
25849W        W89793   5.418   8.196  13.047
25850W        W89794  11.716  38.489  12.956
25851W        W89795   6.380  23.538  13.417
25852W        W89796   3.826   5.732   5.147
25853W        W89797  38.930  23.237  10.626
25854W        W89798  18.245  26.083   1.915
25855W        W89799  38.372  34.544   0.799
25856W        W89800  44.478   2.250  12.093
25857W        W89801  38.987  23.078   1.709
25858W        W89802   5.249   1.879  13.030
25859W        W89803  26.484  12.350  13.458
25860W        W89804  17.175   2.910   0.785
25861W        W89805  19.550  19.266  12.882
25862W        W89806  10.801  23.544   0.780
25863W        W89807  31.491  25.526   3.273
25864W        W89808  24.588  31.136   0.417
25865W        W89809  38.894  43.831   1.317
25866W        W89810   4.425   6.282   3.188
25867W        W89811  34.409  13.773  14.364
25868W        W89812  33.565   3.735  13.492
25869W        W89813   7.766  27.135  11.380
25870W        W89814  11.280  37.398   4.754
25871W        W89815   6.188  31.435   0.431
25872W        W89816   9.837   5.826   2.341
25873W        W89817  25.066   1.841  14.966
25874W        W89818   6.394  28.465   4.256
25875W        W89819  15.765   3.337   1.825
25876W        W89820  28.989  33.915  12.084
25877W        W89821  17.302  16.078   0.461
25878W        W89822  43.364  18.650   2.215
25879W        W89823   0.753   1.814  10.970
25880W        W89824  28.135   9.190   2.240
25881W        W89825   7.900  37.984   0.932
25882W        W89826  12.779   1.956   2.307
25883W        W89827  38.360  21.146  14.005
25884W        W89828   4.375  20.765   2.263
25885W        W89829   0.978  40.548   2.872
25886W        W89830   8.279   0.459   1.237
25887W        W89831   4.845  10.794  13.406
25888W        W89832  29.500  10.215   4.346
25889W        W89833  22.633  39.836  12.951
25890W        W89834  17.264  16.785  12.843
25891W        W89835  25.180   4.444   1.313
25892W        W89836   3.343  16.093  12.926
25893W        W89837  26.533  39.048  10.083
25894W        W89838  37.346   2.290  12.576
25895W        W89839  25.473  20.549  12.982
25896W        W89840  31.418  27.071   2.831
25897W        W89841  21.200   1.271   4.798
25898W        W89842  32.142   0.492  13.015
25899W        W89843  31.117   8.850  11.115
25900W        W89844  14.752  15.311   1.443
25901W        W89845  10.359  24.035  12.942
25902W        W89846  19.569  19.261  14.818
25903W        W89847  34.490  40.391   0.842
25904W        W89848  15.140   4.890  10.432
25905W        W89849  10.375  18.216   2.197
25906W        W89850   7.326  20.602  10.467
25907W        W89851  29.032  25.198   1.883
25908W        W89852  22.079  43.779  14.958
25909W        W89853  32.065  22.029  11.418
25910W        W89854  42.391  32.994   4.660
25911W        W89855  23.011   3.869   1.815
25912W        W89856  32.108   6.877  11.986
25913W        W89857  27.666  22.619  11.484
25914W        W89858  16.595  26.094   2.705
25915W        W89859  29.589   8.205  13.823
25916W        W89860  23.502   8.691  11.450
25917W        W89861  16.214  38.006   1.924
25918W        W89862  35.879  21.113  10.143
25919W        W89863  39.466  12.701   1.915
25920W        W89864  24.183   7.235   2.754
25921W        W89865  36.561  18.284  10.642
25922W        W89866  19.741  36.592  13.831
25923W        W89867  11.290  42.389   4.646
25924W        W89868  41.847  42.918   3.791
25925W        W89869  29.587  19.055  12.911
25926W        W89870  40.380  18.082   2.406
25927W        W89871  22.629  42.429  10.500
25928W        W89872  43.934   8.339   0.255
25929W        W89873  29.567  28.502   2.407
25930W        W89874  33.064  15.120   1.412
25931W        W89875  16.137  32.980   2.277
25932W        W89876  12.317  27.958  13.382
25933W        W89877  33.978  20.675   4.195
25934W        W89878  19.164  14.615   4.733
25935W        W89879   5.843   1.804  10.501
25936W        W89880   0.265  39.455   1.370
25937W        W89881  42.400  43.347  12.535
25938W        W89882   7.395  17.147  12.081
25939W        W89883  40.008   4.794   1.728
25940W        W89884  19.241  18.150   2.786
25941W        W89885  32.031  25.713  13.448
25942W        W89886  25.117  27.103   0.790
25943W        W89887  24.098   0.870  14.380
25944W        W89888  12.246  35.917  13.030
25945W        W89889  11.334  30.132  13.451
25946W        W89890  21.039   3.408   0.872
25947W        W89891  12.358  18.209  14.368
25948W        W89892  35.519  12.833  13.506
25949W        W89893  28.493  10.233   1.353
25950W        W89894  15.749   1.967  12.078
25951W        W89895   2.760  19.107   3.346
25952W        W89896  43.839  42.932  11.943
25953W        W89897  37.406   1.292   1.783
25954W        W89898  37.433  25.207  12.492
25955W        W89899  28.639  25.964  13.313
25956W        W89900  22.585  19.266   1.789
25957W        W89901  29.036  33.601   4.821
25958W        W89902  15.180   5.931   2.231
25959W        W89903  23.138   3.797  11.028
25960W        W89904   9.326  17.766   1.821
25961W        W89905  15.778  11.162   1.431
25962W        W89906   6.814  12.117  11.526
25963W        W89907   0.847   7.292  11.027
25964W        W89908  44.440  29.026   1.385
25965W        W89909  20.125   4.295  12.472
25966W        W89910  29.437  32.530   1.276
25967W        W89911   4.332  25.122  14.498
25968W        W89912   3.253   2.461  14.454
25969W        W89913   2.441  31.992  14.981
25970W        W89914  23.209   1.770  11.039
25971W        W89915  15.103  16.143  13.532
25972W        W89916  35.387  35.053  11.010
25973W        W89917  23.163   8.684  11.901
25974W        W89918   2.734  44.829  12.908
25975W        W89919  31.013  33.583  11.901
25976W        W89920  34.444  40.548  11.439
25977W        W89921  28.481   9.196  12.850
25978W        W89922  11.645  14.333   2.343
25979W        W89923   3.254  42.795  10.902
25980W        W89924   7.783   0.478   4.681
25981W        W89925  23.497  17.637   3.264
25982W        W89926  43.992  20.198  10.437
25983W        W89927  42.010  25.023   1.343
25984W        W89928  33.390  11.322  13.394
25985W        W89929  27.676   6.207   4.756
25986W        W89930  23.524  39.950  10.624
25987W        W89931  30.542   2.274   3.328
25988W        W89932  40.001  10.774   3.666
25989W        W89933  22.615  35.896   0.859
25990W        W89934  44.918   6.325   0.735
25991W        W89935  34.103   6.283   0.391
25992W        W89936  25.101  30.610  12.976
25993W        W89937  27.598  40.908   1.845
25994W        W89938  35.573  20.223   0.281
25995W        W89939  33.993  20.530  11.499
25996W        W89940  22.021   7.223  10.534
25997W        W89941  20.217  34.394   2.744
25998W        W89942  16.162   7.190   1.826
25999W        W89943  44.303  10.681  13.059
26000W        W89944  15.187  28.991   1.816
26001W        W89945   9.335  15.194  14.380
26002W        W89946  29.536  34.610   3.173
26003W        W89947  43.306  12.758  13.548
26004W        W89948  27.535  15.762   2.383
26005W        W89949  24.671  22.585  11.564
26006W        W89950   4.245  21.070  11.932
26007W        W89951  40.011  24.711  14.827
26008W        W89952  41.528  26.548  12.385
26009W        W89953  43.771   6.803   4.694
26010W        W89954  33.974   0.416  13.975
26011W        W89955  30.434  42.852  10.566
26012W        W89956  43.347  34.102  13.352
26013W        W89957   0.359   8.273  10.937
26014W        W89958   1.287  38.857  14.461
26015W        W89959  20.601  34.113  11.408
26016W        W89960  38.356  13.169   1.274
26017W        W89961  19.247   8.183   2.315
26018W        W89962  31.977  24.087  12.845
26019W        W89963  16.154  32.563  13.370
26020W        W89964  21.184   2.391  10.447
26021W        W89965  28.185  29.070   4.717
26022W        W89966  43.377  39.503   3.704
26023W        W89967  14.752  11.821  13.408
26024W        W89968  36.041  25.078  12.566
26025W        W89969  11.698   3.318  12.039
26026W        W89970  40.309  43.914  14.326
26027W        W89971  28.074  20.188  14.760
26028W        W89972  30.127   4.710  12.968
26029W        W89973  30.565   0.425   4.636
26030W        W89974  24.018  39.842   0.368
26031W        W89975  33.432  31.626  13.913
26032W        W89976  13.276  18.631  13.375
26033W        W89977  31.136  39.480  11.375
26034W        W89978   6.312  21.109   3.296
26035W        W89979  44.931  19.095  10.478
26036W        W89980   3.911  42.452   3.838
26037W        W89981  19.157   7.284  10.522
26038W        W89982  19.743   0.799  12.491
26039W        W89983  14.708  28.573   2.873
26040W        W89984  25.131  19.047   4.779
26041W        W89985  36.507   9.821  14.877
26042W        W89986  11.672  39.436  13.909
26043W        W89987  22.557  34.458   4.761
26044W        W89988  30.993   7.873   4.258
26045W        W89989  16.232  38.857  14.849
26046W        W89990  16.588  37.858   2.238
26047W        W89991  16.745  35.022  12.486
26048W        W89992  30.973  33.541  10.440
26049W        W89993  39.825  13.105   2.811
26050W        W89994  10.646   4.215   4.191
26051W        W89995  40.327   9.332   0.873
26052W        W89996   6.290  18.138  12.524
26053W        W89997  43.357   2.421   4.660
26054W        W89998   3.263   1.369  12.571
26055W        W89999   1.307  17.185   3.230
26056W        W90000  22.539  15.628   0.870
26057W        W90001  32.996   1.793   4.749
26058W        W90002  28.938  37.988   4.240
26059W        W90003   8.785  13.674   2.890
26060W        W90004  11.655  42.356   3.672
26061W        W90005   2.726   5.291  14.884
26062W        W90006   3.792  12.124  13.048
26063W        W90007  25.573  13.645   4.597
26064W        W90008  17.800   9.813  13.486
26065W        W90009  22.184  25.213   4.232
26066W        W90010  43.954  36.924   3.295
26067W        W90011  44.284  25.214  11.064
26068W        W90012  16.707  36.407  10.919
26069W        W90013   4.259  40.512  10.892
26070W        W90014  30.648  24.119   0.744
26071W        W90015  43.279  25.049   2.210
26072W        W90016   0.976  40.840   0.791
26073W        W90017  35.930  41.807  11.103
26074W        W90018   1.268  17.240   0.252
26075W        W90019   8.188  38.992  10.962
26076W        W90020  23.102  10.281   0.266
26077W        W90021  19.580   7.875   1.816
26078W        W90022  44.931   5.282   1.877
26079W        W90023   2.773   4.900   1.913
26080W        W90024  15.186  44.865   4.606
26081W        W90025  38.404  33.433  10.484
26082W        W90026  31.606  33.614  12.549
26083W        W90027  36.441  29.530  13.794
26084W        W90028   4.768  43.491   1.250
26085W        W90029  42.865  11.372   4.770
26086W        W90030   0.879  40.973   1.254
26087W        W90031  16.237  44.988  14.881
26088W        W90032  42.307  38.852  11.426
26089W        W90033  30.562   7.771   4.829
26090W        W90034  22.164  23.736   4.819
26091W        W90035  35.419  36.576   1.241
26092W        W90036  15.273   2.805   1.416
26093W        W90037  26.157   9.153   4.708
26094W        W90038   5.867  16.781  11.583
26095W        W90039  39.433  14.340   0.322
26096W        W90040  32.132   8.250   1.814
26097W        W90041   9.839  26.179  12.948
26098W        W90042  37.023  38.879   4.811
26099W        W90043  28.467  26.985  13.904
26100W        W90044  12.310  42.823   4.279
26101W        W90045  30.560  14.288  11.548
26102W        W90046  25.964  44.988   4.178
26103W        W90047   2.338  13.604  14.278
26104W        W90048  40.467  20.223  14.318
26105W        W90049   3.921  15.673  13.061
26106W        W90050  24.105  44.980   1.738
26107W        W90051  19.550  24.156  12.091
26108W        W90052  39.063   9.201   2.303
26109W        W90053   1.772  42.793   2.260
26110W        W90054  39.359  18.615  11.870
26111W        W90055  21.232  27.053  10.904
26112W        W90056  13.174   8.762  11.970
26113W        W90057  13.630  19.064   4.625
26114W        W90058   0.442  16.087  11.967
26115W        W90059  14.130   1.255   3.783
26116W        W90060   7.372  37.522   4.343
26117W        W90061  20.599  36.846  14.791
26118W        W90062   1.256  25.506   4.755
26119W        W90063   8.280  41.417  10.630
26120W        W90064  24.499  36.565  14.437
26121W        W90065   3.326  17.103   1.695
26122W        W90066  41.924  40.055   2.291
26123W        W90067   9.842   1.282   0.464
26124W        W90068   9.311  19.635   2.675
26125W        W90069  44.501  36.088  13.995
26126W        W90070   0.760   0.327   1.380
26127W        W90071  28.487  12.745   3.720
26128W        W90072   0.911  38.389  13.485
26129W        W90073  28.017  10.797  14.326
26130W        W90074  14.276  25.071  10.426
26131W        W90075  21.569  42.953   2.846
26132W        W90076   3.447  35.963   2.718
26133W        W90077  28.977  36.941  10.952
26134W        W90078  13.813  28.510  13.967
26135W        W90079  13.643   7.880   2.242
26136W        W90080  36.366   4.219   1.794
26137W        W90081  16.698  41.806  14.380
26138W        W90082  41.420  18.152   0.438
26139W        W90083   7.851  20.654   4.159
26140W        W90084  24.673  10.261   1.914
26141W        W90085  43.488  22.730  11.886
26142W        W90086  12.303  44.943   2.881
26143W        W90087  16.619  39.017   0.396
26144W        W90088   7.196  43.867  10.964
26145W        W90089  12.349  39.482   1.784
26146W        W90090  23.513  30.487  13.354
26147W        W90091  40.406  28.539   1.344
26148W        W90092  22.692  33.584  13.363
26149W        W90093  31.023   1.289   2.790
26150W        W90094  27.672  39.057  10.463
26151W        W90095  17.156  26.025   4.236
26152W        W90096  11.858   2.377   5.286
26153W        W90097  10.245  31.924   5.129
26154W        W90098  23.067   6.274  14.758
26155W        W90099   9.781  18.555   2.247
26156W        W90100  10.276  27.145   1.443
26157W        W90101  18.174  12.304   1.926
26158W        W90102  28.016  23.083   0.356
26159W        W90103  31.024  37.938  14.863
26160W        W90104  39.538  25.542   4.739
26161W        W90105  29.962  26.009   3.251
26162W        W90106  24.704   3.835   1.345
26163W        W90107  24.179  16.640   2.817
26164W        W90108  11.255  36.986   1.823
26165W        W90109   0.270  18.059  12.962
26166W        W90110   0.743   6.320   4.304
26167W        W90111  10.685  37.503   3.764
26168W        W90112  31.057  26.159   4.303
26169W        W90113  31.416  35.525   2.718
26170W        W90114  16.793  40.898  11.978
26171W        W90115  41.488  23.573   3.198
26172W        W90116   9.654  18.746  12.895
26173W        W90117  26.988   2.773   4.654
26174W        W90118  11.648  40.352   4.131
26175W        W90119  37.401   8.745  10.446
26176W        W90120   9.306  31.929   0.262
26177W        W90121  20.730  15.660  10.156
26178W        W90122  22.241  35.410  10.635
26179W        W90123   3.718  28.501  10.507
26180W        W90124  21.098   6.903   3.648
26181W        W90125  17.785  43.965   2.221
26182W        W90126  21.042   9.832  13.492
26183W        W90127  41.472  39.370  11.921
26184W        W90128  23.010   5.267   1.775
26185W        W90129  10.869  32.529   2.844
26186W        W90130  10.831  16.675  12.514
26187W        W90131   8.742  24.652  12.072
26188W        W90132   8.900   9.716   2.876
26189W        W90133  33.894  20.706   0.781
26190W        W90134   9.205   6.250   3.360
26191W        W90135  23.594  18.739  13.063
26192W        W90136  33.465   1.267   2.675
26193W        W90137  25.666   2.393  10.939
26194W        W90138   9.194  30.480   0.727
26195W        W90139  32.391  10.877   4.169
26196W        W90140  32.978  33.517   1.923
26197W        W90141  18.777  38.857  12.894
26198W        W90142  28.145   5.353   9.981
26199W        W90143  34.393  22.110  13.408
26200W        W90144  43.409   0.344  11.038
26201W        W90145  21.092   0.931   3.195
26202W        W90146   3.387  18.768   3.189
26203W        W90147   5.893  37.854  14.877
26204W        W90148  11.344  13.708   1.243
26205W        W90149  40.469  33.074  11.968
26206W        W90150   1.258   8.810   1.371
26207W        W90151  18.188  12.689  13.848
26208W        W90152  36.456  39.500   3.685
26209W        W90153  19.778  34.401  14.866
26210W        W90154  19.215   1.449  11.943
26211W        W90155  14.644  27.468  12.864
26212W        W90156   3.737  35.022  14.897
26213W        W90157  44.958   9.375  13.368
26214W        W90158  34.868  25.066   4.644
26215W        W90159  16.757   6.879   4.262
26216W        W90160   2.416  18.119  12.963
26217W        W90161  23.118  33.391   1.918
26218W        W90162  30.630  44.758  10.407
26219W        W90163   1.740   6.388   1.696
26220W        W90164  23.073  39.850   4.752
26221W        W90165  25.111  29.120   1.856
26222W        W90166  39.475   3.778  11.051
26223W        W90167   8.272  42.956   3.231
26224W        W90168  16.585  40.015  14.765
26225W        W90169  24.612  33.129   3.379
26226W        W90170  20.110  31.012  10.513
26227W        W90171  11.292   0.869  13.934
26228W        W90172  39.945  26.006   1.383
26229W        W90173  10.644  21.742   0.432
26230W        W90174   0.475  32.998   0.276
26231W        W90175   8.731  23.027   3.699
26232W        W90176  18.085  26.669   1.897
26233W        W90177   8.743   5.332   2.759
26234W        W90178   4.738  10.176   3.658
26235W        W90179  13.706  44.964  11.552
26236W        W90180  40.336  41.019   3.248
26237W        W90181  41.933  40.925  10.988
26238W        W90182  18.587  33.899  14.443
26239W        W90183  18.274  37.062  14.292
26240W        W90184  31.427   8.252  14.397
26241W        W90185  23.068   2.892  11.002
26242W        W90186  26.175  13.220  13.319
26243W        W90187   2.796  19.067  12.431
26244W        W90188  40.344   2.858  10.986
26245W        W90189  35.098   0.344   2.291
26246W        W90190  34.532  34.042  12.885
26247W        W90191  20.083  16.615   4.180
26248W        W90192   4.355  16.597  14.443
26249W        W90193   1.402  23.571  14.926
26250W        W90194  34.916  31.462  11.376
26251W        W90195  10.274  25.039  14.395
26252W        W90196   9.358  28.182  12.846
26253W        W90197  28.626  42.509   5.249
26254W        W90198  15.725  25.086  11.542
26255W        W90199   4.349  24.496  12.003
26256W        W90200  20.719  28.143  11.065
26257W        W90201  30.922  36.001   4.146
26258W        W90202  41.507  42.367  12.867
26259W        W90203  30.534  17.568   4.200
26260W        W90204  17.747  41.932   1.292
26261W        W90205   2.467  12.854  14.282
26262W        W90206  36.939  23.091  14.025
26263W        W90207   9.376  18.585   3.671
26264W        W90208  17.185  17.680   1.846
26265W        W90209   2.922  35.375  12.481
26266W        W90210  19.661  33.554  10.562
26267W        W90211  39.969   0.262   0.784
26268W        W90212   6.287  30.134  10.033
26269W        W90213  10.844  24.537   0.773
26270W        W90214  25.189  22.118  14.817
26271W        W90215  42.915   4.346  10.992
26272W        W90216  18.667   8.675  10.955
26273W        W90217   9.728  34.404  10.981
26274W        W90218   7.318  33.467   2.748
26275W        W90219   4.877   5.691   4.189
26276W        W90220  11.844   3.774  14.284
26277W        W90221  38.403   7.353   5.692
26278W        W90222   2.425  28.456  13.869
26279W        W90223  36.407  28.175   0.863
26280W        W90224   9.736  32.993   2.344
26281W        W90225   2.447  17.202   0.785
26282W        W90226   7.747  34.374  12.055
26283W        W90227  12.275   2.849   3.644
26284W        W90228  31.145  15.747  14.014
26285W        W90229  17.214  42.022   5.157
26286W        W90230  24.549  36.958   2.395
26287W        W90231  16.772   0.867   0.297
26288W        W90232  13.768   9.367   3.714
26289W        W90233  33.044   2.731   3.847
26290W        W90234  29.447  18.620   5.083
26291W        W90235   3.459   2.303  10.567
26292W        W90236   5.905  19.190   4.766
26293W        W90237  18.786  28.095   0.884
26294W        W90238  18.081  37.396  11.864
26295W        W90239  38.546   8.215  12.347
26296W        W90240  39.366   5.205  14.798
26297W        W90241   0.774  20.586  13.905
26298W        W90242  32.948   1.285  14.900
26299W        W90243  35.859  17.153  13.386
26300W        W90244  14.783  27.000   2.285
26301W        W90245  44.377  39.053   4.721
26302W        W90246  20.119  17.707  12.412
26303W        W90247  26.492  24.040  12.046
26304W        W90248   1.892  20.615  11.388
26305W        W90249   9.368   7.201   5.189
26306W        W90250  11.301  42.323   1.450
26307W        W90251  44.954  21.522   0.477
26308W        W90252  19.593  35.385   2.188
26309W        W90253   3.215  28.484  11.118
26310W        W90254  11.831  34.878   4.618
26311W        W90255  11.777  22.133  13.420
26312W        W90256  14.301   8.852   4.719
26313W        W90257  20.090  15.115  14.493
26314W        W90258  25.101  31.611   3.696
26315W        W90259  35.959   6.910  13.419
26316W        W90260  41.313   1.845   4.808
26317W        W90261  18.644  42.032  12.082
26318W        W90262  43.395  15.314   4.219
26319W        W90263  20.675  24.087  12.888
26320W        W90264  31.011  15.138  10.547
26321W        W90265  18.223  18.137   0.950
26322W        W90266  40.027  24.055   4.770
26323W        W90267  19.187   6.203   0.837
26324W        W90268   4.332   1.377  14.809
26325W        W90269  13.810  35.945   2.211
26326W        W90270  39.450   2.354  11.964
26327W        W90271  17.159  15.188  11.059
26328W        W90272   7.310   2.315  14.989
26329W        W90273  41.336   4.299   1.334
26330W        W90274  19.183  32.909  12.342
26331W        W90275   6.247  20.193   0.334
26332W        W90276   8.875  23.540  14.332
26333W        W90277   9.254  30.078   2.742
26334W        W90278  27.051   5.757  11.379
26335W        W90279  27.499  20.737  11.468
26336W        W90280   8.798  33.935  12.454
26337W        W90281  21.745  32.082  10.597
26338W        W90282  38.986   0.298   3.219
26339W        W90283   6.287  44.868  10.525
26340W        W90284  13.110  15.772  13.430
26341W        W90285  36.420  37.387  13.980
26342W        W90286  13.826   8.808   1.279
26343W        W90287  16.157   8.671  10.976
26344W        W90288  25.476  30.931  13.474
26345W        W90289   9.687  28.031   5.211
26346W        W90290  24.069  42.791  10.989
26347W        W90291  43.862  12.613   2.863
26348W        W90292  17.142  38.374  13.876
26349W        W90293  44.403  39.886   1.270
26350W        W90294  34.083  12.286  12.438
26351W        W90295  37.887  41.497  14.464
26352W        W90296  36.073  34.428   0.878
26353W        W90297  33.551  41.953   4.342
26354W        W90298   9.698  27.187   0.330
26355W        W90299   6.906  16.254  13.813
26356W        W90300  11.694   0.818  11.879
26357W        W90301  36.424  18.743  11.593
26358W        W90302  35.592  17.741  14.489
26359W        W90303   4.897   8.690  10.442
26360W        W90304  26.086  29.101  12.400
26361W        W90305  40.347  22.528   2.187
26362W        W90306  21.544  20.754   2.820
26363W        W90307  43.504   0.269  13.881
26364W        W90308  44.304  29.513   1.215
26365W        W90309   7.911   8.249  14.769
26366W        W90310  19.743   5.261  14.488
26367W        W90311  44.271   9.286   4.715
26368W        W90312  38.381   6.399  14.992
26369W        W90313  17.570   3.331   1.370
26370W        W90314  12.817  41.802  13.863
26371W        W90315  24.068  42.305   2.309
26372W        W90316  41.963  39.826   0.871
26373W        W90317  31.517  13.179   0.356
26374W        W90318  12.292  43.773  13.326
26375W        W90319   1.246  32.046  14.325
26376W        W90320  13.266  22.596  13.316
26377W        W90321  28.993  25.582  10.512
26378W        W90322   8.809  33.015   3.222
26379W        W90323  21.199   8.716  12.443
26380W        W90324  15.155   0.252  10.896
26381W        W90325  39.960  11.847   4.739
26382W        W90326  38.564  24.227   3.258
26383W        W90327  29.005   1.482  12.556
26384W        W90328  28.481   4.861  12.900
26385W        W90329  43.943  30.908  14.362
26386W        W90330   5.205  26.677   3.288
26387W        W90331  43.334  31.625  13.531
26388W        W90332  26.103   7.903   1.765
26389W        W90333   9.839  35.944   0.361
26390W        W90334  40.347   8.677  13.506
26391W        W90335  34.499  29.088  10.411
26392W        W90336  41.524  36.366   3.851
26393W        W90337  18.270  38.068  12.523
26394W        W90338  21.086   3.739  10.451
26395W        W90339  23.153   4.763   4.312
26396W        W90340  11.777  18.157  10.616
26397W        W90341  22.069  17.274  12.562
26398W        W90342  18.064  20.544  10.915
26399W        W90343  30.082   7.302  11.535
26400W        W90344   4.750   8.389   1.435
26401W        W90345  12.220   6.265   3.817
26402W        W90346  29.632  20.132  10.011
26403W        W90347  21.695  11.148  10.415
26404W        W90348  40.008  21.560   3.812
26405W        W90349   8.197   0.879   4.161
26406W        W90350  38.526   1.280   1.899
26407W        W90351  16.775  41.504  13.896
26408W        W90352  23.076  22.530   3.856
26409W        W90353  25.475   3.737  11.580
26410W        W90354  24.585  32.525  11.054
26411W        W90355  13.279   2.380   5.311
26412W        W90356  13.720  22.554  13.508
26413W        W90357  35.468  22.580  14.338
26414W        W90358  40.394  20.538   0.761
26415W        W90359  14.705   9.831   3.684
26416W        W90360  44.821  21.560  11.051
26417W        W90361  25.702  41.316  10.477
26418W        W90362  33.010  28.077   1.757
26419W        W90363  22.695  34.595  14.965
26420W        W90364  42.864   7.311  11.888
26421W        W90365  11.307   4.895   2.296
26422W        W90366  30.591  43.489   1.417
26423W        W90367  15.249  42.871   1.887
26424W        W90368   9.276  17.103   5.571
26425W        W90369  10.641   3.305   4.254
26426W        W90370  28.492   9.152   3.314
26427W        W90371  10.286   7.290  14.495
26428W        W90372  34.498   0.454  13.482
26429W        W90373   1.456  20.656   3.214
26430W        W90374  37.384  27.955  12.409
26431W        W90375  21.169  35.859  13.493
26432W        W90376  17.104   5.761   0.800
26433W        W90377   2.803  39.990  13.481
26434W        W90378  30.541   6.385  12.341
26435W        W90379  40.044  10.243   3.324
26436W        W90380  22.737  12.228  11.401
26437W        W90381  12.723  28.654  12.881
26438W        W90382  18.714  26.472  13.396
26439W        W90383  11.668  33.454   3.795
26440W        W90384  39.991   4.318   0.403
26441W        W90385  25.569   4.433  14.926
26442W        W90386  16.744   8.183   1.371
26443W        W90387  15.199  20.138  10.606
26444W        W90388   6.784   1.243   2.829
26445W        W90389   0.758  21.599   0.781
26446W        W90390  26.593  37.972  11.125
26447W        W90391  10.803  11.652  10.465
26448W        W90392  20.567  33.085   2.737
26449W        W90393  10.801  39.467   4.826
26450W        W90394   4.375  35.941  11.900
26451W        W90395  33.018  34.991   0.417
26452W        W90396  36.493   5.827  13.825
26453W        W90397   7.886  26.034   3.868
26454W        W90398  13.760  33.381  14.892
26455W        W90399  22.022  27.152   0.936
26456W        W90400  27.496  22.628   3.677
26457W        W90401  16.625   4.356   1.779
26458W        W90402  11.723  32.616   4.288
26459W        W90403  35.458  22.090   0.443
26460W        W90404  16.577  22.741   9.440
26461W        W90405   6.337  29.566   0.805
26462W        W90406  41.993   0.328   3.224
26463W        W90407  17.595  30.659  14.916
26464W        W90408  12.219  12.116  14.918
26465W        W90409   1.423  29.445  11.930
26466W        W90410  19.252  40.355  11.072
26467W        W90411  19.044   7.887  13.043
26468W        W90412  31.567  17.747   0.868
26469W        W90413  15.169  30.920  14.311
26470W        W90414   8.161   6.798  12.567
26471W        W90415   0.850   4.810   1.366
26472W        W90416  27.474  15.623  13.500
26473W        W90417   9.312  14.832  14.933
26474W        W90418  32.412  22.209  12.506
26475W        W90419   7.306  40.457   3.685
26476W        W90420   4.698   5.355  14.973
26477W        W90421  41.838  21.556   3.368
26478W        W90422  18.122   5.923   0.327
26479W        W90423   7.353  43.954  12.554
26480W        W90424   6.832  17.138  11.981
26481W        W90425   0.951  15.599   0.311
26482W        W90426  24.129   5.775   0.259
26483W        W90427  26.206  18.572  10.421
26484W        W90428  16.774   8.264  12.488
26485W        W90429  40.920  25.569  14.957
26486W        W90430  20.602  31.905   1.723
26487W        W90431   7.313   4.906   2.720
26488W        W90432  42.836  17.588  10.637
26489W        W90433  22.562  18.258  13.892
26490W        W90434  26.665  36.376  11.012
26491W        W90435   6.397  43.852   3.825
26492W        W90436   6.785   0.949   0.886
26493W        W90437  36.400  10.723   4.155
26494W        W90438  43.768   4.873   3.673
26495W        W90439  16.759  28.455   0.440
26496W        W90440  30.912  43.898   1.264
26497W        W90441  12.299   6.849  14.987
26498W        W90442  31.598  33.085   3.262
26499W        W90443  15.753  13.797   2.670
26500W        W90444  42.020  19.660  14.441
26501W        W90445   4.763  28.056  11.985
26502W        W90446  42.792  23.700   0.812
26503W        W90447  18.258  16.276  12.094
26504W        W90448  31.127  35.919   3.377
26505W        W90449  35.936  25.987  12.478
26506W        W90450  34.943  21.020  14.443
26507W        W90451  40.418  29.117   5.175
26508W        W90452  27.077  30.977   4.657
26509W        W90453  14.108  23.530   4.766
26510W        W90454  28.127  20.160  12.550
26511W        W90455   2.303   1.880   4.244
26512W        W90456   2.335  35.106  13.817
26513W        W90457  25.161  21.725  11.423
26514W        W90458  23.502  42.850   1.433
26515W        W90459  41.887  32.905   4.821
26516W        W90460  25.204  23.633  14.031
26517W        W90461  31.897  35.946  10.996
26518W        W90462  26.189  18.591  14.882
26519W        W90463  35.873  10.303   3.858
26520W        W90464  39.062  18.744  12.085
26521W        W90465  24.650  25.212   2.794
26522W        W90466   7.374  26.151  12.093
26523W        W90467  23.104  37.561  10.928
26524W        W90468   0.259  41.010   0.892
26525W        W90469  33.989  21.642   3.206
26526W        W90470   9.725  15.171  13.486
26527W        W90471  36.062  40.953  14.875
26528W        W90472  37.031  24.507   2.863
26529W        W90473  18.574   2.786  14.423
26530W        W90474  25.497  11.853  11.933
26531W        W90475  40.884  28.174  13.502
26532W        W90476  35.379  10.271   1.705
26533W        W90477  18.197  41.924  13.528
26534W        W90478   8.297  43.997   1.389
26535W        W90479   3.789  16.602  11.074
26536W        W90480   9.848  18.218  12.854
26537W        W90481  23.558   9.731   2.870
26538W        W90482  12.129  14.193   3.670
26539W        W90483  14.664  31.606  11.971
26540W        W90484  41.033   8.287   1.352
26541W        W90485  41.423  38.494   2.297
26542W        W90486  19.605  30.483   1.856
26543W        W90487  19.188  27.154   1.345
26544W        W90488  20.056  27.945   4.146
26545W        W90489   5.393  24.043  13.548
26546W        W90490  10.202  10.864   4.131
26547W        W90491  22.611   5.274   4.158
26548W        W90492  43.349  27.475   2.227
26549W        W90493   5.771  28.647  13.534
26550W        W90494  27.479  41.350  13.365
26551W        W90495  25.044   8.727   3.745
26552W        W90496   5.195  21.740  14.368
26553W        W90497  33.454  33.964   4.781
26554W        W90498  34.026  27.100  14.923
26555W        W90499  35.095   8.696  13.933
26556W        W90500   1.960  42.865  12.910
26557W        W90501   9.372  31.573   2.699
26558W        W90502  38.944  28.639  13.041
26559W        W90503   7.719   5.691   1.280
26560W        W90504  42.032   7.729  13.450
26561W        W90505  21.601   2.869   2.686
26562W        W90506   2.900  25.085   3.677
26563W        W90507  44.490  40.451   4.314
26564W        W90508  36.029  16.635   4.706
26565W        W90509  30.627  35.091  14.884
26566W        W90510  35.565  31.006  11.543
26567W        W90511   2.782  33.544  11.578
26568W        W90512  30.446   2.326   2.851
26569W        W90513  36.373  36.581  14.014
26570W        W90514  13.800  12.757  13.952
26571W        W90515  11.356  33.528   3.665
26572W        W90516  21.056   0.898   2.882
26573W        W90517   5.281  28.996  13.953
26574W        W90518  31.485   1.855   2.784
26575W        W90519  33.925  30.123   0.955
26576W        W90520  41.471  10.873   0.844
26577W        W90521  26.031   0.422   3.227
26578W        W90522  34.448  39.871  14.026
26579W        W90523   2.258  24.680  14.343
26580W        W90524   5.236  30.619  14.366
26581W        W90525  24.183   1.413   4.229
26582W        W90526  14.743  26.041   0.261
26583W        W90527  27.504  32.519   3.331
26584W        W90528  31.410  27.674  10.517
26585W        W90529   0.383  36.926   2.282
26586W        W90530  29.634   2.875   1.255
26587W        W90531  25.697   6.755   1.822
26588W        W90532  36.076  14.792   0.785
26589W        W90533  28.621  33.933   1.451
26590W        W90534  21.566   0.316   0.426
26591W        W90535  33.614  15.304  13.021
26592W        W90536  35.571  30.525  13.947
26593W        W90537   9.290   0.755   1.868
26594W        W90538  12.652  42.390  11.391
26595W        W90539  38.354  17.604  14.877
26596W        W90540  42.516   9.671   4.649
26597W        W90541  15.228  23.210  13.371
26598W        W90542  44.924   8.849   2.818
26599W        W90543  38.559  40.318   4.618
26600W        W90544  35.921  33.907  14.914
26601W        W90545   1.861  13.699   0.833
26602W        W90546  20.702  34.547   1.901
26603W        W90547  36.453  42.314   3.693
26604W        W90548   8.852  41.381   0.253
26605W        W90549  38.555  40.932  14.761
26606W        W90550  16.108  11.735   0.288
26607W        W90551  20.116   1.758   5.189
26608W        W90552  19.104  31.407   1.880
26609W        W90553  30.079  28.546  11.089
26610W        W90554  44.934  29.979  12.445
26611W        W90555  35.425  42.791  14.459
26612W        W90556  18.674   4.854   0.766
26613W        W90557  35.047  38.879   5.113
26614W        W90558  36.536  15.785  13.404
26615W        W90559  41.907  42.348   4.164
26616W        W90560  38.827  40.495  10.906
26617W        W90561  43.002  32.117   3.148
26618W        W90562  39.017   8.882   1.231
26619W        W90563  43.951   9.334   4.164
26620W        W90564  36.002  34.985   0.946
26621W        W90565  31.487   8.789   0.423
26622W        W90566  27.650  36.887  12.077
26623W        W90567  39.846  30.486  14.349
26624W        W90568  20.056  17.645   2.857
26625W        W90569  22.568  16.578   3.672
26626W        W90570  33.388  25.505   1.771
26627W        W90571  10.800  12.826   0.735
26628W        W90572  14.204  35.405   1.780
26629W        W90573  23.192  39.016   0.828
26630W        W90574  15.651  43.408   1.447
26631W        W90575  43.489   0.757  14.794
26632W        W90576  17.187   4.431  13.842
26633W        W90577   6.279  40.527   2.324
26634W        W90578  36.464   1.349   1.740
26635W        W90579  26.649   3.441   4.621
26636W        W90580   9.701  17.066   1.370
26637W        W90581   1.409  24.067   0.761
26638W        W90582   2.278  36.024  11.089
26639W        W90583  12.282  38.525   0.478
26640W        W90584  14.121   9.338   1.935
26641W        W90585  28.180  16.788  13.801
26642W        W90586  22.139  22.682   1.417
26643W        W90587  39.347  20.686  14.363
26644W        W90588  37.846  10.787   0.910
26645W        W90589  40.388  44.476  12.027
26646W        W90590  24.696  20.555  10.990
26647W        W90591   9.226  38.025   0.275
26648W        W90592  33.889  44.391   1.807
26649W        W90593  32.400  40.869  12.978
26650W        W90594   4.231  11.177   2.751
26651W        W90595   8.226  40.371   3.790
26652W        W90596  41.923  38.889   3.799
26653W        W90597   4.812  29.090   1.397
26654W        W90598  22.198  25.027  11.037
26655W        W90599  25.188  34.417  13.993
26656W        W90600   7.415  37.569   2.725
26657W        W90601  23.077  15.611   5.193
26658W        W90602  39.816  14.639  13.050
26659W        W90603  13.781  27.974   4.185
26660W        W90604  15.662   7.410   0.304
26661W        W90605  24.051   5.328   0.757
26662W        W90606   8.236  17.190  13.055
26663W        W90607  19.114  42.939  14.283
26664W        W90608  31.505  43.987   1.309
26665W        W90609  38.821   1.482   4.826
26666W        W90610  37.918  36.014  12.450
26667W        W90611   7.861  32.564   1.922
26668W        W90612  25.982  32.619  12.980
26669W        W90613  42.798  11.623  13.410
26670W        W90614   6.893  29.555  14.471
26671W        W90615  40.426  16.771  11.875
26672W        W90616  13.200  38.871  12.895
26673W        W90617  17.574  30.080   0.411
26674W        W90618  33.909  13.779   0.335
26675W        W90619  18.141   9.712   3.345
26676W        W90620  32.508  43.474  14.945
26677W        W90621  35.475  43.403   0.848
26678W        W90622  35.385  13.677  13.893
26679W        W90623  43.381   1.897  13.008
26680W        W90624  36.541  38.496   3.330
26681W        W90625  24.229  13.210   2.314
26682W        W90626  14.730  37.574   1.220
26683W        W90627  37.935  44.347   3.762
26684W        W90628   7.827  22.148  13.955
26685W        W90629  31.461  41.931   2.346
26686W        W90630  31.449   1.863   3.739
26687W        W90631  18.775  29.089   4.616
26688W        W90632   8.880  18.158  13.346
26689W        W90633  10.681  33.564  10.929
26690W        W90634  11.758  15.693  10.537
26691W        W90635  18.622  27.074   4.601
26692W        W90636  15.652   9.727   0.318
26693W        W90637  37.032  26.602   3.850
26694W        W90638   4.413  10.294  10.131
26695W        W90639  20.588  40.885   2.182
26696W        W90640  21.525  31.588  10.602
26697W        W90641  35.405  20.262   3.637
26698W        W90642  38.487  14.831  11.093
26699W        W90643   0.822  12.126   4.127
26700W        W90644  31.432  43.419   4.744
26701W        W90645  31.542  44.940   1.838
26702W        W90646   4.291  39.457   1.725
26703W        W90647  38.000  19.145   4.128
26704W        W90648  43.325  36.929  12.857
26705W        W90649  14.161   7.296  13.997
26706W        W90650  23.544  22.683  14.409
26707W        W90651   0.421  30.640   2.344
26708W        W90652  12.300  10.724   2.723
26709W        W90653  33.583   0.916   3.634
26710W        W90654   7.749  14.195   4.640
26711W        W90655  36.020   8.360   2.717
26712W        W90656  28.111  12.732   1.845
26713W        W90657   5.313  33.979   4.188
26714W        W90658  17.283  35.937  13.382
26715W        W90659  33.949  13.647  10.942
26716W        W90660  29.019   3.346  13.385
26717W        W90661  39.849  44.834  11.526
26718W        W90662   9.790  23.554  14.330
26719W        W90663  17.271  28.627   3.365
26720W        W90664  14.830  14.827   4.267
26721W        W90665   7.754   6.239  10.980
26722W        W90666   6.894  34.480  13.791
26723W        W90667  14.286   5.417   1.723
26724W        W90668  23.089  43.839   4.700
26725W        W90669  14.764  40.997  12.464
26726W        W90670  40.860  13.282  12.062
26727W        W90671   7.272  22.658   2.823
26728W        W90672  24.562  25.014  11.919
26729W        W90673  41.946  14.334   2.403
26730W        W90674   1.382  27.534  11.587
26731W        W90675  14.238   8.371  12.924
26732W        W90676  40.359   6.711   1.367
26733W        W90677  26.992  20.129  11.972
26734W        W90678  34.479  10.271  14.322
26735W        W90679  34.576  42.781   0.899
26736W        W90680   7.750   5.277   0.338
26737W        W90681  14.153  30.128   2.880
26738W        W90682   5.898  36.466  14.888
26739W        W90683  30.431  15.812   1.365
26740W        W90684  16.167  19.636   2.185
26741W        W90685   7.176  33.489   1.885
26742W        W90686  40.895  36.056  13.854
26743W        W90687   0.308   4.212  13.398
26744W        W90688  15.797  36.471  14.275
26745W        W90689  41.974  40.998  12.034
26746W        W90690  37.014  29.582   3.837
26747W        W90691   8.348   2.336   4.722
26748W        W90692   8.205  34.911   0.252
26749W        W90693   9.307  11.320   2.351
26750W        W90694  12.308   5.846   4.124
26751W        W90695  29.142  10.682  14.504
26752W        W90696   7.723   3.285   4.798
26753W        W90697   2.456  17.107   2.326
26754W        W90698  42.885  39.929  11.391
26755W        W90699   1.266   9.270  14.487
26756W        W90700  19.546  44.863  14.399
26757W        W90701  16.812  19.280  10.905
26758W        W90702  29.954  32.992  11.463
26759W        W90703  12.152  44.959   5.271
26760W        W90704  14.791  11.359   1.225
26761W        W90705  39.858  35.386   3.375
26762W        W90706  22.628  25.675  14.023
26763W        W90707   8.318  40.378  14.014
26764W        W90708  20.208  24.043   0.941
26765W        W90709  29.615  25.595   4.127
26766W        W90710  39.022  13.105   1.426
26767W        W90711  43.949  25.599  13.980
26768W        W90712  44.803   1.915  14.299
26769W        W90713  22.069   9.189  10.638
26770W        W90714  44.305  39.538  13.024
26771W        W90715  19.625  27.550  13.958
26772W        W90716  38.055  23.623   3.305
26773W        W90717  41.796   1.427   3.738
26774W        W90718  18.161  21.247   4.236
26775W        W90719  19.115  44.452  13.531
26776W        W90720  20.063  37.357   1.259
26777W        W90721   3.455  20.233   0.871
26778W        W90722  44.288  25.567  14.410
26779W        W90723  14.201  22.661  11.885
26780W        W90724  26.529  26.192   1.731
26781W        W90725  31.456  22.520   1.712
26782W        W90726  43.013  17.560  12.919
26783W        W90727  32.593  17.719  11.589
26784W        W90728  23.137  43.334   4.226
26785W        W90729  41.877  20.066  11.438
26786W        W90730  41.940   1.848   0.367
26787W        W90731   6.918   9.165  12.966
26788W        W90732  15.274   2.342   3.764
26789W        W90733  22.110  32.472  12.538
26790W        W90734   7.402  42.986   3.145
26791W        W90735   1.372   7.826   3.159
26792W        W90736  19.043  17.130  14.949
26793W        W90737   4.248  35.479  10.449
26794W        W90738   7.773  35.040   4.166
26795W        W90739   0.787  28.501   3.309
26796W        W90740  41.325  19.709   2.808
26797W        W90741  26.998  21.196   3.208
26798W        W90742   7.354  26.540  13.063
26799W        W90743  14.142   9.879  11.986
26800W        W90744  13.699  30.046  11.046
26801W        W90745  16.105  27.676   4.656
26802W        W90746  27.044  12.265  10.572
26803W        W90747  18.129   5.750  11.612
26804W        W90748   8.171   1.381  13.461
26805W        W90749  38.468  23.090  12.031
26806W        W90750  13.614   5.216   1.451
26807W        W90751   1.459  10.283  14.516
26808W        W90752  16.709  19.245   1.413
26809W        W90753  19.061  11.699  12.540
26810W        W90754   1.458  43.273   4.750
26811W        W90755   2.816  32.009  10.447
26812W        W90756  31.417  35.589   4.265
26813W        W90757  30.929  43.286   0.454
26814W        W90758   2.469  38.403  10.561
26815W        W90759   4.220  20.138  13.322
26816W        W90760  21.641  30.544  12.353
26817W        W90761   0.326  32.402   3.387
26818W        W90762  30.153  38.973   2.811
26819W        W90763  28.546  15.578  10.478
26820W        W90764  16.086  42.465   1.441
26821W        W90765  20.151  41.964   2.261
26822W        W90766  17.110  15.583   5.322
26823W        W90767  27.086  28.934   3.147
26824W        W90768  23.664   8.690  13.429
26825W        W90769   9.193  31.624  12.851
26826W        W90770  38.384   0.933   0.458
26827W        W90771  35.853  15.627   4.333
26828W        W90772  43.395  41.989   2.366
26829W        W90773  33.939  31.952  13.530
26830W        W90774  26.478  12.356  13.994
26831W        W90775  37.535  19.653   0.352
26832W        W90776  38.929  24.612  13.851
26833W        W90777   3.334  36.542   4.763
26834W        W90778  27.554  27.004  14.878
26835W        W90779  22.099  16.106   1.400
26836W        W90780  42.975   0.915  11.909
26837W        W90781  33.616  27.196  14.336
26838W        W90782  31.408   0.863   0.275
26839W        W90783  26.083  44.889  10.472
26840W        W90784  38.469  31.072   1.726
26841W        W90785  17.136   3.792   3.714
26842W        W90786  27.038  15.173   1.427
26843W        W90787  32.445   1.390   3.307
26844W        W90788  31.554  27.512  11.445
26845W        W90789  20.744  24.703   4.728
26846W        W90790  28.614  30.073   1.802
26847W        W90791  11.676  38.010  14.768
26848W        W90792  44.890  27.494   1.222
26849W        W90793  14.669  37.541  11.607
26850W        W90794  33.388  35.953  14.411
26851W        W90795  37.342   6.709  14.515
26852W        W90796   1.757  23.619   4.693
26853W        W90797  26.469  16.167   2.178
26854W        W90798  16.189  38.519  14.439
26855W        W90799  12.837   2.395   3.657
26856W        W90800  42.973  40.958  11.521
26857W        W90801  15.594   6.843   3.380
26858W        W90802   0.283   0.891  11.475
26859W        W90803  28.975   8.268   1.843
26860W        W90804  38.918  26.003   4.325
26861W        W90805  11.683  12.122  13.340
26862W        W90806   5.933  26.971  12.548
26863W        W90807   3.955  28.045  10.028
26864W        W90808  41.386   2.363  12.889
26865W        W90809  32.958  32.041  14.013
26866W        W90810  29.544  40.994  12.925
26867W        W90811  29.455  21.047  12.913
26868W        W90812  38.928  16.227  11.123
26869W        W90813   1.754  39.446   1.874
26870W        W90814   9.288  40.351   1.796
26871W        W90815  10.753  37.008   1.713
26872W        W90816  31.057  23.557   0.327
26873W        W90817  24.174   0.822   4.222
26874W        W90818  42.482  12.752  10.635
26875W        W90819  18.117  13.279  14.429
26876W        W90820   8.748  12.791   3.648
26877W        W90821   2.444  43.011  13.317
26878W        W90822  16.200  30.417  10.623
26879W        W90823  21.547   1.450   3.764
26880W        W90824  19.537   7.412   4.243
26881W        W90825  15.204  20.522  10.522
26882W        W90826  27.947   2.253   2.773
26883W        W90827   2.442  20.710   2.805
26884W        W90828  18.546  21.725  12.963
26885W        W90829  23.185  12.643  12.463
26886W        W90830   0.351  11.300  11.403
26887W        W90831   9.380   3.300  11.113
26888W        W90832  36.496  11.859  12.947
26889W        W90833  36.400  27.009   3.188
26890W        W90834   4.221  29.961  13.413
26891W        W90835   6.388  21.023   0.732
26892W        W90836  43.930  35.543  12.455
26893W        W90837  19.211   0.281   3.297
26894W        W90838  11.792  15.604   5.268
26895W        W90839  19.564  37.562  11.890
26896W        W90840  31.000  31.950  13.548
26897W        W90841  19.716  36.852  11.445
26898W        W90842  40.873  26.181  11.984
26899W        W90843  21.753   1.258   2.230
26900W        W90844  13.629  41.041  10.498
26901W        W90845  37.510  40.930  12.885
26902W        W90846  32.962   0.835   0.312
26903W        W90847   0.964  27.098   3.684
26904W        W90848   4.328   2.744  10.455
26905W        W90849   6.281   4.924  10.553
26906W        W90850  43.000   7.885   4.203
26907W        W90851  26.062  38.944  14.504
26908W        W90852  22.664   8.384   2.230
26909W        W90853  36.491  35.464   0.961
26910W        W90854  15.251  41.382  11.472
26911W        W90855  11.128  36.856  14.395
26912W        W90856  20.254  41.516  10.588
26913W        W90857  19.720  10.840   4.783
26914W        W90858  13.730  40.372  13.529
26915W        W90859  31.925  43.916   2.404
26916W        W90860   5.858  29.478  14.380
26917W        W90861   3.805  44.414  10.638
26918W        W90862  38.398   9.802  14.442
26919W        W90863  10.832  34.412  12.400
26920W        W90864   3.334  31.613  11.592
26921W        W90865  14.661  42.866  14.441
26922W        W90866   2.906   5.912   0.369
26923W        W90867  33.488  34.008  14.408
26924W        W90868  34.977  23.516   1.851
26925W        W90869   4.918  30.026   2.360
26926W        W90870  29.035  12.224  14.514
26927W        W90871  17.798  29.452  10.996
26928W        W90872  25.686  29.134   4.353
26929W        W90873  10.206  39.055   3.837
26930W        W90874  15.187  38.915  12.926
26931W        W90875   9.743  34.481   2.303
26932W        W90876  14.822  14.205  11.446
26933W        W90877  19.215  35.425   4.747
26934W        W90878  10.186  38.979   0.858
26935W        W90879  11.742  16.125   1.799
26936W        W90880  17.264  32.083  11.997
26937W        W90881  15.120   8.267  12.084
26938W        W90882   9.792   9.743   4.124
26939W        W90883  15.133   8.387  14.994
26940W        W90884  38.013  34.392   1.935
26941W        W90885  24.538  33.062  14.919
26942W        W90886  41.900  38.845   3.229
26943W        W90887  16.772  18.687   3.834
26944W        W90888  22.682  28.106   4.309
26945W        W90889  35.574  25.113   3.787
26946W        W90890  27.578  31.635   0.779
26947W        W90891  43.769  14.307  13.809
26948W        W90892  16.313  30.988  13.897
26949W        W90893  28.662  12.221  12.429
26950W        W90894  14.327  34.931   3.774
26951W        W90895   2.242  40.990  11.920
26952W        W90896  37.418  36.947   4.639
26953W        W90897  42.859  15.258   1.340
26954W        W90898   5.905  26.470  10.984
26955W        W90899   9.738  37.496   4.671
26956W        W90900   4.428  13.705  13.411
26957W        W90901  40.437   2.936  11.455
26958W        W90902   6.383  28.019  10.055
26959W        W90903  28.937  36.521   4.633
26960W        W90904  37.474  23.712  11.989
26961W        W90905  20.609   6.818  12.879
26962W        W90906  27.179  36.064   2.778
26963W        W90907  44.767  41.906  10.589
26964W        W90908   8.249  11.248  14.506
26965W        W90909  42.313  22.629  10.433
26966W        W90910  38.517  39.524  12.401
26967W        W90911  22.039  28.630   4.286
26968W        W90912   2.280  33.531  14.930
26969W        W90913  30.597  28.578   1.911
26970W        W90914  31.120  42.941  13.320
26971W        W90915  21.144   7.313   0.770
26972W        W90916  19.677  18.682  14.926
26973W        W90917  34.058  28.650  14.476
26974W        W90918  28.017  18.577  11.374
26975W        W90919  22.575  22.712   3.274
26976W        W90920  12.845   6.294  12.986
26977W        W90921   9.240  29.919  14.949
26978W        W90922  34.614  21.526  14.803
26979W        W90923  37.515  24.639  11.036
26980W        W90924  34.564  21.658   3.724
26981W        W90925  26.152  33.415   4.252
26982W        W90926  42.302  17.176   1.866
26983W        W90927  10.346  22.097   4.771
26984W        W90928  35.860  18.258   4.837
26985W        W90929  17.638  29.441   3.272
26986W        W90930   8.807  36.561   3.793
26987W        W90931  33.001  27.981   0.338
26988W        W90932  23.626   1.270   0.284
26989W        W90933   2.263  11.696  10.895
26990W        W90934  30.499  30.507  12.951
26991W        W90935  32.417   0.809  11.017
26992W        W90936  43.932  41.356   4.155
26993W        W90937  36.383   6.737   0.339
26994W        W90938   2.773  24.655  12.447
26995W        W90939  11.784  31.913  11.991
26996W        W90940  15.653  34.107   4.250
26997W        W90941   9.844  10.138  13.040
26998W        W90942  32.901  32.548   2.702
26999W        W90943   0.793  21.611   2.411
27000W        W90944  22.211  19.692  11.063
27001W        W90945   1.351   9.221  12.868
27002W        W90946  18.754   4.943  12.390
27003W        W90947  24.036   3.891  10.612
27004W        W90948  31.943  18.274   0.324
27005W        W90949   1.482  28.035  10.544
27006W        W90950  44.307  42.496   0.368
27007W        W90951  44.916  19.644   2.350
27008W        W90952   4.906   0.988   3.630
27009W        W90953  38.327  29.522  12.373
27010W        W90954  38.953   4.918  13.337
27011W        W90955   4.249  40.857   2.202
27012W        W90956  43.925  21.516   0.359
27013W        W90957   4.868  34.085   1.915
27014W        W90958  31.511   7.896   4.786
27015W        W90959  32.607  23.580  10.587
27016W        W90960  24.039  30.144  11.386
27017W        W90961  21.030  30.971  13.962
27018W        W90962   8.281  28.033  13.523
27019W        W90963  23.605  21.722   4.279
27020W        W90964  33.453  15.705   1.763
27021W        W90965   0.950  29.454   1.414
27022W        W90966   3.432   5.256   4.656
27023W        W90967  18.611   1.877  11.992
27024W        W90968  21.538  41.521  10.110
27025W        W90969  41.869   7.272   2.858
27026W        W90970  38.906  33.024  10.083
27027W        W90971   1.868  23.102   1.437
27028W        W90972  24.527   5.860   1.725
27029W        W90973   7.846  38.005  13.988
27030W        W90974  43.380  33.971   0.425
27031W        W90975  32.563   3.245  13.518
27032W        W90976  18.089  17.619  12.956
27033W        W90977  40.502  13.275  13.022
27034W        W90978   8.856  17.157  13.835
27035W        W90979  44.320  39.441  13.868
27036W        W90980  31.001  43.841   0.842
27037W        W90981  37.549   3.919  14.018
27038W        W90982  40.439   7.715  12.959
27039W        W90983  23.666  21.062  13.415
27040W        W90984  18.094  40.387   0.446
27041W        W90985  27.660  44.461   0.264
27042W        W90986  33.979  27.582  14.373
27043W        W90987   0.449  23.691  11.125
27044W        W90988  32.439   2.230   0.894
27045W        W90989  20.567  18.141   2.182
27046W        W90990  42.493  27.098  11.405
27047W        W90991   8.739  12.835   4.272
27048W        W90992   2.336  23.101   4.622
27049W        W90993   8.723  13.738   4.676
27050W        W90994  21.060   5.247   1.780
27051W        W90995  14.283  38.867   4.301
27052W        W90996  31.036  37.972   0.330
27053W        W90997  37.488  16.196   0.868
27054W        W90998  13.171  37.444  10.411
27055W        W90999  36.482  20.171   4.174
27056W        W91000  27.645  33.122  11.097
27057W        W91001  24.082   7.211  11.488
27058W        W91002  18.124  38.467  11.600
27059W        W91003  10.660  16.623   3.732
27060W        W91004  42.964  32.591  13.974
27061W        W91005  23.106  15.219  12.044
27062W        W91006  31.141  34.075   4.776
27063W        W91007  36.964   2.827  14.415
27064W        W91008  16.181   3.881  13.807
27065W        W91009  27.064  40.937  13.349
27066W        W91010  14.278   9.236  10.416
27067W        W91011  35.910   2.447  10.639
27068W        W91012  13.215  19.631  13.461
27069W        W91013  43.440  10.173  10.009
27070W        W91014  43.824   8.705   0.340
27071W        W91015  40.826  30.569   1.917
27072W        W91016   2.262  19.564   3.282
27073W        W91017   6.858  31.076   0.396
27074W        W91018  26.155   1.854   3.829
27075W        W91019  10.145  40.446  13.965
27076W        W91020  44.418   1.475   0.854
27077W        W91021  26.486  27.581   3.165
27078W        W91022  31.423   6.271   2.662
27079W        W91023  12.151   8.657   3.838
27080W        W91024   2.455  38.075  13.426
27081W        W91025  26.659  28.597   2.725
27082W        W91026   4.312   8.403  11.979
27083W        W91027  18.741  37.516  10.503
27084W        W91028  14.311  44.974   0.773
27085W        W91029  16.708  26.665  14.361
27086W        W91030  28.002  10.295   1.832
27087W        W91031  40.991   1.430   1.256
27088W        W91032  10.744  37.057  14.859
27089W        W91033  21.676  32.620   2.745
27090W        W91034  22.584   6.392   5.182
27091W        W91035   7.256  39.434  13.002
27092W        W91036  12.222  26.656   1.406
27093W        W91037  17.556  14.709  11.448
27094W        W91038  39.537  37.513  13.333
27095W        W91039  15.649  41.897  13.033
27096W        W91040  32.037  34.553  10.607
27097W        W91041   8.893   5.810  12.522
27098W        W91042  25.148  33.090  11.872
27099W        W91043  25.567  31.414   4.721
27100W        W91044  41.488  32.046   0.933
27101W        W91045   7.863  43.405  14.465
27102W        W91046  25.096  43.982  10.585
27103W        W91047  32.054  41.385   1.919
27104W        W91048  36.378   4.450  11.611
27105W        W91049  16.289  29.128   4.751
27106W        W91050  33.473  20.550   2.246
27107W        W91051  15.085  42.007   4.344
27108W        W91052  37.562  40.368   2.833
27109W        W91053   7.873  35.041  11.437
27110W        W91054  23.196   3.370  11.550
27111W        W91055  30.957  34.886  10.411
27112W        W91056  35.907  22.056   4.695
27113W        W91057  19.727  33.908   1.325
27114W        W91058  25.129   7.733  14.878
27115W        W91059  12.293  12.148   2.789
27116W        W91060   7.351  34.876   0.341
27117W        W91061  33.959  30.017  13.459
27118W        W91062  35.515  29.522   2.690
27119W        W91063  42.368  23.637   4.651
27120W        W91064   2.839   0.383  12.060
27121W        W91065  29.480  40.459   2.709
27122W        W91066   8.287  28.564  14.840
27123W        W91067   3.874  14.317  14.913
27124W        W91068  38.053  33.076  11.935
27125W        W91069  43.879   5.289   0.881
27126W        W91070  36.372  34.894  12.891
27127W        W91071  40.417   1.428   0.766
27128W        W91072  27.562  20.609   4.621
27129W        W91073   1.839   3.313  13.939
27130W        W91074  26.642  17.578   2.867
27131W        W91075   7.381   3.260  14.799
27132W        W91076   0.396  35.401   4.730
27133W        W91077  34.530   8.680  12.029
27134W        W91078   0.898  15.142   0.412
27135W        W91079  21.070  34.597  14.864
27136W        W91080  10.677  37.881  14.882
27137W        W91081  35.038  39.529  13.052
27138W        W91082   5.431  10.758   2.897
27139W        W91083  14.761  40.829  10.472
27140W        W91084  40.440  43.809  13.902
27141W        W91085  38.933  24.173  14.016
27142W        W91086  38.053  23.990   2.729
27143W        W91087   1.344  22.731  10.623
27144W        W91088  37.041   8.775   0.263
27145W        W91089  23.590  24.023  13.470
27146W        W91090  18.738   6.829  10.902
27147W        W91091  32.048  22.195  12.540
27148W        W91092  21.137   0.375  14.778
27149W        W91093  38.032  24.650  10.518
27150W        W91094  19.096  34.526  10.983
27151W        W91095  44.309  20.106   3.201
27152W        W91096  43.353  32.027  10.415
27153W        W91097   3.899  17.303   4.732
27154W        W91098  18.760  27.497   0.353
27155W        W91099  39.839  21.661  12.025
27156W        W91100   5.415  31.606   1.766
27157W        W91101  15.652   8.676   4.352
27158W        W91102  27.079  26.684   5.233
27159W        W91103  19.140   9.854  10.889
27160W        W91104  26.565  44.783   1.864
27161W        W91105  44.292  10.242   0.362
27162W        W91106   4.831   0.413   4.645
27163W        W91107  18.181  26.181  11.490
27164W        W91108  31.458   0.351   1.856
27165W        W91109  27.533   1.956   0.423
27166W        W91110  32.454  24.700  10.588
27167W        W91111  27.517  30.916   2.320
27168W        W91112   1.818  12.293  14.792
27169W        W91113   4.801  41.376  11.519
27170W        W91114  15.751  35.427  12.398
27171W        W91115  39.836  15.655  10.459
27172W        W91116  34.969  13.142  11.579
27173W        W91117   0.984  31.980   3.853
27174W        W91118   6.915  31.530   0.896
27175W        W91119  34.614  29.997   1.915
27176W        W91120  32.438  20.171   2.733
27177W        W91121  24.211  24.634  14.936
27178W        W91122  39.402  25.544   1.807
27179W        W91123  21.656   6.245  10.634
27180W        W91124   0.346  11.794  14.496
27181W        W91125  38.531   0.416   1.848
27182W        W91126  40.304  33.458   1.804
27183W        W91127  20.117  30.982   1.386
27184W        W91128  25.218  25.554   0.269
27185W        W91129  29.994  21.233  12.573
27186W        W91130  33.393  37.503  13.400
27187W        W91131   6.253  34.983   3.726
27188W        W91132  38.901   9.335  12.538
27189W        W91133  21.102  30.908  14.957
27190W        W91134  17.606  10.144  14.870
27191W        W91135  12.818  25.594   0.406
27192W        W91136  18.195  34.013   4.195
27193W        W91137  42.908  14.320  11.902
27194W        W91138   0.915  16.106   2.798
27195W        W91139  40.361  12.246   4.252
27196W        W91140  32.495  14.255   5.223
27197W        W91141  17.681  17.244  10.106
27198W        W91142  25.134  24.521  13.895
27199W        W91143   8.391   7.376   0.784
27200W        W91144  19.700  34.119   4.298
27201W        W91145  28.984  11.780   3.298
27202W        W91146  35.104  29.039   1.704
27203W        W91147  39.045   2.392   9.463
27204W        W91148  32.964  18.613  14.934
27205W        W91149   4.890  24.078  12.419
27206W        W91150  27.003  14.123   1.229
27207W        W91151  38.368  27.120  12.032
27208W        W91152  35.944  26.021   2.883
27209W        W91153  24.158  42.286   3.340
27210W        W91154  13.762  11.629  11.391
27211W        W91155   8.305  39.851  12.379
27212W        W91156   1.330  28.124   3.639
27213W        W91157   7.409  22.583  12.443
27214W        W91158  10.178  40.802   2.812
27215W        W91159  20.080   9.689   3.710
27216W        W91160  16.210  24.031   2.182
27217W        W91161  15.154  37.409   9.976
27218W        W91162  41.367  39.324   0.941
27219W        W91163  29.044  41.941  10.573
27220W        W91164  12.128   2.761  13.477
27221W        W91165  32.016  30.509   2.320
27222W        W91166   2.782  22.545   4.290
27223W        W91167   6.702  34.004   0.779
27224W        W91168   5.293  44.888  10.577
27225W        W91169  20.128  12.743  10.476
27226W        W91170  35.902  33.446  12.921
27227W        W91171   9.219  35.979   4.256
27228W        W91172  41.374   1.444   1.739
27229W        W91173   8.176  12.277  12.837
27230W        W91174  44.859  12.266  14.835
27231W        W91175  42.997   1.860  14.285
27232W        W91176  15.089  14.714   0.301
27233W        W91177   8.676   2.951  10.564
27234W        W91178  32.897  31.421   2.778
27235W        W91179  22.573  11.291  13.545
27236W        W91180  43.765  26.156  13.044
27237W        W91181  28.599  19.646   3.857
27238W        W91182   5.834  28.043   1.884
27239W        W91183  43.460  33.933  12.491
27240W        W91184   6.404  30.966  11.119
27241W        W91185  15.646  41.424   1.368
27242W        W91186  40.881  44.882   2.740
27243W        W91187  23.706  39.905  14.383
27244W        W91188  20.253   7.349   1.307
27245W        W91189  12.158  16.782  12.062
27246W        W91190  25.623  21.513   3.296
27247W        W91191  14.179  19.686   0.421
27248W        W91192  38.352  39.396  11.077
27249W        W91193  24.989   9.879  11.375
27250W        W91194   1.927   8.667   3.849
27251W        W91195   3.425   8.178   2.368
27252W        W91196  14.222   3.418   3.377
27253W        W91197  22.147  20.694   3.796
27254W        W91198  13.206   6.222   2.874
27255W        W91199   4.441  18.115  14.505
27256W        W91200   5.279  36.892  11.542
27257W        W91201  40.941  38.472   0.481
27258W        W91202  26.479   6.210   3.187
27259W        W91203  20.711   4.914  11.954
27260W        W91204  29.173  32.095  13.941
27261W        W91205  20.265   4.754   4.270
27262W        W91206  11.145  44.843   2.364
27263W        W91207  41.406  22.594   2.321
27264W        W91208  21.162  31.401   1.933
27265W        W91209  37.880  42.963   1.930
27266W        W91210  40.964   6.705   2.781
27267W        W91211  36.892  35.457   0.918
27268W        W91212  27.092  19.239   3.757
27269W        W91213  27.194  20.570   3.677
27270W        W91214  44.464   7.887   2.864
27271W        W91215   4.872  31.143  12.498
27272W        W91216  23.585   9.776   0.862
27273W        W91217   2.839  15.277   0.452
27274W        W91218  10.175   7.318   1.694
27275W        W91219  15.604  28.590   1.298
27276W        W91220  26.547  29.588   0.747
27277W        W91221  27.086  36.961   1.370
27278W        W91222  41.938  23.695  13.979
27279W        W91223  31.910  14.152  11.063
27280W        W91224  30.558  35.949  10.955
27281W        W91225  13.832  30.633  10.430
27282W        W91226  38.877   1.417   0.843
27283W        W91227  13.618  31.935   5.180
27284W        W91228  20.046  32.533   2.361
27285W        W91229  24.510   5.709  10.953
27286W        W91230  13.717  25.602   2.767
27287W        W91231   8.882  15.678  14.335
27288W        W91232  22.163  36.917  13.810
27289W        W91233  23.696  38.448   4.646
27290W        W91234   0.273  39.006  12.371
27291W        W91235  18.639  25.586  11.392
27292W        W91236   1.796  40.835  10.460
27293W        W91237  10.777  32.580   1.376
27294W        W91238  25.098  44.475   5.221
27295W        W91239  11.665  26.594   9.921
27296W        W91240  17.700   1.375   0.860
27297W        W91241  40.523  40.532   5.207
27298W        W91242  32.077   6.249   3.757
27299W        W91243  40.350  27.078  11.555
27300W        W91244   1.357   5.231   5.297
27301W        W91245  22.577  18.573  12.997
27302W        W91246  31.483  27.448   3.235
27303W        W91247   2.469  10.192  12.375
27304W        W91248   0.295  41.328   0.435
27305W        W91249  23.575  28.441  13.064
27306W        W91250   7.695  28.458   1.817
27307W        W91251   9.843  29.971  14.302
27308W        W91252  29.947  16.255  14.929
27309W        W91253  29.519  32.564  11.412
27310W        W91254   3.929   1.895   2.896
27311W        W91255   0.863  31.572  13.830
27312W        W91256  44.995  10.201  13.908
27313W        W91257  12.242  44.957   0.765
27314W        W91258  14.714  30.076  11.932
27315W        W91259  31.003   7.360   0.458
27316W        W91260  30.111   8.296   1.710
27317W        W91261  26.138  24.499   3.857
27318W        W91262  38.455  24.075  11.858
27319W        W91263  36.917   6.200  12.500
27320W        W91264   2.244   3.777   2.192
27321W        W91265   2.426   2.753   2.413
27322W        W91266  20.619   9.751  11.466
27323W        W91267  20.184  14.294   0.441
27324W        W91268   9.681  15.083   0.385
27325W        W91269  19.190  33.967  14.356
27326W        W91270  28.072  22.512   1.909
27327W        W91271  33.475   1.880  14.839
27328W        W91272  16.300  22.519  13.988
27329W        W91273  16.807  18.612   1.303
27330W        W91274   6.721   3.326  11.908
27331W        W91275  36.076  40.500   0.357
27332W        W91276  27.458   2.889  10.948
27333W        W91277  21.705  38.413   1.260
27334W        W91278   4.728   8.693  11.057
27335W        W91279   0.808  15.174   4.290
27336W        W91280  41.295  17.621  13.517
27337W        W91281  35.854   4.727   2.316
27338W        W91282  40.928  14.207   2.750
27339W        W91283  11.727  28.943  11.478
27340W        W91284  29.630  13.747   1.792
27341W        W91285  10.253  11.734   4.203
27342W        W91286  13.195   8.275  12.347
27343W        W91287  35.914  42.409   1.795
27344W        W91288   2.939   8.795  13.986
27345W        W91289  42.527  34.515  10.610
27346W        W91290  16.588  34.949   0.452
27347W        W91291  44.505  32.452  13.363
27348W        W91292   1.969  31.454  11.870
27349W        W91293   5.196   9.325  11.990
27350W        W91294  37.064  33.936  11.998
27351W        W91295  24.115   1.969   3.688
27352W        W91296  22.155  22.126   1.250
27353W        W91297  18.292  11.156  10.560
27354W        W91298  24.481  40.867   1.893
27355W        W91299  20.104  23.703   0.928
27356W        W91300  18.773  25.696  12.408
27357W        W91301  27.057  17.275   2.661
27358W        W91302  14.712  42.873  11.097
27359W        W91303  36.890   1.915  10.498
27360W        W91304  44.280  25.988  11.032
27361W        W91305  15.233  17.731   4.157
27362W        W91306  11.367  14.206   1.372
27363W        W91307  30.908  42.820   2.811
27364W        W91308  14.670  21.166   0.393
27365W        W91309   5.739  31.144   3.181
27366W        W91310   9.205   5.393   1.304
27367W        W91311   0.367   0.875   4.665
27368W        W91312   1.836  28.516  14.952
27369W        W91313   2.300  30.136   3.238
27370W        W91314  36.466  23.120   1.359
27371W        W91315  28.070   0.427  11.396
27372W        W91316   3.366  23.639   3.296
27373W        W91317  37.047  10.281   4.211
27374W        W91318  23.006  20.636  10.414
27375W        W91319   5.775  42.903   2.833
27376W        W91320  36.474   6.900  14.947
27377W        W91321  15.213   2.295   0.450
27378W        W91322   9.370  14.633  12.025
27379W        W91323   2.393  14.600   2.671
27380W        W91324  14.790  24.702  12.872
27381W        W91325  43.409   8.665   5.140
27382W        W91326  24.012   3.271   0.285
27383W        W91327  18.148  15.295  10.900
27384W        W91328  38.868   2.831   0.891
27385W        W91329   6.422  41.309   9.979
27386W        W91330  39.052  12.849   2.196
27387W        W91331  38.920  22.027   4.638
27388W        W91332  24.132  13.683   0.736
27389W        W91333  26.200  15.101  13.310
27390W        W91334  14.821  33.604   0.480
27391W        W91335  32.910   4.739   4.264
27392W        W91336  16.782  39.533  12.081
27393W        W91337   5.343  38.863  10.942
27394W        W91338  13.211  22.112   4.138
27395W        W91339  21.612  40.867  11.604
27396W        W91340  43.440   6.372   2.301
27397W        W91341  32.052  12.139   0.255
27398W        W91342  35.528   8.244   1.812
27399W        W91343   8.301  38.016  14.317
27400W        W91344  23.692   8.322   2.344
27401W        W91345  36.922   4.776  12.459
27402W        W91346  37.080  15.125   3.270
27403W        W91347  38.509   6.847  12.546
27404W        W91348  31.071  29.570   2.354
27405W        W91349   0.927  23.603  10.607
27406W        W91350   3.308  20.686  10.461
27407W        W91351  36.576  19.568   3.786
27408W        W91352  30.987  24.498   2.674
27409W        W91353  29.121  16.116  12.430
27410W        W91354  40.510  25.100   0.296
27411W        W91355   4.871   7.775  11.596
27412W        W91356  22.653  33.910  14.333
27413W        W91357  35.425  23.215  12.989
27414W        W91358  18.264  37.060   3.704
27415W        W91359  19.263  29.651  11.411
27416W        W91360  42.383   9.740  11.114
27417W        W91361  24.072  21.607  11.605
27418W        W91362  35.919  39.942   4.612
27419W        W91363   9.320   3.829  14.031
27420W        W91364  11.304  12.318  14.329
27421W        W91365  32.565  22.571   1.777
27422W        W91366  38.833  24.121  13.459
27423W        W91367   6.749  19.227   4.298
27424W        W91368  23.078  29.925   0.398
27425W        W91369  16.246   5.361   4.643
27426W        W91370  29.919   1.426  12.427
27427W        W91371  18.736   3.925  13.938
27428W        W91372   6.350  11.293   0.320
27429W        W91373   0.356   1.279  11.383
27430W        W91374  35.017  19.114  11.442
27431W        W91375  37.999  24.027   4.299
27432W        W91376  36.433  37.851   1.800
27433W        W91377  32.413  15.304   0.398
27434W        W91378  28.104  16.803  11.983
27435W        W91379  42.402  24.585  14.288
27436W        W91380  32.927  23.710   0.349
27437W        W91381  10.361   7.358   2.835
27438W        W91382  18.778  32.142  13.985
27439W        W91383  14.316  15.321   2.808
27440W        W91384   5.363   2.329   3.385
27441W        W91385  24.055   1.324   0.941
27442W        W91386  31.444  28.544  14.458
27443W        W91387  17.155  15.179   4.266
27444W        W91388  19.218  11.861   2.292
27445W        W91389  11.694  20.188  11.387
27446W        W91390  25.185  23.174  10.467
27447W        W91391  35.528  40.965   1.213
27448W        W91392   4.432  37.420  11.403
27449W        W91393  37.053  19.728  12.432
27450W        W91394  11.144  16.632  14.989
27451W        W91395  38.917  38.951  14.428
27452W        W91396   4.310  41.989  13.945
27453W        W91397   7.723  27.508   1.759
27454W        W91398   4.261   9.789   2.239
27455W        W91399  29.089  25.201   1.252
27456W        W91400   1.806  32.975   0.953
27457W        W91401   2.348  38.900  12.564
27458W        W91402  42.493  40.442  14.341
27459W        W91403  23.505   0.278  11.582
27460W        W91404  25.479  19.248   4.818
27461W        W91405   3.290  19.117   4.643
27462W        W91406   5.207  22.132   4.146
27463W        W91407  26.063  36.869   1.224
27464W        W91408  26.129  40.534  13.340
27465W        W91409  39.370   8.799   5.247
27466W        W91410  44.503  14.727  10.641
27467W        W91411   7.324  18.684   1.818
27468W        W91412   3.783  41.958   3.849
27469W        W91413  42.805  37.532   4.667
27470W        W91414  11.865  29.165  11.924
27471W        W91415  41.454  16.727  11.087
27472W        W91416  11.686  26.659  10.531
27473W        W91417  43.950  24.628  13.441
27474W        W91418   4.808  10.851   1.830
27475W        W91419   3.947   1.282   2.704
27476W        W91420  24.979  38.886  11.045
27477W        W91421   3.822  19.104  13.488
27478W        W91422  42.827  23.600   3.710
27479W        W91423   4.756   0.249   2.280
27480W        W91424  21.593  13.678  10.536
27481W        W91425   3.749  30.032   1.720
27482W        W91426  22.034  39.040  14.850
27483W        W91427  29.095  19.777   3.147
27484W        W91428  28.599   0.371   1.432
27485W        W91429  10.240  42.845  13.016
27486W        W91430  14.659  35.974  13.839
27487W        W91431  14.747  43.282   0.944
27488W        W91432   5.319  42.883   3.764
27489W        W91433  33.102  33.020  13.425
27490W        W91434   2.948  29.544  14.943
27491W        W91435  27.640  39.897   1.695
27492W        W91436  17.117  38.072  12.345
27493W        W91437  17.252  33.916   1.381
27494W        W91438  12.852  15.686  11.989
27495W        W91439  34.559  41.425  14.506
27496W        W91440  42.802  16.637   2.705
27497W        W91441  43.506   1.407  10.520
27498W        W91442  19.188  20.028   0.425
27499W        W91443   8.695  39.985   0.916
27500W        W91444   7.339  42.463  12.438
27501W        W91445  31.501  29.083   3.806
27502W        W91446  11.333   5.902  11.581
27503W        W91447  18.752  35.099  14.292
27504W        W91448  15.310  15.588  10.949
27505W        W91449  18.661   1.339   3.676
27506W        W91450  14.115   0.802  11.439
27507W        W91451  23.145  12.339   4.190
27508W        W91452  31.406   2.446  14.345
27509W        W91453   5.406   8.689   0.773
27510W        W91454   8.734   0.249   4.333
27511W        W91455  29.055  30.642  12.432
27512W        W91456   1.456  25.125   1.820
27513W        W91457  21.196   2.933  11.964
27514W        W91458  32.419  22.070  10.488
27515W        W91459  36.916  16.588   1.720
27516W        W91460  16.173  21.539  14.329
27517W        W91461  19.540  23.651   4.302
27518W        W91462   4.224  22.022  12.341
27519W        W91463  36.355   4.702   4.807
27520W        W91464  39.917  11.835   3.379
27521W        W91465   8.374  15.102   4.832
27522W        W91466  25.002  39.980   1.720
27523W        W91467   5.735  26.531  14.464
27524W        W91468   0.970  24.000  14.482
27525W        W91469  10.228  44.957  11.867
27526W        W91470   4.763  28.011  13.032
27527W        W91471  31.064  20.670  14.786
27528W        W91472  35.532  36.923   4.253
27529W        W91473   8.165  12.161  14.442
27530W        W91474   8.324  33.516  12.015
27531W        W91475  30.988  10.193  11.524
27532W        W91476   9.890  43.295   4.828
27533W        W91477   9.804  17.568  12.474
27534W        W91478  42.972  18.134  14.435
27535W        W91479  44.266  26.992  14.943
27536W        W91480   4.280   4.387  11.518
27537W        W91481  36.075  40.528  11.416
27538W        W91482   3.879  30.112  13.307
27539W        W91483  40.500   5.203  11.413
27540W        W91484  40.440  38.937   4.780
27541W        W91485  32.898  18.769   0.959
27542W        W91486  34.552   4.818   1.280
27543W        W91487  29.011  40.308   2.799
27544W        W91488   8.292  43.949   0.274
27545W        W91489  27.479  10.647   1.378
27546W        W91490  35.420   4.789   1.933
27547W        W91491  19.223   2.409   3.292
27548W        W91492  12.624   3.434   3.260
27549W        W91493  44.307  16.202  11.415
27550W        W91494  29.069  27.561   2.323
27551W        W91495  37.483  12.344   1.334
27552W        W91496  43.857  43.367   4.120
27553W        W91497  37.055   4.440   1.829
27554W        W91498  43.001   5.413  10.944
27555W        W91499  35.989  15.192   2.373
27556W        W91500  14.800  20.127   1.356
27557W        W91501  11.142  23.018   2.246
27558W        W91502  22.158  42.322   3.818
27559W        W91503  19.675   0.864   4.634
27560W        W91504  24.187   5.917   2.882
27561W        W91505  30.043  12.623  10.427
27562W        W91506  32.901  31.602  11.449
27563W        W91507  41.304  23.668  13.822
27564W        W91508   6.280  29.593  10.994
27565W        W91509  27.679  24.548  12.974
27566W        W91510  22.501  39.340   9.999
27567W        W91511   9.864  28.944   3.239
27568W        W91512  18.053  19.600  13.493
27569W        W91513  44.313  23.717   3.276
27570W        W91514  15.147   1.804   4.150
27571W        W91515   3.263  32.452   0.455
27572W        W91516  13.251  44.288  12.566
27573W        W91517  24.538  18.256   4.671
27574W        W91518  36.372   8.708  13.455
27575W        W91519   0.319  39.535  11.476
27576W        W91520  39.861  34.400  13.880
27577W        W91521  37.044  25.108  13.983
27578W        W91522  39.380   1.401  13.821
27579W        W91523  28.114  40.870   2.807
27580W        W91524  38.412  41.928   1.721
27581W        W91525   7.234  21.182  11.889
27582W        W91526  33.553  37.473   4.783
27583W        W91527  13.196  29.594   0.839
27584W        W91528  16.722  29.615  13.520
27585W        W91529   7.856  12.132   2.872
27586W        W91530  29.088  28.541   4.703
27587W        W91531  27.049   0.851   1.860
27588W        W91532  15.756  44.280   3.205
27589W        W91533  28.585   8.827  11.457
27590W        W91534  38.371  17.577  11.080
27591W        W91535  13.282  34.469   2.746
27592W        W91536  43.911  12.766   0.926
27593W        W91537  11.276   3.727  11.009
27594W        W91538  19.633   9.164  13.358
27595W        W91539  17.211  27.027   1.865
27596W        W91540  23.707  18.223   2.397
27597W        W91541  33.474  10.153  10.970
27598W        W91542   1.807   3.412   2.308
27599W        W91543  16.264  41.024   0.461
27600W        W91544   2.942  17.618   1.709
27601W        W91545   8.738  12.725   1.233
27602W        W91546   0.787  38.496  11.539
27603W        W91547  40.908   5.307  10.574
27604W        W91548  37.509  13.805  14.494
27605W        W91549  44.291  28.561  12.375
27606W        W91550  11.741  18.608  11.907
27607W        W91551  32.560   8.263   4.654
27608W        W91552  16.727  26.569   2.667
27609W        W91553  12.256  30.489   2.331
27610W        W91554  17.562   4.260   1.877
27611W        W91555  25.686  24.222   9.984
27612W        W91556  40.539   9.818   3.633
27613W        W91557  27.114  24.196  11.505
27614W        W91558   6.799  24.111  12.433
27615W        W91559  25.060  32.498  12.470
27616W        W91560   1.312  16.620   1.731
27617W        W91561  41.492  22.693   1.839
27618W        W91562  14.124   6.182   0.243
27619W        W91563  40.503  24.061  12.001
27620W        W91564  30.655  25.648   2.886
27621W        W91565  11.706  20.038  14.316
27622W        W91566  14.339  41.849  12.919
27623W        W91567   1.364  24.982  10.953
27624W        W91568   9.246  17.122  14.410
27625W        W91569  27.662  30.066   0.453
27626W        W91570  32.043  32.512  13.530
27627W        W91571  10.834  40.413  13.031
27628W        W91572   2.720   7.743  13.926
27629W        W91573  23.038  13.233   3.283
27630W        W91574  44.421  21.631   2.180
27631W        W91575   2.444   9.830  10.083
27632W        W91576  19.256   4.448   2.367
27633W        W91577   4.905   1.294   1.916
27634W        W91578  23.118  24.578   2.807
27635W        W91579  11.695  36.359   0.832
27636W        W91580  37.947  15.095   3.857
27637W        W91581   4.857  24.719   0.877
27638W        W91582  24.522   3.841  11.107
27639W        W91583  39.423   8.369  14.312
27640W        W91584  11.783  41.298  14.277
27641W        W91585  43.445  32.481  14.021
27642W        W91586   7.282  33.995  11.524
27643W        W91587  21.712  41.964   3.762
27644W        W91588  24.976  11.866   0.910
27645W        W91589   3.870  37.376  12.556
27646W        W91590   0.461  13.679  14.488
27647W        W91591  12.204  12.742   0.386
27648W        W91592  37.340   0.434  10.905
27649W        W91593   4.368  44.783   1.395
27650W        W91594  25.999  29.442  12.404
27651W        W91595  30.986  23.098   4.160
27652W        W91596  43.920  23.091  13.982
27653W        W91597  40.317  16.624  14.824
27654W        W91598   8.267  42.450  12.844
27655W        W91599  15.209  26.663  12.948
27656W        W91600  17.261  26.668  14.821
27657W        W91601  25.166  25.556   1.432
27658W        W91602   1.841   1.403   2.303
27659W        W91603   2.797   0.264   3.290
27660W        W91604  33.964  37.087  10.561
27661W        W91605  27.148  29.165   0.859
27662W        W91606  33.876  25.502  12.382
27663W        W91607  27.557  39.944  10.964
27664W        W91608  29.998  33.570  11.051
27665W        W91609  10.695  26.555  13.820
27666W        W91610  13.147  19.657  10.907
27667W        W91611  17.740   0.960  12.364
27668W        W91612  28.998  25.212   2.729
27669W        W91613  12.211  15.602   4.700
27670W        W91614  22.025  14.814   1.435
27671W        W91615  37.868  32.484  13.321
27672W        W91616  25.646   1.237   4.689
27673W        W91617  13.622   3.299   1.879
27674W        W91618  29.427  25.492  14.403
27675W        W91619   9.811  24.036   4.270
27676W        W91620   6.720  22.688   1.273
27677W        W91621  22.681   5.815   3.168
27678W        W91622  12.713   9.868   0.875
27679W        W91623  10.716   7.354   0.900
27680W        W91624   4.356  14.159   3.219
27681W        W91625  26.964   6.889  14.952
27682W        W91626  30.970  32.912   4.624
27683W        W91627  14.292  28.647   3.180
27684W        W91628   6.340  41.312   0.793
27685W        W91629  16.112  36.568   4.222
27686W        W91630  42.512  23.126  12.961
27687W        W91631  36.416   1.293   2.298
27688W        W91632   4.765   5.386   2.351
27689W        W91633  18.162  17.567   1.337
27690W        W91634  24.528  36.091   0.844
27691W        W91635  18.693  19.626   3.817
27692W        W91636  17.623  41.378   4.318
27693W        W91637  30.562  27.153  11.587
27694W        W91638  25.684  13.614   0.795
27695W        W91639  37.020  34.451  12.976
27696W        W91640  31.948  25.685  10.478
27697W        W91641  18.166  32.069  10.030
27698W        W91642  33.883   1.751   0.742
27699W        W91643  31.910  26.570   4.789
27700W        W91644  20.524  24.198  14.770
27701W        W91645  28.940  37.360  10.481
27702W        W91646  12.693  28.506   2.771
27703W        W91647  27.138   4.860  11.474
27704W        W91648   3.940  35.511   0.455
27705W        W91649  42.929  43.855  11.503
27706W        W91650  29.468  11.778  11.866
27707W        W91651  34.487  16.786  13.330
27708W        W91652  35.457  18.574   1.311
27709W        W91653  30.984  42.948   2.331
27710W        W91654  35.569  32.624  14.995
27711W        W91655  27.660  13.268  10.966
27712W        W91656   8.884  25.618   0.409
27713W        W91657  25.691  25.073  10.931
27714W        W91658  12.128  15.241  14.796
27715W        W91659   9.374  12.705  10.592
27716W        W91660  40.830   3.844  12.480
27717W        W91661   4.433  40.440  14.939
27718W        W91662   1.463  14.331  10.473
27719W        W91663  28.584  42.999  14.028
27720W        W91664  14.715  10.141   0.908
27721W        W91665   5.802   3.337  13.537
27722W        W91666  23.524   2.366   4.306
27723W        W91667  17.132  30.971  12.406
27724W        W91668  28.564  25.168  14.871
27725W        W91669  41.383  12.265  10.440
27726W        W91670  17.727  11.723  12.908
27727W        W91671  41.792  29.625   1.930
27728W        W91672  10.356  33.567  10.600
27729W        W91673   3.901  39.044   0.262
27730W        W91674  34.908  29.958  10.601
27731W        W91675   9.157  44.496  12.339
27732W        W91676  23.987  33.429   1.790
27733W        W91677  30.494   4.311  14.987
27734W        W91678   0.251  33.590  10.446
27735W        W91679   1.413   8.833   4.235
27736W        W91680  17.126  31.048  13.310
27737W        W91681  42.029  27.506   3.737
27738W        W91682  33.949  37.528   2.678
27739W        W91683  38.335   3.448  12.912
27740W        W91684  28.132   2.276   3.786
27741W        W91685  39.336  32.896  14.504
27742W        W91686  21.709  41.410  12.022
27743W        W91687  15.580   2.860   3.164
27744W        W91688  40.338  25.133  13.364
27745W        W91689  36.923  35.042   1.220
27746W        W91690   9.806  24.720   1.859
27747W        W91691  40.468  20.717   1.253
27748W        W91692   5.800  26.583   0.294
27749W        W91693  16.662  34.010   5.670
27750W        W91694  13.727  21.119   0.434
27751W        W91695  26.199  10.174  13.332
27752W        W91696   4.292  20.765   4.674
27753W        W91697   0.421  10.222  12.930
27754W        W91698  21.189  26.197  12.570
27755W        W91699   8.213  27.446   0.771
27756W        W91700   5.716  25.651   4.204
27757W        W91701   0.261   6.714   0.324
27758W        W91702  23.690   7.853   1.349
27759W        W91703  31.566  19.164  11.953
27760W        W91704   1.806  18.144  11.904
27761W        W91705  19.152   3.809  13.834
27762W        W91706  34.083  36.535  11.998
27763W        W91707   0.264  31.898  12.404
27764W        W91708  42.936  10.754   1.846
27765W        W91709  28.183  30.109  14.762
27766W        W91710   8.846  25.033  13.312
27767W        W91711  15.221  32.474   4.341
27768W        W91712  37.862  26.203  14.317
27769W        W91713   9.843   2.413   4.755
27770W        W91714  31.037  36.422  13.020
27771W        W91715  28.581  19.178   9.938
27772W        W91716  34.482  14.755  11.023
27773W        W91717   8.851  25.142  14.929
27774W        W91718   5.352   0.448  10.635
27775W        W91719  42.488  44.992  13.497
27776W        W91720  37.891  15.817  12.937
27777W        W91721   9.782   3.755   1.294
27778W        W91722   0.827  14.600  13.871
27779W        W91723  27.587  35.941   1.779
27780W        W91724  10.645  39.935   5.121
27781W        W91725  32.112  16.730   2.255
27782W        W91726  26.119  41.861  12.093
27783W        W91727  37.343   9.212  10.523
27784W        W91728  38.439   7.343  11.550
27785W        W91729  44.810  33.484   4.262
27786W        W91730  40.957  12.289   3.802
27787W        W91731  41.986   4.339  10.638
27788W        W91732  32.637  32.999   2.682
27789W        W91733   7.319  23.171   1.763
27790W        W91734  39.029  30.074  10.589
27791W        W91735  10.648  12.720  11.610
27792W        W91736  35.867  20.582   4.761
27793W        W91737   1.827  27.033   2.330
27794W        W91738  42.439  19.581  13.475
27795W        W91739  15.779  29.459  10.477
27796W        W91740  35.979  44.353   4.236
27797W        W91741  39.354  35.517  12.571
27798W        W91742  42.002  39.443  12.063
27799W        W91743   6.847  18.584   2.186
27800W        W91744  27.077  41.410  11.380
27801W        W91745   0.941  43.337  12.483
27802W        W91746   6.678  20.676  14.461
27803W        W91747  39.314  35.468   2.888
27804W        W91748   2.338  43.001   2.838
27805W        W91749  40.974  22.201   3.770
27806W        W91750   2.734  14.767   1.368
27807W        W91751  21.186  36.528   0.843
27808W        W91752  29.951  16.274  13.030
27809W        W91753  43.867   4.229  10.923
27810W        W91754   9.288  18.760   2.250
27811W        W91755  19.601  28.615   0.815
27812W        W91756  19.112  34.926   4.131
27813W        W91757  19.620  23.609   1.923
27814W        W91758  12.256   2.733  11.886
27815W        W91759   1.443  24.983   1.243
27816W        W91760  41.996   2.351  12.504
27817W        W91761  22.663  37.048  11.941
27818W        W91762  19.284  18.598  12.082
27819W        W91763  43.270   3.838  14.455
27820W        W91764  12.226  29.603  10.428
27821W        W91765  35.070  12.352  13.064
27822W        W91766   7.282  16.603   1.707
27823W        W91767  33.921   3.943   1.803
27824W        W91768  20.031  19.662  11.078
27825W        W91769   7.201   4.310  14.422
27826W        W91770  22.692  28.005   5.268
27827W        W91771  33.907  17.626  11.007
27828W        W91772   4.387  19.560   3.306
27829W        W91773  27.045   4.342   2.344
27830W        W91774  40.808  35.513   0.450
27831W        W91775   6.728  15.625  12.079
27832W        W91776  39.412  21.032  12.842
27833W        W91777  20.686  36.969   1.729
27834W        W91778   5.220   4.227   4.254
27835W        W91779   4.352  37.403   4.717
27836W        W91780  42.478  21.135  11.470
27837W        W91781  27.071  35.381  14.475
27838W        W91782  26.196  37.955  13.886
27839W        W91783  13.154  39.058   2.198
27840W        W91784   8.826   1.473   4.604
27841W        W91785  15.189  33.488   2.882
27842W        W91786  23.568  23.626   3.768
27843W        W91787  18.599   7.872   4.339
27844W        W91788  27.642  24.530  11.487
27845W        W91789   1.825  36.001   1.342
27846W        W91790   1.244  44.361  13.026
27847W        W91791  41.879  35.467   1.718
27848W        W91792  22.584  34.080  13.523
27849W        W91793  13.611  36.562  14.462
27850W        W91794  39.891  33.956   0.434
27851W        W91795   0.891  30.542   3.665
27852W        W91796   3.784  27.972   3.836
27853W        W91797  42.472  33.381  11.375
27854W        W91798  41.980  36.032   0.333
27855W        W91799  12.245  11.635  10.051
27856W        W91800  43.865  32.497  11.126
27857W        W91801  21.033  24.061  12.082
27858W        W91802  28.015   6.901   2.220
27859W        W91803  41.788  16.226   3.374
27860W        W91804  10.275  19.715  10.062
27861W        W91805  10.810  43.445  14.466
27862W        W91806   3.424   2.305  13.907
27863W        W91807  39.919   1.461  13.876
27864W        W91808  32.595  25.965  14.890
27865W        W91809  44.409  18.287  11.430
27866W        W91810  10.330  15.324   2.695
27867W        W91811  24.057  37.474   1.247
27868W        W91812  28.440   5.242   2.230
27869W        W91813  40.875  39.931  14.469
27870W        W91814   5.379  24.621   4.258
27871W        W91815  18.658  30.086   1.356
27872W        W91816  32.890   9.201   3.714
27873W        W91817  20.052  14.143  13.032
27874W        W91818  18.619  23.097   0.284
27875W        W91819   7.314  18.623  12.383
27876W        W91820  20.555   2.864  14.958
27877W        W91821  21.582   7.370  14.877
27878W        W91822   5.843  27.613   0.807
27879W        W91823  33.979   1.972   3.748
27880W        W91824  22.639  23.717   0.392
27881W        W91825   6.788  32.965  13.447
27882W        W91826   3.859   2.749   1.898
27883W        W91827  13.726  33.933   2.665
27884W        W91828  43.324  28.141   1.841
27885W        W91829  21.074  27.152   1.800
27886W        W91830  13.785  22.224  13.001
27887W        W91831  23.196  29.527  13.527
27888W        W91832  29.158  15.277   4.688
27889W        W91833  20.052  17.658   2.304
27890W        W91834  16.742  27.525  11.551
27891W        W91835  36.449   3.896   1.795
27892W        W91836  30.081  17.072   2.331
27893W        W91837   4.714  38.402  14.981
27894W        W91838  36.407   9.256   3.637
27895W        W91839  23.008  24.500   0.456
27896W        W91840  11.633  40.802  14.286
27897W        W91841  10.368  27.584  10.468
27898W        W91842   4.335  39.399   0.374
27899W        W91843   2.727  23.137   3.827
27900W        W91844  23.707  36.355  10.452
27901W        W91845  20.744  32.559   2.414
27902W        W91846   0.916  29.516  14.294
27903W        W91847  38.023  33.577   4.754
27904W        W91848  33.922  12.651  12.524
27905W        W91849  26.962  36.059   3.674
27906W        W91850  34.019  20.086  14.769
27907W        W91851   1.885  32.986   1.442
27908W        W91852  29.585  19.778   1.891
27909W        W91853   7.846  28.561   3.836
27910W        W91854  23.634   7.330   2.207
27911W        W91855  13.158   2.830  10.934
27912W        W91856  11.164  20.670  14.883
27913W        W91857  15.311  41.038  12.826
27914W        W91858   2.332  36.362   4.231
27915W        W91859  35.423  44.358  14.770
27916W        W91860  27.105  37.941  11.503
27917W        W91861  43.502  44.831  12.464
27918W        W91862  42.024  44.456  12.564
27919W        W91863  29.586  12.310  14.398
27920W        W91864  26.696  17.691  14.492
27921W        W91865   7.819  30.441   1.216
27922W        W91866  10.185  40.346   1.885
27923W        W91867  26.088  43.903  14.315
27924W        W91868  36.348   4.805  12.971
27925W        W91869  41.405   4.290  12.379
27926W        W91870  17.188  24.019  10.032
27927W        W91871   2.949   0.809   2.747
27928W        W91872  14.591   4.427   2.354
27929W        W91873  36.414  20.189   3.232
27930W        W91874  14.228  43.272   1.316
27931W        W91875  37.900  33.954   2.332
27932W        W91876  37.917  10.693  11.856
27933W        W91877   7.872  21.089  11.575
27934W        W91878  11.807   6.880  14.307
27935W        W91879  13.322  43.274   0.816
27936W        W91880  19.081  16.124  11.538
27937W        W91881   7.678  10.640  12.882
27938W        W91882  40.355   8.714  12.450
27939W        W91883  35.583  36.590   4.711
27940W        W91884  36.533  24.012  10.594
27941W        W91885  16.305   2.281  14.868
27942W        W91886  27.114  15.110  11.128
27943W        W91887  13.254  35.489   4.650
27944W        W91888  13.796  34.045  10.530
27945W        W91889   0.881  30.101   3.861
27946W        W91890  21.660  17.201   3.186
27947W        W91891  38.823  18.785  10.968
27948W        W91892   9.647  17.294   2.341
27949W        W91893  14.094  39.031  13.985
27950W        W91894   6.861  21.241  12.834
27951W        W91895  30.109  21.144   2.776
27952W        W91896   6.196  44.299   0.868
27953W        W91897  31.544  28.497  12.034
27954W        W91898  22.601   6.409  13.812
27955W        W91899   9.200  19.102   2.372
27956W        W91900  30.573  18.698   0.747
27957W        W91901  39.482  43.379   3.242
27958W        W91902  29.636  29.141  12.925
27959W        W91903  19.537  14.293   1.372
27960W        W91904   8.278  19.160  10.910
27961W        W91905   0.862  24.049   4.232
27962W        W91906   3.398  19.763  12.552
27963W        W91907  44.984  38.479   4.254
27964W        W91908  40.311  43.934   1.220
27965W        W91909  10.251  33.924  13.037
27966W        W91910  19.041  44.928  11.408
27967W        W91911  20.650   3.441   0.441
27968W        W91912   7.289   5.225  14.912
27969W        W91913  11.215  29.450   1.255
27970W        W91914  28.502  31.983   0.293
27971W        W91915  39.383  23.044   0.950
27972W        W91916   6.222   6.875   0.464
27973W        W91917  20.714  27.555  14.903
27974W        W91918   8.737  33.493  13.940
27975W        W91919   4.838   7.250   9.955
27976W        W91920  13.183  12.732  13.356
27977W        W91921  29.982  26.535   3.146
27978W        W91922  13.239  32.934  14.923
27979W        W91923  13.164  34.928  11.928
27980W        W91924   3.893  25.029   5.278
27981W        W91925  31.123  28.974  11.979
27982W        W91926  44.343   3.369   2.889
27983W        W91927  27.554  31.625   2.192
27984W        W91928  20.569  43.967  12.527
27985W        W91929  25.969  18.079  11.078
27986W        W91930  30.074  11.833   1.865
27987W        W91931  42.527   4.407  14.758
27988W        W91932  11.739  34.477   1.898
27989W        W91933   8.761   5.835   2.345
27990W        W91934  13.107  34.588   4.733
27991W        W91935  25.174  15.591   0.892
27992W        W91936  28.000  18.072   1.749
27993W        W91937   1.237  26.610   2.289
27994W        W91938  37.466   3.908  12.576
27995W        W91939  42.818  44.999   1.366
27996W        W91940  35.950  22.190  13.805
27997W        W91941  31.135   8.894   2.772
27998W        W91942  29.453  25.703   1.254
27999W        W91943   1.371  14.122   3.218
28000W        W91944  43.475  11.248  14.840
28001W        W91945   2.817  24.140   3.855
28002W        W91946  18.548  44.404   0.783
28003W        W91947  19.709  43.809   1.329
28004W        W91948  36.486  21.096   0.875
28005W        W91949  19.648   2.344  11.407
28006W        W91950   8.812  39.455   0.332
28007W        W91951   7.395  18.052   5.133
28008W        W91952  27.045  38.070  10.413
28009W        W91953  12.705  37.021  10.453
28010W        W91954  27.160   6.349  10.631
28011W        W91955  19.068  15.248  13.520
28012W        W91956  33.523  24.990   2.219
28013W        W91957  16.598  31.511   0.395
28014W        W91958  14.302  20.236   5.100
28015W        W91959  31.086  23.496  12.962
28016W        W91960  31.616   0.823   0.766
28017W        W91961  15.171  31.049  12.057
28018W        W91962   6.896   1.733  13.372
28019W        W91963  17.201  37.895  11.981
28020W        W91964   8.381  40.843   1.361
28021W        W91965  37.509  43.394   4.734
28022W        W91966  32.408  40.798   2.257
28023W        W91967  43.924  34.976   1.795
28024W        W91968   7.778   5.335  10.625
28025W        W91969   7.686  10.655   3.299
28026W        W91970  24.577   1.844   0.372
28027W        W91971  10.246  23.063  10.435
28028W        W91972  23.242  41.456   0.928
28029W        W91973   6.215  16.294  14.318
28030W        W91974  30.558  14.835  13.312
28031W        W91975  29.061  15.746   4.698
28032W        W91976  17.735  40.507   2.685
28033W        W91977   6.420  11.751  11.894
28034W        W91978   4.816  31.997   3.792
28035W        W91979   4.343  13.253  12.985
28036W        W91980  20.098  39.546   3.215
28037W        W91981  16.634  25.618   2.680
28038W        W91982  36.987  22.042  11.125
28039W        W91983  35.093  22.136   3.233
28040W        W91984  37.968   9.257   1.734
28041W        W91985  37.968  28.992   3.311
28042W        W91986  16.305   0.266   5.576
28043W        W91987   1.417   3.370   0.962
28044W        W91988   8.183   8.814  12.014
28045W        W91989  28.672  43.308   1.350
28046W        W91990  16.706  15.621  12.490
28047W        W91991  41.852  32.523  11.513
28048W        W91992  19.572  13.761  11.870
28049W        W91993  25.694  10.669   2.222
28050W        W91994  33.405  26.535  12.370
28051W        W91995   6.872   8.369   0.451
28052W        W91996  34.547  12.201  13.506
28053W        W91997   6.745   6.769  13.364
28054W        W91998  30.135   0.294  12.471
28055W        W91999   3.787   1.895   2.385
28056W        W92000  29.554  20.592   0.838
28057W        W92001  37.059  17.798  10.894
28058W        W92002   7.746  41.795   2.210
28059W        W92003  16.136  35.869   1.853
28060W        W92004   3.711  19.705  11.549
28061W        W92005  27.533   3.432  11.390
28062W        W92006  36.867  30.593   4.160
28063W        W92007   4.756   1.786   9.993
28064W        W92008  36.541   2.463  11.427
28065W        W92009  23.235  14.780   0.465
28066W        W92010  25.118  24.011   1.866
28067W        W92011   6.346   7.252   0.756
28068W        W92012  34.055  18.668   4.182
28069W        W92013  35.035  11.648   3.185
28070W        W92014  26.082  10.250   2.677
28071W        W92015  42.002  23.534  11.490
28072W        W92016  13.727  10.848   1.810
28073W        W92017  24.618   2.787   3.690
28074W        W92018  16.156  42.436   0.287
28075W        W92019   3.942  17.235   2.270
28076W        W92020  23.127  43.939   3.208
28077W        W92021  18.768  40.883  11.969
28078W        W92022  25.488  28.089  10.529
28079W        W92023  26.042  27.985  11.051
28080W        W92024   0.778  16.583  13.002
28081W        W92025  37.905  18.084   0.481
28082W        W92026  37.412  31.416  11.506
28083W        W92027  38.947  26.589   4.658
28084W        W92028  28.567   7.269   4.326
28085W        W92029  28.452  29.512   4.725
28086W        W92030   6.199  29.075  10.966
28087W        W92031   0.958  41.445   4.632
28088W        W92032  38.831  39.406   3.248
28089W        W92033  26.596  14.760   3.851
28090W        W92034  34.000  22.117   2.776
28091W        W92035  36.455   7.351   3.682
28092W        W92036  40.020  42.331   4.329
28093W        W92037  30.455  12.151   1.294
28094W        W92038   6.378  20.051  10.440
28095W        W92039  38.350  18.772  11.602
28096W        W92040  12.628  17.574  13.532
28097W        W92041  41.348  11.265   1.915
28098W        W92042  35.081  22.132   3.842
28099W        W92043  39.340   9.335  10.416
28100W        W92044   1.239  16.128  11.379
28101W        W92045  22.566  18.191   4.195
28102W        W92046  29.025   4.723   4.317
28103W        W92047  14.723  34.999  13.989
28104W        W92048  21.600   7.703  10.540
28105W        W92049  43.483  22.717   0.335
28106W        W92050  44.427  30.460   4.782
28107W        W92051  10.769  30.634   0.400
28108W        W92052  26.976   1.887   3.688
28109W        W92053  27.965  10.164   0.464
28110W        W92054  36.537  14.152   5.091
28111W        W92055   8.893  21.146   2.178
28112W        W92056  31.153   8.694   0.736
28113W        W92057   0.388  10.264   4.308
28114W        W92058  31.925   7.753   0.479
28115W        W92059  18.547  43.013  14.445
28116W        W92060  29.052   9.181  14.323
28117W        W92061  11.231  25.532  12.393
28118W        W92062   8.207  29.521  12.515
28119W        W92063  17.147  19.738   3.173
28120W        W92064  42.873   7.892   5.238
28121W        W92065  14.323  40.909  11.037
28122W        W92066   7.365  17.783  11.446
28123W        W92067  27.635  20.105  12.029
28124W        W92068  20.543  44.297   2.346
28125W        W92069  18.155  30.087   4.792
28126W        W92070  35.976  14.285   1.268
28127W        W92071  41.994   0.254   1.762
28128W        W92072  22.708  28.015   2.330
28129W        W92073   7.718  36.014  14.830
28130W        W92074   2.335  16.617   0.741
28131W        W92075  17.787  42.870   4.270
28132W        W92076  15.787  19.564  14.277
28133W        W92077   6.758  25.480   2.346
28134W        W92078  18.050  33.463  12.972
28135W        W92079   8.726  21.614   1.878
28136W        W92080  39.047  11.171   3.377
28137W        W92081  10.219   5.221   4.697
28138W        W92082  20.535   3.381   1.878
28139W        W92083  24.677  18.747   0.754
28140W        W92084  16.105  42.362  12.981
28141W        W92085  22.220   0.368  11.585
28142W        W92086  29.134  15.136  13.997
28143W        W92087   6.274  34.472  13.938
28144W        W92088  34.964  19.753   5.193
28145W        W92089  16.240   4.801  11.459
28146W        W92090  32.893  10.376   4.834
28147W        W92091   7.200  24.620  13.319
28148W        W92092  42.856  26.695  11.559
28149W        W92093  39.516   8.780  12.833
28150W        W92094  29.174   0.757   1.851
28151W        W92095  30.067   0.366   1.713
28152W        W92096  30.997  14.277   1.322
28153W        W92097  24.977  32.036  10.939
28154W        W92098  18.151   1.892   3.654
28155W        W92099  26.692  21.123   3.171
28156W        W92100   7.866  37.570   3.261
28157W        W92101   5.796   8.303  12.343
28158W        W92102   4.340  21.687   4.600
28159W        W92103  32.396  41.883   1.870
28160W        W92104  14.678   1.846  10.544
28161W        W92105  25.640  26.628  12.923
28162W        W92106   0.329   6.384   1.817
28163W        W92107  36.495  19.102  10.584
28164W        W92108  39.918  23.615   4.130
28165W        W92109  35.593  14.235  11.471
28166W        W92110  38.408  23.997   4.330
28167W        W92111  19.122  21.621   4.127
28168W        W92112   6.351  22.164  10.430
28169W        W92113  35.087  43.484   2.862
28170W        W92114  11.805  15.654  14.836
28171W        W92115  38.468  26.493  14.465
28172W        W92116  43.321  33.435  10.014
28173W        W92117  33.026  21.618   1.747
28174W        W92118  29.655  29.653   1.884
28175W        W92119  21.239   0.925   4.204
28176W        W92120   9.238  31.490  11.105
28177W        W92121  23.237  19.262  10.951
28178W        W92122   8.810   5.815   4.611
28179W        W92123  28.472  15.637  14.284
28180W        W92124   2.727  44.763  14.381
28181W        W92125   6.872  25.067   1.282
28182W        W92126  22.623  17.722   1.728
28183W        W92127  15.293  12.760  13.834
28184W        W92128  14.654   1.890  14.368
28185W        W92129  31.984   0.352   0.324
28186W        W92130  28.024   2.386  12.432
28187W        W92131   5.907  13.318  11.075
28188W        W92132  41.949  14.716   0.850
28189W        W92133  13.132  29.103   2.779
28190W        W92134  39.037  37.063  10.410
28191W        W92135  37.454  30.006  13.513
28192W        W92136  19.088  25.613  14.913
28193W        W92137  15.322  40.474   0.300
28194W        W92138  39.969  24.215   2.730
28195W        W92139  18.065  12.317   3.731
28196W        W92140  26.135  43.777   3.243
28197W        W92141  25.078  20.637   2.859
28198W        W92142  37.977  14.097  14.809
28199W        W92143  40.906   0.355  11.419
28200W        W92144   8.249   3.365  10.976
28201W        W92145  42.921  11.307  13.464
28202W        W92146  29.520   7.403  10.465
28203W        W92147  29.139  43.787  12.515
28204W        W92148   3.755  38.943  12.351
28205W        W92149  26.460  30.499   4.693
28206W        W92150  13.250   2.304  12.856
28207W        W92151  15.148  30.529   3.339
28208W        W92152  24.185  29.603  13.898
28209W        W92153  26.028  24.118  10.524
28210W        W92154  30.587  39.392   3.289
28211W        W92155  23.011  37.433   2.224
28212W        W92156  22.036  19.543  13.964
28213W        W92157   2.792  30.485  14.021
28214W        W92158  36.883  33.550  10.995
28215W        W92159   8.832   7.693  10.587
28216W        W92160  36.856  30.006   0.830
28217W        W92161  40.333  28.562  10.892
28218W        W92162  29.140  40.030   0.803
28219W        W92163  16.774  11.792  11.414
28220W        W92164  30.430  11.352  12.511
28221W        W92165  36.914  14.315  11.001
28222W        W92166  11.344   0.812   9.660
28223W        W92167  30.578   6.191  12.865
28224W        W92168  24.107  28.955  13.934
28225W        W92169  26.960  40.473  14.431
28226W        W92170  37.525  34.401  13.537
28227W        W92171  39.404  15.102  14.799
28228W        W92172  14.790  37.461   3.192
28229W        W92173  36.095  26.043   0.797
28230W        W92174  37.560  23.149   3.816
28231W        W92175  28.651  11.181   2.804
28232W        W92176  18.739  44.756  10.951
28233W        W92177  41.464  11.321  13.400
28234W        W92178  33.906  32.056  12.388
28235W        W92179  35.515  21.520  11.581
28236W        W92180   2.399  26.491  14.774
28237W        W92181  16.149  14.284  12.426
28238W        W92182   5.737  11.278  13.867
28239W        W92183   6.920  13.200  10.622
28240W        W92184  43.434  25.089  10.938
28241W        W92185  21.051   6.307   2.289
28242W        W92186   8.668  25.595  10.631
28243W        W92187  41.361   7.364  13.380
28244W        W92188  42.527  27.128   1.218
28245W        W92189  23.042   3.777   3.846
28246W        W92190  29.005  15.784  14.891
28247W        W92191  28.599  10.285  10.920
28248W        W92192  22.565   8.738   1.381
28249W        W92193   3.900  30.422   3.319
28250W        W92194   4.212  39.026  13.921
28251W        W92195   4.227  33.893  12.563
28252W        W92196  36.396  19.644  12.014
28253W        W92197  37.027  11.719  13.015
28254W        W92198  35.926  21.544   0.293
28255W        W92199   1.354  44.276   0.393
28256W        W92200   6.860  28.166  10.499
28257W        W92201  41.810  27.038  11.412
28258W        W92202  27.577  33.901   3.229
28259W        W92203  15.639  14.305  13.925
28260W        W92204  17.267  23.023   2.820
28261W        W92205  37.456  19.156  14.946
28262W        W92206   5.207  11.634  12.931
28263W        W92207  20.060   7.293   2.191
28264W        W92208  20.172   6.770   0.458
28265W        W92209   0.778  13.308   2.681
28266W        W92210  39.947  44.915   4.824
28267W        W92211  16.576  28.945  13.329
28268W        W92212  19.758  21.609   3.752
28269W        W92213   8.692   5.419   3.832
28270W        W92214  13.342  41.036   1.930
28271W        W92215  22.689  12.648   1.441
28272W        W92216  28.001  44.318  10.414
28273W        W92217   2.892   9.859  12.408
28274W        W92218   8.875   2.297  11.539
28275W        W92219  23.985  21.516   1.735
28276W        W92220  10.310  10.788   2.676
28277W        W92221   9.695  14.137  12.503
28278W        W92222  44.824  14.649   2.213
28279W        W92223  37.433  20.598   2.855
28280W        W92224  40.937  35.894   2.180
28281W        W92225  26.670  18.640  13.833
28282W        W92226  15.715  15.742   5.188
28283W        W92227  44.827  40.524   1.918
28284W        W92228  33.387  20.691   0.291
28285W        W92229  15.713   2.460   0.286
28286W        W92230   3.917  30.075   0.745
28287W        W92231   5.219  13.185   0.390
28288W        W92232  14.241  37.025  13.472
28289W        W92233  12.764  10.775  10.558
28290W        W92234  36.014  27.999  11.024
28291W        W92235  17.718  24.550   5.238
28292W        W92236  37.083  16.193   4.308
28293W        W92237   8.313  13.759   4.639
28294W        W92238  30.565  20.729  11.057
28295W        W92239   6.787  22.042  14.316
28296W        W92240  37.834  10.303  11.495
28297W        W92241   8.654  11.161  12.871
28298W        W92242  31.941  32.004   3.160
28299W        W92243  31.940  16.080   3.199
28300W        W92244   6.711  43.364  10.452
28301W        W92245  13.821  22.076  11.530
28302W        W92246  11.146  12.832   3.244
28303W        W92247   1.340   4.313  14.393
28304W        W92248  31.579  18.242   0.481
28305W        W92249  25.156  27.574  12.550
28306W        W92250   8.361  14.786  11.970
28307W        W92251  19.131   9.821  10.418
28308W        W92252  44.819  22.564   0.429
28309W        W92253  22.042  35.430   0.760
28310W        W92254  42.488  17.795   0.321
28311W        W92255   0.264  27.127  14.769
28312W        W92256  17.560  16.104  11.113
28313W        W92257  27.093  27.453  13.954
28314W        W92258  14.765   1.928   3.315
28315W        W92259  36.860  43.397   0.900
28316W        W92260   6.921  37.974   0.777
28317W        W92261  10.658  18.098   3.760
28318W        W92262  15.307  42.861  14.465
28319W        W92263  34.963  14.758   1.364
28320W        W92264  32.990  21.542  12.478
28321W        W92265  44.495   5.418  14.853
28322W        W92266   0.782  20.549  14.349
28323W        W92267  37.927  29.955   1.818
28324W        W92268  25.711  13.715   1.428
28325W        W92269  30.128   3.781  10.576
28326W        W92270  19.552  11.633  13.840
28327W        W92271  20.198  34.916   3.360
28328W        W92272  12.137  23.010  12.992
28329W        W92273  29.636  11.790  14.997
28330W        W92274   5.709  18.119  14.347
28331W        W92275   4.346  22.227   1.365
28332W        W92276  36.879  14.823  12.012
28333W        W92277  41.960  14.240  10.135
28334W        W92278  39.422  21.539   2.846
28335W        W92279  22.127   4.799   1.708
28336W        W92280  42.520  20.566   4.271
28337W        W92281  24.041  35.457  12.351
28338W        W92282  37.855  36.957  13.049
28339W        W92283  32.547   3.788   1.844
28340W        W92284  44.502  41.815   0.855
28341W        W92285   6.192   6.310   0.763
28342W        W92286  19.771   4.771  14.925
28343W        W92287  32.467  29.492  13.327
28344W        W92288  21.217  36.049   4.130
28345W        W92289  31.586  36.951  12.505
28346W        W92290  32.550  29.025  10.155
28347W        W92291  13.111  19.626   1.773
28348W        W92292  13.617   0.755  12.097
28349W        W92293  33.946  16.811   4.822
28350W        W92294  18.621   3.737  13.024
28351W        W92295   0.758  17.780   0.821
28352W        W92296  38.381  26.489  10.974
28353W        W92297   1.777  12.739  14.438
28354W        W92298  36.923  42.977   2.857
28355W        W92299  23.631   3.434  11.392
28356W        W92300   6.708   8.184  11.082
28357W        W92301  14.321  20.097  11.993
28358W        W92302  24.143  38.071  14.810
28359W        W92303  11.793  28.065  10.989
28360W        W92304  11.235   0.450   2.300
28361W        W92305  18.663  10.149  14.338
28362W        W92306  11.176  36.560  11.957
28363W        W92307  16.275   7.911  12.517
28364W        W92308  39.358   9.159  10.973
28365W        W92309  43.850  43.347  14.279
28366W        W92310  43.462   1.301   3.762
28367W        W92311   0.325   4.279   4.765
28368W        W92312   8.688  18.233   5.308
28369W        W92313  29.002  29.665  13.792
28370W        W92314  37.926   9.843  11.982
28371W        W92315  29.074  33.106  11.892
28372W        W92316  11.268  34.906   3.184
28373W        W92317  41.302  28.184  14.314
28374W        W92318  33.050   7.365   4.715
28375W        W92319  21.687  26.967   3.307
28376W        W92320  42.483  30.535   3.169
28377W        W92321   2.956  23.637   4.609
28378W        W92322  23.700   9.384   2.245
28379W        W92323  26.953   1.399  12.379
28380W        W92324  17.212   9.692   4.129
28381W        W92325  28.973  20.039   1.342
28382W        W92326  20.029   6.261  12.006
28383W        W92327  15.693  29.143   1.442
28384W        W92328  28.061   3.290   1.771
28385W        W92329  42.013  10.374  12.006
28386W        W92330  43.328   4.868   3.306
28387W        W92331  11.771   6.846   2.196
28388W        W92332  25.010  44.320  13.387
28389W        W92333  22.092  17.128   1.926
28390W        W92334   6.297  12.721  13.494
28391W        W92335  43.507  23.710  11.004
28392W        W92336  10.198  18.115   1.895
28393W        W92337   7.747  21.537  11.085
28394W        W92338  14.777  22.581   4.766
28395W        W92339  24.215  28.005  14.394
28396W        W92340  33.467   2.725  14.833
28397W        W92341  27.467  44.977  13.874
28398W        W92342  16.731  12.847   3.670
28399W        W92343   0.844  33.973  13.339
28400W        W92344  24.576  39.915  14.338
28401W        W92345  41.462   5.225   2.390
28402W        W92346  15.721   8.167   2.780
28403W        W92347  18.198  17.730   1.798
28404W        W92348  23.157  26.050   2.414
28405W        W92349  34.452  27.539  13.000
28406W        W92350  32.468   5.344   4.624
28407W        W92351  27.607  18.741  11.116
28408W        W92352   8.227  19.617  13.469
28409W        W92353  24.151  13.712  12.397
28410W        W92354  26.688   5.344   2.324
28411W        W92355  37.085  27.013  14.843
28412W        W92356  15.269  21.718   2.798
28413W        W92357  42.323  42.336  10.556
28414W        W92358  37.861   5.825  12.860
28415W        W92359  38.381  26.086   4.743
28416W        W92360   8.898  30.125   1.445
28417W        W92361  31.935  13.332   1.248
28418W        W92362  35.039  25.654   3.274
28419W        W92363  32.944  34.931  12.468
28420W        W92364   5.196  17.644  12.433
28421W        W92365  33.908  41.354  14.981
28422W        W92366  18.700  33.594   3.188
28423W        W92367  44.958   4.855   3.690
28424W        W92368  37.934  28.933  13.505
28425W        W92369  19.534  18.051   2.401
28426W        W92370  28.497  25.190  13.011
28427W        W92371   2.944  11.636  14.298
28428W        W92372  17.152  21.758  13.869
28429W        W92373  31.994  20.055  13.931
28430W        W92374  38.435  32.469   1.866
28431W        W92375  39.945  35.493  13.915
28432W        W92376   1.924  27.688   1.383
28433W        W92377  14.659  30.418   1.798
28434W        W92378  39.063  18.179   0.355
28435W        W92379  38.476   4.723   2.892
28436W        W92380  19.747  26.597  14.452
28437W        W92381   0.747  40.426  12.386
28438W        W92382  28.633  29.150  14.009
28439W        W92383  29.052   7.683   3.685
28440W        W92384   3.841  40.390   4.313
28441W        W92385  28.624  28.143   2.411
28442W        W92386  18.149  26.543   5.268
28443W        W92387  17.770  12.291  10.593
28444W        W92388  35.515  27.654   0.418
28445W        W92389   8.815   6.832   1.707
28446W        W92390  27.618   6.358   4.146
28447W        W92391  24.677  43.448   0.317
28448W        W92392  23.221  43.876  10.463
28449W        W92393  22.095   4.837  13.849
28450W        W92394  35.375  13.274   3.819
28451W        W92395   5.835  40.042   0.793
28452W        W92396  13.608  21.264  11.044
28453W        W92397  25.087  19.613  13.819
28454W        W92398   7.823  34.436   4.242
28455W        W92399   7.813   4.337  11.107
28456W        W92400   3.224  34.567   0.756
28457W        W92401  39.323   8.846   3.644
28458W        W92402  31.950  23.617  12.956
28459W        W92403   4.342   7.212   1.436
28460W        W92404  23.496   4.346  10.453
28461W        W92405  23.724   1.935  11.099
28462W        W92406  14.717  41.022  13.372
28463W        W92407  26.989  36.031   0.771
28464W        W92408  16.722  23.016   3.228
28465W        W92409  13.776  17.593   0.302
28466W        W92410  20.763  14.102  11.867
28467W        W92411  26.510  31.924  12.887
28468W        W92412  10.853  33.011   1.888
28469W        W92413  42.984  15.140   4.221
28470W        W92414   6.405  10.260  12.937
28471W        W92415  42.008  26.148   0.299
28472W        W92416   5.870  29.033  10.579
28473W        W92417  23.524  36.071   3.382
28474W        W92418  16.692  22.725   5.621
28475W        W92419  40.966  27.058  11.926
28476W        W92420  28.666   3.303   1.845
28477W        W92421  15.250  14.245  12.061
28478W        W92422  39.847   5.333  12.900
28479W        W92423  29.542  21.036  11.994
28480W        W92424  22.125  18.755  12.894
28481W        W92425  10.829  15.115  13.482
28482W        W92426   8.691  36.912   2.845
28483W        W92427  19.062   3.870  14.797
28484W        W92428  26.099   3.823   4.156
28485W        W92429  41.373  13.773   2.855
28486W        W92430  39.956  18.625   3.764
28487W        W92431   0.265  42.454   1.301
28488W        W92432  23.688  11.269  12.392
28489W        W92433  28.497   5.279  10.548
28490W        W92434  10.158  19.154  13.871
28491W        W92435  29.044  23.220   3.253
28492W        W92436   5.271  40.418  11.390
28493W        W92437  25.594  29.594   1.875
28494W        W92438   7.287   3.305   4.702
28495W        W92439  42.379  38.836   0.817
28496W        W92440  23.166  43.435  12.894
28497W        W92441  27.085  14.609  13.390
28498W        W92442  33.060  27.450   3.773
28499W        W92443  43.850  22.729  14.928
28500W        W92444   2.292  30.968  14.463
28501W        W92445   5.323  25.572   3.149
28502W        W92446   3.807   2.756  13.905
28503W        W92447  12.803  36.359   2.226
28504W        W92448  28.133   8.794  14.006
28505W        W92449   1.325  28.097   0.445
28506W        W92450  30.076  12.620   1.929
28507W        W92451  19.167  17.621  13.853
28508W        W92452  30.515  15.289  10.976
28509W        W92453  26.156  39.913   0.359
28510W        W92454   9.175   1.814  11.450
28511W        W92455  15.750  15.638   3.267
28512W        W92456  16.079  41.852   1.441
28513W        W92457   4.326   6.710  11.575
28514W        W92458  35.926  24.709  10.613
28515W        W92459  17.104  18.216  12.960
28516W        W92460   0.888  29.097  12.449
28517W        W92461   9.384  17.741   1.434
28518W        W92462  40.046  10.816   0.416
28519W        W92463  24.069  33.993   4.787
28520W        W92464  29.545  34.940   4.229
28521W        W92465   5.870  35.471  14.833
28522W        W92466  18.096  32.636   3.186
28523W        W92467  13.327   2.865   4.726
28524W        W92468  40.882  20.633  11.517
28525W        W92469   7.766   8.237  10.612
28526W        W92470   5.741  36.955   1.867
28527W        W92471  37.860  32.589   1.832
28528W        W92472   1.377  14.675   3.671
28529W        W92473  38.330  32.532   1.451
28530W        W92474  28.032  33.007  11.576
28531W        W92475  16.707  34.871  12.964
28532W        W92476   0.343  11.624   4.353
28533W        W92477   3.455  40.900  13.357
28534W        W92478   8.271  29.059   3.274
28535W        W92479  40.354  31.572  14.401
28536W        W92480   3.441   4.849  13.056
28537W        W92481  38.540  11.634  13.867
28538W        W92482   6.898  12.742   1.881
28539W        W92483   7.319  15.215   1.721
28540W        W92484   9.886  18.067   1.429
28541W        W92485   3.368  44.827   3.156
28542W        W92486   2.875   8.738  11.086
28543W        W92487  19.176   1.285  10.633
28544W        W92488  41.805  43.333   3.765
28545W        W92489  12.613  37.892   1.294
28546W        W92490   5.864  10.869  13.976
28547W        W92491  41.822  22.550  14.432
28548W        W92492  25.666  13.810   1.790
28549W        W92493  42.359  42.846  13.880
28550W        W92494  24.126  35.527   2.667
28551W        W92495  26.069  13.275  12.969
28552W        W92496   7.232  21.202  12.527
28553W        W92497  43.327   0.411  14.965
28554W        W92498  18.190  13.707  13.051
28555W        W92499  21.713  16.234   0.406
28556W        W92500  17.563   8.686   2.376
28557W        W92501  15.239  20.037  11.952
28558W        W92502  31.099  18.066  10.571
28559W        W92503   0.959   8.663   4.148
28560W        W92504  28.035  33.981  10.909
28561W        W92505  22.740  44.322  12.896
28562W        W92506  22.510  16.147  12.941
28563W        W92507  37.392  15.323  12.938
28564W        W92508  27.177  26.046   1.380
28565W        W92509  39.384   2.930  13.383
28566W        W92510  13.257   2.302  10.890
28567W        W92511  10.781  15.692  13.426
28568W        W92512  44.869   3.285   3.269
28569W        W92513  14.190   1.271  12.905
28570W        W92514  41.294   3.393  11.098
28571W        W92515   7.697  36.049  14.317
28572W        W92516  28.097  37.486  12.890
28573W        W92517  39.350  18.172  13.846
28574W        W92518  25.058  13.741   4.599
28575W        W92519  19.073  11.246   3.799
28576W        W92520  36.037  14.212  13.321
28577W        W92521  28.162  27.692  12.559
28578W        W92522  42.813  17.185  12.427
28579W        W92523   5.349  12.225  14.478
28580W        W92524  37.560  27.078  13.373
28581W        W92525  15.212  26.675   2.727
28582W        W92526  14.188  25.970  10.955
28583W        W92527  39.327  19.739  14.308
28584W        W92528  12.344  35.086   4.753
28585W        W92529   1.770  14.322   4.619
28586W        W92530  18.688  23.008   2.785
28587W        W92531  42.022  34.550  11.043
28588W        W92532  41.789  38.055   3.629
28589W        W92533   8.744  25.650  14.951
28590W        W92534  22.080  24.486   1.729
28591W        W92535  31.621   0.781   1.737
28592W        W92536   0.282  39.476  10.468
28593W        W92537  14.120  15.782   1.363
28594W        W92538  29.488  30.611   0.409
28595W        W92539  42.503   0.279  12.343
28596W        W92540  38.379  30.120  13.993
28597W        W92541   1.449  43.775   3.203
28598W        W92542  19.263  13.687  11.998
28599W        W92543  44.378   4.283   4.287
28600W        W92544  38.425   2.877   4.242
28601W        W92545  36.846   1.747  13.527
28602W        W92546  32.993  23.986  12.564
28603W        W92547  32.057  29.470  11.001
28604W        W92548  35.950  37.552  12.403
28605W        W92549  24.636  16.774  10.575
28606W        W92550  25.651   1.376  10.921
28607W        W92551  26.204  14.212  13.018
28608W        W92552  43.907  22.561   1.444
28609W        W92553  33.593   6.922   2.844
28610W        W92554  27.013   7.383  11.922
28611W        W92555  32.535  16.768   2.367
28612W        W92556   2.313  30.909   3.334
28613W        W92557  29.472  44.956  12.402
28614W        W92558  12.236   9.264  13.339
28615W        W92559  15.083  43.897  13.009
28616W        W92560   4.867   7.667   5.228
28617W        W92561  20.551   6.327   2.662
28618W        W92562   8.345  27.025  14.890
28619W        W92563   5.212  36.900   4.726
28620W        W92564  29.138  43.829   3.632
28621W        W92565  23.187  17.634  13.054
28622W        W92566  19.615   1.344   0.757
28623W        W92567  19.765  10.267   2.334
28624W        W92568   1.349  15.165   3.338
28625W        W92569  43.400   7.214  11.857
28626W        W92570  40.431  42.792   3.851
28627W        W92571  18.245  10.238  10.910
28628W        W92572  23.493  44.478  12.929
28629W        W92573  33.600   6.761  12.442
28630W        W92574   9.337  15.237  10.516
28631W        W92575   1.260   7.359  11.905
28632W        W92576  21.723  29.002   4.798
28633W        W92577  33.989  38.515  12.096
28634W        W92578  21.659  11.830  13.513
28635W        W92579  25.185  18.120  13.857
28636W        W92580  11.221  20.755   2.827
28637W        W92581  36.998  21.189  14.840
28638W        W92582  18.086   9.858  13.945
28639W        W92583  18.185  17.782  14.419
28640W        W92584   0.277  14.137   1.720
28641W        W92585  29.106  36.436  11.595
28642W        W92586  12.779   9.371  14.831
28643W        W92587  36.010  11.714   2.252
28644W        W92588   0.966  19.159   2.187
28645W        W92589  37.407  20.079   1.256
28646W        W92590  10.663   0.351  12.362
28647W        W92591  28.986   4.845   1.789
28648W        W92592   8.739   2.226  11.053
28649W        W92593  11.867  41.427   2.712
28650W        W92594   3.805  32.929  12.498
28651W        W92595  14.792  28.457  13.886
28652W        W92596  42.839  26.475  11.960
28653W        W92597   3.894  34.075   2.180
28654W        W92598   4.857   2.450   2.298
28655W        W92599  34.872  15.292   4.735
28656W        W92600  20.144  43.397   2.756
28657W        W92601  38.394   6.407   5.209
28658W        W92602  29.520  33.885  12.086
28659W        W92603  42.484  14.823   4.166
28660W        W92604  12.206   7.856  13.496
28661W        W92605  21.075   2.379  12.558
28662W        W92606  21.159  35.602   2.298
28663W        W92607  25.588  35.410   2.324
28664W        W92608  23.690  17.613  10.404
28665W        W92609   1.262   4.219  12.340
28666W        W92610  10.660  27.082  10.465
28667W        W92611  31.981   5.337  13.893
28668W        W92612  40.001  26.985  11.088
28669W        W92613  12.769  23.589   3.653
28670W        W92614  42.500  12.677   0.900
28671W        W92615  31.030  29.040   3.259
28672W        W92616  16.096  29.106   3.787
28673W        W92617  20.047   8.861  11.545
28674W        W92618  12.679  36.851  14.513
28675W        W92619  21.649  13.118  14.769
28676W        W92620   8.722  19.208   4.745
28677W        W92621   2.889   0.385   2.404
28678W        W92622   7.246  39.050   1.729
28679W        W92623  21.155  21.725  14.935
28680W        W92624  17.555  24.986   2.332
28681W        W92625  10.266   0.393   2.688
28682W        W92626  33.503  17.153   5.159
28683W        W92627  30.050  21.039   1.365
28684W        W92628  16.587  36.504  12.525
28685W        W92629  18.769   5.296  13.861
28686W        W92630   3.404  37.945  10.912
28687W        W92631  14.765   9.149  12.834
28688W        W92632  32.413  42.478  14.847
28689W        W92633  44.396  16.658   2.864
28690W        W92634   9.653  16.586  13.055
28691W        W92635  21.560  12.623  12.921
28692W        W92636   2.867  18.750  13.327
28693W        W92637  37.343  28.559  13.817
28694W        W92638  22.230  14.266  10.610
28695W        W92639   3.225  20.245  11.425
28696W        W92640  27.051  15.301   3.731
28697W        W92641   3.777  31.067  12.398
28698W        W92642  29.467  37.977  12.843
28699W        W92643  28.159  29.495   1.759
28700W        W92644   8.770  18.648  10.123
28701W        W92645   5.237  44.285  12.522
28702W        W92646  39.350  29.128   3.708
28703W        W92647  16.712  18.126  13.056
28704W        W92648  32.592  24.550   2.257
28705W        W92649  35.531   2.818   2.274
28706W        W92650  13.249  40.402  11.502
28707W        W92651   8.780  40.005  10.888
28708W        W92652  10.807  42.418  13.442
28709W        W92653  22.531  24.109  12.054
28710W        W92654  33.932  34.976   2.407
28711W        W92655  11.801  10.664  10.541
28712W        W92656  19.582   6.772   4.671
28713W        W92657  19.248  22.598   4.165
28714W        W92658   2.378  40.517   2.800
28715W        W92659   0.281  37.835  11.454
28716W        W92660   5.383  38.423  10.927
28717W        W92661  12.725   9.741  12.483
28718W        W92662  22.092  19.636   3.318
28719W        W92663   3.892  25.041   4.814
28720W        W92664  35.924  25.125  13.489
28721W        W92665  33.915  41.792   2.717
28722W        W92666  11.235  31.625   0.761
28723W        W92667  17.580  23.561   3.254
28724W        W92668  32.574  42.378   0.342
28725W        W92669   6.879  38.873  11.022
28726W        W92670  39.850   8.687   2.692
28727W        W92671  30.986  13.263  13.538
28728W        W92672  18.769  16.264   1.801
28729W        W92673  39.061  44.763  12.072
28730W        W92674  44.888  22.550   3.370
28731W        W92675   9.653   6.184  10.613
28732W        W92676  44.795  16.692   3.829
28733W        W92677  23.646  13.227   2.185
28734W        W92678  23.196  34.001  11.997
28735W        W92679  25.613  16.749  14.855
28736W        W92680  38.494  29.637   4.653
28737W        W92681   8.658  17.277  13.437
28738W        W92682  19.534  16.568   4.628
28739W        W92683  36.382  44.374   4.643
28740W        W92684  28.660  34.583  14.916
28741W        W92685  41.353  44.481   2.812
28742W        W92686   1.400  18.713   4.826
28743W        W92687  33.560  32.483   1.730
28744W        W92688  11.339   4.206  14.516
28745W        W92689  41.420  10.200   4.728
28746W        W92690   8.768  44.805  13.988
28747W        W92691  41.344  11.349   3.696
28748W        W92692  19.257  43.818   2.779
28749W        W92693  15.085   2.933   4.259
28750W        W92694   9.367  36.394  12.445
28751W        W92695  43.997  17.739  11.115
28752W        W92696  35.475  16.706   3.683
28753W        W92697  34.571  27.617  11.469
28754W        W92698  30.546   7.732  13.865
28755W        W92699   4.877  23.001  10.919
28756W        W92700  29.993   5.760   4.287
28757W        W92701   5.839   7.750   4.610
28758W        W92702  24.052  31.978  14.398
28759W        W92703  39.959  15.680   4.775
28760W        W92704  39.913   4.411   3.264
28761W        W92705  44.874  11.684   0.746
28762W        W92706   0.779  31.056  10.645
28763W        W92707  19.159  19.688   4.688
28764W        W92708  26.656  10.258   3.255
28765W        W92709  14.336  26.541  11.058
28766W        W92710   8.223  17.175   1.232
28767W        W92711   6.348  10.199   1.894
28768W        W92712  12.646  28.040  14.878
28769W        W92713  17.307  33.534   1.337
28770W        W92714  18.768   9.760  13.329
28771W        W92715  24.698  33.617  14.888
28772W        W92716  36.064  31.939  12.546
28773W        W92717   8.365  37.544   2.213
28774W        W92718  36.558  32.003   4.236
28775W        W92719  39.429  22.712  13.367
28776W        W92720  41.469  40.987  14.492
28777W        W92721  24.130  19.679  13.871
28778W        W92722  39.329  36.961   2.768
28779W        W92723  30.042  33.452   1.419
28780W        W92724  36.015   9.789  14.490
28781W        W92725   4.293  17.266  11.588
28782W        W92726  28.569  18.788   3.234
28783W        W92727  36.592   6.394   0.939
28784W        W92728  38.946  17.618  14.974
28785W        W92729  33.380  13.708  10.075
28786W        W92730  29.154  11.157   4.710
28787W        W92731  25.492  26.510   0.863
28788W        W92732   4.439  33.613   4.826
28789W        W92733  18.782  15.682  12.371
28790W        W92734  20.065   1.763  12.525
28791W        W92735  19.612  44.407   1.330
28792W        W92736  42.474  30.132  11.889
28793W        W92737  36.531  24.639  10.976
28794W        W92738  30.619  23.500  13.011
28795W        W92739   7.262   5.329   1.929
28796W        W92740  10.280   4.243  14.439
28797W        W92741  38.382  29.987   3.196
28798W        W92742  21.026   0.415   3.208
28799W        W92743  27.973  31.529  10.941
28800W        W92744  29.460  19.730   1.443
28801W        W92745  16.619  24.218  14.861
28802W        W92746  33.478  42.789  10.123
28803W        W92747  25.474   5.369   0.370
28804W        W92748  22.029  21.210  10.511
28805W        W92749  43.483  26.135  11.082
28806W        W92750   5.687  24.074   3.157
28807W        W92751  36.862  20.233   0.780
28808W        W92752  35.106  16.635   1.229
28809W        W92753   3.375  43.960  12.079
28810W        W92754  36.464  12.639   4.119
28811W        W92755  13.721  14.640  14.918
28812W        W92756  43.899  28.932  14.030
28813W        W92757   1.323  10.165  13.412
28814W        W92758  31.065  27.557  12.884
28815W        W92759  11.297  16.781   0.451
28816W        W92760   0.851  36.022  13.850
28817W        W92761  14.620  38.520   3.652
28818W        W92762  17.127  27.004  11.466
28819W        W92763   6.753  44.800  11.567
28820W        W92764   1.334  12.280  12.533
28821W        W92765  26.565  20.136  10.504
28822W        W92766   5.920   6.790  14.484
28823W        W92767  23.650   8.669   1.714
28824W        W92768  19.701  17.699  14.438
28825W        W92769  34.473  23.649   1.414
28826W        W92770  24.069  22.999  13.370
28827W        W92771  32.539  22.021   1.293
28828W        W92772  30.467  22.665  10.896
28829W        W92773  36.482  22.638  14.515
28830W        W92774  38.361  12.756   2.859
28831W        W92775  36.415  29.425  12.888
28832W        W92776  21.551  15.178  13.013
28833W        W92777  17.721  38.003   0.482
28834W        W92778  12.213  23.675  13.958
28835W        W92779  41.020  26.179   3.174
28836W        W92780  23.996  24.054   3.255
28837W        W92781   5.213   8.758  11.915
28838W        W92782   1.754  43.772  11.081
28839W        W92783  35.945  41.808   4.719
28840W        W92784  42.827  44.851   4.286
28841W        W92785  20.267  36.440   2.818
28842W        W92786   2.432  30.960  14.994
28843W        W92787  26.998  20.229  13.363
28844W        W92788  13.685  23.665   2.305
28845W        W92789  38.044  28.538  12.471
28846W        W92790  17.143  28.078  14.993
28847W        W92791  43.488  38.503  10.894
28848W        W92792   9.391  18.634  11.929
28849W        W92793  11.281   7.819   1.263
28850W        W92794  17.301  24.590  11.889
28851W        W92795  37.079   7.749  13.028
28852W        W92796  38.429  16.148  14.997
28853W        W92797  39.035  35.429  13.976
28854W        W92798   5.809  27.676   3.642
28855W        W92799  10.223  36.416  10.963
28856W        W92800  26.059  28.997   2.239
28857W        W92801  42.801   4.440  13.452
28858W        W92802  16.213  23.074   3.384
28859W        W92803  18.233  20.130  10.574
28860W        W92804  16.634  20.714   4.332
28861W        W92805  42.826  21.660  13.802
28862W        W92806  34.055  27.026  10.444
28863W        W92807  35.995  12.721  11.998
28864W        W92808  19.172  25.626   4.132
28865W        W92809  35.361  26.120   4.735
28866W        W92810  31.588   6.216  11.555
28867W        W92811  10.314  10.192   3.755
28868W        W92812   3.737  34.002   0.840
28869W        W92813  41.537  14.748  13.806
28870W        W92814   5.291   3.832   3.205
28871W        W92815   6.890  32.402  11.575
28872W        W92816   2.235  22.730   5.316
28873W        W92817  39.470   1.451  13.006
28874W        W92818  13.105  19.072   4.229
28875W        W92819  44.499  30.124  11.060
28876W        W92820  33.905  33.515   1.333
28877W        W92821   0.476  44.778   1.712
28878W        W92822   8.305   3.773  11.964
28879W        W92823  16.685  11.160   9.976
28880W        W92824  20.070  12.246  10.548
28881W        W92825  43.865  35.866   2.703
28882W        W92826  31.964  27.513  14.469
28883W        W92827   0.480   7.205  11.606
28884W        W92828  34.398  25.026  12.533
28885W        W92829  20.224  22.624  12.994
28886W        W92830  27.668  33.019  14.806
28887W        W92831  35.504  43.810  14.450
28888W        W92832  32.046  30.924  14.320
28889W        W92833   7.860  20.529  12.984
28890W        W92834   8.859  20.707   4.713
28891W        W92835   0.317  32.500   0.356
28892W        W92836  22.025  29.923  10.532
28893W        W92837  37.366  24.690   2.867
28894W        W92838  32.135  33.531   4.726
28895W        W92839   2.844   9.177  10.522
28896W        W92840  13.766  44.336  13.524
28897W        W92841  43.500   7.873  11.938
28898W        W92842  31.464  16.153  13.343
28899W        W92843  31.487  28.511   2.289
28900W        W92844   7.711  15.642   3.686
28901W        W92845   1.792  41.428   1.358
28902W        W92846  19.232   4.868   0.402
28903W        W92847  11.825  43.875  10.564
28904W        W92848  32.891  27.024   2.254
28905W        W92849   6.293  43.333   3.707
28906W        W92850  21.111  28.131   1.343
28907W        W92851  43.390   4.728  11.056
28908W        W92852  24.040  33.473  13.977
28909W        W92853  13.228   0.765  10.612
28910W        W92854  11.350   4.215  13.347
28911W        W92855  31.910  27.574  10.078
28912W        W92856  12.822   0.488  11.926
28913W        W92857  34.450  19.117   4.752
28914W        W92858   2.825   9.172   0.353
28915W        W92859  28.958  22.166   1.835
28916W        W92860  35.005  16.195   1.292
28917W        W92861  16.582   4.223   0.845
28918W        W92862  41.828   5.901  13.951
28919W        W92863   1.838   0.365  12.925
28920W        W92864  19.256  39.540  14.424
28921W        W92865  35.104  25.197   5.160
28922W        W92866  20.640  34.119   4.335
28923W        W92867  10.760  15.628   0.847
28924W        W92868  29.620   8.682   1.306
28925W        W92869  28.475  17.768   3.233
28926W        W92870  28.619  29.589   1.297
28927W        W92871  35.596   0.964  11.922
28928W        W92872  24.004  44.269   4.819
28929W        W92873  32.135   3.870   2.258
28930W        W92874  41.002  27.510   1.380
28931W        W92875  35.374  42.329   2.276
28932W        W92876  34.544   9.865   1.907
28933W        W92877  14.609  35.022  10.485
28934W        W92878  42.425  11.841  11.451
28935W        W92879   8.189  32.011   3.800
28936W        W92880  33.935  26.547  10.580
28937W        W92881  16.743  39.557   4.696
28938W        W92882  14.109  19.261  11.108
28939W        W92883   7.853  33.966  10.627
28940W        W92884  21.552   5.884   3.725
28941W        W92885   9.152  18.079   9.924
28942W        W92886  22.538  29.006  12.511
28943W        W92887  28.650  11.310   3.237
28944W        W92888  37.982  36.049   1.279
28945W        W92889  25.203  32.113   3.706
28946W        W92890   1.947  21.588   1.327
28947W        W92891   3.902  32.088  12.947
28948W        W92892  17.674   8.300   1.222
28949W        W92893  33.063  14.327   4.625
28950W        W92894  21.057  32.398  14.875
28951W        W92895  28.658  13.143   2.332
28952W        W92896   4.927  42.950   0.246
28953W        W92897  11.852  13.124  14.021
28954W        W92898  25.679   8.327  14.934
28955W        W92899   0.253   5.750  14.379
28956W        W92900  26.090  38.498   2.900
28957W        W92901  43.282   9.771   3.361
28958W        W92902  37.384  38.902   0.960
28959W        W92903  12.124  31.435  13.433
28960W        W92904  44.909  38.838   4.826
28961W        W92905  25.013  43.855   2.218
28962W        W92906  35.884  30.508  11.941
28963W        W92907  22.711  27.106   2.229
28964W        W92908   3.319  19.602   1.782
28965W        W92909   7.864  15.683  11.901
28966W        W92910  17.249  33.467  12.926
28967W        W92911  20.710  42.853  12.365
28968W        W92912  24.570   4.439   2.823
28969W        W92913  40.970   5.725  13.053
28970W        W92914  44.976  17.586  13.799
28971W        W92915   1.426  37.524   3.715
28972W        W92916  33.432  38.021  13.497
28973W        W92917  29.175   0.931   3.747
28974W        W92918  14.204  27.673   2.233
28975W        W92919   1.408  44.348   2.884
28976W        W92920  44.395  32.556   1.308
28977W        W92921   1.312  25.157   3.337
28978W        W92922  37.841  17.579   3.271
28979W        W92923  41.847   9.250   1.294
28980W        W92924  24.180   6.705   3.303
28981W        W92925  37.375  38.482  11.048
28982W        W92926  30.133   3.281  13.877
28983W        W92927  10.760  41.317   5.169
28984W        W92928  20.033  15.629  12.992
28985W        W92929  20.096  10.862  12.888
28986W        W92930  12.754   7.702   2.682
28987W        W92931  20.148  34.514  13.436
28988W        W92932   0.914  14.269  10.158
28989W        W92933  22.667   4.406   0.788
28990W        W92934  21.247  36.438  11.000
28991W        W92935  18.269  25.598   2.267
28992W        W92936   9.179   2.259  13.321
28993W        W92937  24.524  29.988   3.858
28994W        W92938  36.552  39.455  13.004
28995W        W92939  42.792   8.252   2.840
28996W        W92940  13.280   0.757   1.892
28997W        W92941  22.512   0.768   4.689
28998W        W92942   9.663  25.178   4.739
28999W        W92943   7.396   7.687   0.413
29000W        W92944  16.258  17.271   1.268
29001W        W92945  18.687  11.815  13.993
29002W        W92946   6.400  37.483  14.852
29003W        W92947   1.905  43.793  13.029
29004W        W92948  12.730  38.975  13.456
29005W        W92949  19.601  12.633  14.952
29006W        W92950  36.021  10.833  13.897
29007W        W92951  43.875  27.644  12.391
29008W        W92952  13.838  30.916  10.466
29009W        W92953   6.739  42.342   4.301
29010W        W92954  38.448  13.343  11.047
29011W        W92955  25.073  11.862  11.904
29012W        W92956  28.554  34.075  14.025
29013W        W92957  11.200  12.301  11.997
29014W        W92958  43.466  22.723  12.519
29015W        W92959  19.217  17.281   1.760
29016W        W92960   7.338  37.922  14.007
29017W        W92961  39.463  11.797   0.470
29018W        W92962  15.155   5.776  10.985
29019W        W92963  31.611  36.531   3.791
29020W        W92964  14.302  15.322   0.946
29021W        W92965  35.997   8.753   4.340
29022W        W92966   5.211  38.988   0.784
29023W        W92967  27.462   6.904   0.351
29024W        W92968  14.276  35.528  12.400
29025W        W92969  43.885  31.461   2.850
29026W        W92970  38.992  13.171  14.793
29027W        W92971  24.978  35.436   2.834
29028W        W92972  32.123  34.468   2.681
29029W        W92973  29.532  14.796   2.860
29030W        W92974   9.358  14.791  13.495
29031W        W92975  43.913   7.282   4.252
29032W        W92976  12.695  12.760  10.479
29033W        W92977   5.808  31.924  10.518
29034W        W92978  16.278  22.525  11.097
29035W        W92979   8.664   4.385   1.694
29036W        W92980   7.870  25.092   3.362
29037W        W92981  13.191  18.771   4.116
29038W        W92982   5.298  32.925   1.421
29039W        W92983  18.652   1.368  14.782
29040W        W92984  14.137   7.676  10.493
29041W        W92985  38.344  32.916  12.028
29042W        W92986  13.189  30.517   2.404
29043W        W92987  30.625  16.588  11.578
29044W        W92988  41.913   5.752   4.818
29045W        W92989  39.506  33.957   4.778
29046W        W92990   5.403  24.091   4.234
29047W        W92991  22.163  24.541  13.544
29048W        W92992  14.781  20.077  10.440
29049W        W92993  25.487  30.643   4.335
29050W        W92994  19.556  10.648   1.241
29051W        W92995  43.005  20.246   3.346
29052W        W92996  19.247  42.296   4.629
29053W        W92997  33.040   9.324  12.080
29054W        W92998  21.680   7.834   0.368
29055W        W92999  19.750  17.791  12.546
29056W        W93000  37.541  36.383  10.917
29057W        W93001   7.785   6.358   3.376
29058W        W93002  44.883  11.281   0.420
29059W        W93003  42.782  20.078   2.866
29060W        W93004   6.858   0.461   0.269
29061W        W93005  27.145   3.314  14.863
29062W        W93006  30.515   3.905  11.594
29063W        W93007   9.694   3.426   3.770
29064W        W93008   7.875  26.556   0.906
29065W        W93009   2.843  10.782  14.794
29066W        W93010  21.737  20.061  13.478
29067W        W93011   5.369  37.896  10.588
29068W        W93012  17.585  29.652   0.741
29069W        W93013  39.455  21.714  13.328
29070W        W93014  38.046   9.236   4.121
29071W        W93015  32.983  17.269   0.345
29072W        W93016  33.389  33.112   1.814
29073W        W93017   2.933  33.479  14.393
29074W        W93018  17.279  21.531  12.028
29075W        W93019  20.241   2.747  14.820
29076W        W93020  24.038  13.290  14.955
29077W        W93021   0.978  23.167   1.373
29078W        W93022  29.662  19.267   3.869
29079W        W93023  18.119  40.959  12.482
29080W        W93024  19.548  20.575  11.989
29081W        W93025  23.061   4.903  11.055
29082W        W93026  28.534  38.930  11.888
29083W        W93027   2.842   2.361  14.995
29084W        W93028  41.973  39.061   0.477
29085W        W93029  26.195  18.718  14.012
29086W        W93030   8.370  39.933  12.887
29087W        W93031   0.758  12.276  12.391
29088W        W93032  18.710   8.674   1.222
29089W        W93033  32.110  44.926   2.181
29090W        W93034  27.519  14.636   1.369
29091W        W93035   3.833   4.812   4.290
29092W        W93036  43.766  30.123  11.077
29093W        W93037  33.612   9.240   0.855
29094W        W93038  18.295   3.309   2.397
29095W        W93039  31.527   6.833   0.925
29096W        W93040  20.632  32.440   0.285
29097W        W93041  35.478  37.040  10.586
29098W        W93042  16.183  37.564  14.466
29099W        W93043  25.129  11.338  13.391
29100W        W93044  30.637  43.297  13.358
29101W        W93045   8.332  32.897  13.954
29102W        W93046  30.489  23.673   2.870
29103W        W93047  11.313  25.109  14.492
29104W        W93048  35.463  24.038  11.087
29105W        W93049  40.876   1.936   0.735
29106W        W93050  37.028  18.655  13.527
29107W        W93051  25.190  15.704   1.449
29108W        W93052   9.339   7.891  14.001
29109W        W93053  17.117  36.978  14.821
29110W        W93054  41.347  31.148   2.892
29111W        W93055   9.199   3.786   2.750
29112W        W93056   3.307  44.880   1.729
29113W        W93057   0.270   3.414   4.612
29114W        W93058  17.565  31.408   3.704
29115W        W93059  39.542  37.996  14.311
29116W        W93060  20.615  33.937  12.918
29117W        W93061  14.271   3.763   4.598
29118W        W93062  32.476  19.723  11.983
29119W        W93063  33.614  36.501  13.430
29120W        W93064   8.212  21.607   2.202
29121W        W93065  26.523   5.727  13.898
29122W        W93066  38.905   7.762   2.785
29123W        W93067  30.525  13.758  13.966
29124W        W93068  40.050  26.956   4.328
29125W        W93069  13.231  32.608  13.963
29126W        W93070  39.926   1.303   3.742
29127W        W93071  26.485  25.993  12.065
29128W        W93072  32.957   3.289   3.306
29129W        W93073  44.759  41.973  12.911
29130W        W93074   4.796  22.151   3.341
29131W        W93075  14.199  21.576  10.608
29132W        W93076  17.786  10.253   2.277
29133W        W93077   2.752  37.996   0.879
29134W        W93078  19.710   2.818   0.314
29135W        W93079  21.062  28.443   2.672
29136W        W93080  24.071  22.682   4.832
29137W        W93081   1.327  14.189   1.746
29138W        W93082  19.562  29.026  14.776
29139W        W93083  18.681  26.637  10.618
29140W        W93084  39.887  26.591  14.512
29141W        W93085   0.331  21.687  10.482
29142W        W93086  26.164  15.094   1.887
29143W        W93087  43.782   8.207  14.767
29144W        W93088  42.378  25.619  10.634
29145W        W93089  25.557  39.898   2.841
29146W        W93090   8.824  43.790   4.168
29147W        W93091  17.580  13.822   2.710
29148W        W93092  31.551  44.415  11.594
29149W        W93093   7.260  10.737   4.351
29150W        W93094  19.260  10.167  14.826
29151W        W93095  11.356   4.903  12.971
29152W        W93096  44.479  30.421  12.884
29153W        W93097   9.205   4.238   4.218
29154W        W93098  29.033   5.813  10.422
29155W        W93099  17.693  36.891  11.046
29156W        W93100  36.564  16.212  12.539
29157W        W93101  40.997  27.106  12.469
29158W        W93102  20.710  35.946  10.952
29159W        W93103  30.612   3.934   2.702
29160W        W93104  38.423   7.730   3.720
29161W        W93105  44.268  28.941  11.010
29162W        W93106  24.137  40.845  10.938
29163W        W93107  35.070  22.236  14.765
29164W        W93108   4.374  39.032   0.371
29165W        W93109  34.890  30.441   3.201
29166W        W93110  39.346   2.953  14.494
29167W        W93111  13.717  23.113  12.427
29168W        W93112  30.056   5.426   4.649
29169W        W93113  24.649  28.111  12.545
29170W        W93114  22.738  11.663  12.418
29171W        W93115  40.492   3.278  13.491
29172W        W93116  18.203   9.216  11.582
29173W        W93117  16.789  21.121   2.756
29174W        W93118  34.425  13.175   4.604
29175W        W93119   1.280  39.936  13.036
29176W        W93120  28.128  23.542   2.807
29177W        W93121   5.255   8.685  13.327
29178W        W93122  27.957  29.154   4.279
29179W        W93123  36.510  23.214   4.679
29180W        W93124  41.810  30.630   5.215
29181W        W93125  18.296   5.364   4.221
29182W        W93126  22.142  37.997   3.860
29183W        W93127  27.027  18.643  14.502
29184W        W93128  37.911  16.771   4.136
29185W        W93129  18.762  12.190  13.945
29186W        W93130  36.374  29.442   2.193
29187W        W93131  34.506   9.847   3.188
29188W        W93132  14.330  27.023   2.807
29189W        W93133  23.649  38.917   4.679
29190W        W93134  34.484  22.722  12.985
29191W        W93135  22.686  37.920  12.910
29192W        W93136  21.019  20.672   0.824
29193W        W93137  25.573  11.191   1.807
29194W        W93138  22.059   1.931  13.794
29195W        W93139   4.331  20.177   3.806
29196W        W93140  22.125   4.942  12.847
29197W        W93141   8.264  26.155   3.747
29198W        W93142   9.334   1.472   2.894
29199W        W93143  43.473  32.083   2.902
29200W        W93144  10.654  30.571  10.044
29201W        W93145  36.036  34.092  14.316
29202W        W93146  44.784   6.868   0.255
29203W        W93147  22.705  38.479  11.375
29204W        W93148  22.550  30.599  12.372
29205W        W93149  10.641  27.485   4.696
29206W        W93150   3.814  17.282  11.460
29207W        W93151  22.996  22.232   1.913
29208W        W93152  42.498  15.089  12.849
29209W        W93153   0.467  23.158   4.189
29210W        W93154  21.261   7.805   2.805
29211W        W93155   9.324   4.290  12.885
29212W        W93156  34.952  18.558  11.376
29213W        W93157  21.070  13.148   3.218
29214W        W93158   8.368  39.881  10.492
29215W        W93159   5.323  27.590  12.895
29216W        W93160   6.215  19.624  12.997
29217W        W93161  16.164   0.901  11.953
29218W        W93162  15.585  42.994   0.888
29219W        W93163  37.074  17.707   0.302
29220W        W93164  44.319  18.758  14.451
29221W        W93165  28.611  26.539  12.464
29222W        W93166   6.315  22.180   1.852
29223W        W93167   2.232  30.650  14.388
29224W        W93168  37.506  35.076  14.843
29225W        W93169  10.637  20.167  14.446
29226W        W93170  19.617  17.211   2.685
29227W        W93171  32.971  30.564   2.849
29228W        W93172  18.786  35.537   3.361
29229W        W93173  10.206   7.865   0.745
29230W        W93174  17.064  30.418   3.700
29231W        W93175  42.859  11.805  11.086
29232W        W93176  21.197  25.522   2.324
29233W        W93177  26.572  38.886   1.282
29234W        W93178  21.622  16.227  13.908
29235W        W93179  38.342   7.832  10.627
29236W        W93180  41.957  27.672   4.237
29237W        W93181  40.026  10.226   1.423
29238W        W93182  35.894  15.307   0.243
29239W        W93183   0.816  17.072   0.333
29240W        W93184  30.489  31.070   1.395
29241W        W93185  18.154  20.562   2.882
29242W        W93186  10.732  17.765   3.181
29243W        W93187  40.494  37.929  12.832
29244W        W93188  15.801  32.021   0.861
29245W        W93189  26.526   1.793   0.282
29246W        W93190   0.923  16.785  11.445
29247W        W93191   6.715  26.703   1.231
29248W        W93192  15.604   0.940   3.653
29249W        W93193  30.483  10.195   3.821
29250W        W93194  43.973  40.910  13.354
29251W        W93195  40.886  44.290   1.407
29252W        W93196  13.645  17.709   0.946
29253W        W93197  22.665  19.691   1.695
29254W        W93198  25.669  34.945   5.202
29255W        W93199   3.923   4.850   0.288
29256W        W93200  15.302  22.583   4.339
29257W        W93201  30.133   4.424  10.635
29258W        W93202  17.224  11.745  11.875
29259W        W93203  28.469  42.778  10.106
29260W        W93204  36.930  38.481   1.238
29261W        W93205  26.028   3.915   1.246
29262W        W93206  23.716  40.863  14.829
29263W        W93207  10.300   5.739   1.216
29264W        W93208  20.692   3.834  13.425
29265W        W93209  34.930  16.767   0.353
29266W        W93210  11.670  11.692   1.701
29267W        W93211  16.124  41.905  14.463
29268W        W93212   3.891  25.214   2.396
29269W        W93213  23.105  10.185   4.791
29270W        W93214   1.947  29.086   4.737
29271W        W93215  16.656  38.435  12.879
29272W        W93216  28.045  21.727   4.316
29273W        W93217   0.294  10.826   2.681
29274W        W93218  14.821  13.137   4.259
29275W        W93219  23.224  43.930  13.828
29276W        W93220  36.469  41.885   1.872
29277W        W93221  15.152   5.871   4.319
29278W        W93222  26.082  36.879   1.751
29279W        W93223  42.317   1.835  12.840
29280W        W93224  31.118  37.015  11.019
29281W        W93225  37.418   4.745   2.753
29282W        W93226  41.347  32.036   2.732
29283W        W93227  27.044  31.442   4.306
29284W        W93228  20.079  18.170   9.986
29285W        W93229   6.762  28.513   2.873
29286W        W93230  43.931   5.226   1.232
29287W        W93231  18.086  31.947   4.686
29288W        W93232  18.172  39.432  14.346
29289W        W93233   4.278  28.085   1.780
29290W        W93234  34.937  38.524  13.473
29291W        W93235  17.175   4.447  11.927
29292W        W93236  17.173  24.061  14.842
29293W        W93237  29.647  10.866   0.245
29294W        W93238  38.076  30.950  14.805
29295W        W93239  13.310  36.405   3.316
29296W        W93240  20.135  15.598  10.082
29297W        W93241  21.107  13.232  10.435
29298W        W93242  23.724   6.806  14.295
29299W        W93243  43.406   8.752  10.111
29300W        W93244  11.196  15.156   3.666
29301W        W93245  44.893  41.505  10.412
29302W        W93246   2.318  16.634   1.699
29303W        W93247  26.515  44.888  14.891
29304W        W93248  26.059   6.800  14.388
29305W        W93249  44.877  34.940   3.770
29306W        W93250  36.556   4.916  14.359
29307W        W93251   9.807  33.932   1.282
29308W        W93252  20.524  40.428   2.180
29309W        W93253   3.781  22.127   0.795
29310W        W93254  15.281  11.369  11.008
29311W        W93255  14.212  22.201   3.717
29312W        W93256  43.770  30.053   3.763
29313W        W93257  38.361  43.874  14.396
29314W        W93258  35.526   5.934  10.522
29315W        W93259  25.540  34.038   2.286
29316W        W93260   4.277  19.148  10.547
29317W        W93261  23.705  43.943   0.881
29318W        W93262  40.845   1.433  12.466
29319W        W93263  38.984  41.878  13.966
29320W        W93264  34.598  12.185  11.900
29321W        W93265  25.662   8.269   2.346
29322W        W93266   7.389   6.322   0.834
29323W        W93267  33.997  33.004   2.389
29324W        W93268  42.449  29.545   1.387
29325W        W93269   6.194  40.034  14.490
29326W        W93270  31.076  43.903  13.458
29327W        W93271  40.933  10.650   3.693
29328W        W93272  42.888   2.312   0.252
29329W        W93273  28.558  21.152   2.271
29330W        W93274  14.654  32.527  11.415
29331W        W93275  41.889  16.277   4.201
29332W        W93276   5.900  43.783  10.551
29333W        W93277  33.995  10.779  13.980
29334W        W93278   0.462   9.316  12.516
29335W        W93279   4.397  18.570  12.420
29336W        W93280   1.398  34.880  14.342
29337W        W93281  17.623  14.832   0.726
29338W        W93282  17.769   8.656  13.483
29339W        W93283  18.257  21.091  10.553
29340W        W93284  20.070  20.766   4.314
29341W        W93285  22.178   6.274  14.396
29342W        W93286  21.750  27.149  13.803
29343W        W93287  44.845  15.783   0.247
29344W        W93288  37.908   5.787  11.414
29345W        W93289  38.457  26.568   4.828
29346W        W93290  27.602   8.763  14.434
29347W        W93291   1.402  42.341  11.583
29348W        W93292  20.541  21.210  11.064
29349W        W93293  32.479  38.986  11.937
29350W        W93294  17.799  25.666   0.323
29351W        W93295  26.968  42.848   2.808
29352W        W93296   7.682  41.003   4.711
29353W        W93297  42.398  21.100  11.112
29354W        W93298  24.541  39.513   4.692
29355W        W93299  41.993   5.204   4.269
29356W        W93300  27.652  35.108   0.448
29357W        W93301  31.950  19.128  11.930
29358W        W93302  24.198  11.796  14.781
29359W        W93303  26.154  35.062  12.888
29360W        W93304  14.709  15.210   3.172
29361W        W93305  37.403  16.226  14.765
29362W        W93306   1.346  28.016  11.388
29363W        W93307  18.264  16.749   0.266
29364W        W93308  19.650  18.547   5.298
29365W        W93309   8.813  40.525  12.427
29366W        W93310  28.950   1.904  12.500
29367W        W93311  41.352  34.580  13.809
29368W        W93312   7.296  19.228   4.325
29369W        W93313  19.114  42.835  14.793
29370W        W93314   0.333  26.199  11.023
29371W        W93315  29.648  35.947  13.400
29372W        W93316  34.116  42.966  13.422
29373W        W93317  35.386  33.559   0.871
29374W        W93318  37.055  13.723   1.918
29375W        W93319  33.953  24.004  14.483
29376W        W93320  17.787  25.100  14.895
29377W        W93321  40.898  14.752  10.898
29378W        W93322  34.377  13.807  11.401
29379W        W93323  10.240  13.181   2.328
29380W        W93324   4.261  42.010   3.256
29381W        W93325  31.974  13.606   2.846
29382W        W93326  19.177   5.763   2.785
29383W        W93327   8.849  19.662   0.854
29384W        W93328  21.575   6.888  12.071
29385W        W93329  14.824  13.819  10.496
29386W        W93330  13.218  43.958  13.459
29387W        W93331  26.051  27.110   4.820
29388W        W93332  20.074  31.037   3.743
29389W        W93333  30.082  14.229   2.268
29390W        W93334   3.267  10.331   2.861
29391W        W93335   5.370  40.023  12.008
29392W        W93336  42.847   0.961   0.325
29393W        W93337  37.485  10.670  10.421
29394W        W93338  13.222  35.909  10.967
29395W        W93339  28.560  34.099   4.669
29396W        W93340   9.393  33.414  12.569
29397W        W93341   9.795  35.022   3.821
29398W        W93342  41.511  35.928  14.380
29399W        W93343  12.706  35.489  10.572
29400W        W93344   7.373  14.763  11.426
29401W        W93345  36.975   2.924  12.841
29402W        W93346  41.316  42.358  13.457
29403W        W93347  40.881  37.985   0.952
29404W        W93348  12.299  24.107   0.353
29405W        W93349  24.018  22.136   3.163
29406W        W93350  44.840  15.141  11.592
29407W        W93351   0.265  44.804  13.347
29408W        W93352  41.421  27.992   0.858
29409W        W93353   4.314   0.480  10.954
29410W        W93354   4.247   7.879   5.139
29411W        W93355  39.416  31.121   0.916
29412W        W93356  30.625  15.726  12.504
29413W        W93357  28.595   4.323   2.275
29414W        W93358  11.779  18.273  12.397
29415W        W93359  20.188  43.488   4.683
29416W        W93360   7.879  10.713  11.495
29417W        W93361  35.088  38.356  10.467
29418W        W93362  24.133  34.939  14.899
29419W        W93363  29.079  10.252  14.326
29420W        W93364  40.979  26.180  10.526
29421W        W93365   9.858  43.793   3.698
29422W        W93366  25.193  15.228   3.379
29423W        W93367  25.134  25.603  12.846
29424W        W93368  28.444  11.757  12.567
29425W        W93369   0.851  18.578  14.296
29426W        W93370  32.010   1.456   4.658
29427W        W93371  11.763   1.797  13.421
29428W        W93372  38.986  16.702   3.748
29429W        W93373  15.258   9.650  11.928
29430W        W93374  29.174  28.185  11.429
29431W        W93375  25.996  12.654   1.935
29432W        W93376  25.534  35.012  11.455
29433W        W93377  41.505  20.053  14.502
29434W        W93378  29.505  42.862   3.827
29435W        W93379  41.423  20.672  10.894
29436W        W93380  26.110  25.172  12.056
29437W        W93381  18.051  30.522  14.794
29438W        W93382  14.138   4.793   4.708
29439W        W93383  19.066  32.116   3.177
29440W        W93384   6.850  15.649  10.436
29441W        W93385   5.415  39.923   4.786
29442W        W93386  17.079  17.281  12.006
29443W        W93387  13.683  26.594   0.920
29444W        W93388  15.154  33.608  14.291
29445W        W93389  16.590  10.319  13.810
29446W        W93390  37.075  43.916   4.232
29447W        W93391  25.112  28.011   4.813
29448W        W93392  35.079  25.131  10.642
29449W        W93393  18.283  33.086  14.396
29450W        W93394  42.851  22.159  13.528
29451W        W93395  34.376  33.396   3.277
29452W        W93396  17.305  18.112   1.283
29453W        W93397  44.827  29.976  12.026
29454W        W93398  25.102  41.914  14.366
29455W        W93399   1.849  11.689   1.329
29456W        W93400  30.579  22.615   3.659
29457W        W93401  28.531  38.345   3.699
29458W        W93402  24.164  34.508  14.997
29459W        W93403  40.515  13.246   1.774
29460W        W93404  20.607  21.080   3.210
29461W        W93405  26.195  35.898  13.044
29462W        W93406  40.317  39.475   3.280
29463W        W93407   8.246  41.014  12.501
29464W        W93408   0.441  31.534   3.812
29465W        W93409  31.641  10.642  12.891
29466W        W93410  32.533  23.134  11.892
29467W        W93411  12.171  33.438  13.062
29468W        W93412  19.636  15.765  12.876
29469W        W93413  23.572  24.517   4.196
29470W        W93414  39.338   4.847  14.400
29471W        W93415  41.977  19.079  11.106
29472W        W93416  44.823  31.918  14.410
29473W        W93417  32.625  18.588  12.845
29474W        W93418  43.882  40.392   4.213
29475W        W93419  31.981  44.877   3.732
29476W        W93420   1.783  40.349  13.548
29477W        W93421  42.335   6.818  11.509
29478W        W93422  22.071  25.057   1.708
29479W        W93423   4.439  41.895  12.004
29480W        W93424  21.058  14.130  11.045
29481W        W93425  44.482  25.545   1.314
29482W        W93426  19.667  20.173  12.911
29483W        W93427  43.372  17.084  13.825
29484W        W93428  13.312  28.649  13.316
29485W        W93429   8.655  21.186   2.680
29486W        W93430  11.184  33.098   1.906
29487W        W93431  34.903   8.812  10.040
29488W        W93432   8.724   3.238   0.343
29489W        W93433  21.223  14.766   0.351
29490W        W93434  35.079  12.338  11.459
29491W        W93435   1.441  29.529  14.760
29492W        W93436  42.781  35.036   3.248
29493W        W93437  28.047   3.714   2.674
29494W        W93438  30.471   3.304  10.588
29495W        W93439   1.814   3.755  11.931
29496W        W93440  21.208  26.972   3.752
29497W        W93441  23.158  34.953   4.139
29498W        W93442  11.295  13.120   0.904
29499W        W93443  36.507  10.805   1.210
29500W        W93444  40.975   1.411  12.861
29501W        W93445  16.154  16.112  12.951
29502W        W93446  31.602  36.966   0.883
29503W        W93447  12.278  33.516  11.995
29504W        W93448  19.742  14.757   5.085
29505W        W93449  11.278  20.048  11.926
29506W        W93450   3.938   6.394   1.272
29507W        W93451   1.852  16.118   2.308
29508W        W93452  28.567   9.700  11.436
29509W        W93453  12.857  37.088  10.957
29510W        W93454  24.595  15.122  11.000
29511W        W93455  33.514  24.597   1.773
29512W        W93456  10.293  22.648  12.068
29513W        W93457   4.441   3.776   2.415
29514W        W93458  33.556   7.267  10.456
29515W        W93459  42.382  20.252   4.735
29516W        W93460  10.246   9.181  13.821
29517W        W93461   2.892  36.460  10.950
29518W        W93462   6.865   5.739   2.697
29519W        W93463   6.884  18.649  13.901
29520W        W93464  13.313   5.870  13.009
29521W        W93465  24.074  41.334  12.901
29522W        W93466  42.853  27.592   3.843
29523W        W93467  40.472  14.303   0.366
29524W        W93468  31.899  14.213   0.396
29525W        W93469  36.552   6.336  13.794
29526W        W93470  41.042  32.901  11.607
29527W        W93471  10.737  31.594  12.495
29528W        W93472  11.792  39.486  11.457
29529W        W93473  16.671   6.272   0.330
29530W        W93474   1.476  13.605   4.741
29531W        W93475   1.874   7.745   4.795
29532W        W93476  40.001  42.289  11.037
29533W        W93477  20.527  16.183   2.271
29534W        W93478  26.014  44.818   3.166
29535W        W93479  37.925  11.661   1.705
29536W        W93480  18.695  31.420  13.435
29537W        W93481  39.942  16.225  11.119
29538W        W93482  28.989   7.199  14.358
29539W        W93483  13.324  22.126   2.390
29540W        W93484  12.235   3.461   4.144
29541W        W93485  40.462  31.898  12.570
29542W        W93486   0.333  14.753   1.853
29543W        W93487  29.487  30.564  12.901
29544W        W93488  33.582  24.197  10.643
29545W        W93489  35.467  43.454   2.719
29546W        W93490  15.765   7.666   1.220
29547W        W93491  29.536   0.265  11.575
29548W        W93492  24.070   3.242   3.812
29549W        W93493  40.054  11.188  14.824
29550W        W93494   9.149  25.700   1.261
29551W        W93495  40.895   4.360  14.002
29552W        W93496  38.544  14.314  12.902
29553W        W93497   1.303  14.808   4.740
29554W        W93498  17.660  12.851   1.240
29555W        W93499  26.954   0.964   0.773
29556W        W93500   9.276  16.244  14.961
29557W        W93501  43.393  30.022   1.210
29558W        W93502  20.657  29.022   0.829
29559W        W93503  35.928  11.198  13.473
29560W        W93504  20.661  12.247  14.427
29561W        W93505   3.342  24.006   0.405
29562W        W93506  32.017  27.988  13.497
29563W        W93507   2.414   4.420   1.330
29564W        W93508  39.526  30.454  14.806
29565W        W93509   2.966   7.803   3.692
29566W        W93510   8.275  35.543  13.477
29567W        W93511   8.722  29.424  12.491
29568W        W93512  30.594  18.138  11.985
29569W        W93513  30.564  25.148  10.575
29570W        W93514  38.455  36.905   0.251
29571W        W93515  20.603  19.576  11.058
29572W        W93516  15.666  18.574   2.406
29573W        W93517  15.151   6.900   4.289
29574W        W93518  22.124   9.704  13.034
29575W        W93519  27.158  43.357  14.401
29576W        W93520  43.766  39.026  12.377
29577W        W93521   0.857  35.102  13.519
29578W        W93522  27.121   6.307   4.184
29579W        W93523  11.801  33.495   2.712
29580W        W93524  11.837   2.293  12.428
29581W        W93525  24.084  38.458  12.456
29582W        W93526  28.956   2.330   0.361
29583W        W93527   9.647  34.024  10.996
29584W        W93528  33.596  22.642   0.843
29585W        W93529  13.747  17.258  12.974
29586W        W93530   0.938   4.296  12.085
29587W        W93531  25.039  36.444  13.443
29588W        W93532  40.484   1.880   5.322
29589W        W93533  29.996  35.019  11.463
29590W        W93534  36.041   2.321  12.039
29591W        W93535   3.413  13.221   0.380
29592W        W93536  19.538  35.371   1.307
29593W        W93537  20.629  19.267   2.865
29594W        W93538  40.968  14.257   1.258
29595W        W93539  34.988  35.490   4.831
29596W        W93540   2.268  14.331   5.217
29597W        W93541  20.095  23.605  14.363
29598W        W93542  42.914  17.153  10.487
29599W        W93543   8.404  35.601  14.416
29600W        W93544  33.487  16.637  10.498
29601W        W93545  18.728  13.206   4.322
29602W        W93546  14.255  26.657  14.761
29603W        W93547   6.909  37.391  11.540
29604W        W93548  22.042  44.284   4.199
29605W        W93549  27.179   8.229  12.504
29606W        W93550   9.829  43.978   3.235
29607W        W93551   1.949  40.457  14.398
29608W        W93552  19.076  33.925   2.278
29609W        W93553   7.859   2.439   3.718
29610W        W93554  15.596  31.546  11.929
29611W        W93555  24.557  35.459  12.916
29612W        W93556  37.369  33.563  13.982
29613W        W93557  44.787  41.041  12.020
29614W        W93558  39.491  14.151  13.386
29615W        W93559   0.886   2.360   1.399
29616W        W93560  33.423  22.055  14.001
29617W        W93561  19.186  20.162  12.380
29618W        W93562   7.227  23.022   3.169
29619W        W93563  41.350   2.862  10.092
29620W        W93564   3.349  31.549  13.997
29621W        W93565  37.576  42.456  14.961
29622W        W93566   3.231   0.932  14.932
29623W        W93567   8.811  37.889  14.918
29624W        W93568  24.695  26.084   0.373
29625W        W93569   3.415  38.926   0.289
29626W        W93570  20.549  35.376  11.101
29627W        W93571   4.313   6.338  13.939
29628W        W93572   6.741  36.928  10.940
29629W        W93573  22.205  29.068  14.765
29630W        W93574  10.708  31.582   1.268
29631W        W93575   4.718  17.586  14.938
29632W        W93576   8.894  28.950  13.863
29633W        W93577   5.348  22.216   0.403
29634W        W93578  13.699  33.420  12.454
29635W        W93579   7.359  13.273   1.318
29636W        W93580  29.176  27.493  10.926
29637W        W93581  10.690  12.813  13.826
29638W        W93582  19.258  38.038  13.895
29639W        W93583  35.589  33.547  10.961
29640W        W93584  31.639  27.560   2.270
29641W        W93585   4.384  31.454  11.089
29642W        W93586  11.307   5.795   4.735
29643W        W93587  17.097  19.582  11.592
29644W        W93588   8.722  17.568   3.269
29645W        W93589  17.785  29.130   0.833
29646W        W93590   5.318  28.662   2.845
29647W        W93591  16.092   5.763   2.369
29648W        W93592  19.542  37.439  10.908
29649W        W93593  20.268  34.023  10.897
29650W        W93594   4.856  16.619  14.361
29651W        W93595  26.957  44.999  11.589
29652W        W93596  44.435  35.005  14.920
29653W        W93597  10.653   8.656   2.833
29654W        W93598  40.003  10.377  13.924
29655W        W93599   7.287  24.978   1.845
29656W        W93600  17.643  17.280   0.311
29657W        W93601   4.293  17.154   3.225
29658W        W93602  38.445  29.937  11.870
29659W        W93603  27.085  27.977  10.139
29660W        W93604   7.735  17.562  13.842
29661W        W93605  28.959  12.828  12.388
29662W        W93606  17.204   5.842   1.789
29663W        W93607  41.379  11.802  14.404
29664W        W93608  21.587  31.141   1.330
29665W        W93609  32.450  10.323  12.470
29666W        W93610   8.348   8.769   2.815
29667W        W93611   7.886   8.378  13.383
29668W        W93612  38.343  40.816   2.887
29669W        W93613  40.510  30.000  13.507
29670W        W93614  34.551  26.524  13.882
29671W        W93615  27.471  15.685   1.886
29672W        W93616  19.088  16.715   3.823
29673W        W93617  40.858  18.550   0.310
29674W        W93618  16.696  22.198  11.892
29675W        W93619  34.559  15.203  13.540
29676W        W93620  35.498  33.502  14.322
29677W        W93621   2.442  19.242   0.435
29678W        W93622  12.231   6.324  13.001
29679W        W93623  36.992  34.467   0.417
29680W        W93624  11.794  28.019  10.002
29681W        W93625  25.589  37.841  14.307
29682W        W93626  43.837  27.574   3.664
29683W        W93627  29.955  20.595   2.408
29684W        W93628   1.341  32.055   3.152
29685W        W93629   3.332  12.654  13.893
29686W        W93630  24.722  10.748   0.344
29687W        W93631  18.552  43.407  13.311
29688W        W93632   4.329  17.709   1.378
29689W        W93633  17.678  43.356   0.388
29690W        W93634  16.619  32.577   1.383
29691W        W93635  33.497  28.635   1.397
29692W        W93636  32.066   0.400   1.824
29693W        W93637  34.088  30.079   2.786
29694W        W93638   2.274   5.847  12.407
29695W        W93639  21.633  26.966   4.352
29696W        W93640   6.186   7.255  12.419
29697W        W93641   1.258   1.868   2.360
29698W        W93642   6.719  33.090   2.820
29699W        W93643  32.426  38.877  11.522
29700W        W93644  28.542  31.513   3.743
29701W        W93645  34.397  33.976   4.759
29702W        W93646  16.090  14.137  11.506
29703W        W93647   4.705   5.379   4.303
29704W        W93648  17.202  40.401   4.691
29705W        W93649   2.306  15.720  10.444
29706W        W93650  23.085  10.305   4.197
29707W        W93651  29.030   7.680   1.813
29708W        W93652  31.542  43.464   0.418
29709W        W93653  22.249  43.401  14.907
29710W        W93654  34.397  18.256   3.645
29711W        W93655  37.980  21.209   5.221
29712W        W93656  13.309  35.066   4.825
29713W        W93657  44.779  19.660  13.476
29714W        W93658  25.636  44.379  11.957
29715W        W93659  34.995  18.122   9.946
29716W        W93660  26.658  18.586   4.775
29717W        W93661  22.614  26.174   2.244
29718W        W93662  43.917   7.191   1.247
29719W        W93663  20.245  25.193   0.846
29720W        W93664  35.601  14.116   2.406
29721W        W93665  24.718  32.565   4.733
29722W        W93666   0.808  41.461  12.987
29723W        W93667  31.466  21.660  13.848
29724W        W93668  21.147  38.893  10.938
29725W        W93669  40.989  39.506  12.075
29726W        W93670  18.662  33.889  11.610
29727W        W93671   5.403  18.732  10.894
29728W        W93672  34.908  27.086   3.746
29729W        W93673  25.220  23.718   1.786
29730W        W93674  15.213  30.564  11.094
29731W        W93675  33.958   3.391  11.478
29732W        W93676   3.446  42.289   0.368
29733W        W93677  16.145  23.104  10.132
29734W        W93678  20.223  30.912  13.904
29735W        W93679   2.352  44.310  10.485
29736W        W93680  14.144  29.090  13.041
29737W        W93681  29.079  24.034   4.769
29738W        W93682  19.666  15.708  14.501
29739W        W93683  26.014  38.067  11.457
29740W        W93684  34.988  33.122  13.971
29741W        W93685  11.652  18.101  14.339
29742W        W93686  15.603  18.217  13.316
29743W        W93687  15.634  18.220   9.964
29744W        W93688  13.345  17.082   0.436
29745W        W93689   8.846  17.565   0.855
29746W        W93690  14.261  15.677   4.678
29747W        W93691  44.960  23.025   2.417
29748W        W93692  33.982  21.553   0.473
29749W        W93693  13.656  10.309   0.474
29750W        W93694   9.216  30.466  14.511
29751W        W93695  29.968   9.260   3.700
29752W        W93696  27.113  24.078   4.637
29753W        W93697  39.473  32.475  14.935
29754W        W93698  29.004   5.281   0.305
29755W        W93699  21.144   8.218   2.787
29756W        W93700   3.320  18.759   1.883
29757W        W93701  12.826  17.641   0.289
29758W        W93702  38.567  18.601  12.531
29759W        W93703  26.630  22.727  13.473
29760W        W93704  32.550   0.486  14.390
29761W        W93705  28.606  32.513  10.951
29762W        W93706  36.546   2.955  12.864
29763W        W93707   7.366  10.682  12.993
29764W        W93708  12.612  24.627   2.264
29765W        W93709   4.228  30.057  12.427
29766W        W93710   7.875  13.747  14.909
29767W        W93711   3.846  19.050   0.901
29768W        W93712  21.123  36.989  10.523
29769W        W93713  11.133   1.297  12.369
29770W        W93714   3.236  31.988   4.646
29771W        W93715  41.474   7.844   1.763
29772W        W93716  25.661  14.608  13.930
29773W        W93717  37.462  20.124   1.888
29774W        W93718  26.070   2.282  12.850
29775W        W93719  44.757  12.611  10.419
29776W        W93720  16.272  40.872  13.369
29777W        W93721  23.543  35.504  10.937
29778W        W93722   8.891  33.986  11.094
29779W        W93723  18.694  29.632  13.825
29780W        W93724   2.451   0.752  13.043
29781W        W93725  29.138  42.883  11.415
29782W        W93726  23.215  30.058   2.771
29783W        W93727  26.004  39.979   3.746
29784W        W93728  33.888  16.743  12.434
29785W        W93729  35.102  15.253  14.363
29786W        W93730  44.791  18.565   3.385
29787W        W93731   3.449  10.689  12.826
29788W        W93732  12.686  44.501  13.055
29789W        W93733  35.478  20.162  14.507
29790W        W93734  37.582  22.681   0.304
29791W        W93735  25.685  25.105   1.857
29792W        W93736   4.341  14.333  11.507
29793W        W93737  39.032  10.259   1.898
29794W        W93738   2.922  19.073   0.416
29795W        W93739  20.609  35.000   4.828
29796W        W93740  14.116  21.109   4.327
29797W        W93741  34.567   7.174  12.449
29798W        W93742  32.008  18.699  11.037
29799W        W93743  22.735   3.303   1.929
29800W        W93744   9.341  12.824   3.254
29801W        W93745  42.479  37.025  10.974
29802W        W93746   2.736  42.438  13.463
29803W        W93747  37.404  35.403  10.594
29804W        W93748   7.219  24.176  10.927
29805W        W93749  25.197  30.581   4.155
29806W        W93750  37.837  28.464   4.796
29807W        W93751  31.581  30.601   3.796
29808W        W93752  23.524  24.568  12.562
29809W        W93753  30.585  26.012   4.217
29810W        W93754  27.130  22.560  12.363
29811W        W93755  31.595   5.913   1.340
29812W        W93756  35.482   0.336   3.272
29813W        W93757  18.203  39.952  10.460
29814W        W93758  35.482   1.764  14.349
29815W        W93759  15.789  15.166   1.898
29816W        W93760  34.542  17.145  10.417
29817W        W93761  40.344  22.700  10.021
29818W        W93762  19.644  40.367   2.894
29819W        W93763  11.168  29.556  12.551
29820W        W93764  23.557  32.441  13.014
29821W        W93765  29.607   6.904   1.861
29822W        W93766  21.641  28.078   4.668
29823W        W93767  42.483  15.258   0.895
29824W        W93768  38.382   2.415  11.521
29825W        W93769  36.041  36.961   0.950
29826W        W93770   8.193  36.562   0.299
29827W        W93771   8.248  42.973   2.260
29828W        W93772  16.714   9.176  10.959
29829W        W93773  23.197  39.956  13.960
29830W        W93774  21.511  17.216  13.471
29831W        W93775  44.399  13.162   3.263
29832W        W93776  37.454  29.513   2.219
29833W        W93777   4.283  11.300  13.904
29834W        W93778  10.217  36.858  13.944
29835W        W93779  44.365  18.708   4.284
29836W        W93780   2.400  42.902  10.974
29837W        W93781  44.314  12.140  10.543
29838W        W93782   7.897  17.653  14.808
29839W        W93783  35.545  18.162  11.429
29840W        W93784  29.061   6.230   4.790
29841W        W93785  28.934  29.961  12.450
29842W        W93786  13.260  34.478   9.937
29843W        W93787  32.964   8.382   1.697
29844W        W93788  34.371  38.954   2.371
29845W        W93789  44.370  33.080  13.404
29846W        W93790   7.204   2.751  13.311
29847W        W93791  17.601   5.195   2.410
29848W        W93792  14.210  18.628  13.310
29849W        W93793  16.218  20.046   3.208
29850W        W93794   4.778   7.414  13.999
29851W        W93795  43.983  26.075   1.918
29852W        W93796  35.942   0.742   4.115
29853W        W93797  23.176  34.484   4.629
29854W        W93798   8.176  33.441  11.004
29855W        W93799   3.395  43.775   2.756
29856W        W93800  16.701   6.764  13.973
29857W        W93801   1.947  39.962   1.906
29858W        W93802  24.504  32.937   0.339
29859W        W93803   6.263  25.539   1.274
29860W        W93804  43.418   8.401  12.453
29861W        W93805   3.834   0.767  10.615
29862W        W93806  41.429   4.252   0.478
29863W        W93807  35.913   7.264  11.037
29864W        W93808  42.298  29.534   4.214
29865W        W93809  37.047  15.750  12.010
29866W        W93810  44.960  34.985  10.598
29867W        W93811   2.924  43.978  10.509
29868W        W93812  38.544   9.745   3.308
29869W        W93813  39.907  16.199  14.005
29870W        W93814   5.347  42.371  12.055
29871W        W93815  32.550  11.849  13.379
29872W        W93816  42.777  31.474  13.998
29873W        W93817  20.689  13.723  11.395
29874W        W93818   4.933  30.921   3.863
29875W        W93819  35.096   4.839  13.905
29876W        W93820  42.501  15.608  12.467
29877W        W93821  40.337  12.691  12.075
29878W        W93822  25.527   2.931  14.307
29879W        W93823  15.747   8.246   1.242
29880W        W93824  18.649  20.036   4.619
29881W        W93825  29.070  10.674   4.220
29882W        W93826  35.413   7.888   0.938
29883W        W93827   3.812  12.659   2.831
29884W        W93828  30.507   4.243  14.018
29885W        W93829  39.483  43.988   2.737
29886W        W93830  36.910  36.080  13.317
29887W        W93831  29.160  25.088  14.796
29888W        W93832  11.283  37.579   3.744
29889W        W93833  14.323  17.710   2.858
29890W        W93834  36.556  13.325   4.224
29891W        W93835  15.104  17.712   2.824
29892W        W93836  14.193  42.373  14.804
29893W        W93837  28.159  10.303   5.147
29894W        W93838  12.153  44.443  14.464
29895W        W93839  12.346  38.010  13.483
29896W        W93840  34.040   8.857   9.968
29897W        W93841  39.908  44.465   0.765
29898W        W93842  12.673  12.685  12.573
29899W        W93843   3.732  18.742  12.075
29900W        W93844  39.011  36.503  14.393
29901W        W93845  21.097   9.820   4.683
29902W        W93846  15.251  38.884  10.446
29903W        W93847  43.829   6.274  10.597
29904W        W93848  40.481  12.838   0.770
29905W        W93849  26.629   9.735  13.014
29906W        W93850  33.408  10.192  14.349
29907W        W93851  36.953  23.192   2.284
29908W        W93852  20.174   6.713  13.967
29909W        W93853  26.167   3.215  13.446
29910W        W93854  33.915  22.659   2.670
29911W        W93855  39.560  14.591   2.898
29912W        W93856  20.263   5.717  14.405
29913W        W93857  22.563   2.762  12.059
29914W        W93858  30.457  19.695  14.373
29915W        W93859  32.928  26.093   0.822
29916W        W93860  39.531  13.334  12.392
29917W        W93861   6.723  13.786   1.372
29918W        W93862  29.106  33.034  14.763
29919W        W93863  21.577  29.155   3.671
29920W        W93864  13.325  18.084   3.820
29921W        W93865   4.867  30.096   3.385
29922W        W93866  22.598  35.536  11.537
29923W        W93867   1.921  14.779  10.931
29924W        W93868  30.926   1.482   1.252
29925W        W93869   4.327  22.686   1.714
29926W        W93870  35.551  31.431  11.407
29927W        W93871  40.886  15.734  14.834
29928W        W93872   7.354  26.555  12.028
29929W        W93873  16.290  41.468  12.079
29930W        W93874  43.904  41.839   1.295
29931W        W93875  16.075  12.245  13.482
29932W        W93876  39.932   6.804   3.180
29933W        W93877  26.515   3.224   1.703
29934W        W93878  43.766  24.572  11.009
29935W        W93879  10.361  22.049  12.923
29936W        W93880  28.641  41.446  14.858
29937W        W93881  10.170   3.834  14.832
29938W        W93882  26.067  12.746   0.809
29939W        W93883   1.861  29.568   0.301
29940W        W93884  42.330   7.219   2.853
29941W        W93885  36.431  27.146   0.953
29942W        W93886  13.268  44.332   0.963
29943W        W93887  23.540  15.765  13.005
29944W        W93888   0.863  17.628  11.055
29945W        W93889  35.944  31.151   1.920
29946W        W93890  10.691   8.717  12.918
29947W        W93891  44.260  16.184   9.984
29948W        W93892  33.078   2.782  12.452
29949W        W93893   1.382  20.576   4.636
29950W        W93894  27.028  42.292  13.522
29951W        W93895  37.000  16.589  11.493
29952W        W93896   1.348  23.664   2.226
29953W        W93897   2.409  32.941   4.295
29954W        W93898  31.553  39.924   3.694
29955W        W93899  44.493   6.245  12.088
29956W        W93900  38.024  23.652  13.024
29957W        W93901  38.820  26.496   1.747
29958W        W93902  23.239  21.063  14.926
29959W        W93903  35.495  24.716   1.226
29960W        W93904  21.532  27.523   3.224
29961W        W93905   7.359  32.104  14.007
29962W        W93906  40.391  11.719  14.474
29963W        W93907  20.688  42.974   4.340
29964W        W93908  14.335   0.752  13.452
29965W        W93909  41.968   6.418  10.577
29966W        W93910  17.559   8.324   3.168
29967W        W93911  30.917   6.375  14.837
29968W        W93912   1.366  24.573  14.428
29969W        W93913  42.904   4.838  13.458
29970W        W93914   2.861  43.377  13.885
29971W        W93915   5.342   4.786   0.343
29972W        W93916  30.016  24.223   3.652
29973W        W93917  23.990  11.135  12.483
29974W        W93918  16.757  43.905  13.019
29975W        W93919  32.521  44.874   0.379
29976W        W93920  22.196  17.159   0.245
29977W        W93921  34.040  43.324   0.964
29978W        W93922  18.651  20.735   2.877
29979W        W93923  32.113  30.634   2.663
29980W        W93924  15.151   1.772   3.342
29981W        W93925  15.632  24.627  13.869
29982W        W93926  27.687  25.044   4.691
29983W        W93927  42.918  34.588   1.805
29984W        W93928  20.065   9.301   5.091
29985W        W93929  23.677  28.504  14.918
29986W        W93930  19.237  12.715  14.991
29987W        W93931  37.578  35.095  12.057
29988W        W93932   6.880  17.707  11.898
29989W        W93933   8.712   6.824   2.407
29990W        W93934  12.257  21.698  14.002
29991W        W93935  35.003   1.756  14.353
29992W        W93936  41.851   1.761  14.866
29993W        W93937  37.534   9.739   3.700
29994W        W93938  36.975   1.338   1.406
29995W        W93939  16.767   2.272   2.217
29996W        W93940  19.073   0.485  14.377
29997W        W93941  38.834   9.672   0.737
29998W        W93942  15.607  26.180   0.909
29999W        W93943  20.688  31.529  13.052
30000W        W93944  22.547  30.493   9.939
30001W        W93945  22.162  36.030   2.687
30002W        W93946  21.564  40.364   2.838
30003W        W93947  26.681  40.423   0.466
30004W        W93948  25.003  31.077  12.391
30005W        W93949   6.330  16.119  14.010
30006W        W93950  19.664   2.845  11.114
30007W        W93951   0.473   1.397  14.391
30008W        W93952  12.673  21.584  14.917
30009W        W93953  28.162  12.220  12.944
30010W        W93954  26.616  20.051   0.815
30011W        W93955  12.778  22.717   3.308
30012W        W93956  36.977  17.780   1.410
30013W        W93957   9.278  30.948   0.907
30014W        W93958   2.916  34.374   1.825
30015W        W93959  13.298   9.841   0.728
30016W        W93960  11.704  30.944  12.023
30017W        W93961   4.750  38.415  12.478
30018W        W93962  44.470  23.212  12.034
30019W        W93963   8.242   6.338  12.537
30020W        W93964  42.987  23.580   9.921
30021W        W93965  24.661  29.560  14.862
30022W        W93966  29.029  28.180  13.949
30023W        W93967  35.874  14.827   2.266
30024W        W93968  23.238   4.885  12.345
30025W        W93969  35.880  18.613   0.337
30026W        W93970  14.604  36.079   4.798
30027W        W93971  30.586  42.911   2.891
30028W        W93972  41.896  27.136   0.821
30029W        W93973   6.874  38.944  12.473
30030W        W93974  21.251  41.813  10.605
30031W        W93975  12.791  28.132   1.434
30032W        W93976  44.951  27.456   2.781
30033W        W93977  42.872  35.066  10.578
30034W        W93978   1.823   1.335  13.380
30035W        W93979  31.534  31.510   1.314
30036W        W93980  16.146  34.054  11.490
30037W        W93981  23.125  27.638  12.415
30038W        W93982  10.801   0.742  12.379
30039W        W93983   2.843  31.132  11.126
30040W        W93984   0.853  33.536   4.311
30041W        W93985  34.970   7.670  11.070
30042W        W93986  30.502  15.799   0.463
30043W        W93987  43.924  37.520  10.632
30044W        W93988   3.875  24.620   3.753
30045W        W93989   6.860  25.107   1.905
30046W        W93990  19.558  10.304  12.878
30047W        W93991  40.384   2.726   2.781
30048W        W93992  27.643   4.855   2.206
30049W        W93993   9.878  35.898   1.919
30050W        W93994   3.922   7.871  13.888
30051W        W93995  20.699  18.279   3.265
30052W        W93996  28.940  21.741  12.422
30053W        W93997   8.250  11.836   3.222
30054W        W93998  31.147  22.675   1.932
30055W        W93999  29.099   5.817   1.753
30056W        W94000   1.889   3.325  11.469
30057W        W94001  25.691  10.333  13.492
30058W        W94002  37.539  39.322   0.261
30059W        W94003   4.369  15.795   3.727
30060W        W94004  21.738  34.894   3.803
30061W        W94005  12.213  24.627   2.817
30062W        W94006  20.156  14.753   2.869
30063W        W94007  17.582   2.337  12.826
30064W        W94008  23.008  43.810   2.713
30065W        W94009  32.485  22.526  14.974
30066W        W94010  39.822  33.567   0.947
30067W        W94011  41.321  42.982   3.210
30068W        W94012   3.771  23.147  13.041
30069W        W94013  11.770   7.700  11.474
30070W        W94014   1.480   1.410  12.927
30071W        W94015   5.704   6.917   2.769
30072W        W94016  25.132   6.219   2.263
30073W        W94017  20.093  16.086  13.504
30074W        W94018  42.381  25.645  11.966
30075W        W94019   8.887   0.902   1.222
30076W        W94020  17.210   8.820   3.189
30077W        W94021  33.410  34.116   2.788
30078W        W94022  10.346   3.850  10.133
30079W        W94023  10.326  37.419   0.792
30080W        W94024  18.788  26.136  10.634
30081W        W94025  22.576   9.222   0.798
30082W        W94026  14.305  37.900   4.758
30083W        W94027  41.023  32.059  14.319
30084W        W94028   1.295   5.695  10.895
30085W        W94029  13.149  42.946   2.380
30086W        W94030  35.538   9.767   4.719
30087W        W94031  27.946  33.971  13.892
30088W        W94032  25.000   0.290   2.720
30089W        W94033  22.173   0.896  10.970
30090W        W94034   9.884  14.628   0.940
30091W        W94035   7.237   4.699   1.709
30092W        W94036  41.448  31.494   2.747
30093W        W94037   5.411   4.420   2.897
30094W        W94038  44.820   6.201   4.625
30095W        W94039  24.074  20.104   3.675
30096W        W94040  22.132   1.466   1.904
30097W        W94041  33.624  25.623   4.260
30098W        W94042  18.599  26.622   3.291
30099W        W94043  32.509  16.754  14.025
30100W        W94044  26.624  30.582   0.379
30101W        W94045  43.815   0.492  13.978
30102W        W94046   1.764  34.547   3.861
30103W        W94047  25.503  41.895   1.345
30104W        W94048   9.200  40.317  14.281
30105W        W94049  20.187  25.995  11.377
30106W        W94050  16.585  26.564   0.423
30107W        W94051  12.709  17.710  12.925
30108W        W94052   5.828  15.246  10.894
30109W        W94053  36.859  39.493  14.853
30110W        W94054  24.227  25.009   4.698
30111W        W94055  11.293  19.698  11.912
30112W        W94056  30.441  17.187   2.253
30113W        W94057  18.060  29.101   4.186
30114W        W94058  14.294  34.868  13.885
30115W        W94059  28.155  30.995  14.382
30116W        W94060   6.803  20.522  13.003
30117W        W94061  31.061   7.694  13.017
30118W        W94062   3.309  36.363  10.562
30119W        W94063  12.251  22.083   3.164
30120W        W94064  11.264  42.485  12.057
30121W        W94065  39.940  14.305   0.314
30122W        W94066  10.214  21.644   2.710
30123W        W94067  28.155  33.556  12.483
30124W        W94068  18.729  21.731   2.840
30125W        W94069  25.129  34.476  11.051
30126W        W94070  43.810  28.992  13.032
30127W        W94071  19.093  36.432   3.304
30128W        W94072  41.353  34.577   4.248
30129W        W94073  25.569  24.120   4.151
30130W        W94074  35.891  23.627   2.737
30131W        W94075   2.802  17.638   3.760
30132W        W94076  23.994   9.818   1.267
30133W        W94077  40.549  24.005   4.694
30134W        W94078   7.197  34.068   3.821
30135W        W94079  14.108  37.880  12.010
30136W        W94080  35.439   2.789  14.427
30137W        W94081  27.558   5.785  12.408
30138W        W94082  40.480  38.345   2.686
30139W        W94083  41.831  18.078   5.307
30140W        W94084  42.460  39.412   4.708
30141W        W94085  13.326   0.927   1.382
30142W        W94086  38.398  10.202   1.906
30143W        W94087  37.935  20.733  10.467
30144W        W94088  26.189   3.914  14.383
30145W        W94089   0.924   4.312   3.236
30146W        W94090  13.328  15.700  11.105
30147W        W94091   2.331  20.620  13.451
30148W        W94092   5.821  16.158   3.245
30149W        W94093   0.895  36.494  13.346
30150W        W94094  42.906  27.100   1.286
30151W        W94095  13.845   1.735  11.428
30152W        W94096  18.667  37.981   4.721
30153W        W94097  12.121  11.655  14.458
30154W        W94098   0.324  39.988   0.958
30155W        W94099  32.987  22.701  10.983
30156W        W94100  34.412  41.439   1.349
30157W        W94101  30.577  10.216   2.317
30158W        W94102  43.503  19.265   4.333
30159W        W94103  26.037  26.665   0.875
30160W        W94104   1.934  17.299   2.235
30161W        W94105   9.272  33.523  14.310
30162W        W94106  34.883   0.264  10.951
30163W        W94107  16.632  42.812   3.216
30164W        W94108  22.535  25.678  14.853
30165W        W94109  36.932   0.822   1.809
30166W        W94110  33.090  28.609  10.525
30167W        W94111  39.325  43.441   2.310
30168W        W94112  25.635  36.954  11.880
30169W        W94113  16.792  10.303  13.037
30170W        W94114  25.488  30.649  11.433
30171W        W94115   3.350   7.828   0.425
30172W        W94116  15.597  10.241  11.978
30173W        W94117  26.647  28.500   3.777
30174W        W94118   5.370  37.075   0.792
30175W        W94119  24.114  22.107  13.999
30176W        W94120  28.957  33.426  14.801
30177W        W94121   0.955  20.150   1.892
30178W        W94122  13.833   8.782   4.774
30179W        W94123  20.083  37.570  11.409
30180W        W94124  37.570  43.816  14.947
30181W        W94125  13.161   1.900   3.734
30182W        W94126  11.354  32.569   3.250
30183W        W94127   9.728  34.572  12.561
30184W        W94128  36.561   8.223  13.998
30185W        W94129   2.344  40.307  14.773
30186W        W94130  34.901   6.274   5.133
30187W        W94131   9.363  22.669  11.474
30188W        W94132  26.603  26.957   2.336
30189W        W94133  21.558   2.254   4.234
30190W        W94134  37.552  40.454   4.818
30191W        W94135  21.618  30.084  12.855
30192W        W94136  37.414  13.196  14.478
30193W        W94137   0.403  40.860  14.944
30194W        W94138  28.053   4.320   2.672
30195W        W94139  23.530  13.796  11.860
30196W        W94140  18.576  20.674   1.291
30197W        W94141  28.609  42.346  11.123
30198W        W94142   2.746  35.380   4.786
30199W        W94143   1.339   8.783   1.822
30200W        W94144  11.749  23.059  13.913
30201W        W94145   1.784  14.252  13.024
30202W        W94146   6.893   5.378   2.370
30203W        W94147   3.397  15.160  11.857
30204W        W94148  10.670  13.207   2.842
30205W        W94149   1.813  12.817   4.729
30206W        W94150   1.269   9.810   4.169
30207W        W94151  40.520  41.843   0.950
30208W        W94152   5.411  24.703  11.122
30209W        W94153  23.197   8.749   4.823
30210W        W94154   8.354  13.636  10.160
30211W        W94155  18.649   6.836   3.832
30212W        W94156  18.252  37.519   1.313
30213W        W94157  19.065  42.474  13.497
30214W        W94158  25.547   9.296  10.568
30215W        W94159   5.897  22.065  12.888
30216W        W94160   9.151  22.505   0.423
30217W        W94161   3.404  19.560   4.165
30218W        W94162   2.744  10.862  13.997
30219W        W94163   2.823  21.171  13.930
30220W        W94164  10.379   7.381  11.950
30221W        W94165   9.735  41.461  12.953
30222W        W94166  32.602  35.110  11.105
30223W        W94167   9.851  32.602   4.628
30224W        W94168  43.427  44.005   3.673
30225W        W94169  20.701  17.249   4.624
30226W        W94170  31.004  43.854  13.955
30227W        W94171  28.014  38.953   0.271
30228W        W94172   1.275  40.815  11.905
30229W        W94173  22.012  11.147  10.404
30230W        W94174  28.965  25.042  11.047
30231W        W94175  13.265  32.448   3.794
30232W        W94176   2.466  30.115  14.771
30233W        W94177   1.457  19.640   0.378
30234W        W94178   1.299   6.718   2.187
30235W        W94179  41.378  41.396  14.284
30236W        W94180  16.103  37.428   0.827
30237W        W94181   2.342  13.263  13.423
30238W        W94182  41.994  22.573   0.811
30239W        W94183  30.587  11.674  13.919
30240W        W94184  41.531   0.905   2.306
30241W        W94185  19.067  12.655   2.305
30242W        W94186  36.013  34.926   2.792
30243W        W94187  43.515  44.357   4.781
30244W        W94188  22.630  11.253  12.423
30245W        W94189  11.717  16.287  11.465
30246W        W94190  35.510  33.048   4.816
30247W        W94191  40.471  14.631   4.693
30248W        W94192  13.131  32.906   5.305
30249W        W94193  16.120   7.739  13.492
30250W        W94194  38.017  33.447  14.001
30251W        W94195  14.634  34.560   4.242
30252W        W94196  18.597  39.336   0.287
30253W        W94197  37.008  21.601  14.775
30254W        W94198  23.126  20.618  14.352
30255W        W94199  36.885   8.204  11.067
30256W        W94200  38.395  24.037   0.908
30257W        W94201  32.120   6.292   4.254
30258W        W94202   8.177  13.349  10.616
30259W        W94203  22.013  40.049  12.524
30260W        W94204   4.871  44.458   2.261
30261W        W94205  15.197   8.180   2.846
30262W        W94206  26.025  25.985  14.983
30263W        W94207  20.261  21.108  11.096
30264W        W94208  36.426  34.376   2.758
30265W        W94209  24.719  34.915  14.315
30266W        W94210  16.754  21.678  10.578
30267W        W94211   0.261  20.267  13.930
30268W        W94212  24.723  11.135  10.945
30269W        W94213   2.462  21.587  14.333
30270W        W94214   4.912  43.965   0.314
30271W        W94215  11.635   0.785  14.396
30272W        W94216   2.744  35.935   3.382
30273W        W94217  40.320   0.923   2.792
30274W        W94218   4.875  39.437  10.428
30275W        W94219  40.928   1.782  14.875
30276W        W94220  21.608   4.330   4.801
30277W        W94221  12.768  19.583   0.291
30278W        W94222  13.127   8.705   5.081
30279W        W94223  43.447   6.265  10.521
30280W        W94224  25.706  32.012  12.519
30281W        W94225  13.250  15.682  14.279
30282W        W94226  16.702  27.523   1.295
30283W        W94227  36.061  30.915  11.476
30284W        W94228  11.773  14.321   2.713
30285W        W94229  33.477  24.186   1.326
30286W        W94230  11.796  34.468   0.891
30287W        W94231  32.629  21.624  13.878
30288W        W94232  20.147   3.832   4.254
30289W        W94233  29.601  33.617  13.455
30290W        W94234  13.810  15.625  10.988
30291W        W94235  26.670   5.824   0.408
30292W        W94236  12.615  22.091  11.903
30293W        W94237  39.008   5.230  10.506
30294W        W94238   5.398  40.314   3.172
30295W        W94239  35.968  28.150   4.309
30296W        W94240   5.206   3.371   1.785
30297W        W94241   9.870  19.677  13.894
30298W        W94242  19.268  29.947   3.225
30299W        W94243  41.376   8.839  13.994
30300W        W94244  44.827  16.658   0.310
30301W        W94245   5.405   5.347   9.530
30302W        W94246  30.437  22.175   1.260
30303W        W94247  27.011  28.522  11.915
30304W        W94248  33.108  22.109  14.863
30305W        W94249  33.971  38.983  13.322
30306W        W94250   2.278   1.421  10.420
30307W        W94251  31.407  24.136  12.013
30308W        W94252  44.904  34.565   2.251
30309W        W94253  27.117  17.134  14.819
30310W        W94254  11.717  37.044   3.813
30311W        W94255  22.141  19.084   3.806
30312W        W94256  31.408  28.628  12.904
30313W        W94257  34.528  44.262  12.916
30314W        W94258  35.384  22.666   4.817
30315W        W94259  24.092   2.276  12.942
30316W        W94260  26.160  10.327  12.026
30317W        W94261  34.576   4.915   3.654
30318W        W94262  37.417   1.350   3.232
30319W        W94263  12.143  41.426  10.912
30320W        W94264  30.513  20.237   1.860
30321W        W94265  27.092   5.731   3.772
30322W        W94266  25.590  15.592   1.276
30323W        W94267  29.961   8.267  14.430
30324W        W94268  34.027   5.784  14.449
30325W        W94269  34.397  33.958  14.431
30326W        W94270   3.234  38.427  14.772
30327W        W94271  39.472   0.909  14.443
30328W        W94272  21.056   5.912   0.337
30329W        W94273  37.876   5.252  12.877
30330W        W94274  31.926  30.129  11.026
30331W        W94275  42.009  10.844  12.987
30332W        W94276  24.570  19.575   4.779
30333W        W94277   1.466   1.407  10.427
30334W        W94278   7.175   8.223   0.837
30335W        W94279  20.551  32.407   2.758
30336W        W94280   1.343  23.619  14.412
30337W        W94281   7.894  13.705  13.023
30338W        W94282  39.986  43.789   3.294
30339W        W94283  24.669  35.561  14.324
30340W        W94284   8.681  42.881  11.398
30341W        W94285  43.981  16.588  11.435
30342W        W94286  13.303  31.963   4.216
30343W        W94287  27.179   5.333   2.346
30344W        W94288  30.965  38.411  14.425
30345W        W94289  20.530   5.709  14.402
30346W        W94290   1.411  35.023   2.414
30347W        W94291  15.221  23.991   1.859
30348W        W94292  22.501   7.394  10.431
30349W        W94293  26.182  44.417   3.865
30350W        W94294   6.226  39.534  11.113
30351W        W94295  41.906  28.036   2.179
30352W        W94296  39.949   6.334   2.879
30353W        W94297  26.148  22.576  14.884
30354W        W94298  26.547  42.489   3.698
30355W        W94299  12.674  38.357  11.409
30356W        W94300  37.343  37.896   0.478
30357W        W94301   2.378   7.815   4.815
30358W        W94302  10.316  12.826  14.799
30359W        W94303  17.700  37.518  11.551
30360W        W94304  25.471  41.331  12.551
30361W        W94305  33.394   1.306  10.945
30362W        W94306  25.091  12.359  12.913
30363W        W94307  16.250  16.599   3.311
30364W        W94308   0.909  39.409   3.752
30365W        W94309  41.972  19.615  12.564
30366W        W94310   1.260   6.380  13.535
30367W        W94311  42.006   4.308  14.825
30368W        W94312  31.498   0.845   1.419
30369W        W94313  12.185  43.848   0.395
30370W        W94314  16.247  30.542   5.231
30371W        W94315  44.382  14.292   4.835
30372W        W94316  34.029   3.816  10.575
30373W        W94317  44.452  11.710  12.898
30374W        W94318   3.947   7.728   0.390
30375W        W94319  21.128  15.178  13.042
30376W        W94320  32.035   3.792   0.326
30377W        W94321  30.530   7.177  14.910
30378W        W94322  34.968  39.858  10.573
30379W        W94323  13.775   4.857  11.129
30380W        W94324  18.605  35.544  10.890
30381W        W94325   7.761   8.707  11.457
30382W        W94326  16.595   5.688   1.813
30383W        W94327  36.001  13.265   3.278
30384W        W94328  30.535  36.954  11.106
30385W        W94329  27.951   9.706   2.193
30386W        W94330  26.190   0.462  10.466
30387W        W94331  20.649  18.217   1.445
30388W        W94332  12.278  25.117  14.429
30389W        W94333  37.059  17.583   0.741
30390W        W94334  35.408   1.450  11.003
30391W        W94335  39.886   0.476  11.033
30392W        W94336  37.564  31.640   1.362
30393W        W94337   2.746   7.765   4.613
30394W        W94338  20.731  22.573   3.672
30395W        W94339   2.228  25.467   1.877
30396W        W94340  39.477  18.262  11.466
30397W        W94341  16.142  14.314   2.683
30398W        W94342  22.212  15.796  13.986
30399W        W94343   8.864  15.178   2.852
30400W        W94344  39.886  25.990   4.284
30401W        W94345   0.867  24.689   0.849
30402W        W94346  24.626  30.931  12.896
30403W        W94347  44.965   4.894  12.944
30404W        W94348  39.882  20.531  11.498
30405W        W94349   1.858  38.445  11.107
30406W        W94350  42.820  39.974  10.428
30407W        W94351  30.085  42.399  11.446
30408W        W94352  32.006  36.493   3.166
30409W        W94353  42.810  39.045  13.527
30410W        W94354  23.602  37.532   2.755
30411W        W94355  40.388  30.983  12.843
30412W        W94356  28.117   9.270  11.562
30413W        W94357   1.920  44.876  10.619
30414W        W94358   7.199  37.083  13.432
30415W        W94359   2.823  40.862   2.846
30416W        W94360  33.030  22.727   2.717
30417W        W94361  17.082  32.121  14.379
30418W        W94362  26.622   9.694   3.171
30419W        W94363  17.196  18.100   1.743
30420W        W94364  40.805  35.404   4.148
30421W        W94365   8.855  39.410   0.935
30422W        W94366  33.438  18.646  10.567
30423W        W94367  25.587   3.769  14.282
30424W        W94368  34.059   7.221  14.306
30425W        W94369  14.595   0.457   1.230
30426W        W94370   1.371   3.769  13.971
30427W        W94371  35.065  23.557   2.359
30428W        W94372  30.078   4.305  12.868
30429W        W94373   3.455  42.316   2.331
30430W        W94374   5.348  42.850   2.896
30431W        W94375  25.687   2.916   3.718
30432W        W94376  12.323  15.306  10.941
30433W        W94377  14.771  28.600   0.964
30434W        W94378  42.788  11.321   0.351
30435W        W94379  17.714  13.664   1.861
30436W        W94380   9.844   5.327  11.125
30437W        W94381  25.511   2.236  13.875
30438W        W94382   0.464  36.858   0.293
30439W        W94383   5.383  37.845   2.211
30440W        W94384  31.530  11.157   2.353
30441W        W94385  35.993   5.736  14.415
30442W        W94386  25.507  30.150   4.196
30443W        W94387  11.738  17.706  13.432
30444W        W94388  23.049  41.451  12.528
30445W        W94389  19.603   0.881  11.950
30446W        W94390  30.048  35.397   3.343
30447W        W94391   2.232  31.543   1.394
30448W        W94392  23.130  23.492  11.098
30449W        W94393  24.199  25.142   0.887
30450W        W94394  22.202   7.321   2.831
30451W        W94395  36.433  32.503  14.834
30452W        W94396  34.603  42.794   3.178
30453W        W94397  34.470  34.446   0.266
30454W        W94398   9.815  35.504   3.280
30455W        W94399  20.721   7.849   1.784
30456W        W94400  31.444  10.355   2.815
30457W        W94401  14.754  40.969   0.367
30458W        W94402  21.723   6.892   4.323
30459W        W94403  35.999  19.555  14.389
30460W        W94404  29.429  23.522   2.346
30461W        W94405  27.487  42.324  13.380
30462W        W94406  32.430   3.351  11.550
30463W        W94407  11.742  30.051  11.035
30464W        W94408  38.043  10.803   1.886
30465W        W94409   0.826   6.426   2.895
30466W        W94410   3.752   7.784   4.127
30467W        W94411  23.584   8.327   3.309
30468W        W94412  35.541   8.189   3.631
30469W        W94413  36.439  10.791   1.733
30470W        W94414  23.662  21.209  12.006
30471W        W94415  12.359  32.119   4.820
30472W        W94416  32.946   3.423  14.932
30473W        W94417   7.836  40.543   3.743
30474W        W94418  30.958  24.987   5.312
30475W        W94419   0.852   6.853  12.385
30476W        W94420  34.554  31.560  12.969
30477W        W94421  29.075  22.506  13.836
30478W        W94422  29.947  39.971   0.329
30479W        W94423   5.436   1.939  14.400
30480W        W94424  11.843  38.067   3.311
30481W        W94425  13.675   4.257  13.433
30482W        W94426  13.274  26.659  14.443
30483W        W94427  39.328  23.053  10.583
30484W        W94428  24.612  42.391  12.019
30485W        W94429  14.123  28.531  12.988
30486W        W94430  39.544  34.988  13.514
30487W        W94431  22.006  21.117   4.718
30488W        W94432  15.771   3.370   4.264
30489W        W94433   9.150  44.985  12.406
30490W        W94434  34.462  32.933   4.267
30491W        W94435   5.716   5.348   4.674
30492W        W94436   4.913  17.273  13.343
30493W        W94437   7.770  44.334  11.557
30494W        W94438  33.385  40.998   4.650
30495W        W94439  24.190   7.859  14.809
30496W        W94440  13.218  11.249   1.416
30497W        W94441  40.035   1.304  10.986
30498W        W94442  13.301   8.377   1.836
30499W        W94443  22.204  15.129  13.047
30500W        W94444  23.204  42.970  12.092
30501W        W94445  35.525  14.312  12.871
30502W        W94446  25.609  36.418  13.328
30503W        W94447  12.144  11.738  13.512
30504W        W94448  18.280  38.930   1.919
30505W        W94449   7.821   2.886   3.334
30506W        W94450  31.936  43.016  11.382
30507W        W94451  32.065  19.729   4.267
30508W        W94452  13.208  13.144   3.260
30509W        W94453  37.968  33.585   3.680
30510W        W94454  18.565  29.447   0.275
30511W        W94455  27.555  43.985   0.888
30512W        W94456  35.403  18.116   0.767
30513W        W94457   6.918   4.794  11.460
30514W        W94458   3.918  17.226  12.452
30515W        W94459   3.829  11.758   0.390
30516W        W94460   7.198   9.826   1.902
30517W        W94461  41.919  13.604   4.807
30518W        W94462  40.936  14.095   2.281
30519W        W94463   3.800  40.889  12.342
30520W        W94464   6.286  27.539   0.373
30521W        W94465  13.775  30.630   2.899
30522W        W94466   2.801  41.316  14.961
30523W        W94467  23.105  33.403  14.495
30524W        W94468  12.701   7.669   2.261
30525W        W94469  17.152  19.574  12.067
30526W        W94470  38.485  27.679  13.885
30527W        W94471  14.683  28.663  12.988
30528W        W94472  39.830  15.689   2.886
30529W        W94473   0.808  23.126  14.813
30530W        W94474  27.139  33.012   4.191
30531W        W94475  26.079  38.849   4.613
30532W        W94476  22.718  26.117   4.120
30533W        W94477  41.419  28.654  11.121
30534W        W94478  38.415   6.771   4.158
30535W        W94479  40.977  22.661  12.482
30536W        W94480  22.236  43.960   2.274
30537W        W94481  37.433  39.833  14.456
30538W        W94482  41.497  17.224   0.912
30539W        W94483  15.116   0.397  11.497
30540W        W94484  10.747  27.184  10.089
30541W        W94485   4.911  20.604  14.426
30542W        W94486  17.751  35.484  10.160
30543W        W94487  12.121  16.726   1.250
30544W        W94488  16.076   7.754   2.363
30545W        W94489  43.325  44.993   3.178
30546W        W94490   7.198  33.048   3.258
30547W        W94491   6.231  44.791   4.209
30548W        W94492   9.862  23.544  11.061
30549W        W94493  38.977   4.399  10.446
30550W        W94494  30.935  33.557   3.333
30551W        W94495  35.385  10.310  14.015
30552W        W94496   3.402  24.983  10.634
30553W        W94497  24.217  31.579  12.852
30554W        W94498  28.116  13.832  11.111
30555W        W94499  28.503  43.020   1.431
30556W        W94500  14.283  22.135  13.424
30557W        W94501   2.779   8.690  12.383
30558W        W94502   1.972  20.172   4.172
30559W        W94503  36.493  35.975   0.869
30560W        W94504  14.796  30.149   2.671
30561W        W94505  39.379  30.995   3.656
30562W        W94506  17.624  21.234  13.525
30563W        W94507  34.986  42.841  14.293
30564W        W94508  44.282  16.709  14.441
30565W        W94509  33.968   5.387  13.949
30566W        W94510  42.890   7.378  10.593
30567W        W94511  29.532  42.503   2.409
30568W        W94512   1.343  27.090  14.440
30569W        W94513   6.693  43.960   4.345
30570W        W94514   4.814  33.015   3.252
30571W        W94515  21.193  44.961  13.478
30572W        W94516   5.224  27.455   1.447
30573W        W94517  20.567   0.251  13.425
30574W        W94518   1.424  28.630   2.387
30575W        W94519  25.003  11.171   4.180
30576W        W94520   8.291   8.812   3.694
30577W        W94521  37.918  26.584  12.033
30578W        W94522  28.441  36.442   4.171
30579W        W94523   1.738  23.055   4.736
30580W        W94524  43.847   2.956  13.957
30581W        W94525  24.566   9.714   0.901
30582W        W94526  15.222   1.945  14.324
30583W        W94527   7.258  39.926  12.379
30584W        W94528  17.674  34.994   4.760
30585W        W94529  11.273  20.233  13.384
30586W        W94530  40.416  18.620  13.911
30587W        W94531  10.294  30.059  13.503
30588W        W94532  17.669  27.988  12.869
30589W        W94533  34.071   2.312  14.867
30590W        W94534  42.975  38.386   4.647
30591W        W94535  39.810   5.407   1.757
30592W        W94536   6.287  44.455   4.188
30593W        W94537   9.353  41.357   2.703
30594W        W94538  10.652  13.693  10.956
30595W        W94539  40.433   6.375   3.793
30596W        W94540  42.865  44.343   5.280
30597W        W94541  26.513  19.759  11.527
30598W        W94542  39.890   7.731  10.586
30599W        W94543   3.436  31.908  12.876
30600W        W94544   8.213  42.373  13.968
30601W        W94545   9.813  42.434   2.236
30602W        W94546  39.314  12.235   2.182
30603W        W94547  28.157  29.033  12.021
30604W        W94548   0.278  18.094   4.216
30605W        W94549  10.761  30.420   3.839
30606W        W94550  43.332   3.331   4.325
30607W        W94551  18.690   8.328  12.535
30608W        W94552   3.328   2.778   1.425
30609W        W94553  12.686   4.804  14.878
30610W        W94554  41.399  23.730   4.237
30611W        W94555   6.830  39.317   4.758
30612W        W94556  44.957  25.611   2.767
30613W        W94557  15.173  25.633  10.536
30614W        W94558  40.990  39.969   1.359
30615W        W94559  39.408  25.138   1.402
30616W        W94560  36.891  19.111   3.224
30617W        W94561  18.687  10.379  10.533
30618W        W94562  16.622  41.425   0.477
30619W        W94563  14.099  13.808  11.939
30620W        W94564  38.524  20.067  10.413
30621W        W94565  11.295   2.829  11.881
30622W        W94566   4.264  44.846   3.859
30623W        W94567  25.633  26.590   0.421
30624W        W94568   4.794  12.770   2.292
30625W        W94569  33.478  23.701  11.406
30626W        W94570   7.886  39.365  10.534
30627W        W94571  11.721  38.874  11.581
30628W        W94572  36.901  13.800  12.949
30629W        W94573  13.334  27.665   3.197
30630W        W94574  14.754  41.459  14.760
30631W        W94575  29.075  38.036   4.695
30632W        W94576   4.416   5.730  13.529
30633W        W94577  23.214  20.210  13.949
30634W        W94578  30.083  12.831  10.985
30635W        W94579  17.190  14.332   0.795
30636W        W94580  25.033  16.232  10.988
30637W        W94581  32.096  12.296   4.767
30638W        W94582  31.956  21.706   3.817
30639W        W94583  27.559  43.903  12.959
30640W        W94584  13.704  35.012  13.324
30641W        W94585  36.033  41.809   1.294
30642W        W94586   0.357  15.148  12.572
30643W        W94587  38.039  36.490   3.833
30644W        W94588  43.874   1.734  11.939
30645W        W94589  17.186  10.230  10.077
30646W        W94590  23.562   0.938  11.965
30647W        W94591   0.910   7.703   4.192
30648W        W94592  43.355   4.397  13.896
30649W        W94593  21.235  36.019   3.703
30650W        W94594  20.191  24.177   4.675
30651W        W94595  38.049  17.556  11.071
30652W        W94596  36.556  23.551  12.853
30653W        W94597  17.194  17.627  13.982
30654W        W94598  41.826   8.836   0.917
30655W        W94599  26.161  42.443  12.936
30656W        W94600  26.686  42.863   4.277
30657W        W94601  40.307  29.161   3.679
30658W        W94602   4.912  25.110   4.328
30659W        W94603   1.463  13.243   3.809
30660W        W94604   8.175  18.703  13.394
30661W        W94605  32.963  11.819  10.927
30662W        W94606   1.803  42.938  14.912
30663W        W94607  19.053   6.898  12.886
30664W        W94608  42.784  22.057   2.212
30665W        W94609  28.984   9.175   0.332
30666W        W94610  34.958   8.169  14.027
30667W        W94611   2.333  17.704  13.835
30668W        W94612  26.141  41.961   2.755
30669W        W94613  24.130  37.052   0.318
30670W        W94614  16.297   7.691  13.945
30671W        W94615  32.614  11.293  14.026
30672W        W94616  43.802  32.120   0.295
30673W        W94617  25.187  24.046   3.716
30674W        W94618  11.793   6.385  12.864
30675W        W94619  14.765  40.879  12.878
30676W        W94620  33.382   4.253   0.884
30677W        W94621  21.132  23.563  13.361
30678W        W94622  37.079  37.483  11.477
30679W        W94623  41.898  42.457   1.441
30680W        W94624  40.348  29.424   2.278
30681W        W94625   2.728  41.451   0.945
30682W        W94626  16.602  41.875  10.552
30683W        W94627  15.124  44.865   2.817
30684W        W94628  23.699  15.640  10.464
30685W        W94629  12.314   5.283  13.430
30686W        W94630  15.142   0.875  13.924
30687W        W94631  35.895  26.169  11.938
30688W        W94632  23.672  17.638  11.007
30689W        W94633   9.170  20.112  14.360
30690W        W94634  34.048  32.625  14.957
30691W        W94635  41.965   1.961   0.770
30692W        W94636  16.611   5.333  11.379
30693W        W94637  23.633  37.482   1.836
30694W        W94638   7.262  35.477   1.300
30695W        W94639   7.845  32.897  14.778
30696W        W94640  42.355  34.893   3.293
30697W        W94641  40.050  29.590   3.801
30698W        W94642  39.465  44.382  11.950
30699W        W94643  12.622  30.468   0.336
30700W        W94644   0.393  28.679   0.751
30701W        W94645  38.875  38.386  11.391
30702W        W94646  43.821  12.134  14.969
30703W        W94647   3.950  40.942  10.899
30704W        W94648  26.619  42.345   0.868
30705W        W94649  13.128  35.564   4.240
30706W        W94650  13.615  11.730   2.705
30707W        W94651  12.127  31.147   4.827
30708W        W94652  25.144   8.773  12.983
30709W        W94653  27.114   3.266  12.032
30710W        W94654  10.798  29.074  13.799
30711W        W94655  41.940  10.250   5.242
30712W        W94656  21.662  37.437  10.414
30713W        W94657  16.669  21.216  10.500
30714W        W94658  13.326  17.682   0.862
30715W        W94659  20.759   3.888   1.720
30716W        W94660  20.747  23.104   2.812
30717W        W94661  37.930  25.680  12.848
30718W        W94662  43.852  29.009  13.389
30719W        W94663   9.157  38.896  11.499
30720W        W94664  33.558  22.523   3.170
30721W        W94665  30.002  14.282  14.300
30722W        W94666   5.713   9.659   3.275
30723W        W94667  23.986  38.551   4.220
30724W        W94668  12.640   6.270   2.857
30725W        W94669  37.482   0.751   4.803
30726W        W94670   2.252  33.127   2.872
30727W        W94671  37.941  18.288   3.255
30728W        W94672   6.293  16.154  12.933
30729W        W94673  20.108  16.271  12.499
30730W        W94674  37.933  43.321  13.036
30731W        W94675  17.609  38.960  11.507
30732W        W94676  12.826  15.224   4.679
30733W        W94677  34.460  20.647  13.361
30734W        W94678   2.725  20.554  12.010
30735W        W94679  17.271  21.596   3.314
30736W        W94680  28.138  11.225  12.417
30737W        W94681  12.701  43.864  11.409
30738W        W94682  34.488  39.510   1.446
30739W        W94683   7.401  16.643   3.672
30740W        W94684  37.467   3.299  13.485
30741W        W94685  27.998  12.668  13.874
30742W        W94686  43.964  23.629  12.032
30743W        W94687  41.797  23.224  10.923
30744W        W94688  21.169  24.091  12.825
30745W        W94689  35.919  37.993  12.956
30746W        W94690   5.704   0.259  13.522
30747W        W94691  30.508  12.844   0.855
30748W        W94692  22.550   4.806  14.438
30749W        W94693  16.157  38.904   0.759
30750W        W94694   3.906  27.460   1.372
30751W        W94695  15.084  37.545  13.536
30752W        W94696  29.542  38.906  12.940
30753W        W94697  35.918  11.176   3.229
30754W        W94698   1.366  16.728   4.630
30755W        W94699   6.409  20.601  11.078
30756W        W94700  26.003  29.050   3.807
30757W        W94701  44.828  25.036   1.322
30758W        W94702  29.135  29.426   0.773
30759W        W94703  23.128  24.702  14.796
30760W        W94704  34.377  17.677  12.459
30761W        W94705  30.960  44.352   2.393
30762W        W94706  22.543  17.555  13.382
30763W        W94707   1.448   6.700  14.891
30764W        W94708  30.139  24.598   3.213
30765W        W94709  11.647  32.540   2.194
30766W        W94710   2.328  20.244  10.944
30767W        W94711  31.575  42.892   1.221
30768W        W94712  17.622  21.099  13.018
30769W        W94713  25.587   6.353   1.840
30770W        W94714   7.823   9.343  12.389
30771W        W94715  12.246  29.150   1.800
30772W        W94716  16.606  13.839  10.611
30773W        W94717  14.725   0.488  11.902
30774W        W94718  33.512   7.274   3.790
30775W        W94719   8.235  22.996   0.860
30776W        W94720  16.795  41.823   0.292
30777W        W94721  24.191   6.247  11.091
30778W        W94722  34.020  15.137   3.161
30779W        W94723  31.598  40.541   4.644
30780W        W94724  10.744  31.956  13.522
30781W        W94725  34.101  14.654   3.729
30782W        W94726  21.124  38.922  12.056
30783W        W94727  21.741  35.021  10.091
30784W        W94728  39.468  27.983   4.126
30785W        W94729  28.572  15.654  13.430
30786W        W94730  31.982   7.399  13.964
30787W        W94731  44.918  28.086  14.889
30788W        W94732  28.954  22.637   1.824
30789W        W94733  20.248  24.511  13.978
30790W        W94734  19.651   1.919   0.424
30791W        W94735  41.975  41.521  11.970
30792W        W94736  11.232  44.004   4.642
30793W        W94737  21.720   8.375   1.801
30794W        W94738  16.195   9.333   2.724
30795W        W94739   5.375  23.066   0.444
30796W        W94740  30.415   1.925  12.498
30797W        W94741  30.930   5.233  10.605
30798W        W94742  28.676  26.008   3.199
30799W        W94743  21.092  22.055   1.310
30800W        W94744  30.060  17.614   3.147
30801W        W94745  30.505  27.068  10.412
30802W        W94746  31.046  18.610   2.249
30803W        W94747  23.528  38.396  12.868
30804W        W94748  39.836  40.982   3.753
30805W        W94749  28.551   5.834  12.440
30806W        W94750   0.467  12.707  14.439
30807W        W94751  35.066  19.114   2.398
30808W        W94752  35.076  40.396  10.998
30809W        W94753  11.700  29.112   2.745
30810W        W94754  14.725   6.283  11.883
30811W        W94755  37.490  15.800  10.080
30812W        W94756  17.088  29.529  13.988
30813W        W94757  33.971  24.996   0.761
30814W        W94758  39.383  29.060   4.310
30815W        W94759  24.092  26.128  14.780
30816W        W94760  43.404  17.606   2.208
30817W        W94761  18.624  38.835  13.345
30818W        W94762  33.539  31.943   4.234
30819W        W94763  25.119  37.362  11.888
30820W        W94764   3.243  23.227   0.811
30821W        W94765  25.525  36.587  10.552
30822W        W94766  22.228  31.595   1.426
30823W        W94767  34.927  31.999   4.279
30824W        W94768  36.350  36.355   2.847
30825W        W94769  33.379  33.420  14.930
30826W        W94770  17.123  11.146   2.214
30827W        W94771  31.422  35.892  14.439
30828W        W94772  42.289   1.895  11.459
30829W        W94773  26.549  24.087   3.187
30830W        W94774  31.446  16.585  12.446
30831W        W94775   8.733  25.017  12.009
30832W        W94776   8.728  10.365  11.562
30833W        W94777  43.374  30.047  11.408
30834W        W94778  36.892  27.127   1.299
30835W        W94779   9.384  36.021   4.824
30836W        W94780   6.693  18.544  11.042
30837W        W94781   2.355  18.743   4.653
30838W        W94782  30.606  11.152  13.536
30839W        W94783  34.369  38.506   1.302
30840W        W94784   1.281  34.550   3.280
30841W        W94785  39.854   2.417  13.372
30842W        W94786   5.834  38.024   0.312
30843W        W94787  36.421  10.191  12.823
30844W        W94788   8.845  10.710   4.803
30845W        W94789  26.970  25.203   4.792
30846W        W94790  26.565  33.975  14.823
30847W        W94791   5.773  39.412   0.396
30848W        W94792  19.752  41.990   3.284
30849W        W94793  12.693  31.490  10.051
30850W        W94794   1.406  16.101  13.034
30851W        W94795  35.485  19.616   1.745
30852W        W94796   7.680  34.013  12.054
30853W        W94797  35.404  28.635   1.833
30854W        W94798  28.961  16.639  13.452
30855W        W94799   2.895  17.774   4.236
30856W        W94800  15.706  27.161   3.696
30857W        W94801  25.663  36.897   0.319
30858W        W94802  28.170   2.922   0.836
30859W        W94803   1.318  12.345   0.915
30860W        W94804  15.087   7.364   4.825
30861W        W94805  34.008  11.708   2.688
30862W        W94806   4.238  41.298   3.694
30863W        W94807  13.741  18.292  12.415
30864W        W94808  18.727  33.396   1.840
30865W        W94809  27.151  30.158   3.355
30866W        W94810  12.174  11.654  13.868
30867W        W94811   6.423  15.751   2.798
30868W        W94812  19.200  37.922  10.446
30869W        W94813   6.745  12.775   2.860
30870W        W94814  27.050  15.102  14.860
30871W        W94815  35.877  31.574   1.864
30872W        W94816  40.373  41.319  13.518
30873W        W94817  29.077  27.632   1.833
30874W        W94818  11.127  23.080   3.192
30875W        W94819  30.965  13.620   0.795
30876W        W94820   7.688  20.638   3.361
30877W        W94821  23.025  11.836   0.822
30878W        W94822  42.966  19.613  14.355
30879W        W94823  33.889  19.181  14.857
30880W        W94824  38.912  25.053   0.412
30881W        W94825  43.970  28.161   1.401
30882W        W94826  44.905   7.786   2.202
30883W        W94827  13.614  27.030  12.573
30884W        W94828  10.375  40.823   2.268
30885W        W94829   8.262  33.443   4.612
30886W        W94830  26.655  30.614   0.863
30887W        W94831  17.727  41.895  13.903
30888W        W94832  15.085  29.133  13.791
30889W        W94833  10.708  36.427   0.763
30890W        W94834   3.755   0.810   1.305
30891W        W94835  31.560  39.905  12.972
30892W        W94836  26.699  30.947   0.874
30893W        W94837  44.908  19.752   3.350
30894W        W94838  29.953  12.642   0.752
30895W        W94839  24.191  26.113   3.255
30896W        W94840   9.745  14.124   1.257
30897W        W94841   8.327  22.620   1.311
30898W        W94842  33.000   7.206   2.869
30899W        W94843  16.202  30.477   2.693
30900W        W94844  24.093  30.997   4.603
30901W        W94845  15.196   0.381  14.373
30902W        W94846  11.816  18.078  13.891
30903W        W94847  20.228  20.687   1.395
30904W        W94848   0.924  42.391   4.157
30905W        W94849  28.174   1.452  11.118
30906W        W94850   4.901  42.479   4.795
30907W        W94851   5.406  29.964   4.637
30908W        W94852  44.468  10.225  10.507
30909W        W94853  33.505  30.624   1.312
30910W        W94854  16.163  26.019   0.333
30911W        W94855  17.304  27.640  14.291
30912W        W94856   7.266  24.169  12.527
30913W        W94857  24.517   5.260  13.814
30914W        W94858  36.526  13.705  13.541
30915W        W94859   6.904   8.811   4.261
30916W        W94860  12.200   3.883   0.745
30917W        W94861  26.033   6.191  12.949
30918W        W94862  16.728  13.817   3.168
30919W        W94863  25.526  40.483   3.630
30920W        W94864  38.986  11.191   1.353
30921W        W94865  28.152  28.517  12.095
30922W        W94866  29.971  16.088  12.089
30923W        W94867  14.277  42.899  13.544
30924W        W94868  10.662  34.103   2.789
30925W        W94869  27.163   8.753  13.312
30926W        W94870  41.388  31.409  14.295
30927W        W94871  17.749   3.303  10.945
30928W        W94872  44.274  23.104   2.888
30929W        W94873  13.731   7.823   1.904
30930W        W94874  17.586  24.669  12.919
30931W        W94875  41.942   1.319   2.814
30932W        W94876  16.260  43.298   2.878
30933W        W94877  30.444   6.826   4.191
30934W        W94878  14.173   2.722   3.178
30935W        W94879  34.981  17.562  14.419
30936W        W94880  15.115  24.192  13.060
30937W        W94881  11.664   4.739  13.845
30938W        W94882  44.980  21.135   1.258
30939W        W94883  18.718   3.403   2.748
30940W        W94884   4.801  14.737   4.182
30941W        W94885  33.017  30.053  14.481
30942W        W94886  33.941  36.847  12.942
30943W        W94887  36.970   6.828   5.125
30944W        W94888   8.298  32.025  12.828
30945W        W94889  29.486  44.323  13.434
30946W        W94890  10.232  19.757  12.537
30947W        W94891  19.243  29.085   3.862
30948W        W94892   3.292   0.358   2.268
30949W        W94893   3.388  41.456   0.320
30950W        W94894  21.079  44.897   5.223
30951W        W94895  23.504  10.371  12.993
30952W        W94896  26.524  42.344   1.379
30953W        W94897  33.424  21.703   3.258
30954W        W94898  23.624  35.936  10.898
30955W        W94899  15.670   9.333   4.803
30956W        W94900  31.960  31.104  13.325
30957W        W94901  36.016  29.998   2.885
30958W        W94902  12.277  37.396   0.246
30959W        W94903  44.903  30.624   2.334
30960W        W94904  26.547  42.426  13.871
30961W        W94905  40.367   3.445   3.360
30962W        W94906  44.412   7.181  11.555
30963W        W94907  39.315  39.883   3.768
30964W        W94908   5.787   5.425   1.372
30965W        W94909  10.859   2.263   5.145
30966W        W94910  39.991  24.214   2.186
30967W        W94911  13.621  15.257   0.347
30968W        W94912  15.663  17.688  11.089
30969W        W94913  37.483  33.612   5.186
30970W        W94914   6.182  26.623  14.282
30971W        W94915   4.727   7.730   0.951
30972W        W94916  25.482   0.419   4.113
30973W        W94917   2.236  37.428  13.526
30974W        W94918  16.077  42.299  10.960
30975W        W94919   4.892  29.489  13.892
30976W        W94920  20.664  27.998  11.984
30977W        W94921  27.169  20.173  10.486
30978W        W94922  34.904  23.151   1.253
30979W        W94923  16.145  23.179   0.420
30980W        W94924   5.435  17.097  14.329
30981W        W94925  10.153   9.733  12.380
30982W        W94926  38.865   9.697  11.603
30983W        W94927  38.010  43.889  12.353
30984W        W94928  32.953  25.512  11.121
30985W        W94929  18.158  20.214   0.350
30986W        W94930   3.373  14.725  12.869
30987W        W94931  42.324  32.504   2.849
30988W        W94932  18.208   6.896   3.862
30989W        W94933  20.701   0.405   2.856
30990W        W94934   7.687  22.095   4.199
30991W        W94935  39.960  42.883  12.069
30992W        W94936  21.118  26.007  10.918
30993W        W94937  13.331  22.194  11.514
30994W        W94938  24.564  33.570   1.804
30995W        W94939  44.928  28.462   4.817
30996W        W94940  10.672  17.286  10.895
30997W        W94941  19.591   9.387  11.880
30998W        W94942  36.873  23.693   0.901
30999W        W94943  40.512  30.585   3.830
31000W        W94944  22.612  11.167   0.453
31001W        W94945   9.820   9.674  13.808
31002W        W94946  20.599  33.594  12.933
31003W        W94947  42.883   5.209  10.536
31004W        W94948  19.768  35.471   0.761
31005W        W94949   2.905  26.513  10.642
31006W        W94950  20.749  40.460  10.578
31007W        W94951  15.608  40.371   0.817
31008W        W94952  40.900  10.301  11.055
31009W        W94953  12.652  11.332  11.989
31010W        W94954  14.784  32.447  12.571
31011W        W94955  43.874  27.664   3.163
31012W        W94956  12.620   2.824   0.965
31013W        W94957  18.574   6.285   1.431
31014W        W94958  29.493  20.265   4.261
31015W        W94959  42.967  44.857   4.619
31016W        W94960  36.531  11.134  12.942
31017W        W94961  25.658  43.976   4.812
31018W        W94962  34.413  38.476  12.844
31019W        W94963  42.837  20.752   1.270
31020W        W94964  18.288  33.090  12.471
31021W        W94965  18.566  39.016   5.240
31022W        W94966  19.048  13.658  13.382
31023W        W94967   9.226  30.965   3.760
31024W        W94968  28.007  34.887   3.310
31025W        W94969  31.072  27.541  14.811
31026W        W94970  39.849  44.430  11.523
31027W        W94971   8.369   9.296  13.940
31028W        W94972  32.450   3.815  12.366
31029W        W94973  10.788   7.175   2.194
31030W        W94974   3.323  37.978   4.310
31031W        W94975  19.565  13.806   4.312
31032W        W94976  25.494   9.662  14.513
31033W        W94977  23.692  40.359  10.438
31034W        W94978  43.432  15.126   2.223
31035W        W94979  33.505  37.385  12.933
31036W        W94980  10.659   2.287   0.480
31037W        W94981  20.744  26.509   1.698
31038W        W94982   2.876  10.794  13.504
31039W        W94983  16.232  43.871  12.423
31040W        W94984  27.156   7.903  11.381
31041W        W94985  28.459  41.905  11.971
31042W        W94986  43.271   6.360  13.448
31043W        W94987  12.672  12.358  12.463
31044W        W94988   5.895  38.355  14.939
31045W        W94989  10.278  44.005  13.830
31046W        W94990  17.557  34.998  14.789
31047W        W94991  29.614  12.791   4.834
31048W        W94992  40.950  25.133   4.818
31049W        W94993  43.513  31.485  11.484
31050W        W94994  28.566  24.043   4.774
31051W        W94995  42.401   5.797   2.364
31052W        W94996  14.649  35.463   1.737
31053W        W94997   3.899  15.616  11.413
31054W        W94998  17.610  15.295  11.037
31055W        W94999  19.110   3.905  14.505
31056W        W95000   2.378   6.708  12.873
31057W        W95001   9.353  23.077   4.768
31058W        W95002  39.332  19.073   2.388
31059W        W95003  22.541  34.090  13.978
31060W        W95004  14.782  29.555  10.890
31061W        W95005  30.151  24.078  11.894
31062W        W95006   8.880  36.410  13.404
31063W        W95007  38.453  37.998   1.820
31064W        W95008  11.643  41.947  14.447
31065W        W95009  37.445   9.701   1.698
31066W        W95010  44.913  37.001  13.864
31067W        W95011  39.542  21.201   1.283
31068W        W95012  42.816  33.593   0.770
31069W        W95013  37.510  17.101  11.433
31070W        W95014  21.236  27.033   4.167
31071W        W95015   4.936  26.183   2.287
31072W        W95016  40.810  23.158  14.395
31073W        W95017  41.535  40.824  13.022
31074W        W95018  15.217  26.053   3.259
31075W        W95019  36.860   6.196   3.704
31076W        W95020  20.131  19.548   1.849
31077W        W95021  28.161  17.588   2.807
31078W        W95022  11.819  34.014   1.263
31079W        W95023  44.920  34.390   4.274
31080W        W95024  29.486  23.029   4.699
31081W        W95025  13.794   5.198   3.706
31082W        W95026   5.768  28.067   4.771
31083W        W95027  17.682   1.277   2.358
31084W        W95028  26.193  40.346   5.263
31085W        W95029  22.208   3.780   3.354
31086W        W95030  23.060  15.159   4.648
31087W        W95031  18.260   3.241   0.928
31088W        W95032  37.891  10.137   3.360
31089W        W95033  25.176  35.429  14.376
31090W        W95034  35.066  28.626  14.837
31091W        W95035  39.520  12.194   4.801
31092W        W95036   5.425   2.939  14.503
31093W        W95037  41.932  39.527   3.158
31094W        W95038  17.566  12.691   2.351
31095W        W95039  20.744  30.427  13.863
31096W        W95040  24.138  17.134   2.740
31097W        W95041   7.860  31.552   3.716
31098W        W95042   2.391   6.890   4.219
31099W        W95043   4.334  39.326   2.874
31100W        W95044  41.029  40.462   0.453
31101W        W95045  19.779   2.233   3.208
31102W        W95046  20.094   5.232   0.377
31103W        W95047  29.122  23.161   1.754
31104W        W95048  42.882   5.308   4.345
31105W        W95049  25.571  36.843   2.811
31106W        W95050  27.575   6.401  14.494
31107W        W95051   3.276   2.414  12.889
31108W        W95052  11.222  14.218  14.378
31109W        W95053   7.788   0.811   1.288
31110W        W95054  30.083  32.121  13.858
31111W        W95055  12.136  16.716  14.459
31112W        W95056  10.706  35.545   4.763
31113W        W95057  28.945  29.479   0.389
31114W        W95058  15.084   8.863  13.958
31115W        W95059  32.520  20.529   4.737
31116W        W95060  10.365  13.143   1.786
31117W        W95061  43.474  27.039   0.915
31118W        W95062  11.333  29.969  10.036
31119W        W95063  17.132  13.622   3.221
31120W        W95064  35.895  36.964   2.777
31121W        W95065   6.287  13.141  13.917
31122W        W95066   7.895  37.458  13.823
31123W        W95067   5.237  17.750  10.406
31124W        W95068  27.566  38.353   3.640
31125W        W95069  38.432  37.552   2.182
31126W        W95070  31.114  15.227  11.498
31127W        W95071   7.807   7.246  10.492
31128W        W95072  40.962  38.010  14.279
31129W        W95073   7.300  39.834  13.498
31130W        W95074  25.563  41.407  13.459
31131W        W95075  34.615  25.208   4.639
31132W        W95076  27.126  44.341  12.012
31133W        W95077  36.526  15.265   4.768
31134W        W95078  13.776  30.422   1.289
31135W        W95079  35.039  10.722   1.449
31136W        W95080  42.025   5.739  12.472
31137W        W95081  37.992  20.664  13.483
31138W        W95082  35.911  34.011  13.365
31139W        W95083   2.277  23.547  11.430
31140W        W95084   0.429   7.886  14.959
31141W        W95085   8.317  37.042  11.577
31142W        W95086   6.850  32.892  11.048
31143W        W95087  16.775  42.505  14.766
31144W        W95088  39.382  18.229  10.614
31145W        W95089  38.428   2.789  11.529
31146W        W95090  13.115  33.545   3.666
31147W        W95091  13.660  18.627  10.524
31148W        W95092   8.815   1.474   3.225
31149W        W95093  35.370  32.122  12.511
31150W        W95094  11.236   7.389   0.247
31151W        W95095  42.336   1.939  13.810
31152W        W95096  25.621  44.835  11.894
31153W        W95097  44.813  23.138   2.802
31154W        W95098  25.575  25.505  12.858
31155W        W95099  26.504  24.524  12.350
31156W        W95100  11.133  10.746  12.480
31157W        W95101  34.078  28.029   2.662
31158W        W95102  25.636  34.500  14.300
31159W        W95103  16.624  31.510   4.207
31160W        W95104   9.665  13.287   3.185
31161W        W95105  30.625  32.065   1.391
31162W        W95106  25.594  30.418   2.848
31163W        W95107  16.177  10.662   2.282
31164W        W95108  42.475  39.433   3.683
31165W        W95109  11.791   8.173  13.864
31166W        W95110  25.003  29.963  14.995
31167W        W95111  27.942  36.005   4.297
31168W        W95112  30.657   9.822   3.730
31169W        W95113  42.807  11.745  10.576
31170W        W95114  42.979  24.194  10.967
31171W        W95115  30.106  18.778  11.025
31172W        W95116  17.282  29.972  14.379
31173W        W95117  25.708  25.663  12.400
31174W        W95118  22.512  21.036   3.345
31175W        W95119  24.229   6.759  10.578
31176W        W95120  35.442  14.638   1.724
31177W        W95121  42.427   3.810   4.319
31178W        W95122  27.531   5.428  13.867
31179W        W95123  15.821  25.664   1.278
31180W        W95124   0.819  13.773  14.974
31181W        W95125   7.386  22.591  13.879
31182W        W95126  15.159  15.255  13.937
31183W        W95127  16.205  34.543   1.216
31184W        W95128  18.062  27.061   3.245
31185W        W95129   9.790  27.528  10.960
31186W        W95130  16.264  24.219  11.526
31187W        W95131  30.416  13.681   4.830
31188W        W95132  34.585  12.693  13.408
31189W        W95133  43.858  26.606   4.154
31190W        W95134  21.580  27.676   0.467
31191W        W95135  34.539  23.072   4.679
31192W        W95136  38.819  11.775  12.453
31193W        W95137  40.526  24.186   0.870
31194W        W95138  20.088  25.134  12.020
31195W        W95139   8.772  42.010  13.521
31196W        W95140  44.002  28.590  14.431
31197W        W95141  14.325   7.783   3.214
31198W        W95142  35.875  14.301   0.748
31199W        W95143  40.356  19.270   1.379
31200W        W95144  16.144  16.165   0.821
31201W        W95145  18.690  42.977  10.917
31202W        W95146  18.736  35.894  14.879
31203W        W95147  10.771  23.685   4.231
31204W        W95148  42.376  37.354  11.558
31205W        W95149  43.366  16.640   3.283
31206W        W95150  29.990  17.719   2.285
31207W        W95151  29.081  36.873  13.837
31208W        W95152  38.844  42.906   5.262
31209W        W95153  18.197  22.158   0.249
31210W        W95154   2.838  32.475   3.849
31211W        W95155   1.900   4.313   1.381
31212W        W95156  24.101  24.996   1.310
31213W        W95157  32.089  26.487   3.376
31214W        W95158  43.866  36.401  11.115
31215W        W95159  39.825  37.875   2.876
31216W        W95160  11.818  36.400   4.672
31217W        W95161  20.212   8.269   3.861
31218W        W95162  25.700  24.691  11.395
31219W        W95163  32.923  43.780   4.817
31220W        W95164   1.810  11.247   2.696
31221W        W95165  22.665  37.452   2.888
31222W        W95166  11.864  31.469   9.948
31223W        W95167  43.458  43.909   1.281
31224W        W95168  14.240  24.179   0.809
31225W        W95169  19.776   2.401   4.650
31226W        W95170  33.589  23.696  11.988
31227W        W95171  18.707  44.280  12.576
31228W        W95172  39.831  40.953  13.380
31229W        W95173  20.237  33.384  12.990
31230W        W95174  24.030  17.187  11.935
31231W        W95175  17.122   0.766  10.545
31232W        W95176   5.847  33.583  10.513
31233W        W95177   0.887  13.693   0.927
31234W        W95178  29.937  40.028  12.346
31235W        W95179  30.147  37.858  12.031
31236W        W95180  30.418   4.261  13.378
31237W        W95181  35.451  36.564   0.910
31238W        W95182   5.234  14.314   2.740
31239W        W95183  16.111  21.756   4.182
31240W        W95184   2.781  32.605  13.384
31241W        W95185  28.012  25.175   0.299
31242W        W95186  34.374  34.089  13.509
31243W        W95187   9.745  38.487   1.273
31244W        W95188   9.252  16.573   1.799
31245W        W95189  14.336  22.590  13.949
31246W        W95190  11.194  23.188  12.919
31247W        W95191  31.049  35.495   4.285
31248W        W95192  21.752   8.819   4.629
31249W        W95193  42.338  44.829  11.450
31250W        W95194  12.824   6.386   3.387
31251W        W95195  16.811  42.878  10.628
31252W        W95196  43.319  13.791   4.669
31253W        W95197   0.767   6.724  11.444
31254W        W95198  21.086  23.603   4.611
31255W        W95199   2.319  19.622  14.995
31256W        W95200  42.414   3.741   1.855
31257W        W95201  37.398  20.045   3.270
31258W        W95202   1.964  40.804  10.966
31259W        W95203  29.522  31.521   4.340
31260W        W95204  22.028  37.858  13.428
31261W        W95205  23.498   8.238  12.825
31262W        W95206  17.622  43.782  12.353
31263W        W95207   8.169  39.441  10.491
31264W        W95208  39.989   9.194   3.309
31265W        W95209  24.207  36.932  11.487
31266W        W95210  17.636  19.728  10.941
31267W        W95211  22.129  28.941   1.926
31268W        W95212  12.633  11.265  10.433
31269W        W95213  14.178  27.940  11.927
31270W        W95214  39.427  35.505  14.892
31271W        W95215  20.133   2.873  14.483
31272W        W95216  27.005  35.485   2.382
31273W        W95217  42.828  11.819   2.770
31274W        W95218  39.359  20.581   1.846
31275W        W95219  16.108   0.923  12.475
31276W        W95220  44.468  12.311   3.837
31277W        W95221  12.629   7.290   1.285
31278W        W95222   5.817  43.891   4.238
31279W        W95223  17.584  37.396  13.473
31280W        W95224  28.461  20.189   5.084
31281W        W95225  30.624   6.900  10.927
31282W        W95226  14.664  41.307  10.627
31283W        W95227  42.932  28.018  12.077
31284W        W95228  19.109  36.536  12.897
31285W        W95229  20.641   9.272  13.842
31286W        W95230  33.008  23.626  13.803
31287W        W95231   6.854  38.833   0.753
31288W        W95232  33.016  24.218  12.943
31289W        W95233  20.231  12.810  13.033
31290W        W95234  23.130  21.237  13.883
31291W        W95235  31.627  33.572  10.906
31292W        W95236  29.639  14.776  11.962
31293W        W95237   0.981  43.965  13.429
31294W        W95238  34.613  24.614  11.496
31295W        W95239   8.698   0.888  13.321
31296W        W95240  20.700  20.627   1.913
31297W        W95241  22.248  17.127   2.359
31298W        W95242   5.345  29.638  13.799
31299W        W95243  35.602   0.445   0.288
31300W        W95244  16.713  10.289  10.500
31301W        W95245  13.168  29.628   1.698
31302W        W95246  35.533  42.433   1.278
31303W        W95247  23.004  14.270  11.011
31304W        W95248  38.410  11.326  13.972
31305W        W95249   0.908  14.125  10.600
31306W        W95250  39.053   4.322  12.529
31307W        W95251   5.861  19.265   0.433
31308W        W95252   2.758  10.636   4.212
31309W        W95253  39.378  20.085   2.876
31310W        W95254  22.658   4.700   3.278
31311W        W95255  44.350  20.238  13.996
31312W        W95256  38.907  42.361  11.088
31313W        W95257  15.597   3.717  11.913
31314W        W95258  35.994  41.941   0.847
31315W        W95259  21.526  16.295   3.640
31316W        W95260   9.817   3.712   1.761
31317W        W95261   1.933   6.899   3.860
31318W        W95262  29.494   8.869   3.332
31319W        W95263   9.683  21.229   0.856
31320W        W95264  14.137   5.339   4.788
31321W        W95265   2.279  21.540  13.350
31322W        W95266  10.343  22.011  11.503
31323W        W95267  10.821  24.682  11.496
31324W        W95268   6.417  36.072  10.445
31325W        W95269  19.736  13.736   3.661
31326W        W95270  32.411   6.336  10.527
31327W        W95271  20.697   0.790   4.352
31328W        W95272   3.219  35.962  14.786
31329W        W95273  42.877  15.257  12.471
31330W        W95274  11.241   8.750  11.008
31331W        W95275  30.497  22.500  11.587
31332W        W95276  43.952  10.373  13.816
31333W        W95277  14.185  38.507  11.457
31334W        W95278   8.690  11.763   3.230
31335W        W95279  24.720   6.388   2.790
31336W        W95280   1.905   6.408   3.788
31337W        W95281  14.251  21.227  12.341
31338W        W95282  15.662  44.324   5.292
31339W        W95283  29.919  41.832  12.869
31340W        W95284  32.968  13.653   0.919
31341W        W95285  13.159  44.815  14.762
31342W        W95286   5.323  17.740  10.892
31343W        W95287  28.451   8.293   3.373
31344W        W95288  38.363   5.772   3.828
31345W        W95289  21.068  31.553  11.890
31346W        W95290  24.188   8.293   1.752
31347W        W95291  21.130  22.708   4.262
31348W        W95292  25.063   1.345   0.454
31349W        W95293   8.194  30.616  11.102
31350W        W95294  17.184   1.839   5.269
31351W        W95295  39.060  36.589  13.547
31352W        W95296  12.712  41.849   1.292
31353W        W95297  34.909  37.370  12.362
31354W        W95298  14.679   5.234   0.423
31355W        W95299   5.688  29.567  13.908
31356W        W95300  29.496  44.995   0.955
31357W        W95301  13.281  21.262  14.805
31358W        W95302  24.523  37.485  10.506
31359W        W95303  25.658  41.012  11.865
31360W        W95304  23.537  27.951  14.869
31361W        W95305  18.748  18.751  12.962
31362W        W95306  43.774  35.492  13.036
31363W        W95307  25.977  22.653  11.400
31364W        W95308  36.434  33.916   1.281
31365W        W95309   7.709  38.349  14.392
31366W        W95310  26.612  38.439   5.280
31367W        W95311  12.205  13.111  12.877
31368W        W95312  14.239   5.229   3.209
31369W        W95313   5.745  30.508   1.739
31370W        W95314  41.933  22.026   4.171
31371W        W95315   5.712  21.637   3.845
31372W        W95316  22.654   8.348   0.434
31373W        W95317   4.911  31.507  10.567
31374W        W95318   9.709  23.594  11.544
31375W        W95319  44.844   5.695   1.381
31376W        W95320  26.503  25.216   0.891
31377W        W95321   9.285  37.414  14.501
31378W        W95322  18.787  36.974   2.883
31379W        W95323  16.747  34.954   1.781
31380W        W95324  19.617  36.542  14.948
31381W        W95325   1.937  21.529   0.287
31382W        W95326  18.133  24.033  12.452
31383W        W95327  39.413  44.464   3.811
31384W        W95328  29.444  35.894   1.704
31385W        W95329  22.549   9.277  14.975
31386W        W95330  21.143  22.708  10.024
31387W        W95331   7.323  15.171  11.401
31388W        W95332  38.498   2.384   2.694
31389W        W95333  39.394  25.994   2.896
31390W        W95334  12.749   8.678  11.544
31391W        W95335  27.974  11.835  13.466
31392W        W95336  22.501  41.952  11.609
31393W        W95337   2.831  26.608   1.912
31394W        W95338  23.722  38.055   1.276
31395W        W95339  35.874  43.371   4.790
31396W        W95340  25.053  30.034   3.248
31397W        W95341  27.478  28.597   3.685
31398W        W95342  44.418  43.830   4.698
31399W        W95343  18.781  17.684   1.343
31400W        W95344  43.881   6.252   3.769
31401W        W95345  20.044  22.712  14.317
31402W        W95346  15.817  10.660  13.840
31403W        W95347  21.196  32.494   1.296
31404W        W95348  31.118   8.817   4.796
31405W        W95349  43.339  14.181  14.002
31406W        W95350  21.224  42.969   0.427
31407W        W95351  38.386  38.401  12.879
31408W        W95352   2.367  39.510  14.456
31409W        W95353  23.615   0.375  12.500
31410W        W95354  13.747  15.201   2.401
31411W        W95355  28.471   4.317  11.061
31412W        W95356  13.607   6.360   2.695
31413W        W95357  38.362  31.627   0.966
31414W        W95358   5.855  32.481   4.646
31415W        W95359  11.245  43.004  12.341
31416W        W95360  38.541  28.672  10.532
31417W        W95361  21.199  16.799  13.419
31418W        W95362  18.615  27.981   2.178
31419W        W95363  29.457   2.743  13.809
31420W        W95364  14.200  41.855  14.413
31421W        W95365  15.612   9.869   3.809
31422W        W95366   8.242  38.855   0.797
31423W        W95367  17.110  19.189   1.721
31424W        W95368   6.350  29.015  10.571
31425W        W95369  25.629  37.065  12.387
31426W        W95370  16.651  28.531  13.015
31427W        W95371  38.848  32.488  13.372
31428W        W95372  17.232   0.460   1.434
31429W        W95373  43.855  28.045  14.364
31430W        W95374  39.904  16.116   3.159
31431W        W95375  35.872  10.231   4.330
31432W        W95376   0.486  21.131   3.852
31433W        W95377   7.842  33.006   0.450
31434W        W95378  12.794   9.299   1.734
31435W        W95379  30.970   5.689   1.863
31436W        W95380  38.361  12.726   0.912
31437W        W95381   4.925  29.134   3.668
31438W        W95382  13.188   9.336  10.552
31439W        W95383  17.770  40.004  13.350
31440W        W95384  20.227  33.876   2.326
31441W        W95385   5.929  43.504   4.612
31442W        W95386  25.049  22.091   1.728
31443W        W95387   0.807  14.119   3.362
31444W        W95388  44.887  19.679  12.033
31445W        W95389  14.141  37.480   5.144
31446W        W95390  36.418  42.016  14.442
31447W        W95391  28.645   2.782  12.910
31448W        W95392  16.103   1.380   0.406
31449W        W95393  14.718  22.621  13.535
31450W        W95394   8.783   8.388   3.814
31451W        W95395  20.592  19.750   3.245
31452W        W95396  20.124  39.965  13.417
31453W        W95397  25.109  19.749  11.382
31454W        W95398  13.731  43.817  12.989
31455W        W95399   4.359  33.013   2.791
31456W        W95400  21.713  34.913   1.406
31457W        W95401  38.492   1.882   3.318
31458W        W95402  15.299  24.593   4.323
31459W        W95403  14.777  15.776   2.667
31460W        W95404  17.629  41.502   0.449
31461W        W95405   9.664  44.335  13.424
31462W        W95406  43.321  22.526   4.763
31463W        W95407  13.689  44.890  14.882
31464W        W95408  16.091  44.753  14.006
31465W        W95409  41.454  22.532  14.357
31466W        W95410   9.652  14.711  13.965
31467W        W95411  16.743  44.989   0.864
31468W        W95412  19.136   6.694   0.867
31469W        W95413  38.839   5.432  12.844
31470W        W95414  43.308  15.277   0.746
31471W        W95415  31.440  41.994  12.935
31472W        W95416  18.117  21.603   4.308
31473W        W95417  34.510  24.719  14.994
31474W        W95418  19.606   2.811   2.794
31475W        W95419  37.071  32.412  10.624
31476W        W95420  31.061   0.948   1.844
31477W        W95421  38.859  25.991   3.362
31478W        W95422  44.869  19.172  11.086
31479W        W95423   9.886  21.231  11.870
31480W        W95424  29.549  31.013   4.174
31481W        W95425   9.187  27.031  11.082
31482W        W95426  18.672  37.392   1.740
31483W        W95427   7.386  32.521   4.298
31484W        W95428  13.181   2.816   2.266
31485W        W95429  32.027  10.187   0.318
31486W        W95430  42.380  11.735   2.868
31487W        W95431  36.492  22.036  14.777
31488W        W95432  20.673  29.138   2.419
31489W        W95433  26.004  42.436   1.899
31490W        W95434  24.605  10.302   0.417
31491W        W95435  23.213  40.424  13.811
31492W        W95436   1.416   9.389  11.035
31493W        W95437  21.626  19.097  12.001
31494W        W95438  23.522  27.561   4.197
31495W        W95439  12.273  43.511  13.800
31496W        W95440  15.253  13.288  13.908
31497W        W95441  11.281  23.231  12.033
31498W        W95442  31.523  26.635  14.913
31499W        W95443   3.849   0.976   0.384
31500W        W95444   3.955  44.439   0.871
31501W        W95445   6.192  40.340  11.103
31502W        W95446  40.888  25.506  13.474
31503W        W95447  30.997  35.492   2.377
31504W        W95448   0.841   6.787   3.835
31505W        W95449  32.589  29.002   4.157
31506W        W95450  27.162  29.634  10.896
31507W        W95451   9.780  13.116  14.466
31508W        W95452  27.976  39.052   9.926
31509W        W95453  42.506  22.668   1.338
31510W        W95454  20.050  31.138   4.311
31511W        W95455   6.356  23.510   3.824
31512W        W95456  19.083  28.086  12.904
31513W        W95457  36.531   0.445   1.704
31514W        W95458  28.954  27.632  14.949
31515W        W95459   6.351   8.188  11.991
31516W        W95460  18.153  10.311  12.456
31517W        W95461   9.742   4.383  14.419
31518W        W95462  30.921   5.895  13.015
31519W        W95463  32.479  13.251   4.615
31520W        W95464  12.642   1.935   3.260
31521W        W95465  21.239  25.478   3.173
31522W        W95466  12.238  16.763  12.944
31523W        W95467  11.265  18.091   0.263
31524W        W95468  20.117   4.379  10.477
31525W        W95469  27.949  13.738  14.845
31526W        W95470  30.423  28.526   2.784
31527W        W95471  18.598  16.091   1.406
31528W        W95472  10.242  44.766  14.008
31529W        W95473  15.294  14.721  11.519
31530W        W95474  44.327   7.381   1.822
31531W        W95475  36.437  12.202   2.360
31532W        W95476  12.273  30.638   3.180
31533W        W95477  31.967  21.193  10.947
31534W        W95478  22.596  31.137   1.886
31535W        W95479   3.292  28.569   1.382
31536W        W95480  40.432  40.447   9.965
31537W        W95481  26.636  23.553  13.044
31538W        W95482  17.737  11.222   0.384
31539W        W95483  13.792  14.305   5.201
31540W        W95484   7.745  17.572   0.387
31541W        W95485  20.675  29.656  11.016
31542W        W95486   1.282  32.419  12.035
31543W        W95487  33.093   6.364   0.898
31544W        W95488  18.081  34.405   4.611
31545W        W95489  17.190  42.457   3.724
31546W        W95490  44.926   0.295  13.855
31547W        W95491   0.380  38.976   3.849
31548W        W95492  27.487  24.228  13.520
31549W        W95493  34.051  12.122   4.730
31550W        W95494  33.062  21.161   2.206
31551W        W95495  40.543  16.581  12.877
31552W        W95496  30.418  34.506  12.850
31553W        W95497  22.509   5.888  11.881
31554W        W95498   2.827  39.878  12.964
31555W        W95499   9.811  31.070   5.596
31556W        W95500  40.983  29.090  12.946
31557W        W95501  35.491  44.474   3.670
31558W        W95502  39.990  38.871  10.565
31559W        W95503  20.238  42.945  13.061
31560W        W95504  18.638  19.591  11.880
31561W        W95505  15.627  43.378   4.334
31562W        W95506   2.354  44.784  14.483
31563W        W95507  38.446  12.227  11.866
31564W        W95508  21.583   1.439  13.461
31565W        W95509   2.792  43.939  12.392
31566W        W95510  14.184  11.708  11.440
31567W        W95511  21.254  24.689  11.884
31568W        W95512  31.407  16.698  10.460
31569W        W95513  23.135   5.296  14.489
31570W        W95514  33.557  27.095  11.064
31571W        W95515  13.794  37.885   4.674
31572W        W95516  19.118   6.913  10.594
31573W        W95517  43.271  41.955  11.459
31574W        W95518  25.208  25.663  14.306
31575W        W95519   7.888  31.586   2.357
31576W        W95520  29.014  11.664   3.808
31577W        W95521  22.621  27.063  14.327
31578W        W95522  37.916  11.658   3.653
31579W        W95523  37.026  36.547   2.680
31580W        W95524  31.470  16.110   0.243
31581W        W95525   2.427  42.823   3.839
31582W        W95526  21.697   5.864   2.788
31583W        W95527  44.760  14.827  14.353
31584W        W95528  31.612   7.388   3.725
31585W        W95529  20.224  41.958  13.000
31586W        W95530  20.161  26.146   4.791
31587W        W95531  22.565   1.287   4.255
31588W        W95532  36.067  38.923   2.733
31589W        W95533  41.037  41.024   0.761
31590W        W95534  41.791  13.125  14.428
31591W        W95535  19.614  34.462   1.790
31592W        W95536  17.069  22.168  13.040
31593W        W95537  37.346  24.051   0.403
31594W        W95538   3.349  12.780   2.215
31595W        W95539  12.357  35.857   0.414
31596W        W95540  41.478  26.494  14.430
31597W        W95541  43.004  13.745  13.367
31598W        W95542   3.878   3.879  11.892
31599W        W95543  23.115  41.477   2.819
31600W        W95544  13.231  41.329   3.682
31601W        W95545  13.338  21.204   5.247
31602W        W95546  32.501  35.990  10.963
31603W        W95547  29.637   8.261   0.376
31604W        W95548  18.239  37.861  14.924
31605W        W95549  31.627  30.953   4.622
31606W        W95550  32.025  32.917   4.790
31607W        W95551  25.193   7.892  12.882
31608W        W95552   2.307  24.106   3.257
31609W        W95553  29.922  32.126   0.793
31610W        W95554   6.366  20.678  13.315
31611W        W95555  30.990  43.392   0.930
31612W        W95556   7.348   4.700  12.077
31613W        W95557   3.820   4.447   0.894
31614W        W95558  19.588  39.051   4.133
31615W        W95559  13.192  10.676   0.367
31616W        W95560  36.569  21.171   3.773
31617W        W95561  18.551  38.483   4.834
31618W        W95562  29.452  19.111  13.328
31619W        W95563  42.778  33.425  10.980
31620W        W95564  43.328  35.043   2.721
31621W        W95565  40.506  32.916   1.325
31622W        W95566  39.437  22.221  11.583
31623W        W95567  42.900  41.298  14.448
31624W        W95568  27.132   2.807  12.081
31625W        W95569   4.354  22.051  13.946
31626W        W95570  34.609   2.794   3.670
31627W        W95571  36.541  32.534  10.518
31628W        W95572  19.605  13.269  11.373
31629W        W95573  14.595  22.616  11.567
31630W        W95574  21.605  35.891   1.726
31631W        W95575  23.145  44.874   0.246
31632W        W95576  31.618  24.646  14.346
31633W        W95577  14.674  11.264   9.933
31634W        W95578  22.165  39.391   2.343
31635W        W95579  38.922  30.113   9.985
31636W        W95580   7.320  18.650  14.471
31637W        W95581  31.137  16.572  14.460
31638W        W95582  41.436  29.602  11.974
31639W        W95583  15.685   8.655  13.058
31640W        W95584   6.387  28.139  14.765
31641W        W95585  40.045  10.643  14.495
31642W        W95586  25.138   2.765   1.214
31643W        W95587  31.960  20.167  12.354
31644W        W95588  16.745   1.839  11.925
31645W        W95589   4.234  32.454  12.459
31646W        W95590   2.317  12.668   0.935
31647W        W95591  12.643   0.321  11.499
31648W        W95592  42.965  18.065  10.943
31649W        W95593  39.531  34.524  12.048
31650W        W95594  12.642  35.964  10.626
31651W        W95595  44.268  44.877   2.684
31652W        W95596  25.651  25.678  14.482
31653W        W95597  13.285  17.215  10.143
31654W        W95598   3.375  18.697   0.338
31655W        W95599  15.269  27.187   4.813
31656W        W95600  10.763  41.817  14.344
31657W        W95601  39.548  11.230   3.724
31658W        W95602  33.037  34.082  12.052
31659W        W95603  24.011  17.129  13.849
31660W        W95604   2.769  35.423   3.683
31661W        W95605  20.547  22.111  13.376
31662W        W95606  26.201  30.589   3.209
31663W        W95607  27.559   1.307   1.749
31664W        W95608  32.886  23.137  13.418
31665W        W95609  38.021  11.311   2.250
31666W        W95610  39.425  42.489   2.220
31667W        W95611  18.050  27.023  11.085
31668W        W95612  37.554  42.839  13.885
31669W        W95613  20.581  37.406  10.474
31670W        W95614  24.538   5.368   4.713
31671W        W95615  43.911   4.909   0.322
31672W        W95616  19.668  10.382   4.301
31673W        W95617  41.328   5.878   1.824
31674W        W95618  21.184  21.666  11.583
31675W        W95619   6.355  21.047  12.850
31676W        W95620  36.876  36.862   0.770
31677W        W95621  12.801   6.829   1.913
31678W        W95622  15.821   7.867  14.914
31679W        W95623  10.803   9.666  14.885
31680W        W95624  17.715  37.928  13.475
31681W        W95625   2.819  34.943  11.548
31682W        W95626  15.664  38.555  13.026
31683W        W95627  34.986   2.934  11.445
31684W        W95628  10.748  43.789   0.926
31685W        W95629   5.265  17.194   3.706
31686W        W95630  40.509  36.049   1.286
31687W        W95631  18.644  33.620   2.867
31688W        W95632  19.241  12.643  11.466
31689W        W95633  10.646   3.812  12.545
31690W        W95634  17.252  43.942   1.238
31691W        W95635  31.403  11.732  10.948
31692W        W95636  34.541  42.850  14.950
31693W        W95637  33.615   4.301  12.948
31694W        W95638  21.111  14.330  10.480
31695W        W95639  39.479  17.182  13.451
31696W        W95640  37.573  43.495  11.468
31697W        W95641  28.956  42.798   2.843
31698W        W95642  14.260  25.564  10.468
31699W        W95643  16.286   3.314   4.681
31700W        W95644  18.582   1.440   0.421
31701W        W95645  23.717  20.076   2.418
31702W        W95646  22.110  40.820   0.882
31703W        W95647  35.599  38.914  14.813
31704W        W95648  27.087  37.377  10.607
31705W        W95649  18.558  23.240  14.916
31706W        W95650  12.164  10.185  14.408
31707W        W95651  39.343   6.313  11.452
31708W        W95652  39.844  42.956   0.929
31709W        W95653  36.548  21.022  13.910
31710W        W95654  37.034  25.550   1.765
31711W        W95655  43.910  22.180  13.049
31712W        W95656   9.751  41.523   0.390
31713W        W95657  42.841  25.655  12.069
31714W        W95658  24.078  28.511  10.455
31715W        W95659  29.138   1.301  11.378
31716W        W95660  19.667  36.937   3.248
31717W        W95661  40.970  42.383   2.346
31718W        W95662  14.115  24.991  12.951
31719W        W95663   2.414  27.558  10.046
31720W        W95664  30.587  10.768   4.264
31721W        W95665  29.038  23.497   4.822
31722W        W95666  14.093  30.958   3.748
31723W        W95667  17.646  19.229   1.291
31724W        W95668  11.670  10.277   2.837
31725W        W95669  41.811  25.474  10.563
31726W        W95670  34.587  32.461   3.699
31727W        W95671   6.193   9.359  14.872
31728W        W95672  32.014  27.578  13.905
31729W        W95673  40.960  41.922   1.832
31730W        W95674  38.018  35.879  11.115
31731W        W95675  37.505  37.450   5.147
31732W        W95676  20.614   5.300   2.702
31733W        W95677   0.976  35.102  11.862
31734W        W95678  26.512  36.475   5.289
31735W        W95679  41.503  16.624  14.297
31736W        W95680  36.346  22.556   0.790
31737W        W95681  14.816  18.066  13.351
31738W        W95682  29.506  23.575  10.957
31739W        W95683  26.969  30.142  10.972
31740W        W95684  18.568   3.237   0.368
31741W        W95685  29.474  17.067   3.765
31742W        W95686  44.428  15.106   1.355
31743W        W95687  42.507  25.018   4.116
31744W        W95688  34.870  15.172  12.468
31745W        W95689  40.443  21.526  11.393
31746W        W95690  13.796  19.159   4.119
31747W        W95691  43.504  41.527  10.952
31748W        W95692  29.084  42.389   3.693
31749W        W95693  12.771  13.149   1.403
31750W        W95694  37.367  31.616   2.297
31751W        W95695  25.141  28.985   2.357
31752W        W95696  24.201   7.906   4.179
31753W        W95697  30.544  20.651  11.522
31754W        W95698  23.171  36.019  13.856
31755W        W95699  22.746   0.775  13.307
31756W        W95700  14.784   5.332  11.931
31757W        W95701   6.326  41.806  12.972
31758W        W95702  16.751  12.210   4.657
31759W        W95703  12.762  30.122  11.576
31760W        W95704  25.992  37.936   0.817
31761W        W95705   3.739  14.162  10.981
31762W        W95706  23.628  16.165  13.500
31763W        W95707  21.018  25.007   1.427
31764W        W95708   2.401  15.685  11.051
31765W        W95709  37.358  41.820   3.331
31766W        W95710  12.617  23.195  12.916
31767W        W95711  36.921  29.139  12.518
31768W        W95712  27.538  39.494  14.285
31769W        W95713  33.457   6.711   4.275
31770W        W95714  34.112  38.490  14.940
31771W        W95715   1.427  31.416  11.109
31772W        W95716   7.777  26.627   1.838
31773W        W95717   2.407  18.264   9.954
31774W        W95718   7.265  15.125   0.300
31775W        W95719  34.062  18.288   0.891
31776W        W95720  14.240   9.235  12.867
31777W        W95721  20.601  19.244  14.478
31778W        W95722   4.247  19.200   4.643
31779W        W95723  24.139  36.067   1.779
31780W        W95724  10.326  22.071  12.452
31781W        W95725  19.598   4.432  12.945
31782W        W95726  29.058   3.278   2.289
31783W        W95727  43.929  41.852  14.821
31784W        W95728   6.199  17.781   3.310
31785W        W95729  24.091  40.834  11.517
31786W        W95730  13.169   0.980   0.762
31787W        W95731  44.329   5.782  10.574
31788W        W95732   5.273   4.910   2.891
31789W        W95733  43.396  32.096  11.938
31790W        W95734  14.714  30.994  13.341
31791W        W95735  38.851  35.932  14.865
31792W        W95736  36.847  13.266   1.318
31793W        W95737  18.779  40.803  12.578
31794W        W95738  29.065  20.554  12.827
31795W        W95739   2.398  34.022   4.345
31796W        W95740   7.790  21.522   0.308
31797W        W95741   0.335  19.576   3.181
31798W        W95742   7.182  31.098   1.272
31799W        W95743  32.064  39.849   2.693
31800W        W95744  25.176   6.897   3.771
31801W        W95745   7.763  19.717   0.901
31802W        W95746  21.171  37.033   3.832
31803W        W95747   0.785   3.876   2.765
31804W        W95748  42.969   8.898  12.522
31805W        W95749   6.186  33.025   1.784
31806W        W95750  37.904  27.169  12.088
31807W        W95751  17.767   6.230  13.361
31808W        W95752  36.504   3.747   2.846
31809W        W95753  39.881  39.526   1.263
31810W        W95754  18.598  22.252  11.456
31811W        W95755  40.974  10.153   3.868
31812W        W95756  36.915  11.324  13.413
31813W        W95757  25.595  44.496   0.845
31814W        W95758   0.447  33.112  13.060
31815W        W95759   0.466  40.368  13.308
31816W        W95760  19.640  15.739   3.347
31817W        W95761  19.690  21.517  13.016
31818W        W95762  34.029  26.128  14.489
31819W        W95763  10.356   0.300  14.511
31820W        W95764  43.856  37.369   2.278
31821W        W95765  17.786  36.859   4.624
31822W        W95766  16.746  20.131   1.243
31823W        W95767  26.545   6.270  14.982
31824W        W95768  23.585  21.141   3.830
31825W        W95769  42.491   5.349  11.434
31826W        W95770  24.005   9.718  13.942
31827W        W95771  28.478  16.677   1.431
31828W        W95772  42.023   1.427  13.424
31829W        W95773   2.250  38.942   2.263
31830W        W95774  31.606  22.553  12.905
31831W        W95775  30.099  23.719   1.238
31832W        W95776  13.105  37.499   1.858
31833W        W95777   2.760  42.988   0.478
31834W        W95778  22.662   4.844   1.351
31835W        W95779  37.515  30.470   3.170
31836W        W95780   5.739  20.112   0.276
31837W        W95781   8.222  20.108   0.355
31838W        W95782   0.809  40.038  14.480
31839W        W95783  44.927  32.009   1.255
31840W        W95784  38.556  11.718  12.949
31841W        W95785  28.170   7.288  11.377
31842W        W95786  23.636  38.461  10.984
31843W        W95787  12.819  41.508   2.865
31844W        W95788  25.177  20.532  10.616
31845W        W95789  30.494  15.613   1.835
31846W        W95790  27.168  30.470   0.406
31847W        W95791   7.723  43.000   1.220
31848W        W95792  33.503  13.262  14.008
31849W        W95793  29.482  24.994  14.322
31850W        W95794  23.007  21.139   0.278
31851W        W95795  39.531  17.797  14.440
31852W        W95796  23.580  19.221  13.976
31853W        W95797  30.612  32.120   0.886
31854W        W95798  44.263  21.538   0.957
31855W        W95799  26.689  20.728  13.396
31856W        W95800  18.052  19.580  12.080
31857W        W95801  19.174  20.712  14.322
31858W        W95802   1.250  26.068  13.315
31859W        W95803  19.228  30.543  10.497
31860W        W95804   7.197  35.925  11.876
31861W        W95805  34.978  44.313  14.463
31862W        W95806   7.728  17.231   9.960
31863W        W95807   9.263  21.157  14.427
31864W        W95808  21.055  41.420  10.412
31865W        W95809  39.902  25.191  11.419
31866W        W95810  35.548   7.871   3.255
31867W        W95811   5.934  25.179  13.934
31868W        W95812   6.236  16.262   3.174
31869W        W95813  28.161   3.927   4.268
31870W        W95814  28.464  42.840  14.976
31871W        W95815  29.459  23.586  14.415
31872W        W95816  35.379  31.638   2.669
31873W        W95817  40.877  40.798   3.744
31874W        W95818  32.425  30.469   1.331
31875W        W95819  29.134   7.355   2.340
31876W        W95820  28.143  44.919  13.440
31877W        W95821  14.340  33.606  14.450
31878W        W95822  42.415  16.660   3.290
31879W        W95823  16.759  19.673   4.661
31880W        W95824   9.324  24.693   2.831
31881W        W95825  30.546  37.922   4.122
31882W        W95826  10.140  11.682   0.391
31883W        W95827  10.769  10.172   4.129
31884W        W95828  39.900  12.261   2.182
31885W        W95829  41.003  15.778  12.523
31886W        W95830  35.490   2.919   4.688
31887W        W95831  35.020  12.149   0.730
31888W        W95832  34.508  27.111   3.255
31889W        W95833   3.826  34.528  14.508
31890W        W95834   8.357   7.791  11.021
31891W        W95835  15.315  23.001   9.600
31892W        W95836  38.348  42.833  12.371
31893W        W95837   5.367   4.857  14.841
31894W        W95838  27.028  18.093   3.722
31895W        W95839  18.636  13.777   1.900
31896W        W95840  35.867  10.289   1.325
31897W        W95841   2.366  40.330   1.742
31898W        W95842  39.056  25.084  10.017
31899W        W95843  35.104  36.346   2.279
31900W        W95844  10.344  18.248  10.951
31901W        W95845  28.475  27.039   3.756
31902W        W95846  32.992  21.745  11.566
31903W        W95847  37.346   3.831   0.465
31904W        W95848   0.419  12.355   3.227
31905W        W95849   6.390  28.593   2.735
31906W        W95850  34.976  16.213  13.489
31907W        W95851  13.636  25.178   2.314
31908W        W95852  21.140  41.983  11.035
31909W        W95853  23.537  15.142   4.747
31910W        W95854  17.773  32.506  11.112
31911W        W95855  32.539  44.465   1.708
31912W        W95856   2.897  31.055  11.477
31913W        W95857  35.385  20.155  14.916
31914W        W95858  22.064  39.466  13.527
31915W        W95859  21.591  14.259  11.942
31916W        W95860  23.001  20.530  13.313
31917W        W95861  24.147   8.844   0.794
31918W        W95862   1.412  14.106  14.876
31919W        W95863  35.558   8.301   0.882
31920W        W95864  24.512  18.772   2.834
31921W        W95865  25.097  27.478   2.823
31922W        W95866  14.594   0.442   9.995
31923W        W95867  43.827  17.207  11.061
31924W        W95868  34.869  43.508   2.413
31925W        W95869  27.146  12.291  14.001
31926W        W95870  36.542  41.885   3.677
31927W        W95871  36.464  30.553  12.923
31928W        W95872  21.028   7.712   2.249
31929W        W95873   9.208  29.550  13.502
31930W        W95874  12.342   3.232   0.404
31931W        W95875  32.992  18.061  12.026
31932W        W95876   7.764  33.013   3.184
31933W        W95877  28.027  19.666  12.044
31934W        W95878  40.526   0.913   3.154
31935W        W95879  24.148  25.208  10.051
31936W        W95880  27.060  41.833  13.893
31937W        W95881  14.701  32.890  11.030
31938W        W95882  36.933  22.071  12.539
31939W        W95883  37.341   5.751   0.346
31940W        W95884  38.420  28.503  14.358
31941W        W95885  30.921  19.656  12.516
31942W        W95886  17.196   2.764  13.795
31943W        W95887  26.577   3.378   0.259
31944W        W95888  12.727   5.364   4.244
31945W        W95889  16.235  29.656  11.121
31946W        W95890  11.859  34.011  11.915
31947W        W95891   1.409  24.517  12.001
31948W        W95892  17.294  33.562   0.373
31949W        W95893  34.032  11.290  11.084
31950W        W95894  29.577  42.023   4.637
31951W        W95895  13.658   2.254  13.978
31952W        W95896  14.201  15.679  12.857
31953W        W95897   7.234   6.289  14.390
31954W        W95898   6.416   5.778  11.503
31955W        W95899  18.146  17.204  12.935
31956W        W95900   7.298  27.980  13.033
31957W        W95901  43.838  36.995   4.308
31958W        W95902  43.411  11.330  11.004
31959W        W95903   1.436  16.165   4.167
31960W        W95904  38.820  27.595   0.932
31961W        W95905  24.059  43.482   3.832
31962W        W95906  26.502  36.384   0.962
31963W        W95907  17.294  18.274  10.045
31964W        W95908   3.387  42.776  11.544
31965W        W95909  35.065  11.138   2.901
31966W        W95910   5.842  19.260   3.377
31967W        W95911  44.351  33.419   0.407
31968W        W95912  43.021  26.168   0.365
31969W        W95913  26.958   3.907  11.980
31970W        W95914   9.656  27.532  13.343
31971W        W95915   0.249  26.492   0.788
31972W        W95916  38.554  14.721  12.383
31973W        W95917   3.408  41.850   4.253
31974W        W95918   3.778  42.367   2.743
31975W        W95919  27.501  35.961  13.367
31976W        W95920   9.836  12.634  14.976
31977W        W95921  29.097  33.104  11.028
31978W        W95922   8.336  39.944  12.005
31979W        W95923  17.245  34.991   4.285
31980W        W95924  21.715  27.520  11.496
31981W        W95925  23.199  33.097  14.781
31982W        W95926  20.136   8.355  13.878
31983W        W95927  26.998  21.222  13.025
31984W        W95928  42.450  38.376  13.038
31985W        W95929   1.954   7.728  13.801
31986W        W95930  25.972   6.281   3.713
31987W        W95931  18.149  10.371  12.842
31988W        W95932  28.654  18.123  14.306
31989W        W95933  20.123   5.434   1.339
31990W        W95934  10.169  35.950   1.420
31991W        W95935   2.758  21.185   4.730
31992W        W95936  27.472  36.073   0.893
31993W        W95937  22.598  34.913   1.313
31994W        W95938  44.340  42.499   3.759
31995W        W95939  11.360   9.166   3.824
31996W        W95940  20.200  23.507  10.927
31997W        W95941   7.736  12.785  11.548
31998W        W95942  36.871  38.881  10.443
31999W        W95943  19.065  15.197   3.355
32000W        W95944   7.844   5.417  11.931
32001W        W95945  41.319  38.527  14.498
32002W        W95946  39.979  42.427   2.841
32003W        W95947  27.075  29.015   0.365
32004W        W95948  15.775  18.267   0.469
32005W        W95949  21.093   6.897  12.498
32006W        W95950  18.548  16.199  12.576
32007W        W95951  43.920   9.710   0.350
32008W        W95952  34.069  22.675   1.760
32009W        W95953  35.499   2.963   3.194
32010W        W95954  34.569  22.676   1.794
32011W        W95955  32.897   9.304  13.951
32012W        W95956  23.585  34.929   3.802
32013W        W95957   3.920  17.794  10.438
32014W        W95958  32.582  26.989   2.882
32015W        W95959  28.633   1.458   0.914
32016W        W95960  44.335  21.530  13.430
32017W        W95961  14.295  23.057  13.793
32018W        W95962  24.056  13.619  11.122
32019W        W95963  12.756  37.012  14.829
32020W        W95964  32.966  19.130   0.915
32021W        W95965  39.057   8.748  11.118
32022W        W95966  29.536  20.594  11.585
32023W        W95967  38.056  23.186  13.419
32024W        W95968   6.298  13.843   4.329
32025W        W95969   1.940   0.400   4.277
32026W        W95970  12.674  36.892   0.928
32027W        W95971  37.435  25.144  11.406
32028W        W95972   4.430  17.064  14.014
32029W        W95973   4.216  12.157   3.647
32030W        W95974   1.976  23.136  14.951
32031W        W95975  25.173  42.871  14.311
32032W        W95976  36.468  33.413  12.039
32033W        W95977  44.403  29.665  13.063
32034W        W95978   0.256  26.207  13.894
32035W        W95979  17.714  25.193   4.132
32036W        W95980  36.462  36.426   3.802
32037W        W95981  13.233  26.482   3.220
32038W        W95982  33.991  28.948  10.496
32039W        W95983  27.685  38.845   1.219
32040W        W95984  43.793   8.289  13.501
32041W        W95985  42.389   2.826  11.104
32042W        W95986  40.320  44.001  12.051
32043W        W95987  11.771  13.730  13.824
32044W        W95988  16.203  12.147   3.705
32045W        W95989   9.676  34.598  13.905
32046W        W95990  42.948  32.013   3.731
32047W        W95991  21.220  13.727  12.479
32048W        W95992  30.510  18.078   0.385
32049W        W95993  21.548   2.384   4.796
32050W        W95994  38.986  37.557  12.493
32051W        W95995  17.588  24.569   1.782
32052W        W95996  11.838   9.786   4.837
32053W        W95997   8.227  19.589  12.413
32054W        W95998  36.360   1.921   2.280
32055W        W95999   8.251   7.375  13.476
32056W        W96000   3.331   2.915  13.393
32057W        W96001   5.286  19.204  11.503
32058W        W96002   8.344  30.908  11.935
32059W        W96003  33.408  24.117   2.223
32060W        W96004  24.636  24.090  11.535
32061W        W96005  28.618  28.111   2.741
32062W        W96006  20.769  32.963  11.390
32063W        W96007  36.973  15.592  10.635
32064W        W96008  43.458  32.125   4.240
32065W        W96009   5.205  28.444  12.062
32066W        W96010  35.428  16.173   4.735
32067W        W96011  20.139  18.637  14.892
32068W        W96012   1.270  22.509  10.899
32069W        W96013   7.205  31.596  11.444
32070W        W96014  11.626   1.249   2.352
32071W        W96015  36.511  36.098  13.004
32072W        W96016  22.729  21.234   1.764
32073W        W96017   1.346  20.691   3.739
32074W        W96018  10.855  10.849   1.923
32075W        W96019   6.792  25.168  12.828
32076W        W96020  10.348   1.346  14.931
32077W        W96021  37.876   9.348  12.021
32078W        W96022   6.859   4.250   0.253
32079W        W96023   7.767  16.151   0.858
32080W        W96024  41.532  20.042  10.439
32081W        W96025  18.560  21.103   1.369
32082W        W96026  22.662   0.365   2.410
32083W        W96027  15.761  29.597   2.885
32084W        W96028  36.033  15.170  11.422
32085W        W96029  41.449  13.671  11.954
32086W        W96030   1.853  23.674  11.465
32087W        W96031  18.614  15.639   5.215
32088W        W96032  38.557  31.568   0.402
32089W        W96033   0.823  27.190  14.789
32090W        W96034  26.597  24.615   4.768
32091W        W96035  10.677  23.494  13.478
32092W        W96036  30.593  26.537   4.244
32093W        W96037  21.083  23.597  11.962
32094W        W96038  40.453   7.763   0.953
32095W        W96039  29.089  20.554   1.707
32096W        W96040   3.869  27.686  13.546
32097W        W96041   9.699  39.025   1.923
32098W        W96042  17.075   2.726  11.448
32099W        W96043  42.387  28.146  13.058
32100W        W96044   0.387  25.021   0.292
32101W        W96045  30.510  44.457  10.447
32102W        W96046  36.023  14.171  13.929
32103W        W96047  27.019  19.715  11.062
32104W        W96048  29.572   1.926   2.182
32105W        W96049  14.303  30.989   2.902
32106W        W96050  26.687  17.203   0.860
32107W        W96051   1.829  41.845   0.344
32108W        W96052  34.464  33.405  11.448
32109W        W96053  32.610  18.112   5.164
32110W        W96054  23.012  24.128   0.289
32111W        W96055  18.082  31.422  14.470
32112W        W96056  30.093   2.810   4.329
32113W        W96057  13.287  25.148   5.247
32114W        W96058   3.226  39.535   4.164
32115W        W96059  12.117   6.740   2.684
32116W        W96060  44.002  25.216   0.423
32117W        W96061  34.496   6.681   2.757
32118W        W96062  11.304  23.151  11.556
32119W        W96063  12.713   5.412   3.667
32120W        W96064  43.461  27.068  14.511
32121W        W96065  15.749  23.670   1.794
32122W        W96066  21.099  21.258  10.568
32123W        W96067   7.415  12.695   0.330
32124W        W96068   2.948  21.641  14.002
32125W        W96069  18.070  24.106  14.403
32126W        W96070   1.335  41.874  14.303
32127W        W96071  21.029  17.691  12.000
32128W        W96072  19.215  31.552   4.812
32129W        W96073  37.998  18.707   9.946
32130W        W96074  12.705  19.039  12.871
32131W        W96075  12.242  18.781   4.626
32132W        W96076  33.587  37.883  14.491
32133W        W96077  13.176  21.607  13.018
32134W        W96078   4.304  39.523  11.444
32135W        W96079   2.353  16.748  11.576
32136W        W96080   7.317  26.471   2.802
32137W        W96081  17.229  32.603   9.587
32138W        W96082   1.448  22.606  13.826
32139W        W96083  35.995  15.193   3.178
32140W        W96084   3.305  37.434   4.227
32141W        W96085  16.643  43.438   2.856
32142W        W96086  37.357  30.589   0.730
32143W        W96087  26.497  30.019  12.440
32144W        W96088  26.975  10.264  14.795
32145W        W96089  26.518  30.067   4.307
32146W        W96090  26.970  31.971  13.911
32147W        W96091  23.034  40.871   2.710
32148W        W96092  43.472  34.462  10.424
32149W        W96093  28.555  11.638   4.348
32150W        W96094   5.327  21.121  12.351
32151W        W96095  29.617  15.245  13.905
32152W        W96096  26.573  24.102  10.524
32153W        W96097   0.754   6.353  11.536
32154W        W96098  37.400  29.163  10.515
32155W        W96099   5.239  38.901   0.251
32156W        W96100  29.032  19.561   3.710
32157W        W96101  44.890   4.757   0.320
32158W        W96102  39.430  14.332  12.866
32159W        W96103  41.820  12.854   3.768
32160W        W96104  10.360  43.775   2.192
32161W        W96105   0.480  28.941   4.122
32162W        W96106  32.069   1.416   3.694
32163W        W96107  38.432  23.670  12.412
32164W        W96108  39.387  41.407   0.960
32165W        W96109   4.888   6.909   3.744
32166W        W96110   4.791  34.003  12.016
32167W        W96111   1.818  17.174   0.361
32168W        W96112  24.515  10.715   4.122
32169W        W96113   8.747  37.083   3.268
32170W        W96114  29.606  33.485  13.060
32171W        W96115   4.757  24.052  13.318
32172W        W96116   8.373  12.329   4.280
32173W        W96117   0.260  29.452   3.866
32174W        W96118  31.465  25.060  14.488
32175W        W96119  20.649  42.830  11.944
32176W        W96120  37.496  41.042   3.271
32177W        W96121  21.528  17.741   4.282
32178W        W96122   2.248  15.274  12.557
32179W        W96123   2.226   2.455  11.572
32180W        W96124  37.904  11.297  11.936
32181W        W96125  17.559  23.224   2.374
32182W        W96126  21.078  27.465  13.425
32183W        W96127  10.679  42.813  12.828
32184W        W96128  22.622  30.909  12.855
32185W        W96129  43.810  13.297  11.532
32186W        W96130   4.446  38.819   2.266
32187W        W96131  39.975   1.900   2.377
32188W        W96132  36.405  43.894   1.330
32189W        W96133  25.559  22.096  12.573
32190W        W96134  39.898   0.780  11.013
32191W        W96135  28.543  33.468   1.296
32192W        W96136  42.818  19.267  11.581
32193W        W96137   8.245  24.214  12.499
32194W        W96138   7.291  16.274   3.725
32195W        W96139  23.539  39.912  11.076
32196W        W96140  27.017  11.311   0.862
32197W        W96141  18.631  28.500  13.421
32198W        W96142   1.449   5.432  11.066
32199W        W96143  35.088  11.261  14.338
32200W        W96144  16.698  36.051  10.642
32201W        W96145   2.880  37.942  12.480
32202W        W96146  24.191  25.603  11.401
32203W        W96147  33.052   7.859  12.342
32204W        W96148  27.488  13.315  13.007
32205W        W96149  23.158  16.584  14.447
32206W        W96150  41.939  21.045   0.825
32207W        W96151  20.259  19.184   1.415
32208W        W96152  27.186  30.505  12.515
32209W        W96153  36.351   0.931   0.256
32210W        W96154  42.031  18.238  12.885
32211W        W96155  19.205   4.416   1.908
32212W        W96156   5.244   8.206  12.510
32213W        W96157   4.866   0.406   3.720
32214W        W96158  20.049  37.860   3.156
32215W        W96159   3.453  21.522   2.752
32216W        W96160  17.683   0.289  12.355
32217W        W96161  35.475  21.158   1.302
32218W        W96162  28.637  30.653   4.299
32219W        W96163  18.702   9.873   2.408
32220W        W96164  38.005  25.547  11.929
32221W        W96165  29.021  40.517   3.844
32222W        W96166   9.773  24.618  10.945
32223W        W96167  44.786  13.348  11.110
32224W        W96168   1.920  28.566  12.944
32225W        W96169  18.702  14.682   2.791
32226W        W96170   5.927   1.813  14.925
32227W        W96171  37.044   0.395  14.919
32228W        W96172  29.665   5.928  13.921
32229W        W96173  34.511   1.305  12.851
32230W        W96174   7.852  32.503   3.824
32231W        W96175  17.715   2.856   0.423
32232W        W96176  34.867   2.272   3.838
32233W        W96177  14.255   1.750   1.928
32234W        W96178  35.097  34.411  13.411
32235W        W96179  36.489  12.785  10.943
32236W        W96180  13.176  40.035  14.972
32237W        W96181  30.531  27.601   0.913
32238W        W96182  17.130  10.210  11.479
32239W        W96183   4.848  26.549   4.702
32240W        W96184  24.996  34.563   1.903
32241W        W96185  35.090  19.253   0.353
32242W        W96186  25.102  24.592   1.297
32243W        W96187  32.959  33.562   4.139
32244W        W96188  17.673  17.185   2.416
32245W        W96189  11.186  37.525  13.515
32246W        W96190   0.965  16.302  11.390
32247W        W96191  23.176  32.082  11.053
32248W        W96192   6.745  19.242  12.539
32249W        W96193   9.784  37.867  14.025
32250W        W96194   2.886  28.058   1.823
32251W        W96195  27.576   6.722   4.814
32252W        W96196   1.244   9.342  13.809
32253W        W96197  18.227   5.693   1.916
32254W        W96198  42.450  26.579  11.999
32255W        W96199  22.613  29.134  14.894
32256W        W96200   8.690  32.927  11.382
32257W        W96201  38.999  18.279  14.415
32258W        W96202  25.050   3.763   1.772
32259W        W96203  29.076  31.429  11.442
32260W        W96204  22.512   4.314  13.973
32261W        W96205  20.244  21.212  14.312
32262W        W96206  44.384  20.082   2.874
32263W        W96207  19.238  24.979  14.462
32264W        W96208  20.744  14.229   5.121
32265W        W96209  16.794  37.455   3.376
32266W        W96210  44.858  43.959   1.809
32267W        W96211  39.863  32.121  10.410
32268W        W96212   2.308  13.272  12.556
32269W        W96213   3.406  12.655   2.754
32270W        W96214   5.697  16.193  14.820
32271W        W96215  34.890  37.505   0.927
32272W        W96216  43.303  19.699   2.682
32273W        W96217  19.696  34.022   4.803
32274W        W96218  20.245  10.821  13.450
32275W        W96219  28.658   5.841  14.838
32276W        W96220  43.455  29.154   3.175
32277W        W96221  14.686  19.252  12.975
32278W        W96222  40.339  37.513  14.445
32279W        W96223  43.508   0.321   3.327
32280W        W96224  36.527   7.717  12.947
32281W        W96225  18.561   7.211   5.666
32282W        W96226   7.902   5.227  14.944
32283W        W96227  10.382   4.801  13.877
32284W        W96228  37.381  11.714   5.127
32285W        W96229  19.668  15.606  11.973
32286W        W96230  17.252  30.068  13.963
32287W        W96231   7.781  28.175  14.804
32288W        W96232  29.601  24.023   2.792
32289W        W96233  13.708  23.620  12.572
32290W        W96234  13.134  36.455  12.054
32291W        W96235   3.724  31.141   4.641
32292W        W96236  20.157   3.225  13.486
32293W        W96237  16.729  16.584  11.916
32294W        W96238  36.517  13.782  14.793
32295W        W96239  36.900  22.735  11.004
32296W        W96240  21.144  42.891   2.883
32297W        W96241  36.465   2.743   3.197
32298W        W96242  11.621   0.270   4.677
32299W        W96243  31.083   9.815  13.012
32300W        W96244  20.620  32.135   0.909
32301W        W96245   2.861   8.204   0.275
32302W        W96246  21.026  21.521   3.794
32303W        W96247   2.914  39.386   4.641
32304W        W96248  36.982  30.500   2.323
32305W        W96249  28.120  40.441  13.862
32306W        W96250  20.575  28.531  12.484
32307W        W96251  28.179  37.399   0.431
32308W        W96252   5.774  17.189   0.281
32309W        W96253  24.481  20.600  11.529
32310W        W96254  24.983  11.686   4.345
32311W        W96255  40.041  38.348  13.388
32312W        W96256  29.433  26.568  11.527
32313W        W96257  24.613  15.788   2.330
32314W        W96258  39.898  41.901  12.918
32315W        W96259  27.182  17.094  13.796
32316W        W96260  34.468  36.994  11.901
32317W        W96261  15.295   1.868  14.996
32318W        W96262   9.287  22.524  11.002
32319W        W96263  20.109  37.345   2.402
32320W        W96264  26.193  28.182  11.404
32321W        W96265  44.977  10.293   2.897
32322W        W96266  36.852  40.536  13.361
32323W        W96267   9.189   8.734   3.780
32324W        W96268  11.712  29.539  10.449
32325W        W96269  17.257  32.126  10.915
32326W        W96270  39.407  10.724   1.714
32327W        W96271  41.001  23.189  12.973
32328W        W96272  27.970  41.842  12.955
32329W        W96273   4.214  44.455  13.326
32330W        W96274  32.896  26.152  12.021
32331W        W96275  33.057  30.479  13.414
32332W        W96276  41.981  22.142   1.419
32333W        W96277  10.351   7.678   1.761
32334W        W96278  37.380  18.789  12.458
32335W        W96279  30.908   4.784   1.323
32336W        W96280  42.526   8.208  14.016
32337W        W96281  32.421  24.102  12.447
32338W        W96282  10.673  37.372   2.236
32339W        W96283  35.403  10.876   0.890
32340W        W96284   2.817  10.241   0.277
32341W        W96285  17.203  10.874   3.732
32342W        W96286  22.097  44.772  10.643
32343W        W96287  43.831   9.743  13.454
32344W        W96288  25.695   6.294   3.741
32345W        W96289   9.761  43.455  12.012
32346W        W96290  39.850  33.607   3.216
32347W        W96291   8.884  23.545   4.142
32348W        W96292  23.641  20.654   1.861
32349W        W96293  28.515  40.902   0.300
32350W        W96294  42.886   0.823  10.642
32351W        W96295   9.809   8.304   3.812
32352W        W96296   5.420   3.729  14.307
32353W        W96297  43.322  14.144   0.427
32354W        W96298  38.819  33.502   4.629
32355W        W96299  17.742  44.954  14.777
32356W        W96300   2.461  29.628  11.863
32357W        W96301   2.769  32.998   4.161
32358W        W96302  29.644   0.385   1.707
32359W        W96303  21.743  42.998  13.471
32360W        W96304  12.700   0.436   1.381
32361W        W96305  10.204  19.248  13.333
32362W        W96306   6.766   1.775  12.017
32363W        W96307  30.499   1.431   0.813
32364W        W96308  22.061  29.596   2.869
32365W        W96309  40.873  42.524  10.614
32366W        W96310  43.017   6.367  11.407
32367W        W96311  36.004   5.816   1.436
32368W        W96312  36.421  34.408  11.474
32369W        W96313  30.517   8.686  12.579
32370W        W96314   9.217  38.433  12.395
32371W        W96315   2.377   4.398  11.092
32372W        W96316  43.992   6.918  12.402
32373W        W96317  17.678  11.185   4.143
32374W        W96318  35.465   3.799  11.926
32375W        W96319   4.283  38.911   1.774
32376W        W96320   1.263  31.904   4.232
32377W        W96321   6.754  30.153  11.078
32378W        W96322  18.757  21.680   0.253
32379W        W96323  10.641  40.513   1.898
32380W        W96324  35.526  29.581   4.283
32381W        W96325  11.372  34.433   0.828
32382W        W96326  10.179  27.579  11.033
32383W        W96327  16.790  42.970   2.343
32384W        W96328   6.418  17.203  14.421
32385W        W96329  33.485  25.177   0.826
32386W        W96330  44.474  13.764  13.381
32387W        W96331   6.255  23.988  11.056
32388W        W96332   2.866  23.624  11.534
32389W        W96333  11.621  12.824   2.737
32390W        W96334  28.673   5.739   3.198
32391W        W96335   3.234  12.348  13.330
32392W        W96336  44.760  31.489  13.545
32393W        W96337   4.391  41.365  14.427
32394W        W96338  41.032   9.347   0.303
32395W        W96339  26.136  22.723   0.839
32396W        W96340  18.781  10.813  10.124
32397W        W96341  36.007  15.738  13.338
32398W        W96342   3.814   7.276  12.953
32399W        W96343   4.704  32.133  13.819
32400W        W96344  20.274  31.526  14.865
32401W        W96345  29.074  33.437   1.225
32402W        W96346  23.184  11.793   3.293
32403W        W96347  26.621  37.038  13.966
32404W        W96348  25.111   1.800  14.018
32405W        W96349  29.955  41.532   4.598
32406W        W96350  37.464  17.717   2.720
32407W        W96351  43.889  19.632  11.025
32408W        W96352   7.365  33.957   2.779
32409W        W96353  34.541  35.883  14.926
32410W        W96354   4.917  10.660  14.770
32411W        W96355  15.232   1.301  14.839
32412W        W96356  23.515  18.197  13.914
32413W        W96357  27.103   7.727   2.344
32414W        W96358  40.991  36.517  11.888
32415W        W96359  23.515  22.075  12.910
32416W        W96360  28.500  27.023  10.489
32417W        W96361  15.307   1.425  11.044
32418W        W96362  13.217  44.983  12.948
32419W        W96363   8.319  39.053  12.525
32420W        W96364   1.747  42.380   3.630
32421W        W96365  39.335  33.379  12.437
32422W        W96366  33.959   7.869  14.771
32423W        W96367  39.959   1.373  14.948
32424W        W96368  12.778  22.573  11.592
32425W        W96369  24.151  36.397   2.324
32426W        W96370  28.472  23.704   2.845
32427W        W96371  21.123  31.425  14.329
32428W        W96372   7.327   1.765   1.282
32429W        W96373   9.162  29.506  14.368
32430W        W96374  11.810  10.237  11.571
32431W        W96375  43.810   6.749  14.808
32432W        W96376  13.196   9.194  12.544
32433W        W96377  24.660  22.133   2.872
32434W        W96378   5.415  30.067   1.783
32435W        W96379   5.771  38.976   0.804
32436W        W96380  18.206  41.852  14.784
32437W        W96381  11.650  37.887   0.374
32438W        W96382  21.062   1.393   2.305
32439W        W96383   5.431  33.468  13.994
32440W        W96384   3.241   7.217  14.760
32441W        W96385  14.691  14.261  12.073
32442W        W96386  18.058   4.712  13.475
32443W        W96387   5.341  23.998   1.714
32444W        W96388   2.428  43.286  10.476
32445W        W96389  44.483  40.514  12.043
32446W        W96390  33.482  30.418   4.171
32447W        W96391   8.315  40.436   2.870
32448W        W96392  33.040   0.301   3.801
32449W        W96393   8.268  20.051   1.754
32450W        W96394  38.966   6.764   4.237
32451W        W96395  17.731  34.562  10.539
32452W        W96396   4.421  40.373  10.527
32453W        W96397   0.852  39.886  11.871
32454W        W96398  41.492  30.520   3.250
32455W        W96399  15.601  13.123   1.233
32456W        W96400   6.759  34.608   2.327
32457W        W96401  38.071  16.696  13.520
32458W        W96402  17.683  32.910   3.363
32459W        W96403  34.515  31.435   4.318
32460W        W96404  19.556  44.927  10.997
32461W        W96405   2.230  11.249  14.354
32462W        W96406  21.066  11.789   2.216
32463W        W96407   8.189  26.661  11.521
32464W        W96408   0.920  17.112  14.785
32465W        W96409  36.369   7.877  11.502
32466W        W96410   4.911  23.670  12.020
32467W        W96411   7.385  40.549  14.405
32468W        W96412   6.363  38.426  12.851
32469W        W96413  37.473  37.519   2.255
32470W        W96414  29.940  12.139  13.383
32471W        W96415  14.096  23.604  14.814
32472W        W96416  30.634   1.266   0.431
32473W        W96417  12.790  24.048  11.551
32474W        W96418  38.537  23.112   3.672
32475W        W96419  11.776  26.132   4.743
32476W        W96420  10.209  18.659   2.743
32477W        W96421  13.794  37.981  13.487
32478W        W96422  15.212   5.422   4.251
32479W        W96423  36.942  31.109   1.440
32480W        W96424  29.539   2.239   0.407
32481W        W96425   2.838  15.715   1.777
32482W        W96426  10.220  41.477   0.322
32483W        W96427  40.346  18.145   0.259
32484W        W96428   4.699   4.779  12.072
32485W        W96429  21.134   9.752   4.236
32486W        W96430   6.328  10.202  10.055
32487W        W96431   7.212  14.101  10.574
32488W        W96432  14.708  31.509  14.819
32489W        W96433  19.718  39.344  14.313
32490W        W96434  32.954   7.762  14.984
32491W        W96435  14.141   2.813  10.987
32492W        W96436   2.771   4.915  10.093
32493W        W96437  14.727  29.013   3.259
32494W        W96438  34.543  29.959   0.276
32495W        W96439  39.998  11.339  12.446
32496W        W96440  30.059  21.666   1.909
32497W        W96441  26.137  13.683   4.286
32498W        W96442  14.679  36.057  14.778
32499W        W96443  15.253   6.301  12.557
32500W        W96444   8.672  32.110  12.063
32501W        W96445  11.846  14.295   5.299
32502W        W96446  21.548  20.630  12.921
32503W        W96447  21.546  42.798   2.235
32504W        W96448   7.171  42.367  14.004
32505W        W96449  36.427   2.375  14.831
32506W        W96450   1.469  32.622   0.962
32507W        W96451  41.791   4.871  13.911
32508W        W96452  30.962  19.570  14.419
32509W        W96453  42.925  16.109  10.974
32510W        W96454  40.893  24.624   4.193
32511W        W96455  20.098  13.185  12.407
32512W        W96456  15.288  21.729   4.689
32513W        W96457   0.307   6.285   2.875
32514W        W96458  44.473  20.028  13.392
32515W        W96459  34.561  41.510  13.418
32516W        W96460  15.717   1.903   3.362
32517W        W96461  18.271  23.141   0.468
32518W        W96462  41.399  28.038  14.880
32519W        W96463  29.432  16.708   1.782
32520W        W96464   2.756  34.055  10.464
32521W        W96465   0.320  27.573   2.794
32522W        W96466  29.529  38.992   1.282
32523W        W96467  32.083  14.606   0.342
32524W        W96468   5.425  32.892  11.480
32525W        W96469  19.194  17.090   3.781
32526W        W96470   5.814  12.213   2.341
32527W        W96471  23.631   2.255  14.441
32528W        W96472   6.737  22.568   2.697
32529W        W96473  23.234  11.370   2.874
32530W        W96474  38.932  12.709   3.170
32531W        W96475   7.313   5.929   0.484
32532W        W96476   5.248   4.734   4.316
32533W        W96477  18.164  14.831   2.854
32534W        W96478  40.457   6.288  10.543
32535W        W96479  19.051  34.068  11.058
32536W        W96480  43.900  13.738  10.927
32537W        W96481  17.565  30.489   4.615
32538W        W96482  19.675  27.563  14.342
32539W        W96483  31.422  15.186   3.320
32540W        W96484  11.865   6.344   1.414
32541W        W96485  21.110  23.493   3.290
32542W        W96486   8.823   2.400  13.998
32543W        W96487   6.874   8.807   3.871
32544W        W96488  30.650  44.764   0.743
32545W        W96489  31.451  42.929  13.480
32546W        W96490  18.612  37.440   3.187
32547W        W96491  41.535  38.331  12.958
32548W        W96492  15.259  10.658  14.007
32549W        W96493   8.750  15.604  12.489
32550W        W96494   1.384  43.777   1.441
32551W        W96495  19.624  14.648   0.730
32552W        W96496  30.653  36.397  12.016
32553W        W96497  15.790   9.315   3.725
32554W        W96498  39.817   1.778   2.835
32555W        W96499   4.721  39.038  11.960
32556W        W96500  21.127  10.814   1.879
32557W        W96501   5.259   3.914  12.362
32558W        W96502  19.678  43.015   3.713
32559W        W96503  14.704   2.410   4.670
32560W        W96504  28.466   6.884   2.384
32561W        W96505  22.217  14.147  11.462
32562W        W96506  19.606   6.850   2.231
32563W        W96507  23.730  10.361   1.436
32564W        W96508  38.937  14.663   2.216
32565W        W96509  31.993   2.818   0.451
32566W        W96510   3.354  35.923   0.258
32567W        W96511  31.085  22.691  12.564
32568W        W96512   3.370  37.484  11.538
32569W        W96513  39.000  30.423   0.967
32570W        W96514  25.507  33.614  13.909
32571W        W96515  30.596  24.568  10.937
32572W        W96516   5.408  10.759  14.877
32573W        W96517  10.790  19.553   0.388
32574W        W96518  17.688  28.515   2.844
32575W        W96519  18.286   3.262  10.409
32576W        W96520  18.606  21.105   2.714
32577W        W96521   3.363  35.413  12.060
32578W        W96522   8.202  36.369   1.434
32579W        W96523  20.232  11.846  10.444
32580W        W96524   5.904   4.763  10.454
32581W        W96525  25.700   7.773   3.731
32582W        W96526  32.543  44.495   2.244
32583W        W96527  20.189  20.264   2.301
32584W        W96528   9.794  31.418   3.652
32585W        W96529  41.825  40.485   2.385
32586W        W96530  32.928  34.569   0.428
32587W        W96531  44.291   8.195   0.317
32588W        W96532  37.396  31.914   3.631
32589W        W96533   0.470  34.910   0.770
32590W        W96534   7.385  42.836   5.152
32591W        W96535  38.916  28.020   1.730
32592W        W96536   0.775   4.896  14.028
32593W        W96537  31.910  34.973   1.879
32594W        W96538  31.429  24.668  10.557
32595W        W96539  32.920  33.588  13.369
32596W        W96540  25.094   1.803  12.067
32597W        W96541  20.185   2.346  11.426
32598W        W96542  40.806  22.575  11.379
32599W        W96543  23.548   2.243  13.963
32600W        W96544  13.673  43.765   3.149
32601W        W96545  25.590   9.827  13.996
32602W        W96546  29.638   1.404  13.868
32603W        W96547   7.897   4.703   5.151
32604W        W96548  30.586  21.706  11.958
32605W        W96549  17.287  10.860  14.985
32606W        W96550  44.263  29.012   3.694
32607W        W96551  38.990  37.878   1.317
32608W        W96552   3.296  18.156  12.374
32609W        W96553  38.518   9.786  12.877
32610W        W96554   0.879  36.883   4.343
32611W        W96555   3.826  18.638   4.772
32612W        W96556  29.153  40.864  11.427
32613W        W96557  37.546  26.540   3.678
32614W        W96558  31.091   1.413  12.345
32615W        W96559  24.557  27.111   2.220
32616W        W96560  34.453  20.668   1.758
32617W        W96561  19.173  12.157   0.866
32618W        W96562   7.843  40.461  14.399
32619W        W96563  34.893   2.283  14.377
32620W        W96564  27.645   5.927   1.353
32621W        W96565  35.075  35.502   3.264
32622W        W96566  35.018  35.421   2.315
32623W        W96567   4.883  10.195  12.483
32624W        W96568   4.706   4.369  12.500
32625W        W96569  35.860  41.843  14.300
32626W        W96570  25.647   8.768   1.443
32627W        W96571  14.728   4.713  10.567
32628W        W96572  19.155  21.605  11.486
32629W        W96573  24.131  37.561   4.206
32630W        W96574  11.638  30.119   2.355
32631W        W96575  30.942  10.781  12.046
32632W        W96576  40.959   2.932   0.357
32633W        W96577  25.569  20.111   1.239
32634W        W96578  25.527  41.889  14.027
32635W        W96579  18.710  40.321  11.990
32636W        W96580  41.418  15.218   1.402
32637W        W96581   0.893  30.438  10.552
32638W        W96582  26.001   4.423   2.719
32639W        W96583  21.545   8.728   1.283
32640W        W96584  31.920  33.108  11.458
32641W        W96585  22.560  38.945   5.085
32642W        W96586  33.559  44.435   4.354
32643W        W96587   5.216   6.200   1.782
32644W        W96588  13.224  14.203  14.907
32645W        W96589  34.584  18.563   1.447
32646W        W96590  32.920  44.368   3.162
32647W        W96591  36.433  17.698   1.219
32648W        W96592  38.520  27.463   3.825
32649W        W96593  20.560  11.133   4.196
32650W        W96594  42.383   4.916   3.198
32651W        W96595  33.975  42.426   2.305
32652W        W96596  13.198  28.572  14.815
32653W        W96597  11.627  14.655   3.842
32654W        W96598  33.533  28.075  13.857
32655W        W96599  31.908   5.347   1.926
32656W        W96600  21.652   2.228  14.417
32657W        W96601  24.559  43.514  14.507
32658W        W96602  44.778  27.964  11.895
32659W        W96603   3.900  22.066  11.583
32660W        W96604   0.752  44.850  14.974
32661W        W96605  10.288  27.507   3.355
32662W        W96606  12.801  29.068  13.452
32663W        W96607   5.291   9.840   4.726
32664W        W96608  21.222   4.769  12.859
32665W        W96609  34.953  37.835   4.654
32666W        W96610  30.594  24.661   2.682
32667W        W96611  26.557  35.473   0.924
32668W        W96612   1.299  22.591   0.478
32669W        W96613  15.301  26.959   3.708
32670W        W96614  19.231   0.868  13.865
32671W        W96615  41.451  42.889  12.452
32672W        W96616  33.952   4.747   2.392
32673W        W96617   7.731  32.889  11.941
32674W        W96618   2.303  27.514  10.898
32675W        W96619  15.139  21.659   1.355
32676W        W96620  28.956  34.516   0.862
32677W        W96621  29.539  29.097   4.303
32678W        W96622   9.300  32.908   1.762
32679W        W96623  39.855  34.422   2.679
32680W        W96624  40.919  35.453  11.501
32681W        W96625   9.884  25.677   2.332
32682W        W96626  21.058  43.332   0.313
32683W        W96627  26.469   3.831  12.984
32684W        W96628  30.972  28.499   2.840
32685W        W96629  19.263   3.304   0.338
32686W        W96630  20.189  41.885  11.459
32687W        W96631   9.706  19.595   1.419
32688W        W96632  20.683  17.747   0.391
32689W        W96633  35.081  41.511  11.035
32690W        W96634  17.636  36.988  11.600
32691W        W96635  21.533   9.724   0.331
32692W        W96636  35.574  20.092  10.516
32693W        W96637  23.232  13.790   0.930
32694W        W96638   2.876   4.428   1.305
32695W        W96639   7.276  28.638   2.215
32696W        W96640  16.235  19.552  14.364
32697W        W96641   2.794  33.085   3.653
32698W        W96642  34.922  37.346   2.223
32699W        W96643  40.306  13.173   2.755
32700W        W96644  44.333  17.077  11.126
32701W        W96645   5.712  42.996   0.903
32702W        W96646   7.260  21.524   2.814
32703W        W96647  36.367  29.050  13.537
32704W        W96648   0.927  10.809  11.464
32705W        W96649  35.897  11.134   0.392
32706W        W96650   4.777  27.529   0.412
32707W        W96651  10.325  12.753  10.583
32708W        W96652  36.593  20.624  11.920
32709W        W96653  35.579  39.008   0.251
32710W        W96654  15.295  37.458   0.776
32711W        W96655  42.338  17.164   1.305
32712W        W96656  30.427   1.860   0.805
32713W        W96657  22.027  16.689   1.785
32714W        W96658  30.491  10.360  12.829
32715W        W96659  22.086  40.525   4.271
32716W        W96660   5.300  28.493   1.695
32717W        W96661  12.248  26.593  13.900
32718W        W96662   5.257  18.243   0.930
32719W        W96663   3.735   4.857  14.279
32720W        W96664  15.196  12.793   2.402
32721W        W96665  22.047  12.337   1.357
32722W        W96666  17.272  25.527  14.997
32723W        W96667  18.238   0.332   1.435
32724W        W96668   7.358  41.538   2.723
32725W        W96669  43.925  44.348   1.318
32726W        W96670  35.475  34.034   1.857
32727W        W96671  35.577  44.796  11.093
32728W        W96672   2.453  22.530   4.129
32729W        W96673  23.065  17.101   3.758
32730W        W96674   1.321  38.442   2.822
32731W        W96675  15.745  43.018   3.263
32732W        W96676  29.139  14.632   0.898
32733W        W96677  17.148  13.289   0.289
32734W        W96678   1.955  42.978  12.454
32735W        W96679  43.961  29.093   4.755
32736W        W96680   6.720   2.772   4.270
32737W        W96681  16.268  39.953  13.974
32738W        W96682  16.216  21.166  13.523
32739W        W96683  29.050  32.414   1.426
32740W        W96684  44.437  20.120   5.289
32741W        W96685  25.110  12.613   4.826
32742W        W96686  23.079  23.228   0.478
32743W        W96687  41.952   1.795  12.830
32744W        W96688  13.191   8.844   1.910
32745W        W96689   0.294   3.741  14.362
32746W        W96690   0.416  12.654  14.013
32747W        W96691  30.140  30.965  10.959
32748W        W96692  14.667  33.958  12.918
32749W        W96693  23.664  22.682   2.384
32750W        W96694  22.105   0.770  14.858
32751W        W96695  41.440   1.846   3.160
32752W        W96696  29.125  44.413   4.615
32753W        W96697   3.927  42.288  11.456
32754W        W96698  16.158  20.723  11.388
32755W        W96699  35.501  13.168   4.800
32756W        W96700  33.382  11.311  11.104
32757W        W96701  40.917  42.338  11.901
32758W        W96702  23.659  40.009  11.404
32759W        W96703  12.631  19.780   1.323
32760W        W96704   5.860  36.483   1.338
32761W        W96705  30.154  18.201   4.285
32762W        W96706  26.066   8.783  10.484
32763W        W96707  26.596  27.981  14.975
32764W        W96708  42.286   4.227  11.942
32765W        W96709  12.147   9.865   4.690
32766W        W96710  16.766  43.492  12.060
32767W        W96711   2.405  32.412   2.815
32768W        W96712  36.559  22.118   2.858
32769W        W96713  37.517   2.397   3.864
32770W        W96714  22.043  30.045  11.085
32771W        W96715  30.608   3.362   4.140
32772W        W96716  30.929  34.602   1.804
32773W        W96717  40.358  36.995  14.479
32774W        W96718  31.429  42.510  14.330
32775W        W96719  36.577  34.443   4.598
32776W        W96720   3.263  37.469   4.767
32777W        W96721  41.441  35.854  11.584
32778W        W96722  28.561  41.385  11.096
32779W        W96723   1.456  16.813  14.917
32780W        W96724   8.871  43.779  10.449
32781W        W96725   0.869   1.417  13.944
32782W        W96726  34.575  32.603  13.373
32783W        W96727  33.992   8.310  11.975
32784W        W96728  30.935  14.138  13.944
32785W        W96729  36.855   2.722   0.957
32786W        W96730  26.563   3.412   2.315
32787W        W96731  24.063  40.528  13.821
32788W        W96732  39.332   7.740  12.013
32789W        W96733  27.080  38.846  13.909
32790W        W96734   1.910   2.280  13.028
32791W        W96735   8.812  39.988   4.148
32792W        W96736   7.721  33.106  13.847
32793W        W96737  43.271  37.384  12.400
32794W        W96738   6.759  34.119  13.451
32795W        W96739  11.652   4.398  13.953
32796W        W96740  18.080   6.208  10.439
32797W        W96741  26.565   6.267  11.022
32798W        W96742  17.669  33.048  14.301
32799W        W96743  30.068  12.639   2.186
32800W        W96744  35.020   6.917  11.443
32801W        W96745  23.521   5.742   2.736
32802W        W96746  10.201   2.772   2.885
32803W        W96747  15.584   8.727  13.347
32804W        W96748   1.242  24.551   1.299
32805W        W96749   8.763  20.127  11.901
32806W        W96750   2.337   5.804   2.850
32807W        W96751  43.907  19.596   3.763
32808W        W96752  41.360  10.279   3.294
32809W        W96753  31.981  25.505   1.714
32810W        W96754  35.382   1.268   4.342
32811W        W96755  38.999  17.147  10.978
32812W        W96756  24.977  16.630   1.390
32813W        W96757  27.547  38.363  12.546
32814W        W96758  19.743  11.193  13.995
32815W        W96759  15.716  38.352   4.779
32816W        W96760  20.703  43.922  11.969
32817W        W96761   8.708  44.913  12.366
32818W        W96762  17.572   6.268   9.920
32819W        W96763  36.949  11.840   1.246
32820W        W96764  13.108   0.493   1.698
32821W        W96765  16.600   6.342   1.909
32822W        W96766   9.223  43.000   1.407
32823W        W96767  44.994   9.263   1.295
32824W        W96768  30.977  26.488   1.844
32825W        W96769   6.293  23.238   0.913
32826W        W96770  35.440  27.613  14.376
32827W        W96771  44.363  39.383   0.775
32828W        W96772  29.115   2.810  10.487
32829W        W96773   5.332  16.131   4.669
32830W        W96774  26.957  37.892  10.989
32831W        W96775  27.522  38.539   4.210
32832W        W96776  28.060   8.824  14.374
32833W        W96777   6.220  27.046   4.756
32834W        W96778  13.613  19.647  10.420
32835W        W96779   5.312   7.244   0.358
32836W        W96780  18.637  32.478   5.131
32837W        W96781  43.882  13.664   2.811
32838W        W96782  28.075   2.902   0.401
32839W        W96783  31.415  21.153   4.258
32840W        W96784  24.693   6.423  11.407
32841W        W96785  18.605  25.111  10.552
32842W        W96786  15.713  11.150  11.565
32843W        W96787  36.413  36.037  11.036
32844W        W96788  29.605   8.795  12.902
32845W        W96789   6.893  24.026  10.530
32846W        W96790  37.496  19.118  11.094
32847W        W96791  18.562  27.646   1.898
32848W        W96792  26.197  15.626   4.637
32849W        W96793  29.506  26.594  10.029
32850W        W96794   8.829  19.285   1.865
32851W        W96795   6.373  26.128   2.260
32852W        W96796  39.887   0.764   4.318
32853W        W96797  29.447  30.953   0.799
32854W        W96798   9.292  29.056  14.934
32855W        W96799  37.085  35.523   3.222
32856W        W96800   7.687  27.551   2.809
32857W        W96801  19.266  27.998  11.478
32858W        W96802  31.028  40.331   5.683
32859W        W96803   2.332  10.172   1.930
32860W        W96804  30.975  30.147   4.300
32861W        W96805  41.340  27.157   0.480
32862W        W96806  17.558   7.790  12.522
32863W        W96807  19.223   2.229  14.895
32864W        W96808  15.314  13.279   4.214
32865W        W96809   3.864  22.203   2.674
32866W        W96810   8.732  22.555  10.971
32867W        W96811  38.998  40.893  13.866
32868W        W96812  19.043  32.593   1.338
32869W        W96813  31.548  18.213  13.921
32870W        W96814   5.853  41.962  13.031
32871W        W96815  18.280  40.403   3.337
32872W        W96816   6.678  36.375  12.456
32873W        W96817  44.772  32.448   1.754
32874W        W96818  13.174  31.052  10.963
32875W        W96819  41.410  34.048  13.429
32876W        W96820  34.505   4.764   2.221
32877W        W96821   0.975   2.762   4.352
32878W        W96822   9.300   5.329  14.027
32879W        W96823  38.460  38.993   0.876
32880W        W96824  35.604   2.725  11.548
32881W        W96825   4.261  14.119   2.291
32882W        W96826  10.801  20.198   1.267
32883W        W96827  19.654  39.469   1.932
32884W        W96828  38.834  25.191  12.539
32885W        W96829  23.630   6.279  12.500
32886W        W96830   4.908   9.348  12.392
32887W        W96831  39.451   8.777   1.412
32888W        W96832  17.127  30.610  12.348
32889W        W96833  25.562  41.315   0.382
32890W        W96834   7.827   2.922  12.930
32891W        W96835  44.366  17.222   4.770
32892W        W96836  39.866  29.550   2.671
32893W        W96837  43.473  14.813  14.411
32894W        W96838   9.250  17.800   2.217
32895W        W96839  27.961  25.579   3.712
32896W        W96840  44.325   4.714  10.461
32897W        W96841  42.333   8.819  10.966
32898W        W96842  13.225  40.026   1.770
32899W        W96843  24.558  16.081  11.414
32900W        W96844  24.174  29.110  12.459
32901W        W96845  24.004  16.099  14.983
32902W        W96846   4.211  28.138   2.704
32903W        W96847  30.463  23.198   0.474
32904W        W96848  26.485   9.808  10.019
32905W        W96849  26.057   8.186  12.348
32906W        W96850  19.228  14.177  13.817
32907W        W96851  18.684  25.496   0.377
32908W        W96852  36.531  25.473   3.717
32909W        W96853  41.518   4.944  11.537
32910W        W96854  33.129  40.394  11.394
32911W        W96855  24.084  29.059   3.146
32912W        W96856  29.114  35.948   4.161
32913W        W96857  33.124   9.731  11.984
32914W        W96858  33.978   7.394  13.002
32915W        W96859  10.704  30.593  10.925
32916W        W96860   4.431  35.069  12.878
32917W        W96861  30.532   7.324   2.281
32918W        W96862   2.389  34.404   2.850
32919W        W96863  43.498   1.242  11.953
32920W        W96864  39.449  24.031  13.399
32921W        W96865  36.042  22.109   3.304
32922W        W96866  28.996  11.157  10.404
32923W        W96867   0.927  31.122   1.738
32924W        W96868  38.922  13.648  11.550
32925W        W96869  33.120  15.666  11.028
32926W        W96870   1.371  36.409  12.381
32927W        W96871  19.724  26.062  10.985
32928W        W96872  24.039   1.744   1.443
32929W        W96873  26.993  22.126   0.766
32930W        W96874  44.007  27.982   3.215
32931W        W96875  40.940  14.247   0.755
32932W        W96876  13.113  30.151  13.440
32933W        W96877  30.076   9.337   4.789
32934W        W96878  22.640  33.116  14.995
32935W        W96879  24.212  40.497   3.311
32936W        W96880  38.456  44.294  14.776
32937W        W96881   2.956   2.316   4.173
32938W        W96882  36.930  12.176   2.365
32939W        W96883  41.434  42.364   4.776
32940W        W96884   7.810  21.236  14.322
32941W        W96885  15.638  30.160   0.803
32942W        W96886  25.161  37.431   1.247
32943W        W96887  17.630   1.406  11.117
32944W        W96888   6.734   0.809   4.745
32945W        W96889   5.785  16.653  14.862
32946W        W96890  37.394   5.712  13.951
32947W        W96891  25.102   9.267   4.283
32948W        W96892  26.970  11.830   4.617
32949W        W96893   1.317   7.776  14.512
32950W        W96894  17.220  16.208  13.952
32951W        W96895  14.154  37.422   4.284
32952W        W96896  40.894  17.266  13.931
32953W        W96897   0.845  14.243  13.911
32954W        W96898   7.867  25.159   1.441
32955W        W96899   9.746  23.187   3.343
32956W        W96900  42.948  31.586   0.944
32957W        W96901  22.032  27.017   3.831
32958W        W96902  16.729  44.502   2.293
32959W        W96903  39.886  40.984  11.946
32960W        W96904  14.606   6.866   2.309
32961W        W96905   9.724  33.443   1.247
32962W        W96906  28.504  33.613   2.787
32963W        W96907  35.912   3.854  10.990
32964W        W96908  31.593  34.078  13.960
32965W        W96909  36.079  41.892  11.479
32966W        W96910  43.431  34.024  11.114
32967W        W96911   1.761  22.574   2.341
32968W        W96912  24.608  25.196   0.280
32969W        W96913  39.852  30.421   0.290
32970W        W96914  37.393  25.596  11.393
32971W        W96915  23.204   0.827   0.882
32972W        W96916   1.440   2.396  14.883
32973W        W96917  34.502  33.563  14.021
32974W        W96918  21.756  19.061  11.607
32975W        W96919   2.455  36.548   0.245
32976W        W96920  25.528  22.625  12.473
32977W        W96921  37.483  21.680  14.319
32978W        W96922  20.722  28.585  13.932
32979W        W96923  19.078  27.948   4.762
32980W        W96924  26.696  10.833  12.006
32981W        W96925  20.050  36.392  13.873
32982W        W96926   4.942  34.562   1.864
32983W        W96927  12.838  30.563   3.697
32984W        W96928  15.192  16.692  12.400
32985W        W96929   3.738  25.504   3.274
32986W        W96930   6.717  15.728  12.836
32987W        W96931  19.653  41.917   0.805
32988W        W96932  18.680  18.743  13.415
32989W        W96933   5.763  15.297  13.965
32990W        W96934   1.850  20.168  10.604
32991W        W96935   9.244  37.858   2.227
32992W        W96936  27.538  31.642   2.748
32993W        W96937   1.330   1.940  11.591
32994W        W96938   2.452  23.176   2.374
32995W        W96939   1.315  14.694   2.840
32996W        W96940  40.427  34.118  14.839
32997W        W96941   0.348   9.175   9.618
32998W        W96942  29.945  23.630  12.040
32999W        W96943  15.665   5.287   3.692
33000W        W96944  32.567  39.879   0.279
33001W        W96945  17.757  12.617  12.856
33002W        W96946  35.894  21.113   1.322
33003W        W96947  19.667  20.039   0.820
33004W        W96948  11.748  40.414   5.133
33005W        W96949  23.518   0.817  11.558
33006W        W96950  28.661   2.807  13.435
33007W        W96951  33.404   4.881   0.748
33008W        W96952  27.091  18.627  10.529
33009W        W96953  39.857  44.897   0.839
33010W        W96954  16.149  10.148  10.978
33011W        W96955  17.779  35.496  10.983
33012W        W96956  43.318  38.532  11.588
33013W        W96957  12.275   9.294   1.910
33014W        W96958  40.882   0.811  10.946
33015W        W96959  25.992  21.094  11.964
33016W        W96960  24.139  34.022  11.931
33017W        W96961  31.956  28.491   4.331
33018W        W96962   9.848   2.258   1.379
33019W        W96963   0.401  27.123  14.443
33020W        W96964   7.693  15.783  11.437
33021W        W96965  40.971  37.568   1.835
33022W        W96966  25.478  32.546   4.832
33023W        W96967  20.599  43.943   3.740
33024W        W96968   4.435   4.718   2.868
33025W        W96969  21.618  35.995  14.014
33026W        W96970  21.033  16.113   2.279
33027W        W96971  11.809   7.385  11.056
33028W        W96972  15.166  43.984   4.622
33029W        W96973  31.035   3.930   4.776
33030W        W96974  19.545  22.040  14.866
33031W        W96975  24.665  33.594   2.790
33032W        W96976  44.455  22.628   2.888
33033W        W96977  21.227   4.366   1.451
33034W        W96978  41.381  33.556   3.168
33035W        W96979  32.440  20.128   1.265
33036W        W96980  28.967  30.954   4.185
33037W        W96981  35.942  31.912   3.864
33038W        W96982  19.090  37.374   0.353
33039W        W96983  30.653  14.726   0.471
33040W        W96984  17.610  22.069  14.280
33041W        W96985  17.609  40.423  13.046
33042W        W96986  29.128  33.992  10.458
33043W        W96987  13.665  37.048   0.957
33044W        W96988  17.670  35.535   3.710
33045W        W96989  44.416  19.581  13.916
33046W        W96990   5.813  15.185   1.213
33047W        W96991  40.374  38.549  12.527
33048W        W96992  26.951  41.470  10.106
33049W        W96993  29.978   7.364  11.941
33050W        W96994  27.149   7.820  10.905
33051W        W96995  15.652  33.941  12.084
33052W        W96996   8.738  28.514   3.791
33053W        W96997  26.147  22.038   4.835
33054W        W96998   6.212   0.302   1.738
33055W        W96999  30.413  21.743   4.680
33056W        W97000  25.195   3.903   4.690
33057W        W97001  28.986  40.312   1.306
33058W        W97002  37.900  21.242   2.711
33059W        W97003  39.445  44.951   4.682
33060W        W97004  35.378  22.104  11.516
33061W        W97005  39.010  15.174  11.996
33062W        W97006  26.102  24.115   4.816
33063W        W97007  23.194   7.748   4.833
33064W        W97008   1.941  43.516   3.844
33065W        W97009  15.316  11.802  12.016
33066W        W97010  10.693  10.808  13.535
33067W        W97011  18.193   8.326  12.503
33068W        W97012  16.082   4.269  12.375
33069W        W97013  19.535  17.263   2.326
33070W        W97014  37.544  12.191  13.887
33071W        W97015  41.029   1.947  14.305
33072W        W97016  10.181  40.544  12.853
33073W        W97017  10.271   7.777  12.933
33074W        W97018  38.960  41.406   1.287
33075W        W97019  41.011  10.632   4.728
33076W        W97020  22.216  32.937   4.301
33077W        W97021  11.149  15.222   5.251
33078W        W97022  26.515  10.265   3.722
33079W        W97023  29.961  35.060   0.420
33080W        W97024  43.850  36.404  11.999
33081W        W97025   4.342  16.190   4.199
33082W        W97026  15.208   5.848   1.776
33083W        W97027  40.813  29.579  13.413
33084W        W97028   7.829   6.331  14.298
33085W        W97029  12.840  22.235   2.188
33086W        W97030  38.843   2.823   3.643
33087W        W97031  15.126  37.961  13.902
33088W        W97032  19.584  38.329  11.418
33089W        W97033  39.504  25.056   2.749
33090W        W97034   5.210  27.629  10.986
33091W        W97035   4.706   7.225  10.581
33092W        W97036  31.140  43.880   4.832
33093W        W97037  29.130   6.794  13.387
33094W        W97038  28.519  16.722  13.824
33095W        W97039  25.479  25.086   2.267
33096W        W97040  22.010  12.214   2.269
33097W        W97041  32.628  23.674  14.910
33098W        W97042  12.733  30.418   2.746
33099W        W97043  13.733  11.164   0.415
33100W        W97044  42.371  42.018  10.476
33101W        W97045  12.230  39.035   4.207
33102W        W97046  19.052   9.674   1.718
33103W        W97047  34.569  11.784   1.332
33104W        W97048   0.888   8.387   0.265
33105W        W97049   8.755   9.300   4.123
33106W        W97050  14.694  31.470   1.707
33107W        W97051  22.741   9.859  12.379
33108W        W97052   7.876  39.952   4.280
33109W        W97053  12.311  17.226   3.653
33110W        W97054  29.438  40.053   4.255
33111W        W97055   4.251   8.304  13.433
33112W        W97056  25.557   6.744  14.885
33113W        W97057  11.167   1.890  10.136
33114W        W97058  35.076  34.925   3.866
33115W        W97059  26.560  40.952   1.901
33116W        W97060   7.405   0.329  12.011
33117W        W97061  44.967  23.993   3.377
33118W        W97062  23.086   0.447   1.804
33119W        W97063   4.760  28.998   3.318
33120W        W97064  39.914  29.963  12.950
33121W        W97065  13.698  15.640  13.383
33122W        W97066  43.317   9.750   1.293
33123W        W97067  10.144  39.488  11.542
33124W        W97068   0.314   2.430  10.557
33125W        W97069  31.041  38.915   1.357
33126W        W97070  18.088   7.790   3.264
33127W        W97071  18.704  33.034   3.818
33128W        W97072  28.166  37.530   3.703
33129W        W97073  31.574  31.984  14.512
33130W        W97074  34.376  38.832   3.378
33131W        W97075  29.137  42.797  11.870
33132W        W97076  20.723  38.398   2.225
33133W        W97077  41.859  40.496  12.838
33134W        W97078   7.759  44.312  10.518
33135W        W97079  39.007   7.770  13.897
33136W        W97080  30.986  23.132  13.473
33137W        W97081   7.293  44.830   3.738
33138W        W97082  28.034  38.054   0.780
33139W        W97083  10.723  13.797   2.232
33140W        W97084  23.163  12.320   4.714
33141W        W97085  28.945   3.230   3.305
33142W        W97086  37.982   3.281   3.666
33143W        W97087  15.694  13.751  13.534
33144W        W97088  17.728  34.109   2.828
33145W        W97089  28.636  20.670   3.751
33146W        W97090  36.562  39.434   1.303
33147W        W97091  22.998  43.480  14.904
33148W        W97092  41.865  11.221  14.788
33149W        W97093   2.309  26.102   1.749
33150W        W97094  13.731  24.024  14.901
33151W        W97095  41.792  34.960   3.252
33152W        W97096   4.766  16.709   0.455
33153W        W97097  31.411  40.464  14.490
33154W        W97098  44.317  16.208  10.623
33155W        W97099  22.050   1.886   3.691
33156W        W97100  20.176  35.600  13.018
33157W        W97101  10.848  23.201  14.029
33158W        W97102  40.977  42.804  12.064
33159W        W97103  19.769  19.728   1.866
33160W        W97104  37.958  35.954   0.835
33161W        W97105  42.975   0.392   3.700
33162W        W97106  31.085  37.872  11.453
33163W        W97107  38.013  13.159  12.430
33164W        W97108  27.481  18.215   1.857
33165W        W97109  31.072   9.666   2.733
33166W        W97110  42.026  15.326  13.335
33167W        W97111   9.384   6.794  11.371
33168W        W97112  37.378  31.617   4.695
33169W        W97113  14.274  12.634   3.786
33170W        W97114  26.172  27.692  12.339
33171W        W97115  41.788  41.310   5.184
33172W        W97116  33.957   9.317  10.636
33173W        W97117  24.993  34.864  11.123
33174W        W97118   4.792   7.814   2.828
33175W        W97119  42.407  22.148   1.322
33176W        W97120   0.377  36.491  10.995
33177W        W97121  41.964  28.491   0.453
33178W        W97122  36.416  25.522   3.314
33179W        W97123  18.661   2.383  10.908
33180W        W97124  13.235   8.732   0.364
33181W        W97125  27.624  14.265  11.485
33182W        W97126  38.043  38.015   4.714
33183W        W97127   6.241   2.304   4.280
33184W        W97128  29.450  25.568  14.828
33185W        W97129  27.633   8.265  12.041
33186W        W97130  32.986   4.829   2.810
33187W        W97131  43.390  40.457   0.332
33188W        W97132  30.161  21.634  13.996
33189W        W97133   6.710  42.402  11.882
33190W        W97134   4.762   9.319   4.655
33191W        W97135   7.220  22.592  10.471
33192W        W97136  39.930   4.857  13.887
33193W        W97137  31.535   9.223   4.228
33194W        W97138  29.923  43.989  13.432
33195W        W97139  15.813  35.020  12.554
33196W        W97140  25.491  41.452   3.350
33197W        W97141  20.724  15.208  14.933
33198W        W97142  39.821   8.238   2.775
33199W        W97143  27.445  20.179   2.327
33200W        W97144  23.566  14.139   2.891
33201W        W97145  27.579  14.106  11.062
33202W        W97146  17.792  28.624   1.883
33203W        W97147  14.711  42.805   1.775
33204W        W97148  12.246  15.266   4.599
33205W        W97149  19.096  44.884  13.345
33206W        W97150  13.287  21.088  14.284
33207W        W97151  13.142  40.859   4.119
33208W        W97152  26.614  26.969   0.391
33209W        W97153  38.924   7.232   0.867
33210W        W97154  22.129  29.074   2.398
33211W        W97155  39.318  29.505  11.412
33212W        W97156  25.026   0.336  14.944
33213W        W97157  27.573  31.536  13.488
33214W        W97158  23.643  22.712   0.287
33215W        W97159   3.232  10.713  14.455
33216W        W97160  35.465  19.158  14.819
33217W        W97161  38.522  10.300   0.279
33218W        W97162  14.226   8.771  12.063
33219W        W97163  19.214  36.455   2.848
33220W        W97164  24.700   4.893   2.387
33221W        W97165  10.656  42.907  14.433
33222W        W97166  42.321   6.726  13.464
33223W        W97167  17.170  35.971   1.775
33224W        W97168  18.572   0.791  12.368
33225W        W97169   6.222  27.092   0.297
33226W        W97170  13.198  18.276   4.719
33227W        W97171   9.763  40.330  12.880
33228W        W97172  24.725  17.757  10.997
33229W        W97173   4.922  22.073  10.594
33230W        W97174   3.304  39.866  13.031
33231W        W97175   7.308  13.792   2.272
33232W        W97176  43.932   2.953  14.961
33233W        W97177   3.853  21.169  13.819
33234W        W97178  37.546  15.737  14.286
33235W        W97179  13.260  43.991  13.825
33236W        W97180   2.303  22.651   0.344
33237W        W97181  15.089   7.311  13.543
33238W        W97182  39.062  14.264  10.943
33239W        W97183  17.069  19.180  13.392
33240W        W97184  17.619  17.777   3.368
33241W        W97185  44.823  22.637   4.611
33242W        W97186  39.545  11.274   4.291
33243W        W97187  25.474  13.332   2.310
33244W        W97188   5.852  43.920   3.293
33245W        W97189  42.932   5.221   1.327
33246W        W97190  13.682  26.574  14.031
33247W        W97191  19.608  37.385   1.787
33248W        W97192  40.861  19.749  11.991
33249W        W97193  41.850   0.987   1.226
33250W        W97194  15.596  24.641  11.502
33251W        W97195  27.557  19.140  14.030
33252W        W97196  44.303  29.032   0.341
33253W        W97197  37.914  40.829   0.891
33254W        W97198  31.469  32.963   0.799
33255W        W97199  33.543  25.687  14.418
33256W        W97200  27.001  20.076   1.230
33257W        W97201  22.524   6.851   3.184
33258W        W97202   9.371  18.125  10.459
33259W        W97203  28.121  26.518  14.908
33260W        W97204  40.327  32.111   3.206
33261W        W97205   9.227   7.273   2.707
33262W        W97206   4.288  39.990   2.824
33263W        W97207  38.923  30.002   2.862
33264W        W97208  25.156  38.900  10.408
33265W        W97209  12.687  10.871  13.512
33266W        W97210   7.779  37.467   0.343
33267W        W97211   4.742  23.621   0.441
33268W        W97212  35.867  30.532  14.347
33269W        W97213  11.810   4.879  13.403
33270W        W97214  23.537  29.130  10.405
33271W        W97215   0.402  42.851   1.286
33272W        W97216  17.791  23.010   4.304
33273W        W97217   6.338  11.227   1.901
33274W        W97218  21.696  38.344  13.941
33275W        W97219  24.166  21.640   1.382
33276W        W97220  28.061  15.106  11.045
33277W        W97221  10.286  35.922  14.979
33278W        W97222  14.186  11.740  11.932
33279W        W97223   0.784  17.580   3.320
33280W        W97224  43.429  25.150   3.216
33281W        W97225  33.959  36.076  11.606
33282W        W97226  32.581  31.624   2.855
33283W        W97227   5.801  27.055  11.105
33284W        W97228   6.322  17.610   1.882
33285W        W97229   2.733  15.746   0.920
33286W        W97230  36.000   5.838   3.787
33287W        W97231  34.506  10.782   4.235
33288W        W97232  30.036  34.956   2.675
33289W        W97233  36.049  25.542  12.380
33290W        W97234  33.499  17.648   1.330
33291W        W97235  33.560  31.007  11.017
33292W        W97236  42.287  25.176  13.468
33293W        W97237  21.218   6.191   3.198
33294W        W97238  18.552   6.363  13.899
33295W        W97239  38.914  25.571   4.119
33296W        W97240  25.696  14.095   1.888
33297W        W97241   0.442  11.137  13.898
33298W        W97242  12.277   8.360  11.562
33299W        W97243   1.414   6.380   2.400
33300W        W97244  37.874  24.984  14.765
33301W        W97245  13.161  24.718   1.240
33302W        W97246  36.421  44.875  14.838
33303W        W97247  34.410   2.386   2.858
33304W        W97248  20.077  14.260   2.311
33305W        W97249  33.555  38.551  12.473
33306W        W97250  31.936   9.359   1.716
33307W        W97251  13.630  29.424  12.835
33308W        W97252   3.893  12.665  11.485
33309W        W97253  18.684  28.592  12.390
33310W        W97254  12.342  25.695   2.221
33311W        W97255  24.498  33.108  11.880
33312W        W97256  16.643  22.020  13.041
33313W        W97257  13.127  25.694   2.801
33314W        W97258  17.594  26.663  12.868
33315W        W97259  24.509   3.324  14.411
33316W        W97260  18.066   2.921  10.565
33317W        W97261   5.366   2.855  11.884
33318W        W97262  26.504  41.827  13.056
33319W        W97263   2.380   6.742   1.764
33320W        W97264  16.800  22.020   4.279
33321W        W97265   6.824   3.822  11.406
33322W        W97266  44.392  17.133  12.341
33323W        W97267  19.689  44.371  10.468
33324W        W97268  11.247  37.059   3.163
33325W        W97269  13.200  40.868  10.988
33326W        W97270  39.060  38.877   0.789
33327W        W97271   9.740  33.103   0.428
33328W        W97272  35.105   5.234   4.354
33329W        W97273  27.479  20.089   1.762
33330W        W97274  20.206  17.688   1.338
33331W        W97275  14.598  27.166   3.281
33332W        W97276  12.254  10.238  11.088
33333W        W97277  24.155  33.529   5.281
33334W        W97278  30.960  38.533  10.061
33335W        W97279   0.250  26.509   4.160
33336W        W97280   2.912  36.084  11.434
33337W        W97281  28.979   5.784  11.395
33338W        W97282   2.286  26.665  11.870
33339W        W97283  19.117  21.160  10.151
33340W        W97284  21.233   9.815  10.458
33341W        W97285  11.648  17.220   1.866
33342W        W97286  40.505  27.100   0.389
33343W        W97287  42.464  30.533  12.560
33344W        W97288   5.888  44.468   1.901
33345W        W97289   5.271  20.655  13.457
33346W        W97290  43.363   5.215   1.711
33347W        W97291  36.461   6.807  12.375
33348W        W97292  17.072  19.678   1.870
33349W        W97293  39.926  41.472   2.835
33350W        W97294  40.323  16.646  10.469
33351W        W97295   4.904  40.384   0.253
33352W        W97296   3.227   5.438  11.514
33353W        W97297  27.961  32.493  10.624
33354W        W97298  39.841  38.065  13.987
33355W        W97299  28.506  13.620   2.819
33356W        W97300  13.266  17.286   5.146
33357W        W97301  21.543  42.842  12.476
33358W        W97302  19.213  24.625  13.906
33359W        W97303  16.636  43.868   3.667
33360W        W97304  20.620  25.581  11.469
33361W        W97305   1.483  26.660   4.311
33362W        W97306   4.742  16.762  11.486
33363W        W97307  43.285  19.204   0.268
33364W        W97308  14.170  41.831  11.862
33365W        W97309  30.138  25.485   2.897
33366W        W97310  16.202  39.023   2.345
33367W        W97311  30.503  26.582   0.279
33368W        W97312  11.254  43.784  13.517
33369W        W97313  12.189  23.125   4.698
33370W        W97314   1.840  44.761  12.476
33371W        W97315  39.942   2.912  14.946
33372W        W97316  19.152  25.026  10.988
33373W        W97317  36.940  35.066   1.877
33374W        W97318  36.522  29.570   3.758
33375W        W97319  19.543  29.169   2.361
33376W        W97320  14.732   7.780   0.785
33377W        W97321  22.709  36.473   4.832
33378W        W97322  11.190  42.871   0.733
33379W        W97323   0.403  30.153  10.492
33380W        W97324   1.740  40.928   0.727
33381W        W97325  31.151   0.896   3.192
33382W        W97326  20.667   3.818  11.541
33383W        W97327   7.805  31.981   2.350
33384W        W97328  40.824   1.912  12.036
33385W        W97329  10.720  31.901   0.416
33386W        W97330  24.096  14.099   1.230
33387W        W97331  19.182  43.301  12.884
33388W        W97332  21.090  39.949   0.372
33389W        W97333  19.756   6.734   2.729
33390W        W97334  21.644  44.867   4.747
33391W        W97335  18.765  13.839  13.040
33392W        W97336  24.576  15.747  12.347
33393W        W97337  32.447  10.311  13.955
33394W        W97338  41.532  30.615   2.862
33395W        W97339   8.267   4.861   3.322
33396W        W97340  22.217   3.405   3.189
33397W        W97341  30.444  44.783  14.340
33398W        W97342   5.874  29.134   1.402
33399W        W97343   2.966  26.169   3.326
33400W        W97344  38.917  12.848  11.574
33401W        W97345  37.052  39.521   2.238
33402W        W97346  26.043  23.713  13.377
33403W        W97347  25.545  15.747  13.356
33404W        W97348   7.357   8.170   1.749
33405W        W97349   5.288  30.913  13.923
33406W        W97350  41.355   3.432  14.807
33407W        W97351   3.311  17.241   0.869
33408W        W97352  36.920  35.369   1.725
33409W        W97353   1.738  10.687  13.511
33410W        W97354  38.846  39.836  10.043
33411W        W97355  13.221  17.736   0.453
33412W        W97356  22.551  15.815  11.437
33413W        W97357  33.913   6.358  12.909
33414W        W97358   0.399  23.079   3.338
33415W        W97359  35.996  23.667   4.213
33416W        W97360   1.915   5.284  11.959
33417W        W97361  16.735   9.243   2.263
33418W        W97362  36.431  31.416  11.095
33419W        W97363  12.207   8.336  14.302
33420W        W97364  35.958  12.128   2.201
33421W        W97365   9.268  35.027   2.368
33422W        W97366  30.913  32.048  10.486
33423W        W97367  36.386   9.722  11.864
33424W        W97368   7.681   6.698   4.146
33425W        W97369  40.526  12.341   0.923
33426W        W97370   6.794  19.577   3.186
33427W        W97371   3.940   0.346  12.444
33428W        W97372  41.408  24.196   2.188
33429W        W97373   9.863  23.702   4.128
33430W        W97374   1.386  27.175   1.219
33431W        W97375  33.568  27.038   1.395
33432W        W97376  35.091  22.691  10.956
33433W        W97377   0.474   6.241  12.534
33434W        W97378   6.828  21.221   2.859
33435W        W97379  19.146  35.365  12.858
33436W        W97380   1.415   7.908  11.089
33437W        W97381   5.291  35.524   4.297
33438W        W97382  14.590  23.224   2.806
33439W        W97383  19.251  23.607  11.948
33440W        W97384  20.187  30.922   2.768
33441W        W97385  40.992  35.017  12.871
33442W        W97386  17.290  23.986   2.686
33443W        W97387  41.919  25.673  12.071
33444W        W97388   2.232  19.090  12.037
33445W        W97389  23.089  38.362   2.898
33446W        W97390  29.629   0.361  13.860
33447W        W97391  13.112  39.398   3.706
33448W        W97392   0.817  35.576  10.423
33449W        W97393  39.044  15.319   4.308
33450W        W97394  23.083  42.840  14.425
33451W        W97395  36.428  29.112  14.396
33452W        W97396  41.522  28.044  13.808
33453W        W97397  21.251  17.799  12.871
33454W        W97398  11.284  28.062  11.572
33455W        W97399   7.255  24.213   4.827
33456W        W97400   0.799   6.419   0.967
33457W        W97401   2.831  24.054  10.462
33458W        W97402   4.930  32.606  11.475
33459W        W97403  38.452  18.237  12.500
33460W        W97404   1.371  20.709   2.811
33461W        W97405  39.366  16.677   1.730
33462W        W97406  10.332  44.484   2.193
33463W        W97407  26.574  25.558   0.271
33464W        W97408  27.145  18.672  13.322
33465W        W97409  15.683  41.914   1.911
33466W        W97410  10.208   3.761  13.453
33467W        W97411  43.387  15.282  13.957
33468W        W97412  35.446  25.206  14.779
33469W        W97413   3.309  29.659   2.832
33470W        W97414  42.446   8.349   0.897
33471W        W97415  43.837  19.588   0.285
33472W        W97416   4.786  44.261   3.819
33473W        W97417  23.991   7.897  11.970
33474W        W97418   0.908  21.018  14.850
33475W        W97419  36.952   3.822   0.352
33476W        W97420  37.861  34.979  12.538
33477W        W97421  18.691  22.105  10.024
33478W        W97422  40.023   7.339  10.505
33479W        W97423  15.693  22.204  14.848
33480W        W97424  39.518   4.703   2.303
33481W        W97425  30.516  24.980   3.177
33482W        W97426  17.294  23.023  12.461
33483W        W97427  33.114  31.502   2.373
33484W        W97428  14.704  34.613   1.932
33485W        W97429   6.743  43.777  12.498
33486W        W97430  31.565  30.975   2.793
33487W        W97431  23.180   5.909   1.723
33488W        W97432  27.945  28.538   4.163
33489W        W97433  12.264  34.938  10.596
33490W        W97434   2.797  10.234  11.947
33491W        W97435  30.006  37.953   2.284
33492W        W97436   7.893  41.532  13.840
33493W        W97437   7.221  29.425   3.711
33494W        W97438  33.544  34.882   3.689
33495W        W97439  23.091  18.207  14.891
33496W        W97440  14.682  31.014   4.162
33497W        W97441   0.472  25.055  10.404
33498W        W97442  17.596  13.219  13.345
33499W        W97443   5.799  24.589  10.913
33500W        W97444  30.547   0.487   3.723
33501W        W97445  23.586  21.259   2.258
33502W        W97446  19.591  36.458   0.306
33503W        W97447  36.432   4.307   2.340
33504W        W97448   5.869  15.651   3.184
33505W        W97449  44.973  11.363  11.873
33506W        W97450   0.807  33.471   1.313
33507W        W97451  43.302  37.527  12.023
33508W        W97452  12.130  18.697   0.756
33509W        W97453  29.961  26.060  10.900
33510W        W97454  25.178  18.285  10.550
33511W        W97455   3.391   7.313   1.401
33512W        W97456  40.895  40.801  13.920
33513W        W97457   2.256  16.776   4.242
33514W        W97458  22.098   0.369  10.953
33515W        W97459   6.365  26.557  11.897
33516W        W97460  21.560  21.261  14.932
33517W        W97461  30.545  27.161   0.887
33518W        W97462  16.096  17.781   1.765
33519W        W97463  10.787  39.887   4.133
33520W        W97464  24.530  35.596   1.339
33521W        W97465  12.612  20.192  14.347
33522W        W97466   5.425  29.624   2.256
33523W        W97467  15.683  14.296  10.118
33524W        W97468   9.248  36.072  10.139
33525W        W97469  36.579  23.643   0.859
33526W        W97470  43.881  18.093  12.050
33527W        W97471   4.724  38.492   1.355
33528W        W97472  24.571  17.173   4.128
33529W        W97473  38.449  35.603  14.810
33530W        W97474  24.096   1.466   3.741
33531W        W97475  39.354  29.052  10.484
33532W        W97476  16.290  34.905  10.043
33533W        W97477  43.452  37.355   0.961
33534W        W97478   6.421  27.460  14.911
33535W        W97479  32.539  35.461   3.158
33536W        W97480  37.506  25.009  10.962
33537W        W97481  41.364  32.087   3.778
33538W        W97482   6.683  18.688   0.355
33539W        W97483  14.667  29.442   3.155
33540W        W97484  32.112  36.347   2.222
33541W        W97485  32.053   1.914  11.561
33542W        W97486  10.366  18.678   5.179
33543W        W97487  13.184  10.369  11.422
33544W        W97488  15.754  23.223   4.187
33545W        W97489  38.537  10.243  12.429
33546W        W97490  20.605  37.338   3.761
33547W        W97491   0.273  22.183  10.523
33548W        W97492  17.191   6.691   1.280
33549W        W97493  37.364  20.199  11.415
33550W        W97494   8.757  17.109  12.865
33551W        W97495  43.424   8.225  14.803
33552W        W97496  27.605  42.860  11.865
33553W        W97497  30.537  18.094  10.905
33554W        W97498  20.734  36.469  14.377
33555W        W97499   1.971  34.592   3.356
33556W        W97500  42.026  41.331   1.846
33557W        W97501  18.132  17.298  14.282
33558W        W97502  13.197  28.991  14.845
33559W        W97503  11.829  24.206  13.322
33560W        W97504   7.371  11.838   4.220
33561W        W97505   8.694  20.082  11.502
33562W        W97506  18.166  32.553   4.753
33563W        W97507  23.656  38.000   3.292
33564W        W97508  36.964   4.255   1.336
33565W        W97509   1.299  13.627  12.017
33566W        W97510   0.917  44.977  10.602
33567W        W97511  16.123  17.072   0.949
33568W        W97512  13.343  44.381  10.512
33569W        W97513   8.354  11.731  14.797
33570W        W97514  29.434  17.093  13.971
33571W        W97515   7.667   7.751   4.718
33572W        W97516  41.529   2.967  10.992
33573W        W97517  26.577  10.358   4.820
33574W        W97518  29.156  29.455  13.379
33575W        W97519   3.234  23.233   4.688
33576W        W97520   2.761  12.311   0.375
33577W        W97521  24.708  22.204   1.306
33578W        W97522  33.401   6.181  11.883
33579W        W97523  25.703  15.732   1.793
33580W        W97524  22.602   6.708  14.819
33581W        W97525   7.902  13.226  12.042
33582W        W97526  16.647  22.243  10.075
33583W        W97527  22.600  24.701  10.529
33584W        W97528  10.256  42.975   1.793
33585W        W97529  29.546  10.246   4.601
33586W        W97530  11.241   7.258  11.427
33587W        W97531  28.015  10.377  11.454
33588W        W97532  44.461   2.273  13.856
33589W        W97533  43.979  16.575  11.951
33590W        W97534  44.884  40.802  11.094
33591W        W97535  26.522   0.345   4.330
33592W        W97536   3.889   2.251   2.408
33593W        W97537  25.650  12.285  13.044
33594W        W97538  18.578   3.351   1.696
33595W        W97539  21.677  31.634  11.060
33596W        W97540  13.315  17.307   1.699
33597W        W97541  12.196  17.773   2.224
33598W        W97542  32.928  19.203   1.366
33599W        W97543  32.507  25.026   3.356
33600W        W97544  14.827   6.399  12.871
33601W        W97545  22.027  39.371  12.919
33602W        W97546   5.369  12.361  12.465
33603W        W97547  34.907   3.868  10.438
33604W        W97548  14.639  30.110   3.690
33605W        W97549  41.898  22.591  12.078
33606W        W97550  17.765  31.539  10.019
33607W        W97551  41.513  18.162   2.802
33608W        W97552  10.158  30.497   1.290
33609W        W97553  15.690   6.326   1.246
33610W        W97554  36.351  21.260   1.228
33611W        W97555  14.678  24.218   4.609
33612W        W97556  32.024  11.866   2.364
33613W        W97557  17.061   4.913  14.996
33614W        W97558  15.226  19.769   1.288
33615W        W97559  33.084  43.350  13.468
33616W        W97560  41.954  16.667   2.293
33617W        W97561  10.340  27.943   0.379
33618W        W97562   9.838  26.667  12.975
33619W        W97563  36.861  13.614  13.816
33620W        W97564  44.902  28.140   2.194
33621W        W97565  28.587  26.549   0.287
33622W        W97566  23.677  22.083  14.879
33623W        W97567   7.891  21.107   4.336
33624W        W97568  39.951  14.818   1.214
33625W        W97569   8.700  21.032  12.050
33626W        W97570   4.412  14.662   1.916
33627W        W97571  41.005  36.957  13.794
33628W        W97572   6.316  15.584  10.472
33629W        W97573  10.687  42.907   2.788
33630W        W97574  38.409  31.523   1.758
33631W        W97575   4.793   9.264  12.035
33632W        W97576  42.516  44.399  11.038
33633W        W97577  38.374  15.651   0.781
33634W        W97578  33.068  44.397   1.310
33635W        W97579   8.225  33.536  14.482
33636W        W97580  38.497   2.877  11.882
33637W        W97581  43.900  37.944   1.863
33638W        W97582  10.276  31.141  13.501
33639W        W97583  15.214   2.776  10.151
33640W        W97584   3.343  30.497   0.809
33641W        W97585  15.121  21.543   0.371
33642W        W97586  19.588   0.450   4.612
33643W        W97587  32.594  21.194   4.298
33644W        W97588  20.182  16.267   4.200
33645W        W97589  28.628  39.962  14.896
33646W        W97590  19.652  34.487  11.990
33647W        W97591  42.929   6.703   2.324
33648W        W97592  36.356  42.962  13.541
33649W        W97593   1.280  42.383  14.350
33650W        W97594  33.508   1.413  14.863
33651W        W97595   4.350  43.497   4.331
33652W        W97596  13.319  10.380   4.697
33653W        W97597  40.971  11.866   1.861
33654W        W97598  16.281  19.779   1.271
33655W        W97599   7.710  43.998  13.798
33656W        W97600  38.039  41.961  14.928
33657W        W97601  33.063  24.521  13.500
33658W        W97602  32.944  23.070  12.834
33659W        W97603  19.602   2.854   0.794
33660W        W97604  44.876   3.390  12.930
33661W        W97605  14.228  10.327   2.670
33662W        W97606  43.781  44.421   0.271
33663W        W97607  23.702  43.341   3.765
33664W        W97608  29.664  14.592   4.339
33665W        W97609  36.963   8.777   3.809
33666W        W97610  12.235  28.051   1.339
33667W        W97611  27.532  14.174   2.344
33668W        W97612  30.443  42.946   3.852
33669W        W97613  44.867  42.449  12.577
33670W        W97614   1.462  26.564  12.938
33671W        W97615  24.046   6.723   3.643
33672W        W97616  12.247  21.155  12.957
33673W        W97617  34.009  36.521   2.416
33674W        W97618  32.440  31.952  14.780
33675W        W97619  22.019   6.191   1.793
33676W        W97620  17.276  43.019  13.041
33677W        W97621  42.875  41.911  12.559
33678W        W97622  31.634  35.065  14.786
33679W        W97623  36.473  20.074   4.673
33680W        W97624  24.989   5.868   3.841
33681W        W97625   5.910  15.147   1.696
33682W        W97626  16.133  44.948   1.288
33683W        W97627  16.756  11.776   1.361
33684W        W97628   8.722   5.334  11.071
33685W        W97629  32.963  35.041  13.060
33686W        W97630  37.043  39.811  12.850
33687W        W97631  41.434  25.618  14.934
33688W        W97632   1.851  28.495   3.214
33689W        W97633   1.367  24.612  10.944
33690W        W97634  15.743  29.086   4.658
33691W        W97635  24.117  14.654   4.230
33692W        W97636  10.796  24.622  13.496
33693W        W97637  37.399  15.758  13.411
33694W        W97638  27.674  30.088  13.371
33695W        W97639  44.310  41.983  11.423
33696W        W97640  24.648  24.491   2.879
33697W        W97641   9.153  19.176  12.431
33698W        W97642  22.536  37.427  13.348
33699W        W97643  42.382  25.218  11.612
33700W        W97644  38.973   7.673   1.366
33701W        W97645  35.567  16.166   0.889
33702W        W97646  39.930  40.827   1.732
33703W        W97647  15.766  28.143   1.344
33704W        W97648   1.366   8.887  12.996
33705W        W97649  34.983  10.140   5.247
33706W        W97650  23.238  36.084  13.532
33707W        W97651  14.747  11.705  11.106
33708W        W97652  19.564  39.934   9.972
33709W        W97653  11.799  22.599   0.751
33710W        W97654   2.426  34.943  11.468
33711W        W97655   6.243  28.117  12.553
33712W        W97656  18.202  36.500   2.298
33713W        W97657  24.517  22.658   4.717
33714W        W97658  24.179  34.481  13.543
33715W        W97659  29.958  12.123   3.751
33716W        W97660  34.913  31.024   1.710
33717W        W97661  26.146  39.938   0.817
33718W        W97662  15.778  16.614   3.378
33719W        W97663   0.374   7.771   3.631
33720W        W97664  31.972   5.203   3.275
33721W        W97665  14.098  13.740   4.146
33722W        W97666  10.373  23.700   3.679
33723W        W97667  11.305  30.549  12.466
33724W        W97668  15.130  10.229   0.805
33725W        W97669  35.100  26.457  10.573
33726W        W97670  39.810  40.825  10.633
33727W        W97671   9.339   4.884   0.306
33728W        W97672  12.211  39.834  10.438
33729W        W97673  18.061   5.733  10.516
33730W        W97674  29.515  29.090   4.675
33731W        W97675  26.627  39.548   3.187
33732W        W97676  12.218  14.753  10.923
33733W        W97677  39.398  44.840  12.829
33734W        W97678  29.173   3.266   1.354
33735W        W97679   6.857  26.560  11.436
33736W        W97680  44.754  27.479  14.998
33737W        W97681   5.240   2.230   4.323
33738W        W97682  41.534   2.255   4.808
33739W        W97683  15.139  28.124  11.947
33740W        W97684  35.956  27.189  12.096
33741W        W97685  22.143   2.276  14.848
33742W        W97686  11.141  34.900  14.488
33743W        W97687  41.503  23.019   2.902
33744W        W97688  17.228  10.871   4.266
33745W        W97689  22.154  35.587  12.065
33746W        W97690  29.641   5.783  14.488
33747W        W97691  39.380  27.508  14.800
33748W        W97692  24.114  36.575   0.743
33749W        W97693  12.801   3.802   3.373
33750W        W97694  38.425  31.526  12.565
33751W        W97695  25.069  14.762  11.605
33752W        W97696  44.471  37.508  10.521
33753W        W97697   4.406   5.689  11.106
33754W        W97698  44.760  13.150  11.574
33755W        W97699   9.300  18.601   1.833
33756W        W97700  24.228  29.546  12.466
33757W        W97701  17.633  25.026  12.057
33758W        W97702  43.404   7.691   4.703
33759W        W97703  17.274  37.530   4.827
33760W        W97704  13.779  25.187  13.333
33761W        W97705  37.960   9.709   4.193
33762W        W97706  40.423  16.599   0.867
33763W        W97707  42.425   8.879   2.341
33764W        W97708  39.011   1.261  13.377
33765W        W97709  37.342   1.766  13.004
33766W        W97710   6.209  31.949   4.835
33767W        W97711  29.009  40.430   0.441
33768W        W97712  42.905  26.103   3.756
33769W        W97713  17.261  19.691  13.321
33770W        W97714   4.782  36.074   0.279
33771W        W97715  39.533  19.560   0.734
33772W        W97716   5.293   6.804  11.399
33773W        W97717  24.691   9.719   1.729
33774W        W97718  34.522  33.445  14.425
33775W        W97719   1.875  29.059   4.238
33776W        W97720  44.472  41.322  14.354
33777W        W97721  33.493  23.094  11.036
33778W        W97722  31.046  13.144   1.258
33779W        W97723  27.116  39.466   5.101
33780W        W97724   8.383  34.011  10.601
33781W        W97725  36.959  31.997  14.774
33782W        W97726  42.460   4.872   3.757
33783W        W97727  43.777   6.182   1.815
33784W        W97728  27.162  36.990   3.832
33785W        W97729  24.632  11.366  10.458
33786W        W97730   8.357  23.573   3.153
33787W        W97731  36.006  15.154  13.967
33788W        W97732  16.198   7.900  14.852
33789W        W97733  36.014  17.612  12.960
33790W        W97734  35.474  41.915   4.660
33791W        W97735  24.090   5.917   0.904
33792W        W97736  26.505  15.806   0.919
33793W        W97737  14.723  20.212  14.275
33794W        W97738  44.436   6.267  10.538
33795W        W97739  43.785  23.026  11.585
33796W        W97740  10.195  28.483   9.566
33797W        W97741   2.899   9.826  13.833
33798W        W97742  12.117  25.013  12.017
33799W        W97743  11.830  18.691  13.042
33800W        W97744  35.546  25.992   4.250
33801W        W97745  30.940  44.812  10.898
33802W        W97746  10.205  17.619   1.775
33803W        W97747  27.102  19.193  13.545
33804W        W97748   7.247  20.586  14.307
33805W        W97749  21.690   7.738   0.919
33806W        W97750   8.741   4.357   2.366
33807W        W97751   6.415  20.650   1.795
33808W        W97752  24.100  39.337   0.917
33809W        W97753   1.337  23.015   0.406
33810W        W97754   0.787  42.002  13.826
33811W        W97755   2.809  39.370  13.467
33812W        W97756  39.515  36.942  12.390
33813W        W97757  29.519  28.467  13.413
33814W        W97758  16.313   1.368  14.916
33815W        W97759  38.870   2.353  11.039
33816W        W97760   3.925   9.236  12.032
33817W        W97761   3.732  44.902  14.399
33818W        W97762   7.703  25.591   4.759
33819W        W97763  20.671  14.811   4.598
33820W        W97764   6.339   5.708  11.089
33821W        W97765  24.026   9.714   2.826
33822W        W97766  30.147   7.871   3.157
33823W        W97767  41.951  29.139   0.887
33824W        W97768  34.059  37.573   3.355
33825W        W97769  25.218  13.810  14.882
33826W        W97770  37.944  11.158  10.473
33827W        W97771  20.559   4.223  10.530
33828W        W97772  12.834  16.624   4.722
33829W        W97773  12.618  42.855  13.843
33830W        W97774  42.831  30.132  12.996
33831W        W97775   2.780  40.537   3.664
33832W        W97776  22.133   2.910   0.734
33833W        W97777  20.610  33.489  10.452
33834W        W97778   8.755  20.603  14.314
33835W        W97779  30.492  41.318   3.790
33836W        W97780  21.669  26.669  13.938
33837W        W97781   2.747  25.199  14.414
33838W        W97782   9.804  39.063  10.440
33839W        W97783   3.290  31.531  10.935
33840W        W97784  13.313   5.819  10.487
33841W        W97785  27.194  14.145   1.895
33842W        W97786  39.378  39.991  12.059
33843W        W97787  18.781   6.322   4.133
33844W        W97788  30.523   8.234  14.950
33845W        W97789  41.954  12.839  11.919
33846W        W97790   8.249  38.534  14.460
33847W        W97791   8.366  24.016  13.313
33848W        W97792  29.021  20.138   2.408
33849W        W97793   2.736   8.832   1.751
33850W        W97794  39.948  24.655  11.089
33851W        W97795  36.436  26.097   2.238
33852W        W97796   5.198  21.103   1.443
33853W        W97797  20.037  13.224  10.643
33854W        W97798  24.546  41.318   4.628
33855W        W97799   3.274  35.385  14.797
33856W        W97800   3.947  22.721   3.291
33857W        W97801  26.098  43.943  13.975
33858W        W97802  44.841  13.147  14.359
33859W        W97803  26.149  17.782  12.432
33860W        W97804  30.628   3.952  14.297
33861W        W97805  35.955  30.495   0.404
33862W        W97806  18.681   0.859   1.894
33863W        W97807  38.978  30.110  11.607
33864W        W97808  12.781  33.417  10.522
33865W        W97809  30.939  39.976  11.883
33866W        W97810  27.507  24.502  12.513
33867W        W97811  44.437  23.098   4.803
33868W        W97812  36.540  17.295   3.191
33869W        W97813  41.322  39.889  12.429
33870W        W97814  25.082   3.428   3.274
33871W        W97815  26.565   2.363  13.435
33872W        W97816  38.924  33.053   0.466
33873W        W97817  27.129  11.239   3.342
33874W        W97818  35.989  14.784   2.769
33875W        W97819  16.105  38.410  14.807
33876W        W97820  13.185   6.827  12.384
33877W        W97821  43.343  24.526  12.847
33878W        W97822  43.422  34.471   4.808
33879W        W97823   6.216  19.164  14.371
33880W        W97824  19.740  23.984   5.584
33881W        W97825  42.778  35.373  10.420
33882W        W97826  41.900  41.439   0.373
33883W        W97827   4.369  39.557  10.606
33884W        W97828  11.186   6.314  13.541
33885W        W97829  27.690   4.742  11.049
33886W        W97830  22.605  41.534  13.401
33887W        W97831   9.764   7.370  12.469
33888W        W97832  31.917  36.363  11.958
33889W        W97833  22.242  38.458   4.613
33890W        W97834   9.722  30.990  10.469
33891W        W97835  17.214  26.996   0.420
33892W        W97836  37.359  21.608   1.391
33893W        W97837  11.697  33.938   2.849
33894W        W97838  33.999  43.803   1.881
33895W        W97839   1.929  24.601   3.356
33896W        W97840  13.336  33.585  13.379
33897W        W97841   9.744  23.123   1.921
33898W        W97842  38.069   9.234   3.364
33899W        W97843  35.527  29.519  12.091
33900W        W97844  35.456  44.983  13.498
33901W        W97845  38.440  36.909   2.803
33902W        W97846   3.299  17.631   2.888
33903W        W97847  27.032  24.207  14.949
33904W        W97848   2.851  12.644   2.256
33905W        W97849  16.256  23.226   1.280
33906W        W97850   0.255  17.624   4.310
33907W        W97851  16.262  17.649   2.727
33908W        W97852  31.431  39.035   1.429
33909W        W97853  11.130  38.550   2.897
33910W        W97854  39.976  30.514   2.201
33911W        W97855  20.168  15.663   3.701
33912W        W97856   7.889  19.723  14.290
33913W        W97857  29.456   3.928   0.914
33914W        W97858  11.733   7.269  14.846
33915W        W97859  30.047  21.540  14.783
33916W        W97860  38.552  19.686   3.666
33917W        W97861  21.257   6.340  13.894
33918W        W97862   2.467  19.624  10.938
33919W        W97863  14.295   5.221  14.775
33920W        W97864  27.053   5.430   0.726
33921W        W97865  27.454  36.353   1.259
33922W        W97866  18.174  24.209  13.811
33923W        W97867  23.150  10.279   0.773
33924W        W97868  35.873   9.721   0.259
33925W        W97869   5.246   7.218   3.732
33926W        W97870   8.774  44.469   2.419
33927W        W97871  21.247  11.769   2.676
33928W        W97872  18.578  32.998   0.454
33929W        W97873   9.383  21.108   9.993
33930W        W97874  23.107  13.172  10.928
33931W        W97875  13.268  43.461  11.575
33932W        W97876  44.425  26.590  12.555
33933W        W97877  14.305  42.339   3.285
33934W        W97878   2.439  19.626   3.850
33935W        W97879  41.936   0.484   2.360
33936W        W97880  34.556  19.538   3.220
33937W        W97881  35.860  28.185  12.470
33938W        W97882  28.566  17.291   1.328
33939W        W97883  28.018  27.150  10.486
33940W        W97884  42.800  23.185   2.378
33941W        W97885  41.297  25.140   1.933
33942W        W97886  10.204  25.066  12.563
33943W        W97887  13.300   5.262  12.883
33944W        W97888  41.964  24.550   0.855
33945W        W97889  44.816  43.385  10.634
33946W        W97890  14.667  40.918   1.904
33947W        W97891   7.886  13.138   3.323
33948W        W97892  30.985   5.689   3.714
33949W        W97893  34.939  29.979   1.230
33950W        W97894  17.113  15.584  10.617
33951W        W97895   8.314  14.609  10.444
33952W        W97896  33.451  11.757  13.924
33953W        W97897  21.038  42.909  14.901
33954W        W97898  20.043  10.825   1.861
33955W        W97899  20.076   5.828   3.678
33956W        W97900  39.042  23.609   0.325
33957W        W97901  41.884  15.287   0.278
33958W        W97902  30.594  31.148  11.536
33959W        W97903  34.540  22.661   2.834
33960W        W97904  26.027  11.652  14.007
33961W        W97905  12.140  43.977  14.889
33962W        W97906  32.090  40.495   1.876
33963W        W97907  11.259  19.225   3.823
33964W        W97908  34.573  30.577   3.214
33965W        W97909  33.099   3.218  11.077
33966W        W97910   4.409   5.787   1.350
33967W        W97911  24.023  38.936   2.861
33968W        W97912  16.725  44.858  13.497
33969W        W97913   9.840  32.512  13.321
33970W        W97914   7.323  13.794  12.565
33971W        W97915  30.917  39.327  13.417
33972W        W97916  27.947   3.915   3.334
33973W        W97917  34.432   2.266   1.744
33974W        W97918   6.736  37.529   1.346
33975W        W97919  14.824  21.550   0.339
33976W        W97920   4.251   8.892   2.764
33977W        W97921   7.742   9.797  11.040
33978W        W97922   1.329  16.674   0.395
33979W        W97923  15.628   3.281  14.279
33980W        W97924  23.091  25.014  12.550
33981W        W97925  19.068  30.951  14.420
33982W        W97926  35.377  33.589  10.481
33983W        W97927  25.167   9.289   3.641
33984W        W97928   1.855  22.084   3.289
33985W        W97929  11.297  37.443  13.943
33986W        W97930  11.232  34.404  10.594
33987W        W97931   5.387  38.068  12.872
33988W        W97932  29.657  37.503   0.777
33989W        W97933   7.190  16.777  13.515
33990W        W97934   2.724  34.605  13.054
33991W        W97935  36.472  11.155   0.282
33992W        W97936  44.753  32.411  14.979
33993W        W97937   8.171  38.432  11.512
33994W        W97938  14.684  17.279   0.458
33995W        W97939  36.841  18.092  10.521
33996W        W97940  40.836   6.385   3.691
33997W        W97941  11.702  26.087   3.674
33998W        W97942  12.757  19.204  11.919
33999W        W97943  42.308   9.691   3.153
34000W        W97944  31.514  30.559   3.352
34001W        W97945  16.133  29.517   1.306
34002W        W97946  39.982  16.225   4.652
34003W        W97947   2.754  20.753  14.809
34004W        W97948  21.673  29.130   2.866
34005W        W97949  44.931  11.687   3.806
34006W        W97950   1.748  31.063  12.405
34007W        W97951  20.692  27.589  11.005
34008W        W97952  22.718   5.326  14.404
34009W        W97953  23.235   4.705  14.502
34010W        W97954  23.986  33.933  13.032
34011W        W97955  21.628  28.970  11.949
34012W        W97956  44.994  20.133   0.463
34013W        W97957  41.336   3.264  11.914
34014W        W97958   5.880  27.129   4.788
34015W        W97959   8.253  41.301   0.761
34016W        W97960  25.713  32.032  10.055
34017W        W97961   0.931  20.756   2.207
34018W        W97962  42.844   3.377   4.261
34019W        W97963  40.484  36.856  10.554
34020W        W97964   6.729  29.464  10.468
34021W        W97965  41.334   8.660   0.804
34022W        W97966  38.375  27.557  13.443
34023W        W97967  28.151  44.808   1.355
34024W        W97968  10.138  21.170  12.038
34025W        W97969  28.482  20.621  14.488
34026W        W97970   6.812  41.295   0.477
34027W        W97971   2.227  28.473   2.837
34028W        W97972  31.457  26.006   3.174
34029W        W97973   5.912   2.802   0.281
34030W        W97974  30.601  31.507  13.358
34031W        W97975   2.344  20.153  12.875
34032W        W97976   4.867  19.693   1.354
34033W        W97977  22.580  20.697   1.288
34034W        W97978  39.813  31.084   4.323
34035W        W97979  12.673  43.415  14.870
34036W        W97980  42.011  42.944  14.894
34037W        W97981  22.668   1.314   0.876
34038W        W97982  10.206  36.843  13.313
34039W        W97983  31.642   3.298   4.122
34040W        W97984  41.430  30.435   3.731
34041W        W97985  29.957  13.700  11.480
34042W        W97986   6.862   9.300  14.332
34043W        W97987  24.639  10.242  13.505
34044W        W97988  19.115  22.039   3.847
34045W        W97989  28.929   9.254  11.052
34046W        W97990  16.655   0.296  13.388
34047W        W97991  39.410  21.549   1.254
34048W        W97992  41.489  38.334   0.309
34049W        W97993  16.650  29.606   2.256
34050W        W97994  36.502  31.052   1.929
34051W        W97995   4.349  30.938  14.947
34052W        W97996  39.981  34.371  13.547
34053W        W97997   4.931   9.758  14.319
34054W        W97998   2.958  18.589   4.801
34055W        W97999   6.758  37.874  13.899
34056W        W98000  25.170  28.107   3.281
34057W        W98001  42.799  42.368  10.521
34058W        W98002   6.706  17.717  10.455
34059W        W98003  26.955   1.405   3.837
34060W        W98004  43.017  36.055  10.614
34061W        W98005  41.991  35.012  12.959
34062W        W98006  30.117  40.864   0.749
34063W        W98007  22.137  44.326  13.410
34064W        W98008  42.925   8.867  13.383
34065W        W98009  18.632   5.904   1.402
34066W        W98010  40.884  31.969  11.968
34067W        W98011   9.251  28.973  13.436
34068W        W98012   1.825   0.484   0.371
34069W        W98013  16.714   6.239  10.464
34070W        W98014  30.545  29.520   1.435
34071W        W98015   5.386   0.845  14.285
34072W        W98016  27.578  11.710  12.955
34073W        W98017  28.531  22.223  10.935
34074W        W98018  43.799  37.069   0.816
34075W        W98019  29.532   7.898   0.302
34076W        W98020  18.259  30.074   2.854
34077W        W98021  12.134   7.198   0.790
34078W        W98022   1.754  10.807   0.909
34079W        W98023   1.341  34.560  11.522
34080W        W98024  32.420  20.219  12.830
34081W        W98025  34.908  27.162  11.459
34082W        W98026   0.321  22.021   0.774
34083W        W98027   7.831  11.788   2.874
34084W        W98028  37.444  27.660  11.406
34085W        W98029   0.479  17.744   1.831
34086W        W98030  20.670   5.886   3.708
34087W        W98031  39.017  34.455  14.313
34088W        W98032  39.050  32.608  14.780
34089W        W98033  21.020  37.349  12.563
34090W        W98034  26.193  13.217   4.681
34091W        W98035  20.172  19.112  14.000
34092W        W98036   3.357   1.443  13.935
34093W        W98037  30.123  44.478   1.433
34094W        W98038  24.136  32.419  11.053
34095W        W98039  42.916   2.925   0.245
34096W        W98040   9.238  26.989   2.865
34097W        W98041  32.500  12.349   4.350
34098W        W98042   9.691  30.636  12.536
34099W        W98043  27.484   3.901   4.230
34100W        W98044   9.291  21.756  13.861
34101W        W98045  37.071   7.730  10.527
34102W        W98046  33.899   8.228   3.218
34103W        W98047  26.023   3.754  10.404
34104W        W98048   1.762   5.393  12.870
34105W        W98049  30.457   5.904   4.277
34106W        W98050  21.724  29.007   2.388
34107W        W98051   0.265   8.313  11.399
34108W        W98052  22.556  34.442   1.857
34109W        W98053   1.386  23.580  12.885
34110W        W98054  31.102  28.993   0.845
34111W        W98055  13.209  40.024  12.069
34112W        W98056  30.964   4.900   4.148
34113W        W98057  41.818  33.395  13.832
34114W        W98058   5.386  13.125  14.284
34115W        W98059   4.351  35.475  13.895
34116W        W98060   7.241  37.923  14.855
34117W        W98061   5.885  21.599  14.960
34118W        W98062  36.388   9.778   1.438
34119W        W98063   3.374  32.499  14.817
34120W        W98064  13.325  27.171   4.213
34121W        W98065  44.463  42.822   9.996
34122W        W98066  39.886  36.581  12.559
34123W        W98067  43.308  44.791   1.271
34124W        W98068  19.535   3.316   1.263
34125W        W98069   1.965  20.556   2.861
34126W        W98070  24.044  15.749  12.340
34127W        W98071  16.803  15.155  11.471
34128W        W98072  24.679  36.385   2.380
34129W        W98073  24.562   9.751  12.980
34130W        W98074   1.283  26.489  14.342
34131W        W98075  32.399  17.272  11.114
34132W        W98076  15.177   0.447  13.835
34133W        W98077  41.942   8.345   1.423
34134W        W98078   7.869  10.265  14.992
34135W        W98079  15.709  40.356  14.481
34136W        W98080   1.325  21.138  12.920
34137W        W98081  20.240  14.294  13.388
34138W        W98082   6.913  29.530   2.200
34139W        W98083   3.290  16.173   2.186
34140W        W98084  12.353  13.346   2.267
34141W        W98085  12.196  12.777   3.308
34142W        W98086  28.960  19.203   3.658
34143W        W98087  18.140  26.149  13.512
34144W        W98088  21.563  10.851  13.427
34145W        W98089  27.940  23.640  10.959
34146W        W98090  15.786  39.314  12.360
34147W        W98091  30.560  19.151  14.329
34148W        W98092  15.663   1.843  13.510
34149W        W98093  24.544  29.656   3.786
34150W        W98094  18.550  21.251   1.845
34151W        W98095  33.110  40.881  13.917
34152W        W98096  16.245   4.364   3.768
34153W        W98097  39.971  11.817   4.214
34154W        W98098  44.271  13.310   0.798
34155W        W98099  31.406   0.370  13.384
34156W        W98100  43.401  28.542   4.258
34157W        W98101  11.795   8.397  14.808
34158W        W98102   4.295  42.875  10.615
34159W        W98103  30.939  19.565   4.604
34160W        W98104  24.051  36.401  13.386
34161W        W98105  12.811   4.370  14.483
34162W        W98106  32.084  42.850   0.960
34163W        W98107  22.575   9.682   2.722
34164W        W98108  10.821   1.276   3.686
34165W        W98109  13.138  20.704   2.795
34166W        W98110  31.965  31.956   5.245
34167W        W98111  41.920  43.780  10.516
34168W        W98112  18.206   8.372  13.465
34169W        W98113   5.224  26.167  14.421
34170W        W98114  24.542  16.603  14.022
34171W        W98115  17.079  28.950   1.900
34172W        W98116  20.076  16.674   3.775
34173W        W98117   1.952  10.811  12.425
34174W        W98118  13.297  29.631  12.388
34175W        W98119   0.450   9.812   4.760
34176W        W98120  26.542   7.195   0.870
34177W        W98121   2.454   5.899  11.385
34178W        W98122   1.365  19.572   2.694
34179W        W98123  26.200  43.018  11.515
34180W        W98124  16.644  15.263   3.356
34181W        W98125  42.025  35.571   2.662
34182W        W98126  10.186  41.436   2.395
34183W        W98127  28.986  23.078  13.324
34184W        W98128  20.184  32.506   1.700
34185W        W98129  13.761  10.322   3.257
34186W        W98130  26.095   7.682  14.406
34187W        W98131  14.102   4.281   0.345
34188W        W98132  11.161  39.515   4.806
34189W        W98133  19.699  35.377   4.816
34190W        W98134  35.040  40.996   1.797
34191W        W98135  40.857  24.520   1.761
34192W        W98136  25.137   2.454  10.928
34193W        W98137   0.413  36.365  10.493
34194W        W98138  41.356   4.223   0.807
34195W        W98139  39.385  29.618   4.612
34196W        W98140   4.388  21.725  11.522
34197W        W98141  41.369  27.094   4.612
34198W        W98142  39.979   7.721   4.662
34199W        W98143  13.776  43.819  14.337
34200W        W98144  39.934  38.462  11.498
34201W        W98145  43.510   4.875  14.434
34202W        W98146  22.639  43.325  12.840
34203W        W98147   2.439  28.634  10.535
34204W        W98148  22.508  21.078  10.923
34205W        W98149  14.257  44.369  10.956
34206W        W98150  27.095   6.782  11.910
34207W        W98151  20.096   9.170   4.733
34208W        W98152   5.811  38.025  12.072
34209W        W98153  31.574  23.195   2.233
34210W        W98154   2.335  11.622  13.497
34211W        W98155   6.248  33.455  10.127
34212W        W98156   3.390  23.155  12.501
34213W        W98157  41.025  25.557  14.307
34214W        W98158  39.346  10.170  13.933
34215W        W98159  26.117  16.687   3.682
34216W        W98160   8.310  39.856   4.174
34217W        W98161  38.861  10.780  11.524
34218W        W98162   7.264  22.565  11.857
34219W        W98163  34.097  13.772  11.875
34220W        W98164  29.976  22.727   4.287
34221W        W98165  19.181  35.462   4.256
34222W        W98166  27.158  37.552  14.349
34223W        W98167  18.591   2.897   2.366
34224W        W98168   0.349  19.222   4.263
34225W        W98169  31.108   9.666   1.760
34226W        W98170  15.735  22.135   1.330
34227W        W98171  27.457  22.193  10.486
34228W        W98172  16.752  16.300   1.390
34229W        W98173  35.860  29.497   4.740
34230W        W98174  38.352  40.325   1.257
34231W        W98175  24.692  30.528  14.894
34232W        W98176  14.799  14.289   2.375
34233W        W98177   4.316  17.679   1.755
34234W        W98178  18.136  23.537   0.280
34235W        W98179  29.998  37.542  12.992
34236W        W98180  23.653  36.990   4.151
34237W        W98181  31.606   0.406   2.344
34238W        W98182  42.516  35.105  11.454
34239W        W98183   6.267  29.527  11.449
34240W        W98184   7.801  41.915   4.669
34241W        W98185  30.050   6.766  11.496
34242W        W98186  26.169  14.622  14.472
34243W        W98187  10.336  41.448  13.964
34244W        W98188  21.521  33.940  11.388
34245W        W98189   3.371  40.024   2.757
34246W        W98190  12.849  20.649  11.875
34247W        W98191  44.491   8.771   0.306
34248W        W98192  31.142  25.971  14.887
34249W        W98193   2.769  32.436  11.084
34250W        W98194  12.612  34.075  10.958
34251W        W98195  44.371  11.714   1.818
34252W        W98196   2.753  22.513  14.514
34253W        W98197   4.841  15.264  14.402
34254W        W98198  44.836  38.827  12.860
34255W        W98199  26.550  18.190   1.412
34256W        W98200  16.097  18.561  14.032
34257W        W98201  18.055   5.369   2.717
34258W        W98202   5.412   5.787  14.831
34259W        W98203  12.768  20.716  13.048
34260W        W98204  29.108  39.330   2.350
34261W        W98205  41.010   7.869  10.602
34262W        W98206  18.565  44.318   1.219
34263W        W98207  27.040  41.829  14.458
34264W        W98208  28.544   5.857  13.410
34265W        W98209  43.771  38.903   0.925
34266W        W98210   9.196  27.503  12.082
34267W        W98211  17.621  27.669   0.966
34268W        W98212  31.050  27.572   3.735
34269W        W98213  20.756  29.151  12.027
34270W        W98214   8.724  40.395   1.815
34271W        W98215  25.086  14.696   1.738
34272W        W98216   6.854  21.587   4.789
34273W        W98217  37.522  33.388  11.490
34274W        W98218  17.227   6.875  14.418
34275W        W98219   3.815  22.122  10.991
34276W        W98220  31.420  17.656  12.406
34277W        W98221  37.396  10.806   2.403
34278W        W98222  20.108  22.525  12.580
34279W        W98223  23.085  43.000   1.343
34280W        W98224  28.600  16.642   4.232
34281W        W98225  27.020   4.301  14.007
34282W        W98226  40.977  37.896   2.693
34283W        W98227  10.219   8.703   2.823
34284W        W98228  37.882  18.560  10.497
34285W        W98229   1.302  27.026   0.855
34286W        W98230  13.652   8.896  11.528
34287W        W98231  33.024  40.491   1.694
34288W        W98232  25.700  41.422  12.839
34289W        W98233  36.410  29.542  14.342
34290W        W98234   3.331  19.136   4.241
34291W        W98235   4.219  11.188   1.777
34292W        W98236  43.407  30.910  11.546
34293W        W98237  24.699  40.005   0.419
34294W        W98238  35.063   5.219  13.542
34295W        W98239  20.537   3.790  11.872
34296W        W98240  42.852  37.860   4.318
34297W        W98241  13.241  35.493   0.417
34298W        W98242  29.635  24.163   4.802
34299W        W98243  16.770  43.383   3.796
34300W        W98244  41.473  31.121   4.749
34301W        W98245   7.766  33.427  13.443
34302W        W98246   9.345  39.917   2.900
34303W        W98247  23.592  27.449   2.750
34304W        W98248  13.319  33.950   5.705
34305W        W98249  14.316  13.644   2.682
34306W        W98250   2.915  39.384   1.853
34307W        W98251  31.152   7.791   2.351
34308W        W98252  42.477  30.929  13.364
34309W        W98253   6.253   5.200  12.483
34310W        W98254   3.821   7.362   3.757
34311W        W98255  31.409  36.851  12.888
34312W        W98256  30.920  23.107   1.295
34313W        W98257  27.946  11.132  14.900
34314W        W98258  44.920   9.251  13.802
34315W        W98259   3.278  16.676   2.817
34316W        W98260   4.333  34.506  11.411
34317W        W98261  38.355  11.290   3.244
34318W        W98262   4.888  29.018  10.634
34319W        W98263  14.766  31.496  13.802
34320W        W98264  27.052  35.586  11.415
34321W        W98265   3.236  22.153   4.309
34322W        W98266  18.572  28.944  12.435
34323W        W98267  35.393  31.032  12.827
34324W        W98268  42.365   6.413  11.896
34325W        W98269  21.152  20.145   2.281
34326W        W98270  22.215  44.754  12.095
34327W        W98271  26.502  18.772  13.054
34328W        W98272  35.035  32.128  11.414
34329W        W98273  29.026  17.150   3.307
34330W        W98274   4.337  36.406   3.303
34331W        W98275  15.642  11.298  10.930
34332W        W98276   6.782  40.394   4.720
34333W        W98277   1.938  44.956  13.873
34334W        W98278  36.999   2.277   3.365
34335W        W98279  27.984  14.831  13.027
34336W        W98280  29.658  17.298  14.378
34337W        W98281  14.309   2.901  14.823
34338W        W98282  37.963  34.470   3.703
34339W        W98283   0.852  39.347   3.240
34340W        W98284  24.105  24.223   1.380
34341W        W98285  10.708  27.502  11.863
34342W        W98286  26.962  24.101  10.427
34343W        W98287  41.386  16.709  12.357
34344W        W98288  23.079  30.073  10.455
34345W        W98289  39.436  40.831   0.869
34346W        W98290  12.618  31.909   4.303
34347W        W98291  36.042   4.917  13.348
34348W        W98292  44.302   9.353   0.478
34349W        W98293  13.202   8.380   4.182
34350W        W98294   4.854  37.491   3.341
34351W        W98295   7.679   3.379   3.641
34352W        W98296  25.630  43.505  12.015
34353W        W98297  24.528  10.851  14.986
34354W        W98298  29.614   7.357  14.831
34355W        W98299  28.596   5.900  11.938
34356W        W98300  39.886  35.586  10.635
34357W        W98301  10.632  24.177  10.639
34358W        W98302  28.078  31.406  13.890
34359W        W98303   1.250  17.211  14.902
34360W        W98304  43.332  18.202   3.697
34361W        W98305  37.528  14.204   3.186
34362W        W98306  28.049  14.685   2.874
34363W        W98307  36.046   6.224   2.233
34364W        W98308  13.747   1.413  10.009
34365W        W98309  11.811  44.961   4.167
34366W        W98310  18.144  37.348   3.207
34367W        W98311   0.915  36.931  12.405
34368W        W98312  35.882  28.990   0.869
34369W        W98313  23.192  28.172   4.771
34370W        W98314  40.476  26.970  11.935
34371W        W98315  13.147  12.761  13.897
34372W        W98316  19.713  10.174   4.700
34373W        W98317   8.838  22.697  14.377
34374W        W98318  14.251   3.391   0.851
34375W        W98319   6.347   3.921   3.347
34376W        W98320  30.098   2.913  10.970
34377W        W98321   9.342  35.867   2.265
34378W        W98322  33.116   3.334   4.658
34379W        W98323  42.839  43.473  14.441
34380W        W98324  12.345   6.905   1.896
34381W        W98325  10.270   1.420   2.212
34382W        W98326  41.998  37.830  11.079
34383W        W98327   6.298  28.539   0.474
34384W        W98328  17.105  33.906   1.841
34385W        W98329  35.964  35.103  11.962
34386W        W98330  23.171   9.258  13.061
34387W        W98331  38.848  17.561  11.563
34388W        W98332   5.838  44.808  14.480
34389W        W98333   0.287  32.102   2.402
34390W        W98334  39.494   5.781  12.917
34391W        W98335   8.334   9.752  13.861
34392W        W98336  10.308  39.040  12.401
34393W        W98337  13.767   9.863   1.901
34394W        W98338  33.049   6.905   2.225
34395W        W98339  10.302  38.913  14.764
34396W        W98340  18.151   1.863  11.983
34397W        W98341  31.430  20.751  11.951
34398W        W98342   2.728   7.224  13.537
34399W        W98343   7.697  28.547  11.014
34400W        W98344  37.992  37.395  10.422
34401W        W98345  17.630  39.815   0.355
34402W        W98346  39.547  15.780   3.855
34403W        W98347  15.252   0.284  13.443
34404W        W98348  19.053   4.367   4.805
34405W        W98349   5.889  16.689   4.304
34406W        W98350  36.970  44.434  12.547
34407W        W98351  21.620   3.442  13.899
34408W        W98352  44.842  14.101  14.386
34409W        W98353  17.724  17.193  11.517
34410W        W98354  26.632   9.281   0.389
34411W        W98355   5.789  44.886   2.322
34412W        W98356  17.721  21.040  14.302
34413W        W98357   0.347  10.377   0.347
34414W        W98358  29.029  41.011  12.040
34415W        W98359  38.041  14.802   1.704
34416W        W98360   8.400   1.812  12.883
34417W        W98361   6.765  25.600   4.821
34418W        W98362  33.930  14.667  11.407
34419W        W98363   8.815   7.808   2.296
34420W        W98364  30.094  32.602   4.179
34421W        W98365  15.211  38.886  11.910
34422W        W98366  37.501  20.550   2.342
34423W        W98367  15.653  37.427  14.442
34424W        W98368  36.001  39.328   3.168
34425W        W98369  34.039  15.189  11.555
34426W        W98370   6.830  18.123  12.006
34427W        W98371  30.913  18.715  10.160
34428W        W98372  22.099  22.503  12.556
34429W        W98373   6.802  33.446  10.560
34430W        W98374  15.633   8.673  14.832
34431W        W98375  31.645  31.571  11.900
34432W        W98376  25.470  38.015  13.992
34433W        W98377  35.360  34.989  13.544
34434W        W98378  23.137   7.813   0.810
34435W        W98379  37.911  20.060  13.410
34436W        W98380  16.163  22.217   0.254
34437W        W98381  41.339  42.007   2.384
34438W        W98382  26.527  36.003  13.018
34439W        W98383  12.721   9.356   2.222
34440W        W98384  30.146  40.402   1.844
34441W        W98385  20.535  43.947   0.802
34442W        W98386  15.090   8.365   5.581
34443W        W98387   5.278  10.876   0.280
34444W        W98388   4.375  24.103  12.829
34445W        W98389  11.279  14.601  12.931
34446W        W98390   8.208  31.512  13.836
34447W        W98391   4.338  13.636   3.780
34448W        W98392  14.107  32.470  12.443
34449W        W98393  30.920  13.146   0.842
34450W        W98394  29.507  27.109   0.756
34451W        W98395  32.001  26.016   1.762
34452W        W98396  40.011  22.658   1.701
34453W        W98397   8.359  18.218  12.498
34454W        W98398  32.065  40.485  14.865
34455W        W98399   8.211  39.319   1.255
34456W        W98400  28.653  25.517  13.439
34457W        W98401  24.488  25.041   5.140
34458W        W98402   4.435  19.687   0.875
34459W        W98403  24.003   9.860  12.406
34460W        W98404   9.337  38.927   0.447
34461W        W98405  16.745  27.537   4.315
34462W        W98406  42.802   1.829  13.039
34463W        W98407   9.225  21.078   5.102
34464W        W98408   7.910  13.631  11.991
34465W        W98409  44.300  35.377  14.276
34466W        W98410  17.209   5.197  13.891
34467W        W98411  34.924  10.635  12.485
34468W        W98412  29.636  41.439   5.102
34469W        W98413  34.464  27.473   0.937
34470W        W98414  37.532   3.820  12.094
34471W        W98415  27.664  38.075   5.119
34472W        W98416  25.711  16.077  12.939
34473W        W98417  43.946  24.531   2.775
34474W        W98418  42.346  14.200  13.009
34475W        W98419  33.432  28.614   2.771
34476W        W98420  34.441  43.818   2.814
34477W        W98421  28.102  28.631   1.310
34478W        W98422  33.939  34.503  12.832
34479W        W98423   1.870  43.515   1.701
34480W        W98424  32.490  15.138  11.612
34481W        W98425   5.760  39.547  10.989
34482W        W98426   7.684  26.049  12.343
34483W        W98427  31.539  32.992  12.884
34484W        W98428  27.620  11.690   0.253
34485W        W98429  40.388  38.382   1.338
34486W        W98430  34.608   6.298   3.651
34487W        W98431  10.208   5.908  14.510
34488W        W98432  42.975   3.836  14.032
34489W        W98433  24.562  29.106   1.844
34490W        W98434   7.173  29.597  11.391
34491W        W98435  23.676  42.319  14.799
34492W        W98436  36.542  35.527  13.947
34493W        W98437   1.457  17.783   3.178
34494W        W98438  44.912   1.261   0.829
34495W        W98439  25.537  17.199  12.472
34496W        W98440  36.004  28.002  12.828
34497W        W98441   0.493   5.904  13.463
34498W        W98442  15.152  18.145   0.918
34499W        W98443  27.547  32.543   3.791
34500W        W98444  29.927   3.425   3.233
34501W        W98445  22.081  23.556  12.876
34502W        W98446  15.141  31.930   3.353
34503W        W98447  22.198  13.768   1.418
34504W        W98448  22.112  40.934   2.883
34505W        W98449  30.653  11.673  14.905
34506W        W98450  40.530  35.556   1.698
34507W        W98451  13.716   2.736   1.933
34508W        W98452   4.734  25.016  10.437
34509W        W98453  13.194   9.182   2.287
34510W        W98454  24.210  17.262  10.527
34511W        W98455  41.379   8.382   3.201
34512W        W98456   5.234  22.148  13.895
34513W        W98457  40.491  16.113   2.302
34514W        W98458  32.010  23.654  12.355
34515W        W98459  39.862  27.142  14.341
34516W        W98460   6.686  27.650   2.814
34517W        W98461  12.270  19.066   1.323
34518W        W98462  43.849  38.018   2.847
34519W        W98463   4.323  24.497   4.124
34520W        W98464   8.722  23.071   1.436
34521W        W98465  15.313   3.804  14.399
34522W        W98466  31.051  17.704  12.841
34523W        W98467  36.438  34.880   2.781
34524W        W98468  35.000   1.378   4.151
34525W        W98469  16.724  43.290   1.423
34526W        W98470  19.146  32.973   1.372
34527W        W98471   9.298   2.408   3.362
34528W        W98472   5.723  18.613  12.958
34529W        W98473  15.755  41.463   4.628
34530W        W98474  20.699  30.555  14.504
34531W        W98475  39.355   3.918   1.449
34532W        W98476  22.065  40.542  10.458
34533W        W98477  39.488  30.436   4.338
34534W        W98478  24.174  10.287   5.294
34535W        W98479   1.244  33.591   2.888
34536W        W98480  41.998  18.557  13.354
34537W        W98481  21.664  17.706  11.435
34538W        W98482  32.542  13.181  11.923
34539W        W98483  17.211  14.623   2.270
34540W        W98484  33.561  40.929   2.303
34541W        W98485  43.361  42.881  13.796
34542W        W98486  25.499  42.889  11.077
34543W        W98487   9.690  21.547  11.100
34544W        W98488  36.903   2.911  12.060
34545W        W98489   2.810  18.598   2.759
34546W        W98490  10.856  20.674  13.318
34547W        W98491  44.368  38.876  11.561
34548W        W98492  36.892   8.404   2.681
34549W        W98493  43.379   8.860  10.454
34550W        W98494  20.608  41.810  14.492
34551W        W98495  15.252  35.071  14.832
34552W        W98496   9.232  17.558   9.550
34553W        W98497  36.973  21.249  13.890
34554W        W98498  41.536  24.539  13.528
34555W        W98499  33.927  10.756   4.303
34556W        W98500  15.272  43.473  12.363
34557W        W98501  24.539  14.246  13.413
34558W        W98502  43.820   1.283  13.408
34559W        W98503   3.819  43.834  13.380
34560W        W98504  39.545  11.793  14.992
34561W        W98505  11.232  36.869   3.831
34562W        W98506  32.951  36.026  10.423
34563W        W98507  40.532  12.330   0.318
34564W        W98508  14.753  27.167  13.440
34565W        W98509   5.749  24.559  11.975
34566W        W98510   3.946  28.512  13.910
34567W        W98511  35.598  21.752   4.164
34568W        W98512   5.749  37.375   0.276
34569W        W98513  36.999  29.160  11.588
34570W        W98514  19.734  24.166   5.115
34571W        W98515  33.577   2.331  11.034
34572W        W98516  13.286   3.460   5.143
34573W        W98517  30.001  36.035  13.480
34574W        W98518  18.645   4.275  14.787
34575W        W98519   2.419  35.368  14.338
34576W        W98520  14.705  25.537  12.577
34577W        W98521  25.703  41.367   2.791
34578W        W98522  39.845  39.841  13.411
34579W        W98523  39.395   2.832   1.236
34580W        W98524   6.286   6.681   3.817
34581W        W98525  14.639  33.024  11.503
34582W        W98526  26.671  37.076   1.351
34583W        W98527  16.232  37.558   2.869
34584W        W98528   5.314   1.301  13.407
34585W        W98529  42.516  40.894  13.482
34586W        W98530  43.412  35.558   2.340
34587W        W98531  30.941  39.990   4.776
34588W        W98532   7.185  13.823   0.344
34589W        W98533  21.748  15.325   2.322
34590W        W98534  37.837  27.685  11.535
34591W        W98535  31.462  42.842   2.246
34592W        W98536   9.685   6.899   0.841
34593W        W98537  31.515  30.558   2.818
34594W        W98538  37.977  21.592  11.126
34595W        W98539  25.534   0.873  12.858
34596W        W98540  26.061   4.364  13.887
34597W        W98541  43.394  22.119   2.779
34598W        W98542   6.701  34.120  11.910
34599W        W98543  26.562   7.369  12.370
34600W        W98544  42.003   7.812   2.375
34601W        W98545  36.395  32.991  10.477
34602W        W98546  31.922   6.256   0.306
34603W        W98547  17.681  29.430   2.748
34604W        W98548  43.314  31.450  14.008
34605W        W98549   9.386  23.210   4.267
34606W        W98550  37.527   0.303  12.390
34607W        W98551  19.606  14.209   4.159
34608W        W98552  31.054  31.416  14.431
34609W        W98553   6.685   6.793  10.406
34610W        W98554  15.210  21.562  12.925
34611W        W98555  38.874  15.607   4.810
34612W        W98556   0.935  31.451  11.592
34613W        W98557  24.653  32.403  11.518
34614W        W98558   8.808  29.990  14.453
34615W        W98559  21.689  13.833   3.294
34616W        W98560  24.984  27.162  13.365
34617W        W98561   0.906  13.284   2.257
34618W        W98562  33.497   1.952  10.463
34619W        W98563  14.222  10.745  10.966
34620W        W98564   4.712  13.108   0.894
34621W        W98565   7.667  10.793   4.687
34622W        W98566  37.566  12.632   3.738
34623W        W98567  41.537   5.280  14.406
34624W        W98568  42.439  21.091   1.435
34625W        W98569  25.069  25.974  12.580
34626W        W98570  24.194  43.272   2.830
34627W        W98571  37.046   2.247  11.126
34628W        W98572  22.705  12.123  12.553
34629W        W98573  17.703  32.415  11.570
34630W        W98574  14.804  20.059   0.743
34631W        W98575  12.119  25.190  13.447
34632W        W98576  27.661  16.195   4.710
34633W        W98577  13.160  13.125  12.410
34634W        W98578  43.453   8.386  13.498
34635W        W98579  30.964  16.221   4.320
34636W        W98580   7.813  15.285   5.133
34637W        W98581  43.789  16.697   4.728
34638W        W98582   0.796  29.156   4.257
34639W        W98583  19.545  30.968  14.452
34640W        W98584   0.450   7.172   1.217
34641W        W98585   7.205  22.223  13.540
34642W        W98586  23.024  40.481   0.766
34643W        W98587  22.630  26.135   3.736
34644W        W98588   5.361  36.592  14.848
34645W        W98589  28.071  13.179   3.801
34646W        W98590  36.379  11.624   3.329
34647W        W98591  16.100  26.527  13.524
34648W        W98592   9.371  32.501   2.319
34649W        W98593  43.885  29.024  11.488
34650W        W98594  39.911  29.966   3.708
34651W        W98595   9.889  36.019   0.866
34652W        W98596  17.630  12.124   0.806
34653W        W98597  44.442  37.981   4.627
34654W        W98598   4.435  13.159   4.778
34655W        W98599  25.101  10.750   3.804
34656W        W98600  26.550  32.392  12.978
34657W        W98601   1.854  40.857   3.355
34658W        W98602  15.094  31.489  12.852
34659W        W98603  21.189  34.499  12.564
34660W        W98604  40.924  34.068  12.476
34661W        W98605  21.609  38.488   2.899
34662W        W98606  25.638  12.615  11.394
34663W        W98607   7.265  23.060  13.811
34664W        W98608  35.419  41.440  14.988
34665W        W98609  19.605   4.423  12.071
34666W        W98610  13.790   3.911   3.687
34667W        W98611  41.471  24.570  11.580
34668W        W98612   6.340  20.677  12.573
34669W        W98613  38.543  24.042  14.829
34670W        W98614  23.001  43.941   1.742
34671W        W98615   1.811  37.861  11.585
34672W        W98616  19.202  35.564   0.851
34673W        W98617   9.655  44.277   3.234
34674W        W98618  43.464  35.859  10.923
34675W        W98619   9.393  38.826   2.739
34676W        W98620  14.324   4.719  11.957
34677W        W98621  27.484  28.082   0.951
34678W        W98622   9.393   4.711  14.758
34679W        W98623  35.397  17.791  10.454
34680W        W98624  10.239   0.314   0.799
34681W        W98625  31.508  12.697  11.455
34682W        W98626   2.324   4.938  14.308
34683W        W98627  28.930   4.884   0.916
34684W        W98628  13.105  27.607  11.512
34685W        W98629  35.004   0.890   4.208
34686W        W98630  43.015  18.574  14.806
34687W        W98631   1.939  10.238  11.914
34688W        W98632  34.523  42.876  12.476
34689W        W98633  25.060  34.556  11.453
34690W        W98634  10.793  27.064  13.049
34691W        W98635  16.168  17.675  12.928
34692W        W98636  25.173   4.296  12.552
34693W        W98637   1.868  35.105  14.870
34694W        W98638  12.735  15.301  10.410
34695W        W98639  41.910  13.336  12.029
34696W        W98640  13.800  44.432   2.850
34697W        W98641  11.356  17.797  12.965
34698W        W98642  10.325  28.047  13.366
34699W        W98643  40.965   0.970  14.341
34700W        W98644  35.484  36.485  12.887
34701W        W98645  41.963  17.088   5.147
34702W        W98646  42.854   0.387  14.915
34703W        W98647  10.721   8.830  10.933
34704W        W98648  25.204  41.478  14.480
34705W        W98649   1.943  19.591  12.405
34706W        W98650  11.830  22.700  12.368
34707W        W98651  26.524   6.821   3.654
34708W        W98652  26.461  41.806  13.825
34709W        W98653  36.087  24.723   4.741
34710W        W98654  16.147  22.620   2.306
34711W        W98655  28.475  11.131   4.177
34712W        W98656  29.500  25.147   2.769
34713W        W98657  14.309  33.582   3.844
34714W        W98658  30.963  34.500   1.274
34715W        W98659  32.571   1.800   2.802
34716W        W98660   7.672  30.512   3.382
34717W        W98661   7.231   9.318   3.294
34718W        W98662   5.897  36.387   2.382
34719W        W98663  14.275  18.092  14.928
34720W        W98664  31.471  19.648   1.715
34721W        W98665   7.211   5.861  10.540
34722W        W98666  32.510  13.606  10.529
34723W        W98667  39.458   7.327   1.774
34724W        W98668  27.116  33.598  10.428
34725W        W98669  16.712   4.870  10.920
34726W        W98670  10.294  15.732   1.851
34727W        W98671  27.065  41.421  14.362
34728W        W98672  20.721   3.850   3.290
34729W        W98673  25.002  41.431  11.071
34730W        W98674  21.530   1.855  11.017
34731W        W98675  28.472   7.778   2.775
34732W        W98676  40.029  34.602   1.448
34733W        W98677  16.093   5.798   3.796
34734W        W98678  33.894  21.717   3.650
34735W        W98679   5.207  22.081   4.653
34736W        W98680   9.184  30.471  14.809
34737W        W98681  40.442   1.479  11.117
34738W        W98682  12.636   1.477   2.671
34739W        W98683  32.070  38.032   3.322
34740W        W98684  12.641  14.628   3.171
34741W        W98685  20.132  37.851  14.426
34742W        W98686  15.273  36.466   1.705
34743W        W98687  33.573  36.969   4.340
34744W        W98688  41.017  14.162   3.301
34745W        W98689  24.653  23.009   3.146
34746W        W98690  35.041  26.508  12.535
34747W        W98691  18.107  27.524   2.774
34748W        W98692  11.175  15.786  10.955
34749W        W98693  42.334   7.339   2.392
34750W        W98694  10.336  31.601   0.400
34751W        W98695  15.268  32.053   2.415
34752W        W98696  28.123  12.194   0.855
34753W        W98697  42.973   1.428   1.355
34754W        W98698  25.969  40.861   4.664
34755W        W98699  22.676  33.129  13.509
34756W        W98700  18.735  32.413  13.381
34757W        W98701   5.273  22.208  14.885
34758W        W98702  32.054   4.827  10.897
34759W        W98703  44.977  21.153   9.990
34760W        W98704  21.100  23.199   0.328
34761W        W98705  17.185   8.197   2.730
34762W        W98706   0.461   1.753  13.352
34763W        W98707  44.811  17.176   2.229
34764W        W98708  27.979  13.235  12.572
34765W        W98709   1.437  34.004   3.194
34766W        W98710  39.909  11.154   3.802
34767W        W98711  33.922  13.342   2.250
34768W        W98712  11.354  41.360  11.980
34769W        W98713   9.781  17.171  11.547
34770W        W98714  13.623  14.272   3.854
34771W        W98715  43.997  37.521   4.807
34772W        W98716  12.742  32.526   4.621
34773W        W98717  24.204   8.800   1.267
34774W        W98718   3.338  21.647  12.943
34775W        W98719   5.774  13.181   0.267
34776W        W98720  17.241  30.113   3.642
34777W        W98721  28.125  27.647  10.492
34778W        W98722  22.111  13.164  12.576
34779W        W98723   9.874  44.971  11.000
34780W        W98724  38.911   5.900   2.324
34781W        W98725   3.813  24.699  13.893
34782W        W98726  16.799   8.194  11.923
34783W        W98727   0.933   2.779  12.941
34784W        W98728  33.509  22.178   3.685
34785W        W98729  25.050  28.480   2.334
34786W        W98730  20.255  44.342  13.050
34787W        W98731   7.711  43.504   3.253
34788W        W98732  43.314   7.302   3.228
34789W        W98733  18.261  42.447  12.902
34790W        W98734  27.985  33.608   3.677
34791W        W98735  16.271  32.133  12.516
34792W        W98736  16.671  37.941   0.479
34793W        W98737  21.696  15.703   3.783
34794W        W98738  31.996   3.919  12.349
34795W        W98739  39.050  17.604   3.660
34796W        W98740   0.940  29.625  12.395
34797W        W98741  25.077  13.613  10.453
34798W        W98742   9.358  36.862   4.140
34799W        W98743  12.147  21.241  11.607
34800W        W98744   8.281  36.530  14.983
34801W        W98745  13.809  36.976  13.452
34802W        W98746  10.332  33.614  11.928
34803W        W98747  22.106  11.710  12.539
34804W        W98748  26.594  19.702  10.921
34805W        W98749   7.897  42.432  14.895
34806W        W98750   8.340  22.693  10.969
34807W        W98751  14.261  27.119  12.445
34808W        W98752  34.951  34.506   1.847
34809W        W98753  41.880  14.637  11.879
34810W        W98754  15.249  22.249  14.799
34811W        W98755   4.414  39.949  12.846
34812W        W98756  33.097  43.772  14.011
34813W        W98757   1.804  25.162   3.699
34814W        W98758  19.256   1.424  14.978
34815W        W98759  31.093  29.042  14.285
34816W        W98760  20.065  17.597   0.333
34817W        W98761  44.313  19.621  10.124
34818W        W98762  40.421   4.421   1.444
34819W        W98763   3.925   7.217  13.880
34820W        W98764   7.838  28.993   2.685
34821W        W98765  19.195  23.225  14.807
34822W        W98766  23.612   6.384  14.378
34823W        W98767  17.084  43.914  14.965
34824W        W98768   9.855  37.857   0.271
34825W        W98769  43.829  37.504   0.461
34826W        W98770  39.971  27.126  13.516
34827W        W98771  33.469  23.238   3.748
34828W        W98772  27.139  22.651  10.456
34829W        W98773  13.285  37.563  11.001
34830W        W98774   9.758  30.930  13.461
34831W        W98775  36.930  32.948   4.321
34832W        W98776  15.190  40.811   2.861
34833W        W98777  15.592  26.664   0.409
34834W        W98778  41.323  35.600   1.261
34835W        W98779  38.974  27.562   3.771
34836W        W98780  27.147   4.834   2.733
34837W        W98781  32.041  14.736   0.732
34838W        W98782   5.283  18.091   1.355
34839W        W98783  16.763  32.974  11.530
34840W        W98784  41.538  28.556   0.308
34841W        W98785  40.008  14.169   3.806
34842W        W98786  39.358  43.896  11.504
34843W        W98787  18.729  13.345  11.463
34844W        W98788  44.763  37.038  11.600
34845W        W98789   7.332  14.786   4.663
34846W        W98790  25.054  25.174  13.971
34847W        W98791  40.852  27.022  13.885
34848W        W98792  42.418  17.245  11.018
34849W        W98793  25.090   9.660  12.361
34850W        W98794  21.713  41.841   3.186
34851W        W98795  31.495  39.474   1.810
34852W        W98796  19.638   4.402  10.630
34853W        W98797  39.555   7.854  12.362
34854W        W98798   8.719  15.091   2.314
34855W        W98799   0.767  38.073  13.905
34856W        W98800  24.568  32.996  13.486
34857W        W98801  14.251  16.233  14.447
34858W        W98802  38.336  17.159   1.317
34859W        W98803  13.138  11.243   3.185
34860W        W98804   7.716  38.830  10.486
34861W        W98805  31.923  23.705   4.776
34862W        W98806  42.949  10.690   0.743
34863W        W98807  37.973  19.133  10.896
34864W        W98808  24.716  22.190  14.854
34865W        W98809  23.147  10.862  14.866
34866W        W98810  34.995  11.186   1.396
34867W        W98811  26.175   7.700   2.862
34868W        W98812  44.456  18.709  12.052
34869W        W98813  14.284  41.410  12.447
34870W        W98814  44.285  34.911   4.300
34871W        W98815  43.287  19.041   1.820
34872W        W98816  13.159  10.343  12.861
34873W        W98817   8.791  21.193   1.908
34874W        W98818  42.986  34.119  10.528
34875W        W98819  25.150  43.926   1.916
34876W        W98820   5.926  32.028   4.786
34877W        W98821  36.929  35.393   1.252
34878W        W98822  19.561  16.680  12.039
34879W        W98823  16.099  36.915  14.808
34880W        W98824  24.176  22.601   4.304
34881W        W98825  35.944  14.607  10.598
34882W        W98826   7.687  36.519   2.225
34883W        W98827  24.552  42.849   3.267
34884W        W98828  15.142  34.905  13.332
34885W        W98829   0.986  24.635  14.441
34886W        W98830   7.807  29.505  12.978
34887W        W98831  44.403  15.104  12.914
34888W        W98832  34.097  12.137  14.403
34889W        W98833  32.976  38.485  11.594
34890W        W98834   6.696   1.864  12.835
34891W        W98835  17.256  15.182   1.386
34892W        W98836  19.127  10.658  13.929
34893W        W98837  38.568  20.713   1.743
34894W        W98838   3.818  39.865   0.769
34895W        W98839   8.805  12.853  14.976
34896W        W98840   2.325  37.372   2.888
34897W        W98841  37.883  13.814  11.485
34898W        W98842   3.921  27.023  10.603
34899W        W98843  41.429   7.251  11.013
34900W        W98844   1.915  15.628   4.175
34901W        W98845   8.312   4.389  11.054
34902W        W98846   8.665   4.738  11.066
34903W        W98847  43.387  15.224  10.645
34904W        W98848  29.936   5.782   2.780
34905W        W98849   1.760  33.959  13.364
34906W        W98850  13.285  21.152  12.461
34907W        W98851  21.241  12.674  11.009
34908W        W98852  43.957  43.384  13.363
34909W        W98853   4.720  42.879   1.292
34910W        W98854   4.763  34.560  10.056
34911W        W98855  32.084  32.517   0.289
34912W        W98856  42.433  21.653   4.605
34913W        W98857  44.872  28.084   3.666
34914W        W98858  34.011   4.244   4.297
34915W        W98859   0.980  12.805  11.011
34916W        W98860  14.139  12.161   3.721
34917W        W98861  24.059  29.482  12.012
34918W        W98862  11.768  28.026  11.503
34919W        W98863  35.582   2.466  11.989
34920W        W98864  36.465   3.232  13.436
34921W        W98865  18.594  10.693   5.154
34922W        W98866  27.493   8.179   3.292
34923W        W98867  26.484  40.958   1.252
34924W        W98868   0.910  12.673   1.318
34925W        W98869  38.418  40.933   0.457
34926W        W98870  16.787  23.152   4.262
34927W        W98871  39.376   3.911  12.421
34928W        W98872  31.479   3.288   2.676
34929W        W98873  44.375  26.579   0.317
34930W        W98874  21.085  37.425  14.452
34931W        W98875  35.443  22.732  12.537
34932W        W98876  35.943  39.342   2.738
34933W        W98877  24.172  14.598  11.412
34934W        W98878   1.907  32.560   4.227
34935W        W98879  33.064  36.046  12.908
34936W        W98880  31.432   9.718   1.358
34937W        W98881  18.614  23.042  12.890
34938W        W98882  25.677   8.380  13.469
34939W        W98883  39.501  37.080  11.047
34940W        W98884  30.482   2.932  11.116
34941W        W98885   3.246  33.573  10.635
34942W        W98886  20.550  29.972   3.841
34943W        W98887  18.252  22.206   3.170
34944W        W98888   4.312  19.657  11.593
34945W        W98889  18.224  31.065   0.288
34946W        W98890  41.918   8.658   2.244
34947W        W98891   8.890  28.465  11.497
34948W        W98892   0.270   7.268  14.759
34949W        W98893  17.264  23.045  11.439
34950W        W98894  40.508  10.785   1.218
34951W        W98895  10.221   9.213  10.590
34952W        W98896  28.436  32.043  11.872
34953W        W98897   6.696   1.862   2.349
34954W        W98898  14.094   7.340  11.569
34955W        W98899  20.703  25.123   3.359
34956W        W98900  30.646  18.174   9.936
34957W        W98901  22.747  21.617  14.801
34958W        W98902  37.388  31.115   0.261
34959W        W98903  10.190  28.111  12.851
34960W        W98904  13.684  40.055  13.832
34961W        W98905  20.618  22.145   3.736
34962W        W98906  34.013   1.731  13.996
34963W        W98907   9.663   0.263  14.957
34964W        W98908  20.652   9.183  14.435
34965W        W98909   0.916  27.480   3.779
34966W        W98910  26.099  30.581   1.720
34967W        W98911  42.485   4.254   4.206
34968W        W98912  26.067  23.505  12.915
34969W        W98913  16.245  29.956   2.207
34970W        W98914  23.667  26.574  10.974
34971W        W98915   2.766  40.487   2.843
34972W        W98916  43.391   2.230   3.809
34973W        W98917  31.477   9.396   1.339
34974W        W98918  28.951  20.186   1.747
34975W        W98919  12.786  14.726  11.915
34976W        W98920  29.501  10.680   4.327
34977W        W98921   1.296  44.379   2.224
34978W        W98922  21.687   3.340  10.514
34979W        W98923  14.728  25.217  13.521
34980W        W98924   3.756  42.959   1.763
34981W        W98925   9.803  11.829   2.854
34982W        W98926  32.101  20.156   1.336
34983W        W98927  39.322  42.299   3.857
34984W        W98928   8.311  40.871  13.931
34985W        W98929  18.552  10.668  11.872
34986W        W98930  20.093  42.310   4.611
34987W        W98931   6.312  33.443  10.524
34988W        W98932  11.863  26.628  12.970
34989W        W98933   6.266   1.342   1.297
34990W        W98934  37.369   4.290   2.773
34991W        W98935  15.703  39.996   0.742
34992W        W98936  38.917  15.613   1.827
34993W        W98937  34.116  15.291  10.927
34994W        W98938  29.597  35.364   3.215
34995W        W98939  31.115   7.302   5.090
34996W        W98940  25.087  15.112   1.919
34997W        W98941  31.121  36.568  14.953
34998W        W98942  28.102  29.031   1.353
34999W        W98943  22.584  19.075   3.826
35000W        W98944  42.790  34.564  10.105
35001W        W98945  33.018  38.439   3.341
35002W        W98946  40.016   5.892  13.828
35003W        W98947  42.515  33.598  13.010
35004W        W98948   3.392  22.630   4.288
35005W        W98949  24.553  12.748  10.604
35006W        W98950  35.381  43.797  12.391
35007W        W98951   3.424  14.651   0.915
35008W        W98952  13.714   7.255   2.774
35009W        W98953   3.888   1.878   3.769
35010W        W98954  28.616  44.463   2.220
35011W        W98955  16.268   4.856  14.955
35012W        W98956  13.225  22.157  12.926
35013W        W98957  21.105  22.132   1.777
35014W        W98958  16.218  28.957  12.884
35015W        W98959  25.992  21.681  12.495
35016W        W98960  29.544  22.112   3.679
35017W        W98961  27.089  25.626  14.457
35018W        W98962  14.132  19.207  10.528
35019W        W98963   9.671   7.725  11.936
35020W        W98964  27.607  25.467   3.717
35021W        W98965  28.116  19.145   1.863
35022W        W98966   0.820  31.125   3.347
35023W        W98967  27.115  39.472  10.637
35024W        W98968  27.039  27.068  11.575
35025W        W98969   1.780  25.592   1.285
35026W        W98970  35.988  28.560   4.307
35027W        W98971  19.159  25.998  10.053
35028W        W98972  29.480  27.554   4.149
35029W        W98973  29.456  37.489  12.532
35030W        W98974   9.703  22.704  14.927
35031W        W98975  28.437  36.419  11.071
35032W        W98976  35.079  10.325  13.315
35033W        W98977  15.751  13.303   1.915
35034W        W98978  26.484  28.680   2.294
35035W        W98979  21.050  39.415  14.277
35036W        W98980  29.594   7.231  13.391
35037W        W98981  15.171  42.846  12.004
35038W        W98982  32.592  23.118   3.746
35039W        W98983  12.239  13.768   2.783
35040W        W98984  37.941   6.703  13.448
35041W        W98985  19.742  43.422  10.551
35042W        W98986  42.001   1.462  11.966
35043W        W98987  17.677  22.043  12.977
35044W        W98988  31.112  44.319  11.597
35045W        W98989  37.372  39.528  13.023
35046W        W98990  36.869  20.581  13.412
35047W        W98991   0.444  39.997  12.018
35048W        W98992  30.459  22.999   2.226
35049W        W98993   3.439   9.153  14.428
35050W        W98994  17.140  26.006  13.001
35051W        W98995  42.987  14.686  10.510
35052W        W98996  20.184  11.629  12.997
35053W        W98997  11.646  41.831  10.888
35054W        W98998  14.823   9.375  10.898
35055W        W98999  27.599  41.465  10.048
35056W        W99000  25.100  30.435   2.322
35057W        W99001   5.361   5.301   2.237
35058W        W99002  21.028  15.787  14.969
35059W        W99003  36.987  25.003   3.730
35060W        W99004  22.020  19.101   2.892
35061W        W99005  15.807  12.842  13.547
35062W        W99006  16.580  41.894   1.764
35063W        W99007  15.761  17.214   0.822
35064W        W99008  41.963  24.497   3.245
35065W        W99009  28.466  25.581   1.326
35066W        W99010  11.248  11.128   1.296
35067W        W99011  35.498  44.274  13.368
35068W        W99012  14.230  26.539   2.863
35069W        W99013   5.231  34.580  10.961
35070W        W99014  43.775  25.487  14.431
35071W        W99015  39.832  38.463   0.857
35072W        W99016  13.132  27.141   3.336
35073W        W99017  14.227  12.692   1.230
35074W        W99018  40.990  24.628   3.870
35075W        W99019  23.181  39.846   2.315
35076W        W99020  26.615  34.958  14.499
35077W        W99021   4.906   3.392  13.026
35078W        W99022  27.956  39.365  11.108
35079W        W99023   3.943  30.593   1.221
35080W        W99024  29.023   7.912  14.280
35081W        W99025   8.860  17.596   4.355
35082W        W99026  26.056  34.415   2.737
35083W        W99027  24.668  28.450  11.575
35084W        W99028  29.123  44.896   2.729
35085W        W99029  34.086  41.813  12.386
35086W        W99030  33.067  17.084  10.608
35087W        W99031  20.700  34.110   3.172
35088W        W99032   8.737  41.516  13.433
35089W        W99033  30.090  28.038  14.867
35090W        W99034   8.376  35.938   3.387
35091W        W99035  33.558  35.592   4.352
35092W        W99036   7.361   9.333  13.809
35093W        W99037  22.184  24.722   3.204
35094W        W99038  14.104  43.799  10.919
35095W        W99039   4.286  27.680   4.342
35096W        W99040  12.626  22.067  12.974
35097W        W99041  35.984  42.331   2.732
35098W        W99042   2.227  12.725  12.002
35099W        W99043   1.828   8.859  13.908
35100W        W99044  26.629  36.565  11.958
35101W        W99045  28.619  30.631  12.429
35102W        W99046   2.245  14.305  12.941
35103W        W99047  22.642  15.772   0.413
35104W        W99048  34.998  15.310  10.471
35105W        W99049  39.433  44.767   4.135
35106W        W99050  28.574   4.725   4.727
35107W        W99051   7.703  22.502   0.277
35108W        W99052   5.857  35.891   2.333
35109W        W99053  37.538  23.236   1.377
35110W        W99054  17.263  37.396  14.415
35111W        W99055  27.483  32.092   4.115
35112W        W99056  24.021  35.465   1.265
35113W        W99057  22.218   3.862  12.998
35114W        W99058  19.537  30.991  12.982
35115W        W99059  39.956   0.881   2.793
35116W        W99060  28.041  33.460  10.159
35117W        W99061   7.685  16.128   0.262
35118W        W99062  25.499  24.080  14.838
35119W        W99063  31.140  35.926  13.866
35120W        W99064  34.405  11.332  12.830
35121W        W99065  15.148  21.223   2.832
35122W        W99066  34.997  30.047   3.659
35123W        W99067  27.579  28.573   2.385
35124W        W99068   2.788  21.580  10.628
35125W        W99069   1.838  33.033   0.253
35126W        W99070   5.794  37.550  11.527
35127W        W99071  12.264  23.637   3.847
35128W        W99072  10.248  19.736   4.185
35129W        W99073  12.184  21.205   9.979
35130W        W99074  31.906  13.639   3.672
35131W        W99075  37.872  23.211  13.883
35132W        W99076   0.426  25.188  13.802
35133W        W99077  22.533  20.634  13.064
35134W        W99078   8.821  23.624  11.446
35135W        W99079   8.213  44.786   2.411
35136W        W99080   4.335  22.642   0.773
35137W        W99081  10.699  26.202  14.356
35138W        W99082  22.162  36.413   4.268
35139W        W99083  37.910  10.239   3.868
35140W        W99084  28.444  28.118   3.749
35141W        W99085  19.062  14.306  11.984
35142W        W99086  37.052   5.304  12.868
35143W        W99087  16.758  32.098  13.491
35144W        W99088  10.167  16.080  14.403
35145W        W99089  12.841  29.163   2.388
35146W        W99090  42.451  24.507  14.875
35147W        W99091  18.610  12.766   1.755
35148W        W99092  16.598  26.158  12.920
35149W        W99093   4.890  27.680   2.213
35150W        W99094  24.973  10.215  13.900
35151W        W99095  11.243  27.164   2.418
35152W        W99096  37.380   8.297   0.402
35153W        W99097  41.907   8.697   4.642
35154W        W99098  32.601  30.958   3.843
35155W        W99099  28.051  29.624   2.237
35156W        W99100  41.522  37.581  10.454
35157W        W99101  25.082  22.661  10.954
35158W        W99102  31.942  22.026   0.339
35159W        W99103  29.648   7.366  13.051
35160W        W99104  34.037  25.644   0.774
35161W        W99105   0.950   0.355  12.551
35162W        W99106  14.217  34.950  11.086
35163W        W99107  40.373   1.397  10.417
35164W        W99108   9.370  13.776   3.271
35165W        W99109   9.177  25.591   3.663
35166W        W99110  30.547  13.745   3.827
35167W        W99111  24.101  15.761   9.990
35168W        W99112  34.992  31.474  14.412
35169W        W99113   1.296  43.973  10.458
35170W        W99114  21.526   3.835   4.738
35171W        W99115   2.373   6.769  11.468
35172W        W99116  23.512  33.457   0.458
35173W        W99117   0.433  17.197   4.601
35174W        W99118   7.263  37.536  12.383
35175W        W99119   7.897  10.689   1.885
35176W        W99120  30.605  27.499   1.323
35177W        W99121  42.847  42.818  10.526
35178W        W99122  25.563  28.062  13.035
35179W        W99123  13.241   7.277  10.594
35180W        W99124  21.050  15.716  10.468
35181W        W99125  23.024  20.076  13.037
35182W        W99126  29.500  12.806   0.837
35183W        W99127  10.644  25.659  14.984
35184W        W99128  23.137  23.600   0.444
35185W        W99129  33.062  17.077  13.828
35186W        W99130  20.169   3.772   3.180
35187W        W99131  28.060  12.267  14.869
35188W        W99132  31.006   9.217   3.704
35189W        W99133  43.428  18.088   0.432
35190W        W99134  43.507  26.491  10.512
35191W        W99135  13.617  12.811   3.371
35192W        W99136   2.901  24.032  12.445
35193W        W99137  20.036  38.004   2.319
35194W        W99138   8.685  35.944   0.882
35195W        W99139  34.007  32.500   4.651
35196W        W99140  13.609  31.530  13.900
35197W        W99141   0.951   5.930   2.397
35198W        W99142  28.108  15.627   3.205
35199W        W99143  14.167  22.180   1.426
35200W        W99144  44.925  40.526  13.046
35201W        W99145  24.696  24.550  13.432
35202W        W99146  14.186  44.415   2.706
35203W        W99147  23.070   9.314  10.958
35204W        W99148   1.961   1.854   0.957
35205W        W99149  22.150   1.388  12.400
35206W        W99150  30.949  33.039  11.461
35207W        W99151   6.420  28.144   1.703
35208W        W99152  39.970  15.146   3.232
35209W        W99153   5.840  20.623   4.270
35210W        W99154  27.527  23.597   1.295
35211W        W99155  21.262   3.726   1.849
35212W        W99156  27.494   8.214  11.088
35213W        W99157  11.134   2.926  13.453
35214W        W99158  44.999  12.845   4.314
35215W        W99159  12.341   1.287   2.702
35216W        W99160  31.510  39.842  13.978
35217W        W99161  34.385  15.774  13.483
35218W        W99162  31.915   8.857  11.522
35219W        W99163  21.661  44.482  10.990
35220W        W99164  41.845   7.846   1.262
35221W        W99165   4.918  16.093   1.362
35222W        W99166   4.407  40.433   1.759
35223W        W99167  27.950   9.704   0.752
35224W        W99168  13.754   9.663   4.175
35225W        W99169  25.573  41.866  11.058
35226W        W99170  31.529  12.122  13.932
35227W        W99171  40.933  36.434   2.822
35228W        W99172  12.315  26.099  12.935
35229W        W99173   7.671  33.026  14.494
35230W        W99174  15.106  12.326   0.357
35231W        W99175  20.750  25.585  14.911
35232W        W99176  11.684  23.110  14.785
35233W        W99177  20.761   9.361   4.328
35234W        W99178  15.681  19.220  11.969
35235W        W99179  19.153  27.108  14.356
35236W        W99180   2.430  23.162   1.326
35237W        W99181   8.735  37.462  11.407
35238W        W99182  28.992  33.473  12.081
35239W        W99183  12.255  41.788   0.746
35240W        W99184  29.107  25.469  14.298
35241W        W99185   8.320  21.210   1.320
35242W        W99186  32.097  42.311  11.544
35243W        W99187  12.810   2.325   3.316
35244W        W99188  42.435  20.648  13.401
35245W        W99189  28.569  17.202   0.383
35246W        W99190   6.254   3.910  14.954
35247W        W99191  19.663  18.276   1.361
35248W        W99192  13.172  18.098   0.462
35249W        W99193  25.688  31.578   0.473
35250W        W99194  27.036  25.219  10.494
35251W        W99195   2.938  33.969   2.703
35252W        W99196  13.775  22.711  12.952
35253W        W99197  30.921   6.414   3.156
35254W        W99198   5.261  34.117  12.511
35255W        W99199  18.269  34.117   0.335
35256W        W99200  26.679  37.373   3.869
35257W        W99201  18.756   2.374   2.316
35258W        W99202  28.566  39.817  12.478
35259W        W99203  11.808  27.975   1.406
35260W        W99204  44.828  21.168   5.174
35261W        W99205  21.585  21.037   3.333
35262W        W99206  13.694  13.135  12.472
35263W        W99207  11.338  23.570   3.856
35264W        W99208  22.516  30.952  13.441
35265W        W99209  21.758  40.872   0.336
35266W        W99210  32.142  31.128  10.440
35267W        W99211  39.052   7.189  13.828
35268W        W99212  23.132   6.837  10.549
35269W        W99213   0.351  31.476   0.899
35270W        W99214  14.821  12.256  13.391
35271W        W99215  35.460  15.716  12.963
35272W        W99216  44.281  42.906   2.767
35273W        W99217  38.464  44.760  11.049
35274W        W99218  39.512  33.541   3.805
35275W        W99219  43.948   6.220  13.983
35276W        W99220  29.099  28.565  11.464
35277W        W99221  10.197  42.512   3.160
35278W        W99222  26.564  11.311  12.386
35279W        W99223  40.044  21.557  14.847
35280W        W99224   4.867  19.573  13.495
35281W        W99225  29.556   1.806  14.506
35282W        W99226  35.005   1.360  10.642
35283W        W99227   9.746  21.639   3.653
35284W        W99228  29.527  24.060   1.810
35285W        W99229  24.135  12.765  11.951
35286W        W99230  44.815  44.951  13.473
35287W        W99231  42.383  35.885   0.413
35288W        W99232  15.319  34.374   3.272
35289W        W99233  31.405  23.576  10.423
35290W        W99234  43.995  40.896  10.995
35291W        W99235  19.279  32.000  14.893
35292W        W99236   6.231  31.535  14.815
35293W        W99237   5.346  37.925  13.408
35294W        W99238  36.494   2.365  12.451
35295W        W99239  22.681  20.176  10.471
35296W        W99240  27.648  25.508   2.760
35297W        W99241  32.118  23.172   2.336
35298W        W99242  44.919  13.305  10.628
35299W        W99243  14.131  27.596   0.428
35300W        W99244  30.909   3.929   0.783
35301W        W99245  17.132  44.357   1.277
35302W        W99246   7.184  28.050   2.818
35303W        W99247   8.191  35.502   3.853
35304W        W99248  40.341  32.534  13.906
35305W        W99249  19.240  32.130  12.074
35306W        W99250  19.050  17.635   4.661
35307W        W99251  16.275   2.813  13.948
35308W        W99252  10.637  14.193   3.276
35309W        W99253   8.657  34.022  12.828
35310W        W99254  24.210  17.233  11.532
35311W        W99255  10.696  24.479  14.493
35312W        W99256  42.013  12.236  11.472
35313W        W99257   8.302  17.790   3.854
35314W        W99258   9.251  21.729  12.368
35315W        W99259   8.359  28.097   1.376
35316W        W99260  28.959  41.938   2.723
35317W        W99261  26.569  43.477  14.310
35318W        W99262  27.058  27.977  12.509
35319W        W99263   4.717  35.021   3.180
35320W        W99264  35.586  22.592   1.780
35321W        W99265  27.585  15.214  14.012
35322W        W99266  43.350  15.779   2.753
35323W        W99267  20.189  24.514  11.541
35324W        W99268   1.773  11.370  13.991
35325W        W99269  33.101  29.159  14.007
35326W        W99270  13.235  26.464  12.345
35327W        W99271  19.674   9.848  11.021
35328W        W99272  29.173  37.527  14.890
35329W        W99273  26.048   0.362  12.531
35330W        W99274  11.347  35.099  11.999
35331W        W99275   3.377  32.612   0.793
35332W        W99276   5.330   3.757  11.395
35333W        W99277  23.526  16.646   2.387
35334W        W99278  44.767  22.116  14.464
35335W        W99279  39.547  14.173   4.156
35336W        W99280  42.335  16.212  11.497
35337W        W99281  37.543  21.118   2.374
35338W        W99282  32.981  12.770  13.933
35339W        W99283  18.547  32.971  13.035
35340W        W99284  32.451  14.234  13.342
35341W        W99285  23.065  41.311   2.340
35342W        W99286  17.211   7.199   3.370
35343W        W99287   9.807  22.528   3.306
35344W        W99288  42.452   0.742  13.944
35345W        W99289  41.953   1.435  10.486
35346W        W99290  36.066  11.741  12.560
35347W        W99291  38.433   5.879  14.325
35348W        W99292  35.483  25.132  11.099
35349W        W99293  24.003  11.679   0.418
35350W        W99294   8.864  18.580   0.348
35351W        W99295  42.883  41.966   1.843
35352W        W99296  10.639  25.483  10.443
35353W        W99297  22.159  43.367   3.308
35354W        W99298  17.299  32.054  10.071
35355W        W99299  17.571   0.265   1.288
35356W        W99300  43.974  12.322  10.549
35357W        W99301  10.711  37.067   0.800
35358W        W99302  12.205  26.135   0.913
35359W        W99303  37.552  31.028   1.743
35360W        W99304   3.916   4.799   0.843
35361W        W99305  35.938   4.923  10.924
35362W        W99306  43.307  20.145  11.456
35363W        W99307   5.201  15.640  13.536
35364W        W99308  32.085  17.198   1.450
35365W        W99309  37.342  41.426   1.312
35366W        W99310  27.167  39.462  13.970
35367W        W99311  11.647  14.776  11.091
35368W        W99312  39.843   1.865   4.165
35369W        W99313  33.084  36.543  11.459
35370W        W99314  21.190  41.326   0.459
35371W        W99315  18.569  19.760  14.835
35372W        W99316  15.307  43.980  14.012
35373W        W99317  39.919  32.943   2.708
35374W        W99318   4.272  42.800   2.695
35375W        W99319  24.090   1.334   0.413
35376W        W99320   0.306   7.276  13.447
35377W        W99321  42.929   1.883   3.823
35378W        W99322  38.416  28.980  13.381
35379W        W99323   7.701  39.953  13.512
35380W        W99324  24.042  42.932  13.983
35381W        W99325  37.876   9.669  14.827
35382W        W99326   6.194  34.871  14.422
35383W        W99327   0.466   9.246   4.622
35384W        W99328  38.056  31.497  14.851
35385W        W99329  12.121  13.231   2.855
35386W        W99330  11.837  37.357  11.950
35387W        W99331  32.068  27.069  12.967
35388W        W99332  40.972  31.495   3.655
35389W        W99333  44.425  44.811   3.737
35390W        W99334  21.156  27.461   0.835
35391W        W99335  27.564  13.199   4.773
35392W        W99336   9.838   1.311   3.745
35393W        W99337  32.568  32.938  13.042
35394W        W99338   4.302  33.049  13.812
35395W        W99339   1.902   7.893  12.504
35396W        W99340   3.930   9.238  12.990
35397W        W99341   9.696   0.825  10.616
35398W        W99342   6.686  23.692   1.237
35399W        W99343  40.021  30.128   4.225
35400W        W99344  24.500  10.806   1.312
35401W        W99345  34.549   7.231   2.252
35402W        W99346  21.716  24.544   0.817
35403W        W99347   5.419  20.563  11.090
35404W        W99348   8.655  12.271   4.647
35405W        W99349  33.477  16.776   0.778
35406W        W99350  31.592  15.210   0.934
35407W        W99351  15.765  33.064  14.411
35408W        W99352  39.329   1.921  10.555
35409W        W99353  26.095  38.831  13.527
35410W        W99354   8.702  11.845   2.752
35411W        W99355  30.434  13.797  12.880
35412W        W99356   3.817  38.830   4.331
35413W        W99357  29.645  40.308  11.089
35414W        W99358   2.966   3.429  13.518
35415W        W99359   3.451  12.846   0.898
35416W        W99360   1.359  16.687  12.949
35417W        W99361  24.678  30.608  13.404
35418W        W99362  35.976  37.385   3.832
35419W        W99363  21.731  13.601   1.888
35420W        W99364  43.773   4.404   1.326
35421W        W99365  30.609  42.359   0.755
35422W        W99366  33.387   4.304   1.745
35423W        W99367  28.628  40.358   3.341
35424W        W99368  20.668   7.855   2.680
35425W        W99369  16.202   8.390  14.919
35426W        W99370  25.042  26.499  13.841
35427W        W99371  42.818   7.352  11.458
35428W        W99372   6.426  38.046  14.915
35429W        W99373  40.412  16.658   3.310
35430W        W99374   9.748  33.467   0.440
35431W        W99375  32.556  43.378  13.915
35432W        W99376   0.779  25.133   0.267
35433W        W99377  19.168   5.406  10.440
35434W        W99378  44.444  29.478  10.029
35435W        W99379  10.718  25.156  12.976
35436W        W99380   7.221  16.083  13.412
35437W        W99381  14.281   8.846   2.284
35438W        W99382  44.482   8.875   0.760
35439W        W99383  43.004  25.055  13.529
35440W        W99384   5.298  10.192   4.675
35441W        W99385  40.986  25.192   2.809
35442W        W99386  16.741   3.258   2.235
35443W        W99387  43.319   3.260   3.273
35444W        W99388  15.111  19.265   1.318
35445W        W99389  27.017  34.039  11.429
35446W        W99390  33.117  37.067   0.295
35447W        W99391  14.729  35.873  13.422
35448W        W99392  34.055  26.024  14.021
35449W        W99393  18.139  33.001  13.934
35450W        W99394   6.769  27.987  12.357
35451W        W99395   9.781  13.163   1.437
35452W        W99396  24.610   5.339   1.864
35453W        W99397  38.424   0.438   0.808
35454W        W99398  42.499  31.045   3.777
35455W        W99399  36.423  28.946   2.669
35456W        W99400  30.033  10.264   3.383
35457W        W99401  42.943  30.151   0.475
35458W        W99402  33.497  34.416   3.686
35459W        W99403  35.586  38.942  12.559
35460W        W99404  25.027  38.357   4.203
35461W        W99405  16.231  17.762  13.950
35462W        W99406  32.081   5.790  11.493
35463W        W99407  44.967   0.902   3.217
35464W        W99408  31.906  17.139   1.706
35465W        W99409  35.457   0.305   2.857
35466W        W99410  15.757   6.212  11.991
35467W        W99411  29.026   4.747   3.228
35468W        W99412  11.635  15.166  12.436
35469W        W99413  34.606  12.156  12.427
35470W        W99414  40.372  31.510   1.886
35471W        W99415  20.116   3.789  13.894
35472W        W99416  15.662  24.119  14.295
35473W        W99417   4.358  42.441   4.243
35474W        W99418   6.800  10.873  14.886
35475W        W99419  14.652   7.387   1.918
35476W        W99420  30.975  36.076   0.414
35477W        W99421  40.833  15.726   3.190
35478W        W99422  36.072  12.332  14.483
35479W        W99423  21.730  24.219   3.698
35480W        W99424  30.647  12.309  11.063
35481W        W99425   6.192  40.022  13.014
35482W        W99426  40.341  41.883  10.961
35483W        W99427  26.633  26.499   9.943
35484W        W99428  10.248   4.294  12.372
35485W        W99429   5.829   4.324  13.315
35486W        W99430   9.309  15.269  10.946
35487W        W99431  42.000  22.115  12.879
35488W        W99432  27.184  30.046  12.032
35489W        W99433  31.058  30.540   1.784
35490W        W99434  33.965  34.450   3.660
35491W        W99435   7.227  41.841  11.095
35492W        W99436  38.821   7.772   9.659
35493W        W99437  34.576  32.611  14.861
35494W        W99438   7.714  37.498   2.868
35495W        W99439  26.629  12.346   1.695
35496W        W99440   9.311  21.249   2.875
35497W        W99441  22.628  11.134  10.158
35498W        W99442  19.236  28.554  13.997
35499W        W99443  32.090  39.922   3.742
35500W        W99444   6.279   2.334   4.697
35501W        W99445  35.944  18.130  10.552
35502W        W99446  16.270  11.783  11.980
35503W        W99447   0.363   3.787   0.957
35504W        W99448   6.305  10.140   2.418
35505W        W99449  44.949  41.522  10.979
35506W        W99450  26.605  30.981  10.470
35507W        W99451  14.804  20.699   0.783
35508W        W99452  44.822   8.828   3.683
35509W        W99453  44.420  18.617  12.883
35510W        W99454  29.645  41.478   1.698
35511W        W99455  21.065  37.360   0.806
35512W        W99456  36.500  30.514  11.076
35513W        W99457  43.968   4.309  13.450
35514W        W99458  11.353  41.449   4.674
35515W        W99459  44.880  21.032  13.883
35516W        W99460  32.020  19.197   3.308
35517W        W99461  17.774  15.293   2.220
35518W        W99462  30.988  10.699  14.405
35519W        W99463  16.774  40.963  11.033
35520W        W99464  26.654   5.296  13.379
35521W        W99465   9.879  12.764  12.453
35522W        W99466  38.541  41.349  11.082
35523W        W99467   6.240   2.966   1.219
35524W        W99468  36.939  12.651   0.850
35525W        W99469  39.333  28.169   1.249
35526W        W99470  43.813  38.962   2.793
35527W        W99471  24.089  28.630   0.463
35528W        W99472  30.495  34.866   1.445
35529W        W99473  15.261  31.999   3.692
35530W        W99474   3.309  32.961  14.787
35531W        W99475   0.449  23.734  12.479
35532W        W99476  40.871  36.995  14.483
35533W        W99477  37.427  25.509  11.983
35534W        W99478  24.521  16.167   3.319
35535W        W99479   1.328  11.355   2.279
35536W        W99480  30.052  33.969  11.421
35537W        W99481  42.496  34.924  14.979
35538W        W99482  16.791  44.268  12.079
35539W        W99483  27.638  24.114   3.248
35540W        W99484  22.632  16.734   3.326
35541W        W99485  31.148  17.282   3.633
35542W        W99486  16.601  28.958  13.954
35543W        W99487  16.568  33.535  12.022
35544W        W99488  39.526  38.002   0.740
35545W        W99489  43.770  11.298   0.414
35546W        W99490   8.674   1.749   2.264
35547W        W99491  22.221  22.116  13.026
35548W        W99492  20.089  31.551   4.764
35549W        W99493   0.972  16.306   4.707
35550W        W99494  14.823   9.798   2.899
35551W        W99495  42.300  39.471   4.212
35552W        W99496  32.532  42.297   1.799
35553W        W99497  24.625  38.965   1.256
35554W        W99498   3.882  43.438   1.776
35555W        W99499  21.568  43.829  11.566
35556W        W99500  21.132  10.275   0.474
35557W        W99501   2.898  25.119   2.179
35558W        W99502  21.570   1.783  13.797
35559W        W99503   3.245  31.104   0.919
35560W        W99504  37.945   5.883  14.877
35561W        W99505  36.889   9.343  12.386
35562W        W99506  38.044   0.971   0.279
35563W        W99507  33.911  11.336   0.833
35564W        W99508  33.044  13.264  13.918
35565W        W99509  16.185   4.281   2.307
35566W        W99510  32.016   6.921   1.392
35567W        W99511  26.623  17.796   4.754
35568W        W99512   9.712  38.543   0.462
35569W        W99513  40.374  39.354   0.785
35570W        W99514  33.412  29.069   1.416
35571W        W99515  10.141  30.490   3.772
35572W        W99516   8.165  12.239  10.567
35573W        W99517  13.326  36.371   1.861
35574W        W99518  23.580   3.403   4.620
35575W        W99519   0.756   6.795  12.945
35576W        W99520  34.049   0.933  10.429
35577W        W99521  22.149   5.245   0.453
35578W        W99522  22.057  18.251   0.790
35579W        W99523  35.591   2.873  10.637
35580W        W99524  28.033   1.289  11.486
35581W        W99525  35.076   8.784   1.874
35582W        W99526  35.378  14.214   3.227
35583W        W99527  16.318  27.028   2.277
35584W        W99528  37.872  40.977  13.922
35585W        W99529  12.141   4.771  13.039
35586W        W99530  40.314  38.887  13.330
35587W        W99531   8.785  33.003   3.795
35588W        W99532  11.148  34.068  14.866
35589W        W99533  31.415  30.431  12.993
35590W        W99534  13.809   8.740   2.708
35591W        W99535  24.087  10.705   1.708
35592W        W99536   4.828  30.063  10.494
35593W        W99537  13.169  42.315  13.497
35594W        W99538  11.750  16.109  11.937
35595W        W99539  39.918  19.623  14.762
35596W        W99540  41.518  44.482  14.814
35597W        W99541  16.108  13.334  11.939
35598W        W99542  40.358  16.757  11.036
35599W        W99543  28.940   1.299   2.683
35600W        W99544  21.639  24.543   3.239
35601W        W99545  38.883   3.743  14.493
35602W        W99546  13.265  27.535   2.197
35603W        W99547  34.448  20.085   1.384
35604W        W99548  23.636  19.284   0.357
35605W        W99549  38.912  39.504   1.259
35606W        W99550  13.341  10.296   4.237
35607W        W99551  25.116   6.239  14.816
35608W        W99552  32.444  16.591   1.265
35609W        W99553  22.544  15.229  12.010
35610W        W99554  14.323  34.033  12.510
35611W        W99555  15.768  20.265   3.224
35612W        W99556   0.492  43.330   0.782
35613W        W99557  39.862  25.509   3.373
35614W        W99558   4.734  21.667  11.073
35615W        W99559  17.165   5.302   2.676
35616W        W99560  11.216  11.235   2.339
35617W        W99561  24.620  44.389  11.004
35618W        W99562  44.775  26.991   0.368
35619W        W99563   9.241  31.519   4.128
35620W        W99564  23.615  33.488  14.882
35621W        W99565  26.164  23.229  14.454
35622W        W99566  41.929  20.768  13.339
35623W        W99567  41.919   9.389  14.943
35624W        W99568   1.854  20.138   4.623
35625W        W99569  39.398  25.005  13.036
35626W        W99570   1.763  16.768  14.847
35627W        W99571  16.570   9.304   5.135
35628W        W99572  40.520  32.470   1.883
35629W        W99573  22.035   2.329  14.395
35630W        W99574  12.124  14.608   4.213
35631W        W99575  19.188   3.728  12.485
35632W        W99576  36.867  32.014   3.738
35633W        W99577   3.249  29.007   3.680
35634W        W99578  39.320  27.012  12.354
35635W        W99579   1.967   7.891  10.137
35636W        W99580  39.313  13.186   2.262
35637W        W99581  15.683  27.967  14.514
35638W        W99582  12.121   5.792  13.989
35639W        W99583  22.086  12.845   2.255
35640W        W99584  26.050  44.474   1.389
35641W        W99585  18.077  20.540  10.593
35642W        W99586  20.064  21.632  11.015
35643W        W99587  44.847  15.202  13.867
35644W        W99588   4.392  31.926   1.413
35645W        W99589  38.929   9.757   3.157
35646W        W99590  42.984  15.141  11.103
35647W        W99591   8.870  29.965  12.875
35648W        W99592   7.218  23.672   4.787
35649W        W99593   0.474   8.187  11.905
35650W        W99594  19.649  38.856  11.445
35651W        W99595   6.221  22.721   1.809
35652W        W99596  16.076  44.275  12.945
35653W        W99597   4.765  27.538  11.436
35654W        W99598  44.818  13.667   2.880
35655W        W99599  43.404   1.794  11.414
35656W        W99600  37.541  43.372   2.797
35657W        W99601  23.722   7.774  12.036
35658W        W99602  17.736  18.770  13.063
35659W        W99603   0.297  23.556   0.740
35660W        W99604  43.318   5.397  11.020
35661W        W99605   3.806  35.575   1.835
35662W        W99606  30.947  13.732  10.454
35663W        W99607  18.584  28.512  14.920
35664W        W99608   6.242  30.579   0.904
35665W        W99609  36.998  22.515  10.640
35666W        W99610  15.593  18.080  14.478
35667W        W99611  28.657   1.263   4.326
35668W        W99612   1.467   1.779   1.235
35669W        W99613  32.567  15.722  11.098
35670W        W99614  33.476   1.739   2.902
35671W        W99615  38.504  11.771   0.962
35672W        W99616  16.767  34.557   0.328
35673W        W99617  35.537  17.662  11.980
35674W        W99618  17.739  11.662   4.267
35675W        W99619  25.503  42.878   4.309
35676W        W99620  25.088  30.519  12.403
35677W        W99621  10.770  33.951   3.664
35678W        W99622  27.102  39.907  13.400
35679W        W99623  10.351  20.550  12.495
35680W        W99624  26.009  17.559  12.858
35681W        W99625   4.848  17.722   2.668
35682W        W99626  24.074  14.228   1.699
35683W        W99627  18.622  11.267  13.920
35684W        W99628   4.400  15.322  12.512
35685W        W99629   1.351  39.060  13.340
35686W        W99630  15.790  36.037   1.282
35687W        W99631  33.005  28.547  11.946
35688W        W99632  38.483   4.720   3.174
35689W        W99633  29.569  29.148   2.268
35690W        W99634  29.984   1.322  14.983
35691W        W99635  33.386  41.891  11.408
35692W        W99636  36.391  18.639   4.180
35693W        W99637  31.493  29.537  14.913
35694W        W99638  32.081  36.911  13.984
35695W        W99639  17.686  24.658  11.883
35696W        W99640  44.465  16.318   3.730
35697W        W99641  43.365   1.242  11.041
35698W        W99642  25.966  29.071   2.785
35699W        W99643  38.527   7.247  10.506
35700W        W99644  37.932   6.736  11.488
35701W        W99645  30.558  18.681   1.339
35702W        W99646  15.154   8.777   2.376
35703W        W99647  15.726  42.407  12.493
35704W        W99648  17.686   6.419   3.650
35705W        W99649   1.968  11.179   0.887
35706W        W99650  31.968  13.156  12.379
35707W        W99651   6.311  11.760  13.958
35708W        W99652  42.887  28.174  13.338
35709W        W99653   3.241  14.804  13.819
35710W        W99654  37.983  38.443  10.531
35711W        W99655  38.372  35.546   3.257
35712W        W99656  39.463  43.287   1.319
35713W        W99657  44.828   7.817  12.961
35714W        W99658  41.850  44.495   9.986
35715W        W99659  24.017  39.548   3.380
35716W        W99660  40.492  34.113  13.443
35717W        W99661  37.514  13.328   2.338
35718W        W99662   7.882  43.938   0.937
35719W        W99663  35.955  10.376   0.393
35720W        W99664  37.522  27.033  10.950
35721W        W99665  22.012  44.911   0.457
35722W        W99666  23.669  41.336   1.287
35723W        W99667  16.221  36.348  10.151
35724W        W99668  12.175   4.412  13.377
35725W        W99669  31.573   5.411  12.908
35726W        W99670   9.354  25.702  12.883
35727W        W99671  44.862  32.956   3.239
35728W        W99672  23.693  34.608  13.493
35729W        W99673  27.574  16.286  11.943
35730W        W99674   3.352  39.918   3.245
35731W        W99675  18.098  23.520  11.438
35732W        W99676  40.802  27.553   4.116
35733W        W99677  44.845  20.550  13.535
35734W        W99678  10.149  41.321  13.311
35735W        W99679  31.099  28.998  11.476
35736W        W99680  40.953  26.171   2.181
35737W        W99681   1.963  20.224  11.036
35738W        W99682  21.072   6.303   4.245
35739W        W99683  12.216  24.574   4.731
35740W        W99684  24.107  41.917   4.645
35741W        W99685   4.698   1.805   0.445
35742W        W99686  36.527  34.881  10.468
35743W        W99687  20.726  26.635  14.388
35744W        W99688  39.413   0.843   0.371
35745W        W99689   9.330  21.130  11.572
35746W        W99690   8.852   5.694  14.773
35747W        W99691   1.753  20.115  14.767
35748W        W99692   7.749  11.867  13.860
35749W        W99693  27.681  36.581   4.333
35750W        W99694  13.793  21.241  11.518
35751W        W99695  35.073  44.976  12.505
35752W        W99696  28.628  29.522  11.524
35753W        W99697  15.733  22.210  11.611
35754W        W99698  24.495  38.387   1.780
35755W        W99699  23.497  37.840  10.890
35756W        W99700  32.466   3.883   2.742
35757W        W99701  36.379  10.331   5.206
35758W        W99702  43.323  25.559  14.810
35759W        W99703  16.139  10.869  11.953
35760W        W99704  16.636  12.768  13.883
35761W        W99705  22.561  35.528   4.329
35762W        W99706  40.981   6.369   0.387
35763W        W99707   6.299  20.210   2.862
35764W        W99708   4.709  44.296   4.715
35765W        W99709   0.878  18.120   2.239
35766W        W99710  11.293  24.674   1.848
35767W        W99711  13.827  13.309  13.843
35768W        W99712  34.462  23.109   4.139
35769W        W99713   8.387  15.728   3.825
35770W        W99714  39.403  13.811   0.956
35771W        W99715  26.639   9.290  11.408
35772W        W99716   4.264  37.900  12.424
35773W        W99717  35.853   8.358  10.476
35774W        W99718   1.415  27.942   4.814
35775W        W99719  28.457   9.163  11.515
35776W        W99720  11.181  21.686  10.505
35777W        W99721  31.442  10.233  14.941
35778W        W99722  10.758  37.436   4.836
35779W        W99723   6.898  11.245  11.391
35780W        W99724  42.902  33.441   4.175
35781W        W99725  37.476   8.306   4.815
35782W        W99726  22.574   4.744  14.879
35783W        W99727  42.431  26.589  14.289
35784W        W99728  19.705  22.022  12.869
35785W        W99729  23.037   5.703  13.422
35786W        W99730  43.796  26.187  12.344
35787W        W99731  16.685  36.894  10.639
35788W        W99732  41.028   1.239   2.283
35789W        W99733  20.589  21.201  10.639
35790W        W99734  10.168  15.659   5.644
35791W        W99735  29.130  27.190   0.748
35792W        W99736  33.939   3.866   3.311
35793W        W99737  10.735  27.563  10.408
35794W        W99738  12.224  38.378  10.561
35795W        W99739  39.065  39.004   4.776
35796W        W99740   5.252  31.084   0.945
35797W        W99741  15.654   6.210   3.639
35798W        W99742   5.712  26.151  12.869
35799W        W99743   5.256   5.240   3.837
35800W        W99744  33.542  22.744   3.745
35801W        W99745   0.480  18.120   3.651
35802W        W99746   9.873  28.555  13.441
35803W        W99747  43.418   4.420  12.834
35804W        W99748   4.890  18.549   3.323
35805W        W99749  24.690  17.268  12.451
35806W        W99750  41.514  34.442   0.937
35807W        W99751   6.416  21.054   1.790
35808W        W99752   0.347  24.488  12.995
35809W        W99753  25.085  18.253  13.515
35810W        W99754  27.558  15.316   3.664
35811W        W99755  21.618  40.838   0.745
35812W        W99756  43.867  31.619   0.275
35813W        W99757  14.242  36.075  13.941
35814W        W99758  39.317   8.224  13.036
35815W        W99759  38.543  32.927   0.401
35816W        W99760  22.567  18.116  13.359
35817W        W99761   1.284  31.112   4.314
35818W        W99762  40.547   1.250  11.883
35819W        W99763  14.195  25.672  13.922
35820W        W99764  26.646  27.164  13.966
35821W        W99765   0.862   8.363   1.896
35822W        W99766  12.233  32.481  10.983
35823W        W99767  41.408  21.654   0.369
35824W        W99768  30.126  21.592   0.271
35825W        W99769  16.134  42.939  14.860
35826W        W99770   9.711  32.132  10.134
35827W        W99771  32.132  23.993   2.381
35828W        W99772  38.040  17.131   4.665
35829W        W99773   7.295  26.462  13.825
35830W        W99774  23.027  10.697   4.302
35831W        W99775  44.841   3.302  14.973
35832W        W99776  34.379  43.959   3.153
35833W        W99777   4.223   5.899   0.357
35834W        W99778  13.182  16.288   3.722
35835W        W99779  14.712  31.139   2.361
35836W        W99780  39.984  35.439   1.858
35837W        W99781   7.260  23.104   2.752
35838W        W99782  41.466  44.282  14.329
35839W        W99783  20.131   4.926   9.921
35840W        W99784  28.661  14.172   3.274
35841W        W99785  40.368  33.929   1.304
35842W        W99786  27.079  26.695   4.754
35843W        W99787  19.599  32.121   2.678
35844W        W99788   4.364  11.187  11.488
35845W        W99789  10.721  32.114   0.920
35846W        W99790  24.520  20.756   0.885
35847W        W99791  32.131  15.726   2.759
35848W        W99792  23.505  10.269   1.745
35849W        W99793  13.627   3.358  10.521
35850W        W99794  44.288  17.570  13.492
35851W        W99795  26.523   2.842  10.540
35852W        W99796   2.960  35.952  12.975
35853W        W99797  20.226  42.408   4.114
35854W        W99798  18.572  36.380  12.036
35855W        W99799   8.288  35.027   3.222
35856W        W99800  12.735  27.141   0.927
35857W        W99801  16.271  13.192   1.768
35858W        W99802  17.713  22.242  13.448
35859W        W99803  27.100  18.709   4.198
35860W        W99804  43.468  39.017   9.959
35861W        W99805  20.029  25.129   2.219
35862W        W99806  16.259  36.054  14.848
35863W        W99807  37.433  30.074  11.017
35864W        W99808   2.270  16.154  10.539
35865W        W99809  32.622  33.910   4.660
35866W        W99810  25.622  20.077   4.236
35867W        W99811  22.074  36.360  11.118
35868W        W99812  12.775   5.210   2.299
35869W        W99813  23.532   6.184   2.318
35870W        W99814  26.538  13.220  10.988
35871W        W99815  10.661  28.146   0.314
35872W        W99816  35.095   0.428   4.805
35873W        W99817  42.007  42.472   4.644
35874W        W99818  18.628  33.941   3.650
35875W        W99819  11.300  31.550  14.292
35876W        W99820  11.327  41.532  10.938
35877W        W99821   1.316  35.402   1.259
35878W        W99822   5.279  30.648  10.527
35879W        W99823  37.431  35.540   3.365
35880W        W99824   1.264   8.213  13.872
35881W        W99825  32.033  13.624  11.552
35882W        W99826  36.071   8.378  14.307
35883W        W99827   7.853  24.204  10.989
35884W        W99828  36.081  43.988  14.986
35885W        W99829  28.560  22.179   4.339
35886W        W99830  27.016  34.070  13.514
35887W        W99831   6.206  41.294   2.779
35888W        W99832   8.236  10.321   4.720
35889W        W99833  14.659  20.151   3.276
35890W        W99834  44.942  35.993   1.332
35891W        W99835  38.548  19.543  11.454
35892W        W99836  44.901   7.877  12.095
35893W        W99837  21.529  11.320  14.982
35894W        W99838  27.574  28.524   2.808
35895W        W99839  14.294  26.486   3.217
35896W        W99840  23.999  19.162  12.384
35897W        W99841  25.658  36.925   3.737
35898W        W99842  28.580  27.601   3.195
35899W        W99843   7.299  31.435   2.670
35900W        W99844   1.483  15.163   4.602
35901W        W99845  36.030  34.419  14.361
35902W        W99846  22.053   9.872  11.558
35903W        W99847  35.369   3.819   1.866
35904W        W99848  39.840   7.779  14.295
35905W        W99849  24.551  27.974   0.349
35906W        W99850   3.439   2.404   5.192
35907W        W99851  17.773  28.119   0.400
35908W        W99852  18.758  26.115  11.042
35909W        W99853  14.123  11.203  10.488
35910W        W99854  29.463  15.784  10.587
35911W        W99855   1.444   3.784  11.580
35912W        W99856  10.335  20.613   0.348
35913W        W99857  18.709  22.008  14.995
35914W        W99858  36.440  23.092  13.022
35915W        W99859   9.298  22.588   3.857
35916W        W99860  10.236  12.820   2.223
35917W        W99861  12.193  15.580  12.853
35918W        W99862  30.618  21.050   0.902
35919W        W99863  43.974   4.926  11.499
35920W        W99864   3.451  38.382   0.360
35921W        W99865  15.787   6.906  10.440
35922W        W99866  11.698  18.605   2.699
35923W        W99867  14.604  23.503   3.236
35924W        W99868  43.289  39.503  12.095
35925W        W99869  43.842  15.114  11.466
35926W        W99870   6.364  15.295  13.904
35927W        W99871  38.542  10.142   4.242
35928W        W99872  18.671  23.134  14.001
35929W        W99873  22.742  20.237   2.876
35930W        W99874  14.808   1.380   2.287
35931W        W99875  40.357  12.249  10.960
35932W        W99876   0.367   4.754  14.810
35933W        W99877  36.955   0.890  11.964
35934W        W99878   7.798   6.379  10.442
35935W        W99879  20.250  16.314  14.310
35936W        W99880  10.768  10.235   3.655
35937W        W99881  32.071  20.695  11.516
35938W        W99882  30.159  30.988   4.799
35939W        W99883  22.131  38.984   2.275
35940W        W99884   2.727  18.278  12.985
35941W        W99885  25.696  13.240  12.373
35942W        W99886  44.491   4.292   3.243
35943W        W99887  19.559   3.840   4.244
35944W        W99888  37.083  32.493   1.811
35945W        W99889  32.588   5.219   3.315
35946W        W99890   7.175   2.344  12.998
35947W        W99891  13.695  40.972  12.527
35948W        W99892  20.241  33.593   3.797
35949W        W99893  28.506  11.864  13.425
35950W        W99894  23.629  25.663  13.457
35951W        W99895  33.473  12.689   4.783
35952W        W99896   8.299  26.073   4.200
35953W        W99897  12.309  34.100  14.326
35954W        W99898  22.558  32.917   4.740
35955W        W99899  10.143  34.967   3.252
35956W        W99900  39.904  39.964   0.870
35957W        W99901   1.878  41.795   3.845
35958W        W99902  41.841  33.961   0.946
35959W        W99903   1.397   4.314  14.855
35960W        W99904  43.378  42.294   4.176
35961W        W99905  36.921  23.184  11.868
35962W        W99906  15.245  16.748   4.673
35963W        W99907  41.503   9.294   4.204
35964W        W99908  26.078   8.398  14.780
35965W        W99909  15.217  42.915   2.308
35966W        W99910  44.294  20.538   3.275
35967W        W99911  25.512  23.058  10.936
35968W        W99912  40.312   1.294  14.292
35969W        W99913  28.128   2.953  13.314
35970W        W99914  26.162   2.724  14.494
35971W        W99915  38.531   6.764  14.781
35972W        W99916   6.716  16.238  10.601
35973W        W99917  38.869  11.849   3.336
35974W        W99918  29.499   4.335   3.362
35975W        W99919   0.386  33.433  12.894
35976W        W99920  44.906  16.772  11.933
35977W        W99921   9.265  36.573  11.895
35978W        W99922  30.486  20.722  13.054
35979W        W99923   0.909   5.772  13.439
35980W        W99924   3.868  37.393  13.060
35981W        W99925   2.756  44.769   3.802
35982W        W99926  23.601  28.657  13.835
35983W        W99927  25.997  39.331   1.699
35984W        W99928  32.118  18.202  14.311
35985W        W99929  41.321  20.242   2.759
35986W        W99930  34.506  39.492   3.784
35987W        W99931  15.601  21.653  10.470
35988W        W99932   2.935  30.541  10.572
35989W        W99933  24.056  26.616   3.708
35990W        W99934   5.736  10.232  11.552
35991W        W99935  22.141  25.079  11.497
35992W        W99936  41.833  21.124  14.835
35993W        W99937  14.612  42.479  13.021
35994W        W99938   6.407  27.109   1.722
35995W        W99939  17.693  34.923  13.495
35996W        W99940  11.802  11.846   3.774
35997W        W99941  19.190  14.633   2.804
35998W        W99942  20.540  30.595   1.367
35999W        W99943  29.514  14.304  13.855
36000W        W99944  27.039  13.241  11.052
36001W        W99945   3.303   3.389   4.736
36002W        W99946  14.303   6.844  12.028
36003W        W99947  13.835  35.101   0.370
36004W        W99948  17.783  44.822   3.708
36005W        W99949  41.844  13.665   0.915
36006W        W99950  12.676  38.326   3.215
36007W        W99951  36.932  25.478   4.279
36008W        W99952  35.858  12.274  12.898
36009W        W99953  20.263   1.953  13.064
36010W        W99954   4.740  31.511  12.557
36011W        W99955   8.277   8.703   0.483
36012W        W99956  25.013  12.679  13.022
36013W        W99957  39.332   3.759  14.830
36014W        W99958  38.018  19.630   2.186
36015W        W99959  39.471  14.111   2.358
36016W        W99960  29.999  36.373   1.397
36017W        W99961  29.659  24.661   4.763
36018W        W99962  11.651  13.744   1.255
36019W        W99963  18.780  29.052   4.259
36020W        W99964  42.397  12.855  14.508
36021W        W99965  26.090   2.440  14.008
36022W        W99966  19.592   8.713   3.381
36023W        W99967  36.886  19.600   3.640
36024W        W99968   3.320   0.782   3.354
36025W        W99969  32.044   7.263  12.869
36026W        W99970  33.110  21.578  12.981
36027W        W99971  37.394  15.283  14.954
36028W        W99972  44.815  13.245   1.333
36029W        W99973  30.066   9.744  11.065
36030W        W99974   5.290  32.915  12.078
36031W        W99975  30.598  42.296   9.950
36032W        W99976  22.574  13.736   1.853
36033W        W99977  14.224   8.275   4.778
36034W        W99978  15.259   4.884   1.287
36035W        W99979  42.969  35.033  11.598
36036W        W99980  39.484  36.063   4.269
36037W        W99981   7.332   2.948  10.517
36038W        W99982  10.284  19.697  11.393
36039W        W99983  21.527  34.410   3.858
36040W        W99984  14.252  18.763   4.148
36041W        W99985  38.008  12.226   2.707
36042W        W99986  27.194  28.470   0.440
36043W        W99987  29.981  25.144   2.670
36044W        W99988  40.817   4.231   1.698
36045W        W99989  29.490  27.622   0.823
36046W        W99990  11.175  42.904   3.729
36047W        W99991  44.442  19.209  13.949
36048W        W99992   8.401  27.481   3.356
36049W        W99993  13.611  40.903   2.673
36050W        W99994  35.864  14.650  12.967
36051W        W99995   0.961  34.912   1.856
36052W        W99996  27.113  23.567   0.753
36053W        W99997  42.406  37.957   3.274
36054W        W99998   2.345  10.372  12.863
36055W        W99999  27.089  27.672   0.304
36056W        W    0  22.623  44.351  13.328
36057W        W    1  43.425  27.583   4.168
36058W        W    2  23.072  39.827   2.839
36059W        W    3  22.735   2.756  12.846
36060W        W    4  21.620  25.207   3.245
36061W        W    5  18.616  16.137  14.953
36062W        W    6   2.375  36.020  13.332
36063W        W    7   7.409  27.532  13.981
36064W        W    8  43.915  17.088  13.038
36065W        W    9  22.168   0.321  11.945
36066W        W   10  20.681  17.566   3.774
36067W        W   11  44.916  38.335  11.465
36068W        W   12  21.081   1.767   4.257
36069W        W   13  32.104  13.610   4.699
36070W        W   14   6.859  14.099   1.901
36071W        W   15  27.139   6.683   1.346
36072W        W   16  34.894  14.141   3.348
36073W        W   17  31.418   1.247  12.892
36074W        W   18  40.798  21.683   4.795
36075W        W   19  32.982  35.550   4.748
36076W        W   20  39.523  31.571  13.816
36077W        W   21  40.052  22.553   0.908
36078W        W   22  31.634  12.289   2.371
36079W        W   23  13.746  23.735   0.346
36080W        W   24  40.407  22.085   3.752
36081W        W   25  12.359   9.644   1.832
36082W        W   26  12.346  21.243  14.809
36083W        W   27  39.809  33.969  14.794
36084W        W   28  20.211  39.003   4.721
36085W        W   29  36.874  37.860  14.402
36086W        W   30  14.163   4.264  12.438
36087W        W   31  26.081   2.403  11.535
36088W        W   32   5.797  34.519   0.886
36089W        W   33  33.101  32.539  12.009
36090W        W   34  34.076  11.671   4.148
36091W        W   35  37.947  13.832  12.414
36092W        W   36   4.396  16.095  14.018
36093W        W   37  40.962   5.905  13.397
36094W        W   38  19.238  40.413   2.785
36095W        W   39  38.931  23.198  12.544
36096W        W   40  29.086   9.205  12.461
36097W        W   41  24.689  23.500   2.410
36098W        W   42   4.944  13.832   3.284
36099W        W   43  31.094  37.547   0.794
36100W        W   44   2.864  22.157  12.986
36101W        W   45  17.756  39.422  12.907
36102W        W   46  15.283  23.186  12.867
36103W        W   47  28.438  17.117  13.929
36104W        W   48  37.512   1.797  14.896
36105W        W   49  14.620  21.741  13.902
36106W        W   50   6.779  35.471   1.848
36107W        W   51  44.499  31.901   0.273
36108W        W   52  39.347  12.674   1.325
36109W        W   53  33.556   1.443   3.317
36110W        W   54  26.516  21.629  11.883
36111W        W   55  13.328  27.449  13.912
36112W        W   56  24.653   5.327  13.313
36113W        W   57  39.440  31.132   1.846
36114W        W   58  12.175  37.957  11.982
36115W        W   59  14.636  39.911  13.974
36116W        W   60  12.321   1.968  13.026
36117W        W   61  37.896  42.324  14.025
36118W        W   62  37.040  11.642  11.389
36119W        W   63  14.819  21.558  11.412
36120W        W   64  13.150   0.925   4.723
36121W        W   65  25.967  18.109   1.340
36122W        W   66  20.628   8.701   1.812
36123W        W   67   2.800  19.775   2.750
36124W        W   68  14.231  18.600   0.480
36125W        W   69  11.708  38.524   0.402
36126W        W   70   2.957   5.422   5.307
36127W        W   71  31.943  31.440   2.722
36128W        W   72   8.657   9.694  14.934
36129W        W   73  10.739  25.192  10.443
36130W        W   74  29.431  11.858  13.952
36131W        W   75  14.729  39.886   0.417
36132W        W   76   3.364  21.028  12.420
36133W        W   77  44.815  28.472  11.973
36134W        W   78   5.342  22.095  11.924
36135W        W   79   4.229   8.405   0.872
36136W        W   80   2.949  23.196  13.526
36137W        W   81  11.250  38.054  13.384
36138W        W   82  31.011  34.941  13.548
36139W        W   83  29.031   0.357   1.918
36140W        W   84  22.999   7.378   4.613
36141W        W   85  23.599   2.885   3.856
36142W        W   86  38.943  22.047  13.891
36143W        W   87   6.678   0.352  12.573
36144W        W   88  44.891  30.146   0.768
36145W        W   89  32.535  26.604  11.600
36146W        W   90  36.031   6.722  13.958
36147W        W   91  12.135  12.192   0.347
36148W        W   92   8.811  27.180   0.845
36149W        W   93  12.187  26.672   2.725
36150W        W   94   0.957  29.566   0.768
36151W        W   95  40.848   4.229  12.985
36152W        W   96  29.572  38.532   3.773
36153W        W   97  37.903  30.591   1.260
36154W        W   98  43.462  36.541   0.735
36155W        W   99   1.475  35.411   2.358
36156W        W  100  15.616  37.839  13.825
36157W        W  101   9.668   4.306  14.827
36158W        W  102  19.617  43.294   0.359
36159W        W  103  12.617  22.581  10.973
36160W        W  104  22.529  43.375  14.994
36161W        W  105  32.915   6.367   2.883
36162W        W  106  24.151  39.008  14.808
36163W        W  107  41.487  14.755  11.420
36164W        W  108  24.161  19.753   0.358
36165W        W  109  29.024   6.799  14.329
36166W        W  110  16.652  14.183  13.519
36167W        W  111  34.010  16.134  10.916
36168W        W  112  14.167  16.788  14.383
36169W        W  113  29.152  41.863   5.169
36170W        W  114  14.619  16.229  12.511
36171W        W  115  27.490   2.341  12.473
36172W        W  116  10.741  31.537  14.769
36173W        W  117   3.906   9.835   4.791
36174W        W  118  34.396  40.372  13.940
36175W        W  119   6.776   7.718   3.674
36176W        W  120   0.868  40.806  10.616
36177W        W  121   2.354  24.220  10.628
36178W        W  122  34.917  41.384  14.768
36179W        W  123  29.555  43.365  13.388
36180W        W  124  36.365  32.537   4.228
36181W        W  125  32.971  42.919  13.847
36182W        W  126  28.456  18.595   4.283
36183W        W  127  40.471  38.887  11.431
36184W        W  128  37.837  22.721   4.689
36185W        W  129  37.515  25.469   1.249
36186W        W  130  37.900  30.436   5.188
36187W        W  131  39.994  26.587  10.496
36188W        W  132   1.315  19.278   1.222
36189W        W  133  34.581  37.500   3.358
36190W        W  134  22.230   7.912   4.135
36191W        W  135   4.756  12.629  14.360
36192W        W  136   6.373   9.740   4.639
36193W        W  137  30.919   7.176   2.416
36194W        W  138  31.022  41.508   1.786
36195W        W  139   6.869   4.709  14.330
36196W        W  140  30.957  19.039  13.320
36197W        W  141  18.296  29.458   2.713
36198W        W  142  14.810   7.286   5.101
36199W        W  143  16.590   8.712  12.086
36200W        W  144   8.296   3.439   2.418
36201W        W  145  40.533  27.998  13.376
36202W        W  146  28.070   5.408  14.939
36203W        W  147  19.200  20.551   3.836
36204W        W  148  15.143  37.407   2.256
36205W        W  149  34.872  17.171   2.180
36206W        W  150   5.415  38.012  11.044
36207W        W  151   2.462  20.089   1.294
36208W        W  152  22.664  42.454  12.019
36209W        W  153  11.738  16.629  13.875
36210W        W  154   8.846  31.452   5.303
36211W        W  155  16.312   5.344  11.558
36212W        W  156  21.194  12.740   1.293
36213W        W  157  21.719   0.464   2.347
36214W        W  158  35.921  34.013  11.950
36215W        W  159  29.633  40.404  14.934
36216W        W  160  28.570  14.643  12.356
36217W        W  161   3.336  21.647  11.599
36218W        W  162  21.632  25.060  10.459
36219W        W  163   2.429  40.932  10.539
36220W        W  164  42.945  31.505  13.033
36221W        W  165  39.413  12.626   3.673
36222W        W  166  30.146  41.035  12.437
36223W        W  167  30.087  29.036   0.896
36224W        W  168  17.654  10.846   3.821
36225W        W  169  38.571  27.622  12.906
36226W        W  170   4.720  31.534   1.812
36227W        W  171  32.997   7.774  10.909
36228W        W  172  14.130  31.050   1.235
36229W        W  173  20.568  17.277  12.900
36230W        W  174  28.947  13.125   1.740
36231W        W  175  22.126  33.575  13.329
36232W        W  176  32.539   7.211  14.320
36233W        W  177  35.534  37.007  14.401
36234W        W  178  39.460  35.063  11.106
36235W        W  179  11.240  14.645  11.883
36236W        W  180  15.620  34.467  12.830
36237W        W  181  30.064  40.371  13.481
36238W        W  182   4.833   1.319   4.238
36239W        W  183  41.989  14.181  13.434
36240W        W  184  36.420  20.143   1.920
36241W        W  185  22.135  10.752   2.787
36242W        W  186  30.030  30.041   0.946
36243W        W  187  28.480   2.834  12.048
36244W        W  188  10.713  38.906   0.967
36245W        W  189   0.431  18.121  11.942
36246W        W  190   4.877  39.396   1.329
36247W        W  191  27.968  24.055  12.387
36248W        W  192  37.008  39.963   2.219
36249W        W  193  26.181   9.367   2.876
36250W        W  194  19.216  18.252   3.851
36251W        W  195  12.811  42.007  12.055
36252W        W  196  18.129  13.168   2.390
36253W        W  197  14.756   6.803  14.326
36254W        W  198  35.059  37.475   0.446
36255W        W  199  35.028  22.103  10.432
36256W        W  200   8.207  25.032   1.340
36257W        W  201  36.039   4.757   4.610
36258W        W  202  10.160  25.622   4.140
36259W        W  203  31.123  16.712   1.749
36260W        W  204  17.617   9.193  12.489
36261W        W  205   4.422  23.992  12.495
36262W        W  206   3.729  24.224  14.280
36263W        W  207   6.368  31.458  13.824
36264W        W  208  39.340   5.840   1.845
36265W        W  209  36.355   6.345   1.278
36266W        W  210  21.563  19.543   5.115
36267W        W  211  43.827  28.015   3.706
36268W        W  212  35.959  19.226   2.851
36269W        W  213  32.120  11.296  14.905
36270W        W  214  27.034  19.568   2.782
36271W        W  215   5.220  14.814   3.785
36272W        W  216  42.790  26.580  13.426
36273W        W  217  34.028  22.017   4.787
36274W        W  218  34.085   8.338  12.892
36275W        W  219   4.773  32.120  13.490
36276W        W  220   0.927   0.926  12.871
36277W        W  221  28.549  27.106   3.293
36278W        W  222  30.073  42.439  14.447
36279W        W  223   6.356  38.405  10.632
36280W        W  224  18.632  32.052   1.748
36281W        W  225   1.886  43.515  14.947
36282W        W  226  31.069   4.418  14.345
36283W        W  227  41.960  36.862  11.888
36284W        W  228  20.252   4.891  13.948
36285W        W  229  32.566   3.388   3.701
36286W        W  230  19.167  13.643   0.346
36287W        W  231  40.453  33.415  10.154
36288W        W  232  29.173  33.541   2.810
36289W        W  233  12.617   6.855  12.489
36290W        W  234  19.205  20.252  13.341
36291W        W  235  44.403  33.978  12.968
36292W        W  236  13.303  42.814   2.875
36293W        W  237  32.519  30.652  10.901
36294W        W  238  10.701  14.252   0.737
36295W        W  239  14.207  19.720  10.491
36296W        W  240  30.642  31.538   0.415
36297W        W  241   4.275  42.482   4.797
36298W        W  242   7.868  41.816  11.391
36299W        W  243  36.469   1.839  10.476
36300W        W  244  40.961   6.803  13.055
36301W        W  245  22.702  39.551   2.255
36302W        W  246  11.242  29.488   3.691
36303W        W  247  16.269  32.925   3.647
36304W        W  248  40.889  19.685   1.332
36305W        W  249  15.147   1.477   3.639
36306W        W  250  27.633  28.104   3.356
36307W        W  251  16.257  16.596  11.045
36308W        W  252  39.371  40.420   3.766
36309W        W  253   8.704  36.499  10.624
36310W        W  254  31.587  25.511  12.388
36311W        W  255   6.709  21.153  11.077
36312W        W  256  10.167  41.431  12.429
36313W        W  257  19.264  35.968   2.213
36314W        W  258   0.840  15.306  14.006
36315W        W  259  22.617  23.523  12.831
36316W        W  260  42.888  40.016   2.356
36317W        W  261   0.770  25.686   3.176
36318W        W  262  40.448   2.813   1.827
36319W        W  263   7.842  17.139  11.425
36320W        W  264   3.366   6.388  13.365
36321W        W  265  40.357  43.770   4.753
36322W        W  266  29.605  29.022  11.980
36323W        W  267  19.116   9.386  11.445
36324W        W  268  15.203  37.501  12.856
36325W        W  269  40.919  22.096  12.877
36326W        W  270   3.713  14.323  10.600
36327W        W  271  26.610  38.910  13.315
36328W        W  272  11.662  29.937  12.443
36329W        W  273  34.492  28.942   3.236
36330W        W  274  34.078   9.644  11.876
36331W        W  275  32.546  28.028  14.361
36332W        W  276   4.392  37.895   3.348
36333W        W  277  11.634  42.523  11.587
36334W        W  278  28.162  38.048   1.265
36335W        W  279  11.723   9.179  10.935
36336W        W  280  10.870  43.409  11.082
36337W        W  281  34.012   0.950  13.880
36338W        W  282  39.406  34.412   0.964
36339W        W  283  32.591  12.163   2.735
36340W        W  284  19.684  20.163   3.829
36341W        W  285  34.912  21.237  13.014
36342W        W  286  42.525  40.522  11.444
36343W        W  287  11.630  39.372   4.187
36344W        W  288   1.289  13.152  12.881
36345W        W  289  22.178   5.413   2.242
36346W        W  290   8.668  41.873   0.943
36347W        W  291  35.516  25.167   1.233
36348W        W  292  38.533  18.055  13.007
36349W        W  293  30.471   0.464  12.510
36350W        W  294   9.250  12.143   3.372
36351W        W  295   2.747  27.131  12.389
36352W        W  296  38.841  41.371   1.733
36353W        W  297  35.530  12.690   2.209
36354W        W  298  27.052  37.495   1.350
36355W        W  299  20.186  38.557  14.314
36356W        W  300   9.842  29.667   0.727
36357W        W  301  38.974   9.802   2.198
36358W        W  302   3.917  39.894  11.949
36359W        W  303  32.543  25.217   2.824
36360W        W  304  26.550   7.742   2.191
36361W        W  305   2.237  16.297  13.314
36362W        W  306   8.353  21.723  12.369
36363W        W  307  39.541  27.516   4.158
36364W        W  308   9.762  32.525   3.335
36365W        W  309  40.512  21.157   2.664
36366W        W  310  44.463  22.659  10.448
36367W        W  311   0.300   6.254   3.782
36368W        W  312  43.887  16.660   0.430
36369W        W  313   8.723  30.596   2.687
36370W        W  314  34.557  16.653   1.756
36371W        W  315  25.617  41.305  13.953
36372W        W  316   7.347   2.342  12.356
36373W        W  317   4.864  26.138   4.198
36374W        W  318  44.806  13.327   4.672
36375W        W  319   1.287  43.444  13.890
36376W        W  320  12.343  14.309  14.316
36377W        W  321  34.970  30.025   1.825
36378W        W  322  31.642  37.400  12.541
36379W        W  323   4.876  42.956   2.732
36380W        W  324  18.619  24.020   1.430
36381W        W  325  31.467  10.706  10.889
36382W        W  326  35.547  25.699  12.560
36383W        W  327  42.450   4.272  14.283
36384W        W  328  35.429   6.242  12.459
36385W        W  329  41.379  11.806  10.589
36386W        W  330  10.235  18.104   0.777
36387W        W  331  22.195  39.332   2.747
36388W        W  332  36.450   8.665   4.255
36389W        W  333  23.626  44.470  14.792
36390W        W  334  26.154   6.340   1.413
36391W        W  335   7.224  32.525  13.871
36392W        W  336  15.120  15.308   1.407
36393W        W  337  24.579  33.486   2.367
36394W        W  338  29.161  18.639  10.644
36395W        W  339  42.340   0.773  14.459
36396W        W  340   0.904  32.113  11.499
36397W        W  341  11.317  29.985  10.991
36398W        W  342  18.723   5.787   4.651
36399W        W  343  36.897  15.659   3.810
36400W        W  344  13.788  40.328   4.649
36401W        W  345  12.359  16.804   3.713
36402W        W  346  27.959   9.189  14.890
36403W        W  347  33.921  20.744  13.332
36404W        W  348  14.279  29.474   3.206
36405W        W  349  34.562  44.981  12.892
36406W        W  350  27.656  28.627  10.617
36407W        W  351  11.285   8.877   4.829
36408W        W  352  24.644  42.852   2.293
36409W        W  353  37.924   3.780  11.971
36410W        W  354  23.228  25.563  14.028
36411W        W  355  30.551  25.471  12.939
36412W        W  356  34.462  40.926   0.919
36413W        W  357  43.504  20.179  12.438
36414W        W  358  26.126  20.045  10.561
36415W        W  359  33.933  44.927   3.648
36416W        W  360   8.236  21.631   0.871
36417W        W  361  30.443  44.400  11.504
36418W        W  362  11.186  30.597  14.441
36419W        W  363  17.175  30.008  11.484
36420W        W  364   1.826  35.086  13.543
36421W        W  365  42.966  28.175  11.553
36422W        W  366  34.038  22.020   1.896
36423W        W  367  15.142  27.971   4.333
36424W        W  368   8.759  23.026   3.204
36425W        W  369  23.038  18.079   2.206
36426W        W  370  19.733  22.624   5.685
36427W        W  371   7.759  27.952  10.895
36428W        W  372  38.930   3.273  10.051
36429W        W  373  25.146  27.942  12.869
36430W        W  374  20.070  30.641  14.966
36431W        W  375  34.973  36.523   1.263
36432W        W  376   6.420  32.116   0.781
36433W        W  377  16.579  12.803   4.250
36434W        W  378  19.131  23.511  13.978
36435W        W  379   2.802   4.411   5.806
36436W        W  380  10.357  14.163   4.793
36437W        W  381  10.327  34.916   0.332
36438W        W  382  32.910  17.768  11.535
36439W        W  383  30.433  31.107  14.892
36440W        W  384  39.832  26.182   3.272
36441W        W  385  25.218   6.383  12.046
36442W        W  386  29.529  32.002  11.103
36443W        W  387  44.503  16.810  11.408
36444W        W  388  30.532  19.088  14.836
36445W        W  389  33.511  21.196  14.803
36446W        W  390   9.201  35.584  11.506
36447W        W  391  35.889  15.201  10.896
36448W        W  392  18.749  28.595   2.715
36449W        W  393  29.128  42.934  13.451
36450W        W  394  13.731  33.883  14.453
36451W        W  395  27.034  38.466   3.370
36452W        W  396  21.182  39.444   1.241
36453W        W  397  34.932  37.843  14.850
36454W        W  398  14.774  20.539   2.390
36455W        W  399   2.350  33.555  12.075
36456W        W  400  36.088   5.338  14.474
36457W        W  401  20.094  25.503  13.937
36458W        W  402   0.269   3.406   2.309
36459W        W  403  35.464  31.406  11.003
36460W        W  404  12.184   8.690   1.445
36461W        W  405  15.104  27.139  14.447
36462W        W  406  44.940  19.623   2.745
36463W        W  407  41.824  36.442   2.291
36464W        W  408   3.953  25.680   3.647
36465W        W  409  28.483  42.890   4.745
36466W        W  410  15.148  40.536  12.539
36467W        W  411  38.006  17.255   0.935
36468W        W  412  36.868   1.252   3.641
36469W        W  413   8.659  25.205  10.600
36470W        W  414  19.646  31.913  12.023
36471W        W  415   6.410  37.998   4.247
36472W        W  416  20.641  20.526   4.244
36473W        W  417  34.513  11.206  13.985
36474W        W  418  11.817  26.978  10.894
36475W        W  419   5.787  40.467   4.764
36476W        W  420  41.408   9.237   1.812
36477W        W  421  26.563   7.305   2.386
36478W        W  422  22.054  25.616  11.407
36479W        W  423  32.953  22.735   0.255
36480W        W  424  33.602  15.620  13.015
36481W        W  425  43.822   5.219   4.139
36482W        W  426  15.595  24.034  12.928
36483W        W  427  28.048  27.092   3.367
36484W        W  428   5.777  13.755  11.411
36485W        W  429  21.584  19.103  12.979
36486W        W  430  16.702  29.948   1.314
36487W        W  431  33.598  26.510  13.806
36488W        W  432  22.580   3.387   0.767
36489W        W  433   1.379   3.264   1.880
36490W        W  434  38.060  11.300  11.398
36491W        W  435  16.135  25.012  12.364
36492W        W  436  35.900  26.581   1.215
36493W        W  437  14.631   9.670   1.771
36494W        W  438  30.963  36.963   3.727
36495W        W  439  17.794  36.578  14.859
36496W        W  440   8.400   7.277   2.682
36497W        W  441  33.536  23.603   2.791
36498W        W  442  31.621  29.150   1.228
36499W        W  443  40.822  30.489  14.357
36500W        W  444  29.160  16.084   3.788
36501W        W  445  43.363  33.946   3.659
36502W        W  446  25.646  42.031   4.820
36503W        W  447  22.180   9.739   4.164
36504W        W  448   9.382  36.957   3.844
36505W        W  449  11.276  36.051   3.379
36506W        W  450   7.743  16.733  12.501
36507W        W  451  34.544  20.103  10.561
36508W        W  452  27.545   5.874   1.898
36509W        W  453  16.201  15.208  12.024
36510W        W  454   9.763  32.407   5.196
36511W        W  455   3.357   5.890  12.935
36512W        W  456  14.692  21.186  11.483
36513W        W  457  39.527   1.799   3.223
36514W        W  458  19.698  12.357  14.463
36515W        W  459  38.958  36.996  14.287
36516W        W  460   0.963  40.815   3.146
36517W        W  461  30.421  13.297  14.435
36518W        W  462  44.340   7.304   3.302
36519W        W  463  27.033  30.102  10.412
36520W        W  464  14.230  39.840   3.739
36521W        W  465  38.381  16.575   3.376
36522W        W  466  13.652  31.920   2.217
36523W        W  467  30.979  10.875  13.944
36524W        W  468  37.058  24.647  10.559
36525W        W  469  23.130  10.336   2.325
36526W        W  470  35.914  29.078  14.888
36527W        W  471  13.135  40.860   0.893
36528W        W  472  29.108  43.837  14.444
36529W        W  473  27.136   5.290   0.291
36530W        W  474  13.757   8.804  12.058
36531W        W  475  40.431  13.602  10.627
36532W        W  476   1.890  11.738  11.892
36533W        W  477  33.475  11.169   0.365
36534W        W  478  41.822   2.761   2.864
36535W        W  479  10.807  20.086  14.905
36536W        W  480  37.508  37.926  14.429
36537W        W  481  14.686  44.328   1.366
36538W        W  482  14.303  43.898   4.822
36539W        W  483  37.007  27.083  13.322
36540W        W  484  42.821  30.419   1.402
36541W        W  485  32.457   8.877   1.925
36542W        W  486   5.433  14.757  14.469
36543W        W  487  24.056  18.087  11.511
36544W        W  488   0.413  15.084  14.487
36545W        W  489  38.456  31.122   3.842
36546W        W  490   1.745   8.327  14.465
36547W        W  491  42.293  15.226   4.345
36548W        W  492  17.675  42.495   0.875
36549W        W  493  17.802  36.370  13.544
36550W        W  494  26.977  44.827  14.310
36551W        W  495   5.818   0.800  13.441
36552W        W  496  18.128   4.854   3.812
36553W        W  497  26.082  42.824   2.281
36554W        W  498   9.177  17.640  12.998
36555W        W  499  13.738   1.466  13.488
36556W        W  500  10.649  19.560   2.390
36557W        W  501   9.687  13.831  14.821
36558W        W  502  19.283  40.044  10.543
36559W        W  503  42.455  17.068  13.061
36560W        W  504  10.324  22.054  10.958
36561W        W  505  15.198  18.264  13.367
36562W        W  506   9.199  40.423  13.512
36563W        W  507  30.488   5.856  14.028
36564W        W  508   5.217  37.076   4.271
36565W        W  509  31.997  35.442  11.049
36566W        W  510   4.366   4.238   0.865
36567W        W  511  23.043  36.087   1.262
36568W        W  512  34.109   7.733   1.236
36569W        W  513  39.381  21.114   4.798
36570W        W  514   6.862  28.609   0.903
36571W        W  515  42.344   8.887  11.446
36572W        W  516  17.727  14.596   3.387
36573W        W  517  25.539   3.896  12.087
36574W        W  518  29.558  38.499  13.534
36575W        W  519  24.099  12.715  14.872
36576W        W  520  38.874   3.356   0.279
36577W        W  521  36.363   4.321  14.987
36578W        W  522  39.948  21.202   0.936
36579W        W  523   8.173  31.043   1.341
36580W        W  524  33.490  29.628   5.099
36581W        W  525  36.946   3.341  12.510
36582W        W  526  13.220  44.992   3.308
36583W        W  527  44.952  29.576   0.742
36584W        W  528  21.556  33.922   2.689
36585W        W  529  21.599   2.868  13.955
36586W        W  530  16.610  24.214   1.256
36587W        W  531   1.896  10.837   1.247
36588W        W  532   7.219  42.020   4.268
36589W        W  533  32.574  19.605   4.141
36590W        W  534  12.790  39.560  11.895
36591W        W  535  28.466  15.160  12.577
36592W        W  536  41.790  13.334   1.758
36593W        W  537   4.430  25.538  14.798
36594W        W  538  25.512  24.214  11.612
36595W        W  539  19.173   3.873   1.231
36596W        W  540  34.559   4.867  11.506
36597W        W  541   1.342  37.451   2.257
36598W        W  542  29.665  20.274  13.015
36599W        W  543   7.824  33.586  11.588
36600W        W  544  35.109  23.034   1.886
36601W        W  545  15.271  39.864   0.733
36602W        W  546   8.853   6.754   3.189
36603W        W  547  23.503  43.317  13.883
36604W        W  548   5.728   9.661  14.309
36605W        W  549  26.581  42.962  10.413
36606W        W  550  42.296  44.366  10.539
36607W        W  551  36.916   2.312  11.585
36608W        W  552  42.933  43.284   3.842
36609W        W  553  14.800  41.820   1.277
36610W        W  554  42.859  41.857  14.357
36611W        W  555  41.409  23.581   2.709
36612W        W  556   3.873  31.556   2.407
36613W        W  557   6.421   2.773  11.570
36614W        W  558  30.413   2.293   0.891
36615W        W  559  28.436  16.256   3.233
36616W        W  560  21.188  27.583   3.871
36617W        W  561  35.361   7.890  12.094
36618W        W  562  27.468  12.761  13.831
36619W        W  563   9.312  14.796  14.385
36620W        W  564  10.288   8.869   1.901
36621W        W  565  38.965  36.040   2.206
36622W        W  566  14.762  37.542   3.846
36623W        W  567  39.343  23.704  11.474
36624W        W  568  30.623  26.113  12.084
36625W        W  569  16.096  28.446   0.746
36626W        W  570   5.764  12.824  11.372
36627W        W  571  19.680   3.856  10.609
36628W        W  572   2.884  38.959  11.000
36629W        W  573  15.784   4.897  13.514
36630W        W  574  19.076   4.798  13.921
36631W        W  575  37.531  42.989  12.489
36632W        W  576   2.905  24.070  12.936
36633W        W  577  42.896  26.570  12.861
36634W        W  578  29.569  37.497   4.702
36635W        W  579  30.944  13.840  11.440
36636W        W  580  30.951  29.033   3.817
36637W        W  581   4.214  18.051   1.823
36638W        W  582   1.950  36.486  13.990
36639W        W  583  19.165  19.042   2.889
36640W        W  584  18.630   8.384   3.816
36641W        W  585   5.204  14.146   1.269
36642W        W  586  15.162  22.642   1.323
36643W        W  587  13.732  10.725   0.436
36644W        W  588  23.573  38.399   3.341
36645W        W  589   5.244   0.437   1.447
36646W        W  590   6.317  39.387   2.341
36647W        W  591  30.124  25.703   2.392
36648W        W  592  13.246  25.100   2.314
36649W        W  593  42.930  15.645   1.716
36650W        W  594  37.937  44.353  13.334
36651W        W  595  34.044  38.849   3.843
36652W        W  596   5.423  18.728  10.615
36653W        W  597   5.431   8.666   0.482
36654W        W  598  20.195  37.072   2.815
36655W        W  599  19.689  43.442  11.547
36656W        W  600  21.571  18.587   3.760
36657W        W  601  27.949  17.075  13.899
36658W        W  602  26.158  23.208  14.029
36659W        W  603  34.018   2.806   2.881
36660W        W  604  10.179   1.378   3.235
36661W        W  605  27.490  16.725   2.785
36662W        W  606  10.171  32.123  11.408
36663W        W  607   9.359  20.169   0.290
36664W        W  608   1.843   6.921   3.320
36665W        W  609  14.810   3.440  10.419
36666W        W  610  34.526  21.706   4.178
36667W        W  611  23.225  30.589   3.774
36668W        W  612  30.007  26.702   2.678
36669W        W  613  33.932   8.662  11.901
36670W        W  614   5.843  33.570  11.565
36671W        W  615   5.418  16.310  13.874
36672W        W  616  32.016  12.648  14.317
36673W        W  617  22.106  34.369  13.426
36674W        W  618   6.840  38.544  14.348
36675W        W  619   5.706   3.254   0.315
36676W        W  620  10.756   7.868   2.867
36677W        W  621   5.928  14.318   1.274
36678W        W  622  43.815  15.703   4.632
36679W        W  623  43.916  20.697  12.860
36680W        W  624  41.881  17.181  14.933
36681W        W  625  26.974  24.634  13.539
36682W        W  626  22.643  27.527  12.976
36683W        W  627   8.251  26.517   0.332
36684W        W  628  37.037  32.492   4.330
36685W        W  629  25.476  17.600  11.124
36686W        W  630  40.849  41.990  11.570
36687W        W  631  42.868  32.611  12.569
36688W        W  632  41.419  41.030   4.238
36689W        W  633  13.261   5.404  10.492
36690W        W  634  40.413  16.227  10.950
36691W        W  635  40.352   3.766  14.464
36692W        W  636  23.667  33.383   4.674
36693W        W  637  18.603  31.974   2.208
36694W        W  638  34.392  30.593  13.912
36695W        W  639  31.137  25.679   0.882
36696W        W  640  24.625  35.598  12.414
36697W        W  641  22.555  43.790   1.805
36698W        W  642  22.072   3.883  10.534
36699W        W  643  19.188  27.075  13.040
36700W        W  644  32.554  42.963   1.793
36701W        W  645  35.853  22.081  11.994
36702W        W  646   3.258  32.426  11.470
36703W        W  647  21.633  29.017  11.111
36704W        W  648  15.310  36.988   4.277
36705W        W  649  23.544   7.675  10.991
36706W        W  650  14.323  39.931  13.856
36707W        W  651  26.102   9.882   0.289
36708W        W  652  23.706  11.305   2.309
36709W        W  653  17.585  14.324   1.329
36710W        W  654   6.359   5.365   2.844
36711W        W  655   4.846  41.963   0.282
36712W        W  656  31.934  34.452  14.981
36713W        W  657  15.800  35.043   3.150
36714W        W  658   5.905  37.920  10.950
36715W        W  659  19.729  28.448   1.741
36716W        W  660  15.162  41.374  14.382
36717W        W  661  16.292  15.786   1.230
36718W        W  662   0.410   3.416  11.051
36719W        W  663   0.468  20.219   2.312
36720W        W  664  31.442  13.754   1.843
36721W        W  665   6.344  31.053  12.925
36722W        W  666   5.311   5.876   0.320
36723W        W  667  34.026  33.543   1.861
36724W        W  668  31.931  32.968  13.962
36725W        W  669   0.855  14.114  14.856
36726W        W  670  24.543  29.967   4.678
36727W        W  671  24.578   7.836  12.480
36728W        W  672  10.672   0.278   2.764
36729W        W  673  29.030  39.538   3.831
36730W        W  674   5.831  41.002  10.970
36731W        W  675  31.526  25.577   2.676
36732W        W  676   8.332  12.126  12.400
36733W        W  677   7.866  43.013   4.692
36734W        W  678  29.983  34.051   0.895
36735W        W  679   5.896   9.671   0.737
36736W        W  680  20.684  22.532  13.934
36737W        W  681  28.181  33.967   1.357
36738W        W  682   5.318  31.095  12.410
36739W        W  683  43.838   7.864   2.778
36740W        W  684  21.564  29.557  11.025
36741W        W  685   1.269  16.646  14.496
36742W        W  686  31.628  29.464   3.340
36743W        W  687  26.079  27.689  12.824
36744W        W  688  12.323   0.248  11.563
36745W        W  689  26.511  33.048   4.316
36746W        W  690  43.506  13.224  14.827
36747W        W  691  28.524  22.542   1.439
36748W        W  692  15.188  21.689   2.259
36749W        W  693   2.918  22.636  12.973
36750W        W  694  32.562  41.484  14.351
36751W        W  695  18.174  14.653  12.386
36752W        W  696  24.210  29.110   9.935
36753W        W  697  39.515  10.289  10.124
36754W        W  698  25.524  16.225   2.189
36755W        W  699  11.692  40.980  14.927
36756W        W  700  30.586   2.818   0.261
36757W        W  701   1.858  28.149  11.964
36758W        W  702   3.266  12.740   1.244
36759W        W  703  11.657   9.282  13.056
36760W        W  704  11.654  21.236  14.802
36761W        W  705  26.079   0.847  13.924
36762W        W  706   6.366  32.975   4.324
36763W        W  707  25.059   4.929  12.977
36764W        W  708  24.568  40.507  12.053
36765W        W  709  13.278  15.252   1.881
36766W        W  710  32.065   5.405  13.434
36767W        W  711   2.408  19.244   0.781
36768W        W  712  35.933  16.224   3.816
36769W        W  713   6.915  14.175  10.458
36770W        W  714  19.546   7.762   0.358
36771W        W  715  44.762  36.860   2.889
36772W        W  716  32.948  12.690   4.353
36773W        W  717  34.103  24.037  12.842
36774W        W  718  17.209  36.443   2.741
36775W        W  719  23.121   5.770   2.875
36776W        W  720   1.326  31.600  12.875
36777W        W  721  23.736  34.614  10.468
36778W        W  722  19.157  32.529   2.248
36779W        W  723   1.294  29.146   2.219
36780W        W  724   2.393  31.586   4.139
36781W        W  725  38.556  28.031  13.377
36782W        W  726  20.065  12.213  13.891
36783W        W  727   4.923   0.790   2.221
36784W        W  728  17.135  34.911  11.894
36785W        W  729  22.026   9.694   0.429
36786W        W  730   1.316  24.974  11.551
36787W        W  731   2.738  44.912   3.382
36788W        W  732  16.752  41.821  13.878
36789W        W  733  34.905  25.982   0.378
36790W        W  734  34.102   3.327  11.013
36791W        W  735  10.344  35.019   2.731
36792W        W  736  38.389  22.591  11.412
36793W        W  737   4.736  12.295   5.198
36794W        W  738  17.115   3.434   4.820
36795W        W  739  27.076  22.214  14.995
36796W        W  740  25.697  31.537  11.407
36797W        W  741  14.213  33.002   2.808
36798W        W  742  13.752  39.336   0.355
36799W        W  743  13.642  39.853   2.800
36800W        W  744  22.722  32.960  12.541
36801W        W  745  35.523  14.833  13.397
36802W        W  746  25.518   8.751   0.324
36803W        W  747  29.502   2.461  11.415
36804W        W  748  35.376   2.831   3.821
36805W        W  749   2.256   2.385   2.236
36806W        W  750  39.505  23.725   1.870
36807W        W  751  34.071  14.299  14.309
36808W        W  752  19.674   2.298   2.804
36809W        W  753  30.087   0.814  14.466
36810W        W  754  41.831   3.747  13.957
36811W        W  755  36.552  16.281   3.262
36812W        W  756   2.916  36.074  12.529
36813W        W  757  44.428  19.712   1.334
36814W        W  758  35.568  40.848   1.757
36815W        W  759  40.052  22.998   3.710
36816W        W  760  43.349  21.193   4.811
36817W        W  761  39.548  20.654   3.773
36818W        W  762  17.727  17.713   4.154
36819W        W  763  15.634  33.615   1.771
36820W        W  764  23.559  24.202   1.703
36821W        W  765  23.536  17.738   2.187
36822W        W  766   7.684  25.618   1.910
36823W        W  767   3.439  29.112  14.368
36824W        W  768  20.676  35.984  11.595
36825W        W  769  35.432  22.669  11.984
36826W        W  770  11.867  33.614   0.451
36827W        W  771  33.557   6.194  11.477
36828W        W  772   3.923  19.097  14.347
36829W        W  773  35.556  37.035   4.832
36830W        W  774  20.249  38.000  14.802
36831W        W  775  31.585  36.420  14.885
36832W        W  776  37.080  33.537  12.848
36833W        W  777  12.673  32.068  12.524
36834W        W  778  34.050  27.008   1.331
36835W        W  779  39.339   3.218  12.352
36836W        W  780  20.143   3.857  14.409
36837W        W  781  14.818  26.647   1.723
36838W        W  782  28.534  16.806  11.445
36839W        W  783  40.991  30.421   3.338
36840W        W  784   9.198  17.235  14.840
36841W        W  785  39.844  27.014   0.424
36842W        W  786  26.085  27.668  14.904
36843W        W  787  10.278  42.437   3.862
36844W        W  788   2.287  22.603   1.382
36845W        W  789  14.218   6.337   2.256
36846W        W  790   8.872  22.144   2.388
36847W        W  791  24.500   5.438   3.749
36848W        W  792  30.554   9.322  11.463
36849W        W  793  14.776  25.674  11.922
36850W        W  794   7.346   2.941   3.297
36851W        W  795  40.517  35.065   2.724
36852W        W  796   1.450  19.747   3.223
36853W        W  797  17.176  17.229   2.201
36854W        W  798  34.104  18.625  14.515
36855W        W  799  14.230  38.860  12.439
36856W        W  800  28.085  17.192   2.341
36857W        W  801  37.519  37.907  11.525
36858W        W  802  26.504  39.391   2.371
36859W        W  803   1.808  23.587  13.317
36860W        W  804   1.816  12.651   2.662
36861W        W  805  33.912  27.666   1.825
36862W        W  806  38.544  43.415  14.327
36863W        W  807  27.972  17.563  13.799
36864W        W  808   6.235   1.375   2.309
36865W        W  809   6.915  12.208   3.706
36866W        W  810  20.174  13.194  14.780
36867W        W  811   2.356   4.394  14.393
36868W        W  812  38.365  14.185  13.398
36869W        W  813  12.196  27.114  12.394
36870W        W  814  35.470  10.314  12.052
36871W        W  815  27.564  38.048   5.654
36872W        W  816  11.264  33.021  13.063
36873W        W  817  10.299  35.387  12.831
36874W        W  818  11.205   5.882  10.541
36875W        W  819  34.546  35.454   1.378
36876W        W  820  38.481   6.689  13.328
36877W        W  821  24.079  28.965   1.272
36878W        W  822  27.643  42.965   4.254
36879W        W  823  10.772  21.693  10.559
36880W        W  824  16.251  42.371  11.501
36881W        W  825  16.104  36.882   3.830
36882W        W  826  40.947  20.106   0.928
36883W        W  827   8.769  27.492   1.288
36884W        W  828  11.784  23.711  13.382
36885W        W  829  43.786  29.035   4.270
36886W        W  830  40.491  19.579  14.878
36887W        W  831  38.338  16.659  10.533
36888W        W  832   5.890   6.409   1.724
36889W        W  833  29.962   0.290  11.489
36890W        W  834   4.429  33.417  12.076
36891W        W  835  17.260   2.866   3.736
36892W        W  836   8.775  30.539  12.041
36893W        W  837  43.794  20.162   2.366
36894W        W  838  31.078  15.221  11.023
36895W        W  839  30.609  23.571  13.380
36896W        W  840  24.655   6.265   0.483
36897W        W  841  12.790  20.527   0.916
36898W        W  842  12.143  11.868   1.248
36899W        W  843  26.181  36.004   4.299
36900W        W  844  35.460  11.844  13.895
36901W        W  845  39.317  29.961  14.316
36902W        W  846   3.899  39.854  14.863
36903W        W  847  42.777   5.803  12.577
36904W        W  848  27.076  22.014   3.758
36905W        W  849  42.383  24.997  13.057
36906W        W  850  41.018   7.235  13.853
36907W        W  851  35.910  43.834  12.995
36908W        W  852  35.096  36.350   4.798
36909W        W  853  21.087  21.248   2.199
36910W        W  854  37.502  16.152   2.792
36911W        W  855  43.462   3.453  13.356
36912W        W  856  36.448  42.898   4.187
36913W        W  857  17.787   0.370   4.661
36914W        W  858  29.028  41.032   3.851
36915W        W  859   4.302  42.380  14.326
36916W        W  860  28.469  34.584   2.725
36917W        W  861  17.075  31.054   1.814
36918W        W  862  28.615  41.035  13.364
36919W        W  863  36.362  10.871  11.564
36920W        W  864   3.884  18.092   3.757
36921W        W  865   7.221   0.325   4.209
36922W        W  866  28.942   3.265   2.803
36923W        W  867  20.149   5.716   2.179
36924W        W  868  16.111   9.828  10.638
36925W        W  869  41.472  42.836   4.609
36926W        W  870  13.251  24.154  11.504
36927W        W  871  41.012   9.281  10.906
36928W        W  872  41.874   5.746  14.893
36929W        W  873   6.339  29.079   4.664
36930W        W  874   6.222  24.617  14.931
36931W        W  875  37.523  22.174   0.453
36932W        W  876  33.385  37.962  11.080
36933W        W  877  43.373  22.601  14.856
36934W        W  878  31.412  10.246  13.901
36935W        W  879  42.864  31.901   0.752
36936W        W  880  15.172  12.340   2.322
36937W        W  881   6.774  43.305   1.707
36938W        W  882  18.782  32.508  10.156
36939W        W  883  41.442  31.075   4.284
36940W        W  884   6.838  21.712  10.622
36941W        W  885  21.120  40.814   0.445
36942W        W  886  10.742   6.911  10.451
36943W        W  887  25.987  16.642  13.880
36944W        W  888  42.894   8.886   0.365
36945W        W  889  24.086   5.432   2.888
36946W        W  890  25.022  17.755  12.363
36947W        W  891  19.076  32.537   1.820
36948W        W  892   2.461  21.037  11.386
36949W        W  893  18.247   2.803   0.342
36950W        W  894  42.497  26.487  10.495
36951W        W  895  20.158  36.066  11.075
36952W        W  896  38.057  15.646  11.531
36953W        W  897  40.872   1.808   3.650
36954W        W  898   6.922  44.379  13.521
36955W        W  899  12.815  35.501   9.949
36956W        W  900   2.913  10.664  11.575
36957W        W  901  20.250   8.780   3.359
36958W        W  902  39.965  23.083   3.358
36959W        W  903   8.829  15.105  12.874
36960W        W  904   4.406  19.598  12.043
36961W        W  905  13.704  15.098   2.805
36962W        W  906   9.820  20.591  13.812
36963W        W  907  14.640  16.793  10.617
36964W        W  908  13.801  15.300   1.770
36965W        W  909  22.688  43.374   2.417
36966W        W  910  26.476  43.965  12.931
36967W        W  911  31.618  18.600  11.377
36968W        W  912   9.318  35.079  11.967
36969W        W  913   4.429  21.757  12.029
36970W        W  914  12.853   8.890   0.804
36971W        W  915  16.302   6.361   1.806
36972W        W  916  23.624  32.888   0.342
36973W        W  917  15.614  28.489  10.596
36974W        W  918  26.053  15.294   4.626
36975W        W  919  25.108  37.075  10.406
36976W        W  920  10.775   5.773   3.168
36977W        W  921  38.032   3.889   3.337
36978W        W  922  16.236  23.657   2.310
36979W        W  923  29.498   8.862  12.047
36980W        W  924  41.927  23.084  11.961
36981W        W  925  35.034   0.356  12.520
36982W        W  926  31.520  36.563  10.532
36983W        W  927  23.047   0.287  11.486
36984W        W  928   3.793  22.703   4.319
36985W        W  929  31.945   1.802  10.896
36986W        W  930  29.111  22.145   4.785
36987W        W  931  44.318  43.451  11.867
36988W        W  932  18.053  21.616  14.930
36989W        W  933  17.171  33.064   1.327
36990W        W  934  21.159   4.407  10.024
36991W        W  935   7.727  24.183   2.187
36992W        W  936  40.479  36.478   0.850
36993W        W  937  40.363  44.354   1.731
36994W        W  938  15.262   7.777  11.929
36995W        W  939  31.127   9.380   3.356
36996W        W  940   6.288   6.754  13.858
36997W        W  941  15.753  23.085  12.833
36998W        W  942  39.832  14.738   3.170
36999W        W  943  21.733  35.472  10.537
37000W        W  944  24.606  40.470   0.419
37001W        W  945  19.126   8.354  14.485
37002W        W  946   9.251  37.551   2.818
37003W        W  947  27.631  16.193   5.256
37004W        W  948   1.764  36.592  13.453
37005W        W  949   5.930  19.700   2.687
37006W        W  950  12.191  12.218  12.887
37007W        W  951   4.276  32.526   0.260
37008W        W  952  35.455  29.460  13.409
37009W        W  953   5.776  33.491   1.380
37010W        W  954  44.788  17.184  11.543
37011W        W  955  40.427  10.309  13.811
37012W        W  956  17.703  38.848  14.890
37013W        W  957  24.634  27.663   1.269
37014W        W  958  29.625  20.600   2.835
37015W        W  959   3.221  28.076  13.405
37016W        W  960  16.749  36.994   2.693
37017W        W  961  29.606  27.594   3.632
37018W        W  962  12.341  29.036   4.239
37019W        W  963  40.392  17.290   0.783
37020W        W  964  19.277  44.905   3.280
37021W        W  965  28.631  44.972  14.430
37022W        W  966   4.702  23.114  12.841
37023W        W  967   4.895  26.544   2.771
37024W        W  968   1.957  34.596   1.429
37025W        W  969  40.968  19.255   3.204
37026W        W  970   0.912  44.878  13.464
37027W        W  971  44.403  43.980   3.188
37028W        W  972   7.293  18.065   0.243
37029W        W  973  27.016  40.420   1.243
37030W        W  974  17.640   5.748  10.132
37031W        W  975  26.629  44.292  11.543
37032W        W  976  19.772  24.617  10.921
37033W        W  977  30.517  40.846   3.163
37034W        W  978   8.825  26.486  13.480
37035W        W  979  26.138   7.359  10.523
37036W        W  980  28.951   2.935  12.529
37037W        W  981  39.937  12.159   1.713
37038W        W  982  43.274  16.631   2.222
37039W        W  983  39.987  17.090   0.807
37040W        W  984  11.751  26.957  14.307
37041W        W  985  16.602  39.853  13.897
37042W        W  986  23.143  18.651  14.000
37043W        W  987  36.882   4.874  11.925
37044W        W  988   1.344  21.722  11.930
37045W        W  989  42.386  37.936   2.856
37046W        W  990  41.523   2.919   4.711
37047W        W  991  30.600  29.082  13.395
37048W        W  992  23.591  19.613  13.900
37049W        W  993  19.199   0.298  12.946
37050W        W  994  26.956  36.390  13.404
37051W        W  995   3.296   1.953   2.283
37052W        W  996  28.948   3.716   1.327
37053W        W  997  33.445  36.573  10.412
37054W        W  998  30.027  33.617  11.597
37055W        W  999  24.115  40.439  14.328
37056W        W 1000   0.324  23.170   2.670
37057W        W 1001  13.675  30.539  11.118
37058W        W 1002  32.601  13.246   3.764
37059W        W 1003  18.553  38.920   1.338
37060W        W 1004   7.402  19.717  10.475
37061W        W 1005  29.439  35.485  12.560
37062W        W 1006  32.434  10.317   0.838
37063W        W 1007  31.072  40.443   3.663
37064W        W 1008   5.342  35.587  11.464
37065W        W 1009  11.321   3.342   4.684
37066W        W 1010  42.429  30.160  11.447
37067W        W 1011  23.239  37.354  11.434
37068W        W 1012  35.855   7.357  13.817
37069W        W 1013  12.725  10.209   3.201
37070W        W 1014  23.137  32.488  11.560
37071W        W 1015  16.679   9.196   2.790
37072W        W 1016  21.626  27.179   0.803
37073W        W 1017   8.893  32.090  11.424
37074W        W 1018  28.179   8.776  11.900
37075W        W 1019  27.513   4.751  10.539
37076W        W 1020  18.606  31.469  11.967
37077W        W 1021  22.508  14.692   1.921
37078W        W 1022   4.274  29.575   4.654
37079W        W 1023  22.647   1.937  12.397
37080W        W 1024  10.275   4.711   2.337
37081W        W 1025  13.781  32.509  11.534
37082W        W 1026  37.972  19.199   4.672
37083W        W 1027  44.882  37.461  10.423
37084W        W 1028  14.782  10.327  13.547
37085W        W 1029  24.096  31.032  11.082
37086W        W 1030  33.122  10.315  12.895
37087W        W 1031   5.815   8.167  13.451
37088W        W 1032  12.246  19.079   2.202
37089W        W 1033  22.509  17.089  13.495
37090W        W 1034  39.539  13.662   2.765
37091W        W 1035  21.742   2.934  11.990
37092W        W 1036  13.148  26.603  10.995
37093W        W 1037  22.245  22.236  10.959
37094W        W 1038  26.090  31.512   1.752
37095W        W 1039   6.858  36.876  12.520
37096W        W 1040  25.665  27.192  11.478
37097W        W 1041  23.493  15.185   0.466
37098W        W 1042  19.577  41.311  14.811
37099W        W 1043  29.550   8.718  13.378
37100W        W 1044   1.969  24.994   4.697
37101W        W 1045  41.491  40.985   2.854
37102W        W 1046  18.677  20.692  12.970
37103W        W 1047  23.598  34.929  11.576
37104W        W 1048  33.542  32.939  14.931
37105W        W 1049   4.849  15.778  13.315
37106W        W 1050  15.706   4.427   4.717
37107W        W 1051   8.186   2.251  12.456
37108W        W 1052   8.871   7.384  13.335
37109W        W 1053  33.000  23.007  10.596
37110W        W 1054  29.074  21.201  11.899
37111W        W 1055  14.715  39.918   3.781
37112W        W 1056   5.842   9.305  13.344
37113W        W 1057  14.217  16.136   1.886
37114W        W 1058  21.530  18.207   1.235
37115W        W 1059   4.887  22.057   2.773
37116W        W 1060   9.375   6.313   2.902
37117W        W 1061   5.424   7.737   4.219
37118W        W 1062  40.331  32.454  12.578
37119W        W 1063  25.598  12.287   2.230
37120W        W 1064  17.568  35.021   1.829
37121W        W 1065  25.196   6.369   1.704
37122W        W 1066   8.316  44.355   1.721
37123W        W 1067  40.409  11.147   0.392
37124W        W 1068   1.870  32.012  14.792
37125W        W 1069  30.020  21.077  11.068
37126W        W 1070  21.227  37.856  10.980
37127W        W 1071   3.821  44.416   3.645
37128W        W 1072  42.805   1.389   3.298
37129W        W 1073  40.957  22.568   2.703
37130W        W 1074   3.318   9.676  11.550
37131W        W 1075  26.986  34.483  11.990
37132W        W 1076  41.003  16.316  12.958
37133W        W 1077  27.098  23.187  13.516
37134W        W 1078  25.046  43.859  11.061
37135W        W 1079  18.276   8.784   0.960
37136W        W 1080   4.933  15.729   2.297
37137W        W 1081  29.943   8.727  12.400
37138W        W 1082   9.772  14.641  10.455
37139W        W 1083  16.245  29.007   2.392
37140W        W 1084  43.497   7.836  11.550
37141W        W 1085  42.393  44.923   1.382
37142W        W 1086  10.196  39.995   0.860
37143W        W 1087   8.762  30.547   3.261
37144W        W 1088  25.670  40.366   0.805
37145W        W 1089  30.140  24.085  13.944
37146W        W 1090   2.801   8.175  12.931
37147W        W 1091  22.523   4.308  14.288
37148W        W 1092  24.641  13.614  13.421
37149W        W 1093  40.966  30.010  12.367
37150W        W 1094  14.331  27.591  12.015
37151W        W 1095  23.003  19.271  11.396
37152W        W 1096  40.872   3.885  13.982
37153W        W 1097  18.160   1.329  12.490
37154W        W 1098  25.500  19.668   0.442
37155W        W 1099   3.445   0.941   4.648
37156W        W 1100  20.157  37.042  12.052
37157W        W 1101   0.946  37.409  10.024
37158W        W 1102  40.314  33.113   3.336
37159W        W 1103  35.385  34.525  14.434
37160W        W 1104  32.430  38.049   2.413
37161W        W 1105  30.533  29.484   3.641
37162W        W 1106  39.434  12.304  13.825
37163W        W 1107  20.150  40.940   3.218
37164W        W 1108   1.327  23.696   0.289
37165W        W 1109  43.824   8.405   2.256
37166W        W 1110   8.264  23.064   4.272
37167W        W 1111  20.107   9.854   1.815
37168W        W 1112  10.147  20.188  10.577
37169W        W 1113  16.210   3.795   4.819
37170W        W 1114  27.970   8.765   1.901
37171W        W 1115  43.997   3.359   4.213
37172W        W 1116  12.323   3.262   1.730
37173W        W 1117  13.117   6.859  10.411
37174W        W 1118  31.484  11.285  13.510
37175W        W 1119   9.159   8.660   4.293
37176W        W 1120  27.505  24.006   0.962
37177W        W 1121  44.853  23.209   1.420
37178W        W 1122  11.649  44.996   1.278
37179W        W 1123  14.170  15.720   3.825
37180W        W 1124  43.860  19.767   4.769
37181W        W 1125  33.495  35.923   5.215
37182W        W 1126   5.281  41.520  11.449
37183W        W 1127   9.814   4.772   1.343
37184W        W 1128  17.197  36.960   4.754
37185W        W 1129   6.390  39.917   2.681
37186W        W 1130   2.759  29.551  12.879
37187W        W 1131  24.150  23.685   2.241
37188W        W 1132  26.168   3.823   0.325
37189W        W 1133   8.709  30.039   4.195
37190W        W 1134  11.175  19.090   1.258
37191W        W 1135   2.395  21.180  10.528
37192W        W 1136  11.848  25.202  13.372
37193W        W 1137  15.789  20.626   3.231
37194W        W 1138  35.442  24.637  14.321
37195W        W 1139  36.442  30.614   3.692
37196W        W 1140  13.172  32.908   2.903
37197W        W 1141  27.120   9.798   2.254
37198W        W 1142  27.536  34.047   1.921
37199W        W 1143  32.484  42.886   0.452
37200W        W 1144  17.707  42.366  12.546
37201W        W 1145  23.524  25.027  12.865
37202W        W 1146   5.701  20.730   0.782
37203W        W 1147  43.901   0.346  11.873
37204W        W 1148  22.158  16.090  10.554
37205W        W 1149  17.773  20.581  13.023
37206W        W 1150  38.570  15.811  13.014
37207W        W 1151  19.709  31.591  11.476
37208W        W 1152  17.201  37.493   3.189
37209W        W 1153  22.204   2.334   0.371
37210W        W 1154  15.732  24.709  10.971
37211W        W 1155  22.241   7.764  13.333
37212W        W 1156  15.683  27.526  12.371
37213W        W 1157  17.080  17.256   5.177
37214W        W 1158  14.829  25.217   0.305
37215W        W 1159  37.020  20.272  11.402
37216W        W 1160  35.963  13.188   4.763
37217W        W 1161  34.074  20.043   4.837
37218W        W 1162   5.801  18.082   3.198
37219W        W 1163  41.520  23.023   3.695
37220W        W 1164  30.163  39.494   3.329
37221W        W 1165  14.167  18.599  10.944
37222W        W 1166  41.801  18.111   3.748
37223W        W 1167  28.156  20.523   3.177
37224W        W 1168  32.438  22.086  13.374
37225W        W 1169  17.716  38.895   3.303
37226W        W 1170  43.851  27.616  12.857
37227W        W 1171  32.490   1.276  12.045
37228W        W 1172   2.816  38.458  11.531
37229W        W 1173  13.693   5.435  10.482
37230W        W 1174  35.465  42.873  13.032
37231W        W 1175  13.687  19.603  11.507
37232W        W 1176  34.991  31.059  14.512
37233W        W 1177   0.384  33.534   1.408
37234W        W 1178  33.000  15.782   3.672
37235W        W 1179  41.016  34.517  13.351
37236W        W 1180  29.552  37.384  11.977
37237W        W 1181   9.646  41.015  12.434
37238W        W 1182   1.783  17.078  14.833
37239W        W 1183  11.849  24.515   0.327
37240W        W 1184  30.457  37.565  12.010
37241W        W 1185  41.931  39.829  11.601
37242W        W 1186   8.160  15.733   4.151
37243W        W 1187  21.657   2.351   2.873
37244W        W 1188  24.483   8.782  13.386
37245W        W 1189  30.162  23.037  14.287
37246W        W 1190  43.412  39.832  14.777
37247W        W 1191  40.968   3.728  11.561
37248W        W 1192  43.942  34.091   2.411
37249W        W 1193  12.120  26.021   2.879
37250W        W 1194   5.212   1.318  13.064
37251W        W 1195  29.515  19.729  10.122
37252W        W 1196  21.608   0.938   2.401
37253W        W 1197  29.937  41.352  12.059
37254W        W 1198  31.127  28.477  14.960
37255W        W 1199  22.149   1.867   4.159
37256W        W 1200  32.951   6.271  13.463
37257W        W 1201  41.798   4.762   0.433
37258W        W 1202  19.582  13.762  10.949
37259W        W 1203   2.805  12.199  10.463
37260W        W 1204  14.200  24.171   2.285
37261W        W 1205  37.003   9.766  12.539
37262W        W 1206  28.490   5.418   1.750
37263W        W 1207  44.969  25.082   3.163
37264W        W 1208  13.667  24.077   2.314
37265W        W 1209  32.913  40.931   0.949
37266W        W 1210  32.000  10.793  13.422
37267W        W 1211  22.530  33.973   3.777
37268W        W 1212  37.532  38.048   2.373
37269W        W 1213   6.212   7.341   4.603
37270W        W 1214  33.101  23.022  12.065
37271W        W 1215  27.606  23.190  12.054
37272W        W 1216  24.992  16.779  12.524
37273W        W 1217  43.287  37.844  13.937
37274W        W 1218  19.107  20.610   1.360
37275W        W 1219   0.922  19.617  10.155
37276W        W 1220  27.010   7.906   0.930
37277W        W 1221  31.050   9.356  13.391
37278W        W 1222   8.357  12.187  12.042
37279W        W 1223  37.846  15.632   3.861
37280W        W 1224  24.516   3.217  13.808
37281W        W 1225  42.839  29.128   4.727
37282W        W 1226   8.385  12.681   4.201
37283W        W 1227  10.674   4.279   2.249
37284W        W 1228   1.287  15.266  12.458
37285W        W 1229  13.274   7.322  12.427
37286W        W 1230  35.497  33.931   3.691
37287W        W 1231  16.157  39.542   1.232
37288W        W 1232  44.892  18.578  11.993
37289W        W 1233  38.523  22.706  13.058
37290W        W 1234  28.522  37.369   2.708
37291W        W 1235  26.075  28.995  14.325
37292W        W 1236  17.288   9.655  12.962
37293W        W 1237  20.096  34.396  12.948
37294W        W 1238  19.690  25.563  13.516
37295W        W 1239  21.674  23.606  11.485
37296W        W 1240   3.226  41.432  14.321
37297W        W 1241  36.967   1.894   2.272
37298W        W 1242  22.117  23.637  10.434
37299W        W 1243  27.522   8.383   3.666
37300W        W 1244  30.151   6.680  13.801
37301W        W 1245  38.053   0.788   2.308
37302W        W 1246  12.737   9.347   3.382
37303W        W 1247  11.675   9.703  13.475
37304W        W 1248   7.677  30.148   1.372
37305W        W 1249  12.786  32.442   4.214
37306W        W 1250  19.780  30.537   0.283
37307W        W 1251  24.992  15.139  11.398
37308W        W 1252  22.997  22.506   4.113
37309W        W 1253  26.554  21.757   2.855
37310W        W 1254  30.945  21.557   4.737
37311W        W 1255  12.650  35.074  12.347
37312W        W 1256  30.064   0.911   3.151
37313W        W 1257  30.014  21.519   3.747
37314W        W 1258  17.646  32.050  12.045
37315W        W 1259   7.342  29.143   1.834
37316W        W 1260  39.439  30.576   3.701
37317W        W 1261  23.102  15.306  12.979
37318W        W 1262  43.002  43.315   0.902
37319W        W 1263  40.354  44.375   2.701
37320W        W 1264  39.868  35.865  13.861
37321W        W 1265  34.431  25.125   3.371
37322W        W 1266  41.843  20.126  10.470
37323W        W 1267  14.627  15.578  11.858
37324W        W 1268  22.116  27.520  12.973
37325W        W 1269  27.094  10.158  10.916
37326W        W 1270  41.936  41.964  10.427
37327W        W 1271  35.483  24.165  14.017
37328W        W 1272  11.789  42.354  12.427
37329W        W 1273   4.870  20.722  14.875
37330W        W 1274   3.805  34.929  10.589
37331W        W 1275   2.315  42.301  11.573
37332W        W 1276  18.120  25.564  12.895
37333W        W 1277   0.781  19.646  14.848
37334W        W 1278  30.122   8.357  11.526
37335W        W 1279  40.333  28.954   2.689
37336W        W 1280  13.219  44.978   3.799
37337W        W 1281   2.390  26.612   0.758
37338W        W 1282  41.299  43.913  11.538
37339W        W 1283  40.909  13.232   2.253
37340W        W 1284   2.237   8.851  14.472
37341W        W 1285   2.239  16.601   1.405
37342W        W 1286  44.376  16.264   0.444
37343W        W 1287  29.642  31.063   3.184
37344W        W 1288  35.853  28.464  12.982
37345W        W 1289  15.727  14.702  10.980
37346W        W 1290  35.462  10.664   2.335
37347W        W 1291  27.075  32.413   0.958
37348W        W 1292  35.020  14.142   2.739
37349W        W 1293   6.784   7.718  12.476
37350W        W 1294  38.471  10.195   2.278
37351W        W 1295  30.150   2.413   2.332
37352W        W 1296  18.735  34.567  14.818
37353W        W 1297  19.157   0.925  10.491
37354W        W 1298   6.195  44.492   9.960
37355W        W 1299  13.671  18.774   0.751
37356W        W 1300  41.880  41.902   4.741
37357W        W 1301  42.975  19.103   0.462
37358W        W 1302  25.145  32.501   4.304
37359W        W 1303  28.468   5.731  13.902
37360W        W 1304   1.240  30.581  10.896
37361W        W 1305  23.552  29.552   2.312
37362W        W 1306  40.994  25.997   4.751
37363W        W 1307  27.473  40.313  13.959
37364W        W 1308  43.461  22.046  10.984
37365W        W 1309  37.955  19.255  10.488
37366W        W 1310  27.611  39.534  12.541
37367W        W 1311  37.426  29.576  10.965
37368W        W 1312  12.181  39.882  11.045
37369W        W 1313   7.285  36.356   0.410
37370W        W 1314   0.923  42.816  10.611
37371W        W 1315   2.759  34.450   4.796
37372W        W 1316  18.560   8.794  11.472
37373W        W 1317   2.880  18.151  11.407
37374W        W 1318  35.860  24.119   3.318
37375W        W 1319   8.821  31.495   4.318
37376W        W 1320   8.220  16.186  13.806
37377W        W 1321   1.257  28.583   1.405
37378W        W 1322   2.895  29.579  11.092
37379W        W 1323  44.762   9.794   2.691
37380W        W 1324   7.343   1.734  12.526
37381W        W 1325  41.801   9.209   0.352
37382W        W 1326   0.347   1.855   4.612
37383W        W 1327  43.331  24.697   0.748
37384W        W 1328  42.480  22.581   0.948
37385W        W 1329  14.239  27.160   3.364
37386W        W 1330   8.237  28.484   1.861
37387W        W 1331   5.866   7.239  14.360
37388W        W 1332  36.575  13.754   1.322
37389W        W 1333  30.913  44.409  12.852
37390W        W 1334  38.871  20.173   2.882
37391W        W 1335   1.743  37.562   2.887
37392W        W 1336  20.643   7.193  14.983
37393W        W 1337  44.436  26.661   4.348
37394W        W 1338  33.088  36.960   2.209
37395W        W 1339   0.297  18.243   4.610
37396W        W 1340  14.167  28.151  12.996
37397W        W 1341   5.789  23.656  13.957
37398W        W 1342  28.453  26.517   5.223
37399W        W 1343  20.677  37.443   2.222
37400W        W 1344  38.981   4.921   0.882
37401W        W 1345  26.560  33.091  14.351
37402W        W 1346   9.274   7.910   0.298
37403W        W 1347  37.968  44.914   1.911
37404W        W 1348  31.003  22.017   1.835
37405W        W 1349  20.063  19.191  14.985
37406W        W 1350  36.861  25.119  11.960
37407W        W 1351   3.738  13.619   2.724
37408W        W 1352  23.733   9.384   1.368
37409W        W 1353   5.820  35.411   0.318
37410W        W 1354  29.975  37.394  12.361
37411W        W 1355  24.033   4.365   0.422
37412W        W 1356  40.378  37.075   1.848
37413W        W 1357  20.232  28.021   2.900
37414W        W 1358  26.120   6.679  11.052
37415W        W 1359  11.222   0.929   2.866
37416W        W 1360  21.257  37.389  10.114
37417W        W 1361  30.013   4.796   4.160
37418W        W 1362  22.029  37.902   1.830
37419W        W 1363  25.094  33.906   0.404
37420W        W 1364   3.271  11.728   0.476
37421W        W 1365  29.979  31.985  10.937
37422W        W 1366   6.403  44.769  10.959
37423W        W 1367  33.626  28.152  12.429
37424W        W 1368  14.243  42.340  14.295
37425W        W 1369   5.426   0.818   0.426
37426W        W 1370  37.476  33.116  10.440
37427W        W 1371   7.787  12.687  11.102
37428W        W 1372  44.270   0.904   2.808
37429W        W 1373  28.676  38.480  11.456
37430W        W 1374  40.547  41.456  11.537
37431W        W 1375   7.879  31.444   4.755
37432W        W 1376  36.919  41.337  12.476
37433W        W 1377   5.194  17.099   4.299
37434W        W 1378  29.135   9.818   4.817
37435W        W 1379  14.279  24.625  12.845
37436W        W 1380  44.867  14.643  11.446
37437W        W 1381  31.079  21.080   2.403
37438W        W 1382  26.039  43.380   1.769
37439W        W 1383  10.316   5.246  10.470
37440W        W 1384  42.829   4.877   0.776
37441W        W 1385  11.694  14.291   3.857
37442W        W 1386  36.489   5.287  13.900
37443W        W 1387  27.592  10.258  10.944
37444W        W 1388  38.912  35.513   3.185
37445W        W 1389  44.915   8.173   3.154
37446W        W 1390   8.879  30.617  12.497
37447W        W 1391  13.809  24.151   0.818
37448W        W 1392  13.766  25.982  10.970
37449W        W 1393  30.967   1.308  11.036
37450W        W 1394   6.408  29.933   0.282
37451W        W 1395   9.364   6.191   2.280
37452W        W 1396  34.013  24.035   2.805
37453W        W 1397  44.501  28.090  10.495
37454W        W 1398  43.961  42.311   0.396
37455W        W 1399  12.647  26.663   0.853
37456W        W 1400  44.304  23.017  14.912
37457W        W 1401  32.919  34.373  13.428
37458W        W 1402  14.719   7.374   0.950
37459W        W 1403   4.726   8.376   3.755
37460W        W 1404   1.247  32.538   2.683
37461W        W 1405   2.271  29.507  12.851
37462W        W 1406   3.306   1.287   3.742
37463W        W 1407  44.760  35.064   4.299
37464W        W 1408  11.845  30.478  11.886
37465W        W 1409  28.036  15.235   3.787
37466W        W 1410   3.851  22.092  14.889
37467W        W 1411  44.398  21.726  13.998
37468W        W 1412  31.640  38.975  14.988
37469W        W 1413  35.462  20.164   1.221
37470W        W 1414   9.752  33.982   0.390
37471W        W 1415   7.342  40.862   2.327
37472W        W 1416  40.841   5.724   4.225
37473W        W 1417   9.706  29.948   1.263
37474W        W 1418  17.703  37.535   4.287
37475W        W 1419  25.155  18.241   2.369
37476W        W 1420  30.416  32.047   3.187
37477W        W 1421   6.909   5.365   0.765
37478W        W 1422  13.813   3.410   3.227
37479W        W 1423  11.184  13.304   4.641
37480W        W 1424  34.030  27.995  12.472
37481W        W 1425  27.685  44.437   1.742
37482W        W 1426  31.961   5.328   2.305
37483W        W 1427  30.518   5.264   0.820
37484W        W 1428  20.592  40.847   3.281
37485W        W 1429  28.980  33.891   2.875
37486W        W 1430  19.672  16.751   3.341
37487W        W 1431  37.366  14.639  13.847
37488W        W 1432  14.795   9.754   1.391
37489W        W 1433  25.025  23.133   1.713
37490W        W 1434  36.459   3.424  11.448
37491W        W 1435  29.593   0.753   0.944
37492W        W 1436  27.954  20.572  13.851
37493W        W 1437   6.906   9.649  10.414
37494W        W 1438  17.769   5.817  11.989
37495W        W 1439  32.506  31.610  12.936
37496W        W 1440  23.230   1.453  14.300
37497W        W 1441  28.012   2.830   1.893
37498W        W 1442  23.193  42.780  11.371
37499W        W 1443  14.230   3.352  12.059
37500W        W 1444  26.467  17.168  11.905
37501W        W 1445  22.627  43.825   4.264
37502W        W 1446  33.116  17.304   4.189
37503W        W 1447   6.375  34.438  11.528
37504W        W 1448  14.165   9.321   0.377
37505W        W 1449  13.318  31.414  10.090
37506W        W 1450   3.363  23.514  10.984
37507W        W 1451  30.557  18.699  13.809
37508W        W 1452  36.416  31.108   3.272
37509W        W 1453   2.466  15.286  10.492
37510W        W 1454  23.703  13.707   4.305
37511W        W 1455   0.338  18.257   1.401
37512W        W 1456   5.414  38.540   4.609
37513W        W 1457   5.215   9.861   3.382
37514W        W 1458  44.280  41.374   0.904
37515W        W 1459   7.322   1.880   4.669
37516W        W 1460  32.631  24.595  14.335
37517W        W 1461  19.223  42.502  13.935
37518W        W 1462   4.795  33.931   1.419
37519W        W 1463  23.547  42.360   2.818
37520W        W 1464  26.996  23.676  12.365
37521W        W 1465  12.323  17.624  10.973
37522W        W 1466  16.187  14.118  11.876
37523W        W 1467  39.420   5.321  13.446
37524W        W 1468  39.061  28.623   3.317
37525W        W 1469  17.556   8.175   2.369
37526W        W 1470  39.546  40.538  12.059
37527W        W 1471  13.170  44.313   5.306
37528W        W 1472   7.268   7.328  12.560
37529W        W 1473  28.458  29.150   4.623
37530W        W 1474  18.109  29.155   1.750
37531W        W 1475   0.379  33.431  13.545
37532W        W 1476  28.960  44.383  14.900
37533W        W 1477  26.669  15.220  13.018
37534W        W 1478   5.932  20.162   4.286
37535W        W 1479  29.975  20.641  14.349
37536W        W 1480  40.332  43.323  14.309
37537W        W 1481  38.520  15.696   3.213
37538W        W 1482   3.770  25.070  13.921
37539W        W 1483  25.535  15.295   3.380
37540W        W 1484   0.969  29.593   1.930
37541W        W 1485  16.102  21.124   4.328
37542W        W 1486  10.180  29.980  13.797
37543W        W 1487  36.062   1.789   3.738
37544W        W 1488  29.477  44.339   2.871
37545W        W 1489  36.429   9.742  11.567
37546W        W 1490  14.771  44.892   0.828
37547W        W 1491   0.274  25.122   3.862
37548W        W 1492  43.771  29.651  13.919
37549W        W 1493  28.540  19.231   3.675
37550W        W 1494  44.445   9.883   0.935
37551W        W 1495  35.106  10.646   3.187
37552W        W 1496  33.093  32.117  11.392
37553W        W 1497  16.588  14.639  13.934
37554W        W 1498  11.325  34.912   1.838
37555W        W 1499   1.401  16.286   3.648
37556W        W 1500   7.912  37.024   2.839
37557W        W 1501  25.580  18.576   4.227
37558W        W 1502  34.951  29.618   0.299
37559W        W 1503  13.814  13.322  11.464
37560W        W 1504   8.793  44.332  12.000
37561W        W 1505  19.097  20.261  13.930
37562W        W 1506  29.137  37.011   4.703
37563W        W 1507   9.755   9.694   2.812
37564W        W 1508  29.163  27.013  13.872
37565W        W 1509   1.884   3.879  10.645
37566W        W 1510  23.706  25.050   3.701
37567W        W 1511  43.488  33.382  10.441
37568W        W 1512  40.497  25.188  10.507
37569W        W 1513  26.534  31.035   4.624
37570W        W 1514  36.533  21.144   1.793
37571W        W 1515  16.152  10.690   0.876
37572W        W 1516   4.327   1.262  12.990
37573W        W 1517  23.505   0.279   2.203
37574W        W 1518  11.702  26.183  14.761
37575W        W 1519   8.684  13.729  13.345
37576W        W 1520  14.210  39.490   2.699
37577W        W 1521  31.438  42.469  11.454
37578W        W 1522  10.877  15.255   4.784
37579W        W 1523  14.626   9.244   2.376
37580W        W 1524  40.051   8.879   4.223
37581W        W 1525  12.715  19.591  11.546
37582W        W 1526   3.743  21.126   2.342
37583W        W 1527   2.441  20.038  10.431
37584W        W 1528  40.803   4.424  11.020
37585W        W 1529  33.063  18.142  14.863
37586W        W 1530   8.334   2.404   1.743
37587W        W 1531  17.181   4.400   1.421
37588W        W 1532  17.119  44.846   2.807
37589W        W 1533   2.935  21.098  11.477
37590W        W 1534  38.853  35.890  10.570
37591W        W 1535  32.005  41.969   5.167
37592W        W 1536  39.037  36.944  12.460
37593W        W 1537  14.616   1.427  11.594
37594W        W 1538  37.034  43.955   1.322
37595W        W 1539  13.192  34.019   2.707
37596W        W 1540  41.531  15.793   1.223
37597W        W 1541  21.206  23.540   2.416
37598W        W 1542  33.970   9.663   2.231
37599W        W 1543  20.233  41.988  11.045
37600W        W 1544  28.953  22.124  11.937
37601W        W 1545  19.665  13.823   0.809
37602W        W 1546   5.426   1.323   4.224
37603W        W 1547  24.210   4.416   2.247
37604W        W 1548   5.247  42.012   1.912
37605W        W 1549  11.194   6.283   0.437
37606W        W 1550   6.400  24.118  14.824
37607W        W 1551  27.535  28.528   1.717
37608W        W 1552  12.749  29.594   3.631
37609W        W 1553  39.061  39.050  13.339
37610W        W 1554  24.034  26.074  12.398
37611W        W 1555  27.489   5.413  12.363
37612W        W 1556  41.816  23.539  12.024
37613W        W 1557  15.168  41.523  10.640
37614W        W 1558  20.059  23.659   5.640
37615W        W 1559  13.803  28.163  14.358
37616W        W 1560   0.356   5.833   1.365
37617W        W 1561  37.081   4.856  10.519
37618W        W 1562  33.557  10.808  13.480
37619W        W 1563  19.136  18.723  11.114
37620W        W 1564  42.453  32.078  14.367
37621W        W 1565  28.965  10.651  12.036
37622W        W 1566  15.261  10.693   4.202
37623W        W 1567  17.210  17.800   4.141
37624W        W 1568  38.891  29.584  10.405
37625W        W 1569   4.918  16.120   3.813
37626W        W 1570  25.217   4.870  10.022
37627W        W 1571  35.958  17.608   3.257
37628W        W 1572  15.798  26.178  13.392
37629W        W 1573   2.311   7.824   3.169
37630W        W 1574  37.534  41.293   2.212
37631W        W 1575  34.873  19.270  14.024
37632W        W 1576  23.697  33.062  12.884
37633W        W 1577  40.375  33.585  12.385
37634W        W 1578  10.151  36.525  10.536
37635W        W 1579  22.592  43.869  12.492
37636W        W 1580  20.557   2.827   1.320
37637W        W 1581  36.919  23.552  11.859
37638W        W 1582  38.425  15.627   2.397
37639W        W 1583  35.544   2.758   1.852
37640W        W 1584  42.410  26.150  14.007
37641W        W 1585  21.610  35.570   4.764
37642W        W 1586  32.562  29.475  11.013
37643W        W 1587  20.576  20.253  14.479
37644W        W 1588   6.188  19.216   4.659
37645W        W 1589  20.119  23.051   0.749
37646W        W 1590  38.064   9.821  12.966
37647W        W 1591   8.786  44.379  12.390
37648W        W 1592  27.105  44.989  13.535
37649W        W 1593   0.281   6.769   3.778
37650W        W 1594  33.896  29.655   0.957
37651W        W 1595  40.379  26.674  11.983
37652W        W 1596  22.642  39.960  10.973
37653W        W 1597  33.961   5.819  12.043
37654W        W 1598  30.953  36.485  14.004
37655W        W 1599  37.061   5.203  12.072
37656W        W 1600  44.001  20.741   1.834
37657W        W 1601   1.936  39.526   4.239
37658W        W 1602  22.520  26.686  14.365
37659W        W 1603  33.623  25.629   4.628
37660W        W 1604  14.796  38.900   3.384
37661W        W 1605  25.133  16.126  14.449
37662W        W 1606  34.020  37.000   4.307
37663W        W 1607  37.875  44.398  14.427
37664W        W 1608  17.133   1.748  13.519
37665W        W 1609   0.942  27.988   2.873
37666W        W 1610  26.003  18.069   4.220
37667W        W 1611  39.915  32.613   2.308
37668W        W 1612  14.729  32.902   0.287
37669W        W 1613  35.388  10.140   0.914
37670W        W 1614  27.606   2.756  11.929
37671W        W 1615   7.288  18.748   4.610
37672W        W 1616  34.438   8.264  14.331
37673W        W 1617  37.979  37.874   3.344
37674W        W 1618  12.328  13.686  13.329
37675W        W 1619   7.716  42.819   2.768
37676W        W 1620  11.727  22.006   1.369
37677W        W 1621   8.802  11.323  11.587
37678W        W 1622   6.402  27.092  14.840
37679W        W 1623  30.460  34.406   3.634
37680W        W 1624  10.815   6.703   1.842
37681W        W 1625   2.317   1.250   3.163
37682W        W 1626   1.321   6.242   0.454
37683W        W 1627  19.553   7.327   3.841
37684W        W 1628   4.228  15.261  12.913
37685W        W 1629  24.516  18.183  12.066
37686W        W 1630   5.705  38.879  11.060
37687W        W 1631  36.394  27.080   3.724
37688W        W 1632  11.639  44.279   2.365
37689W        W 1633   7.367  28.624   1.397
37690W        W 1634  31.569  31.558  12.390
37691W        W 1635   2.784  36.953  12.418
37692W        W 1636  18.721  37.946   3.660
37693W        W 1637  25.040  41.422  12.951
37694W        W 1638  17.124  27.006   4.184
37695W        W 1639   2.924   3.719   9.970
37696W        W 1640   7.807   2.440   4.255
37697W        W 1641  30.036  33.616  13.051
37698W        W 1642  22.092  34.073   2.278
37699W        W 1643  18.110  30.430   2.757
37700W        W 1644   5.206  23.163   3.829
37701W        W 1645  33.952   3.760   2.840
37702W        W 1646  43.920  44.988  11.014
37703W        W 1647  40.497  42.872  12.520
37704W        W 1648   2.343   1.763   2.324
37705W        W 1649  35.020  42.309   4.339
37706W        W 1650  24.666  21.722   0.881
37707W        W 1651  14.610  20.654   4.830
37708W        W 1652   7.870  32.440   0.384
37709W        W 1653   5.426  26.529  14.763
37710W        W 1654  36.593  26.128  11.556
37711W        W 1655  40.800   5.877  11.103
37712W        W 1656  17.574  28.568   3.704
37713W        W 1657  36.981  38.383   2.292
37714W        W 1658  30.912  26.645  10.484
37715W        W 1659   2.864   3.237  14.347
37716W        W 1660  37.907  20.126  11.437
37717W        W 1661  42.422  41.532  12.097
37718W        W 1662  44.997   9.874   4.831
37719W        W 1663  10.858  34.537   1.410
37720W        W 1664  24.122   1.328  12.356
37721W        W 1665  44.269  12.233   2.312
37722W        W 1666  13.755   1.412  13.007
37723W        W 1667  24.620  42.796   9.933
37724W        W 1668  19.253   5.208  14.016
37725W        W 1669   3.270  29.556   1.769
37726W        W 1670  36.367  43.782  13.411
37727W        W 1671  35.868  19.069   3.679
37728W        W 1672   8.661  10.311   3.169
37729W        W 1673  26.991   3.224   2.674
37730W        W 1674  12.236  10.251   2.784
37731W        W 1675  35.046   2.871   2.410
37732W        W 1676  44.260  29.014  12.536
37733W        W 1677   8.360  18.589   1.450
37734W        W 1678  33.480  31.622  10.934
37735W        W 1679  40.809  32.450   4.276
37736W        W 1680  37.027  12.300   4.312
37737W        W 1681  18.715  17.575   3.687
37738W        W 1682  15.084  34.054   5.601
37739W        W 1683  16.214  30.104   3.630
37740W        W 1684  41.878  30.546  14.848
37741W        W 1685  10.278  37.071  10.082
37742W        W 1686  15.270  15.258   0.279
37743W        W 1687   5.295  44.428  14.015
37744W        W 1688  37.376  28.015  14.791
37745W        W 1689   8.253  16.778  13.939
37746W        W 1690   0.419  37.453   3.162
37747W        W 1691  23.527  27.152   0.324
37748W        W 1692  31.075  36.018  14.397
37749W        W 1693  43.483  29.050  11.089
37750W        W 1694  27.552  11.199   0.472
37751W        W 1695  29.108  14.249   9.925
37752W        W 1696  35.395  35.600  13.019
37753W        W 1697  10.682  37.514   1.295
37754W        W 1698  30.510  34.934   2.258
37755W        W 1699  14.812  14.621   3.769
37756W        W 1700  21.661   1.420  10.412
37757W        W 1701  28.096  25.083  14.783
37758W        W 1702  19.684  28.028   2.807
37759W        W 1703  21.716  19.250  10.509
37760W        W 1704  20.128  35.079   4.617
37761W        W 1705  12.348  26.143   3.683
37762W        W 1706  34.871  14.600  13.394
37763W        W 1707   1.967  25.041  11.473
37764W        W 1708  42.934   1.777   2.721
37765W        W 1709  39.336  19.647  12.086
37766W        W 1710  23.037  11.798   4.751
37767W        W 1711  35.403  20.187  11.411
37768W        W 1712  34.435  10.347   2.265
37769W        W 1713  29.951   5.393   1.833
37770W        W 1714  20.602  15.201  10.449
37771W        W 1715  25.032  31.451  12.576
37772W        W 1716  44.842  11.791   2.731
37773W        W 1717   6.846  16.089   1.278
37774W        W 1718  39.824  38.954  11.918
37775W        W 1719  32.889  41.886  14.937
37776W        W 1720  13.816  30.009  14.966
37777W        W 1721  38.898  34.904   3.333
37778W        W 1722   9.163   7.792  11.996
37779W        W 1723  25.982  23.112  10.588
37780W        W 1724  12.226  40.857  11.863
37781W        W 1725  38.974  15.650   4.334
37782W        W 1726  35.490  13.648   2.397
37783W        W 1727  43.946  37.025  12.883
37784W        W 1728  34.584  29.074  14.475
37785W        W 1729   5.740  36.385  10.445
37786W        W 1730  38.387   9.788  11.487
37787W        W 1731   2.764  20.694   3.326
37788W        W 1732  34.494  13.764   3.278
37789W        W 1733  38.494  19.624  10.570
37790W        W 1734  41.870   0.429   0.415
37791W        W 1735   4.344   8.695   4.308
37792W        W 1736  30.443  23.059  13.898
37793W        W 1737   9.708  14.252  11.884
37794W        W 1738  41.536  43.844   0.954
37795W        W 1739   0.460  26.481   2.300
37796W        W 1740  35.570  25.166  14.000
37797W        W 1741  35.455  29.987  13.861
37798W        W 1742  35.969  26.597  14.333
37799W        W 1743  13.123  14.280   0.359
37800W        W 1744   3.846  42.797  13.311
37801W        W 1745  31.466  38.431   2.895
37802W        W 1746  38.990  44.437   1.891
37803W        W 1747   6.777  42.331  11.022
37804W        W 1748   3.878  20.687   0.873
37805W        W 1749  31.510   5.392   2.251
37806W        W 1750  28.171   5.339  11.528
37807W        W 1751  25.213  11.720  13.443
37808W        W 1752  22.208  37.493  12.546
37809W        W 1753  34.886   0.276   1.360
37810W        W 1754  19.069   2.906   3.304
37811W        W 1755  28.510   3.215  10.559
37812W        W 1756  27.953  35.888  14.942
37813W        W 1757  20.049  30.000   1.212
37814W        W 1758  23.641  34.075  12.546
37815W        W 1759   5.767  15.215  13.502
37816W        W 1760  22.550  16.108  12.092
37817W        W 1761   1.949  36.069   4.114
37818W        W 1762  35.887   5.256  11.949
37819W        W 1763  31.417  24.221   2.742
37820W        W 1764   6.427  29.571   4.340
37821W        W 1765  11.127  40.326  10.491
37822W        W 1766  37.043  19.056  12.555
37823W        W 1767  19.115  22.229   4.762
37824W        W 1768  15.674  21.192  12.049
37825W        W 1769  41.908  39.927   4.766
37826W        W 1770  33.446  10.226   4.806
37827W        W 1771  40.799  36.567   0.346
37828W        W 1772  12.291  29.034  13.449
37829W        W 1773  42.971  34.075   4.173
37830W        W 1774  22.700  40.874  13.378
37831W        W 1775  23.042  33.437  12.092
37832W        W 1776   9.384  16.152  11.949
37833W        W 1777  44.403   8.254   1.299
37834W        W 1778  18.598  19.159  13.479
37835W        W 1779   1.323  20.155   2.842
37836W        W 1780  12.293  11.724  10.960
37837W        W 1781   8.273   8.327   3.826
37838W        W 1782  25.538  27.680   4.676
37839W        W 1783  43.326  12.178  14.764
37840W        W 1784  20.128  44.977  14.402
37841W        W 1785  10.194  39.063   1.327
37842W        W 1786   0.310  37.834   2.361
37843W        W 1787  25.577  21.725   0.840
37844W        W 1788   8.264  30.639   3.258
37845W        W 1789   3.905  44.927   1.710
37846W        W 1790  30.559  22.078   1.933
37847W        W 1791  15.736  38.495  12.065
37848W        W 1792  25.161  14.101  11.021
37849W        W 1793  19.164  34.879  10.924
37850W        W 1794  14.824  30.497  10.890
37851W        W 1795  21.552   6.429  12.065
37852W        W 1796  24.697   6.849  11.398
37853W        W 1797  18.087  31.588  13.007
37854W        W 1798  11.768   4.731  13.026
37855W        W 1799  24.210  33.131   1.749
37856W        W 1800   2.462  35.071   4.214
37857W        W 1801  42.415  18.071   2.708
37858W        W 1802  12.338   6.318   2.878
37859W        W 1803  41.407  12.817   2.890
37860W        W 1804  23.614  10.218   2.362
37861W        W 1805  28.563  28.655  12.561
37862W        W 1806  38.479  16.641  11.118
37863W        W 1807  37.085  37.034   4.796
37864W        W 1808   9.829   8.796   3.247
37865W        W 1809  31.499  12.133  13.036
37866W        W 1810   5.819  30.644  12.972
37867W        W 1811  23.033   0.794  11.880
37868W        W 1812  35.960   2.901  10.469
37869W        W 1813   1.835   1.323   0.752
37870W        W 1814   0.401  16.285  14.783
37871W        W 1815  29.457  21.237   0.925
37872W        W 1816  21.049  14.111   9.959
37873W        W 1817  40.451  44.448  14.922
37874W        W 1818   8.298  42.857  12.509
37875W        W 1819  39.010  23.538  11.122
37876W        W 1820  19.133  19.553  14.399
37877W        W 1821  31.424   4.747   2.823
37878W        W 1822   1.915  44.885   3.271
37879W        W 1823  23.211  22.721   3.270
37880W        W 1824  14.257   1.844   1.439
37881W        W 1825   8.828  18.284   1.361
37882W        W 1826  38.468  26.129  12.875
37883W        W 1827  22.112  42.953  14.308
37884W        W 1828   5.276   4.744   3.770
37885W        W 1829   4.913  44.417  11.937
37886W        W 1830  39.408  14.739  11.886
37887W        W 1831   9.860   7.804  10.942
37888W        W 1832  44.776   3.449   4.752
37889W        W 1833  17.591  30.530   0.346
37890W        W 1834  16.647  25.482  13.791
37891W        W 1835  28.128  39.954  10.964
37892W        W 1836  28.144  36.867  11.078
37893W        W 1837  28.065  43.825   1.817
37894W        W 1838  10.147  44.834  12.562
37895W        W 1839   2.333  26.067  14.494
37896W        W 1840  43.772   9.783  10.602
37897W        W 1841  11.241  32.053  12.896
37898W        W 1842  40.312  22.516  12.002
37899W        W 1843  36.498  25.513   1.723
37900W        W 1844   7.845  32.636  13.860
37901W        W 1845  41.318   8.794   3.865
37902W        W 1846   4.308   0.341  12.544
37903W        W 1847  36.890  31.992   5.262
37904W        W 1848  28.955   0.481  12.911
37905W        W 1849  15.683   3.804   4.787
37906W        W 1850   5.285   3.933   2.787
37907W        W 1851  19.546   9.375   1.871
37908W        W 1852   3.944  39.984   1.726
37909W        W 1853  16.668  28.988  12.427
37910W        W 1854  42.461  37.918  12.913
37911W        W 1855  15.627   6.781  14.866
37912W        W 1856  43.996   1.261   2.723
37913W        W 1857  14.728  28.020   1.333
37914W        W 1858  32.959  33.025   1.277
37915W        W 1859  11.861  26.659  13.344
37916W        W 1860  38.385  29.134  12.503
37917W        W 1861  10.790  22.113  11.595
37918W        W 1862  38.978  11.729   2.901
37919W        W 1863  39.940  42.848   3.341
37920W        W 1864  28.469  24.479  10.471
37921W        W 1865  17.148  25.515  12.867
37922W        W 1866  20.056  23.531   1.831
37923W        W 1867  18.168  39.936   0.385
37924W        W 1868  25.620   9.343   1.813
37925W        W 1869  28.489   1.310   1.319
37926W        W 1870  17.190  28.037   3.717
37927W        W 1871  43.451  27.554  13.819
37928W        W 1872   9.173  35.873   3.740
37929W        W 1873  23.230  19.549  12.093
37930W        W 1874  10.691   0.877  10.602
37931W        W 1875   4.419  36.475   4.803
37932W        W 1876  37.506  24.036   4.337
37933W        W 1877  32.100  30.437  11.597
37934W        W 1878  34.959  16.140  14.391
37935W        W 1879   8.307  29.465   3.870
37936W        W 1880   3.259  44.463  13.029
37937W        W 1881  40.461  18.775  12.040
37938W        W 1882  27.616  37.969   2.363
37939W        W 1883   5.807   7.262   4.158
37940W        W 1884   9.691  42.828   3.162
37941W        W 1885  35.482  43.509   1.865
37942W        W 1886   1.377  28.181   2.870
37943W        W 1887  22.134  10.659   4.761
37944W        W 1888  25.181  39.814  13.384
37945W        W 1889  23.988  38.552   4.764
37946W        W 1890  27.005   0.807   0.326
37947W        W 1891  20.757  26.659  12.846
37948W        W 1892  34.542  36.971  13.436
37949W        W 1893  39.409  16.286  14.969
37950W        W 1894   0.403   6.344   0.460
37951W        W 1895  44.793  34.565   0.286
37952W        W 1896   8.331  16.710   0.419
37953W        W 1897  27.113  32.485   0.383
37954W        W 1898  37.022  34.369  14.346
37955W        W 1899  10.169   2.306  13.492
37956W        W 1900  30.106  15.154  10.595
37957W        W 1901   3.749  23.074   2.779
37958W        W 1902  15.820  15.292   0.902
37959W        W 1903  42.425  21.649  14.315
37960W        W 1904  24.572  32.632  12.391
37961W        W 1905  11.786  23.193   4.645
37962W        W 1906  30.133  44.855   3.751
37963W        W 1907  42.872  32.495   1.916
37964W        W 1908  32.430  29.955  10.525
37965W        W 1909   4.368  33.602   3.267
37966W        W 1910   4.413   5.902  11.903
37967W        W 1911  19.669  43.504   2.285
37968W        W 1912   9.737  22.654  12.912
37969W        W 1913   8.845  22.129   3.193
37970W        W 1914  36.585  15.743   1.869
37971W        W 1915  26.670  41.404   3.717
37972W        W 1916  21.168  11.735  11.466
37973W        W 1917  17.216   1.777   1.899
37974W        W 1918  11.670  28.145   0.967
37975W        W 1919  17.594   7.682  11.034
37976W        W 1920  22.681  44.418  13.792
37977W        W 1921  29.632  34.376   1.786
37978W        W 1922  20.672  26.675  12.454
37979W        W 1923  16.120  20.117   1.741
37980W        W 1924  20.208  19.668  10.595
37981W        W 1925  16.077  18.066  14.893
37982W        W 1926   9.234   1.780   1.241
37983W        W 1927  20.113  19.585   2.825
37984W        W 1928  31.149  23.671   4.811
37985W        W 1929  42.372  44.350  14.968
37986W        W 1930  23.116  40.467   2.767
37987W        W 1931  29.494   2.903   0.297
37988W        W 1932   6.301  28.051  14.003
37989W        W 1933   5.757   4.229  14.339
37990W        W 1934   2.793  42.330   4.605
37991W        W 1935  36.431  24.182   3.789
37992W        W 1936  13.159  38.333  14.993
37993W        W 1937  41.024  31.959   1.216
37994W        W 1938  24.068  16.172   3.337
37995W        W 1939  44.835  40.433   1.347
37996W        W 1940  44.431   2.447   3.855
37997W        W 1941  36.851  24.212   0.299
37998W        W 1942  30.033  30.917  12.945
37999W        W 1943  21.064   8.354  11.933
38000W        W 1944  28.183  31.052  10.609
38001W        W 1945  34.886  22.075  13.366
38002W        W 1946   0.981  20.133   4.680
38003W        W 1947  24.147  38.366  11.980
38004W        W 1948  25.626  26.475  13.997
38005W        W 1949  17.132   0.480  11.560
38006W        W 1950  43.287  28.033  10.149
38007W        W 1951  26.501  25.065  14.020
38008W        W 1952  26.002  29.605   4.709
38009W        W 1953  18.786  42.023  13.976
38010W        W 1954   0.964  25.531   0.328
38011W        W 1955   2.273  34.495  10.903
38012W        W 1956   3.246  13.214  12.531
38013W        W 1957  15.775  35.527   1.847
38014W        W 1958  20.640  43.020   2.767
38015W        W 1959   9.845  37.418   4.296
38016W        W 1960  28.562  18.627   9.505
38017W        W 1961  39.492   1.854   2.687
38018W        W 1962  21.157  11.142  14.407
38019W        W 1963  23.710  23.071  11.477
38020W        W 1964  34.867  12.819  10.578
38021W        W 1965  41.039  31.135   1.426
38022W        W 1966  31.072  44.823   4.838
38023W        W 1967  13.775  15.194  13.436
38024W        W 1968   7.211  28.068   0.830
38025W        W 1969  34.916  25.048   4.162
38026W        W 1970  23.543  22.014   1.859
38027W        W 1971  15.234  39.524   4.167
38028W        W 1972   5.296  43.437   0.824
38029W        W 1973  40.542   3.284  12.873
38030W        W 1974  12.663  19.708  10.534
38031W        W 1975  27.455  33.948   0.804
38032W        W 1976   5.788  25.702  13.045
38033W        W 1977  13.678   9.180  13.930
38034W        W 1978   0.768  14.763   1.779
38035W        W 1979  44.405   6.728   4.608
38036W        W 1980  44.482  37.831   3.198
38037W        W 1981  24.543  30.639  10.483
38038W        W 1982  14.790  13.337  13.457
38039W        W 1983  44.006   4.789   2.285
38040W        W 1984  14.732  34.059  11.467
38041W        W 1985   1.873   8.876   1.780
38042W        W 1986   7.878  33.448   5.156
38043W        W 1987  27.611  40.429   2.256
38044W        W 1988   7.755  30.486  13.026
38045W        W 1989  27.978  44.979   1.828
38046W        W 1990   1.285  37.913  14.340
38047W        W 1991  26.661  43.289   3.738
38048W        W 1992  25.672  44.306  11.563
38049W        W 1993  39.415   8.317   0.813
38050W        W 1994  25.083  12.122  11.864
38051W        W 1995  44.818  36.038  14.032
38052W        W 1996  27.671  26.128   0.914
38053W        W 1997  29.149   5.234  13.029
38054W        W 1998  41.379  20.067   4.669
38055W        W 1999   8.809  40.041   0.304
38056W        W 2000   0.345  41.338   1.709
38057W        W 2001  12.768  15.230  12.501
38058W        W 2002  12.649  40.394   3.812
38059W        W 2003  11.760  40.015   4.619
38060W        W 2004  41.483  17.274  12.406
38061W        W 2005  43.913  22.714  13.805
38062W        W 2006  40.913  40.966  14.469
38063W        W 2007  40.869  36.033  14.308
38064W        W 2008  25.563   0.858   4.194
38065W        W 2009  18.251  27.501   3.216
38066W        W 2010   0.286  15.154  14.777
38067W        W 2011  42.526   9.343  11.970
38068W        W 2012  28.093  21.188   5.164
38069W        W 2013  18.723  35.868  10.982
38070W        W 2014  19.177  43.488  10.973
38071W        W 2015  11.244  11.155  10.960
38072W        W 2016  25.072  32.439  11.097
38073W        W 2017  12.725   5.746  10.610
38074W        W 2018  12.168  11.686   0.866
38075W        W 2019  10.145  34.606  10.554
38076W        W 2020   7.386  12.845  13.319
38077W        W 2021  41.835  18.667  10.530
38078W        W 2022  28.593  22.581  13.498
38079W        W 2023   4.881  13.235  12.392
38080W        W 2024  28.644  35.479  12.578
38081W        W 2025  41.492  33.055  14.942
38082W        W 2026  20.571  17.263   4.134
38083W        W 2027  21.718  27.988   0.304
38084W        W 2028  15.283   8.790  11.487
38085W        W 2029  11.692  12.709  11.115
38086W        W 2030  40.340  33.021   0.766
38087W        W 2031  39.876  18.626   0.834
38088W        W 2032  24.050  21.524  10.573
38089W        W 2033   3.264  17.099  11.931
38090W        W 2034  12.268  30.439  11.444
38091W        W 2035  26.534  30.524   3.634
38092W        W 2036  29.551  38.051  14.967
38093W        W 2037  25.211  44.356   4.599
38094W        W 2038   6.393  32.951  13.964
38095W        W 2039   5.381  28.444   3.837
38096W        W 2040  30.998   6.236   3.798
38097W        W 2041  42.992  28.571  13.326
38098W        W 2042  16.784  17.712   2.772
38099W        W 2043  32.023  27.102   0.342
38100W        W 2044  42.352   8.713  12.919
38101W        W 2045  42.491  10.346  10.456
38102W        W 2046  34.402  18.561   3.729
38103W        W 2047  16.078  35.453   0.896
38104W        W 2048   5.297  13.682   3.851
38105W        W 2049  16.706  37.518  13.801
38106W        W 2050  25.642  18.189   0.324
38107W        W 2051  31.089   4.352  13.827
38108W        W 2052  14.112   7.868  11.611
38109W        W 2053  17.687  32.026  12.868
38110W        W 2054  41.967  14.280  14.805
38111W        W 2055   2.450  42.434   0.246
38112W        W 2056  29.119  28.956  14.336
38113W        W 2057  23.548  26.028  10.973
38114W        W 2058   1.803  27.992  13.914
38115W        W 2059  11.828  24.483  13.001
38116W        W 2060  28.012   3.795  14.368
38117W        W 2061   0.921  15.766  14.448
38118W        W 2062  41.815  21.666   0.423
38119W        W 2063  28.019   0.958  14.950
38120W        W 2064  11.855  13.815   2.222
38121W        W 2065  21.603  15.092  14.006
38122W        W 2066   8.246  10.189  12.051
38123W        W 2067  14.283  40.935  13.360
38124W        W 2068  29.099  21.729  12.952
38125W        W 2069  34.419  17.158  10.904
38126W        W 2070   1.482  24.162  10.919
38127W        W 2071  42.999  13.238   0.476
38128W        W 2072   3.854   5.800  11.106
38129W        W 2073  24.096  15.229   4.779
38130W        W 2074  37.547   8.247  10.899
38131W        W 2075  26.688  13.608  14.337
38132W        W 2076  44.398  31.064   3.148
38133W        W 2077   4.905  33.612  10.426
38134W        W 2078  33.889   0.985   2.844
38135W        W 2079  13.307  24.986  13.532
38136W        W 2080  28.587  36.589  12.440
38137W        W 2081  31.902  11.671  13.434
38138W        W 2082   5.272  18.109  13.831
38139W        W 2083  14.317  21.225  11.096
38140W        W 2084  25.517  26.117   4.668
38141W        W 2085  32.511  14.271  11.417
38142W        W 2086  13.169  38.829  11.377
38143W        W 2087  36.463  35.415  11.943
38144W        W 2088  27.161  13.312  13.051
38145W        W 2089  12.251  29.050   1.357
38146W        W 2090  34.406   6.244   2.238
38147W        W 2091   3.299  38.065   2.305
38148W        W 2092  16.151  11.854  11.535
38149W        W 2093  25.610  34.068  14.307
38150W        W 2094  23.073   3.336  14.877
38151W        W 2095  17.766  19.660   0.754
38152W        W 2096  17.185  32.001   5.174
38153W        W 2097   1.277  42.489   3.759
38154W        W 2098  22.528  28.476   0.435
38155W        W 2099  16.728   6.375   2.296
38156W        W 2100  10.851  19.545  13.951
38157W        W 2101  26.038  25.549   4.739
38158W        W 2102  35.601   4.819  11.898
38159W        W 2103  35.882  29.426   1.396
38160W        W 2104   9.649  16.133  13.505
38161W        W 2105  26.044  41.989   3.166
38162W        W 2106  28.148  42.935  10.445
38163W        W 2107  24.174  37.434   3.187
38164W        W 2108  41.316   1.906  10.446
38165W        W 2109  20.258  30.062  10.572
38166W        W 2110  20.240  25.536  11.440
38167W        W 2111  29.953  19.093   2.813
38168W        W 2112   9.338  16.154   4.126
38169W        W 2113  25.121  28.537   3.797
38170W        W 2114  37.010  15.774  12.828
38171W        W 2115  22.712  35.980   1.380
38172W        W 2116  39.831   7.247   4.262
38173W        W 2117  43.770  15.188  10.473
38174W        W 2118   4.219   6.285   1.798
38175W        W 2119   4.240  18.200  11.483
38176W        W 2120   3.281  19.603  14.776
38177W        W 2121  39.975  19.044   2.328
38178W        W 2122  10.684  10.195  11.036
38179W        W 2123   7.848  27.025  13.970
38180W        W 2124   5.696  14.775  11.971
38181W        W 2125  23.194  43.312  12.021
38182W        W 2126  14.265   8.757  10.952
38183W        W 2127  28.581  39.556   3.800
38184W        W 2128   2.901   0.883   0.831
38185W        W 2129  28.680  24.646   1.710
38186W        W 2130  44.456   8.844   1.417
38187W        W 2131  20.045  13.747  13.841
38188W        W 2132  41.966   8.844   0.388
38189W        W 2133  33.947   6.335  10.608
38190W        W 2134   2.301  30.573  14.936
38191W        W 2135  43.415   4.780   9.947
38192W        W 2136  20.554  24.536  11.014
38193W        W 2137  17.773   9.809   1.212
38194W        W 2138  22.706  42.844   3.702
38195W        W 2139  10.147  30.504  10.530
38196W        W 2140  43.791  31.912  13.999
38197W        W 2141  38.952  18.782   1.898
38198W        W 2142  36.501  24.683   0.477
38199W        W 2143  34.562   0.276   2.693
38200W        W 2144  26.528  28.957  14.879
38201W        W 2145  42.344  21.646  12.517
38202W        W 2146  44.285  35.501   0.778
38203W        W 2147   8.332  10.201   3.221
38204W        W 2148  21.636  39.534   4.343
38205W        W 2149  13.168  15.305   3.346
38206W        W 2150  41.460   8.753  14.411
38207W        W 2151  20.162  21.565   1.265
38208W        W 2152  11.859   9.376  14.837
38209W        W 2153   3.241  42.924  12.514
38210W        W 2154  42.904   7.328  12.852
38211W        W 2155  18.159  26.555   3.751
38212W        W 2156  44.315   1.452  12.944
38213W        W 2157  34.061  19.558  12.004
38214W        W 2158  18.546  33.538  10.990
38215W        W 2159   2.227  16.799   2.293
38216W        W 2160  17.647   8.749  12.510
38217W        W 2161   7.280  27.073   3.306
38218W        W 2162   5.228  40.450   1.437
38219W        W 2163  16.596  33.043  11.856
38220W        W 2164  37.861  15.601  14.803
38221W        W 2165  40.957   3.451  13.370
38222W        W 2166  24.188   0.294   4.291
38223W        W 2167   5.225  39.506   0.743
38224W        W 2168   2.462  18.280   4.685
38225W        W 2169   9.287   7.908  11.562
38226W        W 2170  22.227  31.080   2.410
38227W        W 2171  28.989  34.436   3.683
38228W        W 2172  16.285   7.332   9.552
38229W        W 2173  23.001   8.183   0.438
38230W        W 2174  37.537  43.934   3.688
38231W        W 2175  39.532  22.543   1.302
38232W        W 2176  32.561   4.385   4.218
38233W        W 2177  30.456  35.038  11.881
38234W        W 2178  33.046   2.807  10.894
38235W        W 2179  21.198   0.490  11.466
38236W        W 2180  16.777   0.269  12.376
38237W        W 2181  43.295  30.930   0.804
38238W        W 2182  38.416  10.812  10.900
38239W        W 2183  32.497   9.785  14.467
38240W        W 2184  24.535  21.688  11.499
38241W        W 2185  12.234  28.470   5.615
38242W        W 2186  22.704   7.186  10.111
38243W        W 2187  41.943   8.331   3.729
38244W        W 2188  10.139   2.796  10.072
38245W        W 2189  16.318   1.849   1.381
38246W        W 2190  13.180  32.996  10.053
38247W        W 2191  22.595  14.589   4.220
38248W        W 2192   3.320  26.604  11.079
38249W        W 2193   2.818  18.240   3.351
38250W        W 2194  14.666   4.861   3.731
38251W        W 2195  39.361  32.630   4.334
38252W        W 2196  14.701  16.303   2.221
38253W        W 2197   2.753  41.470  11.492
38254W        W 2198   3.925  27.668  14.865
38255W        W 2199  29.662  34.985  11.410
38256W        W 2200   5.350  12.812   3.690
38257W        W 2201   9.735  37.989   2.821
38258W        W 2202  28.469  11.210   0.466
38259W        W 2203  39.390   4.723   1.221
38260W        W 2204  28.563  19.286   2.253
38261W        W 2205  38.394  38.455   3.371
38262W        W 2206  29.087   7.708   2.263
38263W        W 2207  14.280  16.762   4.150
38264W        W 2208  21.041  21.157  14.839
38265W        W 2209  11.201   1.757  13.355
38266W        W 2210  17.673  41.982   1.931
38267W        W 2211   4.799  11.862  11.440
38268W        W 2212   0.939  17.073  11.567
38269W        W 2213  43.915   6.256  12.888
38270W        W 2214  19.134  16.669  12.076
38271W        W 2215  11.697   2.727  14.006
38272W        W 2216  31.457   5.860   0.450
38273W        W 2217  20.235  28.135  11.499
38274W        W 2218  10.381  15.095  10.073
38275W        W 2219  40.952  23.546  11.490
38276W        W 2220  23.044   4.444  14.510
38277W        W 2221  10.327  21.513   3.802
38278W        W 2222  30.487  30.930   2.382
38279W        W 2223  28.936  31.601   0.452
38280W        W 2224  39.877  33.887  14.485
38281W        W 2225  17.607  14.748  14.463
38282W        W 2226  22.213  13.732  11.481
38283W        W 2227   8.285  27.065   5.694
38284W        W 2228  29.981  20.657   4.680
38285W        W 2229  23.500  25.049   1.716
38286W        W 2230  24.512  13.274   0.912
38287W        W 2231  14.636   8.745   4.295
38288W        W 2232   0.490  25.484   3.288
38289W        W 2233  41.040  44.364  13.547
38290W        W 2234  43.948   2.282   0.879
38291W        W 2235   0.390  42.004  13.518
38292W        W 2236  27.042  42.293   4.177
38293W        W 2237  16.212  12.356   0.755
38294W        W 2238  40.993  44.819  14.840
38295W        W 2239  41.301  26.048   4.276
38296W        W 2240  12.662  43.432  12.933
38297W        W 2241  39.925  26.087  11.465
38298W        W 2242  22.587  22.999   2.709
38299W        W 2243  18.194  35.898   0.746
38300W        W 2244   9.394  16.684   4.219
38301W        W 2245  34.985  29.424  12.066
38302W        W 2246  33.592  39.399  11.559
38303W        W 2247  35.013  22.629  13.346
38304W        W 2248   0.934  20.584   1.229
38305W        W 2249  29.936  44.330  13.013
38306W        W 2250  43.305  29.564  11.598
38307W        W 2251   1.428  34.040  14.322
38308W        W 2252  28.136  41.318  13.365
38309W        W 2253  35.919   6.696  11.041
38310W        W 2254   8.382  27.963   5.127
38311W        W 2255  44.350  27.494  11.869
38312W        W 2256  27.652  15.796  10.506
38313W        W 2257   7.767  14.650  12.828
38314W        W 2258   0.288  12.168   4.807
38315W        W 2259  29.436  11.322   1.784
38316W        W 2260  34.055  22.549   4.332
38317W        W 2261  21.093  17.169   0.860
38318W        W 2262  31.904   9.353   3.280
38319W        W 2263  18.773  41.844  12.356
38320W        W 2264  22.611   3.720   0.786
38321W        W 2265  13.238  11.640   5.133
38322W        W 2266  43.832  10.825   1.394
38323W        W 2267  34.982  41.422  11.589
38324W        W 2268  11.132  36.429  13.987
38325W        W 2269  13.726   2.270   1.390
38326W        W 2270  17.125  37.389   2.214
38327W        W 2271  42.006  10.848   0.942
38328W        W 2272  21.548  25.674  11.907
38329W        W 2273  16.630   5.201   3.213
38330W        W 2274  13.153  39.005  11.864
38331W        W 2275   6.352   5.765   1.313
38332W        W 2276  35.046  10.278   4.703
38333W        W 2277  37.439  27.031   0.808
38334W        W 2278  34.612  43.470   4.315
38335W        W 2279  22.033  10.219   4.326
38336W        W 2280  36.429   7.894  12.343
38337W        W 2281  37.458  29.062  10.073
38338W        W 2282   6.800  34.477   2.824
38339W        W 2283  13.656  32.396   4.745
38340W        W 2284   3.349  35.464   4.705
38341W        W 2285  36.354  26.197  12.020
38342W        W 2286  28.929   9.332   1.369
38343W        W 2287  38.982   5.719  12.508
38344W        W 2288   6.722  10.713   0.473
38345W        W 2289  35.064  38.854   3.206
38346W        W 2290  29.132  13.813   1.799
38347W        W 2291   2.232  14.771   1.739
38348W        W 2292   1.788   9.881   3.780
38349W        W 2293  37.011  41.398  11.978
38350W        W 2294  27.020  25.484   4.650
38351W        W 2295  22.049  19.210   4.624
38352W        W 2296  35.020  37.439  12.879
38353W        W 2297  22.707  29.994  14.373
38354W        W 2298   0.862  18.745  12.929
38355W        W 2299  14.253  41.998   1.785
38356W        W 2300  15.759  24.642   5.287
38357W        W 2301  37.462   6.399  14.811
38358W        W 2302  31.542  43.411   0.858
38359W        W 2303  26.575   9.306  13.482
38360W        W 2304  31.508   5.324  10.933
38361W        W 2305  32.895  35.581   2.764
38362W        W 2306   6.210  41.795   2.784
38363W        W 2307  31.028   4.217   4.736
38364W        W 2308   3.956   5.827   3.375
38365W        W 2309   4.893  37.942   1.354
38366W        W 2310  43.877  16.657   4.265
38367W        W 2311  18.269  36.025   2.811
38368W        W 2312  38.999  38.345   3.798
38369W        W 2313  14.828  39.965   4.300
38370W        W 2314  14.278  37.438   3.763
38371W        W 2315  18.665   2.960   1.317
38372W        W 2316   2.743  16.765  12.826
38373W        W 2317  40.422  42.520  11.520
38374W        W 2318  39.423   6.797  14.348
38375W        W 2319  33.997  22.524  10.953
38376W        W 2320  18.594  12.782   4.761
38377W        W 2321   3.257  42.332  14.396
38378W        W 2322   2.909  19.152  12.925
38379W        W 2323  21.186   0.879   2.418
38380W        W 2324  13.677  14.203  12.365
38381W        W 2325  39.994   7.860   1.450
38382W        W 2326  12.660   0.894   3.724
38383W        W 2327  29.974  44.343  14.026
38384W        W 2328  37.085  19.582  14.868
38385W        W 2329  35.094   9.301  10.639
38386W        W 2330   0.880  13.755  13.010
38387W        W 2331  33.407  16.191  11.122
38388W        W 2332  28.681  31.090  11.927
38389W        W 2333  25.090  36.461   2.386
38390W        W 2334  22.244  31.638  13.825
38391W        W 2335  16.653  25.591   3.228
38392W        W 2336  13.174   4.786  14.930
38393W        W 2337   3.414  22.009  13.400
38394W        W 2338  43.832  42.506  14.967
38395W        W 2339  11.319  31.414  12.997
38396W        W 2340   3.233  29.031  14.978
38397W        W 2341  11.251   8.267  13.979
38398W        W 2342  29.614  11.631  14.331
38399W        W 2343  11.739  35.410   1.240
38400W        W 2344  26.092   6.276  12.423
38401W        W 2345   0.441   9.155   4.275
38402W        W 2346  24.045  40.411   3.871
38403W        W 2347   9.194  24.559   0.842
38404W        W 2348  31.968  44.318  11.038
38405W        W 2349  35.899  26.574   4.720
38406W        W 2350  43.928  24.566  14.498
38407W        W 2351  12.841   2.856  10.973
38408W        W 2352   3.354  40.513   5.302
38409W        W 2353  29.930  22.154  13.943
38410W        W 2354  44.399  22.199  11.900
38411W        W 2355  23.663  34.410  14.452
38412W        W 2356   9.763  31.441  10.612
38413W        W 2357  10.633  34.082  11.062
38414W        W 2358   0.275   0.981  10.938
38415W        W 2359  30.078  26.085  13.793
38416W        W 2360  36.074  15.598   0.429
38417W        W 2361  15.265  25.485   0.834
38418W        W 2362  25.143  29.438   0.869
38419W        W 2363  20.061  43.292  11.983
38420W        W 2364  10.716  42.432   3.187
38421W        W 2365  22.164  30.485  10.443
38422W        W 2366  11.803  37.453  14.766
38423W        W 2367  16.247  42.851   0.883
38424W        W 2368  20.049  40.021   4.163
38425W        W 2369  21.025   4.802   4.783
38426W        W 2370  18.639  15.210   1.747
38427W        W 2371   5.830  10.706   2.385
38428W        W 2372  29.539  33.995  14.429
38429W        W 2373   9.838  22.591  12.526
38430W        W 2374  43.824  21.158   4.264
38431W        W 2375  11.775  14.625  12.489
38432W        W 2376   2.885  40.000  11.454
38433W        W 2377  36.915   5.316   4.758
38434W        W 2378  15.285   3.907  13.449
38435W        W 2379   6.367  12.156   4.763
38436W        W 2380  33.441  27.510   3.263
38437W        W 2381  12.136  31.544   3.824
38438W        W 2382   8.676  16.134   2.270
38439W        W 2383  25.618   7.355   2.757
38440W        W 2384  39.408  42.451  13.834
38441W        W 2385  33.875   6.713  14.847
38442W        W 2386  40.468  30.045   3.787
38443W        W 2387   0.811   9.383  11.981
38444W        W 2388  36.043  23.187   0.358
38445W        W 2389  10.777  14.621   0.765
38446W        W 2390  38.428  29.646   4.212
38447W        W 2391   1.774  40.326  12.390
38448W        W 2392  32.049  31.051  11.523
38449W        W 2393  16.310  27.041  13.960
38450W        W 2394  12.193  17.061  11.953
38451W        W 2395   7.753  26.631   2.396
38452W        W 2396  26.991  30.507  14.449
38453W        W 2397  10.141  34.910  10.641
38454W        W 2398  17.655  29.540   0.382
38455W        W 2399  24.098  31.992   4.765
38456W        W 2400  28.067   5.393  13.916
38457W        W 2401  17.655  21.233   1.789
38458W        W 2402  38.544  31.486  10.508
38459W        W 2403  35.518  26.979  13.896
38460W        W 2404  19.750  31.529   0.416
38461W        W 2405  31.453  30.139   2.255
38462W        W 2406  10.187  25.197   0.351
38463W        W 2407  27.159  18.131   1.360
38464W        W 2408   6.318  34.510   0.405
38465W        W 2409   6.382   2.425   2.686
38466W        W 2410  21.570   0.934  11.392
38467W        W 2411  28.178  41.958  14.328
38468W        W 2412  31.057  17.783   2.366
38469W        W 2413  30.951  17.263  10.072
38470W        W 2414  33.401  41.393  13.405
38471W        W 2415  29.099  21.732  11.048
38472W        W 2416  27.451  43.010  14.388
38473W        W 2417  18.098  16.300  12.823
38474W        W 2418  31.958  26.663   0.484
38475W        W 2419  12.701  14.610   3.664
38476W        W 2420  35.898  14.832  14.484
38477W        W 2421  43.021   6.420  14.960
38478W        W 2422  36.367   2.364   3.659
38479W        W 2423  20.608  13.176  14.941
38480W        W 2424  43.469   2.284  12.486
38481W        W 2425  15.728  22.251   1.905
38482W        W 2426  40.918   7.844   3.730
38483W        W 2427   1.799  32.411  12.455
38484W        W 2428   7.408  20.687   0.877
38485W        W 2429   9.798  13.688   4.794
38486W        W 2430  17.222   6.387  13.037
38487W        W 2431  20.195  32.029  12.579
38488W        W 2432  27.674  42.520  12.924
38489W        W 2433   7.198  28.000  13.407
38490W        W 2434  10.233  42.832   4.736
38491W        W 2435  29.561  34.375   4.142
38492W        W 2436  28.458  33.122  11.928
38493W        W 2437  14.641  34.410   3.658
38494W        W 2438  44.914  38.823  11.987
38495W        W 2439  20.611  13.123   2.678
38496W        W 2440  12.689  30.538  14.355
38497W        W 2441  20.043   2.882   4.272
38498W        W 2442  32.417  28.484   3.227
38499W        W 2443  34.428  38.949   0.877
38500W        W 2444  23.133  43.940   4.236
38501W        W 2445  22.066   8.727  10.421
38502W        W 2446  14.809  42.785  12.916
38503W        W 2447  21.711  32.533  14.791
38504W        W 2448  27.632  40.445   0.790
38505W        W 2449  15.653  39.492  12.940
38506W        W 2450  10.237  26.031   3.640
38507W        W 2451  28.062  32.477   1.228
38508W        W 2452  17.691   0.474   3.774
38509W        W 2453  17.091  26.555   0.406
38510W        W 2454  38.523  14.604   3.158
38511W        W 2455  34.002  14.164   5.157
38512W        W 2456  29.620   4.444  13.426
38513W        W 2457   6.400  36.094  13.311
38514W        W 2458   0.806  11.321   1.359
38515W        W 2459  37.087   9.756  10.474
38516W        W 2460  14.151  28.632  12.024
38517W        W 2461  19.276  41.811   0.313
38518W        W 2462   9.321   3.447  14.871
38519W        W 2463  27.537  21.533   1.239
38520W        W 2464  41.800  44.815   0.420
38521W        W 2465   4.414  17.144  12.431
38522W        W 2466  43.832  24.978  11.100
38523W        W 2467  30.000   2.846  13.538
38524W        W 2468  27.996  13.649   3.675
38525W        W 2469  28.514  19.144   3.337
38526W        W 2470  29.985  44.932  12.351
38527W        W 2471  33.386  18.241   0.779
38528W        W 2472  34.467   6.787   1.230
38529W        W 2473  35.067   4.272  11.883
38530W        W 2474  22.161   3.849  13.997
38531W        W 2475  41.513  26.607  14.842
38532W        W 2476  41.937  35.525   2.264
38533W        W 2477  12.217  28.041   4.714
38534W        W 2478   7.253  31.640   5.102
38535W        W 2479  37.513  12.626  12.498
38536W        W 2480   2.418   3.308  12.885
38537W        W 2481  44.291  15.626  12.350
38538W        W 2482   2.763   3.719  11.047
38539W        W 2483  41.490  22.130   1.832
38540W        W 2484  13.754  44.435   5.202
38541W        W 2485  34.468  27.941   3.342
38542W        W 2486  25.120  42.461  11.000
38543W        W 2487  24.674   6.348  14.016
38544W        W 2488  17.248   0.921  13.860
38545W        W 2489  36.873  36.936   4.342
38546W        W 2490  41.416  31.107  13.831
38547W        W 2491  38.554  22.162   3.184
38548W        W 2492   5.805  42.315  10.898
38549W        W 2493   9.700  38.980   0.898
38550W        W 2494  40.903  24.509  11.442
38551W        W 2495  26.626  19.674  13.432
38552W        W 2496   9.659  12.654  14.458
38553W        W 2497   9.386  33.922  13.498
38554W        W 2498  19.580  35.055   4.253
38555W        W 2499   9.372  10.863   1.834
38556W        W 2500  40.476   2.880   2.202
38557W        W 2501   3.789   3.312   2.847
38558W        W 2502   1.858  23.531  12.892
38559W        W 2503  19.723   4.920  10.450
38560W        W 2504  11.692  35.863  13.523
38561W        W 2505  32.561  18.130   1.870
38562W        W 2506  25.009  35.022   1.904
38563W        W 2507  27.636  36.094  11.874
38564W        W 2508  11.756   1.365   2.813
38565W        W 2509  30.535   5.257   1.832
38566W        W 2510  19.666  24.982  13.461
38567W        W 2511  27.043  43.012  13.870
38568W        W 2512   5.808  16.591   3.359
38569W        W 2513  19.640   3.336  13.963
38570W        W 2514  22.022  11.648   2.251
38571W        W 2515  13.249  21.615   0.858
38572W        W 2516  17.190  20.053  14.890
38573W        W 2517  20.130  38.912   0.891
38574W        W 2518   8.221  26.986   4.260
38575W        W 2519  18.290   0.427   4.671
38576W        W 2520  19.241  24.167   2.895
38577W        W 2521  37.838   1.975   0.963
38578W        W 2522   7.269  34.071   1.274
38579W        W 2523  14.273  20.557   0.393
38580W        W 2524  21.535  40.801  12.036
38581W        W 2525  18.700  11.179  10.991
38582W        W 2526   1.774   9.205  13.421
38583W        W 2527  42.819  20.208  13.987
38584W        W 2528  27.641  10.655  12.401
38585W        W 2529  30.038  39.908  14.460
38586W        W 2530  22.739  33.547   9.987
38587W        W 2531  20.131  11.808   0.906
38588W        W 2532  24.610  34.929  12.093
38589W        W 2533   5.913  10.798  14.952
38590W        W 2534  35.940  25.616   1.361
38591W        W 2535  43.894  20.624  10.570
38592W        W 2536  28.604  41.794  10.894
38593W        W 2537   4.766  42.810   2.227
38594W        W 2538  39.412  39.921   1.441
38595W        W 2539  39.520   6.218  13.932
38596W        W 2540  16.663  35.604  12.004
38597W        W 2541   0.807  36.586  12.389
38598W        W 2542  18.111   3.819   2.697
38599W        W 2543   3.444   8.675  12.551
38600W        W 2544   9.390  10.287   3.808
38601W        W 2545   6.225  13.696  10.940
38602W        W 2546   2.728   4.773  13.032
38603W        W 2547  30.937  29.930  10.528
38604W        W 2548  40.969  28.598   3.197
38605W        W 2549  18.615  15.663   3.869
38606W        W 2550  24.978  17.190   4.172
38607W        W 2551  43.509  12.298  11.928
38608W        W 2552  27.459  33.125   4.200
38609W        W 2553   5.366  23.621  13.311
38610W        W 2554  15.136   8.778   1.696
38611W        W 2555  44.462  36.543  12.504
38612W        W 2556  38.498   5.933  13.984
38613W        W 2557  32.620  34.605  14.452
38614W        W 2558   4.941  22.173  11.858
38615W        W 2559  44.928  26.471  12.393
38616W        W 2560   3.709  25.710  10.447
38617W        W 2561  44.906  18.296   1.918
38618W        W 2562  11.730  15.228   1.789
38619W        W 2563  18.608   9.377   3.370
38620W        W 2564  31.548  15.107  14.840
38621W        W 2565  25.020  37.466  10.406
38622W        W 2566   7.758   9.155  10.914
38623W        W 2567  37.515  10.340   0.817
38624W        W 2568  43.775  20.156   3.669
38625W        W 2569  40.891  44.489  10.545
38626W        W 2570  42.371  28.609   0.965
38627W        W 2571  16.131  34.581   0.957
38628W        W 2572  18.697  15.750   2.301
38629W        W 2573  22.553  10.869   2.859
38630W        W 2574   0.982   4.798   3.670
38631W        W 2575  15.696   9.852   4.765
38632W        W 2576  32.108  25.965  11.971
38633W        W 2577  28.949   0.935   0.391
38634W        W 2578  19.637   8.872   1.793
38635W        W 2579   8.665   2.753  11.977
38636W        W 2580  32.544  34.900  12.498
38637W        W 2581  31.143  12.116   2.735
38638W        W 2582   2.437  40.872   0.851
38639W        W 2583  15.296  31.107  10.096
38640W        W 2584   4.352   3.275  11.862
38641W        W 2585  35.460  35.092   1.817
38642W        W 2586  25.616  22.029   0.799
38643W        W 2587  21.597   5.408  11.487
38644W        W 2588  16.076  35.528  11.912
38645W        W 2589  10.311  12.638  12.970
38646W        W 2590   9.735   3.825  12.360
38647W        W 2591  17.189  22.996  12.065
38648W        W 2592  10.337  21.026  14.760
38649W        W 2593  38.070  21.147  13.000
38650W        W 2594  32.569  12.692  12.873
38651W        W 2595  11.786   3.809   2.413
38652W        W 2596  38.484   2.414  12.396
38653W        W 2597   4.221   4.331   0.391
38654W        W 2598  24.139  12.787   1.923
38655W        W 2599  41.897  40.046  13.452
38656W        W 2600   1.893  37.848  10.434
38657W        W 2601  38.969  35.456   4.273
38658W        W 2602   0.975   2.236   1.913
38659W        W 2603  43.906  34.608   3.168
38660W        W 2604  39.555  12.121   2.717
38661W        W 2605  35.477  35.567  10.418
38662W        W 2606  17.068   6.248  12.074
38663W        W 2607  10.218   1.736   0.732
38664W        W 2608  15.198  30.025   0.749
38665W        W 2609  33.414  29.559   1.921
38666W        W 2610  44.293   7.857   1.811
38667W        W 2611   7.383  26.013  11.077
38668W        W 2612   0.889  30.948   0.459
38669W        W 2613  26.172  21.097   1.289
38670W        W 2614  41.294  15.295  10.444
38671W        W 2615  39.448   6.688   2.863
38672W        W 2616  14.747   2.740   4.603
38673W        W 2617   1.477  42.852  14.408
38674W        W 2618  16.174  10.226  13.862
38675W        W 2619  43.472  39.888   0.250
38676W        W 2620  22.104  21.716  12.003
38677W        W 2621  20.170  36.382   0.435
38678W        W 2622  31.449   1.913   4.230
38679W        W 2623  30.972   8.233   3.375
38680W        W 2624   0.928  13.724  13.881
38681W        W 2625  42.516  27.556  12.878
38682W        W 2626  18.050   0.823   1.433
38683W        W 2627  36.440  22.122   0.319
38684W        W 2628  41.959  36.854   3.701
38685W        W 2629   1.952  12.148   1.370
38686W        W 2630  44.385   3.865   1.872
38687W        W 2631  16.669  29.953   0.350
38688W        W 2632   8.814  34.108   0.918
38689W        W 2633  33.896  17.181  14.801
38690W        W 2634   6.405  41.972  12.059
38691W        W 2635  25.670  32.085  13.522
38692W        W 2636   6.882  22.654  12.534
38693W        W 2637  16.120   9.230  11.964
38694W        W 2638  34.567   8.772   4.249
38695W        W 2639   0.370  30.049  14.396
38696W        W 2640  39.402  28.958   4.779
38697W        W 2641   0.927  37.933  12.470
38698W        W 2642  41.531   0.850   0.731
38699W        W 2643  27.669  32.558  11.110
38700W        W 2644   4.802  35.967   1.871
38701W        W 2645  27.152  20.129   3.297
38702W        W 2646  40.374   9.302  12.515
38703W        W 2647   9.885  40.839  13.471
38704W        W 2648  38.571  19.673  14.511
38705W        W 2649  33.604  29.637  11.996
38706W        W 2650  14.266   0.958   2.848
38707W        W 2651  33.453  34.049   0.864
38708W        W 2652  25.557   7.259  12.518
38709W        W 2653  19.136  25.007   3.728
38710W        W 2654   1.860   4.400   4.206
38711W        W 2655  33.004   2.751   1.872
38712W        W 2656   2.257  18.175  14.010
38713W        W 2657  15.145  25.155   4.633
38714W        W 2658  43.409  16.246  11.929
38715W        W 2659  29.060  25.023   4.275
38716W        W 2660  14.647  43.894  11.554
38717W        W 2661  34.074  42.452   3.231
38718W        W 2662  40.533  16.801  13.937
38719W        W 2663  32.026  37.996  14.343
38720W        W 2664  31.151  33.422   5.187
38721W        W 2665   3.275  19.651  13.873
38722W        W 2666   8.791  37.380  13.887
38723W        W 2667  19.144  35.094  12.526
38724W        W 2668  27.042  10.727   3.385
38725W        W 2669  39.527   7.756   0.254
38726W        W 2670   4.907  25.710   1.702
38727W        W 2671  37.382   1.750   4.288
38728W        W 2672  24.990  15.747   3.728
38729W        W 2673  28.605  22.631  11.940
38730W        W 2674  44.343  29.567   2.309
38731W        W 2675   4.797  33.555  14.907
38732W        W 2676  21.602  25.694   0.740
38733W        W 2677  10.255   0.482  13.323
38734W        W 2678  28.962  10.697  12.486
38735W        W 2679  19.135   0.340   4.757
38736W        W 2680  38.330  31.554  12.979
38737W        W 2681  21.544   9.686  12.846
38738W        W 2682   8.181   7.335  14.484
38739W        W 2683  23.599  41.402  11.083
38740W        W 2684  16.643  19.061  14.989
38741W        W 2685   5.775   7.279   1.775
38742W        W 2686  35.008   0.426   0.816
38743W        W 2687  44.337  30.002  10.566
38744W        W 2688  37.078   3.215  12.970
38745W        W 2689  17.752   0.252  11.875
38746W        W 2690  41.991  26.987   3.838
38747W        W 2691  39.955  39.996   4.833
38748W        W 2692  30.602  15.125  10.557
38749W        W 2693  41.953  32.031  13.023
38750W        W 2694   6.236  20.205   3.642
38751W        W 2695   2.416  18.596   2.355
38752W        W 2696  26.580  40.872  14.967
38753W        W 2697  13.779  34.059   4.599
38754W        W 2698  11.298  16.212   1.716
38755W        W 2699  42.850   6.369   4.752
38756W        W 2700  37.530  29.440  14.500
38757W        W 2701   3.287  29.667  14.802
38758W        W 2702  25.495  10.210  14.506
38759W        W 2703  16.203  10.767   4.131
38760W        W 2704  33.428   3.417  10.024
38761W        W 2705  21.620  32.506   2.297
38762W        W 2706  33.440  31.489  10.101
38763W        W 2707  33.021  37.831   2.829
38764W        W 2708  10.350  21.708  10.900
38765W        W 2709  41.842  26.621  14.516
38766W        W 2710   7.776  39.010   4.812
38767W        W 2711  40.450  22.578  13.907
38768W        W 2712  30.968  40.463  10.619
38769W        W 2713  30.535  19.780   0.863
38770W        W 2714   2.381  25.167  11.481
38771W        W 2715  43.393  18.783  13.815
38772W        W 2716  11.302  43.490  14.920
38773W        W 2717  39.012  16.617  12.950
38774W        W 2718  24.081  27.521  11.941
38775W        W 2719  27.450  26.054  10.534
38776W        W 2720  23.622  11.631  13.403
38777W        W 2721  29.955   5.885   0.914
38778W        W 2722   1.335  14.312   0.830
38779W        W 2723   1.825  40.968  11.992
38780W        W 2724  29.100  23.714  11.121
38781W        W 2725  36.371  31.599  13.887
38782W        W 2726  31.574   1.959  12.068
38783W        W 2727   2.433   1.812  10.552
38784W        W 2728  25.680  15.246   1.903
38785W        W 2729  32.610  27.591  12.929
38786W        W 2730  21.549   0.905  10.480
38787W        W 2731  21.205  30.126  10.494
38788W        W 2732  25.611  24.132  12.521
38789W        W 2733  37.985  24.085   2.283
38790W        W 2734  13.707  30.463  11.948
38791W        W 2735  41.820   7.858   2.737
38792W        W 2736  35.470  43.499   4.226
38793W        W 2737   2.255   6.703   3.289
38794W        W 2738  28.157  12.764   0.858
38795W        W 2739  17.756  41.368   3.744
38796W        W 2740  32.040  25.556   2.196
38797W        W 2741   3.337   0.824   1.386
38798W        W 2742   1.925  30.600  13.452
38799W        W 2743  26.206  24.020  14.808
38800W        W 2744  16.798  44.393   0.932
38801W        W 2745  32.476  19.124   1.771
38802W        W 2746   2.816  32.951  12.564
38803W        W 2747   5.753  22.560   3.329
38804W        W 2748  21.059  41.904   1.718
38805W        W 2749   2.435  41.415   2.384
38806W        W 2750  42.794  25.066   1.746
38807W        W 2751  11.788  38.926   3.778
38808W        W 2752   4.362  18.208  10.486
38809W        W 2753  19.629  25.126  10.904
38810W        W 2754  32.467  12.738  11.932
38811W        W 2755  42.983  18.720  11.054
38812W        W 2756  37.387   7.769   3.343
38813W        W 2757  20.668   7.185   0.288
38814W        W 2758  32.510  37.548   0.285
38815W        W 2759   8.358   2.398   1.353
38816W        W 2760  14.730  41.436   1.374
38817W        W 2761  18.190  39.035   3.363
38818W        W 2762  19.681  33.515   3.706
38819W        W 2763  35.937  43.497  14.785
38820W        W 2764   7.692  19.690   5.175
38821W        W 2765  21.042  11.678   5.234
38822W        W 2766  36.450  27.602  14.870
38823W        W 2767  18.230  26.126   1.431
38824W        W 2768   8.833  43.359   1.236
38825W        W 2769   7.807  35.086  12.824
38826W        W 2770  12.280  14.731  11.935
38827W        W 2771  18.654  42.513  12.416
38828W        W 2772   6.863   9.249  11.483
38829W        W 2773  15.202  17.260  11.498
38830W        W 2774  16.104   7.235  11.527
38831W        W 2775  41.362   0.880   1.829
38832W        W 2776  34.595  43.425  13.982
38833W        W 2777  43.972  26.460   5.149
38834W        W 2778  23.201   4.444   0.792
38835W        W 2779  44.799  43.995   4.320
38836W        W 2780   6.788  12.806   3.302
38837W        W 2781  31.464  43.813   0.259
38838W        W 2782  33.395  15.296   2.697
38839W        W 2783  20.152  25.544   0.386
38840W        W 2784   5.393   5.367   4.628
38841W        W 2785  20.582   6.693   3.836
38842W        W 2786   1.382  20.600  13.849
38843W        W 2787  42.457  20.721   0.880
38844W        W 2788  24.110  12.306   4.667
38845W        W 2789  33.590   5.215  10.519
38846W        W 2790  31.149  35.057   0.391
38847W        W 2791  43.005  19.662  10.435
38848W        W 2792   0.442  43.964   0.797
38849W        W 2793   2.720  39.451  10.455
38850W        W 2794  29.579  22.597  12.504
38851W        W 2795  17.298   8.365   3.849
38852W        W 2796  18.282   7.192  11.470
38853W        W 2797  27.111  16.110  10.922
38854W        W 2798   9.752  11.133  13.903
38855W        W 2799  35.529  34.425   3.217
38856W        W 2800  36.580  22.071  14.339
38857W        W 2801   4.806  20.072  14.279
38858W        W 2802  28.512  27.663   2.718
38859W        W 2803   6.255  33.508   4.216
38860W        W 2804  32.488  16.266   1.930
38861W        W 2805  20.218  43.861   0.873
38862W        W 2806  35.103  42.781  13.032
38863W        W 2807  37.002  27.622  11.871
38864W        W 2808  43.823  32.528   2.300
38865W        W 2809   8.705  38.530   1.271
38866W        W 2810  31.046   4.426   0.914
38867W        W 2811  25.962  17.772   0.337
38868W        W 2812  17.249  38.009  14.822
38869W        W 2813  21.599   6.814   1.726
38870W        W 2814  27.571   9.740   0.314
38871W        W 2815  30.474   3.744   1.251
38872W        W 2816  34.489  19.272  12.847
38873W        W 2817  13.636  22.134  12.528
38874W        W 2818   0.345  36.002  10.996
38875W        W 2819  39.978   5.777   1.232
38876W        W 2820  26.653  15.688  14.870
38877W        W 2821  13.333  44.478  14.420
38878W        W 2822  18.291   9.743  13.480
38879W        W 2823  22.210   3.357   3.835
38880W        W 2824  21.622  43.462  14.928
38881W        W 2825  32.945  34.389  14.970
38882W        W 2826  38.443  17.297  14.433
38883W        W 2827  33.532  16.766  11.084
38884W        W 2828   7.741  29.462  13.906
38885W        W 2829  39.424  22.674  13.868
38886W        W 2830  23.537  30.574   2.824
38887W        W 2831  24.644  44.380  10.553
38888W        W 2832  40.037  32.100  13.881
38889W        W 2833  10.195  21.757   4.350
38890W        W 2834  43.330  23.227   0.813
38891W        W 2835  11.666  25.125   3.631
38892W        W 2836  39.849   2.856  12.921
38893W        W 2837  42.436  20.720   3.726
38894W        W 2838  14.254  41.361  14.977
38895W        W 2839  13.746  37.542  14.997
38896W        W 2840  42.291  16.803  10.953
38897W        W 2841  17.218  16.119   1.328
38898W        W 2842  28.563  32.000   0.732
38899W        W 2843  44.347   5.410  14.427
38900W        W 2844  19.199   4.244  10.568
38901W        W 2845  14.323  24.554   0.270
38902W        W 2846  25.181  35.062   0.808
38903W        W 2847  29.581  21.119   2.387
38904W        W 2848  38.454  31.099   4.192
38905W        W 2849  37.426  37.405  12.438
38906W        W 2850  41.005   7.836   1.727
38907W        W 2851   2.967  18.076  10.571
38908W        W 2852  42.468  32.541   4.603
38909W        W 2853  10.261  36.957   0.739
38910W        W 2854  17.762  29.981  12.481
38911W        W 2855  23.134  18.105  10.619
38912W        W 2856  27.454  18.278  14.963
38913W        W 2857  31.913   0.294  11.549
38914W        W 2858  10.798  17.793  12.859
38915W        W 2859   1.374  30.030   4.164
38916W        W 2860  35.058  30.105   4.286
38917W        W 2861  31.062  24.165   0.942
38918W        W 2862  10.195  25.529  10.497
38919W        W 2863  43.434  32.544   0.763
38920W        W 2864  42.400  22.543  11.461
38921W        W 2865  17.642  27.146   2.202
38922W        W 2866  22.039  13.112   2.722
38923W        W 2867   0.469  13.613  10.975
38924W        W 2868  41.995  29.947   2.698
38925W        W 2869  42.819  43.926   3.842
38926W        W 2870  40.337  41.404   4.283
38927W        W 2871  19.191   0.875   3.193
38928W        W 2872  43.854  40.831   1.263
38929W        W 2873  23.066   8.165  14.780
38930W        W 2874  16.276   8.732  13.867
38931W        W 2875  22.585   8.248  12.829
38932W        W 2876  24.585  13.305  14.325
38933W        W 2877   6.311  30.977   3.163
38934W        W 2878  20.674   1.923  11.493
38935W        W 2879  27.662   3.753   4.809
38936W        W 2880  10.227  29.959   1.729
38937W        W 2881   7.402  37.959  13.345
38938W        W 2882   8.813  18.648  10.520
38939W        W 2883  43.271  14.198   3.629
38940W        W 2884  28.969  14.642  10.055
38941W        W 2885  32.996  17.076  13.521
38942W        W 2886   3.323  34.930   0.290
38943W        W 2887   4.897  24.661  10.907
38944W        W 2888  22.015  30.537  14.301
38945W        W 2889   2.867  21.574  12.436
38946W        W 2890  22.199  12.724  11.402
38947W        W 2891  16.218  23.732   0.451
38948W        W 2892  25.094  21.023   0.948
38949W        W 2893  29.465  40.535  12.519
38950W        W 2894  24.664  12.175   0.863
38951W        W 2895  27.131  44.883  12.878
38952W        W 2896  42.804  32.447  14.972
38953W        W 2897   1.377  42.912  13.926
38954W        W 2898  44.443  44.897  14.028
38955W        W 2899  21.524   6.758   4.646
38956W        W 2900   9.660  18.669  13.359
38957W        W 2901   5.430  40.514  14.949
38958W        W 2902  41.320   8.346   2.698
38959W        W 2903  10.220  12.270  13.007
38960W        W 2904  35.993   6.238  10.923
38961W        W 2905  27.638  24.637   0.472
38962W        W 2906  28.043  13.122  10.943
38963W        W 2907   7.327  33.549   4.752
38964W        W 2908  38.030  13.801   0.394
38965W        W 2909   1.872  17.745   3.245
38966W        W 2910  39.975  25.552  10.486
38967W        W 2911  32.419  40.877   1.310
38968W        W 2912   0.952  27.522  14.275
38969W        W 2913   4.382   1.805   1.847
38970W        W 2914  44.927  14.309  10.458
38971W        W 2915   2.289   8.373   2.875
38972W        W 2916  10.830  21.751  12.095
38973W        W 2917  10.874  18.738  12.977
38974W        W 2918  20.695   9.325   2.866
38975W        W 2919   8.229  36.043  14.902
38976W        W 2920  20.220  12.752   2.732
38977W        W 2921   9.321  24.218   2.892
38978W        W 2922   3.292   3.744   0.453
38979W        W 2923   0.768  40.546  10.637
38980W        W 2924  31.064  16.109  13.910
38981W        W 2925  39.903  32.998   0.905
38982W        W 2926  11.714  37.902  13.001
38983W        W 2927  19.534  43.406   2.742
38984W        W 2928  43.330  38.560  13.998
38985W        W 2929  30.552  28.074   0.840
38986W        W 2930   4.346   7.845  11.594
38987W        W 2931  14.799  41.341  11.519
38988W        W 2932  39.021  12.801  10.128
38989W        W 2933   4.268  12.660   0.777
38990W        W 2934  20.239  21.681  14.323
38991W        W 2935  16.611  25.163  10.506
38992W        W 2936   1.368  20.560  14.417
38993W        W 2937  20.112  31.449  11.468
38994W        W 2938  16.115  36.546  11.555
38995W        W 2939   2.289  25.081  10.945
38996W        W 2940  43.819  18.228  14.031
38997W        W 2941  25.666  19.176  14.502
38998W        W 2942  40.477  37.500  12.902
38999W        W 2943  40.313  26.973   2.260
39000W        W 2944  10.148   6.905   2.882
39001W        W 2945   3.294  30.432   0.434
39002W        W 2946  13.133  13.690  13.038
39003W        W 2947  29.953  18.736  14.315
39004W        W 2948   4.365  15.769  10.112
39005W        W 2949   9.805  30.546   1.747
39006W        W 2950  30.990  16.625   5.132
39007W        W 2951  11.293  41.325  12.839
39008W        W 2952   1.239  38.403   3.182
39009W        W 2953   3.781  28.120  12.939
39010W        W 2954  35.955  33.581   3.684
39011W        W 2955   1.915  31.594   3.275
39012W        W 2956  38.058   4.425   0.731
39013W        W 2957   7.877   4.290   1.351
39014W        W 2958   6.413  10.158  13.435
39015W        W 2959  15.733  44.286  13.961
39016W        W 2960  31.013  29.985  14.813
39017W        W 2961  13.724  29.995  13.035
39018W        W 2962  42.894  16.274   4.772
39019W        W 2963  15.596  27.496  14.401
39020W        W 2964  33.566  13.731   4.152
39021W        W 2965  13.143   2.299   1.307
39022W        W 2966  37.417  28.677  14.290
39023W        W 2967  41.370  36.961  12.832
39024W        W 2968   5.757   8.878   4.655
39025W        W 2969   3.769   8.270  10.927
39026W        W 2970  19.054  39.858  14.309
39027W        W 2971   7.824  34.551  11.381
39028W        W 2972  30.023  25.702   3.335
39029W        W 2973  43.389   2.873  13.991
39030W        W 2974  24.561  39.508  10.960
39031W        W 2975  40.538  14.180  12.347
39032W        W 2976  15.292  20.107  14.307
39033W        W 2977  41.395   0.472   3.354
39034W        W 2978  41.389  38.476  11.487
39035W        W 2979  32.523  43.369   4.698
39036W        W 2980  17.151  20.759   2.829
39037W        W 2981  15.768  34.901  10.438
39038W        W 2982  43.914  26.105  11.911
39039W        W 2983  40.799  20.272  10.426
39040W        W 2984  21.133  31.498  11.095
39041W        W 2985  36.357  44.312   5.112
39042W        W 2986  35.437   5.260  10.411
39043W        W 2987  10.304  43.291  13.434
39044W        W 2988   2.389  18.701  14.823
39045W        W 2989  19.595  28.136  11.005
39046W        W 2990  29.971   8.235   3.646
39047W        W 2991  26.202   9.836   3.315
39048W        W 2992  35.899  19.214  12.982
39049W        W 2993  13.330  40.308  11.956
39050W        W 2994  20.734  30.050   2.367
39051W        W 2995   6.382   8.240  12.907
39052W        W 2996  13.638  25.159  10.425
39053W        W 2997  10.633  16.691   0.254
39054W        W 2998  21.623  18.112   1.899
39055W        W 2999  26.584  25.169  12.577
39056W        W 3000  34.471  38.029   3.151
39057W        W 3001  33.100  31.021  10.418
39058W        W 3002  22.583  44.937   0.785
39059W        W 3003   1.769   1.829  14.398
39060W        W 3004   4.924  15.255   4.326
39061W        W 3005  42.418   8.811   0.861
39062W        W 3006  17.091  21.577   1.744
39063W        W 3007  33.954  42.018  11.896
39064W        W 3008  28.625  34.054   2.312
39065W        W 3009  41.501  33.992   0.799
39066W        W 3010  25.183  34.069   1.367
39067W        W 3011  36.514  15.701  12.007
39068W        W 3012  24.034   7.809   3.740
39069W        W 3013   0.846  39.547   1.701
39070W        W 3014  40.381  42.888   4.728
39071W        W 3015  12.299   4.389   2.221
39072W        W 3016  34.935  25.197   0.351
39073W        W 3017  10.373  36.053  13.405
39074W        W 3018  25.143  18.620  12.465
39075W        W 3019  44.893  21.670   2.264
39076W        W 3020  28.437  15.668   1.802
39077W        W 3021  19.654  28.140   4.199
39078W        W 3022  28.553  37.348  13.374
39079W        W 3023   0.987   1.877  12.082
39080W        W 3024   7.326   7.709   0.926
39081W        W 3025   8.273  28.569   2.821
39082W        W 3026   1.814  19.137   3.214
39083W        W 3027  30.563  17.218   2.801
39084W        W 3028  16.637  37.466  10.515
39085W        W 3029  41.993  27.050   3.231
39086W        W 3030  22.560   7.241   0.291
39087W        W 3031   0.259   6.369  13.872
39088W        W 3032  40.438  20.722   0.278
39089W        W 3033  10.252  34.965  14.455
39090W        W 3034  19.674  28.470   2.882
39091W        W 3035  23.050  33.084  14.457
39092W        W 3036  44.313  22.632   4.235
39093W        W 3037  26.662  35.996   1.250
39094W        W 3038  20.671  16.148  11.033
39095W        W 3039  32.457  25.575   1.915
39096W        W 3040   9.376  24.581   4.836
39097W        W 3041  34.871  13.190   3.373
39098W        W 3042  16.753  32.980  14.996
39099W        W 3043  19.101   5.395  12.994
39100W        W 3044  10.719  24.564   3.821
39101W        W 3045  36.926  42.302  11.066
39102W        W 3046   9.748  23.086  10.616
39103W        W 3047   9.811  11.149   2.758
39104W        W 3048  27.512  21.527  13.439
39105W        W 3049  13.248   9.363   3.278
39106W        W 3050  20.251   8.733  14.406
39107W        W 3051   5.283  38.031  14.492
39108W        W 3052  11.755  37.362   5.086
39109W        W 3053  42.317  25.969   2.278
39110W        W 3054   9.165  35.465  10.540
39111W        W 3055  16.783  20.535  11.010
39112W        W 3056  42.320  43.473  13.511
39113W        W 3057  29.643  26.134  14.846
39114W        W 3058  33.549  22.095  14.276
39115W        W 3059  30.948  20.657   0.357
39116W        W 3060  36.579  42.010  12.486
39117W        W 3061  36.907  29.510  12.541
39118W        W 3062  14.744  41.923   2.715
39119W        W 3063   5.786  23.534   4.156
39120W        W 3064  24.985   4.719   0.742
39121W        W 3065  22.181  33.033   4.830
39122W        W 3066  25.576  11.736   0.354
39123W        W 3067  14.178  27.531  13.473
39124W        W 3068  29.953  33.101  13.985
39125W        W 3069  12.304  32.959   3.768
39126W        W 3070  27.665  37.471  13.006
39127W        W 3071  30.963  29.446   9.924
39128W        W 3072  38.349  39.818  10.436
39129W        W 3073  26.114   3.218  10.526
39130W        W 3074  17.659  27.669  11.886
39131W        W 3075   9.365   8.280  11.912
39132W        W 3076   4.341  13.206   0.289
39133W        W 3077  24.183   3.945   4.626
39134W        W 3078  14.771  21.538  12.433
39135W        W 3079  31.997  36.504   4.189
39136W        W 3080  43.403  17.703  11.516
39137W        W 3081  27.001  25.521   0.397
39138W        W 3082  21.163  13.789   3.356
39139W        W 3083   9.371  21.535   1.918
39140W        W 3084  41.438  39.000   2.326
39141W        W 3085  32.580  12.791   1.731
39142W        W 3086  36.395  24.483   4.802
39143W        W 3087  43.002  19.557  12.375
39144W        W 3088  36.989   5.435  11.597
39145W        W 3089  14.312  15.637   2.882
39146W        W 3090  34.074  34.104   4.186
39147W        W 3091  40.910  33.922  12.946
39148W        W 3092  11.677  36.849   3.153
39149W        W 3093   6.905  24.206   4.608
39150W        W 3094   8.281  38.338  12.952
39151W        W 3095  27.680  39.822  14.821
39152W        W 3096  21.201  24.524   4.276
39153W        W 3097  35.432  25.567  14.855
39154W        W 3098  22.688  39.370   1.401
39155W        W 3099  26.187  25.503   2.792
39156W        W 3100   1.340  10.211  10.467
39157W        W 3101  25.021   5.859   3.184
39158W        W 3102  19.143  40.879  11.489
39159W        W 3103  13.287  31.492   4.164
39160W        W 3104  23.141   6.767   0.299
39161W        W 3105   3.337   3.766  11.084
39162W        W 3106   3.273  23.649  12.423
39163W        W 3107  39.365  13.345  13.456
39164W        W 3108   8.854  28.464   1.370
39165W        W 3109  12.717  33.011   4.181
39166W        W 3110  14.256  34.571   3.299
39167W        W 3111  28.644  40.869  11.473
39168W        W 3112  20.686  38.997   3.340
39169W        W 3113  20.196   3.892   1.336
39170W        W 3114  31.075   1.967  14.350
39171W        W 3115   9.811   3.353  12.090
39172W        W 3116  35.583  42.985  13.924
39173W        W 3117  29.597   3.802  11.595
39174W        W 3118  32.600   4.379   4.658
39175W        W 3119  29.043   6.715   0.277
39176W        W 3120  35.404  33.075   3.372
39177W        W 3121  33.881  11.652  10.585
39178W        W 3122  22.732  25.110   1.734
39179W        W 3123  26.565  24.073   0.437
39180W        W 3124  26.982  22.690   4.137
39181W        W 3125   6.365   2.820   0.924
39182W        W 3126  22.557  20.182  10.976
39183W        W 3127  18.668  34.427   1.725
39184W        W 3128  16.287  31.491  10.620
39185W        W 3129  43.352  44.346   3.310
39186W        W 3130  18.617   3.226  10.590
39187W        W 3131  19.599  24.502   0.766
39188W        W 3132  22.565   9.655  13.969
39189W        W 3133  13.770  33.974   3.867
39190W        W 3134  23.061   2.366   4.132
39191W        W 3135   8.388   7.344   0.262
39192W        W 3136  43.787  15.756  13.926
39193W        W 3137  14.325  16.126  12.443
39194W        W 3138  30.926  37.474  14.353
39195W        W 3139   1.873  27.673   3.302
39196W        W 3140  41.370  31.110  12.365
39197W        W 3141  24.119   8.194  14.796
39198W        W 3142  30.042  21.046  11.574
39199W        W 3143  43.830  17.227  13.803
39200W        W 3144  24.546  44.972  14.341
39201W        W 3145  17.704  13.180  12.902
39202W        W 3146   2.468   7.353  13.859
39203W        W 3147   7.822  30.425   2.231
39204W        W 3148  11.841  17.146  13.961
39205W        W 3149  28.621  32.636  12.080
39206W        W 3150  15.607  35.474  10.413
39207W        W 3151  16.123   0.814   9.988
39208W        W 3152  41.845   0.456   3.785
39209W        W 3153  10.196  40.811   0.791
39210W        W 3154  21.742  38.513   1.770
39211W        W 3155   4.248  15.135  13.473
39212W        W 3156  23.549  42.022  10.439
39213W        W 3157  29.611  14.662   1.786
39214W        W 3158   2.746  36.424   1.266
39215W        W 3159  36.406  22.541  11.372
39216W        W 3160  20.201  22.209   3.298
39217W        W 3161  22.077  18.200   4.810
39218W        W 3162  15.204  23.685  11.440
39219W        W 3163   0.279  25.133  12.537
39220W        W 3164  28.093  21.063   2.216
39221W        W 3165  37.847   8.664  12.363
39222W        W 3166   7.910  35.011   3.819
39223W        W 3167  24.026  21.727   3.683
39224W        W 3168  43.935  25.975   4.626
39225W        W 3169  32.021  35.078   0.890
39226W        W 3170   2.817   8.265  14.304
39227W        W 3171   8.744  30.924   0.470
39228W        W 3172   6.245  18.122  14.479
39229W        W 3173  38.468  42.503  13.475
39230W        W 3174  43.321   0.452   3.648
39231W        W 3175  20.180  39.324  11.449
39232W        W 3176  16.316  39.969   4.133
39233W        W 3177  26.116  15.668   3.809
39234W        W 3178  14.626  19.760  11.040
39235W        W 3179  23.551  43.790  11.568
39236W        W 3180   8.281  44.806   1.423
39237W        W 3181  43.939   2.835  11.392
39238W        W 3182  13.319  31.985  11.042
39239W        W 3183  23.040  25.477  12.402
39240W        W 3184   7.195   7.796   2.674
39241W        W 3185  44.833  24.641   4.669
39242W        W 3186   8.318  37.571  12.069
39243W        W 3187  39.813  24.563  13.877
39244W        W 3188  19.278  41.363  14.497
39245W        W 3189   8.691  41.035  13.512
39246W        W 3190   0.461  37.581  10.950
39247W        W 3191   6.720  15.132  11.414
39248W        W 3192  30.064  25.002   0.917
39249W        W 3193  36.494  43.992   2.863
39250W        W 3194  19.177  30.494   4.224
39251W        W 3195  41.994  12.204   1.933
39252W        W 3196  40.892  19.240  13.858
39253W        W 3197  20.223  12.804  12.466
39254W        W 3198   8.179  36.873  14.318
39255W        W 3199  15.615  40.840  11.111
39256W        W 3200  31.069  17.079  10.468
39257W        W 3201  44.394  40.009   3.255
39258W        W 3202  27.191  41.311   3.199
39259W        W 3203  24.528  40.510  14.306
39260W        W 3204   1.355  36.390  13.312
39261W        W 3205  31.545  33.950   3.268
39262W        W 3206  21.746  16.283  12.024
39263W        W 3207   2.471  23.134  11.078
39264W        W 3208  22.740  24.700   0.917
39265W        W 3209  34.431  39.420  13.982
39266W        W 3210  43.890  16.142  13.387
39267W        W 3211  12.645  11.366  11.531
39268W        W 3212  16.713   5.865   0.399
39269W        W 3213   8.342   6.872  13.849
39270W        W 3214   6.754  30.604  12.346
39271W        W 3215  41.360  15.800  14.825
39272W        W 3216   8.378  17.735  10.463
39273W        W 3217  24.041   3.955   3.661
39274W        W 3218  40.946  42.888  11.047
39275W        W 3219  40.028  41.961   0.839
39276W        W 3220  15.293  35.401   9.446
39277W        W 3221  10.741  41.324  12.067
39278W        W 3222  18.065  21.667   1.311
39279W        W 3223   2.878  43.802  11.120
39280W        W 3224  19.238  15.158   1.726
39281W        W 3225   0.811  44.394   4.791
39282W        W 3226   3.922  29.481  13.898
39283W        W 3227  27.648  32.002  10.575
39284W        W 3228  19.246  18.150  12.436
39285W        W 3229   0.863  23.672   1.903
39286W        W 3230  28.497  37.039   3.639
39287W        W 3231  20.266  12.796  11.537
39288W        W 3232  15.812   4.375  11.072
39289W        W 3233  38.942   2.798   2.246
39290W        W 3234  20.208  30.510   4.208
39291W        W 3235   3.748  40.949   2.839
39292W        W 3236  29.473   1.977  10.029
39293W        W 3237  38.968  42.022   2.836
39294W        W 3238  32.894  38.427   3.851
39295W        W 3239  11.133  35.973  12.526
39296W        W 3240  28.570  10.642   1.790
39297W        W 3241  29.602   1.322   2.346
39298W        W 3242  20.671  22.210   9.985
39299W        W 3243   3.817  39.878  11.591
39300W        W 3244  25.124   6.340  12.995
39301W        W 3245  11.661  32.518   3.204
39302W        W 3246   7.229  20.661  13.979
39303W        W 3247  25.129   0.312   1.255
39304W        W 3248   7.808  21.145   1.216
39305W        W 3249   4.387  44.272   3.632
39306W        W 3250  13.315  34.118  13.902
39307W        W 3251  20.709   8.683   5.117
39308W        W 3252  32.127  23.151  14.765
39309W        W 3253  18.253  37.442  14.450
39310W        W 3254  35.466  24.994  12.938
39311W        W 3255   5.813  19.578  13.839
39312W        W 3256  10.376  20.223   0.418
39313W        W 3257  33.903  17.230   1.394
39314W        W 3258   1.434  19.276   2.251
39315W        W 3259  44.757   5.387  11.890
39316W        W 3260  18.740  18.786   4.260
39317W        W 3261   1.944  23.231   3.664
39318W        W 3262  27.029  43.882  11.998
39319W        W 3263  20.038  23.518   3.865
39320W        W 3264  29.175  43.334  10.134
39321W        W 3265  30.978  11.258  11.021
39322W        W 3266   8.713  44.944   1.813
39323W        W 3267  37.018  17.758  13.327
39324W        W 3268   7.695  33.491   1.435
39325W        W 3269  19.550  26.561   3.337
39326W        W 3270  24.626  33.432   3.182
39327W        W 3271  20.579  37.358   4.733
39328W        W 3272  28.588  28.535  12.074
39329W        W 3273   8.360  27.965   9.551
39330W        W 3274  13.151   1.806   2.755
39331W        W 3275  42.491  33.444  13.457
39332W        W 3276  24.096   7.787  11.516
39333W        W 3277   0.979  21.682   2.893
39334W        W 3278  27.990   8.728  12.368
39335W        W 3279  11.629  18.640   1.921
39336W        W 3280  18.607  43.915   0.871
39337W        W 3281  37.073  33.018   1.351
39338W        W 3282  16.703   4.450  12.959
39339W        W 3283   8.892  21.254   4.731
39340W        W 3284  15.290  42.806  14.986
39341W        W 3285  16.083  28.553  11.057
39342W        W 3286   4.923   3.327  13.855
39343W        W 3287   0.490  29.936   3.282
39344W        W 3288  35.386  33.617  12.063
39345W        W 3289  10.743  18.291   2.753
39346W        W 3290  43.441  31.431   2.240
39347W        W 3291  18.781  12.836  12.002
39348W        W 3292  27.132  10.144   3.817
39349W        W 3293  40.466  21.041   1.857
39350W        W 3294   5.743  44.797  12.961
39351W        W 3295   8.683   9.212  14.843
39352W        W 3296  28.165  20.526   0.875
39353W        W 3297  18.734  40.442   3.739
39354W        W 3298  36.361   1.443  13.989
39355W        W 3299  40.847  19.096  11.518
39356W        W 3300  44.794   6.247   0.256
39357W        W 3301  16.307  27.661  13.992
39358W        W 3302  13.680  40.923  14.496
39359W        W 3303  18.237  34.396   4.169
39360W        W 3304  13.600  28.961   2.202
39361W        W 3305   0.941  20.161  13.380
39362W        W 3306   0.440  31.593  11.079
39363W        W 3307  28.496  38.927   1.833
39364W        W 3308  37.441   7.403   0.747
39365W        W 3309  31.995  32.525  10.500
39366W        W 3310  21.605  11.322   4.635
39367W        W 3311   7.334  31.948   0.414
39368W        W 3312  27.960  32.094  10.631
39369W        W 3313  30.146  36.566  13.802
39370W        W 3314  43.913  18.052   2.326
39371W        W 3315  36.577  38.825   4.806
39372W        W 3316  28.113  27.587  10.066
39373W        W 3317   4.342   0.412  10.593
39374W        W 3318  33.100  38.064  13.400
39375W        W 3319  25.991   7.673   0.779
39376W        W 3320  26.166  36.436  11.873
39377W        W 3321  34.418  39.836   4.830
39378W        W 3322   9.657  19.631  14.922
39379W        W 3323   6.276   8.665  12.526
39380W        W 3324  28.072   5.868  13.803
39381W        W 3325   6.284  24.694   1.250
39382W        W 3326   8.809   6.301   4.264
39383W        W 3327  21.248  28.056   4.209
39384W        W 3328   9.187  20.733   3.230
39385W        W 3329  30.985   0.449  14.995
39386W        W 3330  25.962  16.800  10.449
39387W        W 3331   0.981   0.949   1.927
39388W        W 3332   6.238  12.712   4.721
39389W        W 3333  43.507   6.863  14.799
39390W        W 3334  12.264  39.447   3.274
39391W        W 3335   3.430  25.504   4.339
39392W        W 3336   3.826  22.651  12.091
39393W        W 3337  27.067   0.320  12.381
39394W        W 3338  26.519  33.048   2.881
39395W        W 3339  41.949  15.665  14.383
39396W        W 3340  26.510  16.627   4.314
39397W        W 3341  30.594  25.015   0.276
39398W        W 3342  18.551  24.153   4.333
39399W        W 3343  11.224  32.131  11.969
39400W        W 3344  22.580  30.024   4.629
39401W        W 3345  15.621  13.705   1.341
39402W        W 3346  12.764  17.180  10.645
39403W        W 3347  32.925  16.566   0.451
39404W        W 3348   3.215  40.452  13.344
39405W        W 3349   0.894  42.374   4.728
39406W        W 3350  24.571  36.350   4.819
39407W        W 3351  37.432  16.225   1.921
39408W        W 3352   6.751  12.747  14.373
39409W        W 3353  32.601  10.856  10.943
39410W        W 3354  16.108  32.938  10.978
39411W        W 3355  42.336  40.425  13.369
39412W        W 3356  12.671  23.056   4.232
39413W        W 3357  15.707  42.981  13.315
39414W        W 3358  34.421  24.229   0.827
39415W        W 3359  43.286  35.900  14.453
39416W        W 3360  13.276   0.301  13.314
39417W        W 3361   8.773  39.554  11.600
39418W        W 3362  28.025  13.122   4.760
39419W        W 3363  21.634  16.085   3.348
39420W        W 3364  24.018  34.507  14.382
39421W        W 3365   8.797  33.521  14.887
39422W        W 3366  24.177   4.784   4.680
39423W        W 3367  23.112  32.985   3.846
39424W        W 3368   7.262  20.670  12.382
39425W        W 3369  14.707  25.537   2.248
39426W        W 3370  14.165  41.443  11.083
39427W        W 3371   1.448  17.725   1.283
39428W        W 3372   9.662  26.626  14.023
39429W        W 3373  38.020   0.486   0.830
39430W        W 3374  30.604  22.132   4.214
39431W        W 3375  41.863  38.432   2.360
39432W        W 3376  24.619  41.451   3.254
39433W        W 3377  25.990  34.011  14.282
39434W        W 3378  41.494  12.640  11.949
39435W        W 3379   2.850   5.341  10.036
39436W        W 3380  19.555  27.639   0.442
39437W        W 3381   7.899  32.117  10.637
39438W        W 3382   5.226   0.862  12.541
39439W        W 3383  39.339  38.877  11.957
39440W        W 3384  20.588  32.535  12.925
39441W        W 3385  36.048  32.553   1.782
39442W        W 3386  23.232   7.228   4.340
39443W        W 3387  35.437  33.131  14.427
39444W        W 3388  24.631  19.543   0.882
39445W        W 3389  10.676  42.365   0.442
39446W        W 3390  44.322  32.078  13.395
39447W        W 3391  42.383  30.430  10.938
39448W        W 3392   4.811  37.941  11.516
39449W        W 3393  12.201  18.211   2.278
39450W        W 3394  29.921  18.765   4.637
39451W        W 3395  31.971  36.063  14.872
39452W        W 3396  21.100  11.768  14.512
39453W        W 3397  31.065  38.435   0.732
39454W        W 3398  37.434  42.296   2.350
39455W        W 3399  41.030  11.837  11.929
39456W        W 3400  25.063  32.528  14.960
39457W        W 3401  34.596  31.056  12.092
39458W        W 3402  13.807  18.139  13.443
39459W        W 3403  16.158  32.622  12.376
39460W        W 3404  43.854  32.078  14.369
39461W        W 3405  38.868  19.162  10.894
39462W        W 3406  27.108  19.643   0.960
39463W        W 3407  14.232   7.868   5.232
39464W        W 3408  24.043  30.545   0.372
39465W        W 3409   9.699   2.268  14.293
39466W        W 3410  44.947  43.976   0.449
39467W        W 3411  27.165   5.906  13.982
39468W        W 3412   5.294   5.763   5.204
39469W        W 3413  44.916  37.369  12.369
39470W        W 3414   0.427  39.950   2.333
39471W        W 3415  14.673  31.924   4.797
39472W        W 3416  14.748  26.134   0.852
39473W        W 3417  43.406  25.550   3.381
39474W        W 3418  36.501  26.597  12.377
39475W        W 3419  41.463  24.011   3.703
39476W        W 3420   3.805  26.170   4.320
39477W        W 3421  33.517   2.250   1.215
39478W        W 3422   0.387   6.426   9.560
39479W        W 3423  35.448  19.187  12.888
39480W        W 3424  16.629   0.384   0.948
39481W        W 3425  18.193   3.722  12.897
39482W        W 3426  23.204  21.028   5.168
39483W        W 3427   0.917  40.826  14.402
39484W        W 3428  28.039  11.262  11.427
39485W        W 3429   9.195  42.390   1.876
39486W        W 3430  38.492  26.048  13.373
39487W        W 3431   6.381  31.025  11.952
39488W        W 3432  12.222   2.771   4.823
39489W        W 3433   6.220  36.047   2.845
39490W        W 3434  33.125  29.564   4.196
39491W        W 3435  15.709   6.824  13.018
39492W        W 3436  21.714  31.630   3.664
39493W        W 3437  37.855  13.248   3.669
39494W        W 3438  25.175  11.763   1.351
39495W        W 3439  29.978  44.304  13.445
39496W        W 3440  26.645  19.553   4.354
39497W        W 3441  29.924   2.939   1.778
39498W        W 3442  22.037  17.082  14.495
39499W        W 3443  25.106  25.171  10.560
39500W        W 3444   1.796  13.232  14.431
39501W        W 3445  22.514   4.451   4.789
39502W        W 3446  34.976  41.918   3.262
39503W        W 3447  10.664  38.353   4.808
39504W        W 3448  16.153   4.368  14.893
39505W        W 3449  14.678  35.880   4.240
39506W        W 3450  17.739   4.817   2.325
39507W        W 3451  40.335  21.669   4.643
39508W        W 3452  35.957  40.304  14.354
39509W        W 3453  30.956  10.359   1.728
39510W        W 3454  39.349  44.941   2.347
39511W        W 3455   0.907  15.108  14.924
39512W        W 3456  28.454  12.348   4.668
39513W        W 3457  20.600  29.152  14.476
39514W        W 3458  36.511  12.147  12.867
39515W        W 3459  16.151  16.796  14.825
39516W        W 3460  35.503   1.905  11.429
39517W        W 3461   0.345  36.916  14.435
39518W        W 3462  16.268  43.789   2.782
39519W        W 3463  28.965   8.694  11.412
39520W        W 3464  37.917  12.277   0.861
39521W        W 3465  44.412  19.060   3.225
39522W        W 3466  13.241   2.231  14.442
39523W        W 3467  43.955  30.144   0.886
39524W        W 3468  16.647  35.091   2.392
39525W        W 3469  26.666  30.528   1.917
39526W        W 3470  27.165  24.712  14.851
39527W        W 3471  12.273   0.278  11.989
39528W        W 3472   3.841   5.894   0.336
39529W        W 3473  13.708  10.878   4.214
39530W        W 3474  42.953  36.532   2.876
39531W        W 3475  25.142  35.075   3.191
39532W        W 3476   2.472  11.808   3.674
39533W        W 3477  30.053  13.730  14.947
39534W        W 3478   9.793  22.245   4.306
39535W        W 3479  35.503  20.121   2.224
39536W        W 3480  40.402  23.658  12.339
39537W        W 3481  44.472  27.645  14.331
39538W        W 3482   3.330  16.256  13.952
39539W        W 3483  31.493   6.724  10.909
39540W        W 3484   1.778   2.369   4.771
39541W        W 3485  20.733   9.276   1.745
39542W        W 3486  21.090  39.408   1.764
39543W        W 3487   9.240   5.861  10.407
39544W        W 3488  36.409  20.633   3.187
39545W        W 3489   9.381  27.663  12.846
39546W        W 3490  37.948  24.172   3.219
39547W        W 3491  14.338  14.238   3.704
39548W        W 3492  33.431  36.500   5.182
39549W        W 3493  18.590  18.603   5.088
39550W        W 3494   4.436  34.111  11.895
39551W        W 3495  11.697   6.811  12.873
39552W        W 3496  20.038   1.898   2.806
39553W        W 3497  27.598  30.137   1.808
39554W        W 3498   7.180   1.748  12.868
39555W        W 3499  22.101  27.185   4.791
39556W        W 3500   9.876  43.864  12.414
39557W        W 3501   5.924   3.797  12.005
39558W        W 3502  16.655  29.568   3.285
39559W        W 3503  30.953  27.621  14.286
39560W        W 3504  36.528  17.564   3.360
39561W        W 3505  37.517  28.098   2.254
39562W        W 3506  39.510  19.536   5.194
39563W        W 3507  18.716  16.110   0.906
39564W        W 3508  18.183  10.807  10.116
39565W        W 3509   2.917  44.782  13.928
39566W        W 3510  21.197  36.951   1.237
39567W        W 3511   2.739  31.464   1.773
39568W        W 3512  13.329  44.417   2.242
39569W        W 3513  34.000   5.845  13.408
39570W        W 3514   2.786  16.221   4.320
39571W        W 3515  20.592   3.726  10.418
39572W        W 3516  22.507   4.378   0.430
39573W        W 3517  17.770   2.960   3.260
39574W        W 3518  24.673  20.184  12.356
39575W        W 3519  38.019   0.271  10.902
39576W        W 3520  38.414  34.005   0.413
39577W        W 3521  42.375  35.915  13.902
39578W        W 3522   6.354  42.524  13.308
39579W        W 3523  20.097  11.666  13.454
39580W        W 3524   3.946  31.032   3.381
39581W        W 3525  14.101  29.478   0.899
39582W        W 3526   8.762  25.081   1.242
39583W        W 3527  10.720  30.499   1.323
39584W        W 3528  20.713  17.235  12.547
39585W        W 3529  43.493  42.841   2.321
39586W        W 3530  24.721  16.237  13.001
39587W        W 3531  24.697  44.829  13.460
39588W        W 3532   8.340  41.451   3.765
39589W        W 3533   0.417  30.523  11.125
39590W        W 3534  30.567  37.874   1.392
39591W        W 3535  36.465  24.220   3.245
39592W        W 3536   9.745  27.111  12.084
39593W        W 3537  19.048  25.565   5.580
39594W        W 3538  11.802   6.707  14.797
39595W        W 3539  43.859  11.140   3.691
39596W        W 3540  13.812  23.237   4.743
39597W        W 3541  27.640  19.604   3.342
39598W        W 3542  15.678   5.313   1.401
39599W        W 3543  12.675   9.715  10.931
39600W        W 3544   7.759  35.082  14.420
39601W        W 3545  23.091   3.323  11.918
39602W        W 3546  35.056  29.552   3.791
39603W        W 3547  12.821  14.139  13.864
39604W        W 3548  15.645  39.029  12.004
39605W        W 3549  12.771  34.603  13.826
39606W        W 3550  33.605   2.894   3.770
39607W        W 3551   1.814  42.844   2.823
39608W        W 3552   5.230  36.018  11.488
39609W        W 3553   7.881  12.252  11.110
39610W        W 3554  40.877  41.458  13.437
39611W        W 3555   4.752  26.468  11.035
39612W        W 3556   2.759  18.271   0.808
39613W        W 3557   6.295  29.580  14.790
39614W        W 3558   2.296  38.921   3.193
39615W        W 3559  37.056  29.965  13.478
39616W        W 3560  31.026  29.586   2.874
39617W        W 3561   9.846   1.254  11.045
39618W        W 3562  44.779   2.315  10.487
39619W        W 3563  22.520   6.832   1.392
39620W        W 3564  32.539  34.981  13.984
39621W        W 3565  44.924  38.022   4.615
39622W        W 3566  18.137   2.803  12.550
39623W        W 3567  36.890  26.155   3.712
39624W        W 3568   3.422   0.248   0.896
39625W        W 3569  23.096  29.519  12.068
39626W        W 3570  26.042  26.019   0.392
39627W        W 3571  44.989  33.550  14.874
39628W        W 3572  14.249   4.710  14.309
39629W        W 3573  29.086  15.245   3.722
39630W        W 3574  33.463   4.318  14.923
39631W        W 3575  23.220  29.522   1.723
39632W        W 3576   5.747  26.510   4.816
39633W        W 3577   7.818  44.323   2.689
39634W        W 3578  24.493  18.606  14.804
39635W        W 3579  22.648  34.970   2.801
39636W        W 3580  41.468   3.773  12.016
39637W        W 3581  33.541   5.355  12.367
39638W        W 3582  28.504   3.457   3.680
39639W        W 3583  43.938   9.335  13.455
39640W        W 3584  38.551   0.312  14.809
39641W        W 3585  27.595  36.418  14.470
39642W        W 3586   3.327  34.037   0.355
39643W        W 3587  36.086  34.886   0.376
39644W        W 3588  16.279  31.905  10.015
39645W        W 3589  33.964   4.727   3.734
39646W        W 3590   9.249  33.596  13.361
39647W        W 3591  27.967  11.310  11.119
39648W        W 3592   8.862  41.494  11.585
39649W        W 3593  24.984  34.891  14.012
39650W        W 3594  16.288  42.498   3.164
39651W        W 3595  42.845  33.989   1.775
39652W        W 3596  39.435  11.169  10.429
39653W        W 3597  10.156  19.626   3.721
39654W        W 3598   8.224  41.813   3.824
39655W        W 3599   2.966  40.398   4.189
39656W        W 3600  27.647  28.494  12.420
39657W        W 3601  33.610   9.313  12.824
39658W        W 3602  34.892  33.095  13.496
39659W        W 3603  28.517  17.572  11.551
39660W        W 3604   4.752  11.141   3.796
39661W        W 3605   2.340  33.413  14.410
39662W        W 3606   6.386  21.174   0.384
39663W        W 3607  13.799   5.878  11.932
39664W        W 3608  36.093  29.440   0.923
39665W        W 3609  28.536   5.795  12.948
39666W        W 3610  38.906  23.648  13.526
39667W        W 3611  21.749  32.592   4.124
39668W        W 3612   3.419  39.837  12.436
39669W        W 3613   3.414   7.872   1.853
39670W        W 3614  43.020  15.789   3.381
39671W        W 3615   9.196  13.820   2.897
39672W        W 3616  43.335  15.697  12.961
39673W        W 3617  30.048  43.909  11.863
39674W        W 3618   3.786   2.759   0.276
39675W        W 3619  25.501   3.869   3.340
39676W        W 3620   5.227   8.234   2.191
39677W        W 3621  28.548  12.187  11.587
39678W        W 3622   8.185  26.477  13.867
39679W        W 3623   4.857   6.215   4.601
39680W        W 3624  32.432  20.633  13.834
39681W        W 3625  11.774  30.095   5.250
39682W        W 3626  35.548  11.774   2.832
39683W        W 3627  27.983  23.202   4.257
39684W        W 3628   2.772   2.285  14.326
39685W        W 3629  36.504  19.150   1.757
39686W        W 3630  28.101  33.067   1.852
39687W        W 3631  20.642  44.496   1.911
39688W        W 3632   4.740  22.098  13.484
39689W        W 3633  24.048  26.035  14.318
39690W        W 3634   0.357   2.786   4.179
39691W        W 3635  37.396  31.093   4.266
39692W        W 3636  32.502  12.665  11.004
39693W        W 3637  27.081  25.147   3.374
39694W        W 3638  38.545  24.527  11.888
39695W        W 3639   9.231   8.785  11.558
39696W        W 3640  22.549   4.760   1.878
39697W        W 3641  30.415  18.097   1.210
39698W        W 3642  34.885  16.269  12.490
39699W        W 3643  27.478  41.419  12.569
39700W        W 3644   7.396  14.755   1.304
39701W        W 3645   1.970  24.203  13.872
39702W        W 3646   4.330  33.494  10.946
39703W        W 3647  29.148  33.986  13.924
39704W        W 3648  28.454  41.417  12.496
39705W        W 3649  26.156  14.292  14.801
39706W        W 3650  12.136   2.314   5.154
39707W        W 3651   8.879  32.442  11.432
39708W        W 3652  14.747   4.229  11.019
39709W        W 3653  11.158   5.863   3.660
39710W        W 3654  34.957  23.218  12.959
39711W        W 3655  41.441  11.166   0.261
39712W        W 3656  34.011  37.479   1.817
39713W        W 3657  43.371  10.353   1.378
39714W        W 3658  39.930  12.730  11.443
39715W        W 3659   2.966  12.781  11.592
39716W        W 3660   1.910   2.908  14.514
39717W        W 3661  25.973  37.419   4.143
39718W        W 3662  37.959  31.929   1.726
39719W        W 3663  33.005  32.593   0.278
39720W        W 3664  29.567  32.043   0.841
39721W        W 3665   0.851  43.830  14.951
39722W        W 3666  23.092  40.858   4.221
39723W        W 3667   8.315  20.163   1.307
39724W        W 3668  44.829  15.754   4.225
39725W        W 3669  30.954  17.104   4.266
39726W        W 3670  26.566  11.632   1.864
39727W        W 3671  23.137  44.886   2.822
39728W        W 3672  37.566  38.560  10.470
39729W        W 3673  19.733  13.787  13.920
39730W        W 3674  34.880  44.760  14.464
39731W        W 3675  14.626   8.734   1.766
39732W        W 3676  24.637  16.692   4.649
39733W        W 3677  27.570  29.545  14.485
39734W        W 3678  40.476  11.234   4.293
39735W        W 3679  31.937  41.842  10.621
39736W        W 3680   8.169  34.376   4.626
39737W        W 3681   6.896  33.937  11.038
39738W        W 3682  43.279  38.018  11.547
39739W        W 3683   8.714  33.009   0.790
39740W        W 3684  38.976  10.643  11.058
39741W        W 3685  25.663  17.269   2.265
39742W        W 3686  20.639  10.152   2.857
39743W        W 3687   0.929  40.037  10.033
39744W        W 3688  38.826  27.636  12.024
39745W        W 3689  16.106  28.982  10.917
39746W        W 3690  28.550  36.511   2.818
39747W        W 3691  41.525  10.868  11.380
39748W        W 3692  13.152  11.657   3.320
39749W        W 3693  21.743  16.128  14.783
39750W        W 3694  35.376  29.562  14.775
39751W        W 3695   7.307  43.415  12.472
39752W        W 3696  38.041  34.948   0.277
39753W        W 3697   3.734  38.888  10.504
39754W        W 3698  42.877  44.292   1.428
39755W        W 3699  21.252  44.886   2.771
39756W        W 3700   7.174  22.579  11.378
39757W        W 3701  38.430   7.869  11.945
39758W        W 3702  40.448  42.454  12.484
39759W        W 3703  28.641  16.186   1.309
39760W        W 3704  29.620  13.165  12.536
39761W        W 3705  17.799  31.603   2.354
39762W        W 3706  17.144  22.007   4.169
39763W        W 3707  14.721  17.796  14.882
39764W        W 3708   8.204  22.543  14.445
39765W        W 3709   1.851  29.520  11.528
39766W        W 3710  29.551  29.072   0.770
39767W        W 3711  41.807  15.657  13.932
39768W        W 3712  29.424  32.139  12.529
39769W        W 3713  20.732  17.646  13.990
39770W        W 3714  10.722  39.018   4.217
39771W        W 3715  44.804  29.141   3.161
39772W        W 3716   9.368  20.233   2.769
39773W        W 3717  32.087  40.895  13.891
39774W        W 3718  18.149  10.335   5.721
39775W        W 3719  41.801  33.453   1.875
39776W        W 3720  16.645  19.741   0.761
39777W        W 3721   7.211  22.234   4.727
39778W        W 3722   1.959   6.289   2.416
39779W        W 3723  38.553  29.433   0.739
39780W        W 3724  23.506  16.620  13.347
39781W        W 3725  31.494   9.758  12.969
39782W        W 3726  32.063  39.034   1.770
39783W        W 3727  24.020  31.916  12.019
39784W        W 3728  25.673   6.319   3.300
39785W        W 3729   4.283   7.679   3.348
39786W        W 3730  29.533  10.797  13.984
39787W        W 3731  44.436  28.138  12.341
39788W        W 3732  10.838  38.404  13.022
39789W        W 3733  23.651  17.694  11.377
39790W        W 3734  39.975  33.496   2.314
39791W        W 3735  22.113  19.208  11.391
39792W        W 3736  39.039  14.648   1.300
39793W        W 3737  42.829   9.710  12.954
39794W        W 3738  14.692  24.508   3.670
39795W        W 3739  31.122  17.593   5.197
39796W        W 3740   8.401  34.084   4.644
39797W        W 3741  41.896  36.405  14.341
39798W        W 3742  12.276  25.166  10.406
39799W        W 3743   2.821  31.576   3.798
39800W        W 3744  10.327  16.298   2.894
39801W        W 3745  15.822   6.339   4.708
39802W        W 3746  40.474  11.661  10.478
39803W        W 3747  32.006  25.668  11.114
39804W        W 3748   3.823  20.671   1.715
39805W        W 3749  16.142  16.226   2.827
39806W        W 3750  22.702  44.754  13.986
39807W        W 3751  36.361  39.398  11.375
39808W        W 3752   4.805  30.029   4.196
39809W        W 3753  37.885  12.322  13.049
39810W        W 3754  16.684  43.430   3.343
39811W        W 3755   7.401   2.910  12.369
39812W        W 3756  14.119   0.829   0.961
39813W        W 3757  35.458  15.610   3.153
39814W        W 3758   0.269  21.670   3.373
39815W        W 3759  15.198   4.266   2.713
39816W        W 3760  34.102   3.349  14.770
39817W        W 3761  40.798   1.973  10.150
39818W        W 3762   1.791  37.360  13.007
39819W        W 3763   5.223  40.369  11.933
39820W        W 3764  37.955  19.079  14.378
39821W        W 3765   3.900  40.350  11.400
39822W        W 3766  21.170  31.942   0.244
39823W        W 3767  35.003  26.661  13.976
39824W        W 3768  22.717  39.946   2.695
39825W        W 3769  13.624  44.277  11.390
39826W        W 3770   3.416  43.473   3.711
39827W        W 3771   9.382   9.370   3.373
39828W        W 3772  22.084  16.200  12.847
39829W        W 3773  19.259  14.816  14.284
39830W        W 3774  25.481  42.009  11.444
39831W        W 3775  26.460  32.427   2.826
39832W        W 3776  30.987  30.022   1.743
39833W        W 3777   3.351  44.343   2.354
39834W        W 3778  14.189  34.373   4.795
39835W        W 3779  11.184  24.662  11.441
39836W        W 3780  38.328  23.128   2.234
39837W        W 3781  32.545  28.130  11.878
39838W        W 3782  36.366  43.878  13.826
39839W        W 3783   5.333  28.183   2.751
39840W        W 3784  32.896  39.331  14.305
39841W        W 3785  15.180  33.498   0.836
39842W        W 3786  29.644  39.046   2.814
39843W        W 3787  13.606  41.896   1.928
39844W        W 3788   2.829  36.489  14.302
39845W        W 3789  36.568  33.119  12.055
39846W        W 3790  42.330  37.849   1.707
39847W        W 3791  37.436  23.725   1.831
39848W        W 3792  42.893  10.208  14.970
39849W        W 3793  30.085  34.494  11.088
39850W        W 3794  24.134  33.493   0.370
39851W        W 3795  16.099  34.995   0.930
39852W        W 3796   3.871  32.076   0.470
39853W        W 3797  13.150  20.747  11.907
39854W        W 3798   2.885  43.426   2.308
39855W        W 3799  16.696  10.234  14.441
39856W        W 3800  15.083   0.386   2.216
39857W        W 3801   8.345  36.013   4.231
39858W        W 3802  21.714  10.248  14.292
39859W        W 3803   8.834   0.284  12.897
39860W        W 3804   2.421  25.041  12.036
39861W        W 3805  17.121  35.978  10.408
39862W        W 3806   2.727   7.263   4.135
39863W        W 3807  40.510   1.342  13.340
39864W        W 3808  19.679  38.068   3.224
39865W        W 3809  43.392   6.257   0.358
39866W        W 3810  39.466   3.882   1.898
39867W        W 3811  40.822  42.885  10.603
39868W        W 3812   8.223   3.413   0.809
39869W        W 3813  33.548  30.416   3.147
39870W        W 3814   3.228   8.716  14.828
39871W        W 3815  10.167  27.473   3.665
39872W        W 3816  40.461  35.416   1.433
39873W        W 3817   5.299   6.297  14.504
39874W        W 3818  33.936  18.130   0.265
39875W        W 3819  35.468   5.276   3.742
39876W        W 3820   4.721  17.124   2.798
39877W        W 3821   3.381  14.118  12.438
39878W        W 3822  10.214   9.822  10.472
39879W        W 3823  41.899   6.836   0.839
39880W        W 3824  40.320   5.894   1.892
39881W        W 3825   5.324   6.360  11.951
39882W        W 3826  17.597  15.680  13.380
39883W        W 3827  40.809   2.231  11.032
39884W        W 3828   4.701  16.741  10.076
39885W        W 3829  27.573  18.283   3.166
39886W        W 3830  14.148  43.867   1.929
39887W        W 3831   2.941  20.088   3.248
39888W        W 3832  24.614  39.491  13.439
39889W        W 3833  36.405  12.236   1.770
39890W        W 3834  29.948  40.868  13.396
39891W        W 3835  41.829  22.709   1.872
39892W        W 3836   1.940  10.286   4.604
39893W        W 3837  15.666  26.641  14.276
39894W        W 3838  17.610  38.860  12.064
39895W        W 3839  31.029  20.192   4.770
39896W        W 3840  20.710   9.824   3.787
39897W        W 3841  37.472   3.412   4.707
39898W        W 3842  43.927  31.006  11.466
39899W        W 3843  21.163  36.898   2.226
39900W        W 3844  22.733  29.484  13.992
39901W        W 3845   4.322   2.773  13.983
39902W        W 3846  28.024   3.805   0.962
39903W        W 3847  37.023  43.336  14.376
39904W        W 3848  31.038  41.858  11.996
39905W        W 3849  29.107  43.508  12.017
39906W        W 3850   8.251  41.301  11.521
39907W        W 3851  31.150  22.194  10.429
39908W        W 3852  14.337  39.560   1.717
39909W        W 3853  10.776  32.129   3.190
39910W        W 3854   7.691  32.551  13.501
39911W        W 3855  17.674   9.297  13.432
39912W        W 3856   2.249  43.511   0.792
39913W        W 3857  43.996  43.419   3.211
39914W        W 3858  22.646  44.004  10.546
39915W        W 3859  24.572  41.873   4.688
39916W        W 3860  44.829  24.015  10.462
39917W        W 3861  19.735  31.520  13.029
39918W        W 3862  28.656  21.551   4.145
39919W        W 3863  23.050  39.812  12.407
39920W        W 3864  30.445  42.921  13.929
39921W        W 3865  31.975  36.896   3.643
39922W        W 3866  39.523  14.339  10.457
39923W        W 3867  25.028   0.850   1.790
39924W        W 3868  40.527   8.834  11.491
39925W        W 3869  21.106   0.751   5.131
39926W        W 3870  16.733  37.881   1.353
39927W        W 3871  18.265  11.672  12.966
39928W        W 3872  14.159   1.752  13.912
39929W        W 3873  42.393  39.024   1.754
39930W        W 3874  27.024  14.812  13.939
39931W        W 3875   4.399  44.958  10.966
39932W        W 3876   7.860  22.706   4.184
39933W        W 3877   0.909  41.844  12.366
39934W        W 3878  25.193  29.432  14.515
39935W        W 3879  27.038  37.995  11.977
39936W        W 3880  11.200  39.514  13.929
39937W        W 3881   3.312   7.697   4.218
39938W        W 3882   5.389  44.477   4.332
39939W        W 3883  38.850  13.205  13.909
39940W        W 3884  28.021  12.127  11.902
39941W        W 3885  39.058  41.789   3.370
39942W        W 3886  36.548  23.109  10.619
39943W        W 3887  30.589  12.134   1.840
39944W        W 3888  43.776  20.743  11.596
39945W        W 3889  29.934   6.697   3.182
39946W        W 3890   6.738  10.825  13.010
39947W        W 3891  42.330  14.645   1.219
39948W        W 3892  17.617  27.499   2.389
39949W        W 3893  10.834  25.085   2.818
39950W        W 3894  41.356  15.287  14.904
39951W        W 3895  24.606  11.200  12.470
39952W        W 3896   5.743  44.267   3.741
39953W        W 3897  21.718   6.680  12.564
39954W        W 3898  28.443   7.297  13.990
39955W        W 3899   3.914  17.704   2.699
39956W        W 3900   5.236  42.819   1.342
39957W        W 3901   9.653  21.680  11.959
39958W        W 3902  38.992  30.587   0.249
39959W        W 3903  43.965  13.272   3.192
39960W        W 3904   3.912  19.648   1.266
39961W        W 3905   8.249  33.099  11.520
39962W        W 3906  27.502  31.407  11.922
39963W        W 3907   8.222  16.809  13.050
39964W        W 3908   0.368  30.450   0.898
39965W        W 3909  22.560  37.014  11.493
39966W        W 3910  25.027   7.398  12.458
39967W        W 3911  38.432   4.714  14.356
39968W        W 3912  12.361   6.796   4.329
39969W        W 3913  27.587  28.486  13.335
39970W        W 3914   5.880  11.749  12.084
39971W        W 3915  20.249  37.929   1.292
39972W        W 3916  43.855  23.679   1.281
39973W        W 3917  38.357  13.116  11.901
39974W        W 3918  44.973  30.535  10.958
39975W        W 3919  15.618  20.604  13.943
39976W        W 3920   3.228  16.597  13.936
39977W        W 3921  18.632   9.650  14.822
39978W        W 3922  18.158  10.690   1.314
39979W        W 3923   6.266  36.017  12.463
39980W        W 3924  28.151  14.589  12.038
39981W        W 3925  42.431  20.755  13.930
39982W        W 3926  43.960  30.502   4.823
39983W        W 3927  22.232  28.115   1.273
39984W        W 3928  38.863  41.450   5.302
39985W        W 3929  19.543  20.732   0.819
39986W        W 3930  24.147  40.380  12.359
39987W        W 3931   4.270  34.949  11.522
39988W        W 3932  37.948   9.749  11.406
39989W        W 3933  10.696  39.817  12.982
39990W        W 3934  24.650  30.125  13.908
39991W        W 3935  13.303   2.340  13.872
39992W        W 3936  37.421  11.763   3.811
39993W        W 3937   5.196  42.777  10.916
39994W        W 3938  14.756  14.646   2.880
39995W        W 3939  29.975  20.690  11.387
39996W        W 3940  18.582  37.342   4.792
39997W        W 3941   2.724   3.405   3.168
39998W        W 3942  11.861   3.918  13.441
39999W        W 3943  27.609  15.684  14.003
40000W        W 3944  27.147  32.424  14.285
40001W        W 3945   3.870  35.100  11.403
40002W        W 3946  22.715  33.928   0.351
40003W        W 3947  20.030  27.155  13.340
40004W        W 3948  12.119  11.704   4.226
40005W        W 3949  42.391  21.574   3.205
40006W        W 3950  13.299  24.693   4.198
40007W        W 3951  43.334  44.399   3.713
40008W        W 3952  34.528  28.163   1.277
40009W        W 3953  15.660  41.994   4.732
40010W        W 3954   7.353  19.282   3.776
40011W        W 3955  16.593  26.030  10.551
40012W        W 3956  29.557  19.537  14.969
40013W        W 3957  29.061  41.989  12.987
40014W        W 3958  22.069  41.836  11.505
40015W        W 3959  38.434  30.524   0.432
40016W        W 3960  16.580   3.785  11.887
40017W        W 3961  21.078  12.145   0.432
40018W        W 3962  30.934  44.503   3.268
40019W        W 3963   3.857  37.998   1.292
40020W        W 3964   5.836  13.311  14.865
40021W        W 3965   4.767   4.433   2.716
40022W        W 3966  25.569  40.410  12.024
40023W        W 3967  42.850   2.834  14.293
40024W        W 3968  40.967  18.688  10.426
40025W        W 3969  42.357  26.983  13.968
40026W        W 3970  33.914  34.491  12.370
40027W        W 3971  26.992  44.862   4.751
40028W        W 3972  19.605   4.880   3.356
40029W        W 3973   5.896  13.652  13.328
40030W        W 3974  43.842   2.806  12.877
40031W        W 3975  36.521  33.389   4.320
40032W        W 3976  10.375  36.011  11.534
40033W        W 3977  37.447  15.184   4.612
40034W        W 3978   3.935  40.464  13.418
40035W        W 3979  23.160   4.292  11.876
40036W        W 3980   5.297   2.281   1.806
40037W        W 3981  36.479  31.060  13.056
40038W        W 3982  22.671  33.088   2.691
40039W        W 3983  18.707  42.427  10.990
40040W        W 3984   7.845  18.648  13.487
40041W        W 3985  44.956  22.223  12.056
40042W        W 3986  29.598  41.029  14.782
40043W        W 3987   1.975   5.341   9.560
40044W        W 3988   0.417  14.298  13.491
40045W        W 3989   5.422  41.513  12.932
40046W        W 3990  44.787  13.230  13.910
40047W        W 3991   0.328  19.083   1.300
40048W        W 3992  42.386  25.994   1.439
40049W        W 3993  20.093  36.057  13.976
40050W        W 3994  11.849  37.004  14.282
40051W        W 3995  17.119  23.029  14.886
40052W        W 3996  25.074   9.690  14.918
40053W        W 3997  39.842  21.518  12.457
40054W        W 3998  20.126  40.504   3.215
40055W        W 3999   3.709  22.608   1.771
40056W        W 4000  11.288   3.281   2.786
40057W        W 4001  21.049  34.407   2.199
40058W        W 4002  43.334  21.727   3.172
40059W        W 4003  42.514  23.067   4.666
40060W        W 4004  27.048   0.343  10.411
40061W        W 4005  10.332   0.783  11.548
40062W        W 4006   0.788  25.017  11.401
40063W        W 4007  17.776  27.992  14.415
40064W        W 4008  12.276  20.137   1.375
40065W        W 4009  44.793   4.893   2.336
40066W        W 4010  27.516  30.123  14.353
40067W        W 4011  10.865  31.011   2.249
40068W        W 4012   5.380  44.437  11.069
40069W        W 4013   6.863  28.069  14.293
40070W        W 4014  34.900   3.449  10.572
40071W        W 4015  11.659  21.172   0.900
40072W        W 4016  31.964  32.087  14.884
40073W        W 4017  11.650   3.799  12.917
40074W        W 4018  13.743   3.905   1.218
40075W        W 4019  33.527  28.620   1.744
40076W        W 4020  20.572  37.343  11.574
40077W        W 4021  40.430  30.037   2.667
40078W        W 4022  25.178  21.151   2.191
40079W        W 4023   7.196  23.536   2.350
40080W        W 4024  33.562  38.869   1.326
40081W        W 4025  17.152  37.487  10.995
40082W        W 4026  28.572   5.234   0.859
40083W        W 4027  39.479  20.721   1.216
40084W        W 4028   8.362  30.489  13.856
40085W        W 4029  23.105  21.110   4.279
40086W        W 4030  26.531   1.264   0.897
40087W        W 4031   1.470  31.916  13.510
40088W        W 4032   7.846  44.394  11.858
40089W        W 4033  33.957  16.093   4.704
40090W        W 4034  10.350  33.932   0.728
40091W        W 4035   8.894  24.176   2.760
40092W        W 4036   4.757  33.104  11.453
40093W        W 4037  40.021  35.074   3.258
40094W        W 4038  26.169  19.203   0.334
40095W        W 4039  15.801   1.340  11.557
40096W        W 4040  32.533   9.648   3.249
40097W        W 4041  37.550  42.334   0.807
40098W        W 4042   1.433   0.247  13.825
40099W        W 4043   6.877   4.379   2.260
40100W        W 4044  11.265  22.512  13.428
40101W        W 4045   8.272  23.993  11.883
40102W        W 4046   8.892   9.732   9.983
40103W        W 4047   2.845  11.644   2.890
40104W        W 4048   4.761   0.393   1.752
40105W        W 4049  27.544   9.887  11.892
40106W        W 4050   7.188  12.690   1.410
40107W        W 4051  28.495   7.818  12.502
40108W        W 4052  21.260  35.602  13.805
40109W        W 4053  41.831  22.683  11.480
40110W        W 4054  16.091  13.132   2.783
40111W        W 4055  20.253   1.860  10.101
40112W        W 4056   5.807  27.029  13.985
40113W        W 4057  30.097  41.410   1.811
40114W        W 4058  41.361  39.891  14.893
40115W        W 4059  24.198  40.472   0.270
40116W        W 4060  19.278  44.956  13.928
40117W        W 4061  36.473  32.526  11.949
40118W        W 4062  42.865  10.789  12.486
40119W        W 4063  26.620  31.914  14.975
40120W        W 4064  37.454  41.311   2.676
40121W        W 4065   2.724  32.997  13.937
40122W        W 4066   1.447   8.332   0.325
40123W        W 4067  23.121   5.360   2.669
40124W        W 4068  16.185   5.283  12.422
40125W        W 4069   1.792  39.316   1.285
40126W        W 4070  10.384  27.083   4.643
40127W        W 4071  34.499   4.847  12.867
40128W        W 4072   8.886  21.750   0.254
40129W        W 4073   1.274   4.869  13.972
40130W        W 4074  26.057  18.283   2.406
40131W        W 4075  33.404  39.542   4.344
40132W        W 4076  42.879  30.594  10.124
40133W        W 4077  19.657   5.355  10.437
40134W        W 4078  26.694  40.810  10.970
40135W        W 4079  22.551  40.039  13.428
40136W        W 4080  13.265  18.673   1.218
40137W        W 4081  35.880   6.688   2.832
40138W        W 4082  13.803   4.334  11.447
40139W        W 4083  26.641  34.072  11.129
40140W        W 4084  44.939  28.041   4.766
40141W        W 4085  15.677  11.317   0.793
40142W        W 4086  25.213   0.435   4.220
40143W        W 4087  28.115   5.711  14.831
40144W        W 4088  37.928  14.806  12.362
40145W        W 4089  44.756   8.229   1.244
40146W        W 4090   4.803   7.283  14.490
40147W        W 4091  38.908  20.715  13.936
40148W        W 4092   4.815  41.464   2.755
40149W        W 4093   4.778   2.896  10.604
40150W        W 4094  28.512   2.362  12.494
40151W        W 4095  33.579  12.783  12.830
40152W        W 4096  42.011  10.862  14.387
40153W        W 4097  23.556   2.422  10.616
40154W        W 4098   2.344  13.240  13.050
40155W        W 4099  35.500  26.007  11.612
40156W        W 4100  35.588  36.851  13.392
40157W        W 4101  17.628   9.304   3.764
40158W        W 4102  31.505  20.125  11.994
40159W        W 4103   8.200  29.551  13.543
40160W        W 4104  44.292  10.798   5.280
40161W        W 4105  10.332  32.045  14.776
40162W        W 4106  40.971  15.140   0.315
40163W        W 4107   3.400  39.535  14.871
40164W        W 4108  20.651  36.030  14.019
40165W        W 4109   1.921  23.667   2.312
40166W        W 4110  18.563  31.970  14.341
40167W        W 4111  21.093   8.890   2.358
40168W        W 4112  23.099  38.385  12.077
40169W        W 4113  43.928  18.232  13.040
40170W        W 4114  18.213  40.000  11.482
40171W        W 4115  14.636  20.677  13.024
40172W        W 4116   9.369  18.777  13.800
40173W        W 4117  14.647  44.410   0.366
40174W        W 4118   3.722   8.748   4.261
40175W        W 4119  11.852   6.923   0.264
40176W        W 4120  25.589  23.078  14.832
40177W        W 4121  42.337  13.156  11.104
40178W        W 4122   4.417  33.928  13.021
40179W        W 4123  28.950  30.019  13.843
40180W        W 4124  10.266  11.142   4.192
40181W        W 4125   5.403  17.724   0.358
40182W        W 4126  23.207  10.188   1.894
40183W        W 4127  41.870  33.522   0.274
40184W        W 4128  42.846  20.250   0.331
40185W        W 4129   8.288  28.158  14.408
40186W        W 4130   1.304   5.841   2.194
40187W        W 4131   1.760  24.501  11.858
40188W        W 4132  20.134   7.389   4.152
40189W        W 4133  13.677   3.818   0.326
40190W        W 4134   0.251  18.698  13.863
40191W        W 4135  33.940   9.217   0.319
40192W        W 4136  24.043  26.046   0.411
40193W        W 4137  22.678  18.589  11.520
40194W        W 4138  15.216  35.858   2.768
40195W        W 4139  26.525  15.818   2.417
40196W        W 4140   7.326   4.293   3.633
40197W        W 4141  17.754  16.630  11.950
40198W        W 4142  16.232   9.286  12.957
40199W        W 4143   3.431  27.638  14.381
40200W        W 4144  44.980   6.189  13.400
40201W        W 4145  19.277  22.600   3.265
40202W        W 4146  40.820  42.939   0.263
40203W        W 4147  23.206  12.700   3.325
40204W        W 4148  29.554  26.162   3.194
40205W        W 4149  34.932  27.188  11.934
40206W        W 4150  21.724  36.864  11.069
40207W        W 4151  34.948  25.980   3.806
40208W        W 4152  38.411   7.401  11.017
40209W        W 4153  26.087   0.362   2.792
40210W        W 4154   8.274  34.408  14.776
40211W        W 4155   6.698  11.238   1.433
40212W        W 4156  27.465   9.298  14.945
40213W        W 4157   4.260  24.543   1.704
40214W        W 4158  32.070  39.886  10.559
40215W        W 4159  19.765  10.154   0.273
40216W        W 4160   9.380  15.244   1.410
40217W        W 4161  38.530  41.369  11.537
40218W        W 4162  33.944  24.079  11.477
40219W        W 4163   8.678   5.274  10.608
40220W        W 4164  44.439   5.722   0.964
40221W        W 4165   3.453  43.827  12.439
40222W        W 4166  43.998  24.545   4.252
40223W        W 4167  41.020  42.794   4.157
40224W        W 4168  23.151   9.723  10.971
40225W        W 4169  13.208   3.835  11.864
40226W        W 4170   7.864  22.527   4.691
40227W        W 4171  28.938  38.515   0.781
40228W        W 4172  29.056  41.440   0.257
40229W        W 4173  38.381   1.365   0.406
40230W        W 4174  27.571   6.829  11.938
40231W        W 4175  40.522   0.873   1.363
40232W        W 4176  13.620   7.315   1.372
40233W        W 4177  43.411  39.994   3.385
40234W        W 4178  13.167  25.586   2.340
40235W        W 4179  34.489  19.272  12.411
40236W        W 4180  38.890  16.651  10.122
40237W        W 4181  40.973  15.578  11.092
40238W        W 4182  29.635  29.529   4.706
40239W        W 4183  14.716  17.263   1.769
40240W        W 4184  25.173  24.219  13.825
40241W        W 4185   6.899  35.443   2.749
40242W        W 4186  12.333  37.462   1.272
40243W        W 4187  13.276  29.122  14.452
40244W        W 4188   6.328  30.024   4.761
40245W        W 4189  20.163  27.170  11.919
40246W        W 4190  22.640  17.128   1.372
40247W        W 4191  22.529  38.350   2.666
40248W        W 4192   4.891   8.363  13.396
40249W        W 4193  10.857   1.823  11.978
40250W        W 4194  19.132  37.437  10.593
40251W        W 4195  23.709  10.778   1.372
40252W        W 4196  14.719   3.728  12.416
40253W        W 4197  14.110   7.385  12.525
40254W        W 4198  14.831  40.811  14.384
40255W        W 4199  37.914  27.007   3.793
40256W        W 4200   2.275  37.906   0.442
40257W        W 4201  20.532  24.621  13.028
40258W        W 4202  12.709  26.985   1.344
40259W        W 4203  21.241   6.802   1.345
40260W        W 4204  39.812  10.775  11.485
40261W        W 4205  41.304  17.666  10.547
40262W        W 4206  40.922  17.690  12.500
40263W        W 4207  11.813  22.047   4.182
40264W        W 4208  31.456  16.777  11.607
40265W        W 4209  16.247  38.820   3.200
40266W        W 4210  22.675   1.416  10.492
40267W        W 4211  29.455  13.344   3.323
40268W        W 4212   8.385  38.446  12.485
40269W        W 4213  21.569  21.098  11.005
40270W        W 4214  23.636  38.010   4.226
40271W        W 4215  43.799  29.020  14.833
40272W        W 4216  27.976  13.820  12.422
40273W        W 4217  30.162  31.634  10.903
40274W        W 4218  25.697  22.702  14.444
40275W        W 4219  40.501   9.389  11.049
40276W        W 4220  40.415  25.083  12.549
40277W        W 4221  41.491  38.957  11.428
40278W        W 4222  42.453  44.287   3.632
40279W        W 4223  38.427  34.102  14.415
40280W        W 4224  32.119  16.248   1.916
40281W        W 4225   4.282  16.643   2.330
40282W        W 4226  19.255  19.665   3.376
40283W        W 4227  27.606  34.032  12.904
40284W        W 4228  12.328  30.971  11.021
40285W        W 4229  42.309  19.689   2.228
40286W        W 4230   9.660  25.084   2.759
40287W        W 4231  14.791  13.615   2.772
40288W        W 4232  37.500  27.126  10.485
40289W        W 4233  30.907  23.539  10.621
40290W        W 4234  13.752  37.856   3.673
40291W        W 4235  27.595  44.975   4.803
40292W        W 4236  22.543  10.190  12.974
40293W        W 4237  32.556  29.934   2.664
40294W        W 4238  31.912  33.005   3.184
40295W        W 4239  30.514   1.477   4.117
40296W        W 4240  13.814  31.644   4.313
40297W        W 4241  20.558  41.852   4.232
40298W        W 4242  31.452  43.848  13.052
40299W        W 4243  18.082  21.646   5.179
40300W        W 4244  20.206  18.210  13.318
40301W        W 4245  11.228   1.374   3.215
40302W        W 4246  29.477  33.008   3.848
40303W        W 4247  25.643  13.729   2.301
40304W        W 4248  32.127   1.435   0.334
40305W        W 4249  13.612  43.930   5.654
40306W        W 4250  35.506  16.712   0.806
40307W        W 4251  27.532   3.396  12.985
40308W        W 4252  32.061  22.037  11.976
40309W        W 4253  36.479  17.717  12.409
40310W        W 4254  16.117  25.168  13.848
40311W        W 4255  35.409  40.878  10.984
40312W        W 4256  41.386  12.227  12.872
40313W        W 4257  18.256  44.985   0.734
40314W        W 4258  12.361  36.558  11.915
40315W        W 4259  21.035  17.291   0.277
40316W        W 4260  35.902  27.459  12.897
40317W        W 4261  44.780  12.664   0.261
40318W        W 4262   3.914  33.893  14.846
40319W        W 4263  27.014   9.740   0.730
40320W        W 4264   4.715  29.078   0.340
40321W        W 4265  16.699  33.454   3.748
40322W        W 4266  23.165   6.898  14.316
40323W        W 4267  34.063  30.466   1.280
40324W        W 4268   9.324  22.101  14.799
40325W        W 4269  23.040  32.927   2.722
40326W        W 4270   5.690  22.723   1.930
40327W        W 4271  10.183  24.532  13.438
40328W        W 4272  13.302   3.839   4.813
40329W        W 4273  21.731   9.863  11.372
40330W        W 4274  21.590  28.528   1.419
40331W        W 4275  14.652  11.255  10.638
40332W        W 4276  26.525   1.937  10.962
40333W        W 4277  15.088   7.340   5.201
40334W        W 4278  31.595  40.998   4.829
40335W        W 4279  20.607  15.610   3.719
40336W        W 4280  26.597   1.952  10.150
40337W        W 4281  14.099   3.818  12.488
40338W        W 4282  23.538   5.286  10.487
40339W        W 4283  34.904  33.101   3.663
40340W        W 4284  21.143  29.437  13.498
40341W        W 4285  43.464  36.358  10.929
40342W        W 4286  34.384  20.048  14.506
40343W        W 4287  10.306  36.974  10.405
40344W        W 4288   9.769  38.338  14.513
40345W        W 4289  40.803  17.080  14.499
40346W        W 4290   7.687  41.951   3.340
40347W        W 4291  21.116   8.724  12.916
40348W        W 4292  11.776   7.184  13.457
40349W        W 4293   4.936   3.416   0.827
40350W        W 4294   7.700  36.934  12.906
40351W        W 4295  34.967  38.475   2.824
40352W        W 4296  37.905  10.811   1.396
40353W        W 4297  41.927  20.050  12.885
40354W        W 4298  43.291  44.336  11.128
40355W        W 4299  33.429  43.940  10.507
40356W        W 4300  30.965  12.352   2.270
40357W        W 4301   9.318  36.527   3.724
40358W        W 4302  14.609  39.388   1.321
40359W        W 4303  31.507  29.991  14.795
40360W        W 4304   0.366  17.632  14.761
40361W        W 4305  15.763  21.163   2.846
40362W        W 4306   5.791  20.077  12.412
40363W        W 4307  17.151  36.455  14.818
40364W        W 4308  25.092   8.348  12.046
40365W        W 4309  22.733  28.540   1.307
40366W        W 4310   5.693   5.210   2.897
40367W        W 4311  16.752  41.316  14.774
40368W        W 4312  25.473   6.884  13.952
40369W        W 4313  35.047  27.183  11.015
40370W        W 4314  43.792  23.022   3.720
40371W        W 4315  22.585  26.547   2.799
40372W        W 4316  19.658  12.772   0.268
40373W        W 4317  12.307  40.380   1.225
40374W        W 4318  42.012   5.208  11.962
40375W        W 4319  16.138   5.319   2.848
40376W        W 4320  43.500   7.349  11.530
40377W        W 4321  11.850   7.199  10.131
40378W        W 4322  13.207   4.424   2.244
40379W        W 4323  29.523  44.472  14.850
40380W        W 4324   3.788  23.045   4.824
40381W        W 4325   4.292   4.319  10.566
40382W        W 4326  32.016  36.461  14.509
40383W        W 4327   4.802   6.225  10.413
40384W        W 4328  33.082   1.447   1.451
40385W        W 4329   3.432  13.142  13.330
40386W        W 4330  30.164  29.517  14.408
40387W        W 4331  42.333   6.718  11.898
40388W        W 4332  43.905  26.951   4.211
40389W        W 4333   9.327  10.150   3.335
40390W        W 4334  10.862  26.027   0.943
40391W        W 4335  24.587  44.965  10.927
40392W        W 4336   5.843   3.747   4.817
40393W        W 4337  23.185  14.097   3.634
40394W        W 4338  21.537   8.713  10.992
40395W        W 4339  42.868  37.430  12.034
40396W        W 4340   4.745  17.175   1.254
40397W        W 4341  28.016  33.386  12.930
40398W        W 4342  10.840  21.114  14.982
40399W        W 4343  39.949   6.897   2.709
40400W        W 4344  14.629  35.872   5.172
40401W        W 4345   6.371  28.614   9.999
40402W        W 4346  18.079  28.510  12.094
40403W        W 4347  43.835  29.614   2.345
40404W        W 4348  41.029  38.499   3.173
40405W        W 4349  17.614  22.643   1.749
40406W        W 4350   6.333  27.138   4.350
40407W        W 4351   8.300  17.196   0.477
40408W        W 4352  16.268  14.265   0.257
40409W        W 4353   6.859  21.199   3.753
40410W        W 4354   4.364  39.336   4.799
40411W        W 4355  27.018  38.503   0.252
40412W        W 4356  27.039  17.607   2.408
40413W        W 4357  34.049  12.795   3.800
40414W        W 4358  39.860  43.362   0.860
40415W        W 4359   0.776  40.033   2.319
40416W        W 4360  34.901  19.647   0.837
40417W        W 4361  41.482  29.530   2.364
40418W        W 4362  29.080  18.099   3.714
40419W        W 4363  29.669  42.850   2.287
40420W        W 4364  36.485   7.741  14.866
40421W        W 4365  13.798  35.458  11.045
40422W        W 4366   7.175  38.872  10.500
40423W        W 4367  28.942  15.590  13.453
40424W        W 4368  44.342   4.412   3.676
40425W        W 4369  20.529  12.196  13.041
40426W        W 4370   9.354  34.023   3.785
40427W        W 4371  14.291  17.263   2.746
40428W        W 4372  34.511  35.890   0.446
40429W        W 4373  24.705  21.580   1.868
40430W        W 4374   2.317  35.468   1.364
40431W        W 4375  24.547  31.517   1.350
40432W        W 4376  18.122  39.035   2.272
40433W        W 4377  15.631  29.476   3.209
40434W        W 4378  21.620  37.052   4.252
40435W        W 4379  30.991   9.747   0.821
40436W        W 4380   2.838  40.470   0.285
40437W        W 4381   5.694  36.573  12.941
40438W        W 4382  18.094  20.691  11.867
40439W        W 4383  30.441  23.659  14.923
40440W        W 4384  14.294  11.343  14.383
40441W        W 4385  43.940  21.554  12.368
40442W        W 4386  23.628   4.871   0.450
40443W        W 4387  25.678  43.424   4.193
40444W        W 4388  24.113  29.442  10.618
40445W        W 4389  15.268  39.851   1.908
40446W        W 4390   0.420  11.631   1.288
40447W        W 4391  20.568  44.412   2.727
40448W        W 4392   7.273  40.920   2.869
40449W        W 4393  17.649  33.916  13.020
40450W        W 4394  29.521  14.283   3.241
40451W        W 4395   2.380  30.037  14.461
40452W        W 4396  36.919   1.768   4.705
40453W        W 4397   5.303   1.432   3.854
40454W        W 4398  33.551  35.993   4.252
40455W        W 4399  38.510  11.364   1.886
40456W        W 4400  43.876  20.271  14.489
40457W        W 4401  16.090  38.016  11.592
40458W        W 4402  34.018  42.968   4.732
40459W        W 4403   3.863  16.714   0.381
40460W        W 4404   9.838  32.541   0.277
40461W        W 4405  35.992   7.682   4.771
40462W        W 4406  23.696  26.587  10.409
40463W        W 4407   2.272  22.724  12.456
40464W        W 4408  19.246  25.547   5.264
40465W        W 4409  24.485  43.889  10.555
40466W        W 4410   0.401   2.794  13.395
40467W        W 4411  34.956  21.212  13.493
40468W        W 4412   0.250  14.293   4.818
40469W        W 4413  25.634  19.169  10.626
40470W        W 4414   6.305  13.620  14.442
40471W        W 4415   0.263   4.315   2.368
40472W        W 4416  21.256  34.963  10.948
40473W        W 4417  18.585  29.174   0.481
40474W        W 4418  28.974  44.453  13.028
40475W        W 4419  44.351  30.645  13.969
40476W        W 4420  22.157   2.904  14.964
40477W        W 4421   3.265  39.377   4.742
40478W        W 4422  43.976   8.374   4.162
40479W        W 4423   3.896  30.641   3.815
40480W        W 4424   8.809   3.454   2.868
40481W        W 4425   9.711  37.420  13.526
40482W        W 4426   7.702   3.908   1.396
40483W        W 4427  41.034   2.233   3.731
40484W        W 4428   6.858   3.847   0.445
40485W        W 4429  44.442  26.027  12.839
40486W        W 4430   7.890  15.103  12.440
40487W        W 4431  31.903  29.032  13.480
40488W        W 4432  36.411   4.843  13.379
40489W        W 4433  13.105   3.902   9.967
40490W        W 4434  19.754   0.781   1.731
40491W        W 4435  33.530  27.670   2.900
40492W        W 4436  41.922  26.618   4.709
40493W        W 4437  16.277   6.707   4.156
40494W        W 4438  22.209  38.851  11.077
40495W        W 4439   2.803   0.776   4.737
40496W        W 4440  36.866  37.861   1.791
40497W        W 4441  23.996  19.190   4.803
40498W        W 4442  18.135  25.161   5.288
40499W        W 4443  26.697  14.653   1.310
40500W        W 4444  35.897  41.361  14.347
40501W        W 4445  17.182  15.817  10.914
40502W        W 4446  19.598  12.771  12.533
40503W        W 4447  13.252   3.273   3.714
40504W        W 4448  11.681  27.668   0.921
40505W        W 4449  23.616  39.362  12.459
40506W        W 4450  12.185  13.618   0.433
40507W        W 4451  11.759  17.629  13.857
40508W        W 4452  36.542  28.078   2.345
40509W        W 4453  19.556  12.273  11.520
40510W        W 4454   3.874  38.885  14.824
40511W        W 4455  29.571  35.039  13.013
40512W        W 4456  18.061   1.367  13.403
40513W        W 4457  43.021  22.234   3.246
40514W        W 4458  33.127  41.999  12.829
40515W        W 4459  11.354  34.956   2.782
40516W        W 4460   7.244  37.930   3.306
40517W        W 4461   8.361  10.246  12.861
40518W        W 4462  42.992  19.083  14.784
40519W        W 4463  31.644  29.067  11.446
40520W        W 4464  23.654  30.097  10.509
40521W        W 4465  35.936  30.020   0.896
40522W        W 4466   0.942  33.383   0.394
40523W        W 4467  15.579  42.853   1.728
40524W        W 4468  28.457   9.856  13.946
40525W        W 4469  26.028  17.111   0.728
40526W        W 4470  24.085  12.772   0.876
40527W        W 4471  10.214   3.901   3.636
40528W        W 4472  41.298  18.083   3.229
40529W        W 4473  18.755   2.358  12.353
40530W        W 4474  10.266   6.324   4.207
40531W        W 4475  31.411   3.313  10.540
40532W        W 4476  43.396   0.742  12.572
40533W        W 4477  21.699   7.262  13.507
40534W        W 4478  44.341   2.259   2.344
40535W        W 4479  43.979   5.749  14.959
40536W        W 4480  40.042  12.683   2.879
40537W        W 4481  12.669  34.946   1.225
40538W        W 4482  20.267  29.165  11.612
40539W        W 4483   8.279  43.458   0.427
40540W        W 4484  36.028  37.550   4.265
40541W        W 4485  18.055  20.037  11.961
40542W        W 4486  18.183   1.389  13.928
40543W        W 4487  30.523  28.060  11.871
40544W        W 4488  18.200  14.698  14.937
40545W        W 4489  33.451  37.577   2.810
40546W        W 4490  29.586  18.681  11.035
40547W        W 4491  39.463   0.952   1.705
40548W        W 4492  13.160  12.166  13.046
40549W        W 4493  24.601  26.655   3.670
40550W        W 4494  18.205  15.233  13.360
40551W        W 4495   6.702  22.062  13.477
40552W        W 4496   6.336   5.334  14.833
40553W        W 4497  32.120  10.269   2.301
40554W        W 4498  20.731   5.762   2.345
40555W        W 4499  23.229  37.837   0.468
40556W        W 4500  34.606   7.842  10.548
40557W        W 4501  23.995   9.789   3.756
40558W        W 4502   4.854   6.852  14.344
40559W        W 4503  32.468  26.041   0.752
40560W        W 4504  38.476  14.129   0.424
40561W        W 4505  43.375  41.945  12.943
40562W        W 4506   3.799  10.825  14.369
40563W        W 4507  21.024  17.297  14.940
40564W        W 4508  28.024  15.764   1.696
40565W        W 4509  30.038  25.068  11.559
40566W        W 4510  25.673  12.216  14.396
40567W        W 4511  42.992   7.795  11.092
40568W        W 4512  19.223  35.101  14.467
40569W        W 4513  15.710  27.474   0.372
40570W        W 4514  36.439  11.801  14.825
40571W        W 4515  17.132  31.151  11.569
40572W        W 4516  28.643  17.299  12.564
40573W        W 4517  11.276   1.302   0.472
40574W        W 4518  28.987  43.901   0.822
40575W        W 4519  32.082  19.609   1.803
40576W        W 4520  25.575   3.809   1.299
40577W        W 4521   2.346  40.324   0.342
40578W        W 4522  21.668  35.488   1.250
40579W        W 4523  22.516  18.584  13.537
40580W        W 4524  25.687  14.221  11.592
40581W        W 4525  28.110  30.585  14.320
40582W        W 4526  16.677  27.049  10.961
40583W        W 4527   5.692   9.660  12.562
40584W        W 4528  11.652  30.619  13.525
40585W        W 4529  13.188  23.519   5.115
40586W        W 4530  21.104  30.129   1.426
40587W        W 4531  35.102  22.666  10.568
40588W        W 4532  38.556  30.081   3.700
40589W        W 4533  44.376  42.348  10.420
40590W        W 4534  24.210  27.688   3.229
40591W        W 4535  37.422  37.990  13.859
40592W        W 4536  31.127  41.020  13.384
40593W        W 4537  28.004  35.052  13.924
40594W        W 4538  24.602  10.725   4.814
40595W        W 4539  38.820  10.249   3.183
40596W        W 4540  11.256  30.920  14.387
40597W        W 4541  20.112   5.428  11.117
40598W        W 4542  44.342  11.218   2.720
40599W        W 4543   0.925   7.870   3.732
40600W        W 4544  37.945   7.407  11.970
40601W        W 4545  38.356  38.358  12.389
40602W        W 4546  14.613  27.072   1.398
40603W        W 4547   6.890   6.776  13.984
40604W        W 4548   0.320  30.530  13.833
40605W        W 4549  34.971  24.099   1.875
40606W        W 4550   0.330  37.419  14.790
40607W        W 4551   6.414  43.476  12.937
40608W        W 4552  44.317   9.217   3.223
40609W        W 4553   7.181   0.870  10.551
40610W        W 4554  44.484  17.246   4.169
40611W        W 4555  17.761  10.140   4.149
40612W        W 4556  13.235  37.580   4.817
40613W        W 4557  20.726  36.486  14.828
40614W        W 4558  23.005  39.911   1.918
40615W        W 4559  18.178   4.363   1.748
40616W        W 4560   3.242  38.416   3.773
40617W        W 4561  32.064   6.382   1.888
40618W        W 4562  11.859  17.158  11.382
40619W        W 4563  30.114  14.313   4.335
40620W        W 4564  16.726  37.443   4.831
40621W        W 4565  24.725  18.664   1.820
40622W        W 4566   9.208  20.657  11.521
40623W        W 4567  25.619  44.276  12.954
40624W        W 4568  20.251  21.520   4.611
40625W        W 4569  28.947   3.368   4.271
40626W        W 4570  37.531  34.957   3.849
40627W        W 4571   4.303  40.987   0.749
40628W        W 4572   1.276  25.627  11.021
40629W        W 4573  35.002  31.039   1.215
40630W        W 4574  43.843  17.097  11.434
40631W        W 4575  29.158  18.251   2.318
40632W        W 4576  10.262  40.448   2.389
40633W        W 4577  15.649   3.832   0.281
40634W        W 4578  42.347  25.981  10.504
40635W        W 4579  36.862  20.142   3.350
40636W        W 4580   8.823  19.713   4.291
40637W        W 4581  31.509   3.811  13.319
40638W        W 4582  26.191  20.594  12.025
40639W        W 4583  31.467  28.997   4.739
40640W        W 4584  19.226  16.159   0.368
40641W        W 4585  41.934   9.206   2.243
40642W        W 4586   8.366  42.303   4.639
40643W        W 4587  33.626  35.426   2.689
40644W        W 4588  28.058   6.336  13.501
40645W        W 4589  37.967  30.648   2.333
40646W        W 4590  41.437  43.818   3.782
40647W        W 4591   4.822  17.716   4.627
40648W        W 4592   7.239  38.840   2.338
40649W        W 4593  27.172  43.410   3.325
40650W        W 4594   9.647  39.949  11.557
40651W        W 4595   8.849  41.931  10.987
40652W        W 4596   0.788  41.512   9.933
40653W        W 4597   4.362  26.142  14.363
40654W        W 4598  22.634  24.106  14.506
40655W        W 4599  43.941  43.016  13.370
40656W        W 4600   8.364  27.151   3.284
40657W        W 4601  36.539  38.070  10.425
40658W        W 4602  35.855  28.945   1.877
40659W        W 4603  41.946  15.274  13.048
40660W        W 4604  31.622   5.809  12.341
40661W        W 4605  13.126  39.487  12.952
40662W        W 4606  14.259  19.285  12.076
40663W        W 4607  25.970  17.295   1.823
40664W        W 4608  36.539  34.514  11.075
40665W        W 4609  34.386  35.893   2.753
40666W        W 4610  20.718  20.235   3.757
40667W        W 4611  31.953  29.921   3.209
40668W        W 4612  25.498  14.303   1.228
40669W        W 4613  43.293  24.683  10.929
40670W        W 4614  20.176  13.126   0.863
40671W        W 4615  38.961  23.059   0.828
40672W        W 4616  34.934  17.629   3.160
40673W        W 4617  21.514  32.072  13.396
40674W        W 4618  29.078  18.681  14.948
40675W        W 4619  35.524  44.428  11.508
40676W        W 4620  18.166  33.047  12.086
40677W        W 4621   7.858   1.772   3.693
40678W        W 4622  29.647  13.288   4.621
40679W        W 4623  39.404  39.934   3.209
40680W        W 4624  26.487  22.192   2.296
40681W        W 4625  21.749  18.615  14.902
40682W        W 4626  19.670  19.632  14.419
40683W        W 4627  30.989   1.818   4.250
40684W        W 4628  15.641  32.894   4.630
40685W        W 4629  42.031  34.553   1.878
40686W        W 4630  36.440  24.683   3.867
40687W        W 4631   4.790  25.693  11.482
40688W        W 4632  10.225  12.697  11.121
40689W        W 4633  38.907  28.629   1.238
40690W        W 4634  11.265  19.092   2.392
40691W        W 4635   6.866  16.697   3.375
40692W        W 4636  38.865  19.592   0.262
40693W        W 4637  18.696  41.433  14.799
40694W        W 4638  20.076  21.564  12.480
40695W        W 4639  32.009   6.745   2.253
40696W        W 4640  29.654  17.104   1.710
40697W        W 4641   3.751   8.860   1.766
40698W        W 4642  25.550  28.447   3.675
40699W        W 4643  39.861  30.122  14.446
40700W        W 4644  43.885  20.642   2.811
40701W        W 4645  11.786  39.855  13.019
40702W        W 4646  43.411  15.221   2.800
40703W        W 4647  34.083   2.862   0.463
40704W        W 4648  22.180  31.570   2.328
40705W        W 4649   8.304  18.750   4.289
40706W        W 4650  30.526  40.441   4.267
40707W        W 4651  29.162   4.792  11.506
40708W        W 4652  25.059  11.362   2.184
40709W        W 4653  25.051  18.170   3.783
40710W        W 4654  35.993  40.390  13.424
40711W        W 4655  18.148  26.463  11.999
40712W        W 4656   5.226  43.490   2.797
40713W        W 4657  17.637  17.108   3.372
40714W        W 4658   7.341   2.305  13.827
40715W        W 4659  21.704  16.661   1.221
40716W        W 4660  36.382  14.113  12.850
40717W        W 4661  31.914   2.739   1.221
40718W        W 4662  37.355  30.000  14.344
40719W        W 4663  22.236   3.237  12.085
40720W        W 4664   1.947  31.541  12.892
40721W        W 4665  14.269  26.031  14.359
40722W        W 4666  42.856  22.238  10.459
40723W        W 4667  29.000  39.509   0.468
40724W        W 4668  39.969   4.293  10.991
40725W        W 4669  13.768  21.688  14.820
40726W        W 4670  17.264   5.225  13.023
40727W        W 4671  41.985  14.828  12.400
40728W        W 4672  33.923  37.407   3.777
40729W        W 4673   2.882   9.356   0.916
40730W        W 4674   5.768  16.157  12.949
40731W        W 4675   6.362  15.751   0.321
40732W        W 4676  37.055  31.460  10.591
40733W        W 4677  23.992  10.343   4.650
40734W        W 4678  35.990  11.838  11.513
40735W        W 4679  42.865  35.527  12.994
40736W        W 4680  31.901   0.977  14.382
40737W        W 4681  35.556  30.967   1.292
40738W        W 4682   5.688   0.492   4.142
40739W        W 4683   2.777   1.955   0.913
40740W        W 4684  27.043   1.787  13.862
40741W        W 4685   9.156  35.858   1.275
40742W        W 4686  36.057  15.595  10.568
40743W        W 4687  41.324  27.571  13.425
40744W        W 4688  34.456  13.119   3.291
40745W        W 4689  24.711  12.156  11.583
40746W        W 4690  12.203  20.143   3.789
40747W        W 4691  40.438   0.861  12.972
40748W        W 4692  39.504  31.404   2.238
40749W        W 4693  15.769   5.755   1.878
40750W        W 4694  34.891  27.963  10.154
40751W        W 4695   8.698  10.270   2.779
40752W        W 4696  30.998  17.149  13.444
40753W        W 4697   9.270   0.444   3.359
40754W        W 4698  35.855  33.118   3.350
40755W        W 4699  38.420  29.934  14.984
40756W        W 4700  36.056  10.875  14.401
40757W        W 4701  32.513  18.105   2.902
40758W        W 4702  34.070  37.472  13.813
40759W        W 4703   3.955   2.331   0.936
40760W        W 4704  36.564  29.534   0.325
40761W        W 4705  30.098  40.964   2.674
40762W        W 4706  33.546   4.767  14.942
40763W        W 4707  17.658  16.771   4.759
40764W        W 4708  28.027  17.641  14.298
40765W        W 4709   4.848  12.134  12.948
40766W        W 4710   3.289  26.176  12.438
40767W        W 4711   0.307  15.310  11.532
40768W        W 4712   3.774  10.334   4.626
40769W        W 4713  44.845  40.031  13.530
40770W        W 4714  35.431  30.425   1.789
40771W        W 4715   4.916  31.918  14.427
40772W        W 4716   7.745  17.560   3.318
40773W        W 4717  22.578  13.241   0.859
40774W        W 4718  31.997  37.842   2.378
40775W        W 4719  15.664  41.892  11.967
40776W        W 4720   4.836  21.217  11.022
40777W        W 4721  14.798  11.273  14.882
40778W        W 4722  16.308  21.564  14.808
40779W        W 4723  42.894  10.233   4.759
40780W        W 4724  33.935   1.429   1.272
40781W        W 4725   9.822  10.859  13.516
40782W        W 4726  29.068  23.725  11.436
40783W        W 4727   4.271  15.595  14.493
40784W        W 4728  16.769  18.684  11.949
40785W        W 4729  33.512  10.365   4.215
40786W        W 4730  13.332   9.876   2.352
40787W        W 4731  39.066  33.582  13.412
40788W        W 4732   6.235  10.208  10.525
40789W        W 4733  14.634  30.602   4.219
40790W        W 4734   3.247   3.310  13.340
40791W        W 4735  19.593  31.549  13.354
40792W        W 4736  22.052  36.062  13.837
40793W        W 4737  41.306   2.299  14.012
40794W        W 4738  43.837   6.419  12.436
40795W        W 4739  27.940   8.878  12.953
40796W        W 4740  25.629  19.189   2.709
40797W        W 4741  19.728  19.216   1.437
40798W        W 4742  15.663  10.374  11.053
40799W        W 4743  26.109  29.143  14.928
40800W        W 4744  41.293  16.079   4.179
40801W        W 4745  22.109  28.084  11.549
40802W        W 4746   6.270  22.583  10.137
40803W        W 4747   0.910  36.918   1.752
40804W        W 4748  16.167  32.598   2.797
40805W        W 4749  36.436  14.283  13.356
40806W        W 4750  21.676   9.699   4.629
40807W        W 4751   3.790   7.279  10.520
40808W        W 4752  30.447  18.636  10.486
40809W        W 4753  38.538  12.802  11.007
40810W        W 4754  33.406   2.287   4.268
40811W        W 4755   6.915  44.909   3.685
40812W        W 4756  30.506  40.926  11.965
40813W        W 4757  40.838  10.662  12.423
40814W        W 4758   0.785  25.999   4.808
40815W        W 4759  26.621   6.829  12.955
40816W        W 4760   6.423  28.127   2.816
40817W        W 4761  37.914   3.915  10.918
40818W        W 4762   5.387  41.834  11.585
40819W        W 4763  29.460  14.181  10.959
40820W        W 4764  32.396  17.567   0.445
40821W        W 4765  30.644   1.950   2.393
40822W        W 4766  33.408  33.961  10.928
40823W        W 4767  10.866  10.236  11.448
40824W        W 4768   1.388  29.924   3.864
40825W        W 4769  12.669  41.470  12.519
40826W        W 4770  11.186  13.207  13.051
40827W        W 4771  15.650  10.174   4.351
40828W        W 4772   9.188  16.714   3.198
40829W        W 4773  28.974  34.412  11.398
40830W        W 4774  15.198   2.846  12.951
40831W        W 4775   2.383  41.299  14.888
40832W        W 4776  44.481  22.116  11.399
40833W        W 4777  28.152  37.944   3.218
40834W        W 4778   1.914  23.548   1.774
40835W        W 4779  31.932  10.173  12.453
40836W        W 4780  14.329  32.140   0.902
40837W        W 4781   8.399  12.252  10.937
40838W        W 4782   2.956  16.095  13.004
40839W        W 4783   2.747   5.201   0.839
40840W        W 4784  42.375  32.130  14.783
40841W        W 4785  10.809  26.968   3.250
40842W        W 4786   7.404  29.561  14.379
40843W        W 4787   2.432   6.311   1.913
40844W        W 4788   9.355  17.241  13.465
40845W        W 4789   0.413  14.277   4.346
40846W        W 4790  23.215   7.786  10.987
40847W        W 4791  12.675  28.147  12.413
40848W        W 4792  21.186  23.079  11.562
40849W        W 4793  29.528  20.274  10.634
40850W        W 4794  39.405   2.319   0.730
40851W        W 4795   0.822  22.040   3.316
40852W        W 4796   8.720  21.251  12.915
40853W        W 4797  17.711  13.338   3.265
40854W        W 4798   4.938  38.524   2.691
40855W        W 4799  28.544  15.679  11.372
40856W        W 4800  16.149  10.352   1.355
40857W        W 4801  19.162   5.763   0.838
40858W        W 4802  15.769  21.558  13.812
40859W        W 4803  35.371  11.850  11.465
40860W        W 4804  19.724  36.441   3.786
40861W        W 4805  18.567  43.799   3.345
40862W        W 4806  28.150  35.050   5.093
40863W        W 4807  36.980  26.103  12.524
40864W        W 4808  23.989   9.199  11.943
40865W        W 4809  42.889   3.826  11.991
40866W        W 4810  23.710   1.445  14.977
40867W        W 4811  44.844   1.364  11.113
40868W        W 4812  32.964  29.022  13.349
40869W        W 4813  32.940   9.809  14.320
40870W        W 4814  37.056  35.856   1.416
40871W        W 4815  32.491   3.403  12.544
40872W        W 4816  42.517  15.764   2.807
40873W        W 4817  20.196  17.725  14.478
40874W        W 4818  17.735   6.183   3.259
40875W        W 4819  16.668   5.332  14.363
40876W        W 4820   9.372   3.829  10.637
40877W        W 4821  15.744  40.026  14.004
40878W        W 4822   9.249  19.177  11.037
40879W        W 4823  22.009  14.335   3.192
40880W        W 4824  25.967   5.765   3.261
40881W        W 4825  20.088   8.396  14.881
40882W        W 4826  18.765  14.718  10.614
40883W        W 4827  27.976  22.587  11.450
40884W        W 4828  44.410  22.529  11.588
40885W        W 4829   3.366   0.823   3.639
40886W        W 4830  35.359  18.139  13.877
40887W        W 4831  35.449   1.293   1.875
40888W        W 4832  28.976  39.470  12.431
40889W        W 4833   5.353  28.533  10.559
40890W        W 4834  14.276  13.163   1.441
40891W        W 4835   3.427  18.230  11.081
40892W        W 4836  26.071  31.044  12.917
40893W        W 4837  21.256  12.256  11.871
40894W        W 4838   7.302  15.100  13.386
40895W        W 4839  22.212   4.900   2.864
40896W        W 4840   7.301  13.708  11.437
40897W        W 4841   2.755  19.732  13.345
40898W        W 4842   9.809   8.678   4.300
40899W        W 4843   9.390  34.374  13.881
40900W        W 4844  40.407  22.706  11.467
40901W        W 4845  14.634  34.587  13.956
40902W        W 4846  26.479  24.712   1.848
40903W        W 4847  44.900  39.461  12.431
40904W        W 4848  12.796  33.414   4.136
40905W        W 4849  38.946  35.498  11.486
40906W        W 4850  35.377  23.178   2.368
40907W        W 4851  17.121  28.091  12.513
40908W        W 4852  26.527  28.061   0.765
40909W        W 4853  23.024   4.434  11.505
40910W        W 4854  21.548   6.423   2.873
40911W        W 4855  41.299   0.768  12.385
40912W        W 4856  23.587  22.697  10.913
40913W        W 4857  24.077  33.127   3.334
40914W        W 4858   3.952  33.883  13.428
40915W        W 4859   1.254  38.951   4.232
40916W        W 4860  25.669  20.063  12.350
40917W        W 4861  26.204   6.804  14.023
40918W        W 4862   0.432  14.114  12.469
40919W        W 4863  22.012  39.988  14.999
40920W        W 4864  32.430  38.339   2.771
40921W        W 4865  25.016  30.072   4.166
40922W        W 4866  23.491  18.571  14.297
40923W        W 4867  16.599  11.280  12.505
40924W        W 4868  28.968  18.730  14.378
40925W        W 4869  33.030  16.739  11.391
40926W        W 4870  42.330   8.403  13.494
40927W        W 4871  32.559  23.134  13.813
40928W        W 4872   6.187  27.606   2.248
40929W        W 4873  24.098  42.792   2.282
40930W        W 4874  30.635  41.448  12.892
40931W        W 4875  19.068  26.994  14.830
40932W        W 4876  23.087  22.720  14.401
40933W        W 4877  19.076  41.899   3.668
40934W        W 4878  28.556   3.755   4.276
40935W        W 4879   4.275  19.040  11.992
40936W        W 4880  30.632  21.047  12.841
40937W        W 4881   5.241  36.476   3.790
40938W        W 4882  14.242   4.809   2.726
40939W        W 4883  35.599  30.512  14.371
40940W        W 4884  38.850   1.244  14.903
40941W        W 4885  22.062  38.501   2.679
40942W        W 4886  23.040   7.695   2.733
40943W        W 4887   0.463  26.523   3.696
40944W        W 4888  30.065   0.911  14.950
40945W        W 4889  20.605  17.225  11.919
40946W        W 4890  40.393  43.499  10.440
40947W        W 4891   0.767  33.126  11.557
40948W        W 4892  16.300  24.518  12.465
40949W        W 4893  20.175   6.849  13.033
40950W        W 4894  42.032  10.364   0.895
40951W        W 4895  12.205  12.190   0.906
40952W        W 4896  35.466  41.882   2.721
40953W        W 4897  37.349  24.064   5.240
40954W        W 4898  26.492  34.051  10.571
40955W        W 4899   6.841  32.529   2.289
40956W        W 4900  28.455   1.869   1.881
40957W        W 4901  27.669  34.522   1.804
40958W        W 4902   6.394   9.352   3.859
40959W        W 4903  21.513  18.622  11.057
40960W        W 4904  34.394  27.120   2.334
40961W        W 4905  33.547  22.691   0.260
40962W        W 4906  11.657  25.506   4.217
40963W        W 4907   7.845  25.709  12.401
40964W        W 4908  44.770  33.615   1.909
40965W        W 4909   8.358  38.012   0.829
40966W        W 4910  28.438  20.107  10.522
40967W        W 4911   3.941   5.246   4.247
40968W        W 4912  41.325  44.920  10.573
40969W        W 4913  11.324   0.351   9.956
40970W        W 4914  29.152  15.171  10.596
40971W        W 4915   8.767   0.745  14.447
40972W        W 4916  12.314  19.142   3.684
40973W        W 4917   4.823   1.420  10.070
40974W        W 4918  37.539  41.968  10.424
40975W        W 4919  44.498   1.338  14.955
40976W        W 4920   5.315  15.309  12.002
40977W        W 4921  18.202  27.457  13.437
40978W        W 4922   6.895  26.059   0.887
40979W        W 4923  42.923  30.000   4.601
40980W        W 4924  26.187   7.706  13.983
40981W        W 4925   0.783  37.862  14.279
40982W        W 4926   4.374  35.937  11.103
40983W        W 4927  31.977   0.379  13.912
40984W        W 4928   5.433  43.922   1.719
40985W        W 4929  11.861  23.546   4.193
40986W        W 4930  33.564  20.238   3.386
40987W        W 4931  44.479  23.205   0.475
40988W        W 4932  28.147   2.963  11.476
40989W        W 4933  12.272  22.136  13.015
40990W        W 4934  17.292   6.231  11.536
40991W        W 4935  37.877  21.175   3.760
40992W        W 4936  25.161  29.046  12.467
40993W        W 4937  18.729   7.300  13.404
40994W        W 4938  20.200  20.272   0.861
40995W        W 4939  16.672  20.245   4.776
40996W        W 4940  20.763  35.509   2.358
40997W        W 4941  21.233   5.437  14.371
40998W        W 4942   3.715  22.543  14.337
40999W        W 4943  39.397  42.958  14.348
41000W        W 4944  38.920  39.845  13.026
41001W        W 4945  34.069  29.050  14.318
41002W        W 4946  18.128  23.055   1.322
41003W        W 4947  33.876  33.485   0.388
41004W        W 4948  23.114   1.785   2.743
41005W        W 4949  12.267  43.878   3.239
41006W        W 4950  21.048  30.099   0.373
41007W        W 4951   9.830   6.879   2.700
41008W        W 4952  43.011  34.574  14.774
41009W        W 4953  40.895   4.252  14.425
41010W        W 4954  40.465  30.035   2.315
41011W        W 4955  26.005  23.151   3.215
41012W        W 4956  38.916   7.198   2.267
41013W        W 4957   9.227  19.656   2.189
41014W        W 4958  19.275  24.706   0.349
41015W        W 4959  43.912   2.878   3.744
41016W        W 4960   4.331  37.519   1.392
41017W        W 4961  10.635  14.234  14.801
41018W        W 4962  23.520   5.870   3.305
41019W        W 4963  27.034  13.814  14.857
41020W        W 4964  23.573  11.795  13.011
41021W        W 4965  37.992  17.596  14.305
41022W        W 4966  18.140  12.121   2.230
41023W        W 4967  42.008  21.221   5.089
41024W        W 4968  29.168  43.948   2.315
41025W        W 4969   4.429  42.448  12.542
41026W        W 4970  22.706  42.948  12.075
41027W        W 4971  27.192  19.683   2.240
41028W        W 4972  34.443  30.917  10.899
41029W        W 4973   6.259  13.671   0.414
41030W        W 4974  18.208   7.828  13.976
41031W        W 4975  29.476  15.299   1.704
41032W        W 4976   1.299  37.378  12.063
41033W        W 4977   7.178  25.183   3.376
41034W        W 4978  38.984  31.509   0.759
41035W        W 4979  16.611  37.917  11.105
41036W        W 4980  14.111   5.264   2.241
41037W        W 4981  43.370  35.864   5.278
41038W        W 4982  14.124  16.258   2.879
41039W        W 4983   8.799  30.419   0.464
41040W        W 4984   6.403  38.858   0.268
41041W        W 4985  35.403  13.606   3.666
41042W        W 4986  13.673  19.061   0.923
41043W        W 4987   9.861  30.910   1.701
41044W        W 4988  10.689  18.120   0.483
41045W        W 4989   9.349  26.619   3.259
41046W        W 4990   2.280   6.867  13.487
41047W        W 4991  28.654   8.807   4.232
41048W        W 4992  16.602   5.883   0.966
41049W        W 4993  28.171  34.941  10.580
41050W        W 4994  34.434   5.332  11.885
41051W        W 4995  17.587  30.546   3.786
41052W        W 4996  16.145  21.722  12.986
41053W        W 4997   7.687  32.989   4.780
41054W        W 4998  38.443   3.280   2.666
41055W        W 4999   8.203  24.060  10.525
41056W        W 5000  44.994  15.602  13.476
41057W        W 5001  37.341   4.217   2.219
41058W        W 5002  44.390   9.386   0.934
41059W        W 5003  27.088   3.305   1.805
41060W        W 5004   6.754  31.006   0.966
41061W        W 5005  40.797  17.151   4.725
41062W        W 5006  33.552  40.807  12.435
41063W        W 5007  18.184   3.723   3.277
41064W        W 5008  35.056  23.194  12.515
41065W        W 5009  34.453  40.836  13.935
41066W        W 5010   3.861  41.432  12.561
41067W        W 5011  29.991  43.328   3.842
41068W        W 5012  24.028   5.832   1.436
41069W        W 5013   3.877  28.118   2.806
41070W        W 5014   6.297  27.003  13.443
41071W        W 5015  40.507  44.763   2.413
41072W        W 5016   5.801  19.177   2.809
41073W        W 5017  18.264  30.477   2.383
41074W        W 5018  37.063  28.571  10.408
41075W        W 5019   6.330  13.325   4.812
41076W        W 5020  33.547  41.519   0.362
41077W        W 5021  14.255  16.786   3.331
41078W        W 5022  35.553  40.027  11.953
41079W        W 5023  26.013  17.301  10.124
41080W        W 5024  25.075   2.420   2.760
41081W        W 5025   1.868  36.545   0.942
41082W        W 5026  42.501  15.106   2.370
41083W        W 5027   3.345  20.671   1.780
41084W        W 5028  37.014  34.459  11.469
41085W        W 5029  41.828  31.126  14.376
41086W        W 5030   8.260  11.624  12.910
41087W        W 5031  19.712  21.697  10.511
41088W        W 5032  32.434  11.161   2.749
41089W        W 5033   8.308  12.688   0.811
41090W        W 5034   8.381  10.804   0.459
41091W        W 5035  30.997  43.404  13.308
41092W        W 5036  18.678  34.982   4.193
41093W        W 5037  38.445   2.891   2.837
41094W        W 5038  28.649  38.563   3.179
41095W        W 5039  37.976  11.836   2.375
41096W        W 5040  36.969  21.175  10.505
41097W        W 5041  39.436   2.336   2.365
41098W        W 5042  40.953  29.032   1.780
41099W        W 5043  22.580  42.337   3.651
41100W        W 5044   2.800   6.811   0.871
41101W        W 5045   9.881  39.030  13.396
41102W        W 5046   9.284  30.493   2.300
41103W        W 5047  20.144  16.725  12.519
41104W        W 5048  31.917  14.320   3.214
41105W        W 5049  24.109  19.107  14.329
41106W        W 5050  31.478  26.552  12.572
41107W        W 5051  33.576   0.885  11.435
41108W        W 5052  18.604  26.156   4.224
41109W        W 5053  16.081  44.323   0.829
41110W        W 5054  18.228  32.042  11.466
41111W        W 5055  25.137  29.559   2.381
41112W        W 5056   3.270  31.407   3.663
41113W        W 5057  29.003  26.194  10.452
41114W        W 5058  25.610   0.477  13.954
41115W        W 5059  17.131  21.610   0.416
41116W        W 5060  16.205  33.432   0.287
41117W        W 5061   5.218   0.922  11.536
41118W        W 5062   2.957  10.839   4.787
41119W        W 5063  18.631  21.092   2.355
41120W        W 5064  40.048  10.239   0.897
41121W        W 5065  42.809  27.177  12.966
41122W        W 5066  19.556  28.592  10.574
41123W        W 5067  24.629  38.467  14.324
41124W        W 5068  40.530   0.391   1.697
41125W        W 5069  38.841  12.627   4.788
41126W        W 5070  44.407  16.289   1.408
41127W        W 5071  32.025  41.026   3.751
41128W        W 5072   2.739  23.151  14.424
41129W        W 5073  27.626  33.463  14.867
41130W        W 5074  32.609   3.419   0.315
41131W        W 5075   1.813  13.320  13.802
41132W        W 5076  19.175  39.829   3.297
41133W        W 5077  22.158  26.077   3.773
41134W        W 5078  32.407  24.566  11.945
41135W        W 5079   3.248  26.072  12.933
41136W        W 5080  39.054   9.850  11.921
41137W        W 5081   9.744   0.355   3.353
41138W        W 5082  43.483  12.832  10.567
41139W        W 5083  17.624   7.300  14.020
41140W        W 5084   9.867  39.914   1.795
41141W        W 5085  40.475  33.401   5.286
41142W        W 5086  30.031  23.050  11.577
41143W        W 5087   6.351  15.799  13.978
41144W        W 5088  25.086  13.246   0.335
41145W        W 5089  34.535  41.036  10.620
41146W        W 5090   8.289  43.927   4.201
41147W        W 5091  40.347   0.412  14.324
41148W        W 5092  30.972  15.679  11.058
41149W        W 5093  20.677  29.108   0.259
41150W        W 5094  41.813  29.990   2.410
41151W        W 5095   1.739  26.688  12.344
41152W        W 5096  38.025  33.456  14.893
41153W        W 5097   9.676  43.793  13.941
41154W        W 5098  35.531  17.261   1.891
41155W        W 5099  10.642  34.970  14.896
41156W        W 5100  32.507  35.854  14.498
41157W        W 5101  13.108   7.910   0.940
41158W        W 5102  10.795  36.536   1.376
41159W        W 5103  28.555   5.718   1.231
41160W        W 5104  28.178  14.242  14.919
41161W        W 5105  29.057  27.164  10.644
41162W        W 5106   3.745  25.156  14.973
41163W        W 5107  27.644  29.584   1.403
41164W        W 5108   8.305  10.297   0.820
41165W        W 5109  17.229  34.951  13.903
41166W        W 5110   0.275  24.489   3.763
41167W        W 5111  35.476  43.377  13.337
41168W        W 5112  40.804  35.059  10.628
41169W        W 5113  11.212  41.315   2.716
41170W        W 5114  22.735   0.401  11.983
41171W        W 5115  27.572   6.319  10.446
41172W        W 5116   9.235  11.709  11.475
41173W        W 5117  23.091   2.411   0.928
41174W        W 5118  22.541  10.785   3.306
41175W        W 5119  41.017   5.436   1.769
41176W        W 5120  34.011  14.644   3.346
41177W        W 5121  31.553   9.741   3.171
41178W        W 5122  37.026   0.289   3.248
41179W        W 5123  28.584  35.964   0.937
41180W        W 5124  20.752  17.227  13.884
41181W        W 5125   4.412   0.304   2.670
41182W        W 5126  29.048  30.924  10.628
41183W        W 5127  32.457  16.151   2.345
41184W        W 5128  32.434  28.577   0.417
41185W        W 5129  19.751   2.902  13.428
41186W        W 5130   5.384   1.304   2.264
41187W        W 5131   2.381  42.491   3.682
41188W        W 5132  10.854   8.210  13.935
41189W        W 5133   4.855  25.617   1.412
41190W        W 5134  44.381  28.478  10.448
41191W        W 5135  40.322   1.437   2.259
41192W        W 5136  33.532   9.724  11.018
41193W        W 5137  37.471  18.569  14.508
41194W        W 5138  17.285   3.919   2.337
41195W        W 5139  24.001  43.830   1.694
41196W        W 5140  29.597   7.786   1.906
41197W        W 5141   3.925  31.610   1.285
41198W        W 5142   3.762  34.989  14.432
41199W        W 5143  25.088  11.171   2.799
41200W        W 5144  21.686  20.667  10.626
41201W        W 5145  21.734  14.289   5.213
41202W        W 5146  36.910   3.868   0.886
41203W        W 5147  31.148  36.578   2.403
41204W        W 5148  28.955  34.090   3.849
41205W        W 5149   1.395  22.578   2.890
41206W        W 5150  36.026  12.768  14.317
41207W        W 5151  25.043  17.632  11.382
41208W        W 5152  21.037  35.400  13.439
41209W        W 5153  20.585  30.110  14.824
41210W        W 5154  33.481  23.606  10.556
41211W        W 5155  40.022  43.838  11.040
41212W        W 5156  15.628   9.695   3.332
41213W        W 5157  38.495  42.918  11.986
41214W        W 5158  32.915   1.415  10.612
41215W        W 5159  36.963  20.757   0.325
41216W        W 5160  25.658  34.495   3.804
41217W        W 5161  44.413  42.871   1.345
41218W        W 5162  11.223   9.820  12.397
41219W        W 5163   1.410  25.475  11.888
41220W        W 5164   3.752  26.518   2.283
41221W        W 5165  41.973  18.782   3.782
41222W        W 5166   7.252  16.762   2.413
41223W        W 5167  28.665   5.901  14.449
41224W        W 5168   7.396   7.303   4.750
41225W        W 5169   7.195  13.833   2.703
41226W        W 5170  10.139  43.905  14.396
41227W        W 5171  23.053  11.161   2.419
41228W        W 5172  31.618  17.272   5.270
41229W        W 5173   5.374  36.938   2.810
41230W        W 5174  34.572  23.052  11.888
41231W        W 5175  12.176  44.391   1.837
41232W        W 5176  24.707  31.956  11.582
41233W        W 5177  34.525  12.348   1.780
41234W        W 5178  28.459  10.266   2.886
41235W        W 5179  39.463  30.421   1.410
41236W        W 5180  25.017  24.543   2.244
41237W        W 5181  40.320  39.400  11.975
41238W        W 5182   8.668  14.801  10.029
41239W        W 5183  37.377  24.079   3.315
41240W        W 5184   2.405  38.035   4.343
41241W        W 5185  40.546  18.163  10.045
41242W        W 5186  31.121  19.062   5.119
41243W        W 5187  14.661  12.322   0.278
41244W        W 5188  36.583  27.046  10.405
41245W        W 5189   5.334  10.214  11.856
41246W        W 5190   0.928  10.837   2.208
41247W        W 5191  44.840   8.747   3.272
41248W        W 5192  36.082   7.857   5.311
41249W        W 5193  44.459  20.716  11.552
41250W        W 5194  25.480  29.604   2.389
41251W        W 5195  40.000  33.007   1.404
41252W        W 5196  39.328  12.756   0.333
41253W        W 5197   4.427  41.401   2.300
41254W        W 5198   0.742   7.901  11.097
41255W        W 5199  32.034  25.530   2.752
41256W        W 5200   5.325  37.401   4.306
41257W        W 5201   2.819  32.511  11.477
41258W        W 5202  16.124  30.451   4.823
41259W        W 5203  12.779  43.348   3.783
41260W        W 5204  17.745  38.923   4.238
41261W        W 5205   9.313  37.065  13.444
41262W        W 5206  36.963  42.030   2.899
41263W        W 5207  44.803  15.298   4.623
41264W        W 5208  44.928  20.132  12.510
41265W        W 5209  34.024  36.529   2.774
41266W        W 5210  24.507  19.729  11.973
41267W        W 5211   6.322  29.479   5.179
41268W        W 5212   4.940  18.268  12.523
41269W        W 5213  25.511   6.722  10.614
41270W        W 5214  22.081  36.573  12.843
41271W        W 5215   5.915  27.483   0.323
41272W        W 5216  21.118  18.627   2.330
41273W        W 5217   4.705  11.252   0.378
41274W        W 5218  28.178  30.967   0.828
41275W        W 5219  16.252  44.444   4.339
41276W        W 5220  12.281  18.221   2.758
41277W        W 5221  13.786   6.192   3.712
41278W        W 5222  44.499  40.443   3.828
41279W        W 5223  18.684  37.883  11.388
41280W        W 5224  17.649   0.956  11.514
41281W        W 5225  26.664  24.686   0.729
41282W        W 5226  15.684   8.248   3.197
41283W        W 5227   5.346   0.835   2.765
41284W        W 5228  38.334  43.897  14.988
41285W        W 5229  41.452   5.298   2.749
41286W        W 5230  33.449   2.415  10.046
41287W        W 5231   5.710  14.736  12.396
41288W        W 5232  36.529  35.473   1.790
41289W        W 5233  17.761  15.118  12.975
41290W        W 5234  37.913  19.622  14.450
41291W        W 5235  24.488   3.373  10.624
41292W        W 5236  36.585  15.265   3.331
41293W        W 5237  42.805   7.838   2.211
41294W        W 5238  40.402   8.707   3.738
41295W        W 5239   7.349  15.592  14.000
41296W        W 5240   0.448  12.645   3.236
41297W        W 5241   8.231   7.693  12.002
41298W        W 5242   5.332   9.650  12.573
41299W        W 5243  42.301   1.900   0.247
41300W        W 5244  14.662  23.498  10.581
41301W        W 5245   4.824  20.120   1.213
41302W        W 5246  22.139   6.901  12.888
41303W        W 5247  31.566   4.395  14.372
41304W        W 5248  25.155   5.245  13.878
41305W        W 5249   9.361  23.197   3.778
41306W        W 5250  16.663  24.568  11.540
41307W        W 5251  32.607  16.201  14.414
41308W        W 5252  35.412   6.889  10.487
41309W        W 5253  31.578  44.001   4.617
41310W        W 5254   6.246   6.836  12.536
41311W        W 5255  27.976   4.244  11.600
41312W        W 5256  12.134  15.178   5.755
41313W        W 5257  36.078  32.491   1.248
41314W        W 5258  41.438   2.752   1.382
41315W        W 5259   1.399  10.845   2.685
41316W        W 5260  42.000   7.369   0.949
41317W        W 5261  24.532  11.748  11.959
41318W        W 5262  42.334  35.903   4.651
41319W        W 5263  27.968  24.633   1.895
41320W        W 5264  42.295   9.392   0.374
41321W        W 5265  19.053  24.682  12.519
41322W        W 5266  20.257  19.285   1.880
41323W        W 5267  19.276  29.047   3.197
41324W        W 5268   3.828  12.124  12.448
41325W        W 5269  37.488  22.195   3.204
41326W        W 5270  27.565  12.768  14.789
41327W        W 5271  12.704  16.744  13.466
41328W        W 5272  23.571   2.906   0.728
41329W        W 5273   9.809  20.760   2.902
41330W        W 5274   7.311  16.077  13.862
41331W        W 5275  34.563  27.506   3.820
41332W        W 5276  25.197  28.610  12.967
41333W        W 5277   2.350  42.467   4.174
41334W        W 5278  37.350  34.102  14.847
41335W        W 5279  15.085  42.003  10.920
41336W        W 5280   6.808  28.975  14.863
41337W        W 5281  42.838  35.575   2.347
41338W        W 5282   8.698  34.502  13.459
41339W        W 5283  18.256  36.442  11.448
41340W        W 5284   3.848   8.401   1.758
41341W        W 5285   0.390  12.347  11.093
41342W        W 5286   7.406  27.655  12.423
41343W        W 5287  23.714  29.151   2.334
41344W        W 5288  37.541  44.472   4.231
41345W        W 5289  17.279  33.995   3.255
41346W        W 5290  25.162  17.192  12.842
41347W        W 5291  37.047   4.712   1.916
41348W        W 5292  37.867  15.692  10.923
41349W        W 5293  38.894  10.839  14.819
41350W        W 5294   7.201  26.172  12.558
41351W        W 5295  38.333   6.800   3.817
41352W        W 5296  32.552  19.703   3.280
41353W        W 5297  17.622   7.228   5.187
41354W        W 5298  21.726  11.676  10.489
41355W        W 5299  39.901  22.728  11.433
41356W        W 5300   5.869  25.660  11.898
41357W        W 5301  25.636   3.271  10.472
41358W        W 5302  28.586  29.921   3.817
41359W        W 5303  16.615  20.738  10.570
41360W        W 5304  39.456   8.376   2.706
41361W        W 5305   1.852  19.095   1.235
41362W        W 5306  25.528  32.406  14.866
41363W        W 5307  26.480   8.299  12.833
41364W        W 5308   0.254  14.641   4.296
41365W        W 5309  40.427  27.477   1.299
41366W        W 5310  12.848  32.486  10.906
41367W        W 5311  22.729  17.109  14.998
41368W        W 5312   5.207  24.206  11.025
41369W        W 5313   9.872   0.776   2.322
41370W        W 5314  33.385   0.436   0.423
41371W        W 5315  24.547  27.004  14.439
41372W        W 5316  15.699  19.549   2.210
41373W        W 5317  25.187  18.544   2.759
41374W        W 5318  17.254  25.969   4.715
41375W        W 5319  31.527  44.934   0.447
41376W        W 5320  13.788  32.995   5.781
41377W        W 5321  10.357  39.819  14.933
41378W        W 5322   7.252  33.527   0.894
41379W        W 5323  35.438  12.229  14.470
41380W        W 5324  31.540  37.949   0.814
41381W        W 5325  10.323  40.314   3.713
41382W        W 5326  44.854  30.978  12.040
41383W        W 5327   9.390   7.239  14.274
41384W        W 5328   4.787   7.822  12.344
41385W        W 5329  12.639  12.704  14.330
41386W        W 5330  11.345  23.045   1.222
41387W        W 5331  12.257  27.192   4.220
41388W        W 5332  33.449  35.986   3.828
41389W        W 5333   0.757  32.456  11.527
41390W        W 5334  33.053  38.061   2.398
41391W        W 5335  23.691  25.635   2.712
41392W        W 5336   7.234  13.221   5.322
41393W        W 5337  35.479  25.637   0.930
41394W        W 5338  27.496   9.689   0.785
41395W        W 5339   0.887  22.609  10.519
41396W        W 5340  26.123   7.777  12.068
41397W        W 5341  21.214  15.250   2.847
41398W        W 5342  44.389  27.193  10.010
41399W        W 5343   0.792  41.812   0.822
41400W        W 5344   8.671  18.247  10.002
41401W        W 5345  34.475  22.609  10.605
41402W        W 5346  38.562   2.285  14.395
41403W        W 5347  25.976  42.444  11.100
41404W        W 5348   3.284   4.940  10.619
41405W        W 5349  41.963   3.422   2.367
41406W        W 5350  39.527  24.648  13.338
41407W        W 5351  31.537  33.538   0.335
41408W        W 5352  42.821  36.089   1.706
41409W        W 5353  40.532   3.418   1.292
41410W        W 5354  19.060  33.935   4.721
41411W        W 5355   5.352  14.271  14.019
41412W        W 5356  30.979  15.819   1.276
41413W        W 5357  20.551   7.752   2.218
41414W        W 5358   1.382  21.609  13.382
41415W        W 5359   3.441  10.324   1.747
41416W        W 5360  24.078  42.320   4.278
41417W        W 5361  26.159  30.463   4.333
41418W        W 5362  25.680   4.709   3.323
41419W        W 5363  39.854  28.951   3.857
41420W        W 5364  15.658  18.205   1.913
41421W        W 5365  12.166  40.052   0.362
41422W        W 5366  40.803  41.352   2.726
41423W        W 5367  43.469   7.371   1.849
41424W        W 5368  12.739  39.373   0.394
41425W        W 5369  31.638   9.786  12.027
41426W        W 5370  41.036  12.698  12.564
41427W        W 5371  44.409  28.974  10.516
41428W        W 5372   1.242  26.672  10.601
41429W        W 5373  29.603  37.535  11.431
41430W        W 5374   5.308  22.647   1.412
41431W        W 5375  44.793  11.630  11.070
41432W        W 5376  25.505   2.365   2.777
41433W        W 5377  22.208  24.641  11.904
41434W        W 5378   3.933  30.543  14.437
41435W        W 5379  26.962  12.222   2.374
41436W        W 5380  22.073  11.328  10.912
41437W        W 5381   7.344  13.804  11.903
41438W        W 5382  31.932  31.572  14.305
41439W        W 5383  16.155  12.777   2.231
41440W        W 5384  34.508  43.388   3.247
41441W        W 5385   6.809  22.522  13.836
41442W        W 5386  31.004  15.592   3.257
41443W        W 5387   0.329  10.730   4.330
41444W        W 5388  27.992   9.332  12.893
41445W        W 5389  20.247  35.439  11.894
41446W        W 5390  29.012  38.479   2.396
41447W        W 5391  27.460   2.229  10.432
41448W        W 5392  21.053  34.975  14.341
41449W        W 5393  33.428  42.817   0.414
41450W        W 5394  30.068  40.997  13.886
41451W        W 5395  20.693   2.793  14.504
41452W        W 5396  36.901  18.569   3.291
41453W        W 5397  39.838  23.163   0.388
41454W        W 5398  28.078  35.511  13.399
41455W        W 5399  19.136  39.455  11.947
41456W        W 5400  11.675  26.020  14.376
41457W        W 5401  42.855  12.743   3.858
41458W        W 5402  42.407  33.068  13.820
41459W        W 5403   2.242  30.633  12.864
41460W        W 5404  18.281  35.046   3.258
41461W        W 5405  11.300  34.580   2.255
41462W        W 5406  27.494   3.742  12.572
41463W        W 5407  20.689   7.675  12.868
41464W        W 5408  28.554  27.622  13.348
41465W        W 5409  23.063  32.598   0.949
41466W        W 5410  21.571  17.156  11.066
41467W        W 5411  26.158   0.750  14.317
41468W        W 5412  27.050  13.619  11.885
41469W        W 5413  32.933  44.823  14.813
41470W        W 5414  35.945  28.052  14.986
41471W        W 5415  18.100  38.381   3.720
41472W        W 5416  12.615   7.181   3.631
41473W        W 5417   6.262  17.240   1.338
41474W        W 5418  26.501  37.987   1.434
41475W        W 5419  43.821  24.645  11.902
41476W        W 5420   8.793   8.726  11.898
41477W        W 5421  34.379  19.704   2.193
41478W        W 5422  34.551  44.466   2.839
41479W        W 5423   6.183  35.370  10.540
41480W        W 5424  31.437  26.648   3.245
41481W        W 5425   4.438  44.476   0.769
41482W        W 5426  26.109  34.879   4.813
41483W        W 5427   2.460  11.336  10.980
41484W        W 5428  42.878   5.856  14.931
41485W        W 5429  32.428  42.947  14.332
41486W        W 5430  40.020  43.828  12.444
41487W        W 5431   6.232  15.288  12.361
41488W        W 5432   0.934  26.520  10.934
41489W        W 5433  16.745   4.831  13.516
41490W        W 5434   3.838  40.824  14.990
41491W        W 5435  37.407   2.229  14.416
41492W        W 5436   2.828  22.141  13.495
41493W        W 5437   0.890  41.879   3.154
41494W        W 5438  28.138   4.848   2.803
41495W        W 5439  10.759  41.930  14.838
41496W        W 5440  22.229  44.830  12.389
41497W        W 5441  33.015  16.114  10.995
41498W        W 5442  18.223   0.828  10.963
41499W        W 5443  38.860  22.232   4.303
41500W        W 5444  39.558  32.624   1.877
41501W        W 5445  19.773  18.753   2.327
41502W        W 5446  10.721  11.707   0.740
41503W        W 5447   0.404  38.325   4.686
41504W        W 5448  13.126  34.541   0.756
41505W        W 5449  11.647  15.624  13.354
41506W        W 5450  30.438  39.017   3.347
41507W        W 5451  26.051  30.455   0.848
41508W        W 5452   4.840  14.817  10.907
41509W        W 5453  40.842  22.091  11.578
41510W        W 5454  23.730  40.044  12.854
41511W        W 5455  11.854  34.595  12.864
41512W        W 5456  41.511  24.150   1.309
41513W        W 5457  20.200  34.462   2.270
41514W        W 5458  27.157  44.381  14.782
41515W        W 5459   0.376  17.739  11.580
41516W        W 5460  24.039  25.995  13.503
41517W        W 5461  20.145  25.189   1.928
41518W        W 5462  22.546  15.293   3.165
41519W        W 5463   3.405  29.982  12.433
41520W        W 5464  29.019  34.457   4.297
41521W        W 5465  26.651  30.932   3.289
41522W        W 5466  28.058  22.006   0.880
41523W        W 5467  30.652  42.329   1.907
41524W        W 5468  32.122   3.356   3.360
41525W        W 5469  22.039  12.812   1.310
41526W        W 5470  15.115   0.897  14.878
41527W        W 5471  42.804  18.161  10.525
41528W        W 5472  32.410  31.003  13.837
41529W        W 5473  17.736  36.524   0.782
41530W        W 5474  24.598  28.509  12.379
41531W        W 5475  25.205  44.265  14.029
41532W        W 5476  30.116  38.334  14.500
41533W        W 5477  36.460  34.397  12.909
41534W        W 5478   0.274  20.708  14.293
41535W        W 5479  33.594  34.433  10.026
41536W        W 5480  41.901  13.600   1.868
41537W        W 5481  33.930  25.006   2.345
41538W        W 5482   4.700  20.753  11.379
41539W        W 5483   0.824  37.997  14.873
41540W        W 5484  10.186  26.132   9.928
41541W        W 5485  34.054  39.011  12.530
41542W        W 5486  18.789  17.255   0.269
41543W        W 5487  33.604  44.779  11.565
41544W        W 5488  19.158  32.446   3.707
41545W        W 5489  29.517   7.172   0.899
41546W        W 5490  24.102  41.377   4.298
41547W        W 5491  23.695  13.257   0.842
41548W        W 5492  12.667  32.430  10.600
41549W        W 5493  39.322   0.378   3.261
41550W        W 5494  10.364  31.083   1.915
41551W        W 5495   1.868   0.387   3.709
41552W        W 5496  26.683  42.338   2.674
41553W        W 5497   7.267   1.811  13.486
41554W        W 5498  28.961  15.659  10.979
41555W        W 5499   8.395   9.196   1.778
41556W        W 5500  43.401   2.415  11.896
41557W        W 5501  33.020   6.882  14.797
41558W        W 5502  38.053  23.198   2.675
41559W        W 5503   8.794  14.712  12.423
41560W        W 5504  30.599  38.828   3.862
41561W        W 5505  14.728  26.117   3.325
41562W        W 5506  33.596  44.999  13.366
41563W        W 5507   0.822  37.378   1.219
41564W        W 5508   5.352  27.136  13.316
41565W        W 5509  13.344  33.102  12.392
41566W        W 5510  38.447  39.345   3.683
41567W        W 5511  14.325  28.931   1.326
41568W        W 5512  17.568  17.075  14.328
41569W        W 5513   3.759  24.077  10.431
41570W        W 5514  41.966   0.829  10.634
41571W        W 5515  28.972  34.545   0.421
41572W        W 5516  34.913  29.544   1.933
41573W        W 5517  32.631  27.490   4.349
41574W        W 5518  37.861  20.160   0.882
41575W        W 5519  42.829  37.509   4.334
41576W        W 5520  25.550  28.013  11.060
41577W        W 5521  29.991   9.832   3.231
41578W        W 5522  36.930  25.712  11.965
41579W        W 5523  23.721   3.832  13.444
41580W        W 5524  15.096   1.956  10.102
41581W        W 5525  25.201  43.362   4.622
41582W        W 5526  37.923  40.436   4.682
41583W        W 5527  25.207  39.863   2.784
41584W        W 5528  43.338  19.753   2.343
41585W        W 5529  29.118  39.552  11.864
41586W        W 5530  40.886  24.188   1.356
41587W        W 5531  39.458  41.504  14.853
41588W        W 5532  36.558  41.386  14.470
41589W        W 5533  23.197  32.024   3.362
41590W        W 5534  16.739  27.113   1.776
41591W        W 5535  34.433  12.616  10.578
41592W        W 5536  21.098  28.949  13.836
41593W        W 5537  16.568  24.608   0.342
41594W        W 5538  20.132  18.546  13.028
41595W        W 5539  22.195  10.211  11.992
41596W        W 5540   9.390  20.182   1.448
41597W        W 5541  20.222  17.563   0.946
41598W        W 5542  18.287  19.154  13.044
41599W        W 5543  11.749  39.854   1.215
41600W        W 5544  19.130  29.933  12.926
41601W        W 5545  21.196  24.693   0.359
41602W        W 5546  31.043  43.020  11.393
41603W        W 5547  10.289   4.777  13.415
41604W        W 5548  10.789  41.308  10.574
41605W        W 5549  37.899  39.837   1.412
41606W        W 5550  24.221  21.580   0.810
41607W        W 5551   2.383  20.249   0.864
41608W        W 5552  30.030   8.320   2.731
41609W        W 5553  35.371  20.274  12.995
41610W        W 5554   7.750  38.385  13.000
41611W        W 5555  14.716  39.040  12.441
41612W        W 5556  16.295  30.007  11.521
41613W        W 5557  41.015   6.679  10.894
41614W        W 5558  32.637   7.222   1.728
41615W        W 5559  26.561   0.299  13.539
41616W        W 5560  21.051  28.638  11.027
41617W        W 5561  27.569  29.451   2.331
41618W        W 5562  26.518   6.355   4.281
41619W        W 5563  14.234   7.198   1.310
41620W        W 5564  23.522  20.617   3.300
41621W        W 5565  22.113  44.840  13.004
41622W        W 5566  39.494   8.828  11.931
41623W        W 5567  11.222  35.476  11.532
41624W        W 5568  26.157   4.847  14.968
41625W        W 5569  26.050  18.294  14.940
41626W        W 5570  40.308  14.672   3.630
41627W        W 5571  35.885  36.457   3.848
41628W        W 5572  14.747   4.390  14.907
41629W        W 5573  21.553   8.177  14.007
41630W        W 5574  17.178  14.295  10.516
41631W        W 5575  22.594  29.515   2.790
41632W        W 5576  38.551  25.082   2.192
41633W        W 5577   5.892  26.107  11.052
41634W        W 5578  25.988  38.823  13.862
41635W        W 5579  15.788   5.289  12.399
41636W        W 5580  44.453  31.492  11.083
41637W        W 5581  33.022  16.711   3.789
41638W        W 5582  36.994  24.156  11.594
41639W        W 5583  34.052  43.840  14.340
41640W        W 5584  39.973  20.554  12.346
41641W        W 5585  13.315   5.793  14.831
41642W        W 5586   3.895  22.129   2.229
41643W        W 5587  12.669  16.598  11.481
41644W        W 5588  19.594  17.792   4.172
41645W        W 5589  29.652  10.772   1.304
41646W        W 5590  16.079   8.325  13.806
41647W        W 5591  35.065   9.648   0.960
41648W        W 5592  17.723  26.087   1.441
41649W        W 5593  24.583  40.335   1.921
41650W        W 5594  36.459   3.368  12.414
41651W        W 5595   0.388  39.853   2.812
41652W        W 5596  28.648  28.105  12.532
41653W        W 5597  44.806   6.233   2.268
41654W        W 5598  43.356  38.822   0.395
41655W        W 5599  41.392  18.591  12.950
41656W        W 5600  34.917  32.980  11.065
41657W        W 5601   9.868  37.004   4.604
41658W        W 5602  12.650   0.779   2.714
41659W        W 5603   3.922  18.567   0.471
41660W        W 5604   4.225   9.728   0.399
41661W        W 5605   9.811   5.290  14.916
41662W        W 5606   1.836   6.241  12.358
41663W        W 5607   4.830   1.731   1.266
41664W        W 5608  40.413  17.602  13.010
41665W        W 5609  34.375  13.107   2.703
41666W        W 5610  16.201  28.676   1.227
41667W        W 5611  24.578  39.968  11.034
41668W        W 5612  41.293  17.179   3.719
41669W        W 5613  23.497  36.962   2.263
41670W        W 5614  39.901  23.989  12.550
41671W        W 5615  38.045  30.501  10.566
41672W        W 5616  31.551  35.035   2.388
41673W        W 5617  10.306  16.087   4.160
41674W        W 5618   0.971  43.280   3.780
41675W        W 5619  20.568  35.909   3.865
41676W        W 5620  11.179  18.128  14.500
41677W        W 5621  19.695  21.072  13.824
41678W        W 5622  38.397   8.404   0.462
41679W        W 5623  10.641  16.249  14.277
41680W        W 5624  42.833   7.844   1.322
41681W        W 5625   9.265  34.072   3.238
41682W        W 5626  36.908  12.709   2.823
41683W        W 5627  11.696  44.767  14.488
41684W        W 5628  40.336  23.049   0.311
41685W        W 5629   2.931  16.566   2.222
41686W        W 5630  29.536   1.288  13.017
41687W        W 5631   2.737  11.743  11.605
41688W        W 5632  23.639  14.204   1.875
41689W        W 5633   6.311  42.361   2.235
41690W        W 5634   7.754  18.567  11.904
41691W        W 5635  34.437  26.638  12.445
41692W        W 5636  22.612  15.693  12.552
41693W        W 5637  35.031  39.970  14.916
41694W        W 5638   8.690  39.354   4.337
41695W        W 5639  21.163   7.666   1.381
41696W        W 5640  18.175  19.609   4.204
41697W        W 5641  27.480  34.077  14.436
41698W        W 5642  22.719  30.526  10.483
41699W        W 5643  38.975  39.476  14.399
41700W        W 5644  15.232   7.175   0.815
41701W        W 5645   4.883  18.121  13.829
41702W        W 5646  31.949   3.730   5.122
41703W        W 5647  23.674  31.945  11.477
41704W        W 5648   2.395   0.293   0.904
41705W        W 5649  43.328  17.633  12.034
41706W        W 5650  21.084  25.101   4.114
41707W        W 5651  35.381  26.662  12.069
41708W        W 5652  37.453  10.332   1.760
41709W        W 5653  36.940  23.030   0.396
41710W        W 5654   7.785   0.747  12.439
41711W        W 5655   7.841  17.061   2.781
41712W        W 5656  37.957  40.887   2.257
41713W        W 5657   1.944   7.194   3.702
41714W        W 5658  42.497  10.866   3.857
41715W        W 5659   5.740  21.257  13.427
41716W        W 5660  24.124  41.850  14.510
41717W        W 5661  22.063  24.496  10.419
41718W        W 5662  12.200  20.074   0.270
41719W        W 5663  12.322   9.392  14.779
41720W        W 5664  35.938  20.620  13.793
41721W        W 5665  30.416  12.780   4.301
41722W        W 5666  27.596  37.969   0.326
41723W        W 5667  44.907   7.411   0.353
41724W        W 5668  19.586  19.598  13.897
41725W        W 5669  30.473  11.291   1.810
41726W        W 5670  13.647  27.068   1.431
41727W        W 5671   5.779  28.097   2.695
41728W        W 5672  22.728  37.421  11.514
41729W        W 5673  16.749  22.250   3.165
41730W        W 5674  18.272   8.403  14.760
41731W        W 5675  31.964  19.767   2.859
41732W        W 5676  18.626  25.049  12.042
41733W        W 5677  18.093   3.233   3.668
41734W        W 5678  18.685  30.010  12.047
41735W        W 5679  23.656  10.829   0.952
41736W        W 5680  14.140   8.883   0.283
41737W        W 5681   2.926  43.463   1.899
41738W        W 5682  14.186  30.455   0.745
41739W        W 5683  38.899   9.683  13.373
41740W        W 5684  43.385   9.736  12.537
41741W        W 5685  16.795  42.513  10.540
41742W        W 5686   8.661  13.173   0.456
41743W        W 5687  26.577   4.292  11.500
41744W        W 5688  37.955  44.264   4.700
41745W        W 5689  34.871  37.963   1.719
41746W        W 5690  41.537   8.185  12.567
41747W        W 5691  20.095   9.724   0.910
41748W        W 5692  40.434  31.138  13.978
41749W        W 5693   6.922  26.086  13.040
41750W        W 5694  29.532   2.324   2.222
41751W        W 5695  43.848  28.667  13.811
41752W        W 5696  31.115  27.016  14.993
41753W        W 5697  42.349  27.588   4.701
41754W        W 5698  17.125  32.979  11.547
41755W        W 5699  26.595   0.354  14.016
41756W        W 5700  40.841  42.381  14.023
41757W        W 5701  26.627  15.588  11.020
41758W        W 5702  14.283  11.141  13.320
41759W        W 5703  34.894   3.764  13.416
41760W        W 5704  38.032   6.897   3.728
41761W        W 5705  21.034  13.656  14.012
41762W        W 5706  28.605  13.196  13.830
41763W        W 5707  37.436  22.540   1.923
41764W        W 5708  21.230  11.233   3.789
41765W        W 5709  27.650   4.441  10.957
41766W        W 5710   0.491  11.214   2.358
41767W        W 5711  19.592  43.917   2.375
41768W        W 5712  17.140  16.799  10.063
41769W        W 5713  22.048   3.419  12.833
41770W        W 5714   3.878  14.112  12.380
41771W        W 5715  24.110  11.755  10.526
41772W        W 5716  16.312  35.503   9.934
41773W        W 5717   1.461   4.787  14.826
41774W        W 5718  16.654   9.152   1.783
41775W        W 5719  43.002  43.441  10.894
41776W        W 5720  16.641  37.510  14.297
41777W        W 5721   1.482  14.764  13.309
41778W        W 5722  40.477  16.575  11.418
41779W        W 5723  37.344  32.511  10.590
41780W        W 5724   8.869  31.980   2.682
41781W        W 5725  35.449  39.845  10.455
41782W        W 5726   8.794   0.282  11.397
41783W        W 5727  26.990  26.066  14.451
41784W        W 5728  42.987  30.132  13.910
41785W        W 5729  38.427  30.537  11.549
41786W        W 5730  29.919   9.335  10.549
41787W        W 5731  10.675   0.355  11.499
41788W        W 5732  31.090   2.400  13.518
41789W        W 5733  36.584  36.916   1.416
41790W        W 5734   9.808  12.295  10.555
41791W        W 5735  10.840  12.767  10.907
41792W        W 5736  34.039   8.655   0.962
41793W        W 5737  12.723  40.343  12.524
41794W        W 5738  18.093  20.109   4.606
41795W        W 5739  27.474  39.484   0.413
41796W        W 5740  34.387  13.151  11.866
41797W        W 5741  40.812  28.605   1.784
41798W        W 5742   7.372  21.030   1.320
41799W        W 5743  35.550  20.534  13.960
41800W        W 5744  23.675  33.403  11.959
41801W        W 5745   6.832  24.193   2.409
41802W        W 5746  25.588  42.472   4.312
41803W        W 5747   3.920   3.919  10.536
41804W        W 5748  16.236  26.207  10.438
41805W        W 5749  41.427  37.463  14.503
41806W        W 5750  23.503  34.484   1.747
41807W        W 5751  21.143  10.649   0.358
41808W        W 5752   8.227  22.510   2.683
41809W        W 5753  38.570  26.150   3.694
41810W        W 5754  15.726   1.731   0.783
41811W        W 5755   7.690  27.533  13.530
41812W        W 5756   1.954   3.723   1.216
41813W        W 5757   6.726  35.574   4.258
41814W        W 5758  28.125  14.678  12.579
41815W        W 5759  38.958  34.026   0.833
41816W        W 5760  44.755   3.889  11.015
41817W        W 5761  38.355   5.306  12.030
41818W        W 5762  43.365   8.214  12.871
41819W        W 5763   8.863   8.292  12.883
41820W        W 5764  34.399  18.709  13.880
41821W        W 5765  37.835  32.024  13.791
41822W        W 5766   2.871   3.749   0.867
41823W        W 5767  19.755  12.353  13.465
41824W        W 5768  26.618  35.472   4.193
41825W        W 5769  40.536  35.944   2.670
41826W        W 5770  20.562  36.531  12.940
41827W        W 5771   3.955   0.888   1.723
41828W        W 5772  26.974   3.258   0.267
41829W        W 5773  29.659  31.106  11.941
41830W        W 5774  37.004  38.819  12.555
41831W        W 5775   9.158  38.901  10.889
41832W        W 5776  41.933  27.565  11.920
41833W        W 5777  17.269  26.655  10.036
41834W        W 5778  17.618   9.230   4.717
41835W        W 5779  25.110  13.814  11.482
41836W        W 5780  20.127  19.190   3.351
41837W        W 5781   9.329  36.904   0.347
41838W        W 5782  13.618  41.797  14.352
41839W        W 5783  33.514  30.439  12.079
41840W        W 5784  30.654  34.924   3.695
41841W        W 5785  27.638  14.331  13.444
41842W        W 5786  13.159  26.702   0.914
41843W        W 5787  39.517  41.527   2.759
41844W        W 5788   0.812  35.403  14.877
41845W        W 5789  26.025  32.619  14.816
41846W        W 5790   1.829  36.027  10.575
41847W        W 5791   6.681  41.983  10.900
41848W        W 5792  41.848  22.162  13.907
41849W        W 5793  22.251  33.590   0.346
41850W        W 5794  34.502  24.551  13.524
41851W        W 5795  34.557  35.526   2.896
41852W        W 5796  21.211  21.570  14.416
41853W        W 5797  26.156  40.473   4.305
41854W        W 5798  33.428   2.232  14.458
41855W        W 5799  20.753  42.841  14.018
41856W        W 5800  26.152  36.037  11.563
41857W        W 5801   1.375  24.643   3.726
41858W        W 5802  16.137  28.070   3.670
41859W        W 5803  14.276  37.876   2.402
41860W        W 5804   6.730  26.009   1.841
41861W        W 5805  28.993   7.228  10.588
41862W        W 5806  15.763   8.398  13.908
41863W        W 5807  26.502  25.207   4.714
41864W        W 5808  34.002  36.856  13.542
41865W        W 5809  44.866  43.020  12.019
41866W        W 5810  24.027   7.235   0.877
41867W        W 5811  40.443   5.356  13.875
41868W        W 5812  30.069  25.970   4.311
41869W        W 5813  25.686  34.985  14.364
41870W        W 5814  34.072  30.071   2.390
41871W        W 5815  15.687   4.332   5.229
41872W        W 5816  33.130  16.105  13.441
41873W        W 5817  30.955  14.180   4.337
41874W        W 5818  32.555  14.163  12.425
41875W        W 5819   0.428  41.807  10.923
41876W        W 5820  25.559  13.622  10.904
41877W        W 5821   5.688  34.875  12.929
41878W        W 5822   6.286  16.265   0.347
41879W        W 5823  30.470   9.757   3.165
41880W        W 5824   8.390   5.433  13.818
41881W        W 5825   8.280   0.300  12.524
41882W        W 5826   0.482   6.867   4.676
41883W        W 5827  12.647  28.931  11.859
41884W        W 5828  44.324  12.632  14.891
41885W        W 5829  26.036  27.085   1.329
41886W        W 5830  40.052  24.221   3.277
41887W        W 5831  16.211  42.497  11.964
41888W        W 5832   7.712  13.837   3.325
41889W        W 5833  37.016  25.118  14.914
41890W        W 5834   5.317  32.606   4.792
41891W        W 5835  33.044  40.430   0.320
41892W        W 5836   3.851  31.420   1.796
41893W        W 5837  29.642  21.753   0.255
41894W        W 5838   6.791  34.965  11.981
41895W        W 5839  21.052  14.744   1.930
41896W        W 5840   3.713  24.657  13.419
41897W        W 5841  43.515   0.836   1.909
41898W        W 5842   2.453  32.486   0.801
41899W        W 5843   3.214  22.208   2.219
41900W        W 5844  23.494  34.086  12.860
41901W        W 5845   3.435  38.487  14.372
41902W        W 5846  25.532   5.426  10.460
41903W        W 5847  14.272  19.149   2.301
41904W        W 5848  41.847   8.806  11.075
41905W        W 5849  30.438  34.540  12.571
41906W        W 5850  44.403   9.822   1.709
41907W        W 5851  25.468  41.920   0.764
41908W        W 5852  20.603  14.736  14.957
41909W        W 5853  18.094  20.262  13.888
41910W        W 5854   7.861   7.777   3.314
41911W        W 5855  18.129  11.742   1.422
41912W        W 5856  17.698   3.788  10.937
41913W        W 5857  24.545  11.627   2.320
41914W        W 5858   9.391  43.958   4.797
41915W        W 5859  27.975   4.427  12.913
41916W        W 5860  40.008   5.730   1.730
41917W        W 5861  29.657  35.483   4.633
41918W        W 5862  29.461  10.784   0.842
41919W        W 5863  13.342  11.261  14.358
41920W        W 5864  28.612  20.155   4.663
41921W        W 5865  21.540   2.732   1.860
41922W        W 5866  32.015  30.012   0.320
41923W        W 5867   5.297  27.196  14.315
41924W        W 5868  40.853  32.919  12.089
41925W        W 5869   6.780  43.404   1.411
41926W        W 5870  19.754  31.045   3.795
41927W        W 5871   5.771  13.702  10.583
41928W        W 5872  15.790  44.821  12.974
41929W        W 5873  29.011  37.898  13.974
41930W        W 5874  33.074  42.368  14.322
41931W        W 5875  33.089  22.124   1.725
41932W        W 5876  44.343   3.878   1.339
41933W        W 5877   8.293   4.853   1.756
41934W        W 5878   6.395  16.146   1.882
41935W        W 5879  30.486   8.321   1.866
41936W        W 5880  31.644  42.282   1.294
41937W        W 5881  30.028  34.897  12.968
41938W        W 5882  42.923  14.224  13.797
41939W        W 5883  25.071  38.842  11.538
41940W        W 5884   9.779  34.112   0.850
41941W        W 5885   7.236  17.202   3.278
41942W        W 5886  38.051   7.720   0.808
41943W        W 5887  19.772  14.628  12.035
41944W        W 5888  19.268   2.276   4.680
41945W        W 5889  27.151  15.286   1.863
41946W        W 5890  27.035  21.046  14.413
41947W        W 5891  28.610   9.307  10.908
41948W        W 5892  15.110  16.595   1.246
41949W        W 5893   5.282   1.904   3.247
41950W        W 5894   5.293  21.176   2.240
41951W        W 5895  22.183   7.249  14.872
41952W        W 5896   5.925  38.946  13.795
41953W        W 5897  39.887  19.766  14.321
41954W        W 5898  24.536  17.069   0.266
41955W        W 5899  43.295  27.579  14.470
41956W        W 5900  17.802  23.229   0.906
41957W        W 5901  44.297   7.341  12.539
41958W        W 5902  44.420  19.063  11.963
41959W        W 5903  13.234  14.339  12.412
41960W        W 5904  34.475  37.417   5.175
41961W        W 5905  39.869  31.596   1.795
41962W        W 5906  31.510  17.258   9.937
41963W        W 5907   1.329   2.395   0.846
41964W        W 5908  18.191   0.967   2.184
41965W        W 5909  31.926  35.858  11.493
41966W        W 5910  30.164   2.462  12.024
41967W        W 5911  32.517  27.578   3.837
41968W        W 5912  30.503  29.118  12.016
41969W        W 5913  31.934  40.917   2.365
41970W        W 5914   8.849  34.954   3.341
41971W        W 5915  11.837   3.397   3.363
41972W        W 5916  43.391   7.201   3.818
41973W        W 5917  22.721  34.405  13.479
41974W        W 5918   5.283  22.076  10.476
41975W        W 5919   0.938  21.583  13.457
41976W        W 5920   3.779   2.821  12.339
41977W        W 5921  22.017  17.222  13.525
41978W        W 5922  24.128  44.352  10.617
41979W        W 5923  35.461  11.282   1.439
41980W        W 5924  40.953  10.829   0.404
41981W        W 5925  33.975  31.602   2.196
41982W        W 5926   4.274  31.001  11.918
41983W        W 5927   3.217   0.983  12.480
41984W        W 5928  40.801  25.175  12.525
41985W        W 5929  23.039  20.597  10.890
41986W        W 5930  44.356   5.771   4.242
41987W        W 5931  11.798   1.462   0.822
41988W        W 5932   2.832   2.244   2.671
41989W        W 5933  23.011  41.535   3.353
41990W        W 5934  15.682  14.666   3.793
41991W        W 5935  29.141  12.279   4.631
41992W        W 5936   1.800  17.261  13.310
41993W        W 5937  16.204  20.593  13.497
41994W        W 5938  29.950  33.394   3.222
41995W        W 5939  44.356   5.877   0.387
41996W        W 5940  27.543   0.883   0.947
41997W        W 5941  28.591   4.289  12.928
41998W        W 5942  39.871  28.033   2.248
41999W        W 5943  18.243  16.181  11.397
42000W        W 5944   8.746   5.248  12.433
42001W        W 5945  23.041  16.297   3.191
42002W        W 5946  13.317  43.992  14.372
42003W        W 5947  27.945  38.950  14.758
42004W        W 5948  40.949   5.288   0.902
42005W        W 5949  13.284   8.814  11.105
42006W        W 5950  41.333  40.490   3.629
42007W        W 5951   0.765  44.470   5.205
42008W        W 5952  22.073  16.743  13.477
42009W        W 5953  44.460  14.278  13.432
42010W        W 5954  42.286  44.837  14.863
42011W        W 5955  31.044  41.939  13.879
42012W        W 5956  43.880  13.132  11.074
42013W        W 5957   4.251  22.204  12.873
42014W        W 5958  33.611  14.725   1.724
42015W        W 5959  10.858  31.146  13.803
42016W        W 5960  39.430  25.006   4.281
42017W        W 5961  16.120   0.413   2.870
42018W        W 5962  16.232  24.613   1.353
42019W        W 5963  41.905  24.150   3.834
42020W        W 5964   3.262   1.473   3.252
42021W        W 5965  18.103  15.098  11.462
42022W        W 5966  29.463  25.151  10.498
42023W        W 5967  19.237  16.174   4.217
42024W        W 5968   5.809  27.196  14.447
42025W        W 5969  28.079  14.145   4.690
42026W        W 5970  30.039  18.141  13.018
42027W        W 5971  13.256  23.503  13.805
42028W        W 5972  33.017  28.143   3.277
42029W        W 5973  33.105  39.990   2.771
42030W        W 5974   2.924   9.732  11.511
42031W        W 5975  11.822  32.499  13.838
42032W        W 5976   9.653  12.828   0.752
42033W        W 5977   4.796  42.894  14.442
42034W        W 5978  17.623  12.814  13.416
42035W        W 5979  10.302  43.894   1.779
42036W        W 5980  25.473   8.203  11.452
42037W        W 5981  40.818   1.739  10.477
42038W        W 5982   7.760  23.100   4.293
42039W        W 5983   3.426   0.312  12.837
42040W        W 5984  36.516  31.043   3.807
42041W        W 5985  41.882  44.422   4.156
42042W        W 5986  29.437  20.055  11.058
42043W        W 5987  41.480  19.714   4.601
42044W        W 5988  16.147  39.000   3.803
42045W        W 5989  23.052  42.923  14.808
42046W        W 5990  19.536  21.642  11.128
42047W        W 5991  32.059  29.670  10.473
42048W        W 5992   5.896  43.811  11.125
42049W        W 5993  20.225  37.444  10.587
42050W        W 5994  23.217   7.201   1.917
42051W        W 5995  39.065   9.159  11.923
42052W        W 5996  22.686   0.912  11.416
42053W        W 5997  43.290  39.426   1.249
42054W        W 5998   1.753  16.777   1.445
42055W        W 5999  36.567  37.869   2.785
42056W        W 6000  16.685  17.725   4.738
42057W        W 6001  28.624  36.030  12.916
42058W        W 6002  36.580  34.490   4.187
42059W        W 6003   8.317  38.471   1.380
42060W        W 6004  34.991  18.207   2.202
42061W        W 6005   1.391  14.289   1.448
42062W        W 6006  23.112   3.775  12.380
42063W        W 6007   5.436  27.104   0.342
42064W        W 6008  35.047  25.541   0.327
42065W        W 6009  12.811   8.207  12.996
42066W        W 6010  15.124   5.373   2.786
42067W        W 6011  31.898  12.634  12.091
42068W        W 6012   6.721  37.988   1.888
42069W        W 6013   9.374  16.701  12.832
42070W        W 6014  36.418   7.236  11.949
42071W        W 6015  37.021   5.312   0.473
42072W        W 6016   9.745  28.040   1.405
42073W        W 6017   4.871  40.357   3.846
42074W        W 6018  31.979  15.821  12.037
42075W        W 6019  21.057  23.554  12.447
42076W        W 6020   8.183  31.148   3.305
42077W        W 6021  14.306  34.385  10.996
42078W        W 6022   2.247  29.101  10.073
42079W        W 6023  41.389  44.824   4.773
42080W        W 6024  40.513  37.571   2.362
42081W        W 6025  13.326  16.654  14.918
42082W        W 6026   0.849  13.201   4.710
42083W        W 6027   0.402  20.194  14.338
42084W        W 6028  37.350  21.658  13.036
42085W        W 6029  26.613  25.051   4.126
42086W        W 6030  31.901  32.635  12.088
42087W        W 6031  23.225  41.818  13.860
42088W        W 6032  42.361  10.376   1.333
42089W        W 6033  42.806  34.401   1.439
42090W        W 6034  20.176  19.239  10.907
42091W        W 6035   4.765   9.305   1.331
42092W        W 6036  16.567  15.314   2.418
42093W        W 6037  27.989  20.673  10.951
42094W        W 6038   7.189  26.080   2.226
42095W        W 6039   3.452  41.949  10.962
42096W        W 6040  27.048   0.810  13.402
42097W        W 6041  40.531  36.062  12.352
42098W        W 6042   0.987  27.473  14.943
42099W        W 6043   3.744   4.809  10.887
42100W        W 6044  24.535  27.635  12.838
42101W        W 6045   4.841  10.285   1.753
42102W        W 6046  15.688  28.062   4.153
42103W        W 6047  33.395  44.487   0.483
42104W        W 6048  24.710  26.527  12.535
42105W        W 6049  24.982  42.473  13.807
42106W        W 6050  44.477  13.653  14.839
42107W        W 6051  26.644  24.671   2.697
42108W        W 6052  35.949  38.032  11.080
42109W        W 6053  25.161   5.329  13.470
42110W        W 6054  15.654  15.088  10.482
42111W        W 6055  27.181  41.300   2.842
42112W        W 6056  39.971  11.150   2.690
42113W        W 6057  31.466  19.157  14.323
42114W        W 6058  38.968  23.609   3.279
42115W        W 6059  17.562  24.983  13.387
42116W        W 6060  41.330  30.019   0.731
42117W        W 6061  17.698  12.221   1.399
42118W        W 6062   8.205  31.061  14.010
42119W        W 6063  35.368   2.343   3.270
42120W        W 6064  31.999   0.764  13.871
42121W        W 6065  14.632   6.803  12.854
42122W        W 6066  44.002  26.030   3.672
42123W        W 6067   9.728  14.184   1.915
42124W        W 6068   2.895  35.604   1.418
42125W        W 6069  20.074   8.184  11.031
42126W        W 6070  43.382   6.758  11.406
42127W        W 6071  15.184  32.108   9.956
42128W        W 6072  41.511  23.156  11.868
42129W        W 6073  17.102  16.250  11.910
42130W        W 6074  38.532   1.943   1.212
42131W        W 6075   5.274  10.779   1.399
42132W        W 6076  14.295  34.029  13.534
42133W        W 6077  19.633   6.328   3.253
42134W        W 6078  37.883   6.333   0.840
42135W        W 6079  19.281  19.767   2.398
42136W        W 6080  27.107   4.822  13.873
42137W        W 6081   0.370  37.398  11.459
42138W        W 6082   9.752   7.240   3.175
42139W        W 6083  37.460  24.160  14.460
42140W        W 6084  13.696  33.440   1.694
42141W        W 6085  27.658   5.257  14.988
42142W        W 6086   5.339   0.282   3.699
42143W        W 6087  25.004  18.582   3.660
42144W        W 6088  20.578  39.328   1.870
42145W        W 6089  14.247  23.545  13.332
42146W        W 6090  24.708   3.264   3.720
42147W        W 6091  29.598  16.272   0.363
42148W        W 6092  31.570  41.791   9.652
42149W        W 6093  41.371  37.375   4.637
42150W        W 6094  19.765  25.165  11.994
42151W        W 6095  44.943  15.152   4.167
42152W        W 6096  29.046  21.696  14.794
42153W        W 6097  15.253  24.225  12.497
42154W        W 6098  11.242  18.639  10.067
42155W        W 6099  17.066  26.527   1.367
42156W        W 6100  13.175  17.099   3.270
42157W        W 6101  34.880  43.016   3.647
42158W        W 6102  27.082  23.594  11.372
42159W        W 6103  41.796  33.936  14.468
42160W        W 6104  41.405  33.008   0.928
42161W        W 6105  32.913  14.328  13.450
42162W        W 6106  43.323  12.350  13.926
42163W        W 6107  10.280  37.833  12.069
42164W        W 6108  25.108  44.880  14.386
42165W        W 6109   3.870  35.407  14.886
42166W        W 6110  24.688  34.582  13.836
42167W        W 6111  33.543  24.071  10.896
42168W        W 6112  35.370  12.821   4.759
42169W        W 6113  18.253  30.082  12.966
42170W        W 6114  25.113  19.552  14.401
42171W        W 6115  25.005  32.978   4.649
42172W        W 6116  12.844  27.617  13.357
42173W        W 6117  17.208  24.193   4.295
42174W        W 6118  27.572   2.751   4.305
42175W        W 6119  23.035  17.582  11.962
42176W        W 6120   7.241  11.271  13.313
42177W        W 6121  33.037  30.557   4.188
42178W        W 6122  27.976  11.671  11.476
42179W        W 6123  15.234  15.276  12.975
42180W        W 6124  36.418  35.903   3.830
42181W        W 6125  23.189   4.738   0.471
42182W        W 6126   1.415   7.200   2.774
42183W        W 6127  24.618  21.743   4.229
42184W        W 6128  10.292  34.570   3.324
42185W        W 6129  37.916  11.233  13.479
42186W        W 6130  37.388  17.735  12.014
42187W        W 6131  11.800  22.594   2.702
42188W        W 6132  36.471  39.339  12.010
42189W        W 6133  40.000  41.951   3.647
42190W        W 6134  16.807  35.517   3.658
42191W        W 6135  16.141  33.910   3.639
42192W        W 6136  10.276  36.415   3.176
42193W        W 6137  33.496  18.736   5.187
42194W        W 6138  33.883  12.162   2.769
42195W        W 6139  31.954  35.023   4.183
42196W        W 6140  22.634  17.700  10.049
42197W        W 6141  11.659  16.171  12.459
42198W        W 6142  20.683  26.161   4.646
42199W        W 6143  41.374   9.785   3.279
42200W        W 6144  19.663  21.737  11.998
42201W        W 6145   6.822  40.334   2.742
42202W        W 6146   7.327  44.765   1.298
42203W        W 6147  14.252  40.882  13.034
42204W        W 6148  30.153  31.078  14.760
42205W        W 6149  39.846  33.515  13.495
42206W        W 6150  13.821  22.634   0.756
42207W        W 6151  32.951  21.736   3.345
42208W        W 6152  21.644   5.862  13.493
42209W        W 6153   2.831   9.666   3.172
42210W        W 6154  23.108  31.954  14.355
42211W        W 6155  24.591  37.516  11.947
42212W        W 6156   2.306   9.830   0.248
42213W        W 6157  21.099  28.960   2.368
42214W        W 6158  42.986  36.942  13.024
42215W        W 6159  15.254  28.624  10.596
42216W        W 6160  33.018  26.664   0.329
42217W        W 6161  17.577   5.758  10.509
42218W        W 6162   0.331  39.321  13.543
42219W        W 6163  36.084  41.005  12.085
42220W        W 6164  25.600   7.337  14.929
42221W        W 6165  30.040  34.396  14.350
42222W        W 6166  28.571  43.445   4.203
42223W        W 6167  40.955  24.162  14.771
42224W        W 6168  13.337  14.658  11.935
42225W        W 6169  42.331  38.365   4.152
42226W        W 6170  27.519  20.586   2.891
42227W        W 6171  44.271   5.783  12.453
42228W        W 6172   2.925  10.834  10.440
42229W        W 6173  24.621  20.224   3.644
42230W        W 6174  28.973  28.140  13.542
42231W        W 6175  29.517  42.378  11.098
42232W        W 6176  36.416  42.030  11.420
42233W        W 6177  17.719   9.300   2.897
42234W        W 6178  32.963  37.866   0.413
42235W        W 6179  38.038  26.995   2.684
42236W        W 6180  13.717  15.634   2.851
42237W        W 6181   4.286  22.203  11.406
42238W        W 6182   5.712  30.995   1.722
42239W        W 6183  41.416   4.891  13.016
42240W        W 6184  39.365  34.002   3.147
42241W        W 6185  20.599  38.437  11.546
42242W        W 6186  11.864  27.507  12.457
42243W        W 6187  30.629   8.240  10.626
42244W        W 6188  25.667  42.399  12.019
42245W        W 6189  38.839   5.909  14.010
42246W        W 6190  42.938   8.212   4.735
42247W        W 6191  31.973  27.001  12.021
42248W        W 6192   4.844  24.630   1.935
42249W        W 6193  40.003  40.326   0.289
42250W        W 6194   2.962  41.462   0.285
42251W        W 6195   7.668  14.791  11.455
42252W        W 6196  33.042  20.759   0.774
42253W        W 6197  11.351  11.764  10.898
42254W        W 6198   7.344  15.172  10.451
42255W        W 6199   7.288  29.441   1.916
42256W        W 6200  27.051  40.343  10.894
42257W        W 6201  41.475  33.917  13.843
42258W        W 6202  37.438  39.434   0.911
42259W        W 6203  15.143  24.102  14.981
42260W        W 6204   7.811   3.909  14.799
42261W        W 6205  23.490  21.256   5.198
42262W        W 6206  44.755  43.892   4.797
42263W        W 6207  40.376   2.763   1.327
42264W        W 6208  33.998   2.752  13.315
42265W        W 6209  19.626  40.397   0.367
42266W        W 6210  42.833   5.322  13.892
42267W        W 6211  15.594  12.834   1.259
42268W        W 6212  25.968  22.029   0.251
42269W        W 6213  20.644  24.001   3.834
42270W        W 6214  40.940  36.549  10.937
42271W        W 6215   6.921  19.558   3.783
42272W        W 6216  38.004  24.496   1.385
42273W        W 6217  31.639   8.732  12.056
42274W        W 6218   0.827  39.361   1.443
42275W        W 6219  18.217  28.052  14.791
42276W        W 6220   1.479   2.747   2.316
42277W        W 6221  11.213  20.758  12.559
42278W        W 6222  31.076  11.161  13.378
42279W        W 6223  32.015  38.473  14.390
42280W        W 6224  10.844   7.295  13.518
42281W        W 6225  34.081  41.010  12.955
42282W        W 6226  20.615   1.906   3.867
42283W        W 6227  22.659  33.912  14.781
42284W        W 6228   5.428  16.317  14.869
42285W        W 6229  24.009  31.500   3.729
42286W        W 6230  21.126  39.396  10.464
42287W        W 6231  15.764   5.322  12.916
42288W        W 6232   2.850   0.391  14.482
42289W        W 6233   6.789  37.568  12.860
42290W        W 6234  15.251   0.309  10.537
42291W        W 6235  40.904   4.383   5.785
42292W        W 6236  11.758   7.240   0.849
42293W        W 6237  33.490  33.556   2.823
42294W        W 6238   8.749  20.132  13.425
42295W        W 6239  32.504  35.968  10.533
42296W        W 6240   4.774  35.444  11.899
42297W        W 6241  37.957  14.595  10.475
42298W        W 6242  25.118  21.110  13.315
42299W        W 6243   4.725   3.769   3.188
42300W        W 6244  38.554  33.083  12.461
42301W        W 6245  41.385  15.315  12.029
42302W        W 6246  43.383  30.458   5.107
42303W        W 6247  19.606   8.677  11.906
42304W        W 6248  33.929  15.579   2.701
42305W        W 6249   9.240   6.357   0.939
42306W        W 6250  27.542   9.319  11.383
42307W        W 6251  13.232   5.284   0.359
42308W        W 6252  27.126  31.054   1.910
42309W        W 6253  40.543  15.104  12.873
42310W        W 6254  33.900  17.593  14.981
42311W        W 6255  32.100  29.048   1.450
42312W        W 6256   6.352   0.935   1.784
42313W        W 6257  43.475   8.170   3.232
42314W        W 6258  34.914  22.567   4.119
42315W        W 6259  34.521  35.566  13.987
42316W        W 6260   8.241  25.040   0.799
42317W        W 6261   7.192  26.643  14.352
42318W        W 6262  34.000  33.912  14.928
42319W        W 6263  19.047   7.241   4.302
42320W        W 6264  25.214  24.012  12.018
42321W        W 6265  33.122   4.915  13.857
42322W        W 6266  32.405  14.800  11.471
42323W        W 6267  32.115  10.304   1.287
42324W        W 6268  32.005   5.861   0.430
42325W        W 6269  28.929   0.882  10.624
42326W        W 6270  26.975  34.495  14.415
42327W        W 6271  44.816  42.505   0.897
42328W        W 6272   3.927  13.313   4.673
42329W        W 6273  18.775  31.420  11.443
42330W        W 6274  44.964  15.632   1.830
42331W        W 6275  32.480   6.423  14.876
42332W        W 6276  26.555  24.089   1.870
42333W        W 6277  19.245   5.237  13.444
42334W        W 6278  36.575  28.079  13.437
42335W        W 6279  31.962  25.567   4.275
42336W        W 6280  20.734   3.885  14.501
42337W        W 6281  39.358   6.315  10.960
42338W        W 6282  24.506  14.180   1.263
42339W        W 6283  41.465  37.475  10.966
42340W        W 6284  36.472  21.067  11.884
42341W        W 6285  11.345  42.389  11.388
42342W        W 6286  23.061  14.146  12.501
42343W        W 6287   0.324  32.122   3.163
42344W        W 6288   8.786  44.395   5.172
42345W        W 6289  31.912   0.878  10.563
42346W        W 6290   0.900  27.477   1.389
42347W        W 6291  22.155  37.487  11.540
42348W        W 6292  15.105  26.566  11.996
42349W        W 6293  10.250   5.820   3.360
42350W        W 6294  42.357  22.573  14.382
42351W        W 6295   5.400   8.681   5.260
42352W        W 6296  34.608  26.570  14.981
42353W        W 6297  43.958  19.095   4.733
42354W        W 6298  36.552   3.283   2.813
42355W        W 6299  37.927  22.159  11.480
42356W        W 6300  26.501  12.699  12.360
42357W        W 6301  14.609  38.485   4.193
42358W        W 6302   4.326   1.746   3.668
42359W        W 6303   6.873  14.226  11.079
42360W        W 6304  30.147  34.044  13.029
42361W        W 6305  15.096   7.390  12.375
42362W        W 6306   5.331  13.341  12.970
42363W        W 6307  16.681  17.595   1.728
42364W        W 6308  11.297  10.849   0.801
42365W        W 6309  30.414  26.146  10.559
42366W        W 6310  14.185  21.024   3.834
42367W        W 6311  22.566  21.589  14.479
42368W        W 6312  40.920   6.843  12.094
42369W        W 6313   7.838  29.490   2.796
42370W        W 6314  29.086  43.861   3.273
42371W        W 6315  24.588  39.042  13.805
42372W        W 6316  13.694  41.530  14.794
42373W        W 6317   7.304   5.830   3.317
42374W        W 6318  12.740   7.911  14.967
42375W        W 6319  39.890  19.227  12.844
42376W        W 6320   7.239   1.949   3.154
42377W        W 6321   1.926  40.320   2.200
42378W        W 6322  21.610  40.434   3.341
42379W        W 6323  34.084  18.730  11.456
42380W        W 6324   9.844  25.186   0.873
42381W        W 6325  20.658   7.846   0.897
42382W        W 6326  26.178  38.500   2.341
42383W        W 6327  23.218   2.805  10.450
42384W        W 6328  40.045  30.070  10.455
42385W        W 6329  44.932  43.941   0.949
42386W        W 6330  26.141  33.452   0.320
42387W        W 6331   9.185  24.495   4.152
42388W        W 6332  29.665  39.329  11.395
42389W        W 6333  42.419  14.192   3.736
42390W        W 6334  35.416  19.553  13.365
42391W        W 6335  26.143  16.116   2.366
42392W        W 6336  21.719  29.925   0.346
42393W        W 6337   4.319  21.714   3.661
42394W        W 6338  14.595  17.243  13.447
42395W        W 6339  11.207  28.020   5.123
42396W        W 6340  26.111  39.375   0.807
42397W        W 6341   7.393  16.672   0.886
42398W        W 6342  27.023  21.145  12.516
42399W        W 6343  43.804   0.406  11.450
42400W        W 6344  24.486  16.167  14.882
42401W        W 6345  36.927  36.561   3.165
42402W        W 6346  29.626  37.434   5.276
42403W        W 6347  43.774   0.988   2.860
42404W        W 6348  14.102  32.514  11.504
42405W        W 6349  31.978   2.816   2.264
42406W        W 6350  34.981  27.142   4.302
42407W        W 6351  27.951  20.760   4.280
42408W        W 6352  26.528  10.154  14.813
42409W        W 6353  35.871  17.704  10.932
42410W        W 6354   8.385  34.914  11.884
42411W        W 6355  23.206   0.872  13.850
42412W        W 6356  15.734   1.742  11.471
42413W        W 6357  42.459  35.527  14.833
42414W        W 6358  10.649  39.500   1.421
42415W        W 6359  31.523  32.049   4.280
42416W        W 6360  44.951  20.082   2.698
42417W        W 6361  43.369  44.762  14.967
42418W        W 6362  17.106   0.386   4.341
42419W        W 6363  38.832  36.472   1.326
42420W        W 6364   7.743  15.128   3.714
42421W        W 6365  13.838  39.945  14.486
42422W        W 6366  31.436  27.171   4.800
42423W        W 6367   4.837  11.223  13.889
42424W        W 6368  28.079  37.402  13.469
42425W        W 6369  28.112  26.958   4.181
42426W        W 6370  41.503  22.648  11.597
42427W        W 6371  41.406  37.850  13.874
42428W        W 6372  40.833   2.435  10.449
42429W        W 6373  36.438  39.487  12.483
42430W        W 6374  20.644  34.097   2.279
42431W        W 6375  44.367  32.464   4.309
42432W        W 6376  26.496  15.733  10.507
42433W        W 6377   4.890  33.570  11.445
42434W        W 6378   1.952  38.039   2.331
42435W        W 6379  18.715  31.979  10.632
42436W        W 6380  35.983  18.705   0.746
42437W        W 6381  30.469   4.380  11.506
42438W        W 6382  41.387  43.945   4.323
42439W        W 6383  17.200   7.266   2.862
42440W        W 6384  17.691  35.533  11.596
42441W        W 6385  28.591   3.871  12.980
42442W        W 6386  20.703  18.751  10.629
42443W        W 6387  25.993  31.642   3.301
42444W        W 6388   5.207  16.157   1.850
42445W        W 6389  33.602   8.288   2.403
42446W        W 6390  41.825  13.738  14.020
42447W        W 6391  31.966  35.359   0.894
42448W        W 6392  43.433  19.120  14.778
42449W        W 6393   2.836  42.806  10.417
42450W        W 6394  11.740   4.924   4.820
42451W        W 6395   8.351  12.772   2.248
42452W        W 6396  19.707   1.789  10.435
42453W        W 6397  10.717   8.342   1.802
42454W        W 6398  11.651   9.718  11.998
42455W        W 6399   8.658  23.997   3.636
42456W        W 6400  24.630  10.233  12.952
42457W        W 6401   7.769   7.326  11.575
42458W        W 6402  31.558  35.533  14.922
42459W        W 6403  22.152  31.090   3.339
42460W        W 6404   9.677  40.896   1.926
42461W        W 6405  35.920   8.725   0.765
42462W        W 6406  15.084  32.405  14.011
42463W        W 6407  41.787  34.972   3.687
42464W        W 6408  11.324  23.026   3.855
42465W        W 6409  41.342  16.753   0.756
42466W        W 6410  44.401  22.027  14.340
42467W        W 6411  27.563   6.725  14.478
42468W        W 6412  16.234  28.548  13.539
42469W        W 6413   1.885  28.010   3.237
42470W        W 6414  42.779  19.762   3.160
42471W        W 6415  43.774  42.786   4.346
42472W        W 6416   9.836  12.716   4.309
42473W        W 6417  13.194  30.490  10.599
42474W        W 6418  10.318  44.390  12.475
42475W        W 6419  31.513  26.998   0.282
42476W        W 6420  31.132   3.866  14.761
42477W        W 6421  35.860  43.456  14.291
42478W        W 6422  38.989  37.475   2.392
42479W        W 6423   2.468   5.285  10.415
42480W        W 6424  28.008  19.154   2.695
42481W        W 6425   5.740  44.500  12.097
42482W        W 6426   1.324   5.882   3.233
42483W        W 6427  17.197  39.824  13.396
42484W        W 6428  35.053  21.733   1.774
42485W        W 6429   9.856   1.910  14.398
42486W        W 6430  36.053  38.887   0.840
42487W        W 6431  29.615   7.209  11.444
42488W        W 6432  30.914  23.096  11.479
42489W        W 6433  36.912   9.283   2.686
42490W        W 6434  34.095   6.838   2.858
42491W        W 6435  12.359  27.032  13.893
42492W        W 6436  36.930   5.733   4.762
42493W        W 6437  20.166  35.569   2.195
42494W        W 6438   0.746  20.146   3.652
42495W        W 6439  32.546  41.484   0.340
42496W        W 6440  21.085  26.142   4.149
42497W        W 6441   9.360  34.468   5.265
42498W        W 6442  36.868  12.613  12.580
42499W        W 6443  42.316   2.377  14.375
42500W        W 6444  43.458  35.529   4.709
42501W        W 6445  28.467   9.248   0.923
42502W        W 6446   5.425   0.380   1.751
42503W        W 6447  35.589  30.526   3.666
42504W        W 6448   6.387  27.133  10.532
42505W        W 6449  30.110  32.040   3.676
42506W        W 6450   2.313  19.107   2.404
42507W        W 6451  14.307  36.592   3.322
42508W        W 6452   8.725  15.186   5.748
42509W        W 6453   5.774  14.795   4.743
42510W        W 6454  35.390  22.732  11.492
42511W        W 6455  14.284  24.537   3.666
42512W        W 6456   3.841  26.632  14.993
42513W        W 6457  15.779   7.173   4.281
42514W        W 6458   4.740  43.504  14.428
42515W        W 6459   7.822   5.384  14.407
42516W        W 6460   8.786  40.945   1.848
42517W        W 6461  27.021  18.180   2.276
42518W        W 6462  16.260  21.065  11.568
42519W        W 6463  11.671  21.587   4.611
42520W        W 6464   4.766   3.319  11.859
42521W        W 6465   9.739  11.743  11.977
42522W        W 6466  30.447  39.433  11.887
42523W        W 6467  14.685  27.630   1.855
42524W        W 6468  24.555  34.116   4.619
42525W        W 6469   1.736  40.972   1.884
42526W        W 6470  29.583  34.889  13.885
42527W        W 6471  36.842  32.912   0.407
42528W        W 6472  17.754  34.415   1.890
42529W        W 6473  15.252   3.786   2.314
42530W        W 6474  38.569  24.610   4.634
42531W        W 6475  10.728  12.360  11.554
42532W        W 6476  36.371  11.147  13.488
42533W        W 6477   0.778   7.185  11.608
42534W        W 6478  14.619  23.654  11.978
42535W        W 6479  27.066   1.365   4.262
42536W        W 6480  15.609  36.497   3.311
42537W        W 6481  27.580  30.978  12.043
42538W        W 6482  40.499  14.229  11.597
42539W        W 6483  18.257   7.776  14.506
42540W        W 6484  13.613  12.691  12.943
42541W        W 6485  19.737  12.156  12.934
42542W        W 6486   0.742   6.211  13.873
42543W        W 6487   9.792  31.123   3.202
42544W        W 6488   1.312   2.347   2.195
42545W        W 6489  44.785  26.069  12.094
42546W        W 6490  20.741   1.928  12.577
42547W        W 6491  38.566   5.907   0.351
42548W        W 6492  17.243  40.955  13.356
42549W        W 6493  22.503  10.715  14.941
42550W        W 6494   0.780   2.946   1.360
42551W        W 6495   0.930  43.299  11.033
42552W        W 6496  20.592  20.661  13.939
42553W        W 6497  16.166   2.247  14.489
42554W        W 6498  23.520  22.636  13.033
42555W        W 6499  39.036  14.147  12.346
42556W        W 6500  43.788  34.511   1.761
42557W        W 6501  40.908  39.363   2.738
42558W        W 6502  12.261   7.876  11.127
42559W        W 6503  43.015  15.733   3.834
42560W        W 6504  12.610  42.421  12.471
42561W        W 6505  35.960  35.961   3.786
42562W        W 6506   0.399   3.737   0.463
42563W        W 6507  35.011  33.467  10.097
42564W        W 6508   2.295  37.457  11.446
42565W        W 6509  35.386  16.720   1.763
42566W        W 6510  12.351  32.606   4.293
42567W        W 6511  18.554  13.601  10.567
42568W        W 6512  20.738  32.484  13.543
42569W        W 6513  25.124   2.734   3.320
42570W        W 6514   8.720   1.435   4.132
42571W        W 6515  14.713  25.515  14.313
42572W        W 6516  19.081  42.882  10.460
42573W        W 6517  38.356  23.062  12.887
42574W        W 6518  30.447  16.640   2.864
42575W        W 6519  25.676  20.694  11.878
42576W        W 6520  25.698  33.127  12.084
42577W        W 6521  11.323  17.742   1.239
42578W        W 6522   9.182  37.065  13.825
42579W        W 6523  42.299  31.577   3.819
42580W        W 6524  42.908  15.792  12.498
42581W        W 6525  10.335  40.914  13.996
42582W        W 6526  23.043   7.706   3.211
42583W        W 6527  38.942  44.398   3.668
42584W        W 6528  18.587  19.266   3.309
42585W        W 6529  24.000  17.778  11.394
42586W        W 6530  25.081  36.886   3.305
42587W        W 6531   8.193  36.925  12.929
42588W        W 6532  17.194  22.612  11.477
42589W        W 6533  40.009  25.635   3.792
42590W        W 6534  12.262  28.605   5.246
42591W        W 6535  38.851  41.914  12.351
42592W        W 6536   8.266  15.748   0.899
42593W        W 6537  17.753  37.917   1.709
42594W        W 6538  24.058  23.490   2.788
42595W        W 6539   1.260  25.526   2.277
42596W        W 6540  14.769  30.546   2.898
42597W        W 6541   3.399  28.465   3.310
42598W        W 6542  13.346  10.306   1.804
42599W        W 6543  34.520  32.117   3.175
42600W        W 6544   2.391  44.485  12.456
42601W        W 6545  39.455  43.007   0.866
42602W        W 6546  25.490  16.609   3.662
42603W        W 6547  11.701  39.544   0.876
42604W        W 6548   4.349   0.906  14.851
42605W        W 6549  39.962   5.828   0.864
42606W        W 6550   4.763  18.216   0.326
42607W        W 6551   4.805  26.101   1.394
42608W        W 6552  27.073  37.930   3.718
42609W        W 6553  31.959  17.273  11.592
42610W        W 6554  22.104   1.248   4.668
42611W        W 6555  15.315  34.462   4.263
42612W        W 6556  43.829   0.430  14.903
42613W        W 6557  13.788  36.048  13.998
42614W        W 6558  35.589  39.368  12.896
42615W        W 6559   9.732  29.958   3.198
42616W        W 6560  29.603   9.241  14.973
42617W        W 6561  27.583  29.128  12.399
42618W        W 6562  33.435  42.340  14.029
42619W        W 6563  12.708  38.519   2.339
42620W        W 6564  12.828  38.345   1.750
42621W        W 6565  14.766  13.731   2.240
42622W        W 6566  36.426   7.786  13.960
42623W        W 6567  12.818   9.689  14.018
42624W        W 6568  20.722  10.666  14.027
42625W        W 6569  34.479  24.605   3.282
42626W        W 6570  29.523  12.327  13.895
42627W        W 6571  19.158   3.271   2.857
42628W        W 6572  21.171  14.201   1.396
42629W        W 6573  12.146  33.035   4.667
42630W        W 6574  23.009  34.534   1.401
42631W        W 6575   4.213  43.439  12.348
42632W        W 6576   9.739  31.517  12.476
42633W        W 6577  40.480   1.239   4.334
42634W        W 6578  31.607   9.743  11.006
42635W        W 6579  21.079  21.659  10.630
42636W        W 6580  30.419  33.404  12.831
42637W        W 6581   2.963   9.200  11.580
42638W        W 6582  28.183   9.184  10.638
42639W        W 6583   4.300  11.741   4.194
42640W        W 6584  36.446   1.316   4.744
42641W        W 6585   9.719  27.620   5.294
42642W        W 6586  38.334  11.851  14.963
42643W        W 6587  44.315  10.339   4.266
42644W        W 6588   3.313   3.843   3.220
42645W        W 6589  26.568  20.212  10.982
42646W        W 6590  36.554  14.308  13.848
42647W        W 6591  25.129  26.011  14.822
42648W        W 6592  27.984   1.397   0.740
42649W        W 6593   6.285  20.717  14.801
42650W        W 6594   6.400  22.147  13.979
42651W        W 6595   3.270  32.921   4.254
42652W        W 6596  22.157  40.427   0.845
42653W        W 6597  16.253   2.818  10.529
42654W        W 6598  18.246  29.574   1.250
42655W        W 6599  18.631   1.767   1.888
42656W        W 6600  40.823  25.662   2.264
42657W        W 6601  33.095   9.373   1.393
42658W        W 6602  42.792  33.066  10.497
42659W        W 6603  23.130  17.074   1.410
42660W        W 6604  44.394  20.075   2.335
42661W        W 6605  19.599  22.165  11.018
42662W        W 6606  16.286  40.332  11.429
42663W        W 6607  15.167  14.143   2.693
42664W        W 6608  26.069  15.189   0.349
42665W        W 6609  12.760   8.277   2.416
42666W        W 6610  38.885  25.645   1.423
42667W        W 6611   4.335   5.196  11.376
42668W        W 6612  30.550   2.424  13.017
42669W        W 6613  15.319   3.410   3.814
42670W        W 6614  25.554  17.164   0.324
42671W        W 6615  30.442  41.504  13.426
42672W        W 6616   6.774  41.379  13.043
42673W        W 6617  10.849  23.704  13.948
42674W        W 6618   0.942  25.703   4.774
42675W        W 6619  24.020  13.720  13.537
42676W        W 6620  30.433  37.394  10.564
42677W        W 6621  28.649  41.528   5.169
42678W        W 6622  17.656  13.317  13.945
42679W        W 6623  39.366   7.886  14.774
42680W        W 6624  31.521  44.484  10.936
42681W        W 6625  28.597  37.983  10.961
42682W        W 6626  22.158  29.928   0.753
42683W        W 6627  27.175  33.540  13.459
42684W        W 6628  37.041   7.383   0.273
42685W        W 6629  20.593   5.776   3.365
42686W        W 6630  19.588  31.108   2.246
42687W        W 6631  41.422  34.007  14.827
42688W        W 6632  21.176  23.514   9.546
42689W        W 6633  20.674   6.684  10.518
42690W        W 6634  17.166   1.431  12.930
42691W        W 6635   2.794   6.392  12.899
42692W        W 6636   9.840  35.460  12.431
42693W        W 6637  31.452  29.040   2.695
42694W        W 6638  44.972   5.285   2.893
42695W        W 6639  10.714  26.681   2.263
42696W        W 6640  21.615   8.792   1.843
42697W        W 6641  32.497  37.988  11.472
42698W        W 6642  30.991  41.032  14.966
42699W        W 6643  30.567  17.736   3.356
42700W        W 6644  11.202  31.579   1.859
42701W        W 6645  22.077   5.358   0.747
42702W        W 6646  32.540  10.273  10.935
42703W        W 6647  16.593  39.517  10.512
42704W        W 6648  35.408  32.885   3.849
42705W        W 6649  19.141  12.826   0.796
42706W        W 6650  28.670   3.334  12.832
42707W        W 6651   3.737  36.981  13.916
42708W        W 6652  38.923  44.868   3.649
42709W        W 6653   5.915  18.231  11.387
42710W        W 6654  23.190  29.980  14.379
42711W        W 6655  37.439  35.098  11.531
42712W        W 6656  35.937  23.985  11.094
42713W        W 6657   2.780  41.890  10.603
42714W        W 6658  13.681  39.922  11.915
42715W        W 6659   7.732   6.779   1.368
42716W        W 6660  40.963  35.051  11.041
42717W        W 6661   6.264  16.251  14.984
42718W        W 6662  35.931  29.016  12.907
42719W        W 6663   7.699  37.055  13.804
42720W        W 6664  36.857  37.463  14.893
42721W        W 6665   9.735  14.652   4.323
42722W        W 6666  21.083  38.420   4.751
42723W        W 6667   3.216  35.012   4.182
42724W        W 6668  35.051  33.097   0.821
42725W        W 6669  13.734  16.261  12.510
42726W        W 6670  23.016  28.672  10.489
42727W        W 6671  15.111  38.858  11.519
42728W        W 6672  24.615  42.820   4.335
42729W        W 6673  27.969   0.290   0.789
42730W        W 6674  44.763  13.145   2.734
42731W        W 6675  26.651  44.447  13.431
42732W        W 6676  44.312  16.704   0.847
42733W        W 6677  44.475  33.086   0.746
42734W        W 6678  20.553  12.736   0.733
42735W        W 6679  23.114  39.479  14.933
42736W        W 6680  35.925  26.630   2.751
42737W        W 6681   1.339  19.758  10.486
42738W        W 6682  31.445   9.723  10.606
42739W        W 6683  27.565   9.658   4.632
42740W        W 6684   5.205  38.905   1.329
42741W        W 6685  13.172  27.581   2.727
42742W        W 6686  39.021  23.685   2.294
42743W        W 6687   3.873  36.520  11.890
42744W        W 6688  38.418  16.128  13.996
42745W        W 6689  18.201  41.809   2.230
42746W        W 6690  22.622   5.864  13.036
42747W        W 6691  27.484   0.415  14.325
42748W        W 6692  12.836  29.935   3.301
42749W        W 6693  41.477  21.044   3.726
42750W        W 6694   2.836  14.116   3.154
42751W        W 6695  15.210  29.155  14.294
42752W        W 6696  13.245   9.370   1.364
42753W        W 6697  12.196   7.710  12.548
42754W        W 6698  37.087  34.533   2.263
42755W        W 6699  36.496  15.154   0.956
42756W        W 6700  39.883  32.928   3.290
42757W        W 6701  44.806  32.981   1.222
42758W        W 6702  40.926  38.417  11.014
42759W        W 6703  12.617  31.511  12.557
42760W        W 6704  12.735  33.516  13.366
42761W        W 6705  22.611   9.870  14.515
42762W        W 6706  25.583  31.510  12.970
42763W        W 6707  23.693  35.997   1.219
42764W        W 6708  15.196  41.865  10.580
42765W        W 6709  10.710  33.105   0.808
42766W        W 6710  22.999  26.562   3.172
42767W        W 6711   0.490  43.444  13.062
42768W        W 6712  12.739  22.513  10.542
42769W        W 6713   3.929  21.067   0.762
42770W        W 6714  26.651  19.129   0.846
42771W        W 6715  44.378  21.555  13.031
42772W        W 6716  19.083  37.050  14.915
42773W        W 6717  37.348  41.441  14.865
42774W        W 6718  38.008   7.329   5.187
42775W        W 6719  22.188   8.701   4.333
42776W        W 6720  19.713  33.478  14.987
42777W        W 6721  24.010  33.547   2.836
42778W        W 6722   5.273  30.921  12.970
42779W        W 6723  12.236  16.692  13.320
42780W        W 6724  28.573  42.496   3.794
42781W        W 6725  20.130  27.180  10.892
42782W        W 6726  35.949  12.211  11.043
42783W        W 6727  14.281  10.293  14.446
42784W        W 6728  35.872  17.217   1.826
42785W        W 6729  42.014  28.610   1.431
42786W        W 6730   7.699   1.312   1.307
42787W        W 6731  13.211  11.844  13.370
42788W        W 6732   4.776  43.816  13.535
42789W        W 6733  12.357  34.425   1.293
42790W        W 6734  42.475  21.081   0.306
42791W        W 6735  38.489  32.601  13.049
42792W        W 6736  31.536  29.550  13.963
42793W        W 6737  24.543  41.816   0.410
42794W        W 6738  22.117  19.736   3.682
42795W        W 6739  18.239  34.987   0.832
42796W        W 6740  42.286   6.246  14.804
42797W        W 6741   5.722  20.084   2.703
42798W        W 6742  34.529  21.090   3.314
42799W        W 6743  12.726   4.775   3.718
42800W        W 6744  15.086  13.722  14.363
42801W        W 6745  30.964  19.680   1.247
42802W        W 6746  38.476   3.799  14.395
42803W        W 6747  24.619  17.150  10.573
42804W        W 6748  27.957  16.713   0.397
42805W        W 6749   0.771  25.633  11.965
42806W        W 6750  35.062  35.876   3.708
42807W        W 6751   6.235  13.286   3.178
42808W        W 6752  28.940  29.045   2.227
42809W        W 6753  44.313  33.095   0.408
42810W        W 6754  25.646  32.073  10.630
42811W        W 6755  35.949  17.086  14.500
42812W        W 6756  44.761  27.656  12.960
42813W        W 6757  39.846   5.898  12.960
42814W        W 6758  38.877   5.791   3.680
42815W        W 6759  37.415  31.589   4.245
42816W        W 6760  34.104  41.870   0.879
42817W        W 6761   6.219   0.444   4.216
42818W        W 6762  26.470  13.268  11.595
42819W        W 6763   5.811   5.749  13.909
42820W        W 6764   2.835   9.364  14.276
42821W        W 6765  31.069   2.933  11.070
42822W        W 6766  38.565  27.154   0.383
42823W        W 6767  35.056  16.585  13.021
42824W        W 6768   3.787  27.104  14.914
42825W        W 6769  27.085  26.579   0.749
42826W        W 6770  21.059  33.578   0.354
42827W        W 6771  29.511  28.181  10.445
42828W        W 6772  18.672  29.057  11.859
42829W        W 6773  14.770  25.140   4.762
42830W        W 6774  22.642   9.249   4.302
42831W        W 6775  25.581  14.269  10.433
42832W        W 6776   0.898  10.693   3.797
42833W        W 6777  39.333  25.136   5.214
42834W        W 6778  41.848   1.351   4.324
42835W        W 6779   8.198  20.548   1.377
42836W        W 6780   2.280   3.868   2.738
42837W        W 6781  13.119   0.910  13.831
42838W        W 6782   9.168   5.320   0.861
42839W        W 6783  21.150  21.256  12.370
42840W        W 6784  43.314  36.464  12.878
42841W        W 6785   4.902  31.005   2.308
42842W        W 6786   4.345  39.520  12.493
42843W        W 6787  16.236  40.829   1.757
42844W        W 6788   6.199  14.226   4.297
42845W        W 6789  39.553  34.997   0.269
42846W        W 6790  24.978  35.571  11.599
42847W        W 6791  11.249  41.413  14.008
42848W        W 6792  24.530   5.715   0.752
42849W        W 6793  21.091  32.017   0.870
42850W        W 6794  43.850  36.475  11.478
42851W        W 6795  26.971  32.539   3.195
42852W        W 6796  34.533   0.370   3.297
42853W        W 6797  11.333  25.580  11.477
42854W        W 6798   1.462   6.822   3.867
42855W        W 6799   3.912  17.603   3.158
42856W        W 6800  31.086  17.769   3.171
42857W        W 6801  27.110   2.732   0.737
42858W        W 6802   2.339   6.882   3.650
42859W        W 6803   0.257  23.995   0.375
42860W        W 6804   9.677  23.583   1.247
42861W        W 6805  10.358  23.614  12.906
42862W        W 6806  25.615  27.650   4.229
42863W        W 6807  43.990   7.825  13.308
42864W        W 6808  32.436  37.056   2.278
42865W        W 6809  34.560  10.754  13.989
42866W        W 6810  39.500  12.320   0.356
42867W        W 6811  13.621   4.315   3.858
42868W        W 6812  28.441   8.780  14.806
42869W        W 6813  20.198  34.921   1.360
42870W        W 6814   7.836  16.663  13.860
42871W        W 6815   9.238   3.422  11.996
42872W        W 6816  44.810   5.334  12.544
42873W        W 6817   1.352  30.569   0.814
42874W        W 6818  44.311  33.967   3.796
42875W        W 6819  21.562  24.715   1.910
42876W        W 6820  25.579  37.549   4.612
42877W        W 6821  35.427  18.201   4.288
42878W        W 6822  32.608  32.399   4.650
42879W        W 6823   6.831  18.647   0.822
42880W        W 6824  19.751   4.842   9.937
42881W        W 6825  25.688  18.653  13.525
42882W        W 6826   6.846  20.247  13.848
42883W        W 6827  37.389  35.969  13.424
42884W        W 6828  11.314   9.321  14.914
42885W        W 6829  32.595  38.547  14.340
42886W        W 6830  32.514   8.271   0.465
42887W        W 6831   3.806   2.346   4.765
42888W        W 6832  39.826  11.710   3.840
42889W        W 6833   7.357  34.580   1.858
42890W        W 6834  41.484  26.651   4.707
42891W        W 6835  12.150  36.879  13.507
42892W        W 6836  36.386  41.431   2.685
42893W        W 6837   6.879  15.272   1.413
42894W        W 6838  28.153  29.959  13.381
42895W        W 6839  38.361  24.625   2.289
42896W        W 6840  41.399   6.810   4.753
42897W        W 6841   6.206  39.360   0.908
42898W        W 6842  24.116   1.462   3.247
42899W        W 6843  18.204  29.557  13.427
42900W        W 6844   0.443  23.497  14.957
42901W        W 6845  37.467  12.227  10.971
42902W        W 6846  41.506  37.458  12.370
42903W        W 6847   4.425  21.134  13.375
42904W        W 6848  24.693  27.521  13.823
42905W        W 6849  15.296  11.688   2.703
42906W        W 6850  24.558   4.940   4.133
42907W        W 6851  18.790   4.308   1.389
42908W        W 6852  27.684  36.846   1.718
42909W        W 6853  13.835  26.071  10.483
42910W        W 6854  28.943  44.772  10.921
42911W        W 6855  16.602  19.735  13.885
42912W        W 6856  20.032   0.827  11.508
42913W        W 6857   7.904   9.812  11.522
42914W        W 6858   6.864   8.191  14.316
42915W        W 6859   6.820  17.722  12.956
42916W        W 6860  10.865  31.614   3.254
42917W        W 6861  10.228   7.682   2.708
42918W        W 6862  26.562   3.790   1.761
42919W        W 6863  22.649  11.759  11.513
42920W        W 6864  17.562  11.180  14.500
42921W        W 6865  17.641  31.575   3.173
42922W        W 6866   2.399  20.648   0.905
42923W        W 6867  13.790  34.017  12.505
42924W        W 6868  20.532  22.733  11.977
42925W        W 6869  35.426  28.491   3.342
42926W        W 6870  16.677   3.822   2.412
42927W        W 6871  12.321  14.823   1.280
42928W        W 6872   4.308  11.756  14.913
42929W        W 6873  35.092  41.332   3.195
42930W        W 6874  24.015   0.915  10.050
42931W        W 6875  44.764  32.626  11.554
42932W        W 6876  33.095  12.281   0.874
42933W        W 6877  38.409  38.446  13.443
42934W        W 6878  37.342  26.614  13.791
42935W        W 6879  23.686  32.066  10.990
42936W        W 6880   4.240  21.172   2.303
42937W        W 6881   8.246  32.494  14.465
42938W        W 6882  43.924  19.667   2.774
42939W        W 6883  23.510  19.132   3.224
42940W        W 6884   4.360  14.782   4.126
42941W        W 6885  40.894  14.294  14.490
42942W        W 6886  37.365  16.717   3.151
42943W        W 6887  19.089  27.574  11.584
42944W        W 6888   7.378  29.984   1.920
42945W        W 6889   5.199  16.722  11.027
42946W        W 6890  42.999  32.982   2.767
42947W        W 6891  43.779  35.973   1.727
42948W        W 6892   6.384  34.457   1.926
42949W        W 6893  25.520   9.840  11.982
42950W        W 6894  43.371  17.096  13.006
42951W        W 6895  40.472  10.364  11.925
42952W        W 6896  33.915  13.234  13.850
42953W        W 6897  17.129  15.611   1.716
42954W        W 6898  16.154  42.964   9.985
42955W        W 6899   6.357  32.434  14.967
42956W        W 6900  14.710  25.075   1.720
42957W        W 6901  39.511  20.084   2.270
42958W        W 6902  24.585   1.778  13.974
42959W        W 6903  40.869  35.961   0.421
42960W        W 6904  12.177  28.567  12.071
42961W        W 6905  37.467  39.017   4.649
42962W        W 6906  14.623  37.559   0.479
42963W        W 6907  37.403  17.207   1.383
42964W        W 6908   2.945  30.508   1.715
42965W        W 6909  32.012  21.576   3.187
42966W        W 6910  16.610  33.380  14.971
42967W        W 6911  21.688  16.644  14.334
42968W        W 6912  43.989  29.954   1.289
42969W        W 6913  10.318   4.218   1.247
42970W        W 6914  39.422   1.325  12.403
42971W        W 6915  18.182  18.161  12.899
42972W        W 6916  32.550  35.959   3.357
42973W        W 6917   8.814  27.030   4.836
42974W        W 6918  42.860  11.714   4.717
42975W        W 6919   1.843   4.723  14.788
42976W        W 6920  31.132  22.083   0.815
42977W        W 6921  29.175  41.814  13.394
42978W        W 6922  44.884  40.859  14.493
42979W        W 6923  28.495   5.850   4.624
42980W        W 6924   1.262  24.053  12.021
42981W        W 6925  21.185  10.823  14.819
42982W        W 6926  44.341  13.171  11.883
42983W        W 6927  40.887  10.383  13.405
42984W        W 6928  16.218  36.093   1.314
42985W        W 6929  24.014  10.292  14.369
42986W        W 6930  26.554  20.757  13.991
42987W        W 6931  39.960  38.338   2.239
42988W        W 6932  28.537  19.701  12.039
42989W        W 6933  18.186  38.342   4.228
42990W        W 6934  31.008  16.295  11.985
42991W        W 6935  35.095  35.027  14.892
42992W        W 6936  39.986   1.250  14.429
42993W        W 6937  12.829  42.974   2.279
42994W        W 6938   7.670  13.200  10.950
42995W        W 6939  30.992  36.440  13.428
42996W        W 6940   5.270   6.679   1.847
42997W        W 6941  22.675  10.634  11.002
42998W        W 6942  38.462  33.037  10.946
42999W        W 6943  21.600  19.569  11.913
43000W        W 6944   3.215  39.535  11.898
43001W        W 6945  10.289  20.714  12.851
43002W        W 6946  42.840  21.033   5.259
43003W        W 6947  16.706  27.175  13.361
43004W        W 6948  40.344  24.480   4.231
43005W        W 6949  18.071   2.961   3.867
43006W        W 6950  36.405  26.476   9.949
43007W        W 6951  25.538  33.037  12.380
43008W        W 6952  24.481  32.924   4.272
43009W        W 6953  43.319   2.780  14.779
43010W        W 6954   6.770   0.887  11.448
43011W        W 6955  20.092  33.539  10.590
43012W        W 6956   4.363  10.218   1.914
43013W        W 6957  32.887  27.081  10.406
43014W        W 6958   0.979   9.838   1.230
43015W        W 6959  35.085   8.163   2.257
43016W        W 6960  22.100  37.070   2.212
43017W        W 6961  28.548  20.145  11.613
43018W        W 6962  33.067   5.278   0.940
43019W        W 6963   2.468  33.473   1.821
43020W        W 6964  41.012  18.238  14.492
43021W        W 6965  19.588  41.882   1.899
43022W        W 6966  34.921  44.435   0.826
43023W        W 6967  30.631  13.321  13.906
43024W        W 6968   9.191  33.383   3.656
43025W        W 6969   6.797  33.058   4.829
43026W        W 6970  26.010  11.648  13.042
43027W        W 6971  43.300   2.931   1.415
43028W        W 6972  30.040   0.957  12.936
43029W        W 6973  13.171   0.409  12.898
43030W        W 6974  36.477  12.715   2.231
43031W        W 6975   8.354  27.177   2.771
43032W        W 6976  22.133  17.148   3.660
43033W        W 6977   0.359   3.273  13.850
43034W        W 6978   1.769   2.310  14.304
43035W        W 6979  13.186  43.780   4.667
43036W        W 6980  18.706  12.335  14.405
43037W        W 6981  44.482  36.860  10.987
43038W        W 6982  18.682  21.231  10.592
43039W        W 6983  43.018   3.928   3.817
43040W        W 6984  39.881  38.500  14.808
43041W        W 6985  23.199  18.685   0.465
43042W        W 6986  29.168  28.152   0.244
43043W        W 6987  39.328  24.188  13.966
43044W        W 6988   6.305  16.607  14.918
43045W        W 6989  22.577  33.067  10.914
43046W        W 6990  32.609   6.915   4.178
43047W        W 6991  14.749  11.311   3.643
43048W        W 6992  22.086  33.987   4.262
43049W        W 6993  32.908  26.682   3.180
43050W        W 6994  44.886   8.671   4.348
43051W        W 6995  13.221  40.510  10.151
43052W        W 6996  19.167  10.875   5.130
43053W        W 6997  18.608  24.120   3.298
43054W        W 6998  28.593  31.946   3.150
43055W        W 6999  20.583  27.109  13.029
43056W        W 7000   7.882  38.486   3.317
43057W        W 7001  37.356  32.073  14.494
43058W        W 7002   7.889  43.922  13.523
43059W        W 7003  31.437   7.849   4.310
43060W        W 7004  28.987  28.556  11.117
43061W        W 7005  21.579  21.552   0.929
43062W        W 7006  16.232   3.747  12.563
43063W        W 7007  43.470  13.142  12.909
43064W        W 7008  12.293  39.512  10.417
43065W        W 7009  35.404  14.337  12.002
43066W        W 7010  29.934   0.319   1.219
43067W        W 7011  11.795   9.866   1.373
43068W        W 7012  18.705  14.119  10.141
43069W        W 7013  35.887  19.599   2.267
43070W        W 7014  28.483  20.149  12.002
43071W        W 7015  44.912  32.574  11.099
43072W        W 7016  25.028   5.768   0.455
43073W        W 7017   7.714  19.652   9.995
43074W        W 7018  34.394  42.841   4.768
43075W        W 7019  32.538  22.144   3.213
43076W        W 7020  10.824  19.729  10.535
43077W        W 7021  18.756  43.295  12.935
43078W        W 7022  28.496  38.554   4.120
43079W        W 7023  21.175  16.741  11.114
43080W        W 7024  12.323  42.888  11.992
43081W        W 7025   6.376   9.249   0.813
43082W        W 7026  16.124   7.363   5.583
43083W        W 7027  26.532   9.157   2.836
43084W        W 7028  40.389  14.624  10.614
43085W        W 7029  14.208  44.994   2.671
43086W        W 7030   9.657   1.241   1.815
43087W        W 7031  44.864   8.826   1.864
43088W        W 7032  35.396  17.720   0.948
43089W        W 7033  10.867   3.925  11.937
43090W        W 7034  16.280   5.430  10.625
43091W        W 7035  34.099  15.275   2.408
43092W        W 7036  33.486  41.502   0.791
43093W        W 7037  25.136  10.852   4.160
43094W        W 7038   8.855  27.043  12.833
43095W        W 7039  41.849  15.675  11.496
43096W        W 7040   1.421  37.977   1.310
43097W        W 7041  14.608  22.524   0.479
43098W        W 7042  15.203  18.599  14.285
43099W        W 7043  31.626  42.033   3.864
43100W        W 7044  13.647  44.931   4.721
43101W        W 7045  27.677   1.447   3.647
43102W        W 7046   9.748  23.134  13.938
43103W        W 7047  11.191  30.953  12.444
43104W        W 7048   6.336   3.847   4.167
43105W        W 7049  10.803  10.190   4.701
43106W        W 7050  26.160   3.248   3.794
43107W        W 7051  27.971   7.764   2.191
43108W        W 7052  21.225   8.212  10.447
43109W        W 7053  30.068  39.552   0.791
43110W        W 7054  40.867   6.713   1.840
43111W        W 7055  37.065  10.335  11.428
43112W        W 7056   5.353  24.109  11.452
43113W        W 7057   4.362  37.344  10.602
43114W        W 7058  18.161  25.641   4.145
43115W        W 7059  21.532  11.146  12.487
43116W        W 7060  27.633  25.970   0.326
43117W        W 7061  14.611  44.486   3.346
43118W        W 7062   4.406  12.640   0.400
43119W        W 7063   1.404  16.253  13.407
43120W        W 7064   4.844  25.021  10.917
43121W        W 7065  37.882  39.865   0.429
43122W        W 7066  25.519  31.072  11.382
43123W        W 7067  32.417  37.011   0.270
43124W        W 7068  19.109  37.514  14.392
43125W        W 7069  27.550  31.437  10.501
43126W        W 7070   1.832  18.211   0.249
43127W        W 7071  13.250  12.120  10.455
43128W        W 7072  40.818   3.424  11.904
43129W        W 7073  15.807  37.944   4.724
43130W        W 7074  11.822  34.104  11.532
43131W        W 7075  41.498  22.605  13.402
43132W        W 7076  40.450   0.490  11.503
43133W        W 7077   6.765  27.088   4.786
43134W        W 7078  33.603   1.931   2.210
43135W        W 7079   0.911  24.640   3.668
43136W        W 7080  16.251  36.505   3.348
43137W        W 7081  11.643   1.956   1.752
43138W        W 7082  38.335  15.315   1.897
43139W        W 7083  39.867  31.016  11.376
43140W        W 7084  22.119  15.211  12.073
43141W        W 7085  18.728  19.552   2.737
43142W        W 7086  43.022   7.300   3.240
43143W        W 7087  26.167  38.068   3.746
43144W        W 7088  34.429  14.713   3.369
43145W        W 7089  44.896  29.596   4.345
43146W        W 7090  25.498  21.121  14.277
43147W        W 7091  11.273  27.535   0.394
43148W        W 7092  16.699  10.694   0.743
43149W        W 7093  32.978   6.343  12.481
43150W        W 7094   5.928  10.676  11.088
43151W        W 7095  34.525   2.389   2.291
43152W        W 7096  29.648   8.895  10.576
43153W        W 7097  20.544  39.961  11.895
43154W        W 7098  25.514  36.484  12.975
43155W        W 7099  12.791  20.591  12.399
43156W        W 7100  11.135  11.361   3.173
43157W        W 7101  26.570  22.132   3.829
43158W        W 7102  38.969  42.309  14.871
43159W        W 7103  33.583  26.078  14.933
43160W        W 7104  20.254  43.989   3.338
43161W        W 7105  20.234   5.827  12.550
43162W        W 7106  34.049  36.026   0.423
43163W        W 7107  31.467  42.776   0.364
43164W        W 7108   8.654  14.719   4.126
43165W        W 7109  27.527   3.837  11.991
43166W        W 7110  33.515  44.286   9.942
43167W        W 7111   8.668  39.327  10.412
43168W        W 7112  32.561  27.589   1.397
43169W        W 7113  17.210  31.612  11.108
43170W        W 7114  39.359   4.811   1.930
43171W        W 7115   2.435  13.279  10.941
43172W        W 7116  19.563  21.717  14.390
43173W        W 7117  11.286   3.326   1.327
43174W        W 7118  38.895  43.296  12.908
43175W        W 7119  26.159  10.175  10.149
43176W        W 7120  26.700  16.674   5.228
43177W        W 7121  21.133  11.777  10.991
43178W        W 7122  16.714  25.176   4.632
43179W        W 7123  11.674   1.858  12.889
43180W        W 7124  19.081  40.418  11.453
43181W        W 7125  40.473   7.227  10.994
43182W        W 7126  36.500  39.317  14.992
43183W        W 7127  42.904  38.873  12.918
43184W        W 7128  26.186  33.623  10.949
43185W        W 7129  15.143  23.143   5.311
43186W        W 7130  33.070  14.719   1.274
43187W        W 7131  20.644  23.649  14.407
43188W        W 7132  43.514   9.721   0.850
43189W        W 7133  12.226  44.957  13.901
43190W        W 7134   3.357   7.846   3.164
43191W        W 7135  26.033  28.597   3.256
43192W        W 7136  16.798  30.130  10.617
43193W        W 7137  34.464   6.416  12.932
43194W        W 7138  44.835   3.454   1.806
43195W        W 7139  31.919   4.880   0.845
43196W        W 7140  26.650   9.160  13.907
43197W        W 7141  39.433  24.195  11.065
43198W        W 7142  17.074  29.563   2.190
43199W        W 7143  38.357  34.553  12.370
43200W        W 7144   3.843  14.706  11.416
43201W        W 7145  14.156  20.736  11.024
43202W        W 7146   5.739  32.520   1.871
43203W        W 7147   1.300  17.301  10.494
43204W        W 7148  36.917  40.418  14.513
43205W        W 7149  20.731  36.591   4.251
43206W        W 7150  16.726  18.703   0.852
43207W        W 7151  13.677  41.793  12.963
43208W        W 7152  24.486  38.041   1.779
43209W        W 7153  17.127   2.443  13.034
43210W        W 7154  40.466  38.027   3.814
43211W        W 7155  10.637  42.452  10.596
43212W        W 7156   0.449   9.652   2.845
43213W        W 7157  27.101   3.836   0.753
43214W        W 7158  10.163  25.468   0.871
43215W        W 7159   2.267   2.465  11.059
43216W        W 7160  15.646  14.327   0.966
43217W        W 7161  35.986  26.493   5.155
43218W        W 7162  28.939  25.501   4.350
43219W        W 7163  29.025   3.801   4.701
43220W        W 7164  32.913  16.272   0.897
43221W        W 7165  34.395  22.590  13.899
43222W        W 7166  16.275  18.584  14.813
43223W        W 7167   1.901  38.924   4.308
43224W        W 7168  42.033  28.005  13.891
43225W        W 7169  41.318   8.262   0.758
43226W        W 7170   2.333  18.177  12.443
43227W        W 7171  32.555  32.929   4.799
43228W        W 7172  27.141  32.442   1.270
43229W        W 7173  35.477   3.910   2.886
43230W        W 7174  14.245  35.102   3.356
43231W        W 7175  42.864   7.339  14.922
43232W        W 7176  25.626   7.738   2.366
43233W        W 7177  36.057  13.189   1.335
43234W        W 7178  19.761   3.262  10.466
43235W        W 7179  11.700  26.467  11.997
43236W        W 7180  22.115  42.349   2.888
43237W        W 7181  23.056  43.851  12.903
43238W        W 7182   0.895  13.774  14.468
43239W        W 7183  39.824  21.660   3.260
43240W        W 7184  28.033  28.538  12.347
43241W        W 7185   9.832  31.122   0.816
43242W        W 7186  17.099  37.546   4.116
43243W        W 7187  25.166  41.439   1.881
43244W        W 7188  14.814   0.443  13.545
43245W        W 7189  22.578  31.089  10.544
43246W        W 7190  37.566   0.485  10.570
43247W        W 7191  25.008  11.640   4.790
43248W        W 7192  19.143   1.762   3.217
43249W        W 7193  25.697  37.531  14.859
43250W        W 7194  25.489  14.609   1.276
43251W        W 7195  22.555  34.099   3.360
43252W        W 7196  11.655  22.513  11.408
43253W        W 7197  24.179  29.052   4.814
43254W        W 7198  32.467  43.490   2.273
43255W        W 7199   9.812  22.116   1.241
43256W        W 7200  19.141  24.080   2.359
43257W        W 7201  24.203  38.969   3.289
43258W        W 7202   1.827  13.674   1.749
43259W        W 7203  42.849  39.862   3.221
43260W        W 7204  13.118   7.203   3.748
43261W        W 7205  20.036  19.641   3.248
43262W        W 7206  32.891   3.848   1.425
43263W        W 7207  38.537  23.700  14.917
43264W        W 7208  33.532  42.818   4.697
43265W        W 7209  19.062  17.638  11.071
43266W        W 7210   0.904  30.010   0.823
43267W        W 7211   2.264  37.958  12.421
43268W        W 7212  34.009  14.131   2.706
43269W        W 7213   7.790  16.780   2.190
43270W        W 7214  43.333  19.743  12.839
43271W        W 7215  41.961  43.278  13.965
43272W        W 7216  19.152  37.468  14.800
43273W        W 7217  31.488  16.278   0.795
43274W        W 7218  41.865  34.029  11.891
43275W        W 7219   4.908  30.524  13.941
43276W        W 7220  39.490  35.083  13.958
43277W        W 7221  30.043   9.364  14.860
43278W        W 7222  28.155  39.451  10.464
43279W        W 7223  44.873  34.377  10.520
43280W        W 7224  13.156   8.253  11.378
43281W        W 7225   5.822  20.140  11.589
43282W        W 7226  38.007  10.161  14.389
43283W        W 7227  43.879  43.887   3.772
43284W        W 7228  14.178  25.042  13.423
43285W        W 7229  32.610  13.635   3.724
43286W        W 7230  29.497  42.852  13.863
43287W        W 7231  25.499  14.285   3.632
43288W        W 7232  27.463  36.445  14.769
43289W        W 7233  15.822   1.881   1.335
43290W        W 7234  26.510  25.483  11.520
43291W        W 7235   6.817   1.281  11.411
43292W        W 7236   6.344   9.834  14.333
43293W        W 7237   4.450  27.572   0.879
43294W        W 7238  30.930  38.488  12.540
43295W        W 7239  30.056  30.529  10.981
43296W        W 7240  43.400  32.586  10.477
43297W        W 7241  26.113  24.199   1.883
43298W        W 7242  12.722  12.308  10.408
43299W        W 7243  20.765   2.841   3.816
43300W        W 7244  31.498  30.094  11.874
43301W        W 7245   4.731  18.666   0.746
43302W        W 7246   4.928   5.729  11.001
43303W        W 7247  19.186  14.325   4.243
43304W        W 7248   1.974  15.150   4.644
43305W        W 7249  23.647  20.098   0.247
43306W        W 7250   9.303  23.156  14.443
43307W        W 7251  14.152   3.817   1.419
43308W        W 7252  14.671  31.993  14.467
43309W        W 7253  42.787  44.427  13.915
43310W        W 7254  12.724   9.685  11.554
43311W        W 7255  17.073  28.155   9.937
43312W        W 7256   9.159  27.135   4.312
43313W        W 7257   3.798  29.551  10.569
43314W        W 7258  34.967  36.570   1.716
43315W        W 7259  10.254  44.450   4.286
43316W        W 7260  32.054  27.524  12.972
43317W        W 7261   5.309  21.259   4.774
43318W        W 7262  15.151  44.988  14.018
43319W        W 7263  41.879  20.628  11.080
43320W        W 7264  10.172  24.608  12.432
43321W        W 7265  12.257  44.761   9.647
43322W        W 7266  44.277  19.616  14.766
43323W        W 7267   1.847   7.744   5.243
43324W        W 7268   7.296  20.248  13.999
43325W        W 7269  24.532  33.522  12.962
43326W        W 7270  23.080  15.269   4.179
43327W        W 7271   3.883  18.548  14.015
43328W        W 7272  21.546  19.581  14.839
43329W        W 7273  30.134  38.824  13.896
43330W        W 7274  12.678  10.198   0.350
43331W        W 7275  20.196   8.294   1.904
43332W        W 7276  27.054  26.571   2.862
43333W        W 7277  33.617  25.073  12.422
43334W        W 7278  41.400  28.651  11.923
43335W        W 7279  22.023  42.497  11.052
43336W        W 7280  41.456  36.070   4.636
43337W        W 7281  40.907  28.105  14.769
43338W        W 7282  18.729  32.898  10.433
43339W        W 7283  44.350  40.511  13.522
43340W        W 7284  41.391   2.864   2.366
43341W        W 7285  31.929  15.315   3.209
43342W        W 7286  19.580  10.765  14.283
43343W        W 7287  34.557  21.113   0.440
43344W        W 7288  44.927  36.965   0.891
43345W        W 7289  31.410  30.074   0.847
43346W        W 7290  28.472  25.490  14.306
43347W        W 7291  24.086  44.414  12.048
43348W        W 7292  15.668  44.375   4.306
43349W        W 7293  42.821  42.904   1.743
43350W        W 7294  11.173  37.938   1.833
43351W        W 7295  19.535  28.017   1.715
43352W        W 7296  43.896  43.452  11.125
43353W        W 7297  15.195  44.772   3.870
43354W        W 7298  23.601  18.157   1.310
43355W        W 7299  12.186  29.983   4.204
43356W        W 7300   8.330  42.474   1.420
43357W        W 7301   0.404  41.412  11.009
43358W        W 7302  43.278   5.766  10.571
43359W        W 7303  36.063  43.980   1.718
43360W        W 7304  30.913  36.467  10.575
43361W        W 7305  33.511  32.954   0.339
43362W        W 7306  19.768  26.951   3.185
43363W        W 7307   1.908  11.866   0.455
43364W        W 7308  28.589   0.954  11.451
43365W        W 7309   9.269   0.446   1.857
43366W        W 7310  17.561  43.821   3.833
43367W        W 7311   6.833  27.116  12.966
43368W        W 7312   9.651  22.718  13.909
43369W        W 7313   3.956  36.466  13.918
43370W        W 7314  11.840  24.530  10.427
43371W        W 7315   5.744  25.552   3.191
43372W        W 7316  15.737  10.671   3.840
43373W        W 7317  37.942   7.739  13.004
43374W        W 7318   6.273  29.003  14.389
43375W        W 7319  20.247  16.119  11.372
43376W        W 7320  11.688  12.695   1.386
43377W        W 7321  24.050  10.263  13.445
43378W        W 7322  19.051  42.889  11.943
43379W        W 7323  11.146  22.582  13.872
43380W        W 7324  29.006  37.851  14.995
43381W        W 7325  13.625  25.122  12.985
43382W        W 7326  44.495  21.593  12.057
43383W        W 7327  17.096  21.666  10.438
43384W        W 7328  29.141  18.061  12.442
43385W        W 7329  21.562  33.020   2.699
43386W        W 7330   7.256   3.344  11.029
43387W        W 7331  37.415  29.935   1.401
43388W        W 7332  15.168  25.209  14.877
43389W        W 7333  25.581   2.276  11.394
43390W        W 7334  11.320  40.812  12.355
43391W        W 7335  20.637  34.018  13.324
43392W        W 7336  21.071  19.756   1.724
43393W        W 7337  33.914  38.879  11.575
43394W        W 7338  21.569  44.444   1.409
43395W        W 7339  22.738  32.462  14.277
43396W        W 7340  38.373  30.954  10.567
43397W        W 7341  42.777   8.730   1.279
43398W        W 7342   9.689  23.733   1.728
43399W        W 7343  42.395  41.482  10.510
43400W        W 7344  27.044  44.357  13.521
43401W        W 7345  29.604  35.583   3.673
43402W        W 7346  16.270   6.836  10.528
43403W        W 7347  29.138  40.851   3.357
43404W        W 7348   5.408   5.380  10.893
43405W        W 7349  23.067  26.140   0.310
43406W        W 7350  26.134  26.668  14.283
43407W        W 7351  16.129   5.428   1.236
43408W        W 7352  38.419  16.756  11.379
43409W        W 7353   5.886  20.730   4.800
43410W        W 7354  26.169  38.434   0.427
43411W        W 7355  10.160   5.350   4.198
43412W        W 7356  23.196  31.491  11.032
43413W        W 7357  24.623   0.911   1.279
43414W        W 7358   4.218  13.669   2.712
43415W        W 7359   8.208  44.818   0.849
43416W        W 7360  39.421  39.983  13.794
43417W        W 7361  38.374  15.584   4.165
43418W        W 7362  16.727  42.347   4.150
43419W        W 7363  10.694   5.229  13.944
43420W        W 7364  30.447  25.060   4.246
43421W        W 7365  23.007  32.073  14.019
43422W        W 7366   5.880   6.920   4.346
43423W        W 7367  13.340  21.204   2.254
43424W        W 7368  24.509  10.800  12.042
43425W        W 7369  14.674  12.761   1.744
43426W        W 7370  13.229  24.163  13.834
43427W        W 7371  26.141  37.954  12.045
43428W        W 7372  29.031  37.833  12.024
43429W        W 7373  35.591   0.960   3.759
43430W        W 7374  12.327  29.172   0.392
43431W        W 7375   4.790   0.267  14.907
43432W        W 7376  17.289  14.594   0.764
43433W        W 7377  36.586  20.121  14.515
43434W        W 7378   8.879  38.019  14.476
43435W        W 7379  34.118   3.292   1.235
43436W        W 7380  10.227   8.852  12.528
43437W        W 7381  41.504  37.936  13.374
43438W        W 7382   3.352  40.509  11.457
43439W        W 7383  12.130  39.055  14.275
43440W        W 7384   7.411  32.887  11.106
43441W        W 7385   7.771   9.804   1.749
43442W        W 7386  21.162   4.758  12.022
43443W        W 7387   8.857   2.893  12.416
43444W        W 7388  15.677   9.876  14.872
43445W        W 7389  42.510  25.216  14.332
43446W        W 7390  21.040  24.226   0.803
43447W        W 7391  16.275  24.181   1.216
43448W        W 7392  18.120  20.740   4.823
43449W        W 7393  22.611  26.489   3.248
43450W        W 7394   0.279  36.042   2.834
43451W        W 7395  24.573  19.253  14.495
43452W        W 7396  34.941  23.548   9.942
43453W        W 7397  23.046   5.236  14.982
43454W        W 7398  39.502  11.129   2.353
43455W        W 7399  13.112   0.900  14.282
43456W        W 7400   3.284  14.256  13.023
43457W        W 7401  17.788  35.975   0.930
43458W        W 7402   5.238   6.769   2.264
43459W        W 7403  44.426  28.484   0.440
43460W        W 7404  39.530  42.477  12.411
43461W        W 7405  13.695  11.694  14.312
43462W        W 7406  26.588  13.641  13.041
43463W        W 7407  28.038  27.073  12.093
43464W        W 7408  31.468  21.201  14.887
43465W        W 7409  22.139  18.545  11.119
43466W        W 7410  18.695   1.904  13.992
43467W        W 7411   2.420  10.352  11.430
43468W        W 7412  35.005  43.456  12.974
43469W        W 7413  29.044   3.257   4.729
43470W        W 7414   2.406   8.805   4.268
43471W        W 7415  10.323  42.462   4.279
43472W        W 7416   0.866  10.313   2.837
43473W        W 7417   2.945   0.925   3.292
43474W        W 7418  42.288  28.975  12.838
43475W        W 7419  36.000  44.283   3.691
43476W        W 7420  18.640  31.997   9.483
43477W        W 7421  36.403   0.297  13.059
43478W        W 7422  29.485  43.822  14.796
43479W        W 7423  36.080  10.866   3.867
43480W        W 7424   9.282  39.011   2.307
43481W        W 7425  32.410  22.609   1.276
43482W        W 7426  24.539  35.091   4.301
43483W        W 7427  34.064   8.195  11.496
43484W        W 7428  10.814  38.940  12.018
43485W        W 7429  44.831   9.217  10.953
43486W        W 7430  43.385  18.204  10.942
43487W        W 7431   8.283  21.250   2.241
43488W        W 7432   4.722  19.544  11.047
43489W        W 7433   9.764  26.619   4.252
43490W        W 7434   5.831  43.502  13.840
43491W        W 7435   4.235  37.916   2.826
43492W        W 7436  21.677  12.180   2.813
43493W        W 7437  36.436  40.540  12.012
43494W        W 7438   4.878  22.683   3.693
43495W        W 7439  25.089   5.748   2.349
43496W        W 7440  43.422  17.153   2.298
43497W        W 7441   3.800  11.688   1.353
43498W        W 7442   2.437  40.949  10.965
43499W        W 7443  44.993  36.926  14.828
43500W        W 7444   7.212  14.665  12.408
43501W        W 7445  27.006  37.898   2.741
43502W        W 7446  17.644  43.888   0.859
43503W        W 7447  33.499   8.691  13.540
43504W        W 7448   9.695  36.395   1.446
43505W        W 7449  29.489   1.764   1.249
43506W        W 7450   1.255  38.460  12.034
43507W        W 7451  15.804  33.592  10.947
43508W        W 7452  26.606  43.411   1.725
43509W        W 7453  20.614  40.319   3.194
43510W        W 7454  40.348  40.041  13.915
43511W        W 7455  37.376  43.791  13.353
43512W        W 7456  25.514  21.707   2.326
43513W        W 7457  35.573  13.206   3.368
43514W        W 7458  22.132  36.465  13.416
43515W        W 7459   6.188  26.702   3.344
43516W        W 7460  29.617   9.881  11.904
43517W        W 7461  31.540  40.353   1.931
43518W        W 7462   3.400  22.537  11.530
43519W        W 7463  22.229  13.736  12.836
43520W        W 7464  30.454   8.853  14.275
43521W        W 7465  17.066  39.534   0.335
43522W        W 7466  44.462  41.318  11.990
43523W        W 7467   7.837  17.641   2.196
43524W        W 7468  14.722  17.639  11.488
43525W        W 7469  13.603   7.880  14.966
43526W        W 7470  32.961  29.157  14.854
43527W        W 7471  26.695  39.961   4.229
43528W        W 7472  35.415  39.344  10.452
43529W        W 7473  14.237   8.250   0.349
43530W        W 7474  13.647   3.756  10.485
43531W        W 7475  12.190   2.830   3.345
43532W        W 7476  13.128  23.158   2.396
43533W        W 7477  36.923  21.023  11.526
43534W        W 7478  26.070  35.520  11.110
43535W        W 7479  44.951   1.401  14.819
43536W        W 7480   5.385  37.884  14.842
43537W        W 7481  36.430  40.876  13.932
43538W        W 7482   0.771  17.785  11.567
43539W        W 7483  31.088  41.945  13.449
43540W        W 7484  28.476  22.087   0.398
43541W        W 7485  26.578  25.076  12.053
43542W        W 7486  21.540  24.188  10.051
43543W        W 7487  25.037   4.400  14.794
43544W        W 7488  29.668  28.932   2.716
43545W        W 7489  42.953  26.670   3.828
43546W        W 7490  33.125  29.049   0.284
43547W        W 7491   0.805   8.362  13.858
43548W        W 7492  24.110  24.676  10.988
43549W        W 7493  38.960  32.423   2.825
43550W        W 7494  39.048   9.820   1.901
43551W        W 7495   8.741  30.537   4.198
43552W        W 7496   2.448  41.450  13.959
43553W        W 7497  33.017   5.882  13.482
43554W        W 7498   4.773  22.738  14.823
43555W        W 7499   0.846  38.475   3.688
43556W        W 7500  44.822   9.203  11.477
43557W        W 7501  25.182  40.866   4.343
43558W        W 7502  37.352  40.467   4.175
43559W        W 7503   2.726  25.678  10.895
43560W        W 7504  18.593  41.987   3.857
43561W        W 7505  38.406  30.163   4.769
43562W        W 7506  33.481   5.340  13.413
43563W        W 7507  29.107   0.266   4.739
43564W        W 7508  40.485  29.642   2.852
43565W        W 7509  35.412  11.184  10.581
43566W        W 7510  31.427  15.761   1.914
43567W        W 7511  11.166  44.790  13.360
43568W        W 7512   7.255  41.849  11.932
43569W        W 7513   3.309   6.317  12.005
43570W        W 7514  28.186  17.601   1.367
43571W        W 7515   1.853  24.996  12.498
43572W        W 7516  41.369   7.364   3.719
43573W        W 7517  25.132  38.825   0.339
43574W        W 7518  10.660  27.681  11.107
43575W        W 7519  37.489  10.332   3.270
43576W        W 7520  42.431  40.023  10.564
43577W        W 7521  14.254  14.725  13.459
43578W        W 7522  42.449  35.994  11.555
43579W        W 7523  16.211  35.553   2.781
43580W        W 7524  38.985  37.033   0.850
43581W        W 7525  23.649   0.416  14.925
43582W        W 7526  12.819   1.948  12.002
43583W        W 7527   6.380  43.455   1.261
43584W        W 7528  33.998  39.992   2.331
43585W        W 7529  30.943   2.304   4.121
43586W        W 7530  19.121  25.654   4.752
43587W        W 7531  15.748  38.853   1.262
43588W        W 7532   0.317  34.052   0.753
43589W        W 7533  42.354  32.001   0.399
43590W        W 7534  39.421  32.103  14.831
43591W        W 7535  39.471   2.463   5.582
43592W        W 7536  14.221  10.808  12.410
43593W        W 7537   6.216  22.998  12.849
43594W        W 7538  40.311  25.530   4.823
43595W        W 7539   4.782  21.173   0.384
43596W        W 7540  38.065  23.142   2.220
43597W        W 7541  28.127  43.021  10.067
43598W        W 7542  21.253  41.828   4.731
43599W        W 7543  29.462  43.453   1.843
43600W        W 7544  40.034  11.717   0.835
43601W        W 7545  41.904  14.690   4.258
43602W        W 7546  22.189  22.633  14.342
43603W        W 7547  34.046   2.946   1.251
43604W        W 7548  28.546  32.512  13.851
43605W        W 7549  39.940  35.079  12.825
43606W        W 7550  30.136  44.798  10.525
43607W        W 7551  12.822  38.563   4.254
43608W        W 7552  17.647  44.898  10.609
43609W        W 7553   4.918  39.408  10.991
43610W        W 7554  12.821  26.630  11.091
43611W        W 7555  20.073  11.827  14.288
43612W        W 7556  32.088  43.411   4.317
43613W        W 7557  15.726  37.073   0.288
43614W        W 7558  16.132   4.255   1.903
43615W        W 7559  39.552  12.635   0.850
43616W        W 7560   6.759  44.315  10.904
43617W        W 7561  20.572  26.197  10.902
43618W        W 7562  16.599  41.017  13.409
43619W        W 7563  25.664   0.264   0.844
43620W        W 7564  26.136   5.901  13.545
43621W        W 7565  24.683   7.754   0.292
43622W        W 7566   2.299   2.862   0.364
43623W        W 7567  40.460   9.805  10.567
43624W        W 7568   8.801  40.995   0.459
43625W        W 7569   8.887   7.283  12.375
43626W        W 7570   4.808  10.233  11.898
43627W        W 7571  17.174   5.688  14.965
43628W        W 7572  34.435  37.075   1.748
43629W        W 7573  13.200   4.780   0.320
43630W        W 7574  43.413   3.323   1.874
43631W        W 7575  25.625  38.944  12.415
43632W        W 7576  22.720   2.399   0.448
43633W        W 7577  43.901  40.854   1.914
43634W        W 7578  39.971  37.071  10.608
43635W        W 7579  11.644  26.126   1.813
43636W        W 7580   8.401  25.479  12.941
43637W        W 7581  30.635  27.489  10.579
43638W        W 7582  26.629  13.302   4.740
43639W        W 7583   7.372   9.149   1.415
43640W        W 7584   6.343  44.785   0.790
43641W        W 7585  43.793   7.741   0.957
43642W        W 7586  39.016  22.702  11.864
43643W        W 7587  39.448  26.665   0.381
43644W        W 7588  17.566  31.057   2.360
43645W        W 7589  44.949  23.556  13.404
43646W        W 7590  26.471  15.610   2.820
43647W        W 7591  35.039  39.991  14.288
43648W        W 7592  44.366  15.802  14.451
43649W        W 7593  44.905  13.618   4.300
43650W        W 7594  12.744  18.647   0.844
43651W        W 7595  35.475  24.633   4.719
43652W        W 7596  19.157   3.311  13.482
43653W        W 7597  38.921  20.731   4.330
43654W        W 7598  18.244  24.529  14.019
43655W        W 7599  39.991  31.145  11.988
43656W        W 7600  16.717  16.801   3.852
43657W        W 7601   9.887  36.052  13.930
43658W        W 7602  40.859   0.340   0.880
43659W        W 7603  42.283  23.498   1.704
43660W        W 7604  24.578   2.459   3.382
43661W        W 7605   5.895  22.243  14.484
43662W        W 7606  43.844  26.595   2.192
43663W        W 7607  34.959   6.258  14.895
43664W        W 7608  11.156  31.500  13.823
43665W        W 7609  22.179  37.563  12.973
43666W        W 7610  20.545  24.509  13.817
43667W        W 7611  31.491  29.937   3.833
43668W        W 7612  37.392  35.452  12.424
43669W        W 7613  38.022   2.937   1.322
43670W        W 7614  27.056  11.129   1.831
43671W        W 7615  18.745  41.401  11.865
43672W        W 7616  11.274  12.246  11.566
43673W        W 7617  31.538  39.864  12.008
43674W        W 7618  23.108  31.083  11.401
43675W        W 7619   6.742   9.381  14.888
43676W        W 7620   7.745   1.321   3.648
43677W        W 7621   3.787  28.459   3.207
43678W        W 7622   1.340  34.448   3.870
43679W        W 7623  24.540  38.825   3.192
43680W        W 7624  17.801  23.072  12.401
43681W        W 7625   6.853  24.565   3.297
43682W        W 7626  19.259  37.527  13.827
43683W        W 7627  34.965  30.415  14.433
43684W        W 7628  42.971  13.229  12.482
43685W        W 7629  35.525  44.449   9.962
43686W        W 7630  36.413  42.518   4.154
43687W        W 7631   8.290  33.969   3.671
43688W        W 7632  41.914   3.884  11.423
43689W        W 7633  43.938  32.629   0.475
43690W        W 7634  41.978  27.451   2.671
43691W        W 7635  11.753  31.079  11.569
43692W        W 7636  21.217  12.821  10.535
43693W        W 7637  25.648  43.798   1.223
43694W        W 7638  31.135   9.681  11.909
43695W        W 7639  41.795  42.848  10.039
43696W        W 7640   5.225  23.134   4.628
43697W        W 7641  20.671   9.829  14.759
43698W        W 7642  36.574  40.471   2.222
43699W        W 7643  44.985  17.154  14.515
43700W        W 7644  42.028   5.363   4.821
43701W        W 7645  11.687  36.560   3.260
43702W        W 7646  40.951  44.908  12.014
43703W        W 7647   5.261  25.620  10.594
43704W        W 7648  10.347  16.656   0.416
43705W        W 7649  29.427   6.317   4.286
43706W        W 7650  29.513  16.583   3.149
43707W        W 7651  39.885  44.994  13.866
43708W        W 7652  27.449   4.426   0.739
43709W        W 7653  19.722  38.570   3.152
43710W        W 7654   3.787  10.222  13.338
43711W        W 7655  14.668  35.012   3.219
43712W        W 7656  30.568  34.055  10.969
43713W        W 7657  28.090  32.081  11.081
43714W        W 7658  12.718  43.871  10.921
43715W        W 7659  29.440  29.612  14.899
43716W        W 7660   9.320  15.705  14.348
43717W        W 7661  24.009  28.149  13.842
43718W        W 7662  27.179  37.928  14.450
43719W        W 7663  24.675  20.165  10.509
43720W        W 7664  33.592   2.841   3.286
43721W        W 7665  43.969  16.616  12.456
43722W        W 7666  27.481   4.843   1.224
43723W        W 7667  18.147  26.577   0.946
43724W        W 7668  42.360  21.730  12.020
43725W        W 7669   8.310  42.790  13.028
43726W        W 7670  10.295  44.865   4.336
43727W        W 7671  23.498   6.695   3.814
43728W        W 7672   2.395  42.816   4.172
43729W        W 7673  18.283  30.602  14.486
43730W        W 7674  26.556  38.851  13.988
43731W        W 7675  26.490  40.939  11.484
43732W        W 7676   2.283  28.144  13.409
43733W        W 7677   4.274  17.736  10.890
43734W        W 7678  13.216   9.840  11.446
43735W        W 7679   8.756  17.255  12.473
43736W        W 7680  23.620  13.125   4.192
43737W        W 7681  26.591  13.635  10.604
43738W        W 7682  19.209  36.408   3.732
43739W        W 7683  33.540  40.963   0.834
43740W        W 7684  12.716   8.883  14.941
43741W        W 7685  15.711  39.425  10.600
43742W        W 7686  31.117  39.443   9.449
43743W        W 7687   0.871  37.545  14.399
43744W        W 7688  25.024   2.752  13.875
43745W        W 7689  35.900  43.888   0.735
43746W        W 7690   4.408  39.857   3.245
43747W        W 7691  24.175  36.033   4.729
43748W        W 7692  12.756  41.865   4.179
43749W        W 7693  26.600  17.798  13.460
43750W        W 7694  44.448  11.160   4.733
43751W        W 7695  15.803   8.288  12.518
43752W        W 7696  34.940  44.765  13.989
43753W        W 7697  41.838  40.467  12.461
43754W        W 7698  21.745  25.560   4.764
43755W        W 7699  19.232  38.373  11.100
43756W        W 7700   9.298   5.291   4.164
43757W        W 7701  21.095  43.509   2.749
43758W        W 7702  27.510  38.985  12.016
43759W        W 7703   8.316  41.836  12.445
43760W        W 7704  23.141  33.006   1.321
43761W        W 7705  13.832  13.155   1.325
43762W        W 7706   7.234   1.374   1.403
43763W        W 7707  13.614   4.240   1.341
43764W        W 7708  19.608   4.341  14.940
43765W        W 7709  41.912  28.560   0.834
43766W        W 7710   7.299  25.076  13.425
43767W        W 7711  23.159   6.401  12.955
43768W        W 7712  32.121  17.645  14.415
43769W        W 7713  41.832  22.560  13.416
43770W        W 7714   6.244   5.921   4.291
43771W        W 7715  19.701   5.792   2.180
43772W        W 7716  37.874   2.946   0.313
43773W        W 7717   6.254  17.172   4.160
43774W        W 7718  14.688   1.735   9.928
43775W        W 7719  13.233  14.596   3.683
43776W        W 7720  32.416   4.256   0.951
43777W        W 7721  25.981   1.260   4.702
43778W        W 7722  30.646   0.385  14.022
43779W        W 7723   7.806   7.355  12.566
43780W        W 7724   6.778  19.043   4.734
43781W        W 7725  43.836  37.975   3.178
43782W        W 7726  35.511  40.891  13.042
43783W        W 7727  15.627  16.645   2.867
43784W        W 7728  31.933  18.227  12.529
43785W        W 7729  36.013  34.973   4.686
43786W        W 7730   1.356  41.823   0.415
43787W        W 7731   0.775  22.567   9.967
43788W        W 7732   4.829   5.267  12.494
43789W        W 7733  43.930  29.985  13.942
43790W        W 7734   4.816  19.732  14.862
43791W        W 7735  32.886  33.482  14.820
43792W        W 7736  18.588  36.060   2.375
43793W        W 7737   5.878  10.639   0.430
43794W        W 7738  37.057   6.690   2.344
43795W        W 7739  18.559  31.937   9.960
43796W        W 7740  16.731  42.999   1.344
43797W        W 7741  22.714  25.136   3.760
43798W        W 7742  24.106  34.540   2.902
43799W        W 7743  37.029  37.940  10.951
43800W        W 7744  18.053  25.514  10.993
43801W        W 7745  12.315  31.413   4.205
43802W        W 7746   2.732  21.024   1.363
43803W        W 7747  42.364  41.818  12.893
43804W        W 7748  42.977  28.460  11.937
43805W        W 7749  23.539   4.379  14.870
43806W        W 7750  39.864  40.459  14.395
43807W        W 7751   3.872   4.294  14.507
43808W        W 7752  12.217  36.497   1.370
43809W        W 7753  14.717  33.534  13.436
43810W        W 7754  10.750   6.723  13.874
43811W        W 7755  23.715  10.745   3.855
43812W        W 7756  41.968  25.034   3.753
43813W        W 7757  38.925  41.318   4.837
43814W        W 7758  10.373  15.605  12.393
43815W        W 7759  32.021  37.446   4.755
43816W        W 7760  35.479   0.419  11.863
43817W        W 7761  24.547  16.211  10.639
43818W        W 7762   8.298  21.104   4.718
43819W        W 7763  19.663   6.778   4.232
43820W        W 7764  32.624  28.573   0.785
43821W        W 7765   1.270   5.907  13.852
43822W        W 7766   6.240  37.492   4.652
43823W        W 7767  16.647  26.666   2.332
43824W        W 7768   5.222  32.542   3.176
43825W        W 7769  16.579  38.866  12.871
43826W        W 7770   1.740   0.384   2.902
43827W        W 7771  44.930  16.768  11.074
43828W        W 7772  35.026   1.432   0.285
43829W        W 7773  18.129  24.528   2.341
43830W        W 7774   6.189  14.244  11.085
43831W        W 7775   8.296  25.183  12.384
43832W        W 7776  32.122   0.376  13.454
43833W        W 7777  27.996  10.147  10.082
43834W        W 7778  16.302  12.183   4.157
43835W        W 7779  18.273  21.102  11.925
43836W        W 7780  10.680  13.712  12.347
43837W        W 7781  42.888  37.354   3.666
43838W        W 7782  18.729  32.028  11.432
43839W        W 7783  37.518   8.291   2.880
43840W        W 7784   3.357  14.238   1.442
43841W        W 7785   1.380   4.416   2.889
43842W        W 7786  43.874   9.199  12.535
43843W        W 7787  15.641   5.759  13.854
43844W        W 7788  38.947  16.248  14.005
43845W        W 7789  40.826  16.241  11.021
43846W        W 7790  31.026  10.742  12.885
43847W        W 7791  26.149  17.597  13.916
43848W        W 7792  17.153  21.219   0.441
43849W        W 7793  31.423  19.056   3.870
43850W        W 7794  18.223  22.153   4.226
43851W        W 7795  18.163  20.252   1.901
43852W        W 7796  41.349  36.872  11.880
43853W        W 7797  35.497  15.171   0.870
43854W        W 7798  18.174  38.998  13.517
43855W        W 7799  12.621  34.563  14.456
43856W        W 7800  22.117  10.674   2.351
43857W        W 7801  35.582  27.085  12.572
43858W        W 7802  32.066  16.131   0.917
43859W        W 7803  16.234  17.558  14.334
43860W        W 7804  32.923   5.296  11.994
43861W        W 7805  21.541  38.005  14.358
43862W        W 7806  21.575  35.466  11.926
43863W        W 7807   3.409  41.860   1.382
43864W        W 7808  19.649  27.089  12.923
43865W        W 7809  12.266  35.427   4.693
43866W        W 7810  36.380  40.452   3.729
43867W        W 7811  18.695  12.750  13.056
43868W        W 7812  13.612  14.751  13.007
43869W        W 7813  44.851  36.043   2.189
43870W        W 7814  42.325  24.628  12.937
43871W        W 7815   3.272  22.514   3.834
43872W        W 7816  23.066  31.988   1.920
43873W        W 7817  13.131  28.174  11.394
43874W        W 7818  22.616  42.899  12.494
43875W        W 7819  37.448  20.584  14.316
43876W        W 7820   8.760  25.669   1.745
43877W        W 7821  17.093  43.793  13.398
43878W        W 7822  44.914  12.310  12.426
43879W        W 7823   8.332  20.131  11.018
43880W        W 7824  35.517  43.933   2.289
43881W        W 7825  29.924  42.484   1.695
43882W        W 7826  25.009  21.701   3.822
43883W        W 7827  33.969  34.917  11.581
43884W        W 7828   2.471  33.123   4.705
43885W        W 7829  34.105  22.542   1.313
43886W        W 7830  13.665  20.185  10.562
43887W        W 7831   7.901  14.696   2.238
43888W        W 7832  24.594  29.063  12.377
43889W        W 7833   4.347   3.865   0.761
43890W        W 7834   4.788  14.665  12.004
43891W        W 7835  42.401  38.828  12.393
43892W        W 7836   3.727  19.559  12.915
43893W        W 7837   6.363  26.523  13.462
43894W        W 7838  27.038   6.922  14.326
43895W        W 7839  20.635   7.277   0.807
43896W        W 7840  15.691  31.496  14.461
43897W        W 7841   6.869  15.765  10.940
43898W        W 7842   8.224  11.343   1.280
43899W        W 7843  43.388  30.118   4.709
43900W        W 7844  16.226  24.495  14.909
43901W        W 7845   8.393  18.635   1.857
43902W        W 7846  21.149  14.234   1.927
43903W        W 7847  44.825   6.384  14.400
43904W        W 7848  24.495  36.582   1.349
43905W        W 7849  35.521  13.709   4.236
43906W        W 7850  21.142  26.075   1.753
43907W        W 7851  39.374   6.811  13.800
43908W        W 7852  41.945  34.568  13.462
43909W        W 7853   5.876  23.714  11.005
43910W        W 7854  23.519  18.091   1.933
43911W        W 7855  37.968  37.887   1.336
43912W        W 7856  33.508   3.404   0.844
43913W        W 7857  40.403  19.725   4.279
43914W        W 7858  25.533  31.476   1.777
43915W        W 7859  36.377   6.812   4.824
43916W        W 7860  29.535   3.870  12.355
43917W        W 7861  44.967  23.131   4.214
43918W        W 7862  36.858  19.130   1.742
43919W        W 7863  24.137   9.164  10.417
43920W        W 7864  23.710  28.170   4.805
43921W        W 7865  29.964   8.167   2.198
43922W        W 7866  12.153  24.976   3.835
43923W        W 7867  16.746  21.753  10.950
43924W        W 7868  15.777  18.592  12.509
43925W        W 7869   2.338  28.142  11.935
43926W        W 7870  29.021  14.182   2.272
43927W        W 7871  38.559   5.379   0.836
43928W        W 7872  44.434  40.910  10.626
43929W        W 7873   1.977  21.550   2.371
43930W        W 7874  31.057  36.527  14.466
43931W        W 7875   2.403   2.383  12.838
43932W        W 7876   4.232  42.888  12.948
43933W        W 7877  35.046  32.503  11.094
43934W        W 7878  22.035  31.424  12.897
43935W        W 7879  26.539  25.153   3.183
43936W        W 7880  42.396   2.887   1.301
43937W        W 7881  29.034   7.868   4.839
43938W        W 7882  31.485  33.622  14.314
43939W        W 7883  43.318  34.562   0.448
43940W        W 7884  14.267  29.002   2.225
43941W        W 7885   6.355  19.726   2.330
43942W        W 7886  23.718  26.026  13.874
43943W        W 7887   1.780   7.337  14.334
43944W        W 7888  35.415  18.294  13.327
43945W        W 7889  43.453   1.966  14.440
43946W        W 7890  38.939   7.391   4.253
43947W        W 7891  12.764  41.006  13.503
43948W        W 7892  17.242  29.568  14.914
43949W        W 7893  19.043  31.516   1.269
43950W        W 7894   6.738  31.967   0.266
43951W        W 7895   3.306  42.394   3.774
43952W        W 7896  15.792   3.290  10.486
43953W        W 7897  13.216   0.277  14.878
43954W        W 7898  28.132  25.497  10.915
43955W        W 7899  14.695  27.575   4.694
43956W        W 7900   1.753   0.339  12.499
43957W        W 7901  16.114  35.541  14.370
43958W        W 7902  32.444   5.226   0.862
43959W        W 7903  17.596  37.042  10.450
43960W        W 7904  12.790  32.053   0.929
43961W        W 7905  32.047  27.517   3.686
43962W        W 7906  30.425  33.532   1.292
43963W        W 7907  29.668   2.802  14.841
43964W        W 7908  39.456  33.406   2.286
43965W        W 7909  20.524  38.431   1.837
43966W        W 7910  44.279  27.988   5.260
43967W        W 7911  14.108   4.784  10.571
43968W        W 7912  16.643  26.596   3.146
43969W        W 7913  43.355  14.621  10.624
43970W        W 7914  41.991  11.715  13.339
43971W        W 7915   7.778  13.148   1.443
43972W        W 7916   3.444  19.577  11.605
43973W        W 7917   8.370  26.191  10.928
43974W        W 7918  41.388  25.542  12.964
43975W        W 7919  37.408  44.291   5.317
43976W        W 7920  16.167  14.226   1.323
43977W        W 7921  14.611  18.277   0.416
43978W        W 7922  31.956  32.479   2.205
43979W        W 7923  36.461  11.815  11.924
43980W        W 7924   1.344  28.512   3.200
43981W        W 7925   7.801  44.005  12.979
43982W        W 7926  15.715  42.510   1.281
43983W        W 7927  12.847  10.695   4.200
43984W        W 7928   5.841  27.568   2.768
43985W        W 7929  15.108  22.191  13.872
43986W        W 7930  25.022  39.925   0.743
43987W        W 7931  24.523  34.426   0.735
43988W        W 7932  25.682  21.661   0.362
43989W        W 7933  11.832  27.161  11.554
43990W        W 7934  29.591  10.298   3.856
43991W        W 7935  27.192  27.046   2.799
43992W        W 7936  38.346  19.145  10.559
43993W        W 7937  14.169  44.324   0.957
43994W        W 7938  39.559  44.475  13.952
43995W        W 7939  22.669  20.205   1.332
43996W        W 7940   5.894  44.835   0.271
43997W        W 7941  19.096  22.115   3.168
43998W        W 7942  36.016  19.231   0.319
43999W        W 7943   0.265  12.811  11.941
44000W        W 7944  38.032   0.921  11.972
44001W        W 7945  36.412   2.277   3.374
44002W        W 7946   1.949   8.314  13.515
44003W        W 7947  11.265  31.414   2.761
44004W        W 7948  40.841   4.866   2.333
44005W        W 7949  26.542  21.709  11.477
44006W        W 7950   2.929  43.302  13.041
44007W        W 7951  23.521   8.255  11.490
44008W        W 7952  30.472  38.357  14.399
44009W        W 7953  44.328  34.564  12.988
44010W        W 7954  37.083   2.340   3.644
44011W        W 7955  13.709  33.421   2.805
44012W        W 7956  38.379   5.412  10.608
44013W        W 7957   8.746  12.765   4.718
44014W        W 7958  21.170  17.124   2.699
44015W        W 7959  35.957  40.476   2.401
44016W        W 7960  20.061   7.265  12.399
44017W        W 7961   7.332  44.321   4.173
44018W        W 7962  15.299  43.364   0.460
44019W        W 7963  21.566  30.413   1.446
44020W        W 7964  32.031  28.665  11.983
44021W        W 7965  22.511  21.740  10.642
44022W        W 7966  41.809  39.513  12.574
44023W        W 7967  11.750  20.537  12.073
44024W        W 7968   2.819  26.099   4.748
44025W        W 7969  23.173   4.721  11.950
44026W        W 7970  33.972  42.924   0.734
44027W        W 7971  22.640  38.547  14.964
44028W        W 7972   5.836  16.159  10.497
44029W        W 7973  14.305  23.540  14.375
44030W        W 7974  16.804  35.863   4.708
44031W        W 7975  36.517  33.419   3.745
44032W        W 7976  18.172  43.515   1.771
44033W        W 7977  19.233  34.937  12.968
44034W        W 7978   9.351   0.310  11.893
44035W        W 7979  10.822  19.235   4.786
44036W        W 7980  24.613  23.693  12.835
44037W        W 7981  44.432  33.606  13.453
44038W        W 7982  36.001   0.871   1.347
44039W        W 7983  37.064  13.118  14.032
44040W        W 7984  21.656  37.337   0.765
44041W        W 7985   9.347  25.113  14.377
44042W        W 7986  34.941  34.592  12.022
44043W        W 7987  19.608  20.234  11.972
44044W        W 7988  15.681  43.476   2.729
44045W        W 7989  28.939  15.086   1.728
44046W        W 7990  34.940  41.465   3.820
44047W        W 7991  13.168   2.259   4.670
44048W        W 7992  32.107  22.611  11.115
44049W        W 7993  30.483  29.956   0.294
44050W        W 7994  27.650  44.788   1.448
44051W        W 7995   8.254  28.094   0.463
44052W        W 7996  30.921  19.570   0.347
44053W        W 7997  30.561  11.241  12.842
44054W        W 7998   3.361  41.417  11.106
44055W        W 7999  33.934   4.316   3.810
44056W        W 8000  10.750  13.305  12.951
44057W        W 8001  22.645  22.593   1.814
44058W        W 8002   4.402  30.088  11.570
44059W        W 8003   1.352  36.990  12.851
44060W        W 8004  25.683  12.756   1.716
44061W        W 8005   8.187  23.988  14.995
44062W        W 8006  27.977  36.883  12.990
44063W        W 8007  40.494  19.082   1.902
44064W        W 8008  23.636  20.234   1.228
44065W        W 8009  29.434  33.617   3.635
44066W        W 8010  37.081  39.408   4.706
44067W        W 8011  21.250  13.336   1.827
44068W        W 8012   6.388  28.034   4.669
44069W        W 8013  26.650  21.612  13.887
44070W        W 8014  14.306   7.215   0.452
44071W        W 8015  14.617  27.123   0.382
44072W        W 8016  31.592   5.294  12.051
44073W        W 8017  15.704  38.453  11.091
44074W        W 8018  31.942  40.895   2.899
44075W        W 8019  15.209  24.104   0.363
44076W        W 8020   1.908   1.909   4.198
44077W        W 8021  12.167  21.169  10.493
44078W        W 8022   9.665  38.344   4.619
44079W        W 8023  24.071  36.520   3.187
44080W        W 8024  24.078  39.545  12.074
44081W        W 8025  15.221  28.175   2.286
44082W        W 8026  16.154  44.324   1.247
44083W        W 8027  41.869  16.704   0.785
44084W        W 8028  38.028  26.115   4.732
44085W        W 8029  22.681  30.111   2.801
44086W        W 8030  18.552   7.224   2.180
44087W        W 8031  14.694   4.293  10.618
44088W        W 8032  12.728   7.688   3.267
44089W        W 8033  21.582  39.041   0.799
44090W        W 8034  42.403  29.669   0.329
44091W        W 8035  25.556  39.966   2.415
44092W        W 8036  36.519  34.068   0.827
44093W        W 8037  22.156  39.865  13.807
44094W        W 8038  11.350  26.652   0.875
44095W        W 8039  35.109  32.997   3.243
44096W        W 8040  34.567  37.415  13.510
44097W        W 8041  18.554  39.988  14.787
44098W        W 8042   5.904  26.046   2.210
44099W        W 8043  31.118  33.994  11.009
44100W        W 8044   7.349  30.947  12.417
44101W        W 8045  24.587  20.097   1.882
44102W        W 8046  44.994  43.364  10.945
44103W        W 8047  22.040  42.311   4.728
44104W        W 8048  16.163   2.851   3.252
44105W        W 8049  23.623  13.105  11.404
44106W        W 8050  40.022   6.896   4.633
44107W        W 8051   9.279  38.882   9.990
44108W        W 8052  38.420  16.074   0.795
44109W        W 8053  28.555  40.466  12.885
44110W        W 8054  30.631  40.887   4.722
44111W        W 8055   7.302  30.069  10.522
44112W        W 8056  42.005  43.005   0.483
44113W        W 8057  17.733  10.226  12.344
44114W        W 8058  35.437  25.176   2.738
44115W        W 8059  34.505   2.415   1.341
44116W        W 8060  25.507  29.629  12.014
44117W        W 8061  40.847   3.434   2.331
44118W        W 8062  30.541  44.417   4.331
44119W        W 8063  41.327  30.153   3.208
44120W        W 8064  18.772  37.851   1.321
44121W        W 8065   3.227  17.182   0.282
44122W        W 8066  37.976  13.288  11.446
44123W        W 8067  24.597  41.876  11.461
44124W        W 8068  19.727  35.493  12.996
44125W        W 8069  41.918  24.629   0.294
44126W        W 8070  38.436  24.983  13.440
44127W        W 8071  37.047  22.064   3.266
44128W        W 8072  33.067  44.885  13.820
44129W        W 8073  14.744   5.803   1.280
44130W        W 8074  31.420  20.756  12.963
44131W        W 8075  34.943  23.148  11.609
44132W        W 8076  27.513  38.974  10.004
44133W        W 8077  32.466   3.869   3.812
44134W        W 8078  17.124  35.492   4.261
44135W        W 8079  20.254  22.613   5.648
44136W        W 8080  10.741  11.248  11.608
44137W        W 8081  17.695   7.715  10.569
44138W        W 8082  26.959  44.426  11.083
44139W        W 8083  35.437  39.338   4.769
44140W        W 8084  19.093  23.139   4.134
44141W        W 8085  32.890   8.243  13.917
44142W        W 8086  36.408  31.511   2.662
44143W        W 8087   4.246  11.712  11.869
44144W        W 8088  36.577   2.846   9.950
44145W        W 8089  35.009  21.745  14.326
44146W        W 8090  10.808  37.437   0.265
44147W        W 8091  13.754  27.010   0.397
44148W        W 8092  15.325  14.129  10.969
44149W        W 8093  20.240   6.223   1.411
44150W        W 8094  36.452  28.183  14.778
44151W        W 8095   5.217  38.479  12.534
44152W        W 8096  41.505  15.128   3.861
44153W        W 8097  25.172  19.609  10.418
44154W        W 8098   0.836  17.578   0.366
44155W        W 8099   5.691  20.188  13.546
44156W        W 8100   9.681  13.809   9.482
44157W        W 8101  32.917  26.545  10.634
44158W        W 8102  42.354  10.644   1.849
44159W        W 8103   1.285   2.430  12.403
44160W        W 8104   7.389  21.113   2.319
44161W        W 8105  39.424   3.450  11.468
44162W        W 8106  18.229  16.299  12.482
44163W        W 8107  43.450  41.830   1.370
44164W        W 8108  31.050  25.508  10.632
44165W        W 8109  32.033   0.824   4.834
44166W        W 8110  34.383  23.629  14.979
44167W        W 8111  39.439  41.465   4.623
44168W        W 8112  36.479  35.933  12.567
44169W        W 8113  38.510   4.910  12.492
44170W        W 8114   3.885  22.723  12.995
44171W        W 8115  35.595  12.325  13.397
44172W        W 8116  37.370  35.053   1.875
44173W        W 8117  35.514  27.536   3.231
44174W        W 8118  33.046  14.782   3.861
44175W        W 8119  42.825  26.093   2.860
44176W        W 8120  25.677   7.857  14.797
44177W        W 8121   8.891  23.542  14.917
44178W        W 8122  24.127  34.418  12.984
44179W        W 8123   4.355  11.702   1.793
44180W        W 8124  14.254  22.665   3.742
44181W        W 8125   8.170   6.851  14.776
44182W        W 8126  38.429  37.554  10.924
44183W        W 8127   0.258  28.157  13.397
44184W        W 8128  17.204   0.817  14.469
44185W        W 8129  20.677  18.642   2.747
44186W        W 8130  44.984  43.981  12.908
44187W        W 8131  24.674  23.030   4.784
44188W        W 8132  41.523  12.171   4.190
44189W        W 8133  23.127  22.563  10.492
44190W        W 8134  17.111   1.922  12.939
44191W        W 8135   1.931  33.538   0.272
44192W        W 8136   1.295  13.628   2.688
44193W        W 8137  33.481  32.488   0.282
44194W        W 8138   6.202  35.067   1.873
44195W        W 8139   7.358  24.077  14.388
44196W        W 8140   3.888  15.234  11.957
44197W        W 8141  37.555  11.327   3.869
44198W        W 8142  30.148  22.730  14.863
44199W        W 8143  30.528  40.477   1.226
44200W        W 8144  25.153  32.078   3.221
44201W        W 8145   9.180  17.288   4.266
44202W        W 8146  14.319   6.408  14.337
44203W        W 8147  30.907  16.655  14.893
44204W        W 8148  16.270   3.453   0.939
44205W        W 8149  25.548  32.070   5.177
44206W        W 8150  34.402  40.953   2.842
44207W        W 8151   3.292  30.657  11.035
44208W        W 8152  25.650  33.538  12.884
44209W        W 8153  19.210  43.877   3.233
44210W        W 8154  26.993  40.400   3.660
44211W        W 8155   6.848  35.530   2.217
44212W        W 8156  23.607  25.581  12.376
44213W        W 8157   6.197  42.301  12.056
44214W        W 8158  31.944  33.978  13.440
44215W        W 8159  22.685  10.746  12.953
44216W        W 8160  31.129  17.653   1.350
44217W        W 8161   7.780  44.946  10.593
44218W        W 8162  42.400  23.097  11.094
44219W        W 8163  40.016  14.680  13.891
44220W        W 8164  39.859  33.421   1.839
44221W        W 8165   6.724  24.227  13.932
44222W        W 8166  13.260   9.317   3.817
44223W        W 8167  43.282  27.556   3.176
44224W        W 8168   6.799  15.088  11.883
44225W        W 8169  40.446  31.578  12.086
44226W        W 8170  31.464  22.737  11.528
44227W        W 8171  11.783  16.718  11.060
44228W        W 8172  25.049  36.910   4.828
44229W        W 8173  20.696  44.833  14.777
44230W        W 8174  24.028  10.841  12.349
44231W        W 8175  35.421   9.392   0.402
44232W        W 8176  36.415  41.379   4.205
44233W        W 8177  18.275  32.577   2.384
44234W        W 8178  33.394   1.975  11.880
44235W        W 8179  20.670   6.197   0.270
44236W        W 8180  13.192   9.331   2.856
44237W        W 8181   8.297  10.290   2.826
44238W        W 8182  37.550  34.430   1.236
44239W        W 8183  18.175  13.222  11.021
44240W        W 8184  16.144  13.267  14.883
44241W        W 8185   7.211   9.699  11.439
44242W        W 8186   5.750   0.781   0.916
44243W        W 8187  41.516  34.429  11.902
44244W        W 8188  34.423  41.801   4.347
44245W        W 8189  20.599   1.832  10.895
44246W        W 8190   8.703  19.272   1.381
44247W        W 8191  12.267  32.956  11.395
44248W        W 8192  22.182  36.935   4.307
44249W        W 8193  10.306  32.109   0.729
44250W        W 8194  42.806  36.467   4.251
44251W        W 8195   2.441   0.356  14.997
44252W        W 8196  13.307   1.759   2.316
44253W        W 8197  41.360  39.837  14.347
44254W        W 8198   1.300  21.676  12.494
44255W        W 8199   1.882  14.808   2.318
44256W        W 8200  32.022   9.319   2.392
44257W        W 8201  30.445  16.766   2.255
44258W        W 8202   6.211  18.561  13.834
44259W        W 8203   7.185  14.808  14.442
44260W        W 8204  14.805  28.546  14.452
44261W        W 8205  31.579  12.769   1.442
44262W        W 8206   4.874  36.537  14.009
44263W        W 8207  31.077  28.103   0.945
44264W        W 8208   7.293  25.527  12.528
44265W        W 8209  23.630  43.907   0.278
44266W        W 8210  29.452  27.976  12.512
44267W        W 8211  20.168   7.685   3.746
44268W        W 8212   4.915  25.669   0.926
44269W        W 8213   3.740  37.563   0.923
44270W        W 8214  30.054  42.514  13.328
44271W        W 8215  33.435  34.946   2.787
44272W        W 8216   9.339  28.998   0.916
44273W        W 8217  12.856   5.721   4.598
44274W        W 8218   9.806  21.238   1.352
44275W        W 8219  33.897  43.395   2.704
44276W        W 8220   4.710  44.812  13.538
44277W        W 8221  41.291  26.208   0.262
44278W        W 8222  27.648  16.742  12.456
44279W        W 8223  30.633   4.765  11.094
44280W        W 8224  15.317  14.622  12.847
44281W        W 8225   1.747  30.431   0.412
44282W        W 8226  33.115  10.814   2.300
44283W        W 8227  10.331  18.658  14.468
44284W        W 8228  36.023  38.562   3.222
44285W        W 8229  38.437  22.707   2.725
44286W        W 8230  35.461  29.054  12.570
44287W        W 8231   0.422  19.719   3.719
44288W        W 8232  10.181   8.302   4.725
44289W        W 8233  25.046  31.448  12.969
44290W        W 8234  31.048  26.968  11.089
44291W        W 8235  19.087  39.950  11.503
44292W        W 8236  21.705  30.553   4.346
44293W        W 8237  41.443  24.011  11.082
44294W        W 8238  15.801  42.506  10.553
44295W        W 8239   7.228  14.331   2.182
44296W        W 8240  18.155  34.943  11.568
44297W        W 8241  37.847  40.312   2.776
44298W        W 8242  28.636   0.970  13.944
44299W        W 8243  40.983  33.122  14.809
44300W        W 8244  41.936   1.925   3.287
44301W        W 8245  29.624  33.919   1.299
44302W        W 8246  32.520   3.795  11.378
44303W        W 8247   7.363  44.774   4.300
44304W        W 8248  26.598   4.780   1.282
44305W        W 8249   1.434  24.555   0.745
44306W        W 8250  44.926  23.598  14.022
44307W        W 8251   1.813  40.403  14.865
44308W        W 8252  10.181  12.721  12.418
44309W        W 8253  31.996  36.468  14.768
44310W        W 8254  37.039  10.798  11.469
44311W        W 8255  11.730   9.180   3.770
44312W        W 8256   6.789  31.013  14.005
44313W        W 8257   5.837  29.137  14.392
44314W        W 8258  31.909   8.819   2.751
44315W        W 8259   2.737  16.302   2.379
44316W        W 8260  20.577   6.743   0.779
44317W        W 8261  29.597  12.302  13.397
44318W        W 8262  14.112  19.132   4.117
44319W        W 8263  24.125  23.708  12.001
44320W        W 8264   1.348  40.324   0.761
44321W        W 8265  43.882   9.351  10.516
44322W        W 8266  30.498   9.795  10.540
44323W        W 8267  23.985   0.386  10.419
44324W        W 8268  33.982  38.951   0.809
44325W        W 8269  27.570  26.617   0.854
44326W        W 8270  25.012  30.565   1.404
44327W        W 8271  13.241  37.981  14.973
44328W        W 8272  30.511  27.604   4.294
44329W        W 8273   3.772  14.157   0.290
44330W        W 8274  22.560  19.615   0.307
44331W        W 8275  43.328  15.639   3.240
44332W        W 8276  36.524  29.638  11.985
44333W        W 8277  38.406  29.631  13.882
44334W        W 8278  22.218  20.643  11.404
44335W        W 8279  29.010  17.139  13.442
44336W        W 8280   1.476  19.068  11.002
44337W        W 8281  17.187  32.086   0.890
44338W        W 8282  11.643  39.442   0.406
44339W        W 8283  24.120  43.883  11.922
44340W        W 8284  16.113  17.635   2.410
44341W        W 8285  33.008  29.173  12.546
44342W        W 8286  39.939  29.446  13.937
44343W        W 8287  28.669  26.061  11.989
44344W        W 8288  36.484   8.842   1.227
44345W        W 8289  32.037  39.851   0.328
44346W        W 8290  38.379  38.388   1.756
44347W        W 8291  19.577  39.445   4.212
44348W        W 8292  34.615  30.028  10.644
44349W        W 8293  12.116  33.999  11.607
44350W        W 8294  43.328  24.079  12.861
44351W        W 8295   7.397   9.359   4.727
44352W        W 8296   3.715  41.328   2.854
44353W        W 8297  13.704  16.730  11.042
44354W        W 8298  39.339  39.506   4.764
44355W        W 8299  20.726  27.071   3.861
44356W        W 8300  26.078  20.557  11.556
44357W        W 8301  39.929   6.217  12.902
44358W        W 8302  31.508  25.485   3.815
44359W        W 8303  37.370  10.215  10.558
44360W        W 8304  24.642  19.715   0.443
44361W        W 8305  17.681   5.713   0.735
44362W        W 8306  32.093  41.520  14.510
44363W        W 8307  15.172  39.429   2.244
44364W        W 8308  18.238  33.395   1.260
44365W        W 8309  16.643   4.842  12.929
44366W        W 8310   4.935  12.849  13.519
44367W        W 8311   0.925  34.404   1.414
44368W        W 8312  27.621  30.911  12.882
44369W        W 8313   2.933  11.330   3.737
44370W        W 8314  31.565  36.886  11.053
44371W        W 8315  41.945  18.567  14.405
44372W        W 8316  40.470   7.744  13.975
44373W        W 8317  20.711  11.368   3.812
44374W        W 8318  11.745  22.693   2.301
44375W        W 8319  13.601   1.325   1.438
44376W        W 8320  34.597  30.577  12.068
44377W        W 8321  29.529  24.509  12.080
44378W        W 8322  11.329  12.650   1.300
44379W        W 8323  30.022   3.444   0.456
44380W        W 8324  22.578   6.901  10.943
44381W        W 8325  27.679  27.174  10.929
44382W        W 8326  24.707  42.930  12.933
44383W        W 8327  39.883  39.558  10.570
44384W        W 8328  10.315  15.320   4.206
44385W        W 8329  15.815  22.647  12.975
44386W        W 8330  16.774  34.590   2.833
44387W        W 8331   8.666   0.425  14.762
44388W        W 8332  18.268  32.475   1.701
44389W        W 8333  22.695  31.984  12.514
44390W        W 8334   7.251  18.572  13.373
44391W        W 8335  42.414   5.832   3.725
44392W        W 8336  39.525   9.219   3.666
44393W        W 8337  39.953  41.900  11.125
44394W        W 8338   4.364  29.658   1.235
44395W        W 8339   4.867  33.022   0.740
44396W        W 8340  26.616  44.339   4.229
44397W        W 8341  26.657  12.313   2.245
44398W        W 8342   1.937  39.468  14.412
44399W        W 8343   0.368  27.553  11.076
44400W        W 8344  36.442  12.183  11.068
44401W        W 8345  33.129  32.403   3.198
44402W        W 8346  10.870   2.944   2.391
44403W        W 8347  11.166  17.259   2.751
44404W        W 8348  21.543  41.389  14.874
44405W        W 8349  24.525   8.293   2.373
44406W        W 8350  39.492   6.189   5.238
44407W        W 8351  20.145  22.027   1.893
44408W        W 8352  32.965  24.040   2.192
44409W        W 8353  29.142  41.459   1.226
44410W        W 8354  36.413  20.161  13.325
44411W        W 8355   9.743   9.730   0.448
44412W        W 8356  31.539   6.377  14.349
44413W        W 8357  37.537  37.859  12.963
44414W        W 8358  23.720  27.639   4.655
44415W        W 8359   5.424   3.293  13.793
44416W        W 8360  32.966  12.834  11.040
44417W        W 8361  43.008  36.526   2.398
44418W        W 8362   9.777   9.846  10.983
44419W        W 8363  40.050  40.931  14.382
44420W        W 8364   5.254  21.216  10.428
44421W        W 8365  25.178  15.245  10.468
44422W        W 8366  33.114  17.746   1.395
44423W        W 8367  22.136   9.789  12.504
44424W        W 8368   2.415  37.003  13.497
44425W        W 8369   2.359  35.856  11.492
44426W        W 8370  31.094  35.510   3.243
44427W        W 8371  23.102  24.503   4.141
44428W        W 8372  32.535  23.714   4.786
44429W        W 8373  33.073  12.129  14.812
44430W        W 8374   5.889  26.631  11.557
44431W        W 8375   3.936   6.364   0.467
44432W        W 8376  28.084  15.599   5.620
44433W        W 8377   5.758  26.196   3.669
44434W        W 8378   5.347  15.284  12.405
44435W        W 8379   2.321  24.512  11.099
44436W        W 8380  44.284  42.517   4.205
44437W        W 8381   6.404  35.002   4.774
44438W        W 8382  37.988  32.405   4.804
44439W        W 8383  12.663  20.619   2.828
44440W        W 8384  30.930  10.636   1.877
44441W        W 8385  20.628   7.698  14.451
44442W        W 8386   2.808  21.580   0.261
44443W        W 8387   4.866  26.685  13.952
44444W        W 8388  38.433  18.214   1.435
44445W        W 8389   0.311  21.021   0.854
44446W        W 8390  29.451  23.602  11.573
44447W        W 8391  13.131  40.342   0.842
44448W        W 8392  43.484  29.076   3.682
44449W        W 8393  18.158   8.291  13.947
44450W        W 8394  41.496  27.162  12.378
44451W        W 8395  38.899  14.709   4.729
44452W        W 8396   1.929  16.132  14.759
44453W        W 8397  22.077  25.691   3.257
44454W        W 8398   6.723   8.231   1.847
44455W        W 8399  28.054   7.747  14.852
44456W        W 8400  32.570  18.154   3.780
44457W        W 8401  12.634  35.898   1.408
44458W        W 8402  21.748  30.943  14.335
44459W        W 8403  35.911  23.668   1.295
44460W        W 8404  16.208  25.131  14.339
44461W        W 8405  22.642  35.405  13.796
44462W        W 8406   5.844  18.143  14.944
44463W        W 8407  39.320  29.581   2.373
44464W        W 8408  27.088  14.804  10.998
44465W        W 8409  11.278  39.820  12.527
44466W        W 8410  22.506  13.767  10.588
44467W        W 8411  30.039  33.108  11.986
44468W        W 8412   1.268  10.838  13.359
44469W        W 8413   1.889  43.994   2.861
44470W        W 8414  11.822  37.520   1.303
44471W        W 8415   2.250  32.131   0.327
44472W        W 8416  29.162  40.846  14.917
44473W        W 8417   3.785  13.146   0.886
44474W        W 8418  20.270  23.728  11.544
44475W        W 8419  14.699   5.729   0.349
44476W        W 8420  16.204  26.496   1.790
44477W        W 8421   5.718   1.745  13.835
44478W        W 8422  19.576  30.417  13.430
44479W        W 8423  27.661  13.644   3.150
44480W        W 8424  36.002  35.869   1.424
44481W        W 8425   1.828  42.890   1.767
44482W        W 8426   4.798  15.592  11.522
44483W        W 8427  37.966  15.722   0.467
44484W        W 8428  21.189  29.064   0.253
44485W        W 8429   5.425  32.412   0.952
44486W        W 8430  34.434   9.778  14.403
44487W        W 8431   6.240  26.019  13.972
44488W        W 8432  36.587  14.803   0.383
44489W        W 8433  39.831  30.413  11.856
44490W        W 8434  14.680  23.589  14.389
44491W        W 8435   3.237  10.727   4.115
44492W        W 8436  20.731  13.112  12.949
44493W        W 8437  15.606  27.590   2.284
44494W        W 8438   9.337  40.549  14.911
44495W        W 8439  34.118  30.628  14.978
44496W        W 8440  27.989   2.757   1.446
44497W        W 8441   5.275  18.684   2.875
44498W        W 8442  16.772  30.066  13.948
44499W        W 8443  10.655  28.973  12.576
44500W        W 8444  44.754  32.548  11.890
44501W        W 8445   2.965  17.716  12.078
44502W        W 8446  12.244  14.834  11.576
44503W        W 8447  13.742   8.186  13.854
44504W        W 8448  10.385  23.563  11.442
44505W        W 8449  26.082  23.000  11.448
44506W        W 8450  44.435  34.012   4.672
44507W        W 8451  40.048  19.236  14.467
44508W        W 8452  24.585  40.950  13.444
44509W        W 8453  23.706   1.258   1.757
44510W        W 8454  26.085  14.736   0.348
44511W        W 8455  29.172   2.746  10.927
44512W        W 8456  26.104   6.693  10.615
44513W        W 8457   8.227  38.011   2.357
44514W        W 8458  18.062   1.449  11.486
44515W        W 8459   2.361  33.382  10.447
44516W        W 8460   2.818  34.408  13.518
44517W        W 8461  10.671   3.402   2.681
44518W        W 8462   8.757  41.459   1.333
44519W        W 8463  16.172  22.235   4.273
44520W        W 8464  36.009   5.915  12.864
44521W        W 8465  29.157  31.647  12.020
44522W        W 8466  37.905  40.457  13.410
44523W        W 8467  37.581  35.911   0.809
44524W        W 8468  29.504  32.115  10.448
44525W        W 8469  29.153  13.323  11.906
44526W        W 8470  36.456   1.316  10.427
44527W        W 8471  43.511   6.840   0.842
44528W        W 8472  20.531  32.137   3.371
44529W        W 8473  44.352  24.544  13.834
44530W        W 8474  34.609   3.723   0.771
44531W        W 8475  25.686   6.907  12.916
44532W        W 8476  10.870  17.159   0.817
44533W        W 8477  14.731  39.061  10.608
44534W        W 8478  39.889   0.755  11.969
44535W        W 8479   5.710   4.213   1.225
44536W        W 8480   4.775   9.302   0.354
44537W        W 8481  29.653   0.785   1.875
44538W        W 8482  11.693  35.030   5.134
44539W        W 8483  34.958  25.579   1.723
44540W        W 8484  11.202   7.289   2.341
44541W        W 8485  23.574  38.372   1.934
44542W        W 8486  43.393  26.500  11.860
44543W        W 8487   2.346  28.059  14.355
44544W        W 8488  18.698  37.573   0.959
44545W        W 8489  34.984  14.278   4.674
44546W        W 8490  34.012  10.701   2.361
44547W        W 8491  36.501  38.437  13.364
44548W        W 8492  42.998  20.139   5.147
44549W        W 8493  13.319   3.720  14.021
44550W        W 8494  23.736  35.375   0.906
44551W        W 8495   1.331  12.836   4.278
44552W        W 8496  21.076  17.228   5.205
44553W        W 8497  39.317   1.885   4.238
44554W        W 8498  12.761   6.887  12.937
44555W        W 8499  41.803  12.621  10.889
44556W        W 8500   2.843  13.737   1.447
44557W        W 8501  18.067   6.848   4.255
44558W        W 8502  22.128  23.670   0.362
44559W        W 8503   9.331  11.139   4.704
44560W        W 8504   7.899  11.808  11.474
44561W        W 8505  12.739  32.081   1.292
44562W        W 8506   8.884  15.794  13.825
44563W        W 8507  15.280  10.172   4.268
44564W        W 8508  19.558   0.897  14.513
44565W        W 8509  27.973  41.314   4.664
44566W        W 8510   6.268  28.601  12.542
44567W        W 8511  24.634  37.497   4.254
44568W        W 8512   2.327   0.886   2.289
44569W        W 8513  43.430  26.490   2.258
44570W        W 8514  13.684   4.770  14.351
44571W        W 8515   0.926  39.056  13.440
44572W        W 8516  10.155   1.930  13.426
44573W        W 8517   2.429  28.126   1.729
44574W        W 8518   6.689  15.773   4.159
44575W        W 8519  23.662   6.242  13.332
44576W        W 8520  37.560  20.099   3.813
44577W        W 8521  37.048  44.005  11.012
44578W        W 8522  26.015  35.604  13.334
44579W        W 8523  36.858  14.678   2.376
44580W        W 8524  41.038   2.722   2.698
44581W        W 8525  33.881  40.367   3.835
44582W        W 8526  32.904  22.710   1.752
44583W        W 8527  24.016  38.425  10.573
44584W        W 8528  33.903  30.640  14.409
44585W        W 8529   9.861  37.979  12.409
44586W        W 8530  18.152  44.852   2.215
44587W        W 8531  22.683  35.496   2.360
44588W        W 8532   3.420  37.005   1.342
44589W        W 8533   3.756   6.879  13.017
44590W        W 8534  18.186  36.446  10.924
44591W        W 8535  15.272  31.577   5.322
44592W        W 8536   4.860  44.360   4.291
44593W        W 8537   0.797  26.620  14.960
44594W        W 8538  34.060   1.834   2.294
44595W        W 8539  24.998  14.166  13.900
44596W        W 8540  27.109  13.622   4.667
44597W        W 8541  21.536  15.299  12.096
44598W        W 8542  30.994  31.032   1.446
44599W        W 8543  29.577   9.331   1.324
44600W        W 8544  28.050   8.850   2.248
44601W        W 8545  42.334  22.110   4.676
44602W        W 8546  37.348  43.860  12.443
44603W        W 8547  38.525  41.490  10.482
44604W        W 8548  24.509  28.636  14.896
44605W        W 8549  13.316  11.237   4.131
44606W        W 8550  44.898  42.315  10.524
44607W        W 8551  36.395  13.736  10.643
44608W        W 8552  42.491   5.793  13.405
44609W        W 8553  43.351  11.823  12.967
44610W        W 8554   0.971  24.006  12.972
44611W        W 8555  41.371  17.594   3.204
44612W        W 8556  19.120   4.763   1.750
44613W        W 8557  14.231  37.410  13.340
44614W        W 8558  33.600  15.643  10.494
44615W        W 8559  43.849   3.350  14.394
44616W        W 8560  42.871   4.236  13.000
44617W        W 8561   9.838  36.526   3.775
44618W        W 8562  37.534  36.513  13.501
44619W        W 8563  12.806   9.163  10.438
44620W        W 8564  33.066   3.795  13.815
44621W        W 8565   6.832  27.564   0.784
44622W        W 8566  22.045  17.078  11.058
44623W        W 8567   8.875  21.670  11.475
44624W        W 8568  20.252  25.634  11.995
44625W        W 8569   8.280   3.326  13.326
44626W        W 8570   6.788  14.105   0.371
44627W        W 8571  41.492  44.884  12.037
44628W        W 8572   3.838   0.256   4.733
44629W        W 8573   5.899  15.622   0.361
44630W        W 8574   9.777  31.902   5.285
44631W        W 8575  27.147  12.192  12.988
44632W        W 8576  10.182  13.241   5.184
44633W        W 8577  15.633  24.614  10.438
44634W        W 8578  13.155  43.357  12.019
44635W        W 8579  41.370  32.080   0.254
44636W        W 8580  24.722  43.446   1.857
44637W        W 8581  39.338  24.513   4.124
44638W        W 8582  32.635  23.242  12.960
44639W        W 8583  11.627  12.635  10.482
44640W        W 8584  29.628  17.135  13.501
44641W        W 8585  24.173   0.782  11.598
44642W        W 8586  44.284  22.664   1.388
44643W        W 8587   4.387  31.126  11.518
44644W        W 8588  39.404   9.156  13.921
44645W        W 8589  32.624  39.828   4.178
44646W        W 8590  39.937   1.914  13.447
44647W        W 8591  17.623  25.194   1.713
44648W        W 8592  23.154   0.301  14.936
44649W        W 8593  30.017  43.776   0.291
44650W        W 8594  29.623   0.483   4.703
44651W        W 8595  34.001  38.442  14.415
44652W        W 8596  34.094  29.031   1.293
44653W        W 8597   8.661  22.038  13.378
44654W        W 8598  21.261   7.800   1.894
44655W        W 8599   0.936  10.352  10.576
44656W        W 8600  22.694   4.271  14.982
44657W        W 8601  24.186  28.538  14.785
44658W        W 8602  18.754  33.425   1.211
44659W        W 8603  36.917  40.009  10.946
44660W        W 8604  35.472   2.767   4.148
44661W        W 8605   7.335  14.803  11.955
44662W        W 8606  37.999  30.415  11.048
44663W        W 8607  11.630  15.617  11.904
44664W        W 8608  37.414  37.917   4.689
44665W        W 8609   0.892  19.259  11.034
44666W        W 8610   9.197  29.999   3.788
44667W        W 8611  18.087  26.128  12.878
44668W        W 8612   8.358  35.969  14.371
44669W        W 8613  39.985   6.798  12.343
44670W        W 8614  29.633  34.474  13.979
44671W        W 8615  31.927  28.101   3.857
44672W        W 8616  16.587  11.255   2.337
44673W        W 8617  30.437  41.420   4.622
44674W        W 8618  31.143  37.464  10.142
44675W        W 8619  26.966  12.825   1.391
44676W        W 8620  25.218  37.421   3.158
44677W        W 8621  25.151   3.342  12.471
44678W        W 8622  26.071   2.464   3.719
44679W        W 8623   1.259  24.051   4.158
44680W        W 8624  43.480   3.936  13.044
44681W        W 8625  20.566  18.734   4.610
44682W        W 8626  37.340  37.033  14.777
44683W        W 8627  12.618  18.164   0.460
44684W        W 8628   5.420  43.798  13.053
44685W        W 8629  44.317   6.212   2.746
44686W        W 8630   3.438  31.923   1.258
44687W        W 8631  22.500  30.416   3.782
44688W        W 8632   0.333   0.451  12.364
44689W        W 8633   4.900  20.143   2.288
44690W        W 8634   0.986  12.619   3.162
44691W        W 8635  32.041  37.402   2.878
44692W        W 8636  20.585   2.813  11.481
44693W        W 8637  42.925  29.053  12.385
44694W        W 8638   5.803   2.286  14.458
44695W        W 8639   3.714  13.638  13.897
44696W        W 8640  35.092   0.335  12.050
44697W        W 8641  30.098  36.869  13.371
44698W        W 8642  28.123  10.263   4.810
44699W        W 8643  12.701  38.435  12.047
44700W        W 8644   5.327  31.903   2.813
44701W        W 8645  30.614   3.404  14.797
44702W        W 8646  16.193   9.859  12.578
44703W        W 8647  31.924   3.732   4.119
44704W        W 8648  31.482  29.163  14.412
44705W        W 8649  33.487  15.165   0.733
44706W        W 8650  33.928   1.431   3.228
44707W        W 8651  33.608  23.603  13.060
44708W        W 8652  41.466  17.166   2.816
44709W        W 8653   5.860  17.232  12.990
44710W        W 8654  15.174  19.630  10.463
44711W        W 8655  28.556  29.166   2.223
44712W        W 8656  15.211  23.236  10.088
44713W        W 8657  11.712  27.545   4.763
44714W        W 8658  26.488  14.195   3.632
44715W        W 8659  22.068  26.103   1.723
44716W        W 8660   8.254  16.316   3.342
44717W        W 8661  19.588  15.190   3.257
44718W        W 8662   4.204  20.116   4.713
44719W        W 8663  13.206   8.893   2.859
44720W        W 8664  13.812  39.421   4.658
44721W        W 8665  13.277  17.768   2.861
44722W        W 8666  43.868  40.415   1.384
44723W        W 8667  15.116  12.668  13.463
44724W        W 8668  36.046  36.949   1.930
44725W        W 8669  42.998  26.594   2.885
44726W        W 8670  41.392  33.380  12.429
44727W        W 8671   7.904  13.290   3.703
44728W        W 8672  30.483   2.234  10.995
44729W        W 8673  12.691  40.406  12.032
44730W        W 8674  29.491  14.679  10.038
44731W        W 8675  10.317  25.174   4.617
44732W        W 8676   1.403  42.787   3.308
44733W        W 8677  36.356  11.755  11.044
44734W        W 8678  31.599  10.365   1.933
44735W        W 8679   6.361  23.564  14.012
44736W        W 8680  10.664  38.347  13.430
44737W        W 8681  32.018   5.296  11.533
44738W        W 8682   1.833   0.263   3.350
44739W        W 8683  34.935  27.679  11.374
44740W        W 8684   4.827  12.215  13.881
44741W        W 8685  44.307  19.102  10.954
44742W        W 8686  42.016  27.976  11.970
44743W        W 8687  25.988   2.330   1.784
44744W        W 8688  42.502  39.036   4.309
44745W        W 8689   0.400   2.466   4.717
44746W        W 8690  23.192  40.426   1.925
44747W        W 8691  12.238  43.366  14.834
44748W        W 8692  32.404  14.777   4.305
44749W        W 8693  25.644  22.709   4.173
44750W        W 8694  10.247  37.471   2.773
44751W        W 8695   0.331  15.785  12.417
44752W        W 8696  30.077  11.212   3.758
44753W        W 8697  25.553  21.654  11.034
44754W        W 8698  15.598  44.990  10.571
44755W        W 8699  28.519  19.754  10.533
44756W        W 8700   9.351   6.216  12.541
44757W        W 8701  36.414  32.494  12.455
44758W        W 8702  39.945   7.710   2.401
44759W        W 8703  38.477  24.048   1.334
44760W        W 8704  22.511  36.008   5.099
44761W        W 8705  32.928  34.885   3.179
44762W        W 8706   6.760  18.577   1.245
44763W        W 8707  39.005  25.054   3.198
44764W        W 8708  23.721  34.059   3.337
44765W        W 8709  10.214  41.528  14.781
44766W        W 8710  20.705  23.216  12.580
44767W        W 8711  18.703  31.520  12.358
44768W        W 8712  29.034  24.608  10.953
44769W        W 8713   5.876  12.238   1.876
44770W        W 8714  26.596  38.447   2.341
44771W        W 8715  25.018  27.049   3.687
44772W        W 8716  39.891  23.152   1.695
44773W        W 8717   9.768  22.697   0.944
44774W        W 8718   5.844  10.164  13.310
44775W        W 8719  18.729  25.668   1.905
44776W        W 8720   5.805  31.137  11.084
44777W        W 8721  26.669  13.324   5.248
44778W        W 8722  34.923  13.184  12.066
44779W        W 8723  26.008   7.341   4.250
44780W        W 8724  16.236  17.265   3.147
44781W        W 8725  27.681   4.354  14.865
44782W        W 8726   0.858  19.693  10.422
44783W        W 8727   6.804  24.636   3.745
44784W        W 8728  12.650   2.804   4.670
44785W        W 8729  14.755  26.669  14.032
44786W        W 8730   3.352   5.324   4.248
44787W        W 8731  23.200  42.299  12.575
44788W        W 8732   6.818   5.196   3.843
44789W        W 8733   9.807  41.016   1.376
44790W        W 8734  44.280  44.472   3.245
44791W        W 8735   5.837   6.897  11.576
44792W        W 8736   8.263  39.861  14.802
44793W        W 8737   6.340  44.486  13.382
44794W        W 8738  18.711  35.580   2.786
44795W        W 8739  23.081  37.536  13.838
44796W        W 8740  13.686   2.865   4.669
44797W        W 8741  10.279  15.267  13.408
44798W        W 8742   0.378   7.244  10.070
44799W        W 8743  43.501  30.918   2.274
44800W        W 8744  42.512  41.408   4.187
44801W        W 8745  23.522  29.012   4.711
44802W        W 8746  36.446  39.343   0.827
44803W        W 8747  23.726  29.993   0.868
44804W        W 8748   7.262  14.285  14.870
44805W        W 8749  12.195  39.464   2.245
44806W        W 8750  35.015   9.781  14.342
44807W        W 8751  32.063   5.776   4.612
44808W        W 8752  31.120  14.832  12.834
44809W        W 8753   7.761  26.971   3.226
44810W        W 8754  44.896  23.551  12.860
44811W        W 8755  31.516  16.315  10.496
44812W        W 8756   6.371  12.311  12.940
44813W        W 8757  17.563   2.746  11.906
44814W        W 8758  40.477   2.239  12.469
44815W        W 8759   1.383  28.625  11.868
44816W        W 8760   9.673  24.723  11.505
44817W        W 8761  25.612   4.793   1.935
44818W        W 8762   3.932   8.826   4.628
44819W        W 8763  41.906  24.071  13.868
44820W        W 8764  30.513  32.475   0.801
44821W        W 8765  37.968  14.270   1.780
44822W        W 8766  25.039  32.119   4.336
44823W        W 8767  20.213  25.615  10.939
44824W        W 8768  14.306   6.918  11.372
44825W        W 8769  32.423  27.497  11.872
44826W        W 8770  13.339  17.252  12.840
44827W        W 8771   1.422  44.298  10.942
44828W        W 8772   7.800  25.060  10.988
44829W        W 8773  11.724  14.139   0.894
44830W        W 8774  11.852  29.068  12.432
44831W        W 8775  12.643   8.793   3.225
44832W        W 8776  14.296  11.668   2.194
44833W        W 8777  41.443  21.248  12.033
44834W        W 8778   6.895  35.869  13.033
44835W        W 8779  24.142  25.022   2.366
44836W        W 8780   4.816  29.148  10.914
44837W        W 8781  10.661   5.282   0.920
44838W        W 8782  41.526  41.973   3.180
44839W        W 8783  26.163  34.038   1.929
44840W        W 8784  40.477  33.480   4.774
44841W        W 8785  11.166  33.612   2.736
44842W        W 8786   7.743  11.775  14.336
44843W        W 8787  37.936  42.010  10.544
44844W        W 8788  36.381  24.051   4.788
44845W        W 8789   4.843  33.544  10.967
44846W        W 8790  38.332  15.677  12.448
44847W        W 8791  30.936  41.485  13.450
44848W        W 8792  24.634   8.718  12.507
44849W        W 8793  33.934  41.392   0.844
44850W        W 8794   2.791  14.097   0.737
44851W        W 8795  34.490   3.724  13.019
44852W        W 8796   3.906  10.153   2.860
44853W        W 8797   7.771  13.723   1.256
44854W        W 8798   8.235  19.629   3.292
44855W        W 8799  15.144   5.769   2.856
44856W        W 8800  31.017  34.875  11.035
44857W        W 8801  33.888   7.822  10.941
44858W        W 8802  17.586  11.726   3.322
44859W        W 8803  32.930  19.271   1.878
44860W        W 8804  10.191  30.629  14.898
44861W        W 8805  18.173  10.711   0.773
44862W        W 8806  24.083  20.638   3.244
44863W        W 8807  36.388  11.239   2.851
44864W        W 8808  25.104  34.956  11.562
44865W        W 8809  43.317   3.935  10.603
44866W        W 8810  18.186  10.314  14.497
44867W        W 8811  24.108   3.945  12.573
44868W        W 8812  27.574  12.360  12.422
44869W        W 8813  31.073  12.179  14.999
44870W        W 8814  20.533  18.245  13.323
44871W        W 8815  36.039  10.249  11.897
44872W        W 8816  19.744  36.064   4.164
44873W        W 8817  39.826   7.740  13.978
44874W        W 8818  20.116  14.595   3.835
44875W        W 8819  17.616  33.955   0.284
44876W        W 8820  23.719  38.895  13.013
44877W        W 8821  34.117  26.519  14.875
44878W        W 8822  33.483   9.843   2.811
44879W        W 8823  30.924  33.389   9.981
44880W        W 8824  17.226  28.167  10.529
44881W        W 8825   0.474  18.235   1.770
44882W        W 8826   3.783  33.406  13.997
44883W        W 8827  13.604  34.878  14.417
44884W        W 8828   4.858   8.747   4.236
44885W        W 8829  20.692  22.561  10.936
44886W        W 8830  18.150  12.630   3.829
44887W        W 8831  14.097   7.753  14.019
44888W        W 8832  13.107  11.331   0.367
44889W        W 8833  20.759   2.261   0.253
44890W        W 8834  29.474  27.615   4.654
44891W        W 8835  23.022   6.694  14.888
44892W        W 8836  39.325  19.146  13.798
44893W        W 8837  20.558  38.355  12.939
44894W        W 8838  17.138  44.285  14.314
44895W        W 8839  32.462  23.022   1.931
44896W        W 8840  35.989   1.740  10.423
44897W        W 8841   4.328  38.360  14.820
44898W        W 8842  18.074  20.659   0.249
44899W        W 8843   9.690  24.031   2.242
44900W        W 8844  21.646   4.290   1.374
44901W        W 8845  38.543   6.226  11.043
44902W        W 8846   2.306  31.944  13.918
44903W        W 8847  43.995  29.022  12.574
44904W        W 8848  37.543  36.569   3.206
44905W        W 8849  22.031  23.083   4.790
44906W        W 8850  25.095   8.861  13.366
44907W        W 8851  22.672  14.301  10.549
44908W        W 8852  24.169  30.585   4.283
44909W        W 8853  29.061  10.307   2.396
44910W        W 8854  22.609  37.436   4.156
44911W        W 8855  33.537  30.109  10.505
44912W        W 8856   9.366   3.303   1.427
44913W        W 8857  40.499  23.546   1.317
44914W        W 8858  21.623  12.670  12.507
44915W        W 8859   6.271   9.204  14.012
44916W        W 8860   0.311  19.716  12.533
44917W        W 8861   5.302  38.399  10.475
44918W        W 8862  39.008  24.685   4.120
44919W        W 8863  38.358  43.431  14.023
44920W        W 8864   6.800  39.852  13.498
44921W        W 8865   2.849   9.774  10.556
44922W        W 8866   6.270  41.964  10.619
44923W        W 8867  44.378  37.544   2.376
44924W        W 8868  22.572  33.087  12.979
44925W        W 8869  41.474  28.991  12.407
44926W        W 8870  39.818  37.067   2.409
44927W        W 8871  38.469  41.836  12.961
44928W        W 8872  43.385  24.538   0.354
44929W        W 8873  12.241  37.944   2.723
44930W        W 8874  30.413  42.478   3.376
44931W        W 8875  19.178  14.795  13.951
44932W        W 8876  36.057  21.198   0.432
44933W        W 8877  18.205  17.646  12.559
44934W        W 8878  17.178   4.786   0.833
44935W        W 8879  26.592  32.980  14.017
44936W        W 8880   1.431   6.224   3.667
44937W        W 8881  10.279  18.672  10.623
44938W        W 8882  44.962  38.841   0.886
44939W        W 8883  14.630   3.327  12.464
44940W        W 8884  23.109   2.327  11.065
44941W        W 8885   4.792  12.664  11.482
44942W        W 8886  26.034   4.859   1.931
44943W        W 8887  43.374  24.143  11.466
44944W        W 8888  35.430  41.476   1.420
44945W        W 8889  24.619  32.534  14.322
44946W        W 8890   6.419  41.853   2.211
44947W        W 8891   0.412  43.459  10.418
44948W        W 8892  26.565  16.599  13.850
44949W        W 8893   8.197   6.798  14.351
44950W        W 8894  42.878  35.928  12.864
44951W        W 8895  22.716  25.033  11.070
44952W        W 8896   0.832  15.748   3.325
44953W        W 8897  40.831  29.949   4.818
44954W        W 8898   8.889  12.213   3.358
44955W        W 8899   0.372  21.569   0.802
44956W        W 8900   8.897  25.098   3.205
44957W        W 8901  32.549  17.711  10.465
44958W        W 8902  37.440  33.013   3.767
44959W        W 8903  15.151   3.290   4.301
44960W        W 8904   2.768   2.251  11.063
44961W        W 8905  44.757   5.863   1.783
44962W        W 8906  34.464  12.744   4.246
44963W        W 8907  23.658   4.703   4.160
44964W        W 8908   3.840  16.137   4.207
44965W        W 8909  33.592  24.987  13.984
44966W        W 8910   7.748   0.421  13.861
44967W        W 8911  41.966   6.900  14.926
44968W        W 8912   7.703  39.004  14.942
44969W        W 8913  23.510  15.201   4.116
44970W        W 8914  41.404  40.526  13.360
44971W        W 8915  11.840   9.261  10.559
44972W        W 8916  23.016  11.148   1.760
44973W        W 8917  19.150  11.177  14.353
44974W        W 8918  22.507  34.418   2.713
44975W        W 8919  13.673  31.540  14.476
44976W        W 8920  28.485  24.137  13.396
44977W        W 8921   3.269  10.720   1.712
44978W        W 8922  13.194  19.041  10.410
44979W        W 8923  41.876  16.275  14.404
44980W        W 8924   7.178   6.919   4.190
44981W        W 8925   6.879  20.262  14.790
44982W        W 8926  41.378   3.892   2.876
44983W        W 8927  24.722   1.466   4.684
44984W        W 8928  26.143  37.875  12.553
44985W        W 8929  19.094   4.391  12.518
44986W        W 8930   1.423  38.045   2.372
44987W        W 8931  44.437   5.420  13.892
44988W        W 8932  38.412  36.887   0.893
44989W        W 8933  32.465  32.046   4.155
44990W        W 8934  18.757  21.722  10.631
44991W        W 8935  34.871  13.640  13.317
44992W        W 8936   4.746  40.526  10.492
44993W        W 8937   4.901   1.389   4.639
44994W        W 8938  25.181  10.320  10.617
44995W        W 8939  19.217  30.544  11.015
44996W        W 8940  19.247   9.202  12.483
44997W        W 8941  12.676   9.791  14.935
44998W        W 8942   0.384   2.770   0.782
44999W        W 8943  15.748  33.900  11.512
45000W        W 8944  39.935  27.188   4.783
45001W        W 8945  17.241  44.356   2.414
45002W        W 8946  39.929  41.806   1.283
45003W        W 8947  37.540  22.044  13.547
45004W        W 8948   7.803  24.540  13.420
45005W        W 8949  30.527  21.638   0.819
45006W        W 8950  36.920   8.347  14.286
45007W        W 8951  35.013  34.053   3.343
45008W        W 8952   2.267  25.146  10.500
45009W        W 8953   1.374  23.241  11.952
45010W        W 8954  12.737   9.875   2.340
45011W        W 8955  23.137  12.704  13.806
45012W        W 8956  18.769  36.098  13.030
45013W        W 8957  42.952   8.283  10.559
45014W        W 8958  16.689  12.301   1.446
45015W        W 8959  24.572   1.781   0.930
45016W        W 8960  19.202   8.767   1.365
45017W        W 8961  23.144  32.049   4.815
45018W        W 8962  31.085  15.675  13.514
45019W        W 8963   1.417  43.331  13.351
45020W        W 8964  26.555  10.750   4.810
45021W        W 8965  22.209  28.078   0.802
45022W        W 8966  17.603  24.984   0.458
45023W        W 8967  37.580  26.474  11.007
45024W        W 8968   5.780  35.059  11.978
45025W        W 8969  31.958  30.445   4.276
45026W        W 8970  10.868  35.518   3.701
45027W        W 8971  13.187  43.275  14.456
45028W        W 8972   7.753  42.476   1.255
45029W        W 8973   7.280  17.166   4.188
45030W        W 8974  29.608   9.385   4.200
45031W        W 8975  37.870   6.904   3.255
45032W        W 8976  42.017   3.851  11.016
45033W        W 8977  15.711  41.412   2.399
45034W        W 8978  23.525  43.490   2.222
45035W        W 8979  32.064   0.769   4.170
45036W        W 8980  37.891  41.404   3.212
45037W        W 8981  23.054  11.178   3.198
45038W        W 8982  19.070  13.816  14.927
45039W        W 8983  40.513  42.880  14.813
45040W        W 8984   7.681  36.887  12.500
45041W        W 8985  24.504  28.183  11.432
45042W        W 8986  23.997  15.745  10.501
45043W        W 8987   4.859  39.055  11.493
45044W        W 8988  34.023   9.780  12.528
45045W        W 8989  15.287  30.071  11.429
45046W        W 8990   9.378  33.460   4.769
45047W        W 8991  20.603  25.516   1.284
45048W        W 8992  33.095  33.912   3.352
45049W        W 8993  29.958  25.100  11.969
45050W        W 8994   4.927  37.572  13.808
45051W        W 8995   1.867  43.946   2.383
45052W        W 8996   6.380  40.988   3.673
45053W        W 8997  26.004  11.370  12.019
45054W        W 8998  17.205  32.034  12.964
45055W        W 8999  28.177  19.110  13.003
45056W        W 9000  34.455  43.442   2.800
45057W        W 9001   2.721   6.891   4.284
45058W        W 9002  19.125   0.343   3.838
45059W        W 9003   3.340   3.778  14.994
45060W        W 9004  25.538  18.114  11.450
45061W        W 9005  21.712  15.195  11.385
45062W        W 9006  10.219  30.949  14.929
45063W        W 9007  18.164   9.271   1.353
45064W        W 9008  30.983  37.403   4.289
45065W        W 9009  37.340  10.242  11.454
45066W        W 9010   4.789  41.293   3.663
45067W        W 9011  44.900  10.731   0.251
45068W        W 9012  38.409   5.857  11.913
45069W        W 9013  14.727  40.487  11.497
45070W        W 9014  39.836  26.684   0.333
45071W        W 9015  19.215  37.540   3.716
45072W        W 9016  38.359  33.420   4.218
45073W        W 9017  15.725  44.273   2.666
45074W        W 9018  13.771  13.197   3.147
45075W        W 9019  29.920  31.519   4.791
45076W        W 9020  15.746  15.754  13.834
45077W        W 9021  26.068   7.217  13.445
45078W        W 9022   5.820   7.702   3.290
45079W        W 9023  23.534  11.305   1.800
45080W        W 9024   0.416  10.699   0.839
45081W        W 9025  33.436   1.976   1.890
45082W        W 9026  32.896   5.811   2.256
45083W        W 9027  16.751  38.398   0.262
45084W        W 9028  42.515  20.164   1.721
45085W        W 9029  30.498  35.852  14.946
45086W        W 9030   3.274  28.183   2.355
45087W        W 9031  41.471  29.662  10.926
45088W        W 9032  37.971  11.708  14.947
45089W        W 9033  42.364  14.272  14.834
45090W        W 9034  42.356  32.954   3.285
45091W        W 9035   0.927  19.760   1.439
45092W        W 9036   2.371  12.138  11.047
45093W        W 9037  19.709  31.598   1.414
45094W        W 9038  27.194   0.442  13.545
45095W        W 9039  27.533  13.641   0.478
45096W        W 9040  18.679  27.637   3.260
45097W        W 9041   1.313   3.918   0.248
45098W        W 9042  33.388  40.426   2.291
45099W        W 9043  43.935  16.698   3.698
45100W        W 9044  42.491  41.504  14.480
45101W        W 9045  20.250  37.031  13.512
45102W        W 9046  21.246  12.203   3.308
45103W        W 9047  40.400  36.532   1.210
45104W        W 9048   6.259   6.196   1.898
45105W        W 9049   6.754  31.981   4.720
45106W        W 9050  24.055  44.988  12.527
45107W        W 9051   0.314  15.152   3.642
45108W        W 9052  44.454  33.089  11.073
45109W        W 9053  26.651   7.315  14.417
45110W        W 9054  33.084  19.533  11.014
45111W        W 9055  27.536  25.021  12.499
45112W        W 9056  13.324  12.262  12.040
45113W        W 9057  27.652  34.470  12.987
45114W        W 9058   9.281  35.508   1.857
45115W        W 9059   6.788  42.803  10.973
45116W        W 9060   3.397  14.821   0.353
45117W        W 9061  39.041   9.373   0.416
45118W        W 9062  12.656  44.315  14.945
45119W        W 9063  42.910  10.158  13.488
45120W        W 9064  33.501  43.483   2.187
45121W        W 9065  31.018   6.357  14.387
45122W        W 9066   7.744  36.436   2.880
45123W        W 9067  13.167   4.398   0.481
45124W        W 9068  19.542  32.431  14.980
45125W        W 9069  34.561  42.829  11.863
45126W        W 9070   8.245  21.757  11.048
45127W        W 9071  26.151  26.954   2.737
45128W        W 9072  41.875  18.053  10.547
45129W        W 9073  20.067   0.434   4.219
45130W        W 9074  24.567  43.985  13.801
45131W        W 9075  38.396  19.055   4.751
45132W        W 9076  36.352  19.730  14.364
45133W        W 9077  27.962  26.981  13.512
45134W        W 9078   7.855   8.339   3.182
45135W        W 9079  24.021   2.758   1.214
45136W        W 9080  36.423   6.334  14.438
45137W        W 9081  31.907   1.784  14.860
45138W        W 9082   5.256  31.437  12.069
45139W        W 9083   3.847  32.449   3.681
45140W        W 9084   8.255  33.531   3.229
45141W        W 9085  12.631  21.067   1.446
45142W        W 9086  27.634  40.400  11.548
45143W        W 9087  10.174  11.335  12.967
45144W        W 9088  43.978  17.239   1.861
45145W        W 9089  43.364   0.251   2.320
45146W        W 9090  29.454  33.060  13.928
45147W        W 9091  44.905  29.997   3.785
45148W        W 9092  26.606  28.667   4.181
45149W        W 9093  24.528  28.609   2.244
45150W        W 9094   4.272  31.924   3.650
45151W        W 9095  15.816  40.404  10.644
45152W        W 9096  42.934  40.431  10.428
45153W        W 9097  11.245  27.584  14.876
45154W        W 9098  34.100  36.958   1.332
45155W        W 9099  32.565  14.817  12.858
45156W        W 9100  41.025  40.028  14.862
45157W        W 9101  13.149   6.708   3.156
45158W        W 9102   5.861  39.432  11.961
45159W        W 9103  11.753  36.422  10.422
45160W        W 9104  23.537  22.621  13.447
45161W        W 9105  13.727  10.739  11.048
45162W        W 9106  16.248  20.675  13.032
45163W        W 9107  41.942  10.218   1.235
45164W        W 9108  30.153  14.258   1.318
45165W        W 9109   6.712  21.599  12.859
45166W        W 9110  37.029  38.934   2.709
45167W        W 9111   0.453  40.458   4.180
45168W        W 9112  44.291  43.435   4.690
45169W        W 9113  22.190  14.258  13.370
45170W        W 9114  10.357   9.861   3.332
45171W        W 9115  22.209   6.249  11.064
45172W        W 9116  24.180  14.778   1.263
45173W        W 9117  18.273  32.593   1.306
45174W        W 9118   6.876  17.188  12.914
45175W        W 9119  27.498   1.249   1.326
45176W        W 9120  13.350  43.812   3.797
45177W        W 9121  41.940  42.828  10.408
45178W        W 9122  29.936  39.883   0.955
45179W        W 9123  11.256  11.759   1.379
45180W        W 9124  29.428  20.683  11.973
45181W        W 9125   3.897   9.197  10.436
45182W        W 9126  39.455  14.196  14.428
45183W        W 9127  24.547  41.363  11.009
45184W        W 9128  10.191  11.692  13.544
45185W        W 9129  39.869  37.494   4.799
45186W        W 9130  22.143  43.464  11.423
45187W        W 9131  38.377   8.791   2.342
45188W        W 9132  43.320  25.520   0.849
45189W        W 9133   2.805   1.468  11.898
45190W        W 9134  10.356  41.408   1.730
45191W        W 9135  21.579  17.251  11.981
45192W        W 9136  40.421  33.391   0.346
45193W        W 9137  11.670  41.012  13.920
45194W        W 9138  15.135  25.112   1.312
45195W        W 9139  41.866  41.830  10.980
45196W        W 9140   2.321  31.054   0.398
45197W        W 9141  29.952   1.747   2.252
45198W        W 9142  36.036   2.734  14.997
45199W        W 9143  15.176  28.143   1.819
45200W        W 9144  29.643  18.155   2.320
45201W        W 9145  18.267  10.720  14.464
45202W        W 9146  43.896  12.694  11.564
45203W        W 9147  31.122  44.352  13.526
45204W        W 9148  28.935   4.417  13.971
45205W        W 9149  22.104  34.591   2.299
45206W        W 9150  26.153  12.269  14.367
45207W        W 9151  33.072   5.739  10.534
45208W        W 9152  41.330  35.588   4.601
45209W        W 9153  13.798  40.841  14.928
45210W        W 9154  29.520   4.311   0.450
45211W        W 9155  21.616   4.907  14.796
45212W        W 9156  24.723  27.534   1.912
45213W        W 9157  15.756  16.244   1.759
45214W        W 9158   0.928  13.218  13.512
45215W        W 9159   8.711  27.553   5.269
45216W        W 9160   7.225  11.130  11.860
45217W        W 9161  40.362  32.495  13.331
45218W        W 9162  20.683  38.432  10.895
45219W        W 9163  40.331  35.416  13.312
45220W        W 9164  20.745  43.476   3.226
45221W        W 9165  12.327   4.346   3.255
45222W        W 9166  17.574  15.807   4.193
45223W        W 9167  14.278  35.878   0.275
45224W        W 9168   4.801  23.549  14.414
45225W        W 9169   5.790   5.890   3.305
45226W        W 9170  10.209   1.356  14.009
45227W        W 9171  36.442  30.986  10.590
45228W        W 9172  11.727  22.516  14.962
45229W        W 9173  33.032  41.384  14.486
45230W        W 9174  31.956  32.975  12.850
45231W        W 9175  25.045  19.148  12.418
45232W        W 9176  39.903  37.432  14.967
45233W        W 9177  15.247   8.394  10.509
45234W        W 9178  27.014  38.860  11.395
45235W        W 9179   7.780  35.962   9.947
45236W        W 9180  38.383   6.305   4.800
45237W        W 9181  19.189  29.147   1.763
45238W        W 9182  40.382  43.430   1.897
45239W        W 9183   7.247  43.446   2.233
45240W        W 9184   7.718  25.512   2.328
45241W        W 9185  43.376  43.825   0.944
45242W        W 9186  22.697  22.620  13.503
45243W        W 9187  21.045  39.887   3.159
45244W        W 9188  21.646  18.131   3.235
45245W        W 9189  34.580  37.444  13.909
45246W        W 9190  32.909  26.972   0.350
45247W        W 9191  29.028  24.638  11.435
45248W        W 9192  37.004  39.465   3.230
45249W        W 9193  19.717   7.782   1.245
45250W        W 9194   7.831  35.032   5.133
45251W        W 9195  29.009  16.140  12.975
45252W        W 9196  38.853  27.955   2.360
45253W        W 9197   6.823   5.214  12.576
45254W        W 9198  38.847   1.446   1.857
45255W        W 9199  41.925  27.497  13.915
45256W        W 9200   0.945  36.057  11.483
45257W        W 9201  11.739  12.263   1.268
45258W        W 9202  40.379  20.606  14.960
45259W        W 9203  18.579  21.214  11.483
45260W        W 9204  27.013  22.051  14.413
45261W        W 9205  26.093   7.372   2.865
45262W        W 9206  37.404  13.297   1.876
45263W        W 9207  44.422   4.312  13.473
45264W        W 9208   0.418  20.631  11.429
45265W        W 9209  22.236   7.175   3.379
45266W        W 9210  27.538  30.000  14.946
45267W        W 9211  33.395  22.016  12.517
45268W        W 9212   3.821  24.592   0.258
45269W        W 9213  31.096  40.854   2.196
45270W        W 9214  36.447  28.993   1.283
45271W        W 9215   6.831  21.109   4.199
45272W        W 9216   9.227  22.730  14.831
45273W        W 9217  19.604   1.761  13.316
45274W        W 9218   6.912  11.852   0.934
45275W        W 9219   0.351  21.216  11.595
45276W        W 9220  15.822   6.297  13.338
45277W        W 9221  15.640   2.443  14.849
45278W        W 9222  23.622  19.143  14.300
45279W        W 9223  27.191  21.130   1.425
45280W        W 9224  40.021  20.150  13.922
45281W        W 9225  34.876  40.847   2.902
45282W        W 9226  24.669  26.148  14.382
45283W        W 9227  43.363  10.331   2.381
45284W        W 9228  40.384  19.202  10.586
45285W        W 9229   8.672   9.682   1.909
45286W        W 9230  32.013  33.468   1.442
45287W        W 9231  16.130  15.658  13.053
45288W        W 9232  35.429  43.870   4.222
45289W        W 9233  15.634  26.620  13.491
45290W        W 9234   7.221  36.845  12.504
45291W        W 9235  33.542  24.111  14.939
45292W        W 9236  16.235   4.729  11.092
45293W        W 9237  44.495  14.734  13.543
45294W        W 9238  13.148   1.476  13.504
45295W        W 9239  19.639  26.631   2.313
45296W        W 9240  39.993  39.340   4.235
45297W        W 9241   9.702   7.191  10.607
45298W        W 9242  36.356  30.137  13.047
45299W        W 9243   0.365  43.365  11.054
45300W        W 9244  34.053  34.567  14.299
45301W        W 9245  10.259  31.093   1.238
45302W        W 9246   6.682  18.768   3.239
45303W        W 9247   8.189  24.000   1.257
45304W        W 9248  34.984  41.865   0.465
45305W        W 9249  44.894   3.440  13.392
45306W        W 9250  25.664   8.882  13.325
45307W        W 9251  38.343  27.640   4.144
45308W        W 9252  24.119  22.747  13.328
45309W        W 9253  32.406  17.766  13.547
45310W        W 9254  19.235  19.670   0.460
45311W        W 9255  20.571  40.383   1.870
45312W        W 9256   1.257  20.033  12.480
45313W        W 9257  10.775  26.471   4.124
45314W        W 9258  42.325  10.165  14.835
45315W        W 9259   8.323  31.521  10.632
45316W        W 9260  43.817  32.042  11.104
45317W        W 9261  43.921  20.636  14.482
45318W        W 9262   3.805  22.688   1.339
45319W        W 9263  31.909   3.331   3.731
45320W        W 9264   4.325  41.499  14.991
45321W        W 9265   6.358  42.777   4.222
45322W        W 9266   9.181  17.149   4.787
45323W        W 9267  22.009  18.184   2.377
45324W        W 9268   7.795  22.686  10.618
45325W        W 9269  27.062  13.680  10.612
45326W        W 9270  10.794   9.298   3.771
45327W        W 9271   9.851   1.463  13.416
45328W        W 9272  16.609   5.861   2.221
45329W        W 9273  43.298  13.188  12.514
45330W        W 9274  17.700   2.264   4.715
45331W        W 9275  34.965   6.415   0.363
45332W        W 9276  35.977  18.639  11.911
45333W        W 9277   2.260  31.593   3.238
45334W        W 9278   2.731  10.873   2.718
45335W        W 9279  31.988  40.834  14.873
45336W        W 9280  25.635  23.735  12.965
45337W        W 9281  41.435  40.367   2.818
45338W        W 9282  11.639  41.464  13.814
45339W        W 9283   7.260  41.413  12.506
45340W        W 9284  20.664  38.351  11.879
45341W        W 9285  16.741  25.171   3.816
45342W        W 9286   6.319  10.200   1.267
45343W        W 9287  33.104  19.761  13.823
45344W        W 9288   9.302  25.219   4.176
45345W        W 9289  13.765  15.804   4.799
45346W        W 9290  24.513  18.265  11.554
45347W        W 9291  28.070  36.539   4.753
45348W        W 9292  23.599  16.278  12.403
45349W        W 9293  18.640  16.686   2.816
45350W        W 9294  33.561  39.997  11.122
45351W        W 9295  11.359   8.307   0.313
45352W        W 9296  42.366  20.560  14.407
45353W        W 9297  16.745  44.280   1.742
45354W        W 9298  40.527  11.345   0.908
45355W        W 9299  18.201  19.141  11.471
45356W        W 9300  38.048  31.950   4.121
45357W        W 9301  33.599   7.746   1.322
45358W        W 9302  32.395  22.627   4.697
45359W        W 9303  42.956  18.195   3.762
45360W        W 9304  17.730  13.647  14.914
45361W        W 9305  39.522  27.480   2.756
45362W        W 9306   6.788  26.086  14.018
45363W        W 9307  31.145   8.874  13.417
45364W        W 9308   4.699  34.935  12.054
45365W        W 9309  40.510  11.713   1.873
45366W        W 9310  20.063  13.746   4.776
45367W        W 9311  31.541  24.635   4.655
45368W        W 9312   0.254  22.660  13.817
45369W        W 9313  42.950  25.568  14.971
45370W        W 9314  26.614  19.108  12.916
45371W        W 9315  35.997  31.017   4.647
45372W        W 9316   2.263  25.179  12.417
45373W        W 9317  39.426  33.530  13.452
45374W        W 9318  16.168  25.643   2.314
45375W        W 9319  32.597  24.102  14.796
45376W        W 9320   3.285  43.304  14.920
45377W        W 9321  23.097  33.043  10.543
45378W        W 9322  29.010  38.870  13.992
45379W        W 9323  23.214  20.268   1.871
45380W        W 9324  31.510  40.879  12.033
45381W        W 9325  30.159  22.177  14.779
45382W        W 9326  37.374  19.579   1.284
45383W        W 9327   0.341  44.852   3.702
45384W        W 9328  24.496   8.712   4.654
45385W        W 9329  36.841   2.879   4.651
45386W        W 9330   9.826  33.547   1.697
45387W        W 9331  36.955  25.475   4.759
45388W        W 9332  10.877   5.326  12.074
45389W        W 9333   9.810  18.173   4.602
45390W        W 9334   2.744   0.324   4.346
45391W        W 9335   1.316  33.622  10.575
45392W        W 9336  36.861  19.757  13.431
45393W        W 9337   1.415  31.082   1.321
45394W        W 9338   7.313  34.536   1.377
45395W        W 9339  34.902  32.558  10.503
45396W        W 9340  20.142  13.752  12.448
45397W        W 9341  12.182  22.143   0.398
45398W        W 9342   8.668  17.279   2.392
45399W        W 9343   3.322   9.360  11.422
45400W        W 9344  42.442  31.150  11.963
45401W        W 9345   6.852  28.580   3.732
45402W        W 9346  32.513  35.498   2.231
45403W        W 9347  34.088  34.563   3.205
45404W        W 9348  11.759  44.381   1.236
45405W        W 9349  41.029  28.625  14.905
45406W        W 9350  36.443  10.314  12.068
45407W        W 9351  23.082  38.354   3.744
45408W        W 9352  12.821  28.150  13.322
45409W        W 9353  39.994  42.450  11.433
45410W        W 9354  42.976  28.930  13.501
45411W        W 9355  40.848   2.859  14.449
45412W        W 9356  19.714  41.421   0.747
45413W        W 9357   5.926  18.068  13.491
45414W        W 9358   3.832  44.464  12.377
45415W        W 9359  28.623  13.178  12.921
45416W        W 9360  39.019  34.509  14.869
45417W        W 9361  34.027  39.549   3.240
45418W        W 9362  43.338  24.206   1.919
45419W        W 9363   8.809   0.249  12.371
45420W        W 9364  24.136   9.681   2.343
45421W        W 9365  43.481  30.095   3.368
45422W        W 9366  16.190   0.955   2.760
45423W        W 9367  23.174  40.836  12.031
45424W        W 9368  14.797  19.775  13.380
45425W        W 9369  23.014   3.352   1.337
45426W        W 9370  42.288  31.127  14.449
45427W        W 9371  20.617   4.823  10.916
45428W        W 9372  26.189  21.251  12.484
45429W        W 9373  10.800  23.626  14.398
45430W        W 9374  17.262   2.837   2.261
45431W        W 9375   0.365  15.710   3.777
45432W        W 9376  27.661  36.995   3.788
45433W        W 9377   0.866  44.382  10.594
45434W        W 9378   3.394   2.247   2.869
45435W        W 9379  32.136   0.928   2.850
45436W        W 9380  10.833  30.123  11.548
45437W        W 9381   4.939  40.929   2.807
45438W        W 9382  44.315  19.702   4.146
45439W        W 9383  13.172  29.967  10.510
45440W        W 9384   6.735  20.083   1.770
45441W        W 9385  39.538  33.104  11.456
45442W        W 9386   2.883  22.093  14.282
45443W        W 9387  41.477  33.906  11.597
45444W        W 9388  20.676  14.128  14.799
45445W        W 9389  24.682  20.555   4.697
45446W        W 9390  25.170  27.065  14.357
45447W        W 9391  42.336  36.078   1.316
45448W        W 9392  25.179  23.018   3.854
45449W        W 9393   9.202  29.603   1.886
45450W        W 9394  42.785  28.103   4.201
45451W        W 9395   8.710   6.839   3.719
45452W        W 9396  44.448  31.116   4.142
45453W        W 9397  23.235  16.216   2.747
45454W        W 9398  35.399   5.812   1.837
45455W        W 9399  15.102   5.353  12.423
45456W        W 9400   2.897  34.900  11.021
45457W        W 9401   4.205  29.113  14.425
45458W        W 9402   1.924  29.564  12.504
45459W        W 9403  36.444  15.104  13.405
45460W        W 9404  32.011  23.585  10.626
45461W        W 9405  31.968  22.718  12.999
45462W        W 9406   8.729  37.358  12.862
45463W        W 9407  22.567  12.678   1.730
45464W        W 9408  24.579  34.097   0.356
45465W        W 9409   4.902  10.312  14.991
45466W        W 9410  19.266  39.489   2.401
45467W        W 9411  16.620  27.072  12.958
45468W        W 9412  19.274  15.657  12.981
45469W        W 9413  19.697   0.289  14.922
45470W        W 9414   1.442  33.958  14.794
45471W        W 9415  35.949   8.759  13.503
45472W        W 9416   8.163  22.195   0.314
45473W        W 9417  20.550  30.630  13.315
45474W        W 9418  14.751  40.313  14.784
45475W        W 9419   1.869  17.617  11.411
45476W        W 9420  27.077  27.468  12.572
45477W        W 9421  38.352  21.534   3.769
45478W        W 9422  22.088  10.793   0.807
45479W        W 9423  28.174  25.010  12.842
45480W        W 9424   4.421  14.644   1.391
45481W        W 9425  27.469   8.660   2.364
45482W        W 9426  42.304  25.210  12.440
45483W        W 9427  18.068  25.214  10.444
45484W        W 9428  15.153  44.349  13.316
45485W        W 9429  33.898  11.268   0.290
45486W        W 9430  10.149  18.275  11.432
45487W        W 9431  13.820  15.737  13.033
45488W        W 9432  16.631   1.842   0.354
45489W        W 9433  23.984  18.133   5.177
45490W        W 9434   5.866   8.894  12.539
45491W        W 9435  40.428  26.129   3.754
45492W        W 9436  24.503  27.075   2.854
45493W        W 9437   7.271  18.681  11.097
45494W        W 9438  21.658  13.220   2.317
45495W        W 9439  30.549   0.453  14.961
45496W        W 9440   7.359  16.637   1.324
45497W        W 9441  13.345  12.765   1.777
45498W        W 9442  17.137  10.788   1.811
45499W        W 9443  23.143  31.453  13.506
45500W        W 9444  30.648  31.084  13.055
45501W        W 9445  44.977  14.806   2.769
45502W        W 9446  34.537  18.588  14.481
45503W        W 9447  18.116   9.241   5.081
45504W        W 9448  43.926   8.169   3.653
45505W        W 9449  22.158   9.395   1.417
45506W        W 9450  39.935   5.256  11.501
45507W        W 9451   1.768  14.256   2.397
45508W        W 9452  11.251   7.755  12.935
45509W        W 9453  13.334  22.169  10.445
45510W        W 9454   7.391  36.850  14.449
45511W        W 9455  23.239  20.083  13.456
45512W        W 9456  40.952   0.492   2.768
45513W        W 9457  27.178  24.580   3.366
45514W        W 9458   0.276  36.020   4.222
45515W        W 9459   9.809   8.395  11.922
45516W        W 9460  33.082  28.024  10.549
45517W        W 9461   8.696  37.433  14.879
45518W        W 9462  37.579  25.127   4.704
45519W        W 9463  34.533  39.896   2.276
45520W        W 9464  40.491  20.537   3.382
45521W        W 9465   3.747  16.705  13.509
45522W        W 9466  42.916  31.088  10.935
45523W        W 9467  13.727   2.929  12.362
45524W        W 9468   2.766   4.317   1.839
45525W        W 9469  15.309  15.134   2.400
45526W        W 9470  33.458  43.951  11.053
45527W        W 9471   8.814  34.876  10.488
45528W        W 9472  30.135  14.716   3.219
45529W        W 9473   9.313  23.090   2.773
45530W        W 9474   0.412  29.497  12.901
45531W        W 9475  14.615  33.993   0.441
45532W        W 9476   4.328  11.343  14.483
45533W        W 9477  22.074  14.589   0.328
45534W        W 9478  36.492  42.322  10.966
45535W        W 9479  43.423  33.988   2.778
45536W        W 9480  27.524  32.593   0.922
45537W        W 9481   2.419  18.204   0.244
45538W        W 9482  38.959   2.432  10.505
45539W        W 9483  32.512  34.559   0.430
45540W        W 9484  40.908  38.824  11.495
45541W        W 9485   1.901  44.932   4.806
45542W        W 9486  26.461  22.247   2.665
45543W        W 9487  27.165  23.687  12.004
45544W        W 9488   5.196  43.962  13.477
45545W        W 9489  28.496  30.090  11.991
45546W        W 9490   1.952   5.317   2.266
45547W        W 9491  19.199  19.592   0.726
45548W        W 9492  13.184  33.014  11.967
45549W        W 9493   5.248   7.762  12.971
45550W        W 9494   0.306   9.248  10.144
45551W        W 9495   1.766   9.836   3.332
45552W        W 9496  24.021  23.664  13.991
45553W        W 9497  35.970  24.136  11.547
45554W        W 9498  12.662   0.854   2.344
45555W        W 9499  16.771  11.129  14.916
45556W        W 9500  23.689  13.159  12.374
45557W        W 9501  44.473  28.635  14.291
45558W        W 9502  19.562  27.595   2.185
45559W        W 9503  20.227  16.145   2.286
45560W        W 9504   6.302  42.428  14.948
45561W        W 9505  13.254  10.168  10.930
45562W        W 9506   8.846  36.414  11.982
45563W        W 9507  37.875   4.794   0.730
45564W        W 9508  10.780  31.508  14.399
45565W        W 9509  27.052  32.978  12.432
45566W        W 9510  38.819  13.604  13.372
45567W        W 9511  25.582  13.707   3.178
45568W        W 9512   9.271  18.283   3.794
45569W        W 9513  25.473  17.177  11.412
45570W        W 9514   7.306  30.523  10.594
45571W        W 9515   3.784   5.250   0.750
45572W        W 9516  13.751  21.114   3.740
45573W        W 9517  29.471   0.834   2.798
45574W        W 9518   0.881  44.943   4.693
45575W        W 9519  37.412  27.019   4.161
45576W        W 9520  11.319  23.618  11.475
45577W        W 9521  11.358  37.077   2.833
45578W        W 9522  28.125  34.015  12.092
45579W        W 9523   0.255   2.228   2.356
45580W        W 9524  10.728  24.054  11.001
45581W        W 9525  10.358  40.320  12.449
45582W        W 9526  36.500  11.676   0.963
45583W        W 9527  26.650  38.925   4.684
45584W        W 9528   3.436  25.172  14.348
45585W        W 9529  41.788   4.933   1.892
45586W        W 9530  36.557  43.896   3.853
45587W        W 9531   4.294  38.897   3.830
45588W        W 9532  39.995  32.572   1.856
45589W        W 9533   0.815  39.815   5.083
45590W        W 9534  15.164   5.383   3.740
45591W        W 9535  35.948  41.396  14.900
45592W        W 9536  31.527   4.418   0.479
45593W        W 9537  35.089  23.986   3.220
45594W        W 9538  31.536  23.712   2.271
45595W        W 9539  31.452  41.031  13.035
45596W        W 9540  30.624  41.011   0.395
45597W        W 9541  30.603  12.228   3.769
45598W        W 9542   0.919   6.184  13.309
45599W        W 9543  36.854  19.231  14.891
45600W        W 9544  36.890  34.434  11.869
45601W        W 9545  19.710  33.392   2.836
45602W        W 9546  26.124  35.550  11.909
45603W        W 9547   5.710  42.863  11.001
45604W        W 9548   1.478  21.052   2.401
45605W        W 9549  40.017  22.742   4.669
45606W        W 9550  13.790  29.074  11.027
45607W        W 9551  35.096  12.788   3.642
45608W        W 9552  38.943   7.290  14.322
45609W        W 9553  14.147  24.986   2.261
45610W        W 9554  24.220  25.491   2.697
45611W        W 9555  14.268  40.865  11.565
45612W        W 9556  21.541  43.269  13.537
45613W        W 9557  30.485  16.627   4.353
45614W        W 9558   0.263  23.140  13.808
45615W        W 9559  30.987   1.852   0.306
45616W        W 9560  15.132   1.445  13.498
45617W        W 9561   1.323  21.213  13.363
45618W        W 9562  30.485  10.729   3.259
45619W        W 9563  25.574   4.413  11.527
45620W        W 9564  11.307  19.769  10.530
45621W        W 9565  23.083  27.093   4.206
45622W        W 9566  13.716   2.803  10.931
45623W        W 9567  20.266  26.063   1.713
45624W        W 9568  20.656  22.039   4.633
45625W        W 9569  20.173  21.201  10.614
45626W        W 9570  33.111  23.076  12.452
45627W        W 9571  34.899  12.237  13.338
45628W        W 9572  26.100  21.114   2.390
45629W        W 9573  18.211  13.107  12.906
45630W        W 9574  35.865  32.047   0.776
45631W        W 9575   5.839  35.390  12.953
45632W        W 9576  16.135  25.511  10.116
45633W        W 9577  33.466   0.393   1.414
45634W        W 9578   6.899  41.478  13.891
45635W        W 9579  20.108  30.055  13.898
45636W        W 9580   4.410  43.938   4.224
45637W        W 9581  12.139  40.839   0.364
45638W        W 9582   1.468  22.508   1.425
45639W        W 9583  42.013  36.855   0.769
45640W        W 9584  39.535   1.803  12.021
45641W        W 9585  32.133  24.089   3.258
45642W        W 9586  43.408   4.744   4.247
45643W        W 9587   4.407  34.066   4.731
45644W        W 9588  26.577  28.067   0.481
45645W        W 9589   3.419  33.464   0.482
45646W        W 9590  35.527   8.264   2.379
45647W        W 9591  41.524  27.646   1.710
45648W        W 9592   7.672  28.108   3.681
45649W        W 9593  37.023  11.209  10.982
45650W        W 9594  30.953   3.453  14.398
45651W        W 9595  13.806  30.931   1.429
45652W        W 9596  22.543   9.201   4.677
45653W        W 9597  33.875  14.192   0.901
45654W        W 9598  13.606  12.163  13.309
45655W        W 9599   2.825  42.914  12.534
45656W        W 9600  20.054  14.770  11.539
45657W        W 9601  33.428  36.857   3.355
45658W        W 9602  18.132  11.778   2.793
45659W        W 9603   0.949   4.285  14.356
45660W        W 9604   6.851  16.733  12.373
45661W        W 9605  13.642  10.718   0.796
45662W        W 9606   9.167   2.844  14.820
45663W        W 9607  27.670   9.702  11.416
45664W        W 9608  11.258   2.873   0.386
45665W        W 9609  31.560  41.997   0.895
45666W        W 9610  39.850  20.088   4.133
45667W        W 9611  34.045  19.718   3.386
45668W        W 9612  19.740  33.480   1.881
45669W        W 9613  24.188  16.076  11.895
45670W        W 9614   9.805  34.603  13.521
45671W        W 9615   4.414   5.285   1.450
45672W        W 9616  25.177  31.503  14.866
45673W        W 9617  31.134  27.666  11.104
45674W        W 9618  24.637  35.503  11.512
45675W        W 9619  23.038  31.059  13.829
45676W        W 9620  38.072  20.212  10.452
45677W        W 9621  32.010  19.112   1.436
45678W        W 9622  16.214  13.304  10.007
45679W        W 9623  25.554  36.557  14.322
45680W        W 9624   8.344  43.483   1.276
45681W        W 9625   4.283  14.777  13.885
45682W        W 9626  40.429  36.527   3.337
45683W        W 9627   7.354  39.890  13.056
45684W        W 9628  44.353   5.781   2.178
45685W        W 9629  24.207  10.285   0.762
45686W        W 9630  33.600  27.576   4.319
45687W        W 9631   8.804  37.525   3.386
45688W        W 9632  33.093   5.908  14.880
45689W        W 9633   1.819  19.732   2.791
45690W        W 9634  14.250  31.551  10.628
45691W        W 9635   2.373  17.653  14.828
45692W        W 9636  29.509  28.116   2.327
45693W        W 9637  14.298  29.015   2.898
45694W        W 9638  20.232   6.339   0.776
45695W        W 9639  19.768  11.790   3.199
45696W        W 9640  31.959  28.547   2.353
45697W        W 9641  16.260   9.864   3.163
45698W        W 9642  34.911  28.536   1.423
45699W        W 9643  21.565  22.140  11.893
45700W        W 9644  28.676  25.003   0.842
45701W        W 9645  36.543   8.382  12.884
45702W        W 9646  31.034  30.945  11.036
45703W        W 9647  13.145  21.237   0.292
45704W        W 9648  26.098  29.050   1.231
45705W        W 9649   0.882  22.122  12.481
45706W        W 9650  44.288  32.048  14.891
45707W        W 9651  29.601   4.864  13.864
45708W        W 9652   8.384  18.775  10.629
45709W        W 9653  28.050  41.984   0.811
45710W        W 9654  23.649  43.394  11.519
45711W        W 9655  41.328   4.884   2.363
45712W        W 9656  31.932  33.037  10.082
45713W        W 9657  37.003   5.286  14.002
45714W        W 9658  17.719  41.421   2.725
45715W        W 9659  25.052  36.550  14.803
45716W        W 9660  44.501  25.210   2.693
45717W        W 9661  44.808  43.470  11.513
45718W        W 9662  30.508  31.063  14.429
45719W        W 9663   0.381  26.007  13.439
45720W        W 9664  15.088   3.912   3.310
45721W        W 9665  20.707  26.660  10.953
45722W        W 9666  22.525   5.382  11.121
45723W        W 9667   5.712   8.879  14.372
45724W        W 9668  14.668   8.322  12.541
45725W        W 9669  36.470  24.610  11.429
45726W        W 9670  37.374   5.766   3.816
45727W        W 9671  11.350  20.539   1.864
45728W        W 9672  18.592  21.169   0.818
45729W        W 9673   7.772   6.417   3.836
45730W        W 9674   1.926  38.559   0.891
45731W        W 9675  25.034  37.403   4.298
45732W        W 9676  10.658   7.218   0.247
45733W        W 9677  44.937  14.693  14.898
45734W        W 9678  12.631  29.998   3.820
45735W        W 9679  16.142  18.140  11.393
45736W        W 9680  28.610  21.114   3.344
45737W        W 9681  33.917  21.667  13.062
45738W        W 9682  31.997  42.934  12.548
45739W        W 9683  11.269  41.337   4.196
45740W        W 9684  24.601  22.516  11.054
45741W        W 9685  10.731  40.508   3.803
45742W        W 9686  37.860   4.726  12.962
45743W        W 9687   8.673   2.418   4.343
45744W        W 9688  38.568  39.856   3.256
45745W        W 9689  44.770  32.122  12.555
45746W        W 9690   6.896  13.231   0.462
45747W        W 9691  14.679  26.596   2.831
45748W        W 9692  25.192  21.688  14.339
45749W        W 9693  16.711  13.764  12.029
45750W        W 9694  15.244  32.439   0.256
45751W        W 9695  43.950  12.189  13.364
45752W        W 9696  44.797  33.493   4.630
45753W        W 9697  19.277  28.492  11.939
45754W        W 9698  19.589   3.302  12.378
45755W        W 9699  14.614   2.733  14.286
45756W        W 9700   8.290  14.831   3.804
45757W        W 9701  20.589  11.639   3.282
45758W        W 9702  43.478   6.831  13.519
45759W        W 9703  12.831   7.181  11.979
45760W        W 9704  22.676  29.112   4.320
45761W        W 9705  17.639   5.435   0.837
45762W        W 9706  13.829  22.715   2.709
45763W        W 9707  26.610  29.562  11.103
45764W        W 9708  30.435  31.438  12.563
45765W        W 9709   7.414  18.213  10.990
45766W        W 9710  39.997   3.836  12.073
45767W        W 9711  44.991  30.644  14.358
45768W        W 9712  14.728   9.331  12.029
45769W        W 9713  30.153  32.447  13.343
45770W        W 9714  17.654   0.436   2.753
45771W        W 9715   8.671   4.938   5.250
45772W        W 9716   4.821  37.858   9.966
45773W        W 9717  27.629  20.113  10.978
45774W        W 9718  44.776  19.772   0.377
45775W        W 9719  13.298  39.420  14.828
45776W        W 9720   9.798  28.173  14.407
45777W        W 9721   7.295  27.601  12.937
45778W        W 9722  26.641   6.915  14.321
45779W        W 9723   1.471  18.689   4.248
45780W        W 9724  41.500   7.279   1.361
45781W        W 9725   5.311  25.019  12.533
45782W        W 9726   1.289   4.309   4.302
45783W        W 9727  41.865  20.140   0.778
45784W        W 9728   8.707   9.658   0.444
45785W        W 9729  29.040  13.698   3.378
45786W        W 9730  16.091  23.065   0.792
45787W        W 9731  21.541  38.017   1.423
45788W        W 9732  18.292   3.221  13.517
45789W        W 9733  27.572  16.604  14.371
45790W        W 9734  17.704  32.928  11.528
45791W        W 9735  39.517  19.166  12.376
45792W        W 9736  11.707   3.782   0.844
45793W        W 9737   6.379  24.620   3.147
45794W        W 9738  43.501  11.205   0.817
45795W        W 9739  28.507  10.643  12.991
45796W        W 9740   9.233  15.167  10.154
45797W        W 9741  11.858  35.979  10.477
45798W        W 9742  25.648  11.695   3.740
45799W        W 9743  22.594  23.593  11.612
45800W        W 9744  26.028  31.947   5.281
45801W        W 9745  22.157  41.417  10.429
45802W        W 9746  40.979  19.731   2.850
45803W        W 9747  10.384  20.590   3.180
45804W        W 9748   5.297  18.660  11.397
45805W        W 9749  13.724   2.364  11.431
45806W        W 9750  41.479  43.857  10.545
45807W        W 9751  41.955   3.775  11.982
45808W        W 9752  44.437  31.579   4.161
45809W        W 9753  32.543  32.548   3.347
45810W        W 9754   7.811  13.737  13.840
45811W        W 9755  44.896  17.170  14.992
45812W        W 9756  31.140   5.715  10.408
45813W        W 9757  29.101   3.803   4.287
45814W        W 9758   1.392  24.039   2.397
45815W        W 9759  42.823  18.179   1.753
45816W        W 9760   4.411  11.866   1.366
45817W        W 9761  43.317  42.883  11.978
45818W        W 9762   6.407  17.575  11.514
45819W        W 9763  21.193  42.823  11.093
45820W        W 9764  20.174   2.455   2.181
45821W        W 9765   2.418  21.608  10.600
45822W        W 9766   4.803  25.630  14.948
45823W        W 9767  12.349  30.039  11.126
45824W        W 9768  37.914  31.062   3.737
45825W        W 9769   9.308  24.668  12.905
45826W        W 9770  14.747  26.488   0.947
45827W        W 9771  32.062  26.482   0.931
45828W        W 9772  36.882  34.888   2.200
45829W        W 9773   0.483  11.211   1.746
45830W        W 9774  17.637  36.492   1.800
45831W        W 9775  44.773  28.944  13.984
45832W        W 9776  19.647   9.774   2.226
45833W        W 9777  44.758  31.424   0.880
45834W        W 9778  15.130   6.362   0.846
45835W        W 9779  21.161  36.858   4.249
45836W        W 9780  27.503   0.759   2.244
45837W        W 9781  18.247  24.588   5.092
45838W        W 9782   9.281  37.976  13.869
45839W        W 9783  18.784  23.027  11.033
45840W        W 9784  21.686  17.690   1.815
45841W        W 9785  31.933  36.393  13.022
45842W        W 9786  25.553  14.646  10.567
45843W        W 9787  42.459  35.063   0.809
45844W        W 9788  21.728   5.853  14.934
45845W        W 9789  20.560  10.733   4.281
45846W        W 9790   6.798   1.932  10.962
45847W        W 9791  38.391  26.180   0.299
45848W        W 9792  16.609   9.747   4.709
45849W        W 9793  12.307  28.972  14.421
45850W        W 9794  38.936   1.289   2.787
45851W        W 9795  33.573  36.413  12.462
45852W        W 9796  31.648  13.145   1.327
45853W        W 9797   4.812  25.021   2.306
45854W        W 9798  13.240   3.352   2.358
45855W        W 9799  18.749  20.231  11.424
45856W        W 9800  18.179  10.704   4.201
45857W        W 9801  21.191  26.040   1.356
45858W        W 9802  22.615   3.810  10.510
45859W        W 9803  13.149  15.652  10.567
45860W        W 9804  40.905  33.916   2.783
45861W        W 9805  41.807   6.278  13.855
45862W        W 9806  39.325  13.305  14.031
45863W        W 9807  38.873   6.321   2.815
45864W        W 9808  38.823   6.814  13.865
45865W        W 9809  12.703  28.599  14.832
45866W        W 9810  35.365  12.707  11.566
45867W        W 9811   0.306  11.834  12.457
45868W        W 9812  11.690  28.010  14.286
45869W        W 9813  19.221  43.501   3.761
45870W        W 9814  37.440  10.720  13.391
45871W        W 9815  22.590   4.902  12.464
45872W        W 9816   5.360  18.646  13.988
45873W        W 9817  38.423  19.040   3.687
45874W        W 9818   9.349  41.893   0.292
45875W        W 9819  39.985  27.687  11.990
45876W        W 9820  23.508  18.215   4.198
45877W        W 9821  32.114  32.923  12.095
45878W        W 9822  33.875  33.125   4.737
45879W        W 9823  40.025  27.177   1.902
45880W        W 9824  37.506  27.630   0.916
45881W        W 9825  41.379  13.783  10.953
45882W        W 9826  13.175  33.087   9.459
45883W        W 9827  44.903   0.978   3.870
45884W        W 9828  35.005  42.450   4.662
45885W        W 9829  44.902  43.321  12.967
45886W        W 9830   6.710  38.480   2.825
45887W        W 9831  26.663  12.773  11.080
45888W        W 9832  29.019  39.821  12.884
45889W        W 9833  33.946  38.352  11.510
45890W        W 9834  22.091  12.117   4.131
45891W        W 9835  30.996   2.862  10.431
45892W        W 9836  42.011  10.163  11.377
45893W        W 9837  25.055  11.296  12.537
45894W        W 9838  20.249  40.405  11.591
45895W        W 9839  43.475  22.541   3.845
45896W        W 9840  44.995   9.154   3.306
45897W        W 9841  10.768   3.311  12.832
45898W        W 9842   6.235   1.947  14.342
45899W        W 9843  37.960  28.462  14.939
45900W        W 9844   2.379  36.543   4.603
45901W        W 9845  29.969  21.097   0.897
45902W        W 9846  32.508  35.598  11.857
45903W        W 9847   3.728   6.295   1.786
45904W        W 9848  20.575  12.764  11.546
45905W        W 9849  36.591  14.193  11.390
45906W        W 9850  24.977  17.140   1.446
45907W        W 9851  37.449  13.641  14.968
45908W        W 9852  29.602  41.892  14.332
45909W        W 9853  14.209  29.470   0.482
45910W        W 9854   7.295  20.137   2.749
45911W        W 9855   9.316  32.422   9.467
45912W        W 9856  21.757  26.483   2.228
45913W        W 9857  37.865  21.250  10.046
45914W        W 9858  11.247  19.699  11.015
45915W        W 9859  41.794  18.167  12.559
45916W        W 9860   1.385  12.701   3.166
45917W        W 9861  19.056  19.280  12.028
45918W        W 9862  13.330   6.251  12.382
45919W        W 9863  32.115  43.447  14.900
45920W        W 9864  19.611  27.604   3.775
45921W        W 9865  22.093  28.149   3.308
45922W        W 9866  18.281   7.202   1.765
45923W        W 9867  10.190   4.776   4.602
45924W        W 9868  10.699  40.426  14.503
45925W        W 9869   3.459  41.907  11.518
45926W        W 9870  32.634  21.627   3.739
45927W        W 9871  38.563  37.056   1.389
45928W        W 9872  32.093  22.049   4.655
45929W        W 9873  26.177  22.590  12.836
45930W        W 9874  24.675  19.041   4.188
45931W        W 9875  13.137  35.966  11.535
45932W        W 9876  31.468  19.095   2.377
45933W        W 9877   4.919  23.599  10.005
45934W        W 9878  29.464  14.781  10.938
45935W        W 9879  38.366  26.004   3.340
45936W        W 9880   6.337  28.597   3.192
45937W        W 9881  19.270  37.075   0.779
45938W        W 9882  42.480  23.038  10.433
45939W        W 9883   3.833  19.560  10.439
45940W        W 9884  21.048  16.612  11.608
45941W        W 9885   6.223   3.923  13.805
45942W        W 9886  33.454  10.359  10.555
45943W        W 9887  40.814  44.929  13.435
45944W        W 9888  41.803  31.588  12.544
45945W        W 9889   6.742  41.384  14.378
45946W        W 9890   8.291  36.389   0.795
45947W        W 9891   9.151  39.559   4.301
45948W        W 9892  18.274   2.351   3.202
45949W        W 9893  15.211  14.302  13.013
45950W        W 9894  43.270  26.046  12.487
45951W        W 9895   1.339  39.414   3.698
45952W        W 9896  41.467  25.146   0.782
45953W        W 9897  39.991  25.685  11.419
45954W        W 9898  19.269  12.241   1.299
45955W        W 9899  41.914  28.681  12.418
45956W        W 9900  26.573  32.426   0.923
45957W        W 9901  27.070  18.635  13.948
45958W        W 9902  17.789   4.450  10.474
45959W        W 9903   7.224  23.129   0.268
45960W        W 9904   8.231  24.503  11.491
45961W        W 9905  37.531  38.437  12.004
45962W        W 9906  18.243  15.272  12.867
45963W        W 9907  13.335   2.857   5.722
45964W        W 9908  15.801  38.937  13.822
45965W        W 9909  13.293  23.674  10.929
45966W        W 9910  36.063  38.989  13.864
45967W        W 9911  28.991  27.110  12.400
45968W        W 9912  26.134  37.084   2.778
45969W        W 9913  28.565  13.669  14.382
45970W        W 9914  38.949  18.194  13.937
45971W        W 9915   8.670  25.632  11.955
45972W        W 9916  16.171  10.324   3.221
45973W        W 9917  23.213  27.622  13.470
45974W        W 9918   2.847  21.648   1.870
45975W        W 9919  26.638  31.639   2.877
45976W        W 9920  14.096  22.591  14.800
45977W        W 9921  25.515   1.298  13.422
45978W        W 9922  18.601   9.785  12.443
45979W        W 9923  14.195  15.757   4.260
45980W        W 9924  16.221  34.381   4.701
45981W        W 9925  31.526  28.157   2.404
45982W        W 9926  17.249  14.204   1.812
45983W        W 9927  17.759  34.098  13.790
45984W        W 9928   2.805  27.661  13.318
45985W        W 9929  39.560   1.336   9.557
45986W        W 9930  23.537   3.325  13.834
45987W        W 9931  13.221  39.808  12.889
45988W        W 9932   8.660  18.250   3.171
45989W        W 9933  25.127   5.810  14.418
45990W        W 9934   6.907  21.584  13.942
45991W        W 9935  33.052  34.963   1.324
45992W        W 9936  38.454  34.577  10.525
45993W        W 9937   0.277   2.861  10.533
45994W        W 9938   7.782  38.072   1.241
45995W        W 9939  15.150   6.207  13.480
45996W        W 9940   5.876   2.306   4.326
45997W        W 9941  21.673   2.723  10.626
45998W        W 9942   8.384   1.414   3.183
45999W        W 9943  15.609  20.736   3.752
46000W        W 9944  35.459  18.052   3.756
46001W        W 9945   0.816  44.937   4.285
46002W        W 9946  36.941  39.015  11.423
46003W        W 9947   7.679   8.770  13.811
46004W        W 9948   6.212   0.342  12.450
46005W        W 9949   1.860   2.359   0.847
46006W        W 9950  31.594   2.264   0.403
46007W        W 9951   4.322  36.376   0.960
46008W        W 9952  28.101   6.260   5.126
46009W        W 9953   4.327  10.349  12.013
46010W        W 9954   0.791   5.384   4.330
46011W        W 9955  34.966   5.760   1.805
46012W        W 9956  18.222  21.203  11.101
46013W        W 9957  14.607  23.702   0.848
46014W        W 9958   1.914   1.440   2.735
46015W        W 9959  14.651  13.699   0.254
46016W        W 9960  17.798  29.440  11.514
46017W        W 9961  15.730  38.822   0.249
46018W        W 9962  15.679  28.631   3.847
46019W        W 9963  15.816  13.642  12.048
46020W        W 9964  38.371   6.732  11.982
46021W        W 9965   9.253  11.336  11.950
46022W        W 9966  27.601  41.349   0.816
46023W        W 9967   3.943  20.270  14.968
46024W        W 9968   6.834   9.792   0.899
46025W        W 9969  43.804  22.541  12.970
46026W        W 9970  40.441  11.279   1.913
46027W        W 9971  14.118  26.578   0.424
46028W        W 9972  22.675  11.639   5.132
46029W        W 9973  28.460  18.164   1.253
46030W        W 9974   7.796  32.579   0.835
46031W        W 9975  18.167  29.638   0.460
46032W        W 9976  27.471   5.382   0.465
46033W        W 9977  26.609  20.534   3.701
46034W        W 9978  20.609  12.253   1.852
46035W        W 9979   0.253  37.898  14.361
46036W        W 9980  19.283  39.355  13.500
46037W        W 9981  12.770   3.431   5.159
46038W        W 9982  16.121  34.585  11.446
46039W        W 9983  24.012  30.570  11.930
46040W        W 9984  10.329  33.483  14.758
46041W        W 9985   0.437  29.446  12.406
46042W        W 9986  22.725  24.510  12.009
46043W        W 9987  13.136  17.102   1.440
46044W        W 9988  41.371   5.439   3.273
46045W        W 9989  28.490   9.709  12.402
46046W        W 9990  13.235  32.407   4.713
46047W        W 9991  21.714  16.615   2.413
46048W        W 9992  23.077  38.569   3.204
46049W        W 9993   3.215  38.856   9.999
46050W        W 9994  34.947  44.983   3.275
46051W        W 9995   7.750  31.113   0.347
46052W        W 9996  31.943  29.595  14.298
46053W        W 9997   3.809   0.360   1.729
46054W        W 9998  27.055  21.142   3.648
46055W        W 9999   8.387  21.209  14.322
46056W        W10000  12.735   3.332  13.033
46057W        W10001  14.161  20.595  13.372
46058W        W10002  10.830  12.628  12.342
46059W        W10003  13.141  35.598   1.873
46060W        W10004  34.107  20.571   3.725
46061W        W10005  19.684  37.979   2.799
46062W        W10006  41.799  13.820   1.435
46063W        W10007   3.377  14.763   2.194
46064W        W10008  10.714  27.940  12.949
46065W        W10009   6.741  13.346   4.801
46066W        W10010   9.209  32.490  12.440
46067W        W10011  11.753   3.791   4.232
46068W        W10012  42.929  32.471  11.597
46069W        W10013  43.341   8.315  10.535
46070W        W10014   1.807  37.480   4.696
46071W        W10015  21.750  10.247   1.812
46072W        W10016  39.913  41.013  12.416
46073W        W10017   8.824   4.359  12.380
46074W        W10018  31.484  23.041   1.917
46075W        W10019  26.107  34.464   4.629
46076W        W10020  30.633  41.423   0.831
46077W        W10021  12.756  37.982   0.454
46078W        W10022  11.330  37.935  14.426
46079W        W10023  33.510  23.590  13.414
46080W        W10024  13.778  32.015  12.868
46081W        W10025  38.068  29.159   2.857
46082W        W10026  32.903  15.191  10.478
46083W        W10027  44.941  32.444  13.922
46084W        W10028  20.069   2.802   0.908
46085W        W10029   0.962   1.834   1.338
46086W        W10030  18.710  27.192  10.468
46087W        W10031  33.468  22.215   2.872
46088W        W10032  41.386   6.353  10.494
46089W        W10033  43.866  40.319   3.287
46090W        W10034  35.375   0.812   4.730
46091W        W10035  24.065  20.049  11.567
46092W        W10036  38.874  36.363   4.603
46093W        W10037  16.694   3.333   2.747
46094W        W10038  30.591  40.332  12.870
46095W        W10039  21.597  36.464   0.323
46096W        W10040  15.261  31.644  12.368
46097W        W10041  24.169  24.587  10.599
46098W        W10042  20.760  37.495  12.041
46099W        W10043  19.558  15.287  11.905
46100W        W10044  28.491  43.839   1.379
46101W        W10045  39.384  31.594   4.793
46102W        W10046  41.799   3.913   3.779
46103W        W10047   9.152  37.972  14.291
46104W        W10048  40.923  14.730  14.830
46105W        W10049  12.737  43.501   4.332
46106W        W10050  40.407  14.179   1.451
46107W        W10051  35.357  22.589  10.945
46108W        W10052  25.056   4.275  11.580
46109W        W10053  39.878  44.981   1.300
46110W        W10054  43.425  30.912  12.546
46111W        W10055  12.822  11.360  12.917
46112W        W10056  13.203  20.037  14.798
46113W        W10057  20.190  40.343   0.336
46114W        W10058   3.747  19.757  11.881
46115W        W10059  24.012  14.745  12.460
46116W        W10060   0.468   6.731  11.035
46117W        W10061  34.994  15.084  11.982
46118W        W10062  15.153  26.670  11.439
46119W        W10063   8.219  14.697  10.917
46120W        W10064  32.036  41.810  14.009
46121W        W10065  33.425  42.948  13.821
46122W        W10066  23.687  14.761   2.803
46123W        W10067   5.927  37.832  13.389
46124W        W10068  29.457   5.260  11.020
46125W        W10069  28.530   3.929   2.413
46126W        W10070  14.338   6.425   0.921
46127W        W10071  33.874   5.382  14.505
46128W        W10072  33.088  30.412  12.346
46129W        W10073   9.809  42.334   4.768
46130W        W10074  22.697  13.688  12.021
46131W        W10075   8.767  25.049   0.821
46132W        W10076   0.745  16.169  13.427
46133W        W10077  26.636  38.852   0.792
46134W        W10078  41.850  10.753  10.638
46135W        W10079  24.581   0.974  10.967
46136W        W10080  37.083   1.824  10.144
46137W        W10081  43.914  41.010   2.682
46138W        W10082   8.349   4.383  10.576
46139W        W10083  25.510  37.565   3.209
46140W        W10084   4.306  12.653  11.030
46141W        W10085  11.748  18.781  10.437
46142W        W10086  21.562   3.227  14.807
46143W        W10087   6.867  14.650  11.446
46144W        W10088  14.310  38.436   1.320
46145W        W10089   0.965  32.923  12.914
46146W        W10090  11.266  23.151   1.912
46147W        W10091  33.477  38.029  11.602
46148W        W10092  41.375  40.413  14.838
46149W        W10093  43.278  25.541   1.413
46150W        W10094  27.561  44.783  12.914
46151W        W10095   3.740  38.478   3.355
46152W        W10096  19.143   9.269  13.873
46153W        W10097  22.122   4.392   0.841
46154W        W10098  35.981  35.583  13.333
46155W        W10099   0.491   2.256   0.478
46156W        W10100  41.392  26.057   1.232
46157W        W10101  41.482  40.892  12.002
46158W        W10102  30.619  31.925   3.740
46159W        W10103  37.419  39.065   1.858
46160W        W10104  30.136   4.334  14.801
46161W        W10105  13.121   5.792  12.035
46162W        W10106  25.129  19.738  10.021
46163W        W10107  17.683  24.072  12.436
46164W        W10108   3.248   7.873   3.646
46165W        W10109  23.584  41.370  13.464
46166W        W10110   1.857  18.717  14.416
46167W        W10111  24.170  27.526   0.957
46168W        W10112  18.713  36.006   3.281
46169W        W10113   6.814  18.135  11.111
46170W        W10114  11.736  34.602   9.950
46171W        W10115  40.870  24.545  14.849
46172W        W10116  13.604  19.267   0.361
46173W        W10117   3.249  40.984   4.268
46174W        W10118  25.474  36.095  14.804
46175W        W10119  23.653  37.450  11.967
46176W        W10120  44.931  36.891  10.640
46177W        W10121  35.478  30.937  10.409
46178W        W10122   3.815  30.626   0.464
46179W        W10123   8.207  43.482  10.987
46180W        W10124   2.823  20.117  13.437
46181W        W10125  11.838  16.766   1.705
46182W        W10126  38.366   8.391   2.240
46183W        W10127  30.432  39.812  11.969
46184W        W10128  22.146  33.522  11.426
46185W        W10129  28.140  27.092   1.402
46186W        W10130  43.383  38.376  10.529
46187W        W10131  38.906  40.898   3.806
46188W        W10132  18.118  44.913  13.385
46189W        W10133  42.960  33.028  14.336
46190W        W10134  14.603  17.085   0.801
46191W        W10135   7.403  36.948  10.952
46192W        W10136  28.008  25.095  13.812
46193W        W10137  26.472  23.501  12.454
46194W        W10138   6.290  27.002  12.470
46195W        W10139  29.146  43.386   4.288
46196W        W10140   4.849  13.701  14.379
46197W        W10141  13.712  12.249   2.802
46198W        W10142   1.929  23.084  12.455
46199W        W10143  31.927  38.929  11.592
46200W        W10144  30.995  23.716   2.718
46201W        W10145  22.157  39.395   3.712
46202W        W10146  17.092  38.458   2.300
46203W        W10147  42.348  10.803  13.793
46204W        W10148   0.795  20.706   4.619
46205W        W10149  30.919   6.840  14.291
46206W        W10150  25.058   7.326   0.285
46207W        W10151  16.720  39.889   3.693
46208W        W10152  20.587  26.701   4.615
46209W        W10153  10.837  17.092   4.284
46210W        W10154  22.651  21.048   2.299
46211W        W10155  15.231   7.394  11.506
46212W        W10156   1.416  42.791  11.477
46213W        W10157  33.122  38.456  12.883
46214W        W10158   7.765  40.894  13.898
46215W        W10159  28.162  43.294   2.728
46216W        W10160  34.380  10.665   4.790
46217W        W10161   6.404  36.950  11.501
46218W        W10162  44.279  28.042   2.796
46219W        W10163  29.964  23.491   2.246
46220W        W10164  33.948  17.733  12.360
46221W        W10165  43.960  29.095  14.280
46222W        W10166  31.110  19.126  10.005
46223W        W10167  26.006  36.372   1.694
46224W        W10168  19.716   9.295  11.086
46225W        W10169  12.263  25.481   4.295
46226W        W10170   2.384  13.701  11.888
46227W        W10171  42.872  41.503  10.612
46228W        W10172  21.706  15.670  12.951
46229W        W10173  12.741  22.091  14.331
46230W        W10174  32.013   7.389  10.104
46231W        W10175  13.795   6.872   1.350
46232W        W10176  36.973  23.107   4.762
46233W        W10177   2.290   8.846  12.491
46234W        W10178  25.698  26.025   1.368
46235W        W10179  31.412  24.536   0.808
46236W        W10180  35.991  13.749  14.981
46237W        W10181  43.494   0.791  13.966
46238W        W10182   5.813   6.739  10.448
46239W        W10183   8.759  11.327   0.945
46240W        W10184  34.586   6.890   4.831
46241W        W10185  29.441  30.502   4.713
46242W        W10186  33.902   9.335  12.396
46243W        W10187  44.910  10.183  14.798
46244W        W10188  34.448   9.249  11.013
46245W        W10189  20.254  28.072   3.629
46246W        W10190  13.188  43.945  14.764
46247W        W10191   7.751  23.065  14.406
46248W        W10192  25.167  21.150   3.645
46249W        W10193   9.373  23.501   3.660
46250W        W10194  15.300  27.569   2.886
46251W        W10195  38.514  13.607  13.917
46252W        W10196  33.128  38.465  10.963
46253W        W10197  36.568  42.821   2.734
46254W        W10198   5.312  35.043   4.126
46255W        W10199  38.424  29.172  12.925
46256W        W10200  37.363  24.680   4.350
46257W        W10201  11.790  40.862  12.385
46258W        W10202  15.705  13.129  11.538
46259W        W10203  23.126  34.519  12.081
46260W        W10204  23.047  34.067  12.422
46261W        W10205   5.225  34.081   2.266
46262W        W10206   7.685  11.184  10.888
46263W        W10207  29.657  17.707   3.669
46264W        W10208   7.872  15.316   0.400
46265W        W10209  10.841   0.305  11.930
46266W        W10210   0.361  14.704  13.880
46267W        W10211  43.001  13.151   1.714
46268W        W10212   6.855   3.925   3.764
46269W        W10213   7.714   3.245  11.587
46270W        W10214  21.736  39.889   2.761
46271W        W10215  13.112  27.163  14.940
46272W        W10216  12.149  20.258   4.711
46273W        W10217  34.871   8.249   4.784
46274W        W10218   8.295  20.582   2.247
46275W        W10219  22.139  11.182   1.363
46276W        W10220   1.351   0.802   4.716
46277W        W10221  30.086  13.293   0.954
46278W        W10222  43.908  36.921   2.391
46279W        W10223  31.639  37.347  13.018
46280W        W10224  42.849  29.007   2.851
46281W        W10225  12.284  36.059   4.713
46282W        W10226  17.623   3.772  11.548
46283W        W10227  11.826  42.488  14.847
46284W        W10228  39.534  39.328   4.165
46285W        W10229  24.556  12.848  12.944
46286W        W10230  14.235  12.732   3.215
46287W        W10231  38.346  29.092  14.405
46288W        W10232  40.840  13.132   3.813
46289W        W10233   9.823  43.436  11.391
46290W        W10234  11.199  37.958  12.061
46291W        W10235  17.686   4.917  10.632
46292W        W10236  23.087  40.955   0.968
46293W        W10237  29.157  38.559   1.349
46294W        W10238  14.121   9.228   5.238
46295W        W10239   6.773  16.086  11.564
46296W        W10240  25.990   4.718   2.400
46297W        W10241  27.187  35.995  11.492
46298W        W10242  42.018  30.155   1.725
46299W        W10243   9.378   2.793   0.266
46300W        W10244  41.871  35.063   0.270
46301W        W10245  36.379  24.639  13.390
46302W        W10246  36.577  21.653   2.340
46303W        W10247  25.604  24.674   3.785
46304W        W10248  34.890  23.696   1.434
46305W        W10249  16.645   5.687  10.149
46306W        W10250  11.284   7.258  13.329
46307W        W10251  22.577  27.039  10.461
46308W        W10252  19.758  24.584  12.032
46309W        W10253  39.864  29.642  14.307
46310W        W10254  13.709  33.110   1.342
46311W        W10255  40.441  31.526   2.883
46312W        W10256  15.768  44.479  11.093
46313W        W10257  19.157   1.827  11.009
46314W        W10258  28.611   3.447   1.397
46315W        W10259  41.511  26.701   0.276
46316W        W10260   7.324   5.307  12.952
46317W        W10261  18.155  27.654  12.864
46318W        W10262   7.727  44.986   1.421
46319W        W10263  12.650  42.836   0.320
46320W        W10264   2.776  23.684   3.821
46321W        W10265   7.791  19.627  12.517
46322W        W10266  32.927  28.653   0.814
46323W        W10267  10.721  26.540  12.011
46324W        W10268  28.439   5.723   2.410
46325W        W10269  40.431   4.713   1.281
46326W        W10270  13.243  12.121   2.332
46327W        W10271  15.111  35.003   0.828
46328W        W10272   7.256  40.908  14.025
46329W        W10273  22.203   8.322  12.531
46330W        W10274  38.544  37.546   4.129
46331W        W10275  15.225  24.676   3.780
46332W        W10276  28.650  35.875  12.037
46333W        W10277   7.756  22.069  10.548
46334W        W10278   2.367  13.803   0.421
46335W        W10279  16.270  32.527  14.825
46336W        W10280   2.770  28.612  12.018
46337W        W10281  35.453  28.580  11.017
46338W        W10282  36.943   3.372  12.072
46339W        W10283  29.924  20.574   3.730
46340W        W10284  33.417  36.068   3.378
46341W        W10285   5.761  31.552   3.694
46342W        W10286  38.899   3.865   5.223
46343W        W10287   5.722   1.342   1.436
46344W        W10288  30.022  30.986   2.858
46345W        W10289  24.974  16.579   2.276
46346W        W10290  13.327  32.934  13.362
46347W        W10291  40.341  23.510   3.795
46348W        W10292  37.562   0.887  13.524
46349W        W10293  12.854  20.664   2.369
46350W        W10294   5.840   1.253  14.446
46351W        W10295  28.001  24.000  11.056
46352W        W10296  14.116  40.413  13.986
46353W        W10297  35.413  15.816  11.073
46354W        W10298   4.449  23.671   0.429
46355W        W10299  37.404  12.802   0.475
46356W        W10300  27.163   6.890  11.460
46357W        W10301  13.703  40.314   1.364
46358W        W10302  16.215   8.775   5.270
46359W        W10303  44.820  31.459   1.443
46360W        W10304   8.386   5.750  13.840
46361W        W10305  34.049  36.410   3.204
46362W        W10306  20.708   3.430  11.611
46363W        W10307  30.434   1.431   3.384
46364W        W10308  23.714   4.831  10.126
46365W        W10309   7.872   7.871  10.440
46366W        W10310  16.186  14.810  14.454
46367W        W10311  34.551  10.669  11.596
46368W        W10312  36.004  28.590  11.609
46369W        W10313  41.946  44.795   4.837
46370W        W10314  17.151  41.036  11.613
46371W        W10315  42.395  21.086   1.916
46372W        W10316  11.315   8.223   4.269
46373W        W10317  21.587  28.020  14.973
46374W        W10318  14.650  21.199  14.287
46375W        W10319  38.896  22.010  11.445
46376W        W10320   2.807  30.113  13.831
46377W        W10321  44.293  32.634   2.879
46378W        W10322  31.940  34.572  13.058
46379W        W10323  21.256  13.735   2.779
46380W        W10324  44.008  26.011  13.846
46381W        W10325  22.159  17.623  11.126
46382W        W10326  15.201  43.341   2.304
46383W        W10327  37.559  13.121   3.279
46384W        W10328   5.343  35.933   5.234
46385W        W10329  11.237  40.859  11.538
46386W        W10330  35.599   2.827   0.936
46387W        W10331  22.634  35.384  14.973
46388W        W10332  17.148  17.619   3.360
46389W        W10333   7.823   7.886   2.351
46390W        W10334   6.743   4.755  14.008
46391W        W10335  44.934  35.995   3.712
46392W        W10336  26.990  10.651   1.281
46393W        W10337  17.690  17.076   4.649
46394W        W10338   5.883  36.056   1.798
46395W        W10339   2.326  21.231  11.013
46396W        W10340  24.507   7.364  14.952
46397W        W10341  29.080  28.680   0.901
46398W        W10342  36.860   8.664   2.845
46399W        W10343  17.085  16.781  10.642
46400W        W10344  13.775  37.454   0.800
46401W        W10345  26.963  43.854   1.733
46402W        W10346  31.499  23.146  10.502
46403W        W10347   5.853  22.633  11.388
46404W        W10348  37.896  16.782  12.378
46405W        W10349  34.416  38.863   1.814
46406W        W10350  19.716  23.617  11.557
46407W        W10351  42.324   6.354  14.368
46408W        W10352  16.273   3.914   3.782
46409W        W10353  10.337  10.333  14.401
46410W        W10354  33.111  27.458   0.365
46411W        W10355   8.707   8.835  12.546
46412W        W10356   5.918  14.118  12.388
46413W        W10357   1.279  37.536   5.200
46414W        W10358   9.722  34.914  14.950
46415W        W10359  18.573  38.486  11.954
46416W        W10360  40.869   3.776   2.663
46417W        W10361  18.692  11.261  14.923
46418W        W10362  25.597  38.010   2.319
46419W        W10363  37.410  44.362  12.028
46420W        W10364   9.861  40.316   0.758
46421W        W10365  14.110   4.895  14.885
46422W        W10366  13.603   5.201   1.827
46423W        W10367  15.137  39.047  11.033
46424W        W10368  14.266   7.728   2.725
46425W        W10369   8.208   2.309  14.515
46426W        W10370   8.853   0.431   1.410
46427W        W10371  34.434  19.589  12.476
46428W        W10372  11.144  21.603   1.424
46429W        W10373  34.601  29.664   3.728
46430W        W10374  44.301  22.239   2.734
46431W        W10375  16.748   9.252   1.376
46432W        W10376  34.093  42.482   0.467
46433W        W10377  31.896  39.498  11.017
46434W        W10378   0.458  24.691   1.787
46435W        W10379  28.448  30.646  11.578
46436W        W10380  39.949  22.647  14.307
46437W        W10381   3.948   2.461  11.860
46438W        W10382  21.137  35.072   2.385
46439W        W10383  33.613  42.949   1.390
46440W        W10384  23.583  31.423  13.376
46441W        W10385  11.304   1.802  10.531
46442W        W10386  43.374   9.838   4.824
46443W        W10387   3.355  21.587   0.747
46444W        W10388  21.035  17.176   1.307
46445W        W10389   4.378  26.673  10.961
46446W        W10390   9.176  12.122   1.334
46447W        W10391  10.700  14.819   2.415
46448W        W10392   2.346  22.598   3.717
46449W        W10393   8.893  39.926   1.853
46450W        W10394  21.572  30.455   0.951
46451W        W10395   5.234   6.826  14.489
46452W        W10396   2.286   1.349  14.004
46453W        W10397  11.846   0.343   0.455
46454W        W10398  30.909  25.626  12.973
46455W        W10399  40.478  36.988  13.390
46456W        W10400  15.666  29.145   0.777
46457W        W10401  42.374  41.453  13.936
46458W        W10402  44.000  42.421  12.006
46459W        W10403   8.744  20.063   1.796
46460W        W10404  12.641   3.742   0.331
46461W        W10405  41.901  37.487   0.777
46462W        W10406   4.932  31.508   3.793
46463W        W10407  41.806   8.285  11.052
46464W        W10408  12.626  13.339  10.469
46465W        W10409  10.184   6.736   0.770
46466W        W10410  40.406  43.506  12.019
46467W        W10411   5.381  20.538  14.402
46468W        W10412   5.245  31.900   1.844
46469W        W10413   9.394   2.351   4.313
46470W        W10414  16.812  16.189   2.673
46471W        W10415  36.063  16.646   3.651
46472W        W10416   3.840  12.358   4.266
46473W        W10417  31.505   5.317   3.171
46474W        W10418   6.190  34.578  14.967
46475W        W10419  41.384  36.009  10.562
46476W        W10420   3.919   6.717   0.381
46477W        W10421  28.047   5.841   3.344
46478W        W10422  18.678  13.119   0.864
46479W        W10423  25.625  34.387   4.155
46480W        W10424  25.584  34.984  10.466
46481W        W10425  40.891  21.163  13.037
46482W        W10426  36.023   2.759   3.629
46483W        W10427  31.455  15.693  11.483
46484W        W10428  40.379  14.816  13.804
46485W        W10429  21.556  33.595  12.341
46486W        W10430  27.010  30.572   9.934
46487W        W10431  16.127  28.933  13.440
46488W        W10432  42.932   5.860  13.525
46489W        W10433  17.694  26.589  13.945
46490W        W10434  21.045  23.575   0.965
46491W        W10435   7.722   3.734   3.753
46492W        W10436  25.185  15.324  12.900
46493W        W10437  39.426  24.123   1.291
46494W        W10438  22.696  31.505  12.342
46495W        W10439  16.669  30.498   0.260
46496W        W10440  44.335  26.011   0.395
46497W        W10441  19.550  31.053   4.173
46498W        W10442  14.155   4.226  13.943
46499W        W10443   7.322  22.062   0.850
46500W        W10444  32.120  35.603   2.286
46501W        W10445  28.576   2.888  14.365
46502W        W10446  31.608  41.365   1.881
46503W        W10447  39.963  16.306   3.793
46504W        W10448  25.087  38.557   1.255
46505W        W10449  14.161  21.644   1.757
46506W        W10450  40.859   6.775  12.451
46507W        W10451  27.148  18.628   4.723
46508W        W10452   0.750   7.322   0.433
46509W        W10453  31.903  38.515   3.712
46510W        W10454  39.008  34.031   2.236
46511W        W10455  22.070  18.745   4.148
46512W        W10456  36.087  36.511   2.181
46513W        W10457  32.493  12.219   2.337
46514W        W10458  44.441  37.914  12.406
46515W        W10459  32.065  20.170  11.435
46516W        W10460   6.774   6.681  14.341
46517W        W10461  31.055  16.313   0.957
46518W        W10462  42.891  17.080  14.005
46519W        W10463   9.392  39.898  13.411
46520W        W10464  43.867   1.793   1.360
46521W        W10465  30.574  15.231  11.968
46522W        W10466  23.181   2.792  12.383
46523W        W10467  27.465  25.551  14.896
46524W        W10468  26.030   1.402   1.392
46525W        W10469  18.679  33.923  12.419
46526W        W10470  37.344  27.142   3.757
46527W        W10471  11.302   9.885  14.923
46528W        W10472  38.966  37.469   4.173
46529W        W10473  41.842  41.322   2.317
46530W        W10474  22.703  29.494  11.993
46531W        W10475  32.117  33.544  10.497
46532W        W10476  42.908   8.821   1.706
46533W        W10477  36.391  12.765  14.908
46534W        W10478  17.099  30.910  14.424
46535W        W10479  14.252  38.473   4.805
46536W        W10480  32.001  20.552  11.994
46537W        W10481  17.244  27.688   3.768
46538W        W10482   0.267  34.060   4.659
46539W        W10483  35.596  23.683  11.884
46540W        W10484  23.674  44.788   1.253
46541W        W10485  10.351   1.248   0.295
46542W        W10486  25.060  15.646   2.900
46543W        W10487  42.856  29.550  13.433
46544W        W10488  23.566  11.138  11.078
46545W        W10489  20.685   4.417   0.404
46546W        W10490  41.353  42.400  13.873
46547W        W10491   3.711  26.096   2.393
46548W        W10492  13.193  21.553   4.329
46549W        W10493  21.706  25.167   5.164
46550W        W10494  12.637   7.711  14.006
46551W        W10495  41.368   8.749   2.666
46552W        W10496  15.132  15.809  14.962
46553W        W10497   7.183  42.808  11.477
46554W        W10498  35.004  34.611   5.279
46555W        W10499  11.301  11.133   4.298
46556W        W10500  20.172  44.846  11.981
46557W        W10501  44.381  22.176  11.101
46558W        W10502  29.113  34.993   2.683
46559W        W10503   4.243  16.097  10.452
46560W        W10504   5.317  44.490   0.408
46561W        W10505  18.608   5.875   4.167
46562W        W10506  37.982  37.558  10.988
46563W        W10507   1.849  41.368   0.926
46564W        W10508   0.948  12.770   2.666
46565W        W10509  20.261  25.049  13.507
46566W        W10510  36.429  30.510  11.587
46567W        W10511  26.200   0.841  11.607
46568W        W10512  43.336  43.354   3.735
46569W        W10513  25.706  38.545  14.998
46570W        W10514  24.705  29.075  14.488
46571W        W10515  26.533  32.505   2.218
46572W        W10516   9.824  37.881   4.187
46573W        W10517  24.650   4.701  12.844
46574W        W10518   7.690  30.578   4.220
46575W        W10519   1.239   2.891   3.692
46576W        W10520  36.968  12.235  10.990
46577W        W10521  22.552  20.230  10.098
46578W        W10522  29.984  39.343   2.244
46579W        W10523  21.245  42.917   9.963
46580W        W10524  24.490  42.928  10.621
46581W        W10525  13.113  19.569  14.903
46582W        W10526  28.674  29.929  12.493
46583W        W10527  13.686   3.361  14.278
46584W        W10528  40.333   3.280   4.622
46585W        W10529   8.882   3.799  13.496
46586W        W10530  25.571  44.396  13.327
46587W        W10531   5.782  26.462  13.366
46588W        W10532   5.739  23.668  13.530
46589W        W10533  35.977   2.298   0.448
46590W        W10534   6.682  11.813   0.478
46591W        W10535  30.553  10.711   0.832
46592W        W10536  15.665  24.675   0.748
46593W        W10537  21.026  12.816  12.080
46594W        W10538  28.096  44.955  14.378
46595W        W10539  44.365   2.414   3.170
46596W        W10540  39.402  14.616   1.367
46597W        W10541  43.875  21.130  11.990
46598W        W10542  34.984  37.391  10.907
46599W        W10543  11.715  28.651   3.767
46600W        W10544   1.410  43.350  14.502
46601W        W10545   8.348  29.492  12.044
46602W        W10546  23.735  43.937  12.090
46603W        W10547  43.865  12.163   0.427
46604W        W10548  31.618   0.963   4.191
46605W        W10549   0.937   1.304  14.486
46606W        W10550  32.102  43.398   2.184
46607W        W10551   3.247  34.979   2.311
46608W        W10552  44.417  34.935   5.098
46609W        W10553  43.873  34.571  14.906
46610W        W10554  17.755  22.721  12.853
46611W        W10555  30.151  10.787   2.711
46612W        W10556  31.941   2.324  14.924
46613W        W10557  41.037  18.078  14.942
46614W        W10558  40.886   2.900  14.806
46615W        W10559  34.091  31.469   4.337
46616W        W10560  41.396  24.995   2.373
46617W        W10561  39.979  11.145  13.400
46618W        W10562   7.674  18.074   2.317
46619W        W10563  22.698  24.673  11.602
46620W        W10564  30.027   4.356  14.440
46621W        W10565   7.335   0.292  14.288
46622W        W10566  19.156  36.076  13.370
46623W        W10567  21.054   7.410   0.331
46624W        W10568  37.392   8.390   1.237
46625W        W10569  26.164  20.054   4.770
46626W        W10570  31.563  40.903  14.863
46627W        W10571  19.063   8.389  12.006
46628W        W10572  26.652  10.304  12.358
46629W        W10573   3.925  21.100  12.481
46630W        W10574   9.257  34.114   0.304
46631W        W10575  12.220  29.104  12.938
46632W        W10576  35.974   7.401   3.645
46633W        W10577  17.782  25.556   2.247
46634W        W10578   1.266  44.977   4.763
46635W        W10579   7.371  10.767  10.526
46636W        W10580   2.912  42.918  14.024
46637W        W10581  13.204  42.989  14.495
46638W        W10582  32.073  29.448   0.801
46639W        W10583   1.789   8.688   0.761
46640W        W10584  34.394  19.621  11.480
46641W        W10585  20.148   6.320   4.144
46642W        W10586  37.557  41.868   2.701
46643W        W10587   9.180  33.965  12.567
46644W        W10588   2.396  44.933  12.402
46645W        W10589   2.261  33.396   4.196
46646W        W10590   9.227  39.506   0.941
46647W        W10591  34.006  42.777  11.054
46648W        W10592  24.508  41.307   1.426
46649W        W10593  12.309  39.062  12.387
46650W        W10594  20.209  24.110   2.220
46651W        W10595  14.300  20.606  13.817
46652W        W10596  28.941   0.397   3.702
46653W        W10597   1.351  40.323   4.776
46654W        W10598  21.583   5.344  14.904
46655W        W10599  13.630  37.930   1.334
46656W        W10600   3.350  37.044  13.421
46657W        W10601   9.247  28.591  10.957
46658W        W10602  44.290  30.434  13.368
46659W        W10603  42.873  36.423   4.721
46660W        W10604   8.774  17.740  13.048
46661W        W10605  26.533  20.721  11.870
46662W        W10606  32.589  27.066   3.654
46663W        W10607  28.978  42.862  14.371
46664W        W10608  23.205  26.501  10.427
46665W        W10609   3.371  30.534   3.765
46666W        W10610   7.188  43.299  12.999
46667W        W10611  22.739  26.648   0.315
46668W        W10612  38.066   8.730   5.294
46669W        W10613  27.611  29.527  12.533
46670W        W10614  29.628  17.273   4.342
46671W        W10615  32.897  27.168   3.637
46672W        W10616   2.324  15.694   0.841
46673W        W10617   7.240   6.676   0.460
46674W        W10618  15.294  35.052  11.985
46675W        W10619  32.060   5.926   3.377
46676W        W10620  33.122  34.964  14.874
46677W        W10621  22.528   9.273  12.379
46678W        W10622  25.511  38.457  12.402
46679W        W10623  30.949  34.577   0.871
46680W        W10624  33.105  22.251  14.319
46681W        W10625   0.440  24.625  14.814
46682W        W10626  15.097  13.291   2.727
46683W        W10627  35.944  19.780  12.941
46684W        W10628  10.844   6.688  11.949
46685W        W10629  12.149  23.678   2.380
46686W        W10630  17.565  42.999   2.383
46687W        W10631  23.088  37.978   3.152
46688W        W10632   3.754  12.816  14.910
46689W        W10633  33.989  15.732   0.419
46690W        W10634  31.475  26.173  11.456
46691W        W10635  15.625  15.189   2.689
46692W        W10636  15.823  22.127   5.196
46693W        W10637   0.953  35.527   3.325
46694W        W10638  27.476  14.707  10.633
46695W        W10639  11.281  20.599  10.596
46696W        W10640  16.216  12.645  13.465
46697W        W10641  36.363  12.824  13.794
46698W        W10642   8.222   1.389   1.856
46699W        W10643  40.539   2.919  10.464
46700W        W10644  19.210   7.688  11.084
46701W        W10645   8.706  22.010   2.736
46702W        W10646  19.758  20.198   2.275
46703W        W10647  20.186  21.027   4.661
46704W        W10648  37.530  23.054   0.466
46705W        W10649  14.339   4.389  14.448
46706W        W10650  26.123  15.239   4.311
46707W        W10651  35.895  36.402  11.495
46708W        W10652  21.727   9.686   1.434
46709W        W10653  15.767  18.569  13.543
46710W        W10654  39.533  11.164  11.965
46711W        W10655  41.831  31.509  12.076
46712W        W10656   2.472  34.601  13.544
46713W        W10657  20.255  36.570  13.526
46714W        W10658  23.662  24.026   1.407
46715W        W10659  17.133   1.418   2.273
46716W        W10660  17.160  26.056   1.811
46717W        W10661   9.348  41.956   4.724
46718W        W10662  21.557   8.823   3.688
46719W        W10663   3.233  33.911   3.240
46720W        W10664   3.868  16.127   1.734
46721W        W10665  32.126  12.789  11.445
46722W        W10666  29.428  20.082  12.368
46723W        W10667  17.644   8.215   3.740
46724W        W10668   3.460  37.451  10.012
46725W        W10669  10.208  12.324  12.049
46726W        W10670   6.786   6.388  12.374
46727W        W10671   6.912  29.925   1.925
46728W        W10672  43.958  13.605  10.574
46729W        W10673  17.801  10.811  13.935
46730W        W10674  24.548  43.331   0.881
46731W        W10675  29.538  20.152   0.779
46732W        W10676  39.905  32.885  12.421
46733W        W10677   9.243  18.134   2.387
46734W        W10678   8.757   9.339  13.868
46735W        W10679  27.593  10.141   2.786
46736W        W10680  39.041   2.449  11.503
46737W        W10681  41.500  36.558   1.231
46738W        W10682  25.645  12.659   0.936
46739W        W10683   7.350  16.111   2.867
46740W        W10684  41.873  28.675   2.340
46741W        W10685  31.960  27.115  10.959
46742W        W10686  27.489  28.680   1.291
46743W        W10687  19.692  20.657   4.141
46744W        W10688  14.714  10.733  10.576
46745W        W10689   5.329  42.817  11.401
46746W        W10690  11.715  19.648   1.791
46747W        W10691  44.381  15.189  13.810
46748W        W10692  34.539  12.787   2.751
46749W        W10693  20.678  27.147   2.821
46750W        W10694  42.415  12.726  11.002
46751W        W10695   5.203  34.522  12.947
46752W        W10696   9.716  39.891  10.948
46753W        W10697  36.037   3.224  13.798
46754W        W10698  20.571  27.106   3.339
46755W        W10699  15.789   2.398   5.180
46756W        W10700  25.021  41.374  10.037
46757W        W10701  41.467   0.274  11.032
46758W        W10702   4.208  34.966  14.825
46759W        W10703  29.461  39.385   4.278
46760W        W10704  37.966  40.346   0.354
46761W        W10705   1.271  17.583   2.239
46762W        W10706  31.566  26.526  11.980
46763W        W10707  12.680  40.042  12.833
46764W        W10708   4.937  36.559   0.399
46765W        W10709   8.774  43.768  12.542
46766W        W10710  26.555  34.511   4.274
46767W        W10711  18.644  33.610  10.624
46768W        W10712  20.621  23.506   4.690
46769W        W10713   6.883  34.009   4.733
46770W        W10714  37.490  42.834  12.015
46771W        W10715  21.101  15.751   1.269
46772W        W10716  19.045  23.636   0.474
46773W        W10717  40.962   9.786   0.355
46774W        W10718   1.432   3.405  11.611
46775W        W10719  21.052  22.116   2.770
46776W        W10720  16.310   7.803  10.998
46777W        W10721  43.384  43.443  12.411
46778W        W10722  36.580  15.645   2.893
46779W        W10723  37.354   5.374   3.786
46780W        W10724  33.512  14.704  11.072
46781W        W10725  14.662  44.933   3.695
46782W        W10726   5.371  42.334   1.430
46783W        W10727  42.869  42.368  11.454
46784W        W10728   6.387   1.791   5.153
46785W        W10729  28.970  12.233  11.110
46786W        W10730  16.664  28.122  14.912
46787W        W10731  38.393  12.322   2.861
46788W        W10732  12.211  34.470   2.407
46789W        W10733  20.548  10.812  12.826
46790W        W10734  37.004  32.932  13.347
46791W        W10735  21.526  39.441   0.817
46792W        W10736  35.032  19.246  13.507
46793W        W10737   5.237  17.074  10.077
46794W        W10738   9.832  13.631  11.507
46795W        W10739  31.637  19.213   9.522
46796W        W10740  23.499  38.005  11.418
46797W        W10741   1.790  27.116   4.628
46798W        W10742  24.110  13.273   1.792
46799W        W10743   0.779   2.413  10.565
46800W        W10744  23.548   4.299   0.882
46801W        W10745  39.526  37.420   0.308
46802W        W10746  17.786  39.996  13.943
46803W        W10747  18.253   4.374  14.356
46804W        W10748  10.687  34.868   0.798
46805W        W10749  21.679  34.608   3.310
46806W        W10750  41.328  41.430  10.932
46807W        W10751  24.674  17.647   3.369
46808W        W10752  38.492  22.119  14.904
46809W        W10753  41.425  39.401  14.486
46810W        W10754  22.573  17.738   2.211
46811W        W10755  41.312   9.773  12.516
46812W        W10756   7.743  27.993  12.915
46813W        W10757  29.509  27.674   1.363
46814W        W10758  26.621  20.186   1.318
46815W        W10759  19.715  18.649  13.961
46816W        W10760  16.289   9.847   0.854
46817W        W10761  19.637   7.197   0.966
46818W        W10762   8.196  16.215  12.018
46819W        W10763  36.881  28.540   0.445
46820W        W10764  26.128  32.030  13.961
46821W        W10765   6.898   4.441  13.917
46822W        W10766  35.585  33.984  13.923
46823W        W10767  32.098   2.442  11.590
46824W        W10768  11.317   3.365   5.800
46825W        W10769  38.418  21.750   2.700
46826W        W10770  25.468  26.685   5.243
46827W        W10771   2.373   2.319  14.326
46828W        W10772  14.150  38.559  13.371
46829W        W10773  43.396  40.368   1.362
46830W        W10774   6.368  36.403   1.249
46831W        W10775  26.067  22.541  13.850
46832W        W10776   0.337  27.600  13.045
46833W        W10777   3.943  30.428  10.612
46834W        W10778  23.012  34.044   4.733
46835W        W10779   0.906   8.376   1.297
46836W        W10780  34.074  31.114  14.516
46837W        W10781  37.389  11.799  10.895
46838W        W10782  14.284  37.352  12.083
46839W        W10783  38.566  42.846  13.394
46840W        W10784  19.700  42.021   2.721
46841W        W10785  36.417  32.086  13.982
46842W        W10786   9.773  14.617   4.605
46843W        W10787  37.380  24.000  13.540
46844W        W10788  23.030  10.633  10.934
46845W        W10789   0.369   7.194   9.618
46846W        W10790   4.879  15.117   4.655
46847W        W10791  34.051  33.987   3.674
46848W        W10792   7.401  31.149   2.379
46849W        W10793  13.133  34.089  13.493
46850W        W10794  44.980  28.150  13.991
46851W        W10795   8.219  34.094   2.309
46852W        W10796  29.942  15.299  12.841
46853W        W10797  43.320  32.943   4.273
46854W        W10798   7.782   7.792  14.490
46855W        W10799   3.917  36.549  14.803
46856W        W10800  15.178  13.789   4.345
46857W        W10801   3.320  22.061  12.423
46858W        W10802  18.586   3.748   0.308
46859W        W10803  15.152   8.847  10.510
46860W        W10804   9.388  11.208   0.863
46861W        W10805  41.040  34.513   2.257
46862W        W10806  16.807  14.800   1.384
46863W        W10807  23.050  10.314  12.930
46864W        W10808   2.884   5.273   2.855
46865W        W10809  39.995  11.665   0.258
46866W        W10810  14.594  25.470   1.340
46867W        W10811  13.807  14.825  12.458
46868W        W10812  43.461  22.683  10.085
46869W        W10813  24.719  11.172   3.737
46870W        W10814  24.222  24.083  10.591
46871W        W10815  17.591   7.289  12.986
46872W        W10816  27.079  25.642  10.471
46873W        W10817  32.396  36.045   0.844
46874W        W10818  18.134  18.657   3.697
46875W        W10819  32.392   9.643  10.469
46876W        W10820   5.817   8.769   2.822
46877W        W10821  23.572  27.969   3.780
46878W        W10822  31.518  28.030  10.425
46879W        W10823  13.351  40.335   3.303
46880W        W10824  22.131  16.569   2.794
46881W        W10825   9.288   0.789  14.438
46882W        W10826  30.474   8.276  13.937
46883W        W10827   5.863  15.650   0.816
46884W        W10828  18.731  14.592   4.776
46885W        W10829  35.586  40.420  11.568
46886W        W10830  16.616  25.108   2.210
46887W        W10831  43.475   8.686  14.011
46888W        W10832  32.117   0.965   2.352
46889W        W10833  26.533  30.465   2.744
46890W        W10834  17.295   8.335  14.945
46891W        W10835  18.548  10.741   4.120
46892W        W10836  20.257  41.866   3.321
46893W        W10837   8.871  40.358   5.114
46894W        W10838  25.558   9.886   2.736
46895W        W10839   0.987   3.266   4.343
46896W        W10840   7.203  18.182   0.849
46897W        W10841   9.386   5.804   0.407
46898W        W10842   3.854   3.360   0.316
46899W        W10843  33.963  33.026  12.480
46900W        W10844  17.089  38.462  12.861
46901W        W10845  18.608   5.326  11.118
46902W        W10846  33.987  14.688  11.972
46903W        W10847  39.049  13.320   3.762
46904W        W10848   0.349  18.239   0.452
46905W        W10849  34.895   2.887   0.242
46906W        W10850  27.197  25.039  12.414
46907W        W10851  34.482  17.729   4.332
46908W        W10852  27.057  24.127   3.629
46909W        W10853  26.591   5.842  12.560
46910W        W10854  15.653  32.896   4.234
46911W        W10855  22.635  44.430  10.552
46912W        W10856  11.740  23.658   2.791
46913W        W10857  30.454  40.022   2.840
46914W        W10858  42.919   9.217  11.534
46915W        W10859  15.102  14.599   0.846
46916W        W10860  14.755  14.096  10.578
46917W        W10861   0.429  37.035   0.755
46918W        W10862  25.694  14.619   2.802
46919W        W10863  30.129  43.459  11.504
46920W        W10864   2.471  26.495  11.010
46921W        W10865  18.260   4.766  11.401
46922W        W10866   7.280  30.543   3.862
46923W        W10867  36.481  18.240  11.872
46924W        W10868  20.100  16.112  14.936
46925W        W10869  37.508   2.768   1.378
46926W        W10870  37.971  12.640   1.238
46927W        W10871  32.981   9.813  12.421
46928W        W10872  33.589  24.493   0.384
46929W        W10873  38.413  17.152   4.353
46930W        W10874   7.346  17.119  13.032
46931W        W10875   8.819  34.525  11.492
46932W        W10876  17.076  34.942   2.303
46933W        W10877  25.964   4.833   0.303
46934W        W10878  36.082  23.504  10.427
46935W        W10879  44.753   3.822   4.327
46936W        W10880  18.125  10.304   4.779
46937W        W10881  44.361  41.830   0.256
46938W        W10882  15.232  43.955   1.216
46939W        W10883  29.604  21.228   3.804
46940W        W10884  43.005   0.953   3.224
46941W        W10885  23.160  12.260  11.908
46942W        W10886   6.881   8.892   5.160
46943W        W10887  25.076  38.338  14.967
46944W        W10888  15.315  31.136   3.339
46945W        W10889  36.897  11.849   1.814
46946W        W10890  14.190  35.572   0.269
46947W        W10891  28.650  37.985  14.393
46948W        W10892  22.689   6.320   3.719
46949W        W10893   4.263  34.059   1.441
46950W        W10894  13.845  40.874  11.592
46951W        W10895  36.373  20.236   0.321
46952W        W10896  17.148  38.480  14.940
46953W        W10897  27.131  17.138   0.421
46954W        W10898  27.519   5.808  14.969
46955W        W10899  31.037  42.026   4.167
46956W        W10900  15.172  28.943   1.402
46957W        W10901  42.310  37.878   0.385
46958W        W10902  42.290  18.147   0.390
46959W        W10903  20.613  43.998  10.560
46960W        W10904  42.973  38.338   0.921
46961W        W10905   6.312  42.404   0.288
46962W        W10906   7.268  42.471  14.844
46963W        W10907  21.035   1.329  14.497
46964W        W10908  38.956  23.694  14.387
46965W        W10909  15.166  23.125  10.581
46966W        W10910  43.470  14.682   3.310
46967W        W10911  43.363   1.967  10.096
46968W        W10912  13.746  10.826  14.459
46969W        W10913   6.910  16.250  11.129
46970W        W10914  20.690   6.389  12.409
46971W        W10915  16.806  14.667  12.946
46972W        W10916  25.125  44.463   4.115
46973W        W10917  30.949  24.604  11.458
46974W        W10918   6.848  43.848   0.843
46975W        W10919  12.309  31.466   1.711
46976W        W10920  16.707  26.556   1.864
46977W        W10921   9.658  41.440   4.617
46978W        W10922  40.026  25.596  11.993
46979W        W10923  29.130  19.592  13.820
46980W        W10924   4.841   4.424   1.788
46981W        W10925  10.695  17.174   4.798
46982W        W10926  39.036   3.295  11.886
46983W        W10927   9.233  23.673  13.845
46984W        W10928  38.038  20.600  12.964
46985W        W10929  22.013   9.716   0.904
46986W        W10930  24.212  11.310   4.708
46987W        W10931  25.024  21.566   2.402
46988W        W10932  19.238   9.219   3.791
46989W        W10933  29.957   3.294  10.641
46990W        W10934   7.776   2.344  13.036
46991W        W10935   7.356  14.186   3.849
46992W        W10936   3.729  29.665   1.280
46993W        W10937  37.968  16.117   4.351
46994W        W10938  44.465  13.752   0.806
46995W        W10939  25.015   4.332   1.721
46996W        W10940  29.050  44.410   0.944
46997W        W10941   2.958  35.374  11.484
46998W        W10942  19.043   4.236   0.877
46999W        W10943  17.209  10.260  14.340
47000W        W10944  32.990  44.910  12.485
47001W        W10945   1.323  15.583   1.770
47002W        W10946  12.726  25.674  11.483
47003W        W10947   1.874  27.541  12.574
47004W        W10948  34.874  38.460   2.358
47005W        W10949  18.562  42.821   0.761
47006W        W10950  13.824  34.063  11.957
47007W        W10951   7.258  40.486  13.052
47008W        W10952  16.149   9.286   3.209
47009W        W10953  41.835  33.114   1.865
47010W        W10954  11.766  32.072   2.756
47011W        W10955  13.226  33.592  14.513
47012W        W10956  27.535   4.353  11.951
47013W        W10957   4.790   7.384   3.315
47014W        W10958  26.607  16.810   0.309
47015W        W10959  13.270  11.185   4.668
47016W        W10960  23.598   9.348  11.372
47017W        W10961   8.243  15.300   9.623
47018W        W10962  14.734  36.463  11.115
47019W        W10963  15.809  41.817  11.128
47020W        W10964  26.161  43.839   1.331
47021W        W10965  42.016  23.030   1.915
47022W        W10966  41.451  24.225  10.609
47023W        W10967   2.791  39.330   2.355
47024W        W10968  24.141  38.020  11.010
47025W        W10969  34.901  26.988  13.979
47026W        W10970  21.245  12.139  12.864
47027W        W10971   3.735   4.805   1.740
47028W        W10972  19.178  13.203  13.815
47029W        W10973   6.241  24.596   1.732
47030W        W10974   6.303  17.611  13.439
47031W        W10975   7.766   3.904   0.442
47032W        W10976   7.852  12.310  10.482
47033W        W10977  24.483  29.943  11.504
47034W        W10978  14.278  34.612  13.954
47035W        W10979  13.685  38.474  10.563
47036W        W10980  43.419  15.751   2.217
47037W        W10981  12.739  36.582  13.997
47038W        W10982  14.613  41.848   4.798
47039W        W10983  29.628  13.631  10.981
47040W        W10984  16.567  28.631  11.049
47041W        W10985  34.988  10.277  14.323
47042W        W10986  20.157  44.917   1.425
47043W        W10987   5.695  26.473   2.821
47044W        W10988   6.253   6.685  11.059
47045W        W10989  17.233  39.456  10.997
47046W        W10990  41.292  29.023   4.324
47047W        W10991  35.879  13.615   4.259
47048W        W10992  32.099  33.931  11.564
47049W        W10993  32.609  11.236   1.785
47050W        W10994  34.985   2.328  12.086
47051W        W10995  25.558  27.076   2.714
47052W        W10996  14.293  44.398   3.383
47053W        W10997  13.139   7.389   4.818
47054W        W10998  15.793  31.967  12.052
47055W        W10999  12.175   4.846  12.066
47056W        W11000  11.730  16.086  11.056
47057W        W11001   0.483  30.449   0.298
47058W        W11002  11.320  24.610   0.280
47059W        W11003  13.621   1.357  14.903
47060W        W11004   6.848  16.176   2.279
47061W        W11005  34.994   8.232  11.381
47062W        W11006  30.445  36.987  12.544
47063W        W11007  20.550  17.616  14.832
47064W        W11008  20.083  39.819   2.903
47065W        W11009  15.299   2.819  13.904
47066W        W11010  12.329  12.679   2.270
47067W        W11011   4.899  34.473   3.636
47068W        W11012  39.452  25.576  10.512
47069W        W11013  16.179  35.012   4.318
47070W        W11014  24.171   1.871   0.371
47071W        W11015  29.564  43.501  11.868
47072W        W11016  21.195  14.155  13.979
47073W        W11017  27.604   9.394  14.449
47074W        W11018  36.497  18.153   1.871
47075W        W11019  22.622  38.068  14.998
47076W        W11020  43.788   4.786  10.598
47077W        W11021  27.543  22.120  12.924
47078W        W11022  41.459  38.036   3.689
47079W        W11023  43.877  44.321   3.708
47080W        W11024   0.902  36.932   4.801
47081W        W11025  26.502  40.928   3.309
47082W        W11026  37.504  14.156   0.912
47083W        W11027  26.080  17.154  12.526
47084W        W11028  25.663  24.037   3.829
47085W        W11029   3.770  24.629   3.226
47086W        W11030   7.683  28.570   5.788
47087W        W11031  20.721  28.584   0.279
47088W        W11032  41.514   4.703  14.901
47089W        W11033  21.241   8.225  12.348
47090W        W11034  43.854  39.366   4.269
47091W        W11035  32.929   5.748   3.177
47092W        W11036  35.566  27.978   0.386
47093W        W11037  26.205  35.068   3.762
47094W        W11038  43.885  15.280   2.370
47095W        W11039  35.065  24.093  10.531
47096W        W11040  14.641  11.720  14.812
47097W        W11041   9.281  26.464  12.944
47098W        W11042  33.040  27.601   1.800
47099W        W11043   0.464  27.014  13.008
47100W        W11044  39.036  19.675  14.793
47101W        W11045   3.301  37.360   0.852
47102W        W11046  34.920   2.862  12.909
47103W        W11047  17.558  18.277   0.471
47104W        W11048  35.955   1.442  11.859
47105W        W11049  15.277  36.896   2.260
47106W        W11050  13.235  24.056  14.792
47107W        W11051   0.468  42.301  11.408
47108W        W11052  43.986  41.920   2.834
47109W        W11053   9.839  13.192   0.890
47110W        W11054  33.902  25.966   2.763
47111W        W11055  44.872   4.207   3.209
47112W        W11056   7.294  18.560   1.416
47113W        W11057   8.774  17.734  13.948
47114W        W11058   8.319  36.357   2.804
47115W        W11059  14.244  13.805  13.799
47116W        W11060  19.595   7.301  12.447
47117W        W11061  38.333   8.895   3.315
47118W        W11062   1.474  21.646  10.893
47119W        W11063  42.296   9.177  10.999
47120W        W11064  42.283   9.293  13.475
47121W        W11065   9.250   8.309  11.574
47122W        W11066  22.551  17.604  11.984
47123W        W11067  34.446  21.743   0.941
47124W        W11068  38.042  10.212   4.184
47125W        W11069  19.722  12.621   4.744
47126W        W11070   5.267   7.368  10.603
47127W        W11071   0.912  28.058  10.921
47128W        W11072  38.467   9.154  12.029
47129W        W11073   4.735   2.957  11.453
47130W        W11074  13.309  32.069  12.368
47131W        W11075  30.994  21.736  13.366
47132W        W11076  44.505  23.202   1.935
47133W        W11077   5.824  44.426  10.022
47134W        W11078  13.817  30.962   2.286
47135W        W11079  37.000  26.569   1.231
47136W        W11080  39.988  20.572   0.304
47137W        W11081  29.030  22.108  13.924
47138W        W11082  38.922  26.118  10.982
47139W        W11083  20.591  10.157  10.572
47140W        W11084  24.090  18.263   4.284
47141W        W11085  20.572  12.248   1.367
47142W        W11086  16.726   5.695   5.240
47143W        W11087  12.346  44.435  13.437
47144W        W11088  24.063  40.391  11.086
47145W        W11089  39.839  14.295  12.071
47146W        W11090  31.077  14.828   1.893
47147W        W11091  12.175  17.148  10.531
47148W        W11092  18.213  43.918   4.762
47149W        W11093  29.986  20.187  12.502
47150W        W11094  30.629  36.850  13.008
47151W        W11095  30.159  12.618  11.510
47152W        W11096   7.896  13.141  14.957
47153W        W11097  16.110  15.218   3.330
47154W        W11098  24.701  17.284   1.252
47155W        W11099   7.846  29.976  13.935
47156W        W11100  32.528  20.642  10.445
47157W        W11101   6.791  28.989   4.675
47158W        W11102   8.290  34.591   4.351
47159W        W11103   3.429  36.873   0.319
47160W        W11104  41.957  16.206   3.805
47161W        W11105  17.135  35.919   3.853
47162W        W11106  24.702  22.523  14.992
47163W        W11107  31.921  33.110  13.433
47164W        W11108  13.704  16.177  10.509
47165W        W11109  38.398  31.435   4.699
47166W        W11110  27.186  34.066  14.487
47167W        W11111  15.299   0.850  12.358
47168W        W11112   7.769  36.873   1.372
47169W        W11113  19.598   6.886  10.009
47170W        W11114  40.547  39.809   4.730
47171W        W11115   0.926  22.574   5.096
47172W        W11116  25.524   5.901  10.907
47173W        W11117  40.898  13.642   0.413
47174W        W11118  20.679  22.747  10.415
47175W        W11119  40.900  27.584   0.346
47176W        W11120   5.799  39.037  14.417
47177W        W11121  27.671  34.369   2.758
47178W        W11122   4.942  41.348   4.829
47179W        W11123  12.324  29.999   4.833
47180W        W11124  34.920  11.695  12.467
47181W        W11125  35.535   9.369   4.765
47182W        W11126   3.242  26.468   3.708
47183W        W11127  10.336  28.600   4.142
47184W        W11128  28.680  14.189  11.514
47185W        W11129  37.539   0.794   0.456
47186W        W11130  29.626  13.167  10.996
47187W        W11131  36.055   8.782   2.762
47188W        W11132  37.410  15.736   0.258
47189W        W11133  13.841   4.941  11.479
47190W        W11134  26.979  30.657   5.105
47191W        W11135  27.616  40.013   1.330
47192W        W11136  18.215  20.039  11.438
47193W        W11137   7.722   2.872  13.522
47194W        W11138  34.509   0.431  11.927
47195W        W11139  31.906  13.738  12.346
47196W        W11140  18.099  20.603   9.985
47197W        W11141  31.963  15.594  12.437
47198W        W11142   7.846  12.611   1.268
47199W        W11143  40.968  32.065  11.602
47200W        W11144  36.038  23.034   1.784
47201W        W11145  41.525  31.023  13.032
47202W        W11146  25.531  14.764  14.416
47203W        W11147  28.678  12.696   1.708
47204W        W11148  37.052  17.643  10.493
47205W        W11149  26.973   9.755  11.429
47206W        W11150  35.969  37.042  11.408
47207W        W11151  33.464  10.757  12.422
47208W        W11152  20.566   4.823  10.422
47209W        W11153  20.085  12.251  12.945
47210W        W11154  13.265  13.179  11.967
47211W        W11155  36.404  17.269   0.417
47212W        W11156  21.125  25.079   3.230
47213W        W11157  43.931  43.430  14.835
47214W        W11158  16.072   2.904  14.345
47215W        W11159  37.389  28.566   0.350
47216W        W11160  38.373  44.397   1.415
47217W        W11161  11.319  30.569  12.901
47218W        W11162   7.414  25.693  14.834
47219W        W11163   8.266  25.591   0.922
47220W        W11164  28.125   0.960   1.704
47221W        W11165  35.028  22.238   0.910
47222W        W11166  44.426  13.316   1.695
47223W        W11167  17.187  33.979   3.748
47224W        W11168  40.797   5.333  11.096
47225W        W11169  23.175  16.742   0.289
47226W        W11170  42.000  39.995   1.843
47227W        W11171   0.986  24.521   1.807
47228W        W11172  14.317   3.863   3.167
47229W        W11173   1.242   7.885   1.212
47230W        W11174  22.500  41.869  10.939
47231W        W11175  13.830  27.662   1.725
47232W        W11176  21.022  39.971  11.387
47233W        W11177   2.829  23.658   4.131
47234W        W11178  37.995  35.991  13.042
47235W        W11179  17.230   6.394  14.406
47236W        W11180  20.174  12.240   0.449
47237W        W11181  10.322  17.221   3.380
47238W        W11182  32.139   9.849  14.351
47239W        W11183  26.971  28.614   2.728
47240W        W11184  38.417  43.462  11.861
47241W        W11185  25.607  44.796   2.865
47242W        W11186  40.913  32.626   3.843
47243W        W11187  31.916  15.303  14.342
47244W        W11188  17.277  39.905  10.433
47245W        W11189   8.334  19.200   3.730
47246W        W11190   2.767  38.502   2.760
47247W        W11191  32.053   0.981  12.888
47248W        W11192  21.259   9.186   4.275
47249W        W11193  26.090  17.172   3.197
47250W        W11194  12.738  16.176   0.399
47251W        W11195  16.741  33.568  11.094
47252W        W11196  34.958  18.605  10.538
47253W        W11197  24.987  41.958  10.086
47254W        W11198  34.497  40.510  14.475
47255W        W11199  19.650   1.867   2.206
47256W        W11200  16.748  30.154   3.355
47257W        W11201  33.513  29.479   0.350
47258W        W11202  41.926  35.509  10.427
47259W        W11203  32.568  44.457   4.675
47260W        W11204   4.845  15.720  10.990
47261W        W11205  20.190  40.432  13.041
47262W        W11206   3.255  27.981  14.778
47263W        W11207  17.286   9.164   3.360
47264W        W11208  11.313  40.011   0.424
47265W        W11209  21.654   1.425  14.990
47266W        W11210  41.362  21.536  13.334
47267W        W11211  41.413   2.820  11.544
47268W        W11212  11.797   0.908   3.751
47269W        W11213  20.638  16.798  12.426
47270W        W11214  24.483  33.086  14.315
47271W        W11215   1.977  26.123  13.492
47272W        W11216  35.548  30.059   4.304
47273W        W11217  27.574   2.931  12.965
47274W        W11218  19.279  26.008   2.318
47275W        W11219  23.224  42.499  14.850
47276W        W11220  24.082  16.268   2.274
47277W        W11221   4.786  27.097  13.010
47278W        W11222   1.422  19.743  11.921
47279W        W11223  33.536  41.533   2.285
47280W        W11224   3.852  41.505   4.641
47281W        W11225  33.892  28.000  11.568
47282W        W11226  25.131   3.938   3.311
47283W        W11227  37.858  23.205   1.336
47284W        W11228  36.486   8.212   1.354
47285W        W11229  30.979   1.360   0.280
47286W        W11230  10.285   8.207  12.342
47287W        W11231  41.417  37.519  13.007
47288W        W11232  43.507  37.854  11.878
47289W        W11233   0.368  44.850   0.920
47290W        W11234  44.376  10.824   0.800
47291W        W11235  41.028   7.193   4.294
47292W        W11236  44.928  17.663   2.886
47293W        W11237   2.858   9.666   3.686
47294W        W11238  40.384  37.872  14.782
47295W        W11239  27.985   1.806   4.694
47296W        W11240  11.864  37.502  11.459
47297W        W11241   4.728  22.570   3.370
47298W        W11242  35.995  41.391  12.081
47299W        W11243  31.109  38.995  12.081
47300W        W11244  11.676   0.900   1.416
47301W        W11245  36.531  24.021  11.460
47302W        W11246  25.562   1.323  10.625
47303W        W11247  23.996  43.967   2.194
47304W        W11248  23.236  10.747  12.363
47305W        W11249  43.907  21.159   0.875
47306W        W11250  25.551  30.616  13.348
47307W        W11251  38.949  24.715   1.355
47308W        W11252   0.277  37.480   1.823
47309W        W11253  37.430  24.146   3.714
47310W        W11254  41.302  32.080  10.986
47311W        W11255  21.635  37.848   3.846
47312W        W11256  36.855   0.248   4.681
47313W        W11257  20.522  37.394   1.877
47314W        W11258  32.056  19.069  14.848
47315W        W11259  40.807  20.530  13.052
47316W        W11260  29.938  10.796   1.869
47317W        W11261   6.808   0.786  10.434
47318W        W11262  17.789   4.337   1.373
47319W        W11263  25.201  35.436  13.024
47320W        W11264  43.881  32.092   2.327
47321W        W11265  33.427  15.110  14.966
47322W        W11266  19.741  28.092  12.427
47323W        W11267  22.022  41.419   0.961
47324W        W11268  21.144  12.262   1.709
47325W        W11269  31.537   8.714   2.329
47326W        W11270  27.601   0.355   0.795
47327W        W11271   8.170  21.235  12.875
47328W        W11272  17.571  41.810  11.417
47329W        W11273  21.109  44.302   5.292
47330W        W11274  26.985  40.490   3.205
47331W        W11275   2.814  16.669  11.532
47332W        W11276  36.925  26.960  14.015
47333W        W11277  20.725  25.673   9.590
47334W        W11278  14.784  39.492   4.208
47335W        W11279  13.117  13.751   0.837
47336W        W11280  22.103  16.284   3.826
47337W        W11281  42.875  38.370  14.367
47338W        W11282  19.143   6.393   1.739
47339W        W11283   4.251  24.666  12.521
47340W        W11284  19.207  21.118  14.455
47341W        W11285  28.496  28.024  12.906
47342W        W11286   3.366  10.828  13.879
47343W        W11287  27.191  30.153   1.786
47344W        W11288   9.773  20.724  13.357
47345W        W11289  15.585  12.315   3.160
47346W        W11290   8.784  13.113  12.471
47347W        W11291   8.896  21.722   4.203
47348W        W11292  26.153   4.790   2.802
47349W        W11293  19.674  15.631   0.815
47350W        W11294  40.364  26.491   2.313
47351W        W11295  12.790   3.779   1.313
47352W        W11296  30.985  33.062   3.839
47353W        W11297  40.986  29.465  11.052
47354W        W11298   3.348   9.743  13.837
47355W        W11299  20.612  42.326  10.465
47356W        W11300  20.127  34.389   1.448
47357W        W11301   8.238  27.051  10.013
47358W        W11302  10.686   6.710   0.860
47359W        W11303  12.277  27.571   3.326
47360W        W11304  22.578  35.513  12.984
47361W        W11305  14.739   2.956  12.070
47362W        W11306   6.311  14.682   1.718
47363W        W11307  32.517  15.141   1.415
47364W        W11308  16.297  15.626   0.770
47365W        W11309  36.546   6.395   0.382
47366W        W11310  27.460  31.020   0.787
47367W        W11311  43.005  24.566   2.826
47368W        W11312  30.135  34.424  13.477
47369W        W11313  39.343  24.583  12.035
47370W        W11314  37.931  28.482  14.510
47371W        W11315  43.342  39.823   3.792
47372W        W11316  41.930  23.603  13.536
47373W        W11317  44.349   0.480   1.877
47374W        W11318   4.294  44.826   0.932
47375W        W11319  23.150  10.859  12.949
47376W        W11320   4.822  17.259  11.504
47377W        W11321  22.656  25.648   2.671
47378W        W11322  35.048  41.328   4.746
47379W        W11323  44.871  24.135   2.308
47380W        W11324  35.502  29.548  12.948
47381W        W11325  35.893  16.184   0.245
47382W        W11326  24.059  14.742   1.807
47383W        W11327  35.022  26.458   3.150
47384W        W11328  37.487  16.177  11.608
47385W        W11329   4.305   4.253   4.335
47386W        W11330  16.766  37.077  13.475
47387W        W11331  26.550  41.506   0.826
47388W        W11332  20.678   2.925  12.418
47389W        W11333  40.957  28.628   0.386
47390W        W11334  16.082  37.846   4.623
47391W        W11335  21.187  19.612  14.023
47392W        W11336  22.118  27.670  13.476
47393W        W11337  42.999   3.311   4.804
47394W        W11338  13.779  19.745   0.317
47395W        W11339  13.640  28.518  10.571
47396W        W11340  16.699  21.520   1.920
47397W        W11341  16.118  23.238   2.783
47398W        W11342  29.645  23.195   1.321
47399W        W11343  21.170  44.824  11.968
47400W        W11344  29.018   5.889  12.356
47401W        W11345  12.642  30.125   0.795
47402W        W11346  14.687   4.374  12.964
47403W        W11347   5.803  34.978   3.301
47404W        W11348  42.995  32.568   3.799
47405W        W11349  33.539  15.156  12.339
47406W        W11350   8.382  24.536   1.759
47407W        W11351  40.042   8.838  14.775
47408W        W11352  16.249   0.846   3.244
47409W        W11353  11.789  17.764   4.663
47410W        W11354  19.610   8.176  13.867
47411W        W11355  15.655   7.389   1.333
47412W        W11356  30.489   6.184  14.928
47413W        W11357  20.755  39.965   2.850
47414W        W11358  25.211  17.731  11.930
47415W        W11359  38.475   6.389   3.865
47416W        W11360  27.584  32.906  12.065
47417W        W11361  42.302  27.160   3.342
47418W        W11362   6.404   4.914  13.325
47419W        W11363  37.891  24.720   2.270
47420W        W11364  20.712  27.619   4.274
47421W        W11365  19.742  43.932   2.888
47422W        W11366  14.621  30.608  13.410
47423W        W11367  12.648   1.310  11.546
47424W        W11368  42.485  19.628   3.845
47425W        W11369   5.858  36.925  10.941
47426W        W11370  15.292  37.374   4.184
47427W        W11371  40.511  40.538  11.916
47428W        W11372  11.736   0.485  11.521
47429W        W11373   3.842  35.441   3.767
47430W        W11374  14.800  44.861  14.300
47431W        W11375  17.741  33.129  13.518
47432W        W11376  37.069   6.184   2.403
47433W        W11377   4.854  25.611   4.691
47434W        W11378  16.609   8.893  12.547
47435W        W11379   5.430  28.613  14.386
47436W        W11380   3.858  27.598  12.420
47437W        W11381  39.913  18.262   3.327
47438W        W11382  39.926  10.264   4.696
47439W        W11383   8.292  32.895   4.793
47440W        W11384  22.583   0.468   3.157
47441W        W11385  30.524  37.975  13.443
47442W        W11386  17.647  38.925   1.801
47443W        W11387  27.045   5.894   4.634
47444W        W11388   5.328  10.871  12.537
47445W        W11389   5.325  40.962   2.848
47446W        W11390   0.419   5.320   4.674
47447W        W11391  42.821  21.528  11.372
47448W        W11392   9.675  34.117   4.301
47449W        W11393  10.217  20.228  13.482
47450W        W11394  14.195  38.465  12.339
47451W        W11395  30.543  44.424  13.342
47452W        W11396  22.128  37.497   4.126
47453W        W11397  23.196  37.875  13.408
47454W        W11398  40.842   9.737  11.065
47455W        W11399  44.269  39.819  13.429
47456W        W11400   5.898  37.923   3.794
47457W        W11401   1.919  21.571   2.838
47458W        W11402   6.864  37.540  10.562
47459W        W11403  26.139  25.057   4.736
47460W        W11404  32.545  27.487   2.884
47461W        W11405   4.720  25.015   2.725
47462W        W11406  21.158  44.293  10.435
47463W        W11407   5.202  29.547  14.301
47464W        W11408   0.988  32.403   1.357
47465W        W11409  19.253  34.509  12.500
47466W        W11410  30.038   7.785   1.703
47467W        W11411  15.306  20.669  13.526
47468W        W11412  22.026  38.029   4.819
47469W        W11413  10.804  27.562  13.941
47470W        W11414  38.414  11.373  10.510
47471W        W11415  40.971  40.489  14.965
47472W        W11416  38.950  27.607  12.928
47473W        W11417  26.534   7.745   3.384
47474W        W11418  30.923   3.733   1.298
47475W        W11419  35.463  20.222  13.448
47476W        W11420  38.486  42.508   1.294
47477W        W11421  33.984   7.260   3.835
47478W        W11422  42.413  44.957   4.260
47479W        W11423   5.345  10.384  14.474
47480W        W11424  25.481  28.497   2.822
47481W        W11425  12.156  35.874   3.855
47482W        W11426  18.192   7.271   3.287
47483W        W11427  30.636  33.578  13.359
47484W        W11428  25.181  39.435  13.965
47485W        W11429  23.121  22.684   2.894
47486W        W11430  11.243  42.808  14.443
47487W        W11431   2.956  24.520   3.668
47488W        W11432  41.936  27.081   2.842
47489W        W11433  40.451  31.442  13.021
47490W        W11434  40.305  21.155  13.959
47491W        W11435  31.427  31.566   3.705
47492W        W11436  35.555  36.850   2.676
47493W        W11437  34.090  19.257  11.098
47494W        W11438  38.400   7.729   2.231
47495W        W11439   1.366  24.528   1.803
47496W        W11440   9.869  25.532   2.712
47497W        W11441  12.774  26.684  13.318
47498W        W11442  34.051  27.522   1.356
47499W        W11443   4.374  10.320   0.242
47500W        W11444  39.429  19.533  11.083
47501W        W11445  39.427  14.217   3.277
47502W        W11446   1.339  24.087  13.313
47503W        W11447  16.087   2.313  12.041
47504W        W11448  18.269  16.590  13.846
47505W        W11449  34.430  27.028  14.922
47506W        W11450   7.734   7.324   0.927
47507W        W11451  11.345  15.147  10.090
47508W        W11452  22.701   4.348   1.846
47509W        W11453  16.799  31.044   4.787
47510W        W11454   9.873   4.871   5.312
47511W        W11455  14.783   0.980  12.492
47512W        W11456  12.167  16.703  11.514
47513W        W11457   8.794  14.341  10.587
47514W        W11458  27.620  38.959   0.300
47515W        W11459  41.935   2.746  10.906
47516W        W11460   6.339   5.343   3.337
47517W        W11461  18.068   7.835   0.729
47518W        W11462  19.121  28.123  10.949
47519W        W11463  37.508  42.345  14.479
47520W        W11464  24.223  42.953   1.741
47521W        W11465  35.957  35.422   3.146
47522W        W11466   1.950  26.149   0.902
47523W        W11467  18.631  10.321  14.879
47524W        W11468  10.678  22.111   4.194
47525W        W11469  43.332  42.520  10.447
47526W        W11470  36.859   3.435   4.221
47527W        W11471  18.547  30.653   2.679
47528W        W11472  13.214  38.845  14.818
47529W        W11473   3.797  28.584   0.299
47530W        W11474   4.344  13.700  12.069
47531W        W11475  15.581  43.845  13.346
47532W        W11476   0.976  24.141  13.880
47533W        W11477   2.236  42.477  11.914
47534W        W11478  43.887   8.739  12.444
47535W        W11479  13.807  24.006  14.439
47536W        W11480  40.943  38.962  11.081
47537W        W11481   8.344  44.384  12.928
47538W        W11482  30.592   9.211  14.803
47539W        W11483  27.575  38.894   3.867
47540W        W11484  32.413  17.165   4.232
47541W        W11485  44.918  24.074  10.921
47542W        W11486  33.125  12.318   3.794
47543W        W11487  22.024  22.008   4.347
47544W        W11488  41.878   0.925  14.960
47545W        W11489  23.632   8.833   4.279
47546W        W11490  36.976   3.808  11.105
47547W        W11491  25.981  34.089  14.803
47548W        W11492  35.418  17.165  13.512
47549W        W11493  35.592  26.626   2.214
47550W        W11494  27.686  38.864   4.224
47551W        W11495  31.621  32.482   0.856
47552W        W11496  24.604  11.195  14.833
47553W        W11497  16.181  26.049  13.973
47554W        W11498  42.374  38.913   3.298
47555W        W11499   1.732  21.628   3.160
47556W        W11500  36.510   6.693  12.027
47557W        W11501   5.433  19.257  11.088
47558W        W11502  33.538   7.375   3.199
47559W        W11503  18.067   7.752   1.927
47560W        W11504  12.194  33.889  14.909
47561W        W11505  30.486  34.893   2.768
47562W        W11506  35.915  29.462  14.396
47563W        W11507  36.944  14.311   4.771
47564W        W11508  14.634  17.241   1.294
47565W        W11509  42.340  32.045   3.861
47566W        W11510   5.417  32.472  12.901
47567W        W11511   7.322  39.502   2.797
47568W        W11512   2.250  23.586   4.145
47569W        W11513   9.836  30.499  13.486
47570W        W11514  26.189  36.021  13.384
47571W        W11515  41.975   3.406   1.883
47572W        W11516   2.939  19.079  14.397
47573W        W11517  42.013  17.261  13.458
47574W        W11518  38.553  37.357   1.856
47575W        W11519  37.878  15.315   0.400
47576W        W11520  39.950   0.279   3.358
47577W        W11521  38.877  38.010  11.582
47578W        W11522  32.984   0.300   4.166
47579W        W11523  30.062   7.335   0.948
47580W        W11524  44.273  26.051  13.493
47581W        W11525  38.364  15.282  10.525
47582W        W11526  31.069  15.821  12.564
47583W        W11527  21.141  32.474  10.623
47584W        W11528  14.656   3.893   0.863
47585W        W11529  31.908   9.815   2.740
47586W        W11530  10.186  16.640  11.950
47587W        W11531  26.671  34.879   3.654
47588W        W11532  41.409  35.982  12.927
47589W        W11533   4.724  27.990   1.832
47590W        W11534  43.819   3.789  10.923
47591W        W11535  28.532  41.983   1.290
47592W        W11536  43.869  10.792   4.191
47593W        W11537  26.168   3.424  14.762
47594W        W11538   5.690  17.300  10.603
47595W        W11539  13.160   9.366  11.508
47596W        W11540  26.477   8.272  14.011
47597W        W11541  13.150  25.155   4.743
47598W        W11542   6.787  22.700   1.772
47599W        W11543   4.346  32.448   2.827
47600W        W11544  26.687   9.676   4.305
47601W        W11545  34.456  32.084  11.089
47602W        W11546  38.399   3.722  11.103
47603W        W11547  16.157  28.183  11.014
47604W        W11548  31.144   8.754   3.186
47605W        W11549  23.540  43.471  14.282
47606W        W11550  34.420  35.043  11.958
47607W        W11551  11.370   1.481  10.979
47608W        W11552  32.049  26.104   2.261
47609W        W11553   6.419  19.607  12.356
47610W        W11554   3.791  36.453   3.380
47611W        W11555  37.406  41.891   4.676
47612W        W11556  23.214   3.763   0.910
47613W        W11557  35.922  31.432   3.658
47614W        W11558  19.225   1.768   2.279
47615W        W11559  42.001  30.549   2.900
47616W        W11560  33.506  15.738  12.428
47617W        W11561   5.905  19.588  14.377
47618W        W11562  37.460  25.550  13.010
47619W        W11563  16.797  26.538  10.053
47620W        W11564  10.749   6.702  12.868
47621W        W11565  19.095  40.400   0.457
47622W        W11566  30.060  24.508   4.805
47623W        W11567  32.604  16.141   4.292
47624W        W11568   0.797  37.858  10.468
47625W        W11569  30.441  25.568  14.030
47626W        W11570  27.086  12.648  14.514
47627W        W11571  34.102  29.173   3.711
47628W        W11572   4.732  19.213   4.635
47629W        W11573   3.941  24.170  11.505
47630W        W11574  11.849  10.716   1.312
47631W        W11575   5.203  40.470  13.399
47632W        W11576  37.499  16.610  11.962
47633W        W11577  24.541  40.502   3.375
47634W        W11578  39.941   8.800  10.567
47635W        W11579   5.256   7.761   4.800
47636W        W11580  25.972   9.806   0.943
47637W        W11581  25.032  23.604  11.403
47638W        W11582  24.696  28.959  11.392
47639W        W11583  39.419  28.578  13.992
47640W        W11584  18.784   2.917   4.607
47641W        W11585  14.204  22.190   2.806
47642W        W11586  31.074  21.202  14.928
47643W        W11587  28.660  43.456  10.023
47644W        W11588  17.268  27.948  12.934
47645W        W11589   8.889  20.690   1.869
47646W        W11590   0.248   8.862   2.417
47647W        W11591  38.831  27.994  10.907
47648W        W11592  27.648  37.073  11.457
47649W        W11593  15.320  35.901   3.651
47650W        W11594  12.806  39.859  13.321
47651W        W11595   8.388   4.750   4.332
47652W        W11596  23.570  32.083  13.803
47653W        W11597  30.098  24.110  10.480
47654W        W11598   5.709  37.046   1.308
47655W        W11599  11.645  38.429  10.917
47656W        W11600  44.390  30.936  13.034
47657W        W11601   5.783  43.814  11.976
47658W        W11602  28.141  43.397  11.858
47659W        W11603   4.356  42.331   0.735
47660W        W11604  24.626  33.132  12.420
47661W        W11605  18.776   4.339   2.301
47662W        W11606  35.546  33.552  14.858
47663W        W11607  44.288  18.593  13.314
47664W        W11608  38.961  29.172  11.919
47665W        W11609  16.315  37.506  11.070
47666W        W11610  23.599  13.725   3.822
47667W        W11611  28.675   9.390   4.796
47668W        W11612  12.176  20.546  14.494
47669W        W11613  40.402  31.109  12.359
47670W        W11614  22.014   6.716   0.374
47671W        W11615  38.460  27.632   1.848
47672W        W11616   1.846  29.959   4.217
47673W        W11617  10.235  20.140   2.242
47674W        W11618  28.553  13.841   3.353
47675W        W11619  29.021   6.680  12.526
47676W        W11620  29.000  33.531  11.386
47677W        W11621  34.533  11.634  12.913
47678W        W11622  30.444  39.526   3.867
47679W        W11623  39.445   4.211   3.631
47680W        W11624  44.983  26.568  10.626
47681W        W11625  30.153  18.266   1.381
47682W        W11626   0.480   2.415  13.548
47683W        W11627   7.729   1.305   3.228
47684W        W11628  15.794  33.099  11.938
47685W        W11629   6.395  39.874   1.394
47686W        W11630  30.093  26.132  12.443
47687W        W11631   4.240  30.543   4.765
47688W        W11632   0.450  34.506   1.420
47689W        W11633  14.768  29.544   4.651
47690W        W11634  16.670  13.308  11.400
47691W        W11635  31.998   5.880  14.468
47692W        W11636   7.701   3.355   2.345
47693W        W11637  42.900  12.769  12.033
47694W        W11638  15.273  20.596   3.304
47695W        W11639  32.621   5.379  12.027
47696W        W11640  14.257  16.227  11.921
47697W        W11641  40.378   9.158   1.744
47698W        W11642  10.247  32.088   2.769
47699W        W11643  15.694  16.729   4.623
47700W        W11644   2.953  37.344  13.794
47701W        W11645   2.845   7.189  13.822
47702W        W11646  11.145  42.456  12.528
47703W        W11647  38.941  16.697  13.397
47704W        W11648  44.945  39.559  13.928
47705W        W11649  42.361  40.016   3.360
47706W        W11650  25.710  40.370   4.193
47707W        W11651  35.989  24.679   0.286
47708W        W11652  36.532  31.955   3.261
47709W        W11653  17.762  18.281   4.277
47710W        W11654  13.845   7.254  11.548
47711W        W11655  34.504  27.142   4.316
47712W        W11656  14.828  35.095  13.024
47713W        W11657  10.700   3.798  10.524
47714W        W11658   9.293  30.032   3.215
47715W        W11659   5.372  18.618   0.873
47716W        W11660  30.014  23.044   1.803
47717W        W11661  43.813  36.092   2.238
47718W        W11662   6.398  17.645  10.631
47719W        W11663  16.679  17.604   2.416
47720W        W11664  16.707  37.991   3.222
47721W        W11665  39.906  12.218   3.195
47722W        W11666  27.659  11.756  10.966
47723W        W11667  40.520  11.204  10.510
47724W        W11668  17.171  23.020   3.780
47725W        W11669   2.790   9.372  10.939
47726W        W11670   6.732  24.562   2.306
47727W        W11671  18.619  24.009   3.862
47728W        W11672   5.434  35.585   0.930
47729W        W11673   3.762   8.823  10.477
47730W        W11674   0.771   0.426  14.845
47731W        W11675  28.095  39.333   4.289
47732W        W11676  38.825   8.697   0.260
47733W        W11677  40.347   3.805  12.851
47734W        W11678   2.841  11.818  11.876
47735W        W11679  35.074  37.574   3.354
47736W        W11680  29.504  13.621   0.354
47737W        W11681  16.108  32.038  10.514
47738W        W11682  22.600  23.555  10.029
47739W        W11683  43.319  21.676   0.479
47740W        W11684  28.153  23.543   4.768
47741W        W11685  26.652  44.955   3.666
47742W        W11686   4.774  34.107   4.323
47743W        W11687  39.858  12.824  13.377
47744W        W11688  42.913  43.458  13.971
47745W        W11689  19.644   8.659  14.849
47746W        W11690  22.996  43.784   1.448
47747W        W11691   1.376  34.405  13.324
47748W        W11692  36.922  32.585  14.859
47749W        W11693  30.513  17.081  14.515
47750W        W11694  43.493  40.867   4.315
47751W        W11695  23.573  43.293  14.846
47752W        W11696  15.644  35.101  10.104
47753W        W11697   0.818  25.661  13.492
47754W        W11698  23.238  38.356  13.484
47755W        W11699   9.262   0.827   4.810
47756W        W11700  40.458   5.846  12.573
47757W        W11701  44.496  20.528  10.989
47758W        W11702   7.732  37.425   0.960
47759W        W11703   5.216   3.334  12.046
47760W        W11704  23.542  42.391   2.350
47761W        W11705   5.688  22.149  13.972
47762W        W11706   4.934  15.781   1.842
47763W        W11707  27.634  11.291   0.729
47764W        W11708  22.624  30.936  12.354
47765W        W11709  36.861  20.622  12.063
47766W        W11710  43.511  22.571  14.431
47767W        W11711  31.982  41.412   2.876
47768W        W11712  22.568  18.255  12.035
47769W        W11713  38.933  39.937   0.316
47770W        W11714  16.712  42.463   4.656
47771W        W11715  44.791  37.386   4.603
47772W        W11716  26.176  40.344   0.793
47773W        W11717  39.858  34.977  11.598
47774W        W11718  22.208  23.051  13.950
47775W        W11719  36.879  31.448  14.963
47776W        W11720  15.786  33.877   3.633
47777W        W11721  23.064  10.277  14.364
47778W        W11722  42.427  13.295   0.310
47779W        W11723  25.187  16.124   3.292
47780W        W11724  19.731  39.423   0.865
47781W        W11725  21.614  16.710  13.943
47782W        W11726  27.140   6.218   1.279
47783W        W11727  24.678  24.039  12.982
47784W        W11728  32.993  22.112   0.916
47785W        W11729  11.217  25.657   0.364
47786W        W11730  32.039  29.480  13.906
47787W        W11731  38.984   3.887  11.093
47788W        W11732   1.340  42.463   3.197
47789W        W11733  37.369  44.472   4.739
47790W        W11734  17.119  17.698   2.784
47791W        W11735  42.339  42.329   3.825
47792W        W11736  31.916   1.953   3.640
47793W        W11737  13.161  19.082  13.365
47794W        W11738   2.725   3.725  10.602
47795W        W11739  31.911  20.524  12.998
47796W        W11740  34.983  38.335  14.465
47797W        W11741   7.236  30.934   1.705
47798W        W11742  33.081  44.270   2.739
47799W        W11743  10.260  34.998   4.601
47800W        W11744  28.570  37.416   0.924
47801W        W11745   1.803  40.984   4.296
47802W        W11746  42.968  35.998  10.970
47803W        W11747  12.800  10.221   0.942
47804W        W11748  16.609  20.030  12.006
47805W        W11749   3.312  38.939   3.309
47806W        W11750  36.415  43.898   0.753
47807W        W11751  23.021   8.312  14.435
47808W        W11752  31.507  28.020  13.876
47809W        W11753  22.034   0.849  12.862
47810W        W11754  20.574  41.843  10.524
47811W        W11755  30.488   2.443   0.473
47812W        W11756  33.958  31.415  14.924
47813W        W11757  27.175   4.288   1.760
47814W        W11758  20.188  43.322  11.091
47815W        W11759  36.935  22.130  13.432
47816W        W11760  24.555  41.924  10.927
47817W        W11761  21.615  14.660   3.377
47818W        W11762   0.435  21.122   1.402
47819W        W11763  23.687  33.550  13.940
47820W        W11764  41.405   3.810   4.350
47821W        W11765  40.330  29.625   0.740
47822W        W11766  11.349  33.888  12.566
47823W        W11767  33.978  32.540   3.858
47824W        W11768   3.259  33.110   2.874
47825W        W11769  33.489  11.745   3.760
47826W        W11770   1.376  27.524   0.400
47827W        W11771  11.285   3.392  12.432
47828W        W11772   4.928  34.096  14.764
47829W        W11773  33.879  13.254  14.935
47830W        W11774   7.263  32.033   0.759
47831W        W11775  32.999   4.765   1.396
47832W        W11776  36.907  21.166  14.428
47833W        W11777   5.418  31.414   4.800
47834W        W11778  44.302   2.919   2.311
47835W        W11779  18.695  40.884   0.319
47836W        W11780  16.610  23.154  11.469
47837W        W11781   5.913  13.117  10.549
47838W        W11782  30.928   9.155  11.434
47839W        W11783  34.955   1.762   5.085
47840W        W11784   0.254  17.221  11.948
47841W        W11785  16.735  11.670   0.433
47842W        W11786  15.780  11.188   4.288
47843W        W11787  10.200   1.273  10.982
47844W        W11788  15.219   7.709   2.748
47845W        W11789  44.480  37.833   2.729
47846W        W11790  33.032  41.338  12.408
47847W        W11791  22.218  36.387  10.625
47848W        W11792  20.039  18.236  11.109
47849W        W11793  20.658  19.647   3.735
47850W        W11794   3.731  33.484   2.220
47851W        W11795   1.951  23.721   3.245
47852W        W11796  27.072   4.353   3.238
47853W        W11797  44.936   8.829  11.389
47854W        W11798   3.831   2.725  11.584
47855W        W11799  25.094  33.581   1.314
47856W        W11800  25.479  14.612  14.954
47857W        W11801   7.408  22.588  14.291
47858W        W11802  17.585  12.290  13.530
47859W        W11803  24.008  36.897  12.071
47860W        W11804  23.070  38.881  10.943
47861W        W11805   6.809  32.017  14.516
47862W        W11806  26.098  33.467  11.436
47863W        W11807  27.481  30.591  13.870
47864W        W11808  29.930  24.985   5.167
47865W        W11809  22.518  22.504  14.466
47866W        W11810  24.571   8.787   2.680
47867W        W11811  44.004  17.790  11.569
47868W        W11812  17.580  20.169  14.408
47869W        W11813  10.817  38.517  14.416
47870W        W11814  26.666  29.654   5.271
47871W        W11815  15.191  34.423   3.818
47872W        W11816   0.818   7.826  14.379
47873W        W11817  42.373  20.128   1.420
47874W        W11818  22.064  35.505   4.714
47875W        W11819  26.083  22.565   4.659
47876W        W11820  37.473  26.208  11.416
47877W        W11821  16.703  43.888   4.152
47878W        W11822  32.456  44.499  13.853
47879W        W11823  14.761   7.338  12.539
47880W        W11824  26.504  36.579  13.931
47881W        W11825  19.164   5.722  13.340
47882W        W11826  20.681  10.804  14.862
47883W        W11827   3.821  39.021   0.750
47884W        W11828  19.672   2.434  13.536
47885W        W11829  21.183   0.265   0.728
47886W        W11830   7.232  10.275  14.384
47887W        W11831  13.648  37.532   1.784
47888W        W11832  26.665   4.882   9.956
47889W        W11833  44.865   3.724  12.491
47890W        W11834  42.897  16.715  14.006
47891W        W11835  12.210  43.494   4.599
47892W        W11836   1.965  19.730   2.355
47893W        W11837  24.526  39.446   2.827
47894W        W11838  14.776  36.008  11.441
47895W        W11839  15.612   3.715  14.976
47896W        W11840   3.458  16.771  12.371
47897W        W11841  23.699  17.307   4.610
47898W        W11842   6.846   3.327   4.261
47899W        W11843  40.521  12.212   1.384
47900W        W11844  37.365  35.592  11.045
47901W        W11845  39.518  18.258   1.904
47902W        W11846  32.079  34.914   4.807
47903W        W11847  20.127   3.914   4.794
47904W        W11848  13.686  12.200  12.393
47905W        W11849  21.093  32.132   2.241
47906W        W11850  41.975   6.278  12.377
47907W        W11851   5.369  26.681  10.567
47908W        W11852  12.319  19.696  12.878
47909W        W11853  23.720   1.384  11.910
47910W        W11854  33.934  32.568   0.272
47911W        W11855  12.826   9.251  11.431
47912W        W11856  37.908  30.596   3.826
47913W        W11857  12.698   3.805  13.916
47914W        W11858  13.785  35.391   0.853
47915W        W11859  40.515   6.683  14.956
47916W        W11860  27.484  30.639   4.119
47917W        W11861  10.318   2.340  14.365
47918W        W11862   4.348  33.084   1.922
47919W        W11863   0.405  25.981  10.599
47920W        W11864  10.765  13.651  14.896
47921W        W11865  34.405   6.318   0.892
47922W        W11866  30.599  43.962   1.213
47923W        W11867  24.021  15.182  12.508
47924W        W11868  23.108  27.959  14.758
47925W        W11869  32.461  29.434   2.346
47926W        W11870   5.800  20.645  13.894
47927W        W11871   9.287  27.029   1.367
47928W        W11872  18.188  16.085  10.967
47929W        W11873  13.304   6.246  12.979
47930W        W11874   5.910   9.252  12.434
47931W        W11875  26.987  24.063   0.951
47932W        W11876  33.384  41.535   1.410
47933W        W11877   8.812  11.352   3.382
47934W        W11878  39.050  28.026  13.993
47935W        W11879  33.526  37.930  13.841
47936W        W11880   3.937  30.020  10.450
47937W        W11881   1.906   1.770  11.932
47938W        W11882  13.290  21.112  13.418
47939W        W11883  29.575  13.230  11.379
47940W        W11884  41.405   6.699   0.392
47941W        W11885  34.597  10.216   0.331
47942W        W11886  38.838  32.911   3.658
47943W        W11887  14.744  15.683  11.413
47944W        W11888  37.487  43.453  12.041
47945W        W11889   8.771  20.620   3.248
47946W        W11890  31.962  23.667   1.451
47947W        W11891  34.904  41.297  12.987
47948W        W11892   4.793  20.265  12.578
47949W        W11893   0.354  30.982   1.392
47950W        W11894  28.550  30.117   1.298
47951W        W11895  35.980   3.816   1.804
47952W        W11896  37.438  37.524   1.905
47953W        W11897  11.701  13.624  10.914
47954W        W11898  13.295  28.653   4.795
47955W        W11899  24.522  44.439  12.893
47956W        W11900  36.014   0.343   2.819
47957W        W11901  42.015  38.068  10.623
47958W        W11902  30.604  25.660  14.481
47959W        W11903  31.595   0.404   0.846
47960W        W11904   0.318  19.259  11.540
47961W        W11905  23.990  31.525   4.600
47962W        W11906  29.957   7.750  11.884
47963W        W11907  38.459   0.340   3.750
47964W        W11908  13.155  17.193  13.486
47965W        W11909   1.314   7.391  13.912
47966W        W11910   1.894  26.114   1.300
47967W        W11911  23.182  25.558   2.260
47968W        W11912  25.065  36.943  11.995
47969W        W11913   0.313  39.504  13.844
47970W        W11914  41.042  27.450  10.640
47971W        W11915   1.955  25.143   2.718
47972W        W11916  25.691  23.591   3.217
47973W        W11917  40.404   1.794   3.667
47974W        W11918  37.555  18.604  12.889
47975W        W11919  26.458  19.539   3.357
47976W        W11920  37.017   0.367  13.375
47977W        W11921  16.616  33.381  13.991
47978W        W11922  27.592  12.799   0.816
47979W        W11923  12.309  42.300   1.223
47980W        W11924  41.472   3.944   9.613
47981W        W11925   8.718  34.476   2.289
47982W        W11926  37.514  12.235  14.313
47983W        W11927  44.765  32.071  14.912
47984W        W11928  36.548  43.362   1.697
47985W        W11929  31.003   3.360   3.314
47986W        W11930  25.513  34.469  14.923
47987W        W11931  28.549   7.320   1.316
47988W        W11932   7.329   7.333   3.276
47989W        W11933  14.664  36.905   1.332
47990W        W11934  40.887  28.633   2.873
47991W        W11935   9.274  19.163   3.807
47992W        W11936  16.705  44.419  11.126
47993W        W11937  44.345  35.056  10.966
47994W        W11938  36.429  18.695   0.791
47995W        W11939  20.700   6.711  11.573
47996W        W11940  12.247  36.513  14.387
47997W        W11941  11.737  33.129  10.440
47998W        W11942  25.998   7.287   4.806
47999W        W11943  21.091   5.282   5.088
48000W        W11944  23.096  17.789  13.307
48001W        W11945   5.256  30.025   3.254
48002W        W11946  20.661  29.955  14.334
48003W        W11947  37.337   2.818   0.931
48004W        W11948  41.347  12.720  12.855
48005W        W11949  12.853  32.900   0.800
48006W        W11950  22.174  21.699  13.811
48007W        W11951  23.058   8.261   0.738
48008W        W11952  35.489  38.855   4.724
48009W        W11953  43.948   8.270  12.964
48010W        W11954   1.851  12.706  14.780
48011W        W11955   5.725  14.829   2.736
48012W        W11956   9.851   0.466  12.946
48013W        W11957  32.991  23.151   2.192
48014W        W11958  28.450  21.183   4.218
48015W        W11959  16.112   4.442   0.926
48016W        W11960  37.467   4.213  11.891
48017W        W11961   5.413   5.711  13.514
48018W        W11962  23.619   4.847  12.434
48019W        W11963  43.980  41.480   1.358
48020W        W11964  25.570  21.236  13.367
48021W        W11965  29.625   3.727   4.267
48022W        W11966  26.046  35.523   1.298
48023W        W11967   4.736  40.490  12.421
48024W        W11968  33.005  24.145  13.916
48025W        W11969  26.629  14.237   3.224
48026W        W11970  27.980   3.834   3.814
48027W        W11971  15.303  43.866  11.012
48028W        W11972  16.216  13.346  11.536
48029W        W11973  36.890  30.014  12.377
48030W        W11974  33.017  33.603  12.982
48031W        W11975  33.112  17.213   3.713
48032W        W11976  10.143  43.414   2.262
48033W        W11977  21.680   7.726  14.390
48034W        W11978  39.508  12.295   1.275
48035W        W11979  11.292   6.251   1.816
48036W        W11980  25.119  29.636   4.274
48037W        W11981  10.788  27.502   2.355
48038W        W11982  33.570  17.604   0.373
48039W        W11983  33.069  11.695   0.755
48040W        W11984  34.491  34.597  12.494
48041W        W11985  25.040  35.964  10.975
48042W        W11986  35.063  30.140   4.600
48043W        W11987  22.246  39.868  13.392
48044W        W11988   7.703  27.593  11.389
48045W        W11989  42.935  20.225   1.283
48046W        W11990  16.197  42.302  14.942
48047W        W11991  36.581  25.089  11.086
48048W        W11992  20.690  44.886   1.273
48049W        W11993  34.101  31.500  11.935
48050W        W11994   8.901  32.091  10.564
48051W        W11995  38.908  15.592  12.518
48052W        W11996  20.641   2.229   4.205
48053W        W11997  35.026  33.956  14.873
48054W        W11998   9.796  25.100  14.470
48055W        W11999  25.006  21.702  11.031
48056W        W12000  26.963  20.270  11.000
48057W        W12001  32.927  35.415  13.501
48058W        W12002  18.061  41.449  11.120
48059W        W12003  30.596   9.293   3.297
48060W        W12004  22.501  30.941   2.716
48061W        W12005  42.401  29.919  12.982
48062W        W12006   2.364   9.857   2.763
48063W        W12007   2.380  13.770  12.844
48064W        W12008   3.943  18.201   4.617
48065W        W12009  38.912  37.953   0.906
48066W        W12010  37.351   7.310  10.572
48067W        W12011  23.555  37.982  11.880
48068W        W12012  12.210  42.444  13.489
48069W        W12013  23.495  24.672   2.756
48070W        W12014  14.164   4.867   3.844
48071W        W12015  44.940  30.556   4.169
48072W        W12016  27.471  34.371  12.048
48073W        W12017   5.435  26.613   1.321
48074W        W12018   4.360  39.434   3.806
48075W        W12019  16.739   6.717  14.391
48076W        W12020  26.967  10.367  10.030
48077W        W12021  11.182  18.686   1.739
48078W        W12022   4.442   3.748  12.466
48079W        W12023  20.716  10.755  12.491
48080W        W12024   5.838   6.821  11.037
48081W        W12025  11.351  42.992   2.325
48082W        W12026  40.420   6.706  11.486
48083W        W12027  26.673  28.506   1.720
48084W        W12028   0.461   4.799  14.343
48085W        W12029  21.700  41.501   0.830
48086W        W12030  41.506  17.632   2.734
48087W        W12031  12.150  41.812   1.296
48088W        W12032  43.362  23.504  12.893
48089W        W12033  40.892  41.883  12.004
48090W        W12034  38.389  10.247   4.747
48091W        W12035  10.685  12.247   2.304
48092W        W12036  28.633  32.999   4.120
48093W        W12037   7.243  29.101  12.094
48094W        W12038  13.139  21.576  12.502
48095W        W12039   3.848  28.495  14.504
48096W        W12040   4.237   1.752   2.248
48097W        W12041  44.355   0.856  11.494
48098W        W12042  20.600  21.223   1.714
48099W        W12043  11.145   1.464  11.919
48100W        W12044  16.229  42.940   0.443
48101W        W12045  44.336  34.397  10.993
48102W        W12046  33.463  12.634  11.106
48103W        W12047  11.793  21.076  13.888
48104W        W12048  18.569   8.248   0.795
48105W        W12049  25.692   7.842   2.868
48106W        W12050  38.037   1.843  11.052
48107W        W12051  35.559  27.507  14.956
48108W        W12052  25.082  18.167  11.394
48109W        W12053  37.948   8.243   3.373
48110W        W12054  14.271   8.812  14.778
48111W        W12055  27.978  27.020  13.824
48112W        W12056  23.544   8.326   0.444
48113W        W12057  11.734  20.059   9.997
48114W        W12058   6.786  41.966   3.797
48115W        W12059  37.938  27.145  13.982
48116W        W12060  41.965  29.006  14.991
48117W        W12061  39.004  21.595   3.755
48118W        W12062  21.612  22.655  14.831
48119W        W12063  27.464  34.989  14.906
48120W        W12064  27.999  30.033   1.347
48121W        W12065   3.378  38.536   1.835
48122W        W12066  21.181   0.477   9.981
48123W        W12067   2.394  26.177   4.717
48124W        W12068   6.345  34.562   3.692
48125W        W12069  40.803  13.204  13.864
48126W        W12070  27.099  14.170  10.619
48127W        W12071  12.698  26.166  13.513
48128W        W12072  37.920  23.682   4.800
48129W        W12073  26.969  35.027  11.895
48130W        W12074  26.052  43.811  11.871
48131W        W12075  23.550  35.550  12.500
48132W        W12076  25.471   0.476  14.447
48133W        W12077  19.095  32.081   0.733
48134W        W12078  17.063   5.399  11.045
48135W        W12079  30.943  22.219   3.742
48136W        W12080  12.143  27.090  10.991
48137W        W12081  14.149   7.301   3.760
48138W        W12082  35.082   1.967   0.432
48139W        W12083   9.165  24.564  11.952
48140W        W12084   3.803  32.558   3.335
48141W        W12085  10.270  34.058   4.298
48142W        W12086   4.389  41.788   2.299
48143W        W12087  37.832  23.548   2.703
48144W        W12088  32.596  23.207  11.446
48145W        W12089  25.076  12.229   0.444
48146W        W12090  42.795  33.113  14.909
48147W        W12091  31.068  37.865  12.519
48148W        W12092   1.960  36.559  11.922
48149W        W12093   0.444  29.092   0.769
48150W        W12094  32.948   9.881  14.868
48151W        W12095   5.378  15.245   0.908
48152W        W12096  38.855  37.035  14.827
48153W        W12097  31.934  10.306   0.931
48154W        W12098  15.626  21.070  13.371
48155W        W12099  18.758  26.681  13.927
48156W        W12100  27.606   8.358  10.405
48157W        W12101  26.620   7.205  10.090
48158W        W12102  20.109   2.733   2.743
48159W        W12103  19.209  33.055  13.834
48160W        W12104  13.191  17.716  11.927
48161W        W12105   5.379   3.217  12.950
48162W        W12106  27.513  12.825   1.301
48163W        W12107  43.834  12.121  14.336
48164W        W12108  29.566  23.147  11.460
48165W        W12109  30.504  36.407   0.842
48166W        W12110  24.139  31.980   3.184
48167W        W12111   7.240  38.991  14.358
48168W        W12112  36.528   6.694   2.858
48169W        W12113   6.389  36.556   3.839
48170W        W12114  29.604   2.418  13.477
48171W        W12115  38.516   2.401  10.494
48172W        W12116  24.038   6.327   2.713
48173W        W12117  40.455  21.230  11.906
48174W        W12118  12.827   8.273  13.882
48175W        W12119   3.858  28.568   0.798
48176W        W12120  25.586   3.447   2.394
48177W        W12121  44.394   3.308  10.924
48178W        W12122  30.080   9.364   3.369
48179W        W12123   0.908  36.949  13.392
48180W        W12124  31.584  18.766   0.922
48181W        W12125  33.580  31.546  11.529
48182W        W12126  14.781   4.313   1.293
48183W        W12127  19.087   2.917  11.607
48184W        W12128   1.294  31.011  13.914
48185W        W12129  43.838  34.030   0.392
48186W        W12130  15.677  38.496   1.225
48187W        W12131   6.364  41.889  11.450
48188W        W12132  17.639  44.427   0.331
48189W        W12133  37.860   5.776   0.459
48190W        W12134  32.573  17.241   3.837
48191W        W12135  30.908  13.775   1.854
48192W        W12136  34.506  27.069   4.835
48193W        W12137  42.289  16.784   2.724
48194W        W12138  18.141  43.966  10.459
48195W        W12139   7.861  12.701   5.178
48196W        W12140  36.562  19.255   2.210
48197W        W12141  38.449  44.830  14.460
48198W        W12142  39.366   3.855   3.823
48199W        W12143  31.583  10.741   1.277
48200W        W12144   3.223  12.131  11.062
48201W        W12145  24.137  25.112  12.011
48202W        W12146  26.558  29.488   2.394
48203W        W12147  12.759  31.439   2.208
48204W        W12148  23.720  21.658  13.929
48205W        W12149  24.665  11.302   1.695
48206W        W12150  44.452  13.752  10.545
48207W        W12151  26.202  26.007  10.979
48208W        W12152  44.401  42.525  11.572
48209W        W12153   4.728  19.221   1.414
48210W        W12154  44.836  12.819  12.083
48211W        W12155   8.324  30.515   2.893
48212W        W12156   4.912  18.650   1.775
48213W        W12157  40.377  25.062   4.712
48214W        W12158  22.697   5.804  14.955
48215W        W12159  32.447   7.843   3.348
48216W        W12160  44.462   6.264  14.323
48217W        W12161  17.268  33.427   3.659
48218W        W12162   3.889  11.318  10.453
48219W        W12163   9.732  38.441   3.854
48220W        W12164  33.035  43.290  14.441
48221W        W12165  36.040   2.932  11.447
48222W        W12166  31.443  18.118   2.336
48223W        W12167  16.252  30.934  12.070
48224W        W12168  30.954   6.782   0.871
48225W        W12169  40.485  18.664   3.814
48226W        W12170  13.774   6.195  11.989
48227W        W12171  13.266  40.001   0.406
48228W        W12172   2.402   3.402   0.484
48229W        W12173   5.344  35.010   3.705
48230W        W12174   7.828  33.119   3.748
48231W        W12175  17.591   3.398   4.771
48232W        W12176  40.996   3.409  14.863
48233W        W12177  42.308  41.943   4.778
48234W        W12178  11.691  29.654  12.987
48235W        W12179  22.648   6.350  11.387
48236W        W12180   8.678  19.085  12.464
48237W        W12181   9.358  39.559  14.801
48238W        W12182   9.394   6.862   2.702
48239W        W12183  30.553   4.814   1.451
48240W        W12184  37.050   1.813  12.882
48241W        W12185  15.156   1.802  12.439
48242W        W12186  10.217  33.997  12.037
48243W        W12187  15.776  34.094   5.588
48244W        W12188  35.958   5.257   4.196
48245W        W12189  42.921  14.321   0.306
48246W        W12190  11.212  16.692  11.563
48247W        W12191  16.789  22.697  12.087
48248W        W12192   5.404  37.839   2.780
48249W        W12193  15.749  22.617  10.889
48250W        W12194   2.956   8.369   4.351
48251W        W12195  21.657  23.186   2.712
48252W        W12196  13.754   8.696   1.873
48253W        W12197  21.676  10.721  10.931
48254W        W12198  19.127  26.093   5.261
48255W        W12199   0.859   7.719   3.340
48256W        W12200  34.614   5.887  14.990
48257W        W12201  37.837  44.484   1.910
48258W        W12202  32.104  11.207  13.812
48259W        W12203  31.951  40.439   2.237
48260W        W12204  18.226  16.256   1.248
48261W        W12205  20.157  28.082  13.008
48262W        W12206  20.231  24.224  14.813
48263W        W12207   1.970  15.742   2.315
48264W        W12208  34.477  24.514   0.375
48265W        W12209  29.548  33.955  14.881
48266W        W12210  41.465  34.449   4.654
48267W        W12211  39.015  27.474   3.250
48268W        W12212   4.249  40.834   0.323
48269W        W12213  21.218   0.806  12.096
48270W        W12214   9.644   8.165  14.472
48271W        W12215  17.149   5.893  11.090
48272W        W12216  35.029  23.148   4.267
48273W        W12217  27.149   9.321  10.442
48274W        W12218  27.955  18.674   9.924
48275W        W12219  43.495  33.417   1.320
48276W        W12220  24.520  18.749  14.342
48277W        W12221  14.645  13.158   2.682
48278W        W12222   0.823   5.701  14.852
48279W        W12223  26.481  23.125   0.263
48280W        W12224  36.991  26.563  13.337
48281W        W12225  25.155  27.078  11.530
48282W        W12226  44.399  42.845  14.443
48283W        W12227  21.130   2.405   3.766
48284W        W12228  18.194  37.083  10.439
48285W        W12229   7.814  39.964   2.770
48286W        W12230   4.776   2.947  11.058
48287W        W12231  32.554   3.830   1.383
48288W        W12232  44.843  13.278   1.782
48289W        W12233  35.989   6.685  13.050
48290W        W12234  35.001  15.633   2.216
48291W        W12235  19.584  24.645  12.450
48292W        W12236  33.875  29.478   0.308
48293W        W12237  15.253  33.923   0.454
48294W        W12238  41.023  19.249  12.528
48295W        W12239  36.431  34.399  13.492
48296W        W12240  31.049  42.304  10.415
48297W        W12241  11.692  16.731   1.352
48298W        W12242   9.167   0.261  10.002
48299W        W12243  33.984   3.835   1.318
48300W        W12244  34.032   5.401   3.369
48301W        W12245  21.118  18.081   4.668
48302W        W12246   2.298  44.821  13.823
48303W        W12247  44.421  21.050  11.082
48304W        W12248  26.631  34.040   0.327
48305W        W12249  30.479  30.087  12.941
48306W        W12250  15.616  17.288  11.996
48307W        W12251  32.029   5.909  12.463
48308W        W12252  30.591  21.544  12.364
48309W        W12253  39.482  24.125   2.330
48310W        W12254  37.904  25.514   4.766
48311W        W12255  17.177  16.233   1.797
48312W        W12256  43.278  37.442  13.967
48313W        W12257  14.787   1.239   2.862
48314W        W12258   3.757  17.566   1.432
48315W        W12259  29.616  35.019   0.964
48316W        W12260   7.319  12.203  13.986
48317W        W12261  38.542  39.023  14.847
48318W        W12262  40.474  20.143   3.373
48319W        W12263  33.391  37.936   2.238
48320W        W12264  30.536  39.391  14.940
48321W        W12265  38.968  44.001  12.937
48322W        W12266  24.718   4.316   3.320
48323W        W12267  31.010  11.728   1.901
48324W        W12268   6.682  28.635   0.352
48325W        W12269  15.144  10.250   5.230
48326W        W12270  30.570  40.951  11.525
48327W        W12271   2.431  43.277  11.038
48328W        W12272   8.219  14.095   3.332
48329W        W12273  22.007   7.392  13.491
48330W        W12274  35.089  26.059  14.014
48331W        W12275   1.956  38.349  13.855
48332W        W12276  42.797  34.003  11.878
48333W        W12277  17.120  18.206   0.378
48334W        W12278  44.436  13.780   4.207
48335W        W12279  27.633  32.960  12.867
48336W        W12280  22.625  17.157  12.419
48337W        W12281  16.264  25.138  14.856
48338W        W12282  30.554   7.770  12.998
48339W        W12283  26.641  10.329   1.228
48340W        W12284  42.312  26.606   2.334
48341W        W12285  34.510  27.686  12.082
48342W        W12286  42.827  22.550   3.241
48343W        W12287   9.681  27.579   3.656
48344W        W12288   1.278   8.860  14.815
48345W        W12289  28.071  23.112  13.477
48346W        W12290   4.443  43.270   3.737
48347W        W12291  18.593  35.066  12.890
48348W        W12292   5.714  18.205  12.515
48349W        W12293   6.271   9.856   1.364
48350W        W12294  21.194  31.138   3.175
48351W        W12295  15.581  15.785  10.967
48352W        W12296  25.161   5.731   0.950
48353W        W12297  34.986  35.943  12.052
48354W        W12298  40.368  11.783  10.098
48355W        W12299  13.691  22.675   4.210
48356W        W12300   9.843  34.014   3.663
48357W        W12301  37.997   2.787  10.123
48358W        W12302  22.047  17.660  10.419
48359W        W12303  43.884   3.423  10.406
48360W        W12304  16.795   8.697   0.877
48361W        W12305  23.046  12.213   1.428
48362W        W12306   6.198   9.289   2.259
48363W        W12307  15.167  33.476  13.822
48364W        W12308  30.420  23.110  14.918
48365W        W12309   1.259  38.042  12.563
48366W        W12310  36.858  31.106   0.787
48367W        W12311  24.996   1.760   3.642
48368W        W12312  28.679  11.858   0.854
48369W        W12313  18.254  14.835  13.372
48370W        W12314  40.808   9.310  10.547
48371W        W12315  41.297  34.544   1.908
48372W        W12316  42.836  29.172  11.395
48373W        W12317  38.062  14.698  14.359
48374W        W12318  37.066   6.824   1.821
48375W        W12319  37.428  13.130   0.481
48376W        W12320  20.250  12.854   1.259
48377W        W12321  20.694  32.104  11.554
48378W        W12322  15.590  26.088  13.855
48379W        W12323  44.380  10.641  14.960
48380W        W12324   9.311  18.685  14.505
48381W        W12325  24.075   9.220  12.426
48382W        W12326   9.292  15.793   0.482
48383W        W12327  27.549  20.081   0.325
48384W        W12328  31.971   2.956   2.715
48385W        W12329  24.109  21.060   3.360
48386W        W12330   2.788  39.026   1.343
48387W        W12331   6.783  26.694   0.255
48388W        W12332   6.247  21.057   5.283
48389W        W12333  23.103  32.459  14.491
48390W        W12334  18.674  27.608   3.781
48391W        W12335   5.726  42.438  13.792
48392W        W12336  14.216  22.734   0.344
48393W        W12337  18.096  34.561  10.922
48394W        W12338  10.275  33.507   0.350
48395W        W12339  39.500  41.966  12.987
48396W        W12340  21.673  10.301  14.868
48397W        W12341  19.074   0.453   4.173
48398W        W12342  17.227  31.602   3.769
48399W        W12343  29.167  18.646   9.587
48400W        W12344  35.520   3.336  10.491
48401W        W12345  36.377  14.603  14.839
48402W        W12346  44.446  26.544   1.721
48403W        W12347  32.987   8.277   4.289
48404W        W12348  34.950  39.883  13.472
48405W        W12349  36.460  10.169   4.671
48406W        W12350  26.093  22.042  11.600
48407W        W12351  19.543  43.481  14.331
48408W        W12352   8.728  33.593   4.705
48409W        W12353   6.877  36.370  10.429
48410W        W12354  17.710  24.223   2.847
48411W        W12355   5.698  34.974   4.720
48412W        W12356  43.513  35.357   4.235
48413W        W12357  41.911  32.408  14.879
48414W        W12358   2.922  29.483   1.816
48415W        W12359   0.973   5.417  13.057
48416W        W12360  39.418  39.822  14.402
48417W        W12361  12.811  10.836  10.975
48418W        W12362  33.380  22.561  11.018
48419W        W12363  13.331  19.608   1.212
48420W        W12364   6.219  22.076   2.380
48421W        W12365  40.926  41.320  13.951
48422W        W12366  21.246  19.583  12.354
48423W        W12367   6.695  35.541   3.821
48424W        W12368  12.673   9.383  11.944
48425W        W12369  33.054  27.529   3.205
48426W        W12370  19.274  11.183   3.243
48427W        W12371  30.986  22.572   2.865
48428W        W12372  35.382  44.769   2.286
48429W        W12373  28.972  38.932  12.570
48430W        W12374  20.592  37.910  12.850
48431W        W12375  40.925  32.542  13.046
48432W        W12376  21.239  23.544  11.434
48433W        W12377   3.325   4.943   0.258
48434W        W12378  11.755  43.460   4.729
48435W        W12379  43.863  15.624  14.920
48436W        W12380   2.342  20.239   2.292
48437W        W12381   5.730  30.610   2.850
48438W        W12382  26.570  16.575   1.916
48439W        W12383  23.191   2.420  13.834
48440W        W12384  26.198  12.620   4.818
48441W        W12385   8.381  44.446   2.270
48442W        W12386   0.351  26.655  14.764
48443W        W12387  39.945  34.902   4.341
48444W        W12388  30.482  33.013   3.762
48445W        W12389   8.748  21.077   3.224
48446W        W12390  16.296  15.292   3.753
48447W        W12391  27.530  41.861  13.942
48448W        W12392  33.127  26.626   4.229
48449W        W12393  33.567  41.884  12.998
48450W        W12394  36.402   3.725   2.250
48451W        W12395  34.028  27.056   3.288
48452W        W12396   1.864  28.012   1.280
48453W        W12397  12.279  21.520   4.759
48454W        W12398  17.724  13.765   4.136
48455W        W12399  34.907  39.539   1.384
48456W        W12400   3.757  29.458  12.061
48457W        W12401  18.720   3.430  12.500
48458W        W12402  11.313  40.993   4.343
48459W        W12403  34.993   3.913   2.222
48460W        W12404   0.492  20.210   2.765
48461W        W12405  38.956   5.244  10.107
48462W        W12406  36.574   9.258   4.665
48463W        W12407  32.603  18.765   4.798
48464W        W12408  17.237  29.512  10.892
48465W        W12409   0.330   8.287   2.361
48466W        W12410  41.464  22.505   4.625
48467W        W12411  15.198  26.496  10.485
48468W        W12412  35.088  11.292   0.836
48469W        W12413   2.942  30.448  12.545
48470W        W12414  38.515  38.557   2.405
48471W        W12415  23.708  37.963  13.056
48472W        W12416   0.349   1.481   4.686
48473W        W12417  33.540  40.974  11.588
48474W        W12418  43.311  25.158   5.212
48475W        W12419  28.035  13.782  14.473
48476W        W12420  23.031  16.580  12.033
48477W        W12421  32.973  12.129  13.485
48478W        W12422  35.578  16.705   2.749
48479W        W12423  17.252  21.561  11.487
48480W        W12424   1.383  10.763  12.417
48481W        W12425  31.029  26.954   1.753
48482W        W12426  36.975  13.822  11.431
48483W        W12427  32.040  38.867  14.791
48484W        W12428   3.760  18.577   0.923
48485W        W12429  34.434   8.848  11.446
48486W        W12430  15.674  12.777   4.232
48487W        W12431  41.941  13.693   0.470
48488W        W12432  32.010  42.959  10.130
48489W        W12433  14.695  10.662   3.862
48490W        W12434  44.872   9.283  12.887
48491W        W12435   2.260  33.960  11.473
48492W        W12436  39.061  44.363   1.233
48493W        W12437   6.733  42.412  10.450
48494W        W12438  35.086  20.625  14.341
48495W        W12439  40.452  10.217  12.398
48496W        W12440   9.724   3.723  14.439
48497W        W12441   4.852  42.972  10.511
48498W        W12442  20.232  36.570   2.215
48499W        W12443  19.275  43.326   4.783
48500W        W12444  40.899  22.235   4.118
48501W        W12445  20.259  32.489   2.786
48502W        W12446  16.675  39.003  10.529
48503W        W12447  11.841   3.346   4.739
48504W        W12448  33.560  37.558   0.340
48505W        W12449  15.740  10.375   2.332
48506W        W12450   6.411  27.562   1.877
48507W        W12451  10.242   9.239  12.368
48508W        W12452   6.365  27.170   0.897
48509W        W12453  20.118  13.219  13.461
48510W        W12454  37.886  35.873   4.290
48511W        W12455  17.102   8.700   0.845
48512W        W12456  38.564  33.545  14.943
48513W        W12457  17.766  40.968   2.714
48514W        W12458  37.008  16.714  13.510
48515W        W12459  21.208  38.959  10.486
48516W        W12460  11.672  38.438   1.904
48517W        W12461  37.563  35.006  10.938
48518W        W12462  10.682   5.800  13.413
48519W        W12463  38.369   2.841  10.957
48520W        W12464  27.132  42.995  11.123
48521W        W12465  23.551  30.074  12.340
48522W        W12466   3.409  13.227  13.844
48523W        W12467  28.556  10.312   3.339
48524W        W12468   9.809  38.935   0.286
48525W        W12469  18.641  44.876  10.471
48526W        W12470  42.362  35.579   3.820
48527W        W12471  36.921  18.733  11.905
48528W        W12472  13.314  18.055   2.702
48529W        W12473   0.449  29.548   1.385
48530W        W12474  22.143   5.286   4.627
48531W        W12475   5.752  35.586  11.605
48532W        W12476   2.857  36.480  10.557
48533W        W12477  19.087  18.666   1.436
48534W        W12478  33.992  41.494  11.418
48535W        W12479  30.449  40.383   3.152
48536W        W12480  26.024  28.164  11.878
48537W        W12481  40.395  34.969   3.648
48538W        W12482  38.869  14.658   4.265
48539W        W12483   2.467  14.694  14.850
48540W        W12484   6.724  13.706  11.959
48541W        W12485  25.646   6.426  10.909
48542W        W12486  25.538  22.226   0.356
48543W        W12487   2.454  40.505  14.421
48544W        W12488  19.183  15.230  10.623
48545W        W12489  11.644  38.879   2.284
48546W        W12490   5.246  22.729   0.924
48547W        W12491   9.337  38.326   4.207
48548W        W12492  16.584  29.469  12.533
48549W        W12493   8.727  34.052  14.775
48550W        W12494   5.751  22.212   3.849
48551W        W12495  23.679  24.622   1.873
48552W        W12496   2.889  40.387  12.409
48553W        W12497   8.889   4.405  10.975
48554W        W12498  32.429   1.905  12.940
48555W        W12499   0.395  37.524   0.296
48556W        W12500   7.210  43.481   0.902
48557W        W12501  10.703  26.502  12.985
48558W        W12502   4.771  40.858  13.427
48559W        W12503  18.106   3.348   1.230
48560W        W12504  35.873  22.075   4.295
48561W        W12505  39.971  30.455  10.956
48562W        W12506   4.760   0.467   3.364
48563W        W12507  41.466   1.816   1.916
48564W        W12508  26.621  23.018   1.871
48565W        W12509  43.831   6.197  10.967
48566W        W12510  24.663  38.404  12.470
48567W        W12511   6.413  22.525   1.429
48568W        W12512  40.379  40.402   1.706
48569W        W12513  13.198  42.488   3.686
48570W        W12514  10.238  29.531  13.536
48571W        W12515  24.552  31.130  12.358
48572W        W12516  32.572  23.493  11.065
48573W        W12517  34.535  24.501   3.723
48574W        W12518   2.247   9.688   1.225
48575W        W12519  24.634  42.857   1.877
48576W        W12520  23.535  13.617  10.556
48577W        W12521  29.564  29.983  13.913
48578W        W12522   9.283   6.877   1.799
48579W        W12523   3.799   1.893   4.172
48580W        W12524  27.462   2.923  13.531
48581W        W12525  37.069   1.408   1.703
48582W        W12526  41.324  33.572  13.824
48583W        W12527  16.640  28.465  11.497
48584W        W12528  12.334  12.802  10.973
48585W        W12529  30.147  10.834  13.003
48586W        W12530  33.467  10.707   1.919
48587W        W12531  42.966  41.458   3.336
48588W        W12532   3.279  44.878   4.837
48589W        W12533   7.774   1.471  13.983
48590W        W12534  36.029  12.774   1.353
48591W        W12535   2.429  27.498   3.167
48592W        W12536  19.156   1.239  13.518
48593W        W12537   9.251   5.741  12.407
48594W        W12538   4.382  34.062  13.876
48595W        W12539   0.770  32.533   3.224
48596W        W12540  21.227  29.570  12.876
48597W        W12541  31.090  29.661   3.741
48598W        W12542  11.858  21.120   1.862
48599W        W12543  24.689  12.650   1.350
48600W        W12544  44.909  25.639  11.101
48601W        W12545   6.832  17.770  13.909
48602W        W12546  18.748  25.506   2.844
48603W        W12547  33.927   7.272  11.025
48604W        W12548  16.161  44.871   4.290
48605W        W12549  13.735  11.331   2.692
48606W        W12550  27.647   1.809  11.977
48607W        W12551   6.775   3.822  10.609
48608W        W12552   3.808  28.038   0.475
48609W        W12553  38.438  17.252  10.595
48610W        W12554  42.470  32.940  10.446
48611W        W12555  24.528  10.334   3.743
48612W        W12556  18.208  38.437  14.771
48613W        W12557  34.010  22.023   0.450
48614W        W12558  32.591  11.668   1.286
48615W        W12559  29.437  38.882   3.633
48616W        W12560  43.454  21.573  13.345
48617W        W12561  19.194  18.177  14.887
48618W        W12562  39.412  30.055  13.339
48619W        W12563  25.654  32.938  13.477
48620W        W12564  36.883  14.773  13.515
48621W        W12565   1.837  21.169   3.228
48622W        W12566  26.703   5.726  12.885
48623W        W12567  24.218  36.360  13.981
48624W        W12568  19.199  22.622   1.290
48625W        W12569  26.496  39.993  12.838
48626W        W12570   9.648  14.600   0.271
48627W        W12571  15.221  32.455  10.998
48628W        W12572  22.196  33.973  12.365
48629W        W12573  25.971  15.135   3.741
48630W        W12574  40.546  39.992   3.822
48631W        W12575   6.411  16.094  12.017
48632W        W12576  30.626  35.562  13.906
48633W        W12577   9.209   0.267   0.306
48634W        W12578  18.628  24.087   0.891
48635W        W12579   9.181  27.665  11.516
48636W        W12580  37.355   5.369   4.631
48637W        W12581  13.775  39.361  12.866
48638W        W12582  13.278  26.506  11.462
48639W        W12583  13.791   9.758   2.397
48640W        W12584   3.291   2.883   1.875
48641W        W12585  22.586   6.913   0.872
48642W        W12586  31.934  34.099  12.944
48643W        W12587  36.009  43.300  13.349
48644W        W12588  25.540  43.405  11.506
48645W        W12589  29.006  14.161  13.046
48646W        W12590  23.558  31.582  11.989
48647W        W12591  28.135  25.039   5.208
48648W        W12592   8.161  29.041   1.432
48649W        W12593  36.051  22.057   3.644
48650W        W12594  29.425   0.811  11.382
48651W        W12595  41.881  23.663   2.245
48652W        W12596   1.836   3.775   9.995
48653W        W12597  21.572  35.426   2.274
48654W        W12598  24.229  21.560   4.771
48655W        W12599  29.580  12.739  11.375
48656W        W12600   7.679  15.270  13.835
48657W        W12601  36.548  42.798   0.333
48658W        W12602  22.599  18.217   3.730
48659W        W12603  30.104  43.399  11.946
48660W        W12604  22.209   6.225   4.832
48661W        W12605  17.224  38.402   2.871
48662W        W12606   4.230  40.415  11.878
48663W        W12607  34.591  14.220  12.092
48664W        W12608  14.180  12.310  14.317
48665W        W12609   5.843   3.339   2.892
48666W        W12610  14.144  20.628  14.416
48667W        W12611  19.538   0.365  13.480
48668W        W12612  15.669  38.894   3.372
48669W        W12613   9.862  20.678   2.185
48670W        W12614  37.013  27.982  14.499
48671W        W12615   9.747  16.293   0.777
48672W        W12616  31.012   0.743   3.822
48673W        W12617  11.743  17.680   2.204
48674W        W12618  43.490  10.358   3.777
48675W        W12619  28.017  18.241  12.988
48676W        W12620  41.839   8.770  13.529
48677W        W12621  25.688   8.280   3.370
48678W        W12622   3.802  12.234   0.365
48679W        W12623  40.351  18.605   4.149
48680W        W12624  43.988  38.911  14.301
48681W        W12625  38.383  39.500  12.858
48682W        W12626  27.054   2.337   0.914
48683W        W12627  25.108   1.972   1.435
48684W        W12628  29.605  12.648   5.106
48685W        W12629  29.014  15.720  10.567
48686W        W12630   0.982  37.489   1.695
48687W        W12631   8.182  31.543  13.314
48688W        W12632   2.833  37.434  11.546
48689W        W12633  41.023  28.548   4.822
48690W        W12634  40.924   5.403  12.968
48691W        W12635  21.583  44.306   3.724
48692W        W12636   8.162  19.754  11.948
48693W        W12637   2.756  35.578   0.858
48694W        W12638  14.243  33.876   2.393
48695W        W12639   2.888  39.008   3.710
48696W        W12640  11.280  17.645   4.271
48697W        W12641   8.788  44.448   4.662
48698W        W12642  18.175  23.655  13.926
48699W        W12643  16.805  27.604  11.875
48700W        W12644  33.122  27.587   4.636
48701W        W12645  10.312  39.983   0.472
48702W        W12646   1.807  13.723  12.555
48703W        W12647  29.429  39.836   0.242
48704W        W12648   7.401  25.595  12.078
48705W        W12649   7.296  25.137   1.364
48706W        W12650  18.660  23.600   1.304
48707W        W12651   6.409  25.470  11.437
48708W        W12652  14.771  43.405  11.941
48709W        W12653  24.146  17.619  13.367
48710W        W12654  35.440   5.734   0.748
48711W        W12655   2.286  39.903   0.768
48712W        W12656  19.638  14.228   3.656
48713W        W12657  25.648  43.466  14.354
48714W        W12658  38.957   8.842   1.896
48715W        W12659  18.677  40.354   2.353
48716W        W12660  13.744  30.609  14.358
48717W        W12661  44.902  25.210  13.543
48718W        W12662  34.488  22.530  11.067
48719W        W12663  40.935  23.550  12.551
48720W        W12664   8.686  32.524   2.822
48721W        W12665   7.188   1.310  13.795
48722W        W12666  41.026  31.034  13.865
48723W        W12667  12.823  14.104   3.659
48724W        W12668  23.010  24.624  12.568
48725W        W12669  19.113  33.069   0.962
48726W        W12670  16.774  23.636  11.054
48727W        W12671  35.597  26.684  11.539
48728W        W12672   4.920  15.091  12.561
48729W        W12673  24.607   7.849   2.322
48730W        W12674  30.998  16.193   1.354
48731W        W12675  22.030  18.265  11.995
48732W        W12676  44.281   0.896  10.483
48733W        W12677  28.605   4.394   1.280
48734W        W12678  21.618   8.772   0.302
48735W        W12679  44.794  34.978  14.917
48736W        W12680  13.667  17.073  13.466
48737W        W12681  42.985   2.296   3.238
48738W        W12682   0.833  42.515   0.865
48739W        W12683   0.858   8.791  10.997
48740W        W12684  25.169   1.773   3.277
48741W        W12685  40.474   8.663   0.774
48742W        W12686  41.844  35.521  12.499
48743W        W12687  22.187  24.562   3.653
48744W        W12688   2.306  15.286  13.502
48745W        W12689   5.345   7.275   1.351
48746W        W12690  27.192   2.353   3.253
48747W        W12691  15.327  13.259   0.289
48748W        W12692  21.619  39.359   4.816
48749W        W12693  33.122  26.963   1.919
48750W        W12694  15.205   5.272   1.244
48751W        W12695   4.317  27.100   4.681
48752W        W12696   4.771   5.305  11.491
48753W        W12697  11.284  32.482  12.424
48754W        W12698  22.739  42.448   1.446
48755W        W12699  28.122  27.972   1.375
48756W        W12700  34.026  22.244   4.177
48757W        W12701  23.056  41.363  14.909
48758W        W12702   2.301  21.230   2.835
48759W        W12703  16.733   1.251  11.582
48760W        W12704  10.731  34.512  10.485
48761W        W12705   3.440  23.104   1.783
48762W        W12706  40.456  11.658   1.307
48763W        W12707  32.402   3.371   1.241
48764W        W12708  35.589  17.178   0.428
48765W        W12709  38.527   7.907   0.904
48766W        W12710   4.733  34.591   4.697
48767W        W12711  22.639  32.985   0.778
48768W        W12712   3.811  39.968   4.150
48769W        W12713  19.258  18.776   3.745
48770W        W12714  15.799   8.766   1.867
48771W        W12715   3.829  13.322   4.244
48772W        W12716   4.852  39.922   2.316
48773W        W12717  36.434  36.009   2.714
48774W        W12718  24.144  20.080  12.830
48775W        W12719  31.947  37.048   2.317
48776W        W12720  23.067   2.399  14.788
48777W        W12721  23.583  16.140   2.895
48778W        W12722   5.193  39.427   3.811
48779W        W12723  34.118   9.204  11.029
48780W        W12724  18.771   8.390   2.380
48781W        W12725  11.658  10.368  12.385
48782W        W12726  29.156  20.668   4.749
48783W        W12727   1.440  34.985   1.234
48784W        W12728  14.328  28.520   2.870
48785W        W12729   2.729   2.810   3.170
48786W        W12730  30.617   7.282  13.469
48787W        W12731  44.499  22.136   3.740
48788W        W12732   2.318  23.733   3.214
48789W        W12733  32.898  34.976   4.327
48790W        W12734   1.347   8.717  11.086
48791W        W12735  29.574  34.591   2.283
48792W        W12736  35.368  38.440  14.788
48793W        W12737   5.887   1.766   1.217
48794W        W12738  11.797   4.236   3.790
48795W        W12739  13.152  36.072   1.836
48796W        W12740  14.778  11.766  11.464
48797W        W12741  18.126  35.883  12.346
48798W        W12742  39.967  20.272  11.111
48799W        W12743  42.783  28.449  14.940
48800W        W12744  44.790  24.136   1.851
48801W        W12745  30.963   7.771  12.066
48802W        W12746  14.708  30.152  11.474
48803W        W12747  23.046  12.297  14.011
48804W        W12748  13.129  17.081  13.993
48805W        W12749  20.609  16.287  14.457
48806W        W12750  15.111  32.595  12.346
48807W        W12751  41.840   8.330   0.865
48808W        W12752  29.156   0.491   0.901
48809W        W12753  22.548  26.987  13.008
48810W        W12754  20.622  14.186   0.895
48811W        W12755  44.850   5.431  13.820
48812W        W12756  17.559  26.958  12.840
48813W        W12757  25.190  29.012  11.050
48814W        W12758  13.642  19.591   2.809
48815W        W12759  40.314  41.876  12.095
48816W        W12760  30.536  28.539  13.483
48817W        W12761  28.103   4.836  10.912
48818W        W12762  39.438  32.103  13.432
48819W        W12763   3.915  11.360  11.936
48820W        W12764  17.614  28.473  12.496
48821W        W12765  43.768   4.813   4.765
48822W        W12766  28.983  36.015  14.819
48823W        W12767  11.799  29.567  10.927
48824W        W12768  24.689  44.371   1.770
48825W        W12769   0.813  14.205  13.509
48826W        W12770  35.910  12.846  10.911
48827W        W12771  30.428  41.537  11.544
48828W        W12772   3.944  24.067  12.974
48829W        W12773  35.574  13.168  14.827
48830W        W12774  36.382  11.729  14.413
48831W        W12775  19.144   9.228  13.446
48832W        W12776  28.492  43.892   3.724
48833W        W12777   0.756  11.188  13.804
48834W        W12778  41.830  44.368   2.783
48835W        W12779  17.733   7.909  11.510
48836W        W12780  28.073   0.846   4.139
48837W        W12781  24.616   4.209  11.508
48838W        W12782  11.159  18.612  13.418
48839W        W12783  41.439  22.017  10.987
48840W        W12784  25.621  28.456  12.480
48841W        W12785  11.644  26.699   5.150
48842W        W12786  10.865  41.306  14.375
48843W        W12787  16.663  16.776   4.777
48844W        W12788  42.019  40.980   2.668
48845W        W12789   5.221  27.988  10.638
48846W        W12790  39.415  10.233  14.436
48847W        W12791  39.008  23.535   4.664
48848W        W12792  12.188  32.498  12.082
48849W        W12793  16.641   9.720  14.808
48850W        W12794  43.990  44.892   4.289
48851W        W12795   6.897  31.939   3.709
48852W        W12796  16.218  38.911  14.470
48853W        W12797  39.818  38.463  11.057
48854W        W12798  43.498  31.122   4.281
48855W        W12799  23.158  21.534  11.922
48856W        W12800   8.344  14.149  14.788
48857W        W12801  16.636  23.124   0.448
48858W        W12802   8.719  13.636  13.858
48859W        W12803   3.424  17.081  11.527
48860W        W12804  30.031  24.595   0.285
48861W        W12805  32.984   0.828  11.591
48862W        W12806  17.687  34.951  11.425
48863W        W12807   5.198  14.645   0.757
48864W        W12808  20.132  18.632   0.345
48865W        W12809   0.914   0.753  11.104
48866W        W12810  39.471  39.934   0.966
48867W        W12811  26.488  41.862   1.432
48868W        W12812   9.794   8.875   0.850
48869W        W12813  25.177  11.283  13.030
48870W        W12814  19.073  43.989  14.921
48871W        W12815  28.076  16.758  11.469
48872W        W12816  21.571  22.196  11.561
48873W        W12817  22.252  10.263  12.865
48874W        W12818  38.900  19.198   2.183
48875W        W12819  13.778  16.616   0.278
48876W        W12820  40.413   7.789  10.431
48877W        W12821   6.400  22.629   4.128
48878W        W12822   4.828  14.102  10.508
48879W        W12823   1.924  17.127  11.550
48880W        W12824  28.551  40.425  13.838
48881W        W12825  18.719  38.560  13.846
48882W        W12826  22.128   3.425  11.592
48883W        W12827  25.199  30.540  14.886
48884W        W12828   1.946  29.456  12.021
48885W        W12829   1.737  40.999   4.728
48886W        W12830  11.754   8.871   2.250
48887W        W12831  39.402  26.101   0.966
48888W        W12832  28.514  26.479  10.128
48889W        W12833  32.567   6.830  14.825
48890W        W12834  39.930  15.241  11.954
48891W        W12835  16.201  26.561   2.408
48892W        W12836  39.435  37.906  10.434
48893W        W12837  25.549  24.719   2.802
48894W        W12838  27.134   7.330  10.967
48895W        W12839  20.187  43.309   1.401
48896W        W12840  20.097  36.033   0.914
48897W        W12841   9.319   5.380   4.655
48898W        W12842   0.778   3.788  12.829
48899W        W12843  22.692  27.642  11.375
48900W        W12844   9.764  35.907   1.257
48901W        W12845  32.928  36.504  14.778
48902W        W12846  35.948  36.459   0.281
48903W        W12847  37.470  36.945   2.704
48904W        W12848  17.162   0.929   5.297
48905W        W12849  27.076  39.982   2.390
48906W        W12850  19.169  18.645   4.320
48907W        W12851  23.707  20.056  13.463
48908W        W12852  17.180   3.441  14.842
48909W        W12853   4.860  18.600  10.497
48910W        W12854  35.928  28.152   3.359
48911W        W12855   1.889  21.252   2.864
48912W        W12856  26.462  23.522   9.968
48913W        W12857  17.151  15.210   4.772
48914W        W12858  43.504  16.113   0.393
48915W        W12859  44.947  40.499   2.824
48916W        W12860  18.270  37.976  14.380
48917W        W12861  12.333  25.148  13.909
48918W        W12862  42.338  11.712  12.985
48919W        W12863  20.676   6.252  14.397
48920W        W12864  44.753  15.595  13.893
48921W        W12865  25.035  17.705  10.926
48922W        W12866   1.265  35.038  11.988
48923W        W12867   3.459  40.848  14.331
48924W        W12868   4.832  43.963  12.550
48925W        W12869  27.683  42.362   4.793
48926W        W12870  41.445  43.768   0.343
48927W        W12871  14.757  15.278   0.866
48928W        W12872  28.448   7.410   3.855
48929W        W12873   3.910  29.965   2.789
48930W        W12874  42.781  18.230  14.943
48931W        W12875  40.965   9.880  10.560
48932W        W12876   1.344  26.549   0.863
48933W        W12877   3.271  33.575   3.672
48934W        W12878  20.064  13.214   4.668
48935W        W12879  30.526   6.802   0.417
48936W        W12880  31.099  40.408   3.203
48937W        W12881  34.527   0.986  13.040
48938W        W12882  38.911  27.571   4.823
48939W        W12883  33.952   2.880   0.857
48940W        W12884  41.314  10.794  12.507
48941W        W12885  34.001  26.160  11.999
48942W        W12886  38.459  17.613  13.497
48943W        W12887  37.087   6.415   0.849
48944W        W12888  37.482   7.227  10.928
48945W        W12889  13.691   8.659   0.889
48946W        W12890   5.326  19.598  14.911
48947W        W12891   6.183  19.766   4.170
48948W        W12892  23.130  29.937   1.769
48949W        W12893   9.332   2.354   2.336
48950W        W12894  23.027  30.997   2.719
48951W        W12895  34.450  17.617   3.637
48952W        W12896  26.987  10.138   0.460
48953W        W12897  21.090  30.922  13.494
48954W        W12898  20.668  32.934  12.079
48955W        W12899  16.637  35.992   1.210
48956W        W12900   7.876  39.853  11.988
48957W        W12901   1.732   9.382   3.199
48958W        W12902  11.370  15.176  12.386
48959W        W12903  30.909   0.409  14.277
48960W        W12904  44.934  20.031  13.347
48961W        W12905  26.114  40.341   3.169
48962W        W12906  30.609  31.896  13.990
48963W        W12907  26.106  18.078  13.908
48964W        W12908  25.540  13.771  13.404
48965W        W12909  37.843  11.747   1.225
48966W        W12910  17.581  34.423  10.949
48967W        W12911   1.277   9.653  14.975
48968W        W12912  14.659  44.848  10.544
48969W        W12913  23.687  15.282   0.887
48970W        W12914  38.338  36.988   1.828
48971W        W12915  33.410   0.361  11.042
48972W        W12916   1.937   7.732   0.848
48973W        W12917  44.466  33.020   4.181
48974W        W12918   5.383  42.422   4.778
48975W        W12919  44.913  28.614   1.297
48976W        W12920  35.856  40.031  12.543
48977W        W12921  41.796  37.957  11.895
48978W        W12922  30.540  17.272  12.034
48979W        W12923  22.519  26.662  11.393
48980W        W12924  16.159   8.366   2.356
48981W        W12925  30.030  12.754  13.046
48982W        W12926  13.281  18.126   1.397
48983W        W12927   5.248   1.784  12.364
48984W        W12928   4.378  39.966  12.445
48985W        W12929  37.496  35.963   4.122
48986W        W12930   6.338  43.907   2.857
48987W        W12931  23.072  23.601  12.511
48988W        W12932   7.226  41.475   2.288
48989W        W12933  14.629   3.845   1.769
48990W        W12934   6.185  15.312  12.878
48991W        W12935  14.830  41.009   2.877
48992W        W12936  43.345  27.013  14.878
48993W        W12937  36.429  43.395   1.418
48994W        W12938  10.640  41.848   0.419
48995W        W12939  17.103   9.853   5.283
48996W        W12940   8.719  41.298  14.478
48997W        W12941   2.451  33.888  13.922
48998W        W12942  26.482   6.735   2.363
48999W        W12943  30.454   6.233  13.472
49000W        W12944  11.222  39.469   3.274
49001W        W12945  19.176  30.612   3.827
49002W        W12946   0.447   5.891   4.625
49003W        W12947  27.650  18.615   3.245
49004W        W12948  36.507   9.150   2.722
49005W        W12949  34.448  20.612   0.888
49006W        W12950  43.837  20.082   3.208
49007W        W12951  18.106  23.613  10.554
49008W        W12952  34.520  41.497   3.788
49009W        W12953  34.951   1.304  13.990
49010W        W12954  36.911  31.921  13.924
49011W        W12955  25.035  18.759   0.808
49012W        W12956  15.107   0.803   1.269
49013W        W12957  36.469  12.144   0.728
49014W        W12958  27.102  38.961  11.003
49015W        W12959   0.489  20.168  11.078
49016W        W12960   7.181  17.254  14.295
49017W        W12961  43.887  34.107  13.809
49018W        W12962  18.570  37.022  14.008
49019W        W12963   8.870  27.493  13.995
49020W        W12964  18.198  33.405   1.839
49021W        W12965   8.247  32.557  11.403
49022W        W12966  22.589  26.675  10.616
49023W        W12967  10.203  23.575   5.283
49024W        W12968  15.131  23.015   2.696
49025W        W12969   9.686   9.662   0.755
49026W        W12970  19.054  16.298  13.870
49027W        W12971  28.436  43.430   2.725
49028W        W12972  28.940  31.963   2.710
49029W        W12973  12.149  35.427   0.384
49030W        W12974  20.273  20.240   1.763
49031W        W12975  39.431  31.899  11.870
49032W        W12976  24.652  35.368   4.247
49033W        W12977   8.710  10.328   0.839
49034W        W12978   4.423  27.983   1.394
49035W        W12979  25.994  13.320   0.275
49036W        W12980  25.509  23.240   3.825
49037W        W12981  28.646   8.861  11.088
49038W        W12982  21.529  27.528  14.508
49039W        W12983  35.904  30.447   1.265
49040W        W12984  10.364   5.914   1.765
49041W        W12985  20.192  37.481   5.180
49042W        W12986   0.831   4.249  12.428
49043W        W12987   3.906  34.585  11.956
49044W        W12988  17.249   9.879  12.015
49045W        W12989  27.446  19.547   4.780
49046W        W12990  14.753   9.692   2.258
49047W        W12991  15.207  13.179  11.881
49048W        W12992  10.205  37.900  14.442
49049W        W12993   8.219   7.264   3.658
49050W        W12994  30.558  14.719  12.027
49051W        W12995  20.172  41.499   0.406
49052W        W12996   7.760  29.929  14.400
49053W        W12997   1.753   1.754  10.526
49054W        W12998  15.258   8.256   1.699
49055W        W12999  41.906  11.189   3.633
49056W        W13000  10.161  42.328  12.891
49057W        W13001  21.105  41.412  12.989
49058W        W13002   4.836   6.402  13.802
49059W        W13003  21.054  33.527  14.793
49060W        W13004  28.561  39.998   0.457
49061W        W13005   2.907  14.245   3.753
49062W        W13006  19.713  44.757   1.774
49063W        W13007  32.458  29.161  14.332
49064W        W13008  41.320   0.461  11.975
49065W        W13009   4.832   6.374  12.847
49066W        W13010  17.069  37.510  10.613
49067W        W13011  31.540  20.035  14.398
49068W        W13012   5.844   5.384  14.856
49069W        W13013  20.036  37.353   3.841
49070W        W13014   5.328  32.444   2.342
49071W        W13015  39.911   5.701   2.211
49072W        W13016  43.392   9.334  14.397
49073W        W13017  10.659  10.295  10.564
49074W        W13018  21.085   4.728   4.213
49075W        W13019  30.116  42.345  14.763
49076W        W13020  37.993  40.549  12.469
49077W        W13021  24.977   8.757  12.456
49078W        W13022  38.489   4.283   4.257
49079W        W13023  13.169  34.569   1.879
49080W        W13024   2.228  21.095   4.279
49081W        W13025  34.391  11.854  11.426
49082W        W13026  32.888  20.135   1.241
49083W        W13027   3.830  15.256  10.888
49084W        W13028  31.494  10.700  13.515
49085W        W13029   9.759   1.808   1.892
49086W        W13030   7.222  39.886   1.422
49087W        W13031  30.969  15.664   0.281
49088W        W13032  13.254  31.472   3.218
49089W        W13033  29.128  25.155  11.610
49090W        W13034  34.450  44.489   1.395
49091W        W13035  17.234  39.047  11.014
49092W        W13036  41.535   3.803   4.638
49093W        W13037   6.368   6.695   4.267
49094W        W13038  17.251   8.362  13.045
49095W        W13039  39.335  39.374  11.932
49096W        W13040  32.597  39.968  13.362
49097W        W13041  21.523   6.220   4.274
49098W        W13042  19.675  10.354  12.007
49099W        W13043  10.291  43.808  10.536
49100W        W13044  43.286   8.789  13.339
49101W        W13045  12.335  19.731   1.920
49102W        W13046  35.037   7.864   1.906
49103W        W13047  16.127  12.296  12.047
49104W        W13048   9.660   1.345   4.293
49105W        W13049  30.564  15.811   2.198
49106W        W13050  19.096   7.360  13.359
49107W        W13051  12.803  23.546   4.734
49108W        W13052   6.422  16.240   0.868
49109W        W13053  10.199  29.946  11.382
49110W        W13054   1.375  23.022  12.399
49111W        W13055  13.164  27.638  12.833
49112W        W13056   0.484  44.002  12.883
49113W        W13057  38.440   0.328  13.382
49114W        W13058  26.188   9.768  13.481
49115W        W13059  33.579  17.298  12.009
49116W        W13060  11.176  30.455   2.874
49117W        W13061  23.606   9.852   3.298
49118W        W13062   6.421  26.578   5.270
49119W        W13063   2.261  11.660  14.906
49120W        W13064  38.953  22.736   1.445
49121W        W13065  29.049  28.567   2.178
49122W        W13066  40.032  41.501  10.626
49123W        W13067  10.148  31.961  14.422
49124W        W13068   2.252  11.210  11.450
49125W        W13069  29.098  18.588  13.310
49126W        W13070  42.856  23.083  12.951
49127W        W13071  37.424  39.907   0.900
49128W        W13072  23.646  17.093   0.960
49129W        W13073  42.455  27.553   0.744
49130W        W13074  28.618  42.478  10.449
49131W        W13075   7.900  29.067  11.585
49132W        W13076  39.864  25.018  12.997
49133W        W13077   9.795  25.557   3.687
49134W        W13078  26.183  28.070   0.245
49135W        W13079  11.304  40.483   4.250
49136W        W13080   7.881  41.958   1.353
49137W        W13081  15.633   9.793   0.809
49138W        W13082  16.630  37.913   3.771
49139W        W13083  23.109  24.671   4.699
49140W        W13084  16.115  36.026   2.209
49141W        W13085  34.547  32.572   4.350
49142W        W13086  40.344  19.600  11.393
49143W        W13087   6.276  24.006   1.320
49144W        W13088  32.005  35.451  14.810
49145W        W13089   9.691  33.607  12.987
49146W        W13090   9.719   8.354   2.819
49147W        W13091  16.594  33.504   1.416
49148W        W13092  10.213  37.071   1.773
49149W        W13093  11.243   6.376  14.402
49150W        W13094  44.393   1.881  13.056
49151W        W13095  23.162  22.630   4.677
49152W        W13096  26.515  42.350   5.261
49153W        W13097  37.395  25.992   1.348
49154W        W13098  21.096  27.963  13.865
49155W        W13099  12.174  40.845   4.272
49156W        W13100  12.763   8.754  10.918
49157W        W13101   6.793   4.351   3.692
49158W        W13102  28.132  42.367  12.889
49159W        W13103  36.025  36.929  10.635
49160W        W13104  31.091  18.628  11.540
49161W        W13105   3.443  21.253   0.780
49162W        W13106  27.503  13.742  13.037
49163W        W13107  34.117  19.147   2.750
49164W        W13108  41.496  29.480  14.032
49165W        W13109   5.224   3.309   3.855
49166W        W13110  42.987  26.070  13.443
49167W        W13111  10.878  36.914  13.351
49168W        W13112  42.335  15.602   0.472
49169W        W13113  42.379  28.169   3.864
49170W        W13114  17.600  12.662  11.967
49171W        W13115   8.883  28.491   2.894
49172W        W13116  11.276   1.339   3.761
49173W        W13117  30.421  22.011  11.058
49174W        W13118  24.490  28.665   4.746
49175W        W13119  36.946  20.691   0.857
49176W        W13120  41.813  16.112   2.802
49177W        W13121  35.070  37.031   2.362
49178W        W13122  28.084  28.156   4.652
49179W        W13123  20.568  43.359   2.400
49180W        W13124  19.284  37.022  13.369
49181W        W13125  34.976  31.421   1.856
49182W        W13126  43.765  40.348  12.980
49183W        W13127  24.612  29.134   0.365
49184W        W13128  13.284  35.371  13.879
49185W        W13129  26.004  17.644   2.203
49186W        W13130  14.653   5.849  12.561
49187W        W13131  12.219  44.308  11.066
49188W        W13132  34.946  42.793   2.746
49189W        W13133  25.080  39.855   5.087
49190W        W13134  34.994  43.966  11.085
49191W        W13135  23.233   9.866   0.909
49192W        W13136   7.383  24.993  11.018
49193W        W13137  17.654  18.579   1.341
49194W        W13138  38.978  29.947   4.610
49195W        W13139   9.284  17.660  10.967
49196W        W13140  28.123  17.063   0.278
49197W        W13141   2.859  10.231  10.990
49198W        W13142  42.510  13.181  10.575
49199W        W13143  23.613   1.853   3.754
49200W        W13144  15.718   2.880   0.316
49201W        W13145  29.982  17.681   1.779
49202W        W13146  37.864  32.552  10.907
49203W        W13147  19.778  17.783   3.304
49204W        W13148  12.198  21.067   3.865
49205W        W13149  23.598   0.899  13.442
49206W        W13150  29.545   0.361  12.089
49207W        W13151  27.011  14.778   4.667
49208W        W13152  39.045  32.993   4.622
49209W        W13153  40.910  22.189   2.398
49210W        W13154  40.898  21.642  14.472
49211W        W13155  26.470  16.176   4.618
49212W        W13156  11.741  19.182  10.599
49213W        W13157  15.267   7.686  12.342
49214W        W13158  35.080  41.459   2.772
49215W        W13159  11.792  39.524  11.904
49216W        W13160   2.455  17.098   1.435
49217W        W13161   6.392  23.617   4.627
49218W        W13162  17.662   6.308  13.966
49219W        W13163   3.768  19.087  12.083
49220W        W13164  15.284  10.384  13.796
49221W        W13165   3.233  43.991   0.782
49222W        W13166  32.462  12.290  13.334
49223W        W13167   9.381   3.330  13.986
49224W        W13168   1.912  31.506  12.468
49225W        W13169  14.139  43.933   2.333
49226W        W13170  40.838   4.854  11.491
49227W        W13171  34.432  27.689   4.311
49228W        W13172  19.586  22.709   5.252
49229W        W13173  31.021  16.284  11.611
49230W        W13174  16.113  16.146   0.328
49231W        W13175  18.639  39.324   1.403
49232W        W13176  32.032  11.321   3.766
49233W        W13177   4.216  27.034  14.348
49234W        W13178  25.574  36.499   1.435
49235W        W13179  30.004  19.276  10.434
49236W        W13180  13.123  33.076  13.859
49237W        W13181  18.053  36.052   3.845
49238W        W13182   5.288  33.113   3.667
49239W        W13183  25.126  15.626  13.909
49240W        W13184  40.412   5.230  12.390
49241W        W13185  27.478  28.612   4.295
49242W        W13186  43.905  32.545  14.763
49243W        W13187  32.423  38.845  13.499
49244W        W13188   1.260  38.423  11.041
49245W        W13189  16.584  14.315  11.405
49246W        W13190   6.381  12.309   1.446
49247W        W13191   7.808  11.206  14.386
49248W        W13192  27.666  20.616   0.875
49249W        W13193  26.955  33.580  12.959
49250W        W13194  37.408  30.570  11.988
49251W        W13195  37.379  15.128   1.249
49252W        W13196  14.802   7.724  11.927
49253W        W13197  34.023  33.472   0.910
49254W        W13198  13.839  29.040  14.836
49255W        W13199  16.221  35.013   5.106
49256W        W13200  33.441  11.373   3.775
49257W        W13201  24.218  38.844   1.268
49258W        W13202  38.524  16.751   0.403
49259W        W13203   6.415  27.069   2.240
49260W        W13204   9.671  22.090  13.055
49261W        W13205   7.793  38.498  13.860
49262W        W13206   0.839  36.526   2.767
49263W        W13207   1.476  16.144   2.208
49264W        W13208  35.938   5.407   0.454
49265W        W13209   1.299  38.917  11.950
49266W        W13210  38.023  18.138   3.844
49267W        W13211  25.485   1.788  14.906
49268W        W13212   5.859  43.914   2.288
49269W        W13213  41.464  19.669  14.324
49270W        W13214  41.515  12.206   2.380
49271W        W13215   3.802  36.983   1.440
49272W        W13216   4.417  34.554  10.588
49273W        W13217  38.931   7.711  12.015
49274W        W13218  24.204  30.619   2.204
49275W        W13219  30.553  40.018   3.255
49276W        W13220  26.014  31.526   3.692
49277W        W13221  18.567  10.864  14.459
49278W        W13222  39.843  17.684  12.564
49279W        W13223  14.672  34.898   1.712
49280W        W13224   0.404   0.454  11.071
49281W        W13225  33.066  39.011   0.762
49282W        W13226  38.930   2.379   4.350
49283W        W13227  20.152  41.313  13.051
49284W        W13228  23.686  30.478   4.257
49285W        W13229  36.376  11.756   4.191
49286W        W13230  13.823  38.920  13.996
49287W        W13231   6.922  44.355   4.612
49288W        W13232  29.080   5.439  11.125
49289W        W13233  21.075  32.983   1.294
49290W        W13234  38.549  28.934   1.328
49291W        W13235  33.063  33.912   4.239
49292W        W13236  13.699   6.377   3.297
49293W        W13237  19.242  14.690   0.779
49294W        W13238  28.580   2.938   2.285
49295W        W13239  14.308  38.955   1.771
49296W        W13240   9.365  39.395   2.809
49297W        W13241  12.168  18.271  13.916
49298W        W13242  33.021  23.638  14.319
49299W        W13243  15.110  15.167   4.704
49300W        W13244  10.271   9.323  12.022
49301W        W13245  13.200  13.725   1.933
49302W        W13246  35.969  29.532  10.607
49303W        W13247   4.933   7.305   5.311
49304W        W13248  34.594  25.708   0.958
49305W        W13249  36.417  18.239   2.826
49306W        W13250  16.789   2.748  14.980
49307W        W13251  22.552  40.853   3.770
49308W        W13252  42.512  16.677  11.929
49309W        W13253   7.370   2.372   3.335
49310W        W13254  32.957  40.966  13.496
49311W        W13255  37.487  35.986   9.965
49312W        W13256  19.724  14.192   4.770
49313W        W13257  33.467  15.707  14.813
49314W        W13258  39.035  43.288  13.824
49315W        W13259   5.317  29.478   1.303
49316W        W13260  30.646  14.591   2.685
49317W        W13261  41.485   7.827   4.616
49318W        W13262   0.393  36.934  11.432
49319W        W13263  39.425  13.650   1.792
49320W        W13264  42.525  41.998   3.268
49321W        W13265  19.649  32.636   4.758
49322W        W13266  42.977  36.555  12.369
49323W        W13267  11.261  19.669   2.793
49324W        W13268  38.063   5.193   1.313
49325W        W13269   9.811  40.927   3.813
49326W        W13270  42.442  12.160  13.830
49327W        W13271  26.103  28.051   1.897
49328W        W13272   7.335   7.396   2.710
49329W        W13273   3.851  10.798  11.065
49330W        W13274  41.037   2.270   1.301
49331W        W13275  25.081  17.204   2.408
49332W        W13276  27.635  25.081  11.403
49333W        W13277  27.462  32.448   4.606
49334W        W13278  11.184  14.310  11.083
49335W        W13279  18.057  31.547   9.618
49336W        W13280  17.210  10.639  14.277
49337W        W13281   3.849  41.795  14.385
49338W        W13282  26.568  29.126  11.028
49339W        W13283  11.233  25.584  14.413
49340W        W13284  41.484  30.550  13.799
49341W        W13285  10.770  32.517   4.752
49342W        W13286  17.585  12.158   3.864
49343W        W13287  42.023  21.114   0.436
49344W        W13288  15.289  36.954  10.410
49345W        W13289  31.129  37.074  14.962
49346W        W13290   8.186  36.459  13.422
49347W        W13291  10.810   3.376   4.660
49348W        W13292  24.709  16.594   1.451
49349W        W13293  39.332  15.153  14.435
49350W        W13294  25.106   0.942  14.809
49351W        W13295   8.734  31.100   3.161
49352W        W13296  38.032  15.612   1.274
49353W        W13297  32.961   8.252   2.343
49354W        W13298   9.164  13.799  14.898
49355W        W13299  43.846  37.970  12.373
49356W        W13300   6.805  33.578  13.389
49357W        W13301  22.230  18.592   2.748
49358W        W13302  13.284   0.416  14.497
49359W        W13303   8.883   2.955   2.182
49360W        W13304  10.692  25.609  13.417
49361W        W13305  34.422  44.794  12.554
49362W        W13306  31.404   3.347   1.845
49363W        W13307  22.028  20.107   1.369
49364W        W13308  28.107  39.848  12.877
49365W        W13309  41.003  24.117  14.320
49366W        W13310  39.987  31.136  11.051
49367W        W13311  36.068  13.172  14.933
49368W        W13312  34.045  18.604  10.612
49369W        W13313  12.185  26.463  13.513
49370W        W13314  10.368  19.171  11.089
49371W        W13315  39.369  12.212   0.930
49372W        W13316  24.023  39.399  10.495
49373W        W13317  19.263  11.676  11.428
49374W        W13318  12.820  25.048   1.823
49375W        W13319  28.007  32.416  11.029
49376W        W13320  41.829  12.640   1.696
49377W        W13321  29.476   4.910   0.375
49378W        W13322  32.981  27.451   4.202
49379W        W13323  24.628  16.637   0.404
49380W        W13324  37.519  29.648   3.694
49381W        W13325  36.366  22.147  13.312
49382W        W13326  38.876  31.409  10.608
49383W        W13327  43.441  12.675   0.915
49384W        W13328  21.150  31.088   3.640
49385W        W13329  23.064  42.303   2.223
49386W        W13330  31.648  33.036  10.977
49387W        W13331  36.543   0.924   2.863
49388W        W13332  30.438  14.273  14.472
49389W        W13333  39.000  44.446   3.215
49390W        W13334  32.573  26.115   2.325
49391W        W13335   8.395  24.635  10.900
49392W        W13336  19.750  21.683   1.308
49393W        W13337  22.640  17.580  11.020
49394W        W13338  28.959  41.317   2.342
49395W        W13339  34.057   3.898  14.801
49396W        W13340  15.671  26.052  12.954
49397W        W13341  25.102  27.036  10.998
49398W        W13342  37.417  26.117  13.055
49399W        W13343  39.990   6.339  13.331
49400W        W13344  43.430   7.301   2.387
49401W        W13345  26.977   2.766  10.628
49402W        W13346  38.010  12.162  11.047
49403W        W13347  36.531   5.414  14.950
49404W        W13348  12.125  15.708  14.797
49405W        W13349  11.237  30.120  12.032
49406W        W13350  12.129   6.802   2.367
49407W        W13351  36.963  26.036   4.163
49408W        W13352  13.317  27.471   0.337
49409W        W13353  28.657   4.842   3.785
49410W        W13354  12.796   7.842  13.377
49411W        W13355  18.067  41.295   0.781
49412W        W13356  32.934  36.916   4.333
49413W        W13357  26.478  43.502  13.413
49414W        W13358  32.443  17.696   3.687
49415W        W13359  17.146  42.999   9.948
49416W        W13360  16.639  30.585  14.935
49417W        W13361   4.344  18.102   4.206
49418W        W13362  40.027   6.894   0.837
49419W        W13363  32.064  12.790   1.227
49420W        W13364  36.450   8.327  12.036
49421W        W13365  25.049   4.355   3.816
49422W        W13366  38.918  30.157  12.410
49423W        W13367  29.993  21.534   3.180
49424W        W13368  39.354   0.983  14.933
49425W        W13369  29.968  22.104   0.956
49426W        W13370  15.765  37.930  11.391
49427W        W13371  19.737  44.358   4.343
49428W        W13372  44.919   7.891  13.960
49429W        W13373  13.208  13.700   3.246
49430W        W13374  25.709  28.960   0.855
49431W        W13375  37.404  34.933   4.322
49432W        W13376  28.942   1.760   1.231
49433W        W13377  40.548   3.721  13.346
49434W        W13378  33.489  21.642  10.522
49435W        W13379  30.940   0.827  14.808
49436W        W13380  12.354   7.195   4.646
49437W        W13381  19.778   8.401   4.639
49438W        W13382  29.975  12.301   4.726
49439W        W13383  28.504  11.681  14.021
49440W        W13384  17.190  14.628  12.377
49441W        W13385  43.964   4.803  13.395
49442W        W13386  41.373  17.644  11.947
49443W        W13387  44.330  16.089   4.150
49444W        W13388  43.481  38.525  14.875
49445W        W13389  40.878  43.318   3.334
49446W        W13390  36.533   7.740  14.407
49447W        W13391   2.266  21.700  12.493
49448W        W13392  22.166   9.235   2.294
49449W        W13393  33.421  38.356   1.266
49450W        W13394  24.142  23.558   3.371
49451W        W13395  33.387  36.592   3.705
49452W        W13396  35.996  27.044   2.221
49453W        W13397  36.400  21.103   2.677
49454W        W13398   0.838  21.556  11.382
49455W        W13399  23.156  26.593   2.808
49456W        W13400  30.487  10.333   2.703
49457W        W13401  18.765   3.793   3.721
49458W        W13402  11.221  29.003  14.792
49459W        W13403  27.689   0.317  12.843
49460W        W13404   0.746  43.481  11.535
49461W        W13405   8.357  35.438  10.581
49462W        W13406   0.983   9.856  10.487
49463W        W13407   7.232  44.305  12.887
49464W        W13408   3.830  11.808  11.542
49465W        W13409  36.571   0.385  13.987
49466W        W13410  30.525  34.077   0.933
49467W        W13411  39.347  24.073  10.560
49468W        W13412  19.711  19.572  13.008
49469W        W13413  39.997  39.907  11.976
49470W        W13414  20.628  11.360  11.982
49471W        W13415  29.489  44.977  12.932
49472W        W13416   5.877  19.610   2.209
49473W        W13417  25.987  21.613   2.216
49474W        W13418  27.165  28.468  10.613
49475W        W13419  26.477  16.573  12.524
49476W        W13420  22.200  32.959  11.501
49477W        W13421  10.207  35.868   3.671
49478W        W13422  18.167  34.927   3.746
49479W        W13423  20.211   2.860  12.455
49480W        W13424  31.566  36.025   1.696
49481W        W13425  39.395  32.456  10.960
49482W        W13426  31.559  14.613  13.025
49483W        W13427  30.095  33.066  10.927
49484W        W13428  27.972   7.754  11.029
49485W        W13429  24.723  32.959   2.737
49486W        W13430  43.430   9.780  14.430
49487W        W13431  12.211  13.657   3.742
49488W        W13432  19.533   8.313  14.313
49489W        W13433  39.846  43.458  10.430
49490W        W13434  40.488   7.251   3.673
49491W        W13435   2.344  37.877   4.678
49492W        W13436  36.962  39.451   3.839
49493W        W13437  13.637  13.160  12.889
49494W        W13438  23.237  20.715   2.780
49495W        W13439  22.627   7.370  10.989
49496W        W13440  24.686  13.145  11.574
49497W        W13441  21.079   6.220  13.457
49498W        W13442  31.512  42.320  13.938
49499W        W13443  29.163  12.164   0.313
49500W        W13444  39.489  14.792  10.434
49501W        W13445  31.151   3.223  13.976
49502W        W13446  34.943   7.819   3.748
49503W        W13447   3.373   8.744   0.455
49504W        W13448  19.084   5.800   3.863
49505W        W13449  17.603  29.119  14.403
49506W        W13450   9.201  20.569  13.530
49507W        W13451  13.237  19.247  11.874
49508W        W13452   6.364   6.319  11.377
49509W        W13453  19.550  32.967  13.384
49510W        W13454  35.371  27.147  12.012
49511W        W13455  42.400   4.701   1.252
49512W        W13456   9.819  17.740  13.034
49513W        W13457  16.287  32.931  11.455
49514W        W13458  24.490  37.400   2.278
49515W        W13459  34.521  30.013   3.209
49516W        W13460   7.788  20.710   1.805
49517W        W13461   5.245   7.869   2.679
49518W        W13462  10.667  22.030   0.958
49519W        W13463  28.677  18.095   9.992
49520W        W13464  37.042  13.742  14.400
49521W        W13465  11.665  42.831  13.340
49522W        W13466   9.727  16.288  11.423
49523W        W13467  37.857   1.388  10.438
49524W        W13468  29.933   6.703  13.531
49525W        W13469  13.703  10.861  13.489
49526W        W13470  15.291  12.354  12.555
49527W        W13471   6.395  25.986  12.849
49528W        W13472  12.157  42.298   2.865
49529W        W13473  31.412  44.796   2.300
49530W        W13474  41.419  30.919   3.769
49531W        W13475  28.593   9.673   4.741
49532W        W13476   3.721  34.922  12.949
49533W        W13477  18.238  37.844   0.847
49534W        W13478  12.701  24.167   0.445
49535W        W13479  13.240   3.222  13.867
49536W        W13480  35.363   5.344   0.795
49537W        W13481  37.073  33.093   0.727
49538W        W13482  31.513  40.884   2.233
49539W        W13483   0.443   8.192  13.816
49540W        W13484   7.742  13.826  11.483
49541W        W13485  35.933  44.825  12.928
49542W        W13486   2.744  33.441   0.922
49543W        W13487  38.851   2.774  11.865
49544W        W13488  36.445  32.528  14.023
49545W        W13489  32.402   2.825  11.459
49546W        W13490  16.259  13.633  11.418
49547W        W13491  44.885  17.275   4.154
49548W        W13492  16.177  12.325   4.778
49549W        W13493  38.064  23.603  13.478
49550W        W13494  25.598  22.526   1.295
49551W        W13495  35.988  36.855   1.220
49552W        W13496  24.057  10.794   3.213
49553W        W13497  11.364  41.913   3.192
49554W        W13498  17.160  29.977   4.791
49555W        W13499   3.718   5.283  14.386
49556W        W13500  29.637  32.974   1.248
49557W        W13501  33.921   8.731  11.379
49558W        W13502   6.221  17.564  12.483
49559W        W13503   4.406  42.476  13.795
49560W        W13504  35.592  15.751   1.316
49561W        W13505  41.405  16.076   3.336
49562W        W13506  42.985  19.634   4.645
49563W        W13507  33.915  39.873   3.740
49564W        W13508  20.766  38.915   1.423
49565W        W13509  42.470  29.047  12.058
49566W        W13510  10.275  34.570   3.736
49567W        W13511  33.879  31.980   0.425
49568W        W13512  23.661  11.762  10.909
49569W        W13513  19.650  15.087   2.888
49570W        W13514  18.608  32.042  13.424
49571W        W13515  14.267  27.456   2.855
49572W        W13516  44.319   4.829  11.571
49573W        W13517  12.830  33.459   1.447
49574W        W13518  18.066   9.793  11.425
49575W        W13519  26.025   3.281   2.389
49576W        W13520  41.406   3.306   3.264
49577W        W13521   8.186  11.777   0.782
49578W        W13522  14.121  10.659   4.201
49579W        W13523  12.815  43.804   0.776
49580W        W13524  23.169   6.320   2.785
49581W        W13525  27.647  22.181  14.325
49582W        W13526  20.680  36.069   2.903
49583W        W13527  33.382  22.511  14.314
49584W        W13528  27.103  35.542  12.094
49585W        W13529   0.248  26.584  13.038
49586W        W13530   2.905  28.576   2.241
49587W        W13531   3.955  39.378  11.959
49588W        W13532  44.940  38.998   2.804
49589W        W13533   4.752  33.625  10.085
49590W        W13534  23.068  33.006  11.874
49591W        W13535  43.973  15.699   0.956
49592W        W13536   0.446  16.636   0.814
49593W        W13537  33.925  42.469   1.388
49594W        W13538  12.619  26.993   3.749
49595W        W13539  10.214   2.336   2.812
49596W        W13540  17.122   3.228   2.339
49597W        W13541  29.164  26.564   9.995
49598W        W13542  42.020  39.469  13.940
49599W        W13543  44.829  19.606  10.626
49600W        W13544  17.593  35.991  14.381
49601W        W13545   8.721  13.332   3.740
49602W        W13546  14.814   2.768   4.229
49603W        W13547   2.952  35.096  14.837
49604W        W13548  25.975  12.254  14.929
49605W        W13549   3.744   0.387  10.422
49606W        W13550  17.138  39.344  14.338
49607W        W13551   3.782  24.221   0.930
49608W        W13552  20.161   8.888   5.158
49609W        W13553   9.828   9.356   0.792
49610W        W13554  19.050  21.197  14.978
49611W        W13555  22.539  31.425   0.822
49612W        W13556  19.759  34.090   0.460
49613W        W13557  20.187   8.354   4.650
49614W        W13558   7.804   7.189   2.283
49615W        W13559  29.018  10.307   0.336
49616W        W13560   7.748  39.007   3.712
49617W        W13561  22.711  10.179  13.802
49618W        W13562  31.938  43.359   3.361
49619W        W13563  33.541   8.735   1.792
49620W        W13564  38.439  40.821   2.184
49621W        W13565  43.478  12.135  10.582
49622W        W13566  22.542   0.428  14.496
49623W        W13567  30.040   4.402   1.857
49624W        W13568   2.744  40.839  11.025
49625W        W13569  44.424  18.760   0.279
49626W        W13570  32.957   2.868  12.879
49627W        W13571  23.145   4.323   2.199
49628W        W13572  21.069  28.458   3.682
49629W        W13573  40.354  35.062  14.368
49630W        W13574  22.239  23.998  12.353
49631W        W13575  20.701  44.984   1.824
49632W        W13576  28.479  24.184  11.005
49633W        W13577   2.812  16.085   3.751
49634W        W13578  40.368   8.742  12.896
49635W        W13579   6.817  31.631   1.734
49636W        W13580  16.219  19.661  12.877
49637W        W13581  43.312  43.872  10.903
49638W        W13582  39.397  34.866  12.983
49639W        W13583   1.782   8.796  14.476
49640W        W13584  27.543   0.888  13.489
49641W        W13585  38.911  18.663   2.775
49642W        W13586  44.418  33.016   1.390
49643W        W13587  18.621  43.351  10.905
49644W        W13588   4.919  40.400   4.329
49645W        W13589   4.929  23.041   2.201
49646W        W13590  37.492  24.682   4.626
49647W        W13591   3.344  15.735  13.313
49648W        W13592  40.817  33.438  12.439
49649W        W13593  29.972  14.825   0.329
49650W        W13594  42.958  19.280  10.888
49651W        W13595  38.935   0.762   0.856
49652W        W13596  31.024   6.188   4.146
49653W        W13597  10.669  30.048   0.926
49654W        W13598  32.455  36.893   2.896
49655W        W13599   6.298  12.346   3.835
49656W        W13600   9.694   4.381   4.234
49657W        W13601   0.450  36.440  13.040
49658W        W13602  20.149   0.465  11.027
49659W        W13603  10.645  35.392  10.488
49660W        W13604  19.615   0.971   0.929
49661W        W13605  33.999   0.767   0.459
49662W        W13606  34.452  26.683   3.778
49663W        W13607  33.092  39.912  12.445
49664W        W13608  34.941  21.201   9.987
49665W        W13609  38.912  26.037  12.452
49666W        W13610   8.699   6.409   0.788
49667W        W13611   9.341   5.812   3.755
49668W        W13612  22.725  14.589  14.805
49669W        W13613  25.485  16.587   1.808
49670W        W13614  23.075   8.242   3.182
49671W        W13615  27.691  44.437   2.863
49672W        W13616  18.768  13.647   3.717
49673W        W13617  14.815  42.954   2.832
49674W        W13618  11.696  22.634  12.993
49675W        W13619   1.897  26.199   3.174
49676W        W13620  25.139  29.114  13.008
49677W        W13621  37.573  30.508   1.441
49678W        W13622  10.688   7.836   2.382
49679W        W13623  27.538  37.994   3.376
49680W        W13624  43.904  11.631   2.235
49681W        W13625  42.817  44.851   2.761
49682W        W13626  44.987  21.568  12.087
49683W        W13627  13.664   8.403  12.028
49684W        W13628  32.130  42.903   1.837
49685W        W13629  13.184  41.494  12.958
49686W        W13630  24.124  35.940  11.121
49687W        W13631   1.415  28.669   4.268
49688W        W13632  42.281  30.588   1.220
49689W        W13633  20.750  27.073   1.391
49690W        W13634  35.059  22.219   2.707
49691W        W13635  18.673   9.312   4.139
49692W        W13636  29.926  35.501   2.843
49693W        W13637  44.956   4.406  12.449
49694W        W13638  42.282   7.324  10.469
49695W        W13639   5.689  14.218  12.916
49696W        W13640  18.167  34.592   3.815
49697W        W13641  38.971  30.524  12.936
49698W        W13642   1.815  32.976  11.417
49699W        W13643  10.864  36.027  12.840
49700W        W13644  28.980  36.376   0.956
49701W        W13645  15.230   2.371  11.462
49702W        W13646  10.369   5.704   2.304
49703W        W13647  22.706  36.041  12.468
49704W        W13648  35.900  44.380   1.219
49705W        W13649   7.845  10.364   3.849
49706W        W13650  16.778  29.135   1.379
49707W        W13651  32.072  23.085   0.472
49708W        W13652  41.510  36.361   1.856
49709W        W13653  40.863  19.061  13.352
49710W        W13654  39.334  18.705   1.720
49711W        W13655   1.802  34.953  14.426
49712W        W13656  36.366  22.131  13.923
49713W        W13657  30.506  37.513  11.534
49714W        W13658  26.162  17.797  10.900
49715W        W13659  41.804  31.002   1.239
49716W        W13660  37.883  14.621  13.900
49717W        W13661  13.149  13.312   2.844
49718W        W13662  27.531  32.435   0.350
49719W        W13663   8.401  28.582   1.417
49720W        W13664  39.451  40.837  13.811
49721W        W13665  31.068   4.838   0.839
49722W        W13666  24.019  35.037   1.231
49723W        W13667  44.943  38.948  11.029
49724W        W13668  36.067  31.641  11.484
49725W        W13669  20.727  37.895   1.880
49726W        W13670  21.023  37.930  12.007
49727W        W13671  10.379  21.550  14.378
49728W        W13672  12.183  36.024   0.905
49729W        W13673  25.212  37.406  13.506
49730W        W13674  38.988  10.662  13.356
49731W        W13675  37.415  11.802   4.121
49732W        W13676   2.291  21.144  12.520
49733W        W13677  14.219   2.748  13.931
49734W        W13678  20.268  36.957   4.689
49735W        W13679   9.795   9.206   4.818
49736W        W13680  35.969  19.076  11.517
49737W        W13681  27.646  35.409   1.769
49738W        W13682  29.135  10.857  11.408
49739W        W13683   9.673  10.192   4.632
49740W        W13684   7.871  38.948  12.403
49741W        W13685  31.120  26.091   0.467
49742W        W13686  37.966  13.692  12.075
49743W        W13687  20.109  27.081   2.236
49744W        W13688  26.983   2.905   4.265
49745W        W13689  38.959  34.595  10.506
49746W        W13690  25.551  10.177   3.667
49747W        W13691   5.303  37.930  11.378
49748W        W13692  34.108   8.807   1.219
49749W        W13693  23.091  13.825   4.352
49750W        W13694  10.679  44.762  12.357
49751W        W13695  40.508  40.931  14.452
49752W        W13696  25.567  18.209   3.804
49753W        W13697   9.790  32.947   1.721
49754W        W13698  42.880  30.447  14.329
49755W        W13699  29.474  24.536  13.802
49756W        W13700  43.937  40.017   0.354
49757W        W13701   6.707   3.234   1.697
49758W        W13702  19.227  17.773  12.357
49759W        W13703  23.022   2.460   1.740
49760W        W13704   0.844   0.255   2.327
49761W        W13705  38.846  40.850   4.766
49762W        W13706  33.041  29.516   2.807
49763W        W13707  32.102  37.398   3.353
49764W        W13708  20.246  42.306  11.906
49765W        W13709  40.548   7.248   0.931
49766W        W13710  15.153  11.250  12.920
49767W        W13711  39.458   9.240   3.227
49768W        W13712  23.095  31.074   0.756
49769W        W13713  19.625  19.644   0.354
49770W        W13714  27.509  29.128  12.874
49771W        W13715  42.314   6.856  13.061
49772W        W13716   6.301  43.886  13.002
49773W        W13717  31.584  15.106  11.877
49774W        W13718   4.280  28.669   0.324
49775W        W13719  36.593  18.085   0.359
49776W        W13720   7.863  43.827  14.937
49777W        W13721   2.764  38.465  12.525
49778W        W13722  43.017  38.833   1.313
49779W        W13723  23.985  33.034  11.385
49780W        W13724   7.744  18.281   1.842
49781W        W13725   8.870  40.965  14.337
49782W        W13726  27.623  12.841  10.512
49783W        W13727  40.025  22.174   4.752
49784W        W13728  25.582  26.551  10.952
49785W        W13729  20.540  27.528   2.390
49786W        W13730   8.193  19.646  11.613
49787W        W13731  17.246  42.855  11.442
49788W        W13732  12.160  15.188  10.150
49789W        W13733  40.822  41.990  14.455
49790W        W13734  10.645  14.732   3.737
49791W        W13735   3.371  32.570   3.321
49792W        W13736  18.681  20.150  13.468
49793W        W13737  36.064  35.581   2.812
49794W        W13738  21.538  10.842  13.018
49795W        W13739  44.438   7.335  13.345
49796W        W13740  30.425  14.745  10.969
49797W        W13741  37.079  27.682  13.504
49798W        W13742  30.636  44.502   2.698
49799W        W13743  40.540   3.814   4.139
49800W        W13744  26.515  43.358  14.891
49801W        W13745  24.036  29.461  13.008
49802W        W13746  39.971  19.733   2.363
49803W        W13747  38.967  14.291   4.121
49804W        W13748  29.046  21.020   0.342
49805W        W13749  19.192  39.878   0.427
49806W        W13750  30.007   1.262   3.247
49807W        W13751   3.418  22.113   1.843
49808W        W13752  44.888   3.283   2.815
49809W        W13753  38.373   4.801   3.804
49810W        W13754  40.843  37.990   2.314
49811W        W13755  11.832  19.700  14.932
49812W        W13756  13.774  14.314   1.869
49813W        W13757  10.811  34.986   3.825
49814W        W13758  31.518  18.125   4.287
49815W        W13759  35.932  33.452  11.100
49816W        W13760   3.823  17.117   1.348
49817W        W13761  30.115  11.247   2.200
49818W        W13762  10.315   1.318   0.828
49819W        W13763  39.345  14.253  14.771
49820W        W13764  16.174   8.804  13.479
49821W        W13765  39.031  15.735   1.316
49822W        W13766  24.192   8.312   2.693
49823W        W13767   0.788   8.398  11.596
49824W        W13768  43.972  16.737   1.707
49825W        W13769  21.069  22.670   3.733
49826W        W13770   5.354   4.768  12.078
49827W        W13771  24.608  22.136   4.243
49828W        W13772  38.830  41.028   2.406
49829W        W13773  44.978  28.629  11.592
49830W        W13774  38.830  43.929   3.338
49831W        W13775   4.216   1.851  13.856
49832W        W13776   4.887   9.860  10.962
49833W        W13777  22.246  25.179  12.390
49834W        W13778  16.270  22.006  12.508
49835W        W13779  15.665  15.807  14.358
49836W        W13780   7.326  27.180   0.405
49837W        W13781  34.584  16.167   4.283
49838W        W13782  32.056   3.716   3.253
49839W        W13783  42.785  33.584   3.738
49840W        W13784  36.919   8.889  13.025
49841W        W13785  37.357  22.244   3.709
49842W        W13786  11.163  38.430   0.905
49843W        W13787  38.362  18.106  14.984
49844W        W13788  40.398  24.100  14.882
49845W        W13789   1.371  40.506  11.970
49846W        W13790  16.144   6.200   0.903
49847W        W13791  25.491  11.142   2.774
49848W        W13792   1.292  32.915  10.572
49849W        W13793   9.851  39.976  14.374
49850W        W13794  32.407  43.776  13.980
49851W        W13795  44.811  37.076   0.297
49852W        W13796  34.012  34.562  11.435
49853W        W13797   9.839   6.413  13.842
49854W        W13798  21.094   4.803   1.728
49855W        W13799  43.441   2.398   1.892
49856W        W13800  36.565  29.567  10.533
49857W        W13801  36.455  13.210   3.753
49858W        W13802   1.300  40.053   4.801
49859W        W13803  15.204  34.041   0.910
49860W        W13804  36.950   2.328  12.442
49861W        W13805  23.558  36.488   0.306
49862W        W13806  21.674  40.322   1.775
49863W        W13807  34.072  17.769   3.297
49864W        W13808  34.407  27.955  14.330
49865W        W13809  40.542   3.793   3.354
49866W        W13810  36.539  19.221   0.830
49867W        W13811   6.717  37.427  14.458
49868W        W13812  23.549  34.608   2.313
49869W        W13813  33.069  23.004   3.813
49870W        W13814  35.452  25.168   2.224
49871W        W13815  16.755  24.511  12.553
49872W        W13816  18.055  24.655   3.371
49873W        W13817  26.615   8.220   0.920
49874W        W13818  40.455  37.056  11.395
49875W        W13819   0.304   9.265   2.393
49876W        W13820   5.431  38.388   0.328
49877W        W13821   5.749   1.788   3.232
49878W        W13822  42.794  33.440   0.258
49879W        W13823  40.358  40.534   2.195
49880W        W13824  22.220  15.179  11.408
49881W        W13825  20.032  25.523   1.393
49882W        W13826  14.802  16.118   1.272
49883W        W13827  39.003  16.756  13.855
49884W        W13828  42.364   2.366   0.791
49885W        W13829  17.613   7.184  10.929
49886W        W13830  19.554  33.023  11.506
49887W        W13831  23.064   1.320  14.796
49888W        W13832  21.574   6.779  14.454
49889W        W13833  21.697  38.017  10.404
49890W        W13834  25.078  20.695  10.925
49891W        W13835  12.721  36.078  12.389
49892W        W13836  31.516  24.667   2.720
49893W        W13837   9.155  25.505   0.808
49894W        W13838  16.214   9.268  11.594
49895W        W13839  22.674  29.023  13.792
49896W        W13840  11.819   2.328   1.342
49897W        W13841  32.463   2.345  14.015
49898W        W13842  15.259   0.874   3.820
49899W        W13843  18.127  14.785  11.028
49900W        W13844   0.936  37.060   3.176
49901W        W13845  26.157  39.560  11.612
49902W        W13846  20.581  29.450  12.367
49903W        W13847  39.888  10.834  13.358
49904W        W13848  24.711  14.762   3.720
49905W        W13849  38.478   4.840   1.752
49906W        W13850  17.632  37.574  13.902
49907W        W13851  32.067   4.381  10.087
49908W        W13852  27.527  25.086   0.888
49909W        W13853  44.992  24.029   2.714
49910W        W13854  35.979  12.657   0.393
49911W        W13855  31.529  19.567  11.540
49912W        W13856  40.844  35.593  13.908
49913W        W13857  43.936  34.977   4.630
49914W        W13858  24.152   7.206   3.313
49915W        W13859   1.276  28.491  12.426
49916W        W13860   1.315  26.071  14.412
49917W        W13861  32.463  36.855   4.318
49918W        W13862  12.323  37.469  12.874
49919W        W13863   5.320  24.587   1.368
49920W        W13864   2.422  20.038  12.474
49921W        W13865  12.686  34.536  12.463
49922W        W13866   2.725  11.757   4.285
49923W        W13867  14.336  35.541   2.711
49924W        W13868  12.826  10.213  12.488
49925W        W13869  11.756   8.182   2.335
49926W        W13870  10.270  23.546   3.342
49927W        W13871   4.701  26.493  10.116
49928W        W13872  28.554  13.106   4.701
49929W        W13873  41.800  39.900   1.358
49930W        W13874   0.363  42.860   3.743
49931W        W13875  24.208   5.820   2.325
49932W        W13876  41.414  10.353  10.051
49933W        W13877   1.316  12.340   1.412
49934W        W13878  35.992   9.329   2.373
49935W        W13879  40.525   5.294  13.397
49936W        W13880  39.526   1.740   1.792
49937W        W13881  23.583  41.786   3.213
49938W        W13882  29.541  28.984   5.310
49939W        W13883   3.316  14.666   3.678
49940W        W13884  31.544  37.414   0.841
49941W        W13885  43.821   0.855   4.638
49942W        W13886  20.188  14.117   2.789
49943W        W13887  36.919  41.034  13.427
49944W        W13888  35.968  11.325   3.778
49945W        W13889   3.804  29.166  12.910
49946W        W13890  15.737   7.191  13.475
49947W        W13891  18.246   5.731   3.318
49948W        W13892  25.564  39.913  11.513
49949W        W13893  41.440  18.055   4.340
49950W        W13894  23.069  31.103   1.820
49951W        W13895  44.502   9.360  10.062
49952W        W13896  37.563   8.398   2.335
49953W        W13897  13.711  39.040  12.392
49954W        W13898  10.799   8.230  13.343
49955W        W13899  10.165  41.869   3.779
49956W        W13900   2.411   5.802  13.988
49957W        W13901   1.864  23.998   3.349
49958W        W13902   7.680   0.294   3.370
49959W        W13903  15.666  22.240  10.637
49960W        W13904   1.396  19.593  12.388
49961W        W13905   1.779  37.995  13.811
49962W        W13906  17.257  24.703   3.750
49963W        W13907  27.502  29.631  11.022
49964W        W13908  16.240  22.621   1.901
49965W        W13909  37.070   2.424   2.683
49966W        W13910  25.085  12.726   1.369
49967W        W13911   5.196  38.350   1.841
49968W        W13912  10.839   2.956   3.632
49969W        W13913   6.314  14.176  13.843
49970W        W13914  13.773   7.403  14.007
49971W        W13915  40.028  43.460  13.902
49972W        W13916  15.727  16.779   0.775
49973W        W13917  23.126  38.979  11.599
49974W        W13918  19.064  18.589   2.219
49975W        W13919   9.851  22.541   4.696
49976W        W13920  32.013   6.743   3.332
49977W        W13921   1.483  23.624   3.695
49978W        W13922  19.744  31.457   2.261
49979W        W13923  22.733  29.020   1.297
49980W        W13924   5.277   9.682  10.589
49981W        W13925  25.106  20.045   3.298
49982W        W13926  27.534  16.075  12.992
49983W        W13927  13.668  25.632   1.927
49984W        W13928  14.148  32.618   9.477
49985W        W13929  17.620  38.895   0.876
49986W        W13930  12.225  44.414   2.357
49987W        W13931  31.130  29.527   1.448
49988W        W13932  21.021  28.951  13.507
49989W        W13933  27.081  43.435  13.380
49990W        W13934  42.934   0.478  13.001
49991W        W13935  31.434   6.413   4.674
49992W        W13936  43.315  38.957   2.871
49993W        W13937  36.516  12.302   3.341
49994W        W13938  27.677  24.144   2.180
49995W        W13939  14.145  42.871   3.726
49996W        W13940  25.138  11.138   0.765
49997W        W13941  40.390  37.509   3.816
49998W        W13942   2.925  44.402   0.826
49999W        W13943  40.856   5.203   2.725
50000W        W13944  35.090  27.466  13.025
50001W        W13945   5.225  42.946   4.614
50002W        W13946  19.635  15.763  14.787
50003W        W13947  28.109   7.329   2.410
50004W        W13948  34.480  24.107   1.370
50005W        W13949  42.030  10.310  13.341
50006W        W13950   1.291  32.572   1.335
50007W        W13951  29.150  28.008  10.605
50008W        W13952  21.042  24.567  12.515
50009W        W13953  44.492  12.210  12.385
50010W        W13954  27.967  14.746  14.896
50011W        W13955  12.819  38.922  11.062
50012W        W13956  23.536  11.264  14.289
50013W        W13957  43.000  32.887  12.561
50014W        W13958  32.585  28.974  10.979
50015W        W13959  10.159  12.784  13.523
50016W        W13960  25.521  25.471   3.365
50017W        W13961  39.407  37.572   4.805
50018W        W13962  32.518  33.029  13.464
50019W        W13963  10.836  15.774  10.549
50020W        W13964  40.006  31.055  12.360
50021W        W13965  17.246  24.663  11.561
50022W        W13966  37.461  12.825   1.813
50023W        W13967  32.433  11.325  14.867
50024W        W13968  20.720  29.505   1.754
50025W        W13969  27.547  32.055   2.846
50026W        W13970  27.959  41.987   0.395
50027W        W13971  12.662  31.042  14.323
50028W        W13972   8.885  21.579   1.395
50029W        W13973   8.268  16.749  14.847
50030W        W13974  39.874  41.461   0.816
50031W        W13975  12.226  12.812  10.565
50032W        W13976  23.593  39.996   2.270
50033W        W13977   1.742   4.216   0.748
50034W        W13978  30.658  33.086  11.474
50035W        W13979  20.625  27.491  14.342
50036W        W13980  43.499  34.567   4.337
50037W        W13981  44.913   1.775  11.051
50038W        W13982  38.348  22.688   0.896
50039W        W13983  11.205  39.020  10.913
50040W        W13984  30.581  39.964  14.383
50041W        W13985  28.174  34.529   2.413
50042W        W13986  30.451  20.171   1.262
50043W        W13987  44.388  37.375  11.876
50044W        W13988  32.014   1.285  13.846
50045W        W13989  39.922   8.803  14.488
50046W        W13990  32.510  13.771  12.882
50047W        W13991  33.069  13.644   0.243
50048W        W13992  29.078  40.871   1.794
50049W        W13993  43.449  37.952   1.840
50050W        W13994  19.706  41.376  11.005
50051W        W13995  28.447  15.321  10.444
50052W        W13996  36.463  21.165  12.954
50053W        W13997   0.336  13.741   2.752
50054W        W13998  19.550  26.157  14.815
50055W        W13999  40.548  19.136  14.804
50056W        W14000   1.273  41.360  10.526
50057W        W14001  39.020  12.344   2.221
50058W        W14002  32.584  12.837   3.338
50059W        W14003  34.489  17.142   0.459
50060W        W14004  36.044  30.521  13.978
50061W        W14005  39.913  35.396   4.165
50062W        W14006  24.532   4.337  11.877
50063W        W14007  20.201  35.363   4.342
50064W        W14008  41.504  34.004   3.730
50065W        W14009   3.763   6.866   3.337
50066W        W14010  37.506   1.885   2.376
50067W        W14011  44.462  42.806  10.469
50068W        W14012  38.058  21.746   2.774
50069W        W14013  16.668  15.702   1.778
50070W        W14014  26.602  32.552  10.440
50071W        W14015  23.618  26.065  13.412
50072W        W14016  19.280  14.115   0.478
50073W        W14017  13.830   3.828   3.286
50074W        W14018   1.331  33.926  10.438
50075W        W14019  31.558  24.487  11.490
50076W        W14020  21.017   7.696   5.227
50077W        W14021  28.964  44.874   1.839
50078W        W14022  28.985  35.492   2.380
50079W        W14023  18.221  31.045  10.476
50080W        W14024   7.697  10.310  10.149
50081W        W14025  10.285  27.603   0.371
50082W        W14026  11.867  26.982  14.945
50083W        W14027  40.512  43.446  13.369
50084W        W14028  16.735  44.792   4.641
50085W        W14029   0.473  43.513   0.325
50086W        W14030  29.523  10.324  12.849
50087W        W14031   0.365   0.981  14.948
50088W        W14032  38.986  16.730   2.354
50089W        W14033   0.743   6.840  12.069
50090W        W14034  35.450   9.272  13.449
50091W        W14035   7.789   9.775  11.960
50092W        W14036  18.652  43.373   2.322
50093W        W14037  37.519  29.053   0.345
50094W        W14038  15.668  13.218   2.360
50095W        W14039  31.413  21.093  10.946
50096W        W14040  43.442  43.010  10.092
50097W        W14041  20.197  23.186  11.022
50098W        W14042  37.854   4.743   0.247
50099W        W14043  28.958  43.925   0.249
50100W        W14044  24.217  16.152   0.766
50101W        W14045  18.745  43.810  11.373
50102W        W14046  21.088  28.961   0.806
50103W        W14047   7.714  35.062  10.939
50104W        W14048   7.830  16.243   2.381
50105W        W14049   6.334  41.999   4.640
50106W        W14050  33.944  39.384   3.706
50107W        W14051  22.564   6.192  11.889
50108W        W14052  13.838  34.479  13.849
50109W        W14053  40.962   5.726   3.327
50110W        W14054  20.172  34.370   0.243
50111W        W14055  18.247  27.091  13.047
50112W        W14056  25.484  18.615  10.567
50113W        W14057  36.058  28.154   2.716
50114W        W14058   6.911  38.380  13.794
50115W        W14059  16.203   5.419   1.745
50116W        W14060  19.672  36.064   4.597
50117W        W14061  43.426  36.861  11.917
50118W        W14062   6.857   5.929   3.859
50119W        W14063  39.002  41.463  14.352
50120W        W14064  43.979   8.687  13.965
50121W        W14065  33.965  15.114   3.759
50122W        W14066  38.908  13.186  14.475
50123W        W14067  32.911   7.759   0.908
50124W        W14068  20.095  16.180   3.630
50125W        W14069  31.074  38.924  12.853
50126W        W14070  40.475  15.186  13.823
50127W        W14071  16.305  15.240   1.768
50128W        W14072  13.709  12.185   3.658
50129W        W14073  44.866   9.772   3.207
50130W        W14074   9.189  18.162  14.488
50131W        W14075  28.104   3.302   1.397
50132W        W14076  42.885  20.691  14.906
50133W        W14077  25.137  24.598  14.460
50134W        W14078   5.749  39.828  11.455
50135W        W14079  35.429  18.778   3.656
50136W        W14080  23.614  39.978   4.158
50137W        W14081  44.856  26.574   2.344
50138W        W14082  27.998  21.594  10.023
50139W        W14083  25.011  13.628  13.318
50140W        W14084  29.087   9.238  14.789
50141W        W14085  41.530  20.051  12.538
50142W        W14086  19.674  16.672  14.795
50143W        W14087  13.722  16.801  13.823
50144W        W14088  19.626  11.641   4.330
50145W        W14089  35.497   5.235  11.398
50146W        W14090  29.576  31.087  10.593
50147W        W14091  35.448   7.346   0.317
50148W        W14092  18.245  28.116   0.798
50149W        W14093   1.411  25.170  12.458
50150W        W14094  15.645  36.879   0.901
50151W        W14095  25.646  39.928   1.330
50152W        W14096  32.989  13.605   3.826
50153W        W14097  31.118  12.129   0.766
50154W        W14098  12.328  33.622   0.912
50155W        W14099  38.954  21.235  14.512
50156W        W14100  33.113   7.679   3.321
50157W        W14101  35.529  44.858  12.900
50158W        W14102  31.627   7.765  13.045
50159W        W14103  21.180  31.939  13.384
50160W        W14104  18.249  12.256  11.864
50161W        W14105  20.587   9.834   1.754
50162W        W14106  24.537  12.799   1.799
50163W        W14107  26.973  23.692  11.026
50164W        W14108  19.772  25.974  11.937
50165W        W14109  42.888   1.895  14.812
50166W        W14110  36.533  31.432  10.645
50167W        W14111  23.611  34.412  11.478
50168W        W14112  25.011  36.392  12.019
50169W        W14113  38.522  21.151   4.137
50170W        W14114  40.051  12.767   4.691
50171W        W14115  35.477  32.066   4.773
50172W        W14116  44.869  34.975   3.219
50173W        W14117   7.214   0.977   1.440
50174W        W14118  35.935  23.091   1.346
50175W        W14119  19.277  17.114   1.415
50176W        W14120   3.248  16.136   4.599
50177W        W14121   9.240  42.820   0.886
50178W        W14122  21.051  14.814   0.743
50179W        W14123   6.277  29.024  10.069
50180W        W14124  36.535   2.767   4.201
50181W        W14125  32.900  38.915   2.266
50182W        W14126   1.297  28.440   3.638
50183W        W14127   9.728  18.185   9.436
50184W        W14128  20.192  40.885   3.734
50185W        W14129  27.110  43.307   4.138
50186W        W14130  18.595  40.031   3.828
50187W        W14131  44.296  15.271   4.720
50188W        W14132  43.345   1.900   2.838
50189W        W14133  25.692  24.629   4.337
50190W        W14134   9.783  41.814  14.822
50191W        W14135  31.030  20.684   0.762
50192W        W14136  24.540  36.446  12.371
50193W        W14137  26.590   9.214  12.412
50194W        W14138   2.961  37.030  10.555
50195W        W14139   2.459  12.671   4.159
50196W        W14140  23.216  12.728  10.437
50197W        W14141  43.831  31.459  12.449
50198W        W14142  41.356  33.917  13.060
50199W        W14143  24.585  37.016   3.364
50200W        W14144  20.639  12.812   0.249
50201W        W14145  36.483  33.128   3.685
50202W        W14146  39.867  32.469   0.778
50203W        W14147  12.813   8.368   3.767
50204W        W14148  31.937  13.740  14.470
50205W        W14149  35.021  24.117   0.795
50206W        W14150   7.262  31.480   0.357
50207W        W14151  14.791  23.232  13.447
50208W        W14152  40.933  21.628  10.431
50209W        W14153  42.320   7.776   4.150
50210W        W14154  11.237  20.258  11.021
50211W        W14155  42.420  36.078   0.803
50212W        W14156  16.715  31.615   1.271
50213W        W14157  24.031   1.378   1.361
50214W        W14158   2.948  39.425   1.358
50215W        W14159  36.523  20.753  13.387
50216W        W14160   9.736  16.212  13.924
50217W        W14161  38.415  18.777   4.283
50218W        W14162  13.830   0.782  12.978
50219W        W14163  34.536  25.552   1.764
50220W        W14164  42.328  16.652  13.919
50221W        W14165  42.291  23.221   1.870
50222W        W14166  18.760  39.390   3.808
50223W        W14167   6.333  19.226  12.506
50224W        W14168  33.423  41.385   4.316
50225W        W14169  25.967  37.529   1.286
50226W        W14170  24.032  17.783  14.845
50227W        W14171  42.462   0.854   4.345
50228W        W14172  37.552  29.173   3.354
50229W        W14173  36.569  16.767  10.452
50230W        W14174   0.424  23.636   0.379
50231W        W14175   2.437  44.493  14.311
50232W        W14176  14.751  15.583  14.367
50233W        W14177   5.408  29.077   1.329
50234W        W14178   5.922  14.740   2.278
50235W        W14179  39.858  40.045   2.782
50236W        W14180  18.665  38.349   2.885
50237W        W14181  17.157  19.101  10.575
50238W        W14182  19.130  43.804  13.374
50239W        W14183   6.869  39.417  10.517
50240W        W14184  22.091  35.911  14.921
50241W        W14185  44.405  35.428   3.179
50242W        W14186  41.005  19.071  10.603
50243W        W14187  26.100  32.495  10.514
50244W        W14188  23.491   8.322  11.052
50245W        W14189  31.015  23.717   4.319
50246W        W14190  21.204  12.778   2.332
50247W        W14191  27.062  13.181  13.814
50248W        W14192  24.610  17.197  13.407
50249W        W14193   7.674  42.500  10.465
50250W        W14194  14.110   0.479   3.854
50251W        W14195  18.771  27.062   2.391
50252W        W14196  28.582  17.684  12.574
50253W        W14197  44.389   0.272   1.233
50254W        W14198  10.708  22.060  12.826
50255W        W14199   5.688  17.293  11.459
50256W        W14200  31.083   8.716   0.427
50257W        W14201  27.159   8.701   1.714
50258W        W14202  33.090  38.496   0.348
50259W        W14203  42.308  26.574   1.736
50260W        W14204   3.218  20.176   2.782
50261W        W14205  40.895  20.091   2.357
50262W        W14206  16.719  26.495   4.152
50263W        W14207   3.900  37.519   1.863
50264W        W14208  20.071  17.673   4.631
50265W        W14209  16.187  18.234   4.222
50266W        W14210  36.548  19.639  10.569
50267W        W14211  31.068  19.723  14.798
50268W        W14212  23.167  30.586  10.474
50269W        W14213   0.271  39.488  14.378
50270W        W14214  34.436  33.977  10.423
50271W        W14215   1.433  24.210   4.706
50272W        W14216   9.756   7.352  10.985
50273W        W14217  15.199  20.557   1.864
50274W        W14218  31.542  10.285   1.264
50275W        W14219  24.002  15.317   0.830
50276W        W14220  29.470  29.571   4.244
50277W        W14221  36.886  18.645   0.424
50278W        W14222   4.901  27.624   4.628
50279W        W14223  23.067  31.447   0.276
50280W        W14224   5.311  40.355   2.411
50281W        W14225  36.906  43.343   2.793
50282W        W14226   5.199   7.761  12.057
50283W        W14227  24.616  16.098  14.477
50284W        W14228  18.715   5.271  12.514
50285W        W14229  37.925  18.708  13.046
50286W        W14230  14.158  39.947   0.807
50287W        W14231   5.746  24.689   4.192
50288W        W14232  28.478  32.041   5.286
50289W        W14233  43.467   2.920   1.797
50290W        W14234  23.712  39.046   0.922
50291W        W14235  35.064   7.198  10.639
50292W        W14236   9.886  26.096  12.404
50293W        W14237   8.160  42.318   0.415
50294W        W14238  41.788  44.279  13.955
50295W        W14239  42.024  14.098  12.004
50296W        W14240  29.931  13.789  11.923
50297W        W14241   3.265   0.940   1.812
50298W        W14242   4.884  29.955   2.677
50299W        W14243  13.625   6.778  12.504
50300W        W14244  13.185  16.724  13.046
50301W        W14245   3.718   0.890  13.869
50302W        W14246  33.115  25.095  14.355
50303W        W14247  38.986   3.835  12.072
50304W        W14248  31.569  13.809   3.352
50305W        W14249   3.826  15.251   2.292
50306W        W14250  11.209  43.356  14.321
50307W        W14251  41.488  13.323   1.304
50308W        W14252  15.734  42.326   4.144
50309W        W14253  22.620   1.431  13.015
50310W        W14254   5.735  16.145   5.239
50311W        W14255  36.923  28.129   0.292
50312W        W14256  37.977  33.944  13.971
50313W        W14257   8.864  41.333   4.793
50314W        W14258  43.442   9.255   0.297
50315W        W14259  22.563  41.035  11.993
50316W        W14260  13.115   1.932  12.036
50317W        W14261  12.799  32.406   1.836
50318W        W14262  40.019  26.591  14.920
50319W        W14263  29.038   3.900  14.470
50320W        W14264  29.575  22.713   2.271
50321W        W14265  35.500  37.456  13.947
50322W        W14266  12.786   6.914   0.320
50323W        W14267  37.482  43.358  10.596
50324W        W14268  35.392  34.567   4.133
50325W        W14269   2.893   8.760   4.135
50326W        W14270  28.973   9.393   4.234
50327W        W14271  35.035  36.018  11.449
50328W        W14272   4.771  33.479   4.682
50329W        W14273  21.617  27.103  13.040
50330W        W14274  31.647  17.681   4.206
50331W        W14275  35.862   0.911   2.201
50332W        W14276  43.841  37.577   2.725
50333W        W14277  31.531   5.739  14.845
50334W        W14278  24.722   7.320  10.579
50335W        W14279   0.902   6.324  14.365
50336W        W14280  10.807  17.210  11.888
50337W        W14281   4.360   2.340   4.753
50338W        W14282  40.504  33.942  10.504
50339W        W14283  41.005  15.107   2.244
50340W        W14284  15.649  33.100  14.880
50341W        W14285  41.464  16.247   1.763
50342W        W14286  19.571  22.245   5.121
50343W        W14287   4.900  44.393   0.889
50344W        W14288  39.819  31.628   0.792
50345W        W14289   4.908  23.717  10.416
50346W        W14290  15.680  19.541  14.995
50347W        W14291   8.704  11.717  12.988
50348W        W14292  41.806  40.411  11.072
50349W        W14293   9.708   7.764   1.218
50350W        W14294  29.599   4.827  11.561
50351W        W14295  21.751  13.754   4.298
50352W        W14296  26.105  22.206   3.692
50353W        W14297   2.896  42.457  12.471
50354W        W14298  11.655  20.252  13.820
50355W        W14299  14.687   1.390   3.780
50356W        W14300  36.460  39.337   4.167
50357W        W14301  13.216  15.136   2.237
50358W        W14302   4.744  11.855  13.966
50359W        W14303  22.651  29.668   3.309
50360W        W14304  41.949  19.211   0.458
50361W        W14305   5.790  21.581  10.543
50362W        W14306  21.529   9.330   2.184
50363W        W14307  32.012   1.767  13.357
50364W        W14308  29.501   0.860  12.902
50365W        W14309  25.510  40.820  12.920
50366W        W14310   1.373  27.627  14.392
50367W        W14311  39.000  41.868  11.503
50368W        W14312  40.411   8.378  11.462
50369W        W14313   8.750  42.821   0.362
50370W        W14314   5.845  24.654  11.562
50371W        W14315  31.450  20.558  11.449
50372W        W14316  15.237  18.567  11.879
50373W        W14317  21.564  37.491  12.542
50374W        W14318  37.049   8.306  11.887
50375W        W14319  30.474  11.640   1.243
50376W        W14320  16.661   3.325   1.917
50377W        W14321  41.433   3.815   1.395
50378W        W14322  25.703  32.965   3.327
50379W        W14323  17.291   1.307  14.015
50380W        W14324   2.381   0.794   3.757
50381W        W14325  27.059  21.595  13.417
50382W        W14326  35.906  43.962   0.473
50383W        W14327  36.037  39.479   0.740
50384W        W14328  14.832  35.043   4.258
50385W        W14329  23.037  42.801   0.389
50386W        W14330  30.948  24.986   3.187
50387W        W14331   5.259  41.989   3.198
50388W        W14332  25.044  15.271   4.117
50389W        W14333   1.787  18.679   3.181
50390W        W14334  43.963  43.941   0.442
50391W        W14335  38.481  23.171  11.075
50392W        W14336  26.593  24.676  10.462
50393W        W14337   8.186  44.380   2.704
50394W        W14338   8.272  23.500  10.562
50395W        W14339  34.887   9.344  13.328
50396W        W14340  38.889  29.497  13.537
50397W        W14341   7.795   9.650  12.544
50398W        W14342  41.787   0.309  12.454
50399W        W14343  18.608  17.656  10.437
50400W        W14344  32.908  23.081  14.855
50401W        W14345  16.593  42.946  14.024
50402W        W14346  21.656  42.415  10.548
50403W        W14347  25.976  44.817  13.503
50404W        W14348  27.467  10.754  11.548
50405W        W14349  15.771  23.504  13.020
50406W        W14350  33.517  40.313   4.701
50407W        W14351   7.201  44.790  11.576
50408W        W14352  23.544  42.914  10.976
50409W        W14353  27.106   9.777   3.811
50410W        W14354   0.264  19.678  11.014
50411W        W14355   9.650  31.576   3.192
50412W        W14356  27.111   9.704   3.362
50413W        W14357   3.293  31.950  13.374
50414W        W14358  43.309  30.556  13.528
50415W        W14359  37.369  28.060   4.716
50416W        W14360  31.920  14.278   9.977
50417W        W14361  16.594  32.464   9.485
50418W        W14362  38.072  35.485   3.339
50419W        W14363  25.127  15.209   0.421
50420W        W14364  42.852  21.523   3.778
50421W        W14365  41.343   1.359  13.547
50422W        W14366  10.877   5.802   0.844
50423W        W14367  18.234   0.755   4.719
50424W        W14368  30.947  38.030  12.836
50425W        W14369  40.013  16.813  14.388
50426W        W14370   3.806  19.047   4.334
50427W        W14371  11.672   0.269   3.844
50428W        W14372  27.573  15.291  14.513
50429W        W14373   0.926  44.410  10.960
50430W        W14374   1.840  19.726  11.413
50431W        W14375  12.254  14.125  13.387
50432W        W14376  11.170  39.052  12.867
50433W        W14377  32.459  20.664  13.379
50434W        W14378  16.607  25.546  14.424
50435W        W14379   0.406  41.002  13.000
50436W        W14380  37.460   2.413  10.905
50437W        W14381   2.435   8.869   3.699
50438W        W14382   7.788  20.028  11.056
50439W        W14383  20.246   4.928  12.458
50440W        W14384  44.415  24.075  13.517
50441W        W14385  24.075  24.208   2.336
50442W        W14386  38.908  26.139  14.916
50443W        W14387   5.427  44.788   0.804
50444W        W14388  23.024  27.587   1.723
50445W        W14389  44.856  11.200  12.930
50446W        W14390  11.355  30.026   0.776
50447W        W14391  36.878  24.019  13.507
50448W        W14392  40.529  22.215  11.074
50449W        W14393  44.393  37.540  10.954
50450W        W14394  16.147  41.932   3.221
50451W        W14395  29.480  36.401   4.147
50452W        W14396  39.975  44.429   0.438
50453W        W14397  44.987  41.485   4.130
50454W        W14398  40.915  33.123  13.408
50455W        W14399  33.533  33.105  14.403
50456W        W14400   6.217   6.414   5.302
50457W        W14401  18.711  32.970   1.444
50458W        W14402  33.490   7.207  11.961
50459W        W14403  43.516  11.346  12.434
50460W        W14404   0.907  34.479  13.494
50461W        W14405   4.727  25.595   3.178
50462W        W14406  31.100  18.161  14.380
50463W        W14407  42.946   5.283   1.805
50464W        W14408  28.929  42.926  11.075
50465W        W14409  15.085  16.293  10.438
50466W        W14410  33.382  29.635   2.312
50467W        W14411  43.378   7.695   2.333
50468W        W14412  22.519  27.488   0.473
50469W        W14413  34.430  23.579  12.850
50470W        W14414  13.291  21.116   1.450
50471W        W14415   6.300  24.105   4.190
50472W        W14416  17.697  34.890   3.213
50473W        W14417  43.002  19.107   0.928
50474W        W14418  38.389  23.099  13.525
50475W        W14419   0.980  41.520   2.793
50476W        W14420  19.589   7.234  11.994
50477W        W14421   7.702   3.755   4.642
50478W        W14422   8.719   2.944   1.276
50479W        W14423  16.618   0.295  14.498
50480W        W14424  32.953  39.910  14.015
50481W        W14425  29.434  13.112  12.855
50482W        W14426   6.702  22.679   0.792
50483W        W14427  34.528  22.699  13.519
50484W        W14428  43.997  42.949  14.390
50485W        W14429  42.323  30.095   1.362
50486W        W14430  28.640  16.147  12.424
50487W        W14431  36.455  26.143  13.508
50488W        W14432  20.083  24.170  12.451
50489W        W14433  40.960  32.477   3.366
50490W        W14434  40.405  31.922   0.897
50491W        W14435  31.470  20.688   1.745
50492W        W14436  41.018   1.779   1.278
50493W        W14437  44.489  28.498   2.715
50494W        W14438   7.198  36.520  13.895
50495W        W14439  29.549  35.044   4.698
50496W        W14440  23.994  29.493   4.604
50497W        W14441   8.218  13.655  13.371
50498W        W14442  33.097  38.028   3.187
50499W        W14443  33.567   8.706   9.985
50500W        W14444  39.838  14.815   2.830
50501W        W14445  23.080  27.010  11.375
50502W        W14446   4.266   2.733   1.399
50503W        W14447   1.845  32.088  10.913
50504W        W14448  11.213  35.459  13.499
50505W        W14449  15.312  30.120   4.178
50506W        W14450  19.616  11.270  14.852
50507W        W14451  23.699  38.936   2.195
50508W        W14452  30.945   9.819   4.757
50509W        W14453  44.261   7.861   0.472
50510W        W14454  15.680  35.928   4.124
50511W        W14455   3.401  43.948   0.359
50512W        W14456  25.113   4.746   1.836
50513W        W14457  23.124  18.634  14.414
50514W        W14458  18.063   1.263   1.718
50515W        W14459  16.300  29.945  13.928
50516W        W14460  39.532  39.834  11.082
50517W        W14461  23.999  14.678   3.678
50518W        W14462  29.557  41.826   4.175
50519W        W14463  37.894   4.217   1.276
50520W        W14464  10.755  17.098  14.920
50521W        W14465   6.426   3.290  11.127
50522W        W14466  15.655  18.659   0.458
50523W        W14467  40.373   7.263  14.931
50524W        W14468  12.724  39.401   3.799
50525W        W14469  36.545  12.177  13.821
50526W        W14470   7.367   5.365   0.381
50527W        W14471  14.719  19.619   1.327
50528W        W14472  12.674  34.539   1.830
50529W        W14473  43.975  20.201   1.764
50530W        W14474  23.663  23.537   2.703
50531W        W14475  22.163  29.966  14.308
50532W        W14476  22.654  15.098  13.310
50533W        W14477  31.638  33.538  11.884
50534W        W14478  21.696  22.059  10.619
50535W        W14479  10.733   4.876   0.774
50536W        W14480  44.812  13.759   1.873
50537W        W14481  32.393  34.908  11.477
50538W        W14482  41.920  15.242  13.797
50539W        W14483  16.274  38.386  11.868
50540W        W14484  31.141  33.438   0.921
50541W        W14485   6.746  33.061  11.900
50542W        W14486  32.418  40.988  14.335
50543W        W14487  23.240   2.900   4.799
50544W        W14488   1.805  12.787   3.861
50545W        W14489  19.597   6.320  13.914
50546W        W14490  11.133  38.976  14.348
50547W        W14491   1.830  20.601  13.815
50548W        W14492  25.610  15.587   0.435
50549W        W14493   4.699  22.620  12.486
50550W        W14494  24.993  23.130   3.236
50551W        W14495   8.877  31.422  10.456
50552W        W14496  35.979  32.592   4.716
50553W        W14497  22.513  13.758  14.846
50554W        W14498   9.157  30.942  11.952
50555W        W14499   3.900  14.119   0.878
50556W        W14500  18.608   8.672  14.429
50557W        W14501   3.283  43.335   0.754
50558W        W14502  27.168  27.490   4.258
50559W        W14503  27.563   2.761  14.812
50560W        W14504   0.456  19.222  10.944
50561W        W14505  10.182  39.484  11.921
50562W        W14506  42.868  31.513   3.288
50563W        W14507  30.145  29.646   0.315
50564W        W14508  39.338   5.912  13.958
50565W        W14509   2.840  40.843   0.882
50566W        W14510  25.089  21.022  15.000
50567W        W14511  27.676  44.907  14.439
50568W        W14512  34.045   3.347   5.213
50569W        W14513  43.956   2.401   0.439
50570W        W14514  25.084  35.990  14.891
50571W        W14515  40.324   7.768   4.598
50572W        W14516  18.195  33.384   0.280
50573W        W14517  26.985  39.510   9.939
50574W        W14518  31.443  11.783   3.153
50575W        W14519  22.701  29.976   4.126
50576W        W14520  21.113  10.246   4.159
50577W        W14521   8.846  43.271   2.283
50578W        W14522  41.799  10.713  14.930
50579W        W14523  15.225  28.021   0.957
50580W        W14524  11.769  22.194   3.181
50581W        W14525  21.232  20.659   0.362
50582W        W14526  25.665  15.606  10.498
50583W        W14527  26.682   8.173  11.857
50584W        W14528  18.576  41.335  10.482
50585W        W14529  36.588  23.190  11.598
50586W        W14530  36.048  41.401   3.703
50587W        W14531  16.775  33.382   1.768
50588W        W14532  31.054  34.084   3.834
50589W        W14533  15.112   1.458  13.804
50590W        W14534  41.966   3.256  11.982
50591W        W14535  29.567  42.452  14.915
50592W        W14536  25.540  21.573   1.876
50593W        W14537   4.715   2.246  14.500
50594W        W14538  13.284  23.611  11.574
50595W        W14539   5.249   4.208  12.840
50596W        W14540   5.390  27.130   1.839
50597W        W14541   9.300  31.498   1.449
50598W        W14542  28.009  15.245  10.086
50599W        W14543  26.588   5.928  14.424
50600W        W14544  44.950   9.327   4.818
50601W        W14545  12.156  27.543   3.714
50602W        W14546  18.220  19.742   1.708
50603W        W14547  35.535  23.008   4.198
50604W        W14548   7.279   0.751   3.850
50605W        W14549  32.424  10.799  14.979
50606W        W14550  30.150  10.856  12.498
50607W        W14551  26.630  14.830  11.444
50608W        W14552  21.690  18.631   1.718
50609W        W14553  22.682  25.064  14.022
50610W        W14554  27.043  26.681   4.174
50611W        W14555  40.873  20.223   4.620
50612W        W14556  40.321  26.606   2.845
50613W        W14557  38.547  31.500  11.472
50614W        W14558   2.232  11.677   9.933
50615W        W14559  11.717  32.977   3.813
50616W        W14560   3.405   3.221   4.198
50617W        W14561  32.572  20.195  10.537
50618W        W14562  20.069  20.072  13.987
50619W        W14563  41.466  14.603  12.970
50620W        W14564  29.978  15.112   2.319
50621W        W14565  30.124  43.278  10.591
50622W        W14566   3.905   4.348   3.263
50623W        W14567  21.133  19.618  14.323
50624W        W14568  17.672  42.289   4.756
50625W        W14569   2.304   3.759   5.150
50626W        W14570   6.245  26.977   3.167
50627W        W14571  34.982   3.937   2.829
50628W        W14572   1.921  36.874  12.059
50629W        W14573   7.684  29.060   3.705
50630W        W14574   0.430  18.791   1.256
50631W        W14575  10.767  35.546   3.253
50632W        W14576  36.980  25.710  13.329
50633W        W14577  37.500  39.323   3.756
50634W        W14578   7.726  34.091   1.420
50635W        W14579  36.506   4.853   9.957
50636W        W14580  19.743   3.219   0.760
50637W        W14581  25.676  33.066  14.825
50638W        W14582  19.101  27.585   1.921
50639W        W14583  16.734  12.158  11.475
50640W        W14584  36.956   2.308  13.885
50641W        W14585  20.058  16.078  11.992
50642W        W14586   9.293   7.729   2.409
50643W        W14587   6.403  32.125  12.999
50644W        W14588  39.993  25.524   1.292
50645W        W14589  35.877  12.634  14.815
50646W        W14590  23.724  37.087  11.578
50647W        W14591  41.449  22.072  10.519
50648W        W14592  16.195  36.002   0.428
50649W        W14593  27.673  23.718  13.484
50650W        W14594   8.852  15.808  12.900
50651W        W14595  27.157   5.309   4.802
50652W        W14596   7.310  11.314   4.148
50653W        W14597  37.057   8.270  13.336
50654W        W14598  28.621  16.106   3.768
50655W        W14599   2.460   7.224  14.813
50656W        W14600  34.032  36.962  11.556
50657W        W14601  12.353  28.582  13.051
50658W        W14602  21.675  41.891   2.288
50659W        W14603   5.321  15.682   2.271
50660W        W14604  19.209   0.912  14.446
50661W        W14605   1.279   5.287   3.638
50662W        W14606  28.035   1.851  10.580
50663W        W14607  12.825  39.373   1.400
50664W        W14608   8.747   3.788   2.338
50665W        W14609  38.394  10.315  14.315
50666W        W14610  31.569  40.996   0.468
50667W        W14611  38.500  22.139  12.029
50668W        W14612  22.136  10.242  12.520
50669W        W14613  43.484  43.332   3.241
50670W        W14614  15.603  20.677  11.547
50671W        W14615  35.956  36.049   4.765
50672W        W14616  37.577  16.769  10.438
50673W        W14617  23.702   2.761   1.874
50674W        W14618  27.000  42.988   0.732
50675W        W14619  23.174  28.175   4.243
50676W        W14620   8.211   2.789   2.392
50677W        W14621  16.716   3.265   3.756
50678W        W14622   2.409  26.082  12.387
50679W        W14623   8.693  26.694  12.032
50680W        W14624  36.039  10.147  14.929
50681W        W14625  27.641  16.576  13.831
50682W        W14626  21.032   1.808  12.893
50683W        W14627  14.293  41.330   3.663
50684W        W14628  29.612  29.629   0.464
50685W        W14629  31.457  34.039   3.681
50686W        W14630  23.024  25.040  10.428
50687W        W14631  14.816  30.504  12.991
50688W        W14632  43.884  22.609  13.436
50689W        W14633  35.447  21.564   3.631
50690W        W14634  25.057  26.657   9.955
50691W        W14635  31.472  32.572   3.256
50692W        W14636   1.456  30.612  12.972
50693W        W14637  11.197  28.598   5.717
50694W        W14638  12.297  24.015  10.907
50695W        W14639  25.067   7.383  13.842
50696W        W14640  32.428  33.446  12.545
50697W        W14641  17.108  29.438  12.976
50698W        W14642  23.087   1.742   0.455
50699W        W14643  22.120  29.993   2.227
50700W        W14644  19.693  14.752   1.443
50701W        W14645   3.240  31.547   2.755
50702W        W14646   7.256  14.095   1.438
50703W        W14647   3.753  27.683  10.544
50704W        W14648  24.677  23.210   0.933
50705W        W14649  11.839  24.046   4.784
50706W        W14650  24.633  26.608  13.825
50707W        W14651  10.870  42.967  12.366
50708W        W14652  18.111  34.038   1.353
50709W        W14653  26.009  16.077   3.737
50710W        W14654  21.750   2.357  12.424
50711W        W14655  20.588  14.219   1.753
50712W        W14656   6.861  33.107  12.875
50713W        W14657  40.327  10.661  11.907
50714W        W14658  14.095   2.388   5.186
50715W        W14659  13.603   9.339   0.730
50716W        W14660  27.570   0.343   4.198
50717W        W14661  44.909  33.582   2.670
50718W        W14662  43.841  17.180   4.244
50719W        W14663   4.722  35.505   1.266
50720W        W14664  39.418  40.478   1.853
50721W        W14665  25.481  17.070   4.739
50722W        W14666  22.636   4.288  11.482
50723W        W14667  11.178   7.780  14.462
50724W        W14668  34.061  25.509   1.265
50725W        W14669  24.660  41.814   3.324
50726W        W14670  26.501  24.587  11.612
50727W        W14671  31.104  35.584   2.756
50728W        W14672  39.872  12.267  11.493
50729W        W14673  41.293   4.810  12.358
50730W        W14674  42.437  26.112   1.903
50731W        W14675  16.264  25.661   4.308
50732W        W14676  12.786  31.422  10.611
50733W        W14677   5.395  22.607  12.835
50734W        W14678  15.142  40.382  11.922
50735W        W14679  13.613  26.484   4.348
50736W        W14680  12.233  42.950   4.720
50737W        W14681  23.638  14.178   1.254
50738W        W14682   6.806  31.600  13.870
50739W        W14683  30.498  30.038   2.288
50740W        W14684  43.350  14.712  13.399
50741W        W14685  35.483   3.449  11.586
50742W        W14686  30.553  27.536   3.859
50743W        W14687  38.385  34.095   4.657
50744W        W14688  16.267  13.705  14.484
50745W        W14689   6.312  11.736  11.038
50746W        W14690  31.582   7.764  10.969
50747W        W14691   6.712  15.693  13.902
50748W        W14692  10.795  35.383  12.567
50749W        W14693   6.875  25.001   0.300
50750W        W14694  37.401  10.146  13.500
50751W        W14695   9.286   6.423   4.672
50752W        W14696  19.720  30.460   2.787
50753W        W14697   1.916  43.828  11.498
50754W        W14698  32.594  21.604   3.298
50755W        W14699  44.859  36.937  13.434
50756W        W14700  31.589  36.945   0.437
50757W        W14701  32.968  17.674   1.930
50758W        W14702  26.967  28.016   2.771
50759W        W14703  22.159  11.621  10.969
50760W        W14704   0.923  36.509  11.060
50761W        W14705  42.887  35.935   0.844
50762W        W14706  17.123  29.464  11.471
50763W        W14707  38.402  32.106   0.923
50764W        W14708  29.991  11.685   4.644
50765W        W14709  27.058  32.057   3.198
50766W        W14710  35.963   9.304  13.948
50767W        W14711  13.605  41.517   3.689
50768W        W14712  36.571  34.554   0.263
50769W        W14713  27.509  41.895  12.400
50770W        W14714  26.685   3.239  14.422
50771W        W14715  34.451  28.676  14.946
50772W        W14716  36.921   2.376   0.910
50773W        W14717   7.805  36.459   4.216
50774W        W14718  13.783  26.201   0.299
50775W        W14719  21.602  10.795   4.144
50776W        W14720   5.748   6.358  12.092
50777W        W14721  16.233   8.832   5.640
50778W        W14722  11.369  24.170   4.173
50779W        W14723   5.400  17.112   0.947
50780W        W14724  15.699  25.164   3.182
50781W        W14725   4.205   2.860   3.678
50782W        W14726  26.161  19.211   4.145
50783W        W14727  23.565   3.746  12.967
50784W        W14728  25.006   4.299   4.239
50785W        W14729  14.674   3.772  12.072
50786W        W14730   3.849   3.806  11.435
50787W        W14731  12.826   3.805   3.798
50788W        W14732   9.752  40.469  12.547
50789W        W14733  34.483  41.337   3.224
50790W        W14734  18.634  30.505   4.783
50791W        W14735   6.226  29.573   3.760
50792W        W14736  43.357   8.738   0.315
50793W        W14737  33.406  15.774   2.797
50794W        W14738   7.883  14.144  10.892
50795W        W14739  30.075  30.589   3.675
50796W        W14740  36.970  34.468   3.273
50797W        W14741  15.651  17.734  13.064
50798W        W14742  35.957  26.496  13.535
50799W        W14743  22.681   4.700  11.585
50800W        W14744  29.618  44.929   2.209
50801W        W14745  37.830  20.558  14.894
50802W        W14746   2.847  13.107  12.870
50803W        W14747   1.451  36.876  14.929
50804W        W14748  28.971   1.422   1.818
50805W        W14749  29.094   1.817  14.315
50806W        W14750   9.198  12.123  12.053
50807W        W14751  29.472   4.378   2.782
50808W        W14752   4.827  24.159   0.732
50809W        W14753  38.986  16.205  14.968
50810W        W14754  21.092  44.774  11.473
50811W        W14755   5.828   4.267   0.809
50812W        W14756  24.136  43.465   0.400
50813W        W14757  15.808  23.600   2.276
50814W        W14758  21.529  32.448  11.495
50815W        W14759  20.175  18.158   3.296
50816W        W14760   1.411  30.163  12.534
50817W        W14761  10.380  40.982  10.975
50818W        W14762  15.819  19.660   1.449
50819W        W14763  23.014  39.840   4.245
50820W        W14764  39.983  27.657  13.002
50821W        W14765  36.841  34.429   4.791
50822W        W14766  20.602  27.630  12.558
50823W        W14767  25.620  38.487   0.472
50824W        W14768  19.642   8.266  12.510
50825W        W14769   8.160  30.033  12.563
50826W        W14770  15.783  26.141   3.641
50827W        W14771  39.418  21.576  11.007
50828W        W14772  44.844  30.542  13.363
50829W        W14773  33.010   4.872  10.625
50830W        W14774  29.488  19.071   4.807
50831W        W14775   7.812  29.998  10.570
50832W        W14776  18.217  37.569   1.835
50833W        W14777  28.973  15.099  13.353
50834W        W14778  32.622   7.689  10.615
50835W        W14779  24.553  24.094  14.288
50836W        W14780  17.264  12.651   4.794
50837W        W14781  31.019   3.712  11.994
50838W        W14782  11.694  39.508   1.891
50839W        W14783   3.940  21.072  13.530
50840W        W14784  37.881  22.740   1.701
50841W        W14785  11.344   1.465  13.973
50842W        W14786  22.062  30.937   2.845
50843W        W14787  21.536  23.552  11.009
50844W        W14788  21.609  20.040  14.017
50845W        W14789  25.120  25.990   0.364
50846W        W14790  22.672   0.989   1.731
50847W        W14791   2.792  32.121  13.847
50848W        W14792   8.359   5.320   4.173
50849W        W14793  41.016   4.910   2.764
50850W        W14794   5.791  15.609  10.102
50851W        W14795   4.293  36.841   4.157
50852W        W14796  42.332  35.386  11.552
50853W        W14797  30.024   5.193  11.927
50854W        W14798  17.767  21.174   1.357
50855W        W14799  20.071  32.625   3.754
50856W        W14800  29.109  13.314   4.713
50857W        W14801  44.976   2.382  13.797
50858W        W14802  32.612   8.386   2.226
50859W        W14803  34.525  24.990   2.797
50860W        W14804  21.062  33.029  10.005
50861W        W14805  13.833   0.492  13.522
50862W        W14806  26.058   9.361   3.671
50863W        W14807  26.972  40.966  12.016
50864W        W14808  13.219  13.246   1.902
50865W        W14809  25.522  11.135  13.910
50866W        W14810  22.015  25.525   0.318
50867W        W14811  40.453  22.055   2.305
50868W        W14812  38.375   1.958  10.626
50869W        W14813  14.115   7.811  13.436
50870W        W14814   2.949  18.253   3.666
50871W        W14815  16.685  23.175  12.557
50872W        W14816  16.676  42.983   1.740
50873W        W14817   0.263  31.993   0.270
50874W        W14818  42.801   9.357   2.826
50875W        W14819  12.298  23.714   2.704
50876W        W14820  10.836  23.531  12.050
50877W        W14821   5.244  24.029   1.244
50878W        W14822  16.663   5.912   4.338
50879W        W14823  44.484  37.087  12.012
50880W        W14824  13.650  12.163  13.995
50881W        W14825  26.593  43.900   0.805
50882W        W14826   1.882  18.251   0.906
50883W        W14827  26.062   5.375  13.418
50884W        W14828  39.988  37.489  11.099
50885W        W14829  22.675   7.266  12.846
50886W        W14830  41.978  15.099  11.118
50887W        W14831  29.660  42.842   0.251
50888W        W14832  36.502  21.233  11.529
50889W        W14833  39.455  23.498   2.767
50890W        W14834  10.763  43.443  12.415
50891W        W14835  13.605  22.665  12.505
50892W        W14836  39.891  23.094  13.002
50893W        W14837  32.139  11.751   0.474
50894W        W14838  41.859  40.035  14.813
50895W        W14839  16.182  44.495  14.949
50896W        W14840  29.054  38.956   4.291
50897W        W14841  15.298   6.771   2.724
50898W        W14842  40.866   3.745   2.258
50899W        W14843  25.521  24.141  13.479
50900W        W14844  20.706  41.948  14.989
50901W        W14845  14.689   0.886  12.045
50902W        W14846  34.110   2.313  11.074
50903W        W14847  11.181  37.458  10.566
50904W        W14848   4.268  29.635  10.517
50905W        W14849   7.832  11.636   5.201
50906W        W14850  31.020  18.142  13.972
50907W        W14851  32.398  25.180  14.309
50908W        W14852  17.158   6.377  13.513
50909W        W14853  27.653   7.404   0.840
50910W        W14854   6.207  37.867   2.837
50911W        W14855  13.779  24.669   3.298
50912W        W14856  28.166  12.337   2.265
50913W        W14857  26.663  28.500  14.967
50914W        W14858  22.694   3.255   0.436
50915W        W14859  14.319  35.018  12.441
50916W        W14860  37.981  28.051  12.930
50917W        W14861   1.333  25.216  14.022
50918W        W14862  22.036  40.861  10.548
50919W        W14863   0.975  34.439  14.345
50920W        W14864  41.434   8.222   1.773
50921W        W14865  16.582  18.611   3.248
50922W        W14866   1.885   0.913   3.243
50923W        W14867  32.008  11.241  10.643
50924W        W14868  11.141  34.498  13.974
50925W        W14869  44.501  37.517   2.884
50926W        W14870   3.233  33.448   0.900
50927W        W14871   5.747  19.600   4.825
50928W        W14872  22.241  41.430  14.323
50929W        W14873  39.528   6.214   3.227
50930W        W14874   2.908  23.126   1.810
50931W        W14875  40.979  22.660  14.849
50932W        W14876  37.981  29.062  10.595
50933W        W14877  39.542  14.273  12.526
50934W        W14878   4.210  42.032   0.416
50935W        W14879   1.461  14.148   2.718
50936W        W14880  37.839  35.861   5.167
50937W        W14881  23.554  27.484  12.480
50938W        W14882  10.370   5.787  10.457
50939W        W14883  36.565  19.275  12.382
50940W        W14884   4.399  24.554   3.384
50941W        W14885   6.685  29.550  12.568
50942W        W14886  24.668   1.449  13.949
50943W        W14887   5.730   4.431   4.130
50944W        W14888  28.037  17.197  11.590
50945W        W14889  15.743  16.133  13.543
50946W        W14890  22.238   0.418  14.827
50947W        W14891  42.899  33.056   0.940
50948W        W14892   2.281  31.049   3.855
50949W        W14893  10.141  36.584   3.821
50950W        W14894  30.035   1.937  13.447
50951W        W14895  11.631  41.001   3.173
50952W        W14896  30.456   3.350  13.031
50953W        W14897  19.063  41.891  11.578
50954W        W14898   6.854  16.664  12.937
50955W        W14899  22.145  43.935  13.328
50956W        W14900   2.241   6.356   3.380
50957W        W14901  27.479  13.698  11.089
50958W        W14902  26.036   2.824  10.471
50959W        W14903  37.895   2.388  13.487
50960W        W14904  36.903  23.546   4.768
50961W        W14905  29.659  28.451  12.919
50962W        W14906  16.584  13.288  11.014
50963W        W14907  25.212  42.384   0.734
50964W        W14908  16.670  35.455   9.963
50965W        W14909  32.616  24.085   3.159
50966W        W14910  15.091  43.502   4.648
50967W        W14911  37.979   2.449   2.788
50968W        W14912  26.972  34.545  13.842
50969W        W14913  22.221  10.770   0.474
50970W        W14914  30.606  38.460  10.943
50971W        W14915  16.719  12.638   2.204
50972W        W14916   7.321  25.607  13.920
50973W        W14917  40.492  20.129  13.329
50974W        W14918  25.128  41.401  13.340
50975W        W14919  38.859   1.902   4.218
50976W        W14920  30.023  24.557  10.420
50977W        W14921  16.676   2.888   2.414
50978W        W14922  22.610  39.341   1.857
50979W        W14923   5.703  24.490   0.382
50980W        W14924   3.903  32.043  13.845
50981W        W14925   5.195  10.141  11.470
50982W        W14926  10.246   1.894   1.271
50983W        W14927  10.866  19.187  13.373
50984W        W14928  43.926  39.944  11.450
50985W        W14929  36.432  13.670  14.420
50986W        W14930  35.076  21.605  12.514
50987W        W14931  35.590  15.713   3.793
50988W        W14932  37.418  16.182   2.202
50989W        W14933   8.402  16.763   0.879
50990W        W14934  33.973  23.611  14.872
50991W        W14935  10.647  38.379  14.007
50992W        W14936  11.283  22.250   1.702
50993W        W14937   1.867   5.361  13.803
50994W        W14938  22.201   6.751   3.684
50995W        W14939  43.011   6.224  10.638
50996W        W14940   1.341  31.603   2.244
50997W        W14941  12.352   7.307  12.342
50998W        W14942   6.706   0.338   1.911
50999W        W14943  23.233  37.853   0.954
51000W        W14944  25.677   2.801   0.397
51001W        W14945  40.435  43.815  11.428
51002W        W14946  30.083   1.916  12.491
51003W        W14947  40.832   6.836  13.374
51004W        W14948   6.739  16.781  11.609
51005W        W14949  24.992  34.879   1.237
51006W        W14950  42.804   7.820  12.875
51007W        W14951  20.154  20.607  14.828
51008W        W14952  30.609  28.941  10.959
51009W        W14953  37.436   6.720   1.229
51010W        W14954  31.147   6.238  10.912
51011W        W14955  30.536   4.224   1.797
51012W        W14956  12.153  29.592   0.793
51013W        W14957   6.239   7.823   4.678
51014W        W14958  43.903  19.595  11.475
51015W        W14959  37.344  32.523   0.874
51016W        W14960  30.909  34.903   3.757
51017W        W14961   1.241  29.535   1.232
51018W        W14962  32.434   8.264  14.281
51019W        W14963  15.651  28.158  14.889
51020W        W14964  27.544   3.728  11.599
51021W        W14965  20.137  26.079  13.456
51022W        W14966  14.197  27.079   0.943
51023W        W14967  11.641  11.292   2.263
51024W        W14968  16.677  42.464  13.920
51025W        W14969  38.954  13.768   3.323
51026W        W14970  21.665  21.610  14.297
51027W        W14971   0.296   0.969  12.434
51028W        W14972  40.445  34.378  13.480
51029W        W14973  36.422  34.919   5.215
51030W        W14974  36.992   3.222  14.803
51031W        W14975   0.755  41.801   2.807
51032W        W14976  43.369  43.295  14.347
51033W        W14977   4.766   3.832   5.189
51034W        W14978  27.594  17.217   0.933
51035W        W14979  31.520  29.155   2.352
51036W        W14980  20.563  32.908  13.966
51037W        W14981  11.234  23.676  12.445
51038W        W14982  27.030  13.599   0.456
51039W        W14983  30.159  33.418   4.203
51040W        W14984  21.595   7.724  11.469
51041W        W14985  28.008   1.943  12.528
51042W        W14986  30.496   3.330  11.511
51043W        W14987  31.018  18.674  13.971
51044W        W14988  20.767  26.121   2.863
51045W        W14989   0.901  22.731  14.423
51046W        W14990  18.092  15.644   0.288
51047W        W14991  34.911  17.201   0.248
51048W        W14992  43.322  27.942   0.345
51049W        W14993  20.700  33.414   4.671
51050W        W14994  25.172  15.770  11.516
51051W        W14995  18.727  23.538   2.749
51052W        W14996  33.922   5.395   2.757
51053W        W14997  43.415  22.037   3.845
51054W        W14998  36.915  19.222   0.881
51055W        W14999  34.961  32.544  11.943
51056W        W15000  36.431  42.321   2.187
51057W        W15001  21.692   3.217   3.243
51058W        W15002  44.941   5.242   4.174
51059W        W15003   9.768  44.841   2.677
51060W        W15004   1.323   5.361  13.457
51061W        W15005  23.219  22.575  13.995
51062W        W15006  11.202  44.921   4.761
51063W        W15007  23.054  17.708  12.339
51064W        W15008  15.187  18.157  13.879
51065W        W15009  19.582  24.180  10.938
51066W        W15010   8.773  12.276  11.424
51067W        W15011  23.611  21.213   1.331
51068W        W15012  13.292  44.342  13.991
51069W        W15013  25.543  36.002   2.887
51070W        W15014  37.833  24.174   0.857
51071W        W15015  33.485  16.135   1.917
51072W        W15016   3.729  16.792   4.738
51073W        W15017  18.696   4.366   2.811
51074W        W15018  44.430  35.582   2.720
51075W        W15019  17.294  28.580   2.331
51076W        W15020  38.507  31.905  14.296
51077W        W15021  25.634   7.794  14.281
51078W        W15022  40.910  24.543  14.300
51079W        W15023   2.410   2.318   4.334
51080W        W15024   6.265  21.187  13.985
51081W        W15025  25.056  44.006   3.871
51082W        W15026  31.977  32.591   2.760
51083W        W15027  14.192  35.968  10.638
51084W        W15028  25.115  43.999  13.441
51085W        W15029  13.699   7.228   2.364
51086W        W15030  43.493  34.433  13.877
51087W        W15031  12.338  42.936  10.431
51088W        W15032  31.436  15.301  12.986
51089W        W15033  16.644  44.003  11.021
51090W        W15034  34.865   2.857  11.018
51091W        W15035  16.659  24.483  10.455
51092W        W15036  12.343  23.189   3.318
51093W        W15037   7.703  44.400   0.746
51094W        W15038  12.660  20.171   3.185
51095W        W15039  35.390  21.138  11.946
51096W        W15040  25.664  18.261  11.105
51097W        W15041  16.168   4.284   2.749
51098W        W15042   7.776  29.493   3.384
51099W        W15043  35.941  34.525   3.302
51100W        W15044  27.037   6.385   3.869
51101W        W15045  34.426  17.134  12.348
51102W        W15046  12.615  30.163   0.481
51103W        W15047  37.489  37.357  13.003
51104W        W15048  32.042   0.926   1.223
51105W        W15049   8.273   1.750   1.264
51106W        W15050  23.575  16.620   0.807
51107W        W15051  35.984  29.542  12.848
51108W        W15052  22.996  28.126  12.999
51109W        W15053  17.189  26.638   1.828
51110W        W15054  29.927  34.402  11.855
51111W        W15055  44.976   5.358  10.513
51112W        W15056  24.019  37.441  13.904
51113W        W15057   6.894   7.179  10.892
51114W        W15058  44.490   4.905   4.708
51115W        W15059  27.005   8.179  13.812
51116W        W15060  13.304  12.690   2.343
51117W        W15061  24.534  19.552   2.392
51118W        W15062  34.456  39.405   3.185
51119W        W15063   2.456   9.790   4.768
51120W        W15064  11.337   1.768   4.126
51121W        W15065  27.594  22.622  10.943
51122W        W15066  31.512  26.641   4.344
51123W        W15067  15.716  44.945  11.471
51124W        W15068   2.332  14.283  14.512
51125W        W15069  39.406  18.708   0.762
51126W        W15070  38.075  11.748   0.452
51127W        W15071  15.710  11.135  10.024
51128W        W15072  43.992  28.554   2.869
51129W        W15073  22.715  18.251   0.321
51130W        W15074  15.715  38.919  14.866
51131W        W15075   9.211  28.592   3.306
51132W        W15076  21.729  34.976  12.407
51133W        W15077  16.096  42.029  13.534
51134W        W15078  31.512  11.707  11.540
51135W        W15079   7.297  12.633  11.053
51136W        W15080  41.005  22.112   0.246
51137W        W15081   1.414  29.015  11.520
51138W        W15082  11.167   4.749  14.865
51139W        W15083  30.535  43.319   1.744
51140W        W15084   4.365  21.512  12.423
51141W        W15085  36.568  16.219  14.429
51142W        W15086   1.831  13.842  13.521
51143W        W15087  39.894  23.148  10.899
51144W        W15088  41.797   5.844  14.451
51145W        W15089  34.014  21.097   3.229
51146W        W15090  35.032  44.450   5.149
51147W        W15091  37.527  41.477   3.350
51148W        W15092   7.396  40.539   4.619
51149W        W15093   8.343  15.174   1.764
51150W        W15094  18.236  38.418   0.439
51151W        W15095  38.543  34.446   0.420
51152W        W15096  43.389  13.227  11.509
51153W        W15097  27.638  43.472  11.919
51154W        W15098  29.014   0.797  11.484
51155W        W15099  34.417   5.837  14.439
51156W        W15100  26.056  26.142  11.452
51157W        W15101  40.835  37.347   1.257
51158W        W15102   3.427  42.330   1.856
51159W        W15103  29.649  34.613  11.017
51160W        W15104  13.197   6.880   1.285
51161W        W15105   4.317  37.050  13.347
51162W        W15106  31.084  35.424  11.100
51163W        W15107  32.520  25.624  12.920
51164W        W15108  17.718  33.565  14.367
51165W        W15109  22.175  35.005  12.388
51166W        W15110  25.169  16.648   4.714
51167W        W15111  14.093  32.050   3.638
51168W        W15112   8.311   0.369   3.767
51169W        W15113  26.677   8.355   1.739
51170W        W15114  40.829  42.812   0.809
51171W        W15115  18.763  25.208   0.303
51172W        W15116   4.837  40.814  11.523
51173W        W15117  27.610  28.521   4.643
51174W        W15118  16.317  25.103  13.545
51175W        W15119  25.647  20.207   0.480
51176W        W15120  38.008  41.534  13.408
51177W        W15121  36.388   0.982   5.182
51178W        W15122   0.410  34.408  12.539
51179W        W15123   0.301   1.952   0.389
51180W        W15124   3.387  43.863  13.032
51181W        W15125  22.023  31.602  10.930
51182W        W15126   3.403   2.287   4.258
51183W        W15127   4.930  27.983  10.918
51184W        W15128   9.810   1.967  12.843
51185W        W15129   7.408   1.348  14.409
51186W        W15130  40.474  22.131  13.380
51187W        W15131  34.510  40.460  12.363
51188W        W15132  15.593  34.407  13.342
51189W        W15133  42.902  12.346   1.242
51190W        W15134  31.143  14.102  12.448
51191W        W15135  39.470  31.411   0.392
51192W        W15136  12.354  23.085  14.421
51193W        W15137  38.980   1.946  14.859
51194W        W15138   2.430   1.239   0.440
51195W        W15139   2.840  20.531  10.908
51196W        W15140  43.377   9.171  13.316
51197W        W15141  32.123  20.759   4.321
51198W        W15142   5.853  28.953  13.858
51199W        W15143   5.865  16.241   0.400
51200W        W15144  33.505  19.209   2.385
51201W        W15145  30.910   8.332   2.377
51202W        W15146  16.665  17.745  12.823
51203W        W15147  36.952   1.925   3.782
51204W        W15148  36.457  21.710   1.353
51205W        W15149  31.095   1.735  12.919
51206W        W15150   5.273  23.683   4.136
51207W        W15151  31.590  31.043  11.940
51208W        W15152  26.635  15.781   3.785
51209W        W15153  15.196  38.341  14.904
51210W        W15154  12.631   4.442  12.017
51211W        W15155  28.464  37.497   0.300
51212W        W15156  28.171  32.445  11.525
51213W        W15157  31.538  20.598  14.461
51214W        W15158  32.625  40.311  11.083
51215W        W15159  22.505   3.795  13.925
51216W        W15160  25.015  20.061   2.761
51217W        W15161   3.407  27.509  12.071
51218W        W15162   5.920   2.253   3.363
51219W        W15163  38.466  20.228   0.411
51220W        W15164   3.350  37.565   2.289
51221W        W15165   6.345  40.307   0.949
51222W        W15166  30.632  28.558  13.839
51223W        W15167   7.722  38.459  12.356
51224W        W15168   5.769  22.701   1.237
51225W        W15169  20.536  30.946   0.888
51226W        W15170  28.469   5.800   1.928
51227W        W15171  12.817  18.674   1.840
51228W        W15172  19.592  39.042   0.787
51229W        W15173  21.719  26.018  12.405
51230W        W15174  44.274  33.941  11.867
51231W        W15175  39.856   9.818  12.033
51232W        W15176  12.162  19.628   1.269
51233W        W15177  12.152   6.786  11.951
51234W        W15178   9.265  14.255  13.469
51235W        W15179  14.198  38.421  10.962
51236W        W15180   9.234  40.886  14.475
51237W        W15181   9.318  42.281   3.296
51238W        W15182  43.803  33.553  11.587
51239W        W15183   5.709  27.023   0.446
51240W        W15184  28.657  19.285   4.697
51241W        W15185  44.956  43.388   3.712
51242W        W15186  21.736  38.064   0.878
51243W        W15187  22.213  40.821  13.432
51244W        W15188   6.867   7.776  10.524
51245W        W15189   5.796   6.313  13.400
51246W        W15190  30.652  22.996  11.375
51247W        W15191  36.372  30.541  12.075
51248W        W15192  19.055  42.503   4.263
51249W        W15193  25.496  13.199  13.895
51250W        W15194   3.732  10.843   4.837
51251W        W15195  19.132  40.477   4.344
51252W        W15196  12.170  38.493  12.036
51253W        W15197  33.086  13.762   3.233
51254W        W15198   4.730   3.904   0.249
51255W        W15199   9.858  40.960  14.811
51256W        W15200  42.295  36.520   3.758
51257W        W15201  14.638  18.255  12.905
51258W        W15202   1.406  24.685   2.845
51259W        W15203  11.283   5.212   2.287
51260W        W15204  26.460  30.145   2.361
51261W        W15205   6.401   6.231   3.357
51262W        W15206  36.905  29.610   4.705
51263W        W15207  34.411  12.334   0.821
51264W        W15208  19.125  34.045  13.968
51265W        W15209  30.577  24.005   2.419
51266W        W15210   0.377  17.142  14.981
51267W        W15211  14.766  38.833  11.961
51268W        W15212  12.191  22.178   4.193
51269W        W15213  17.680  40.882   3.293
51270W        W15214  12.812  38.405  14.788
51271W        W15215  19.229  34.005   0.246
51272W        W15216  33.585   2.934  10.058
51273W        W15217  17.728  19.551   1.246
51274W        W15218  38.903  39.960   1.751
51275W        W15219  43.990  43.777  12.057
51276W        W15220  29.582  22.585  11.553
51277W        W15221  17.648  26.465   4.698
51278W        W15222  10.267  30.567   3.159
51279W        W15223  35.868  33.085  10.540
51280W        W15224   8.834  13.836  12.384
51281W        W15225  26.176  29.457   3.275
51282W        W15226  37.872  41.944  13.436
51283W        W15227  34.538  37.905   4.801
51284W        W15228  25.593   4.282  14.341
51285W        W15229  36.485  10.710   0.834
51286W        W15230  36.564  25.564   2.823
51287W        W15231  44.936  25.563   2.351
51288W        W15232   8.199  10.182  10.450
51289W        W15233  31.951  10.188  11.910
51290W        W15234  30.549  27.146  12.384
51291W        W15235  28.961   8.224  13.439
51292W        W15236  12.353  10.755   0.929
51293W        W15237  33.534  39.885  12.902
51294W        W15238  23.136   8.223  12.476
51295W        W15239  33.941   3.251   0.272
51296W        W15240  41.814  32.111  11.865
51297W        W15241  23.126  14.683   2.399
51298W        W15242  44.969  23.548   4.669
51299W        W15243  29.441   8.185  10.484
51300W        W15244   4.269  17.626   4.664
51301W        W15245  23.194  25.575   1.752
51302W        W15246  43.005   0.464   4.141
51303W        W15247  10.878   4.805   0.458
51304W        W15248  33.114   1.760  10.585
51305W        W15249  23.112  30.048   2.228
51306W        W15250   4.230  13.319  11.931
51307W        W15251   4.825  44.436  11.505
51308W        W15252  21.688  24.588   4.634
51309W        W15253  27.691  31.111  14.013
51310W        W15254   7.715  26.535  11.102
51311W        W15255   8.195  29.491   2.858
51312W        W15256  30.531  11.778   3.836
51313W        W15257  24.550  44.344  11.518
51314W        W15258  28.020  14.156   0.956
51315W        W15259  28.015  26.125  11.449
51316W        W15260  30.058  33.382  14.824
51317W        W15261  35.586   1.346   2.228
51318W        W15262   4.260  23.011  13.489
51319W        W15263   2.246  24.562   1.767
51320W        W15264   8.777  22.726  13.535
51321W        W15265  34.109  41.973   3.243
51322W        W15266   4.940  43.984  14.350
51323W        W15267  26.600  17.557   3.360
51324W        W15268   1.743  11.271   4.720
51325W        W15269   4.368  10.307  13.876
51326W        W15270  11.368  40.490  12.090
51327W        W15271  28.013  25.194   0.827
51328W        W15272  27.168   2.323  14.413
51329W        W15273  12.629  22.229   4.238
51330W        W15274  20.200  27.684  10.932
51331W        W15275  27.455  43.889   3.668
51332W        W15276  18.084  10.300   0.339
51333W        W15277   7.355  33.548  14.275
51334W        W15278   3.423  27.666  13.040
51335W        W15279  29.059  15.293   1.392
51336W        W15280  20.124  12.183  10.976
51337W        W15281  11.360   6.214   3.759
51338W        W15282  31.440  43.466   3.660
51339W        W15283  35.916   5.852  13.967
51340W        W15284   7.211  26.968   3.809
51341W        W15285  20.699   7.695   3.841
51342W        W15286   0.300   5.362  14.913
51343W        W15287   6.888   4.389   4.619
51344W        W15288  34.971  19.689   0.479
51345W        W15289   8.824  28.680  14.958
51346W        W15290  29.074  35.963  12.548
51347W        W15291   8.205  22.171   4.184
51348W        W15292  11.623  43.919   1.241
51349W        W15293  24.064  36.994  14.362
51350W        W15294  37.359  23.722   1.394
51351W        W15295  22.093   7.733  14.379
51352W        W15296  22.689   3.342  13.502
51353W        W15297  40.962  42.942  13.063
51354W        W15298  30.940  14.778   4.777
51355W        W15299  19.752  34.005  14.461
51356W        W15300  32.449  41.494  10.465
51357W        W15301  30.969  13.795  13.975
51358W        W15302  26.477  30.653   2.238
51359W        W15303  27.636  39.853   2.204
51360W        W15304  11.138  30.456  10.057
51361W        W15305  13.768  19.666  14.406
51362W        W15306  33.106   0.925   1.384
51363W        W15307  41.900  11.255  13.547
51364W        W15308  34.054  21.737  11.371
51365W        W15309   1.890  30.456   0.932
51366W        W15310  25.006  39.371   2.388
51367W        W15311   8.820  36.002   2.401
51368W        W15312  13.127  33.020   3.234
51369W        W15313  12.736   3.252   2.359
51370W        W15314  30.484  11.159  13.998
51371W        W15315  17.304  17.744   2.410
51372W        W15316  11.840  24.489   0.934
51373W        W15317  34.866  44.926   4.837
51374W        W15318   9.323  36.350   1.825
51375W        W15319  44.336  44.979  12.056
51376W        W15320   9.261  34.560   0.906
51377W        W15321  24.139  24.562   4.145
51378W        W15322  43.338   2.851   4.220
51379W        W15323  11.335   1.387   2.227
51380W        W15324  39.388   2.840   3.736
51381W        W15325   8.163  37.576   0.366
51382W        W15326  23.017  29.008   1.884
51383W        W15327  42.957  21.067   3.835
51384W        W15328  25.518  41.472  14.830
51385W        W15329  27.973  24.095   0.911
51386W        W15330  15.275   2.797  14.378
51387W        W15331  40.479   8.658  10.925
51388W        W15332  18.756   9.235   1.805
51389W        W15333  38.986   7.713  11.560
51390W        W15334   5.821  16.245   1.813
51391W        W15335   6.381  38.365   0.324
51392W        W15336  28.679  31.003  12.870
51393W        W15337  20.669   8.217  11.588
51394W        W15338  14.681  19.542   2.845
51395W        W15339  20.047  15.620   2.217
51396W        W15340   9.266   3.430  11.396
51397W        W15341  34.918  17.074  11.407
51398W        W15342  13.336  25.653  13.841
51399W        W15343  11.187  23.658  13.534
51400W        W15344   9.758   0.340   4.749
51401W        W15345  21.116  40.507   0.939
51402W        W15346  31.520   4.855  12.389
51403W        W15347  34.880  20.712   3.344
51404W        W15348  17.301  18.214  13.987
51405W        W15349  34.500  36.096   3.867
51406W        W15350  26.169  35.959   2.796
51407W        W15351  24.588  19.255   3.743
51408W        W15352  21.053  25.531   1.720
51409W        W15353  20.533  19.709   1.339
51410W        W15354  26.473  19.769  13.046
51411W        W15355  32.526   9.175  12.868
51412W        W15356   6.301  35.875   3.304
51413W        W15357  40.011   2.803   3.181
51414W        W15358   9.303  14.791   0.966
51415W        W15359   1.311  21.694   4.667
51416W        W15360  13.282  16.775   3.732
51417W        W15361  33.040   4.359  12.563
51418W        W15362  14.244  11.281   1.228
51419W        W15363  35.971  10.848   1.362
51420W        W15364  19.540  23.077   1.409
51421W        W15365  29.084  36.908  14.327
51422W        W15366  25.476   0.816   2.339
51423W        W15367  21.644  41.927  13.424
51424W        W15368   2.954  13.616  13.513
51425W        W15369  14.629  42.422  11.533
51426W        W15370   3.345  31.904   0.928
51427W        W15371  44.927  30.991  14.937
51428W        W15372   2.884   1.841   1.769
51429W        W15373  16.721  31.594  12.008
51430W        W15374  13.724  16.167  13.426
51431W        W15375   1.867  20.594   0.937
51432W        W15376   6.389  32.890   0.340
51433W        W15377  32.394  10.327  12.095
51434W        W15378  24.606  20.591  13.422
51435W        W15379  11.753  28.623  10.611
51436W        W15380  28.527  43.413  13.449
51437W        W15381  43.886  33.449  10.495
51438W        W15382  36.994  14.713  12.461
51439W        W15383  35.375  28.143   3.175
51440W        W15384  19.719   8.710   4.706
51441W        W15385  24.049  39.808   2.712
51442W        W15386  32.106  39.326   3.202
51443W        W15387  42.350  37.403  14.426
51444W        W15388  20.041  36.946  13.804
51445W        W15389  38.881  22.228   2.686
51446W        W15390  40.475  22.123   3.277
51447W        W15391  37.476  11.685   4.689
51448W        W15392  27.633  11.202  13.000
51449W        W15393  30.975  15.281   4.177
51450W        W15394  18.117   3.718  14.837
51451W        W15395   5.855  43.458  10.627
51452W        W15396  20.034   4.710   3.259
51453W        W15397  33.514  32.472  12.447
51454W        W15398   5.869  33.464   0.957
51455W        W15399  37.948  26.169   2.334
51456W        W15400  43.911  33.116  12.011
51457W        W15401   6.885  37.075  14.806
51458W        W15402  22.108  26.045  11.129
51459W        W15403  14.664  20.576  12.342
51460W        W15404  34.866  41.924  11.067
51461W        W15405  17.089  31.444   1.733
51462W        W15406  11.706  22.034  12.483
51463W        W15407  24.664  10.689   3.709
51464W        W15408  28.034  36.046  10.044
51465W        W15409   8.806  19.114   5.154
51466W        W15410  12.724   4.800   1.928
51467W        W15411  15.143  14.144   4.151
51468W        W15412   3.431  30.555   2.325
51469W        W15413  17.073  40.848  10.640
51470W        W15414  17.115  32.429   5.658
51471W        W15415  28.972  16.313   2.731
51472W        W15416  12.807  10.380   3.809
51473W        W15417  39.942  35.574   4.826
51474W        W15418   2.958  17.281   4.700
51475W        W15419   1.870  11.627   1.893
51476W        W15420  39.538  34.991  12.369
51477W        W15421   1.354  14.654  14.843
51478W        W15422  28.954  40.311  13.809
51479W        W15423   9.844   2.785  12.827
51480W        W15424  21.704  35.415  12.579
51481W        W15425  38.917  34.473   1.833
51482W        W15426   5.731  41.420   1.800
51483W        W15427   2.251  16.711  13.809
51484W        W15428  30.031  37.361  11.978
51485W        W15429  21.092   2.413   4.308
51486W        W15430  17.169   3.320   1.275
51487W        W15431  26.055  22.736   3.720
51488W        W15432   5.273   1.879   2.798
51489W        W15433  10.241  41.428   4.782
51490W        W15434  40.863  11.665  10.989
51491W        W15435   2.954  38.465   0.409
51492W        W15436   8.711  22.721  10.620
51493W        W15437  28.982  42.956   5.294
51494W        W15438  42.021   1.330  11.583
51495W        W15439   7.686   1.377  11.073
51496W        W15440   8.708  20.654  12.914
51497W        W15441  16.651  27.629   2.407
51498W        W15442  18.609  22.070  13.316
51499W        W15443  31.525  33.538   2.397
51500W        W15444   4.252  38.937  10.953
51501W        W15445  31.062  24.984  12.854
51502W        W15446   7.201  18.077  10.507
51503W        W15447  35.404   1.338  13.795
51504W        W15448   0.407   3.276  12.902
51505W        W15449   8.168  30.001   2.893
51506W        W15450  44.342   6.822  13.802
51507W        W15451  43.790  18.253  11.500
51508W        W15452  23.718  44.409   4.195
51509W        W15453   1.908  31.011   3.166
51510W        W15454  30.161  10.712   4.274
51511W        W15455  25.137  29.613  13.817
51512W        W15456   9.158  33.386   1.859
51513W        W15457  30.414  31.935   2.738
51514W        W15458  18.176  18.246   4.183
51515W        W15459  31.042  38.334  10.418
51516W        W15460  38.488   4.832  11.955
51517W        W15461  27.618   0.322   3.701
51518W        W15462  31.047  23.609   2.389
51519W        W15463  34.613  34.455   2.714
51520W        W15464   4.263  28.037   4.605
51521W        W15465  26.618  11.710   0.938
51522W        W15466   3.911  32.549   1.243
51523W        W15467  26.668  41.344  11.523
51524W        W15468  37.863  32.480   0.285
51525W        W15469   3.947   2.406   3.322
51526W        W15470  41.005  12.633  10.497
51527W        W15471  12.850  21.166   2.835
51528W        W15472   7.681  25.085   5.305
51529W        W15473  36.847  38.453  14.794
51530W        W15474  42.018  25.143  10.507
51531W        W15475  29.496  33.054   4.270
51532W        W15476  33.990  18.585  10.941
51533W        W15477  23.505   0.882  11.002
51534W        W15478  42.449  32.043   1.700
51535W        W15479  22.104  20.529  13.847
51536W        W15480  41.859  40.466  13.883
51537W        W15481  41.389  17.114  10.594
51538W        W15482  44.930   5.928   9.538
51539W        W15483  27.654   0.903   4.341
51540W        W15484  35.033  20.566  12.480
51541W        W15485   2.908   4.262  12.860
51542W        W15486   8.192   7.281  11.497
51543W        W15487  21.572  20.593  11.545
51544W        W15488  22.200  16.792   1.296
51545W        W15489   9.366  12.720   1.898
51546W        W15490  27.108  38.912  14.960
51547W        W15491   4.759  14.796   4.601
51548W        W15492  14.143   4.364  12.021
51549W        W15493  11.705  31.063  13.541
51550W        W15494  23.189  14.201   3.221
51551W        W15495   0.300  39.364  11.087
51552W        W15496  41.478   4.908   4.603
51553W        W15497  10.802  13.654  14.463
51554W        W15498  23.615  35.510   0.316
51555W        W15499  44.317  16.258  12.454
51556W        W15500  43.988  28.523  10.903
51557W        W15501  36.932  40.874  13.974
51558W        W15502  34.555   4.853  11.040
51559W        W15503  13.155  31.008   3.340
51560W        W15504  15.177   5.243   4.718
51561W        W15505  21.046   1.450  12.945
51562W        W15506   8.245  36.955   3.280
51563W        W15507  25.547   5.862  14.915
51564W        W15508  20.650  36.077  12.452
51565W        W15509  26.059  35.904  10.457
51566W        W15510   7.716  43.381   2.800
51567W        W15511  15.118  23.121   3.241
51568W        W15512  44.403  31.477   3.773
51569W        W15513  27.092  13.288   1.384
51570W        W15514   3.368  38.445  12.567
51571W        W15515  36.557  37.485  12.528
51572W        W15516   1.856   8.868   1.411
51573W        W15517  27.967  40.316  12.529
51574W        W15518  26.549   4.860   2.220
51575W        W15519  32.611  29.993  12.956
51576W        W15520  36.365  13.650   0.960
51577W        W15521  43.466  20.260   4.765
51578W        W15522  19.668   7.325  14.379
51579W        W15523   5.895  32.051   2.358
51580W        W15524  25.557  39.835   1.771
51581W        W15525  24.102  21.179   2.262
51582W        W15526  15.757  21.112  14.795
51583W        W15527  44.368  26.191  12.446
51584W        W15528  29.475  11.721   1.285
51585W        W15529  24.080  33.008  12.904
51586W        W15530  30.922  10.707   3.177
51587W        W15531  39.458  44.493  14.853
51588W        W15532  38.376   7.354   9.527
51589W        W15533  23.088  39.549  11.487
51590W        W15534   7.775  30.949   4.319
51591W        W15535  12.649   1.358   1.344
51592W        W15536  10.820   9.887  12.862
51593W        W15537  36.911  21.153   9.992
51594W        W15538  19.117  19.159   2.209
51595W        W15539  41.420  39.557  13.903
51596W        W15540  42.336  30.021   3.334
51597W        W15541  39.056  39.433  11.398
51598W        W15542  36.929   1.424  13.307
51599W        W15543  33.961  38.351  13.002
51600W        W15544  14.809   9.346   5.184
51601W        W15545  33.595  26.613  14.972
51602W        W15546  33.978   9.798  13.409
51603W        W15547  23.725  10.680  12.453
51604W        W15548  42.332   1.313  11.981
51605W        W15549  41.947   2.796   3.777
51606W        W15550   8.351  33.909  11.501
51607W        W15551  26.576  41.467   3.336
51608W        W15552  31.503  19.171   1.780
51609W        W15553  32.949  40.876   0.459
51610W        W15554  38.437  31.058  12.468
51611W        W15555   0.777   8.305   3.699
51612W        W15556  41.381  26.952   0.821
51613W        W15557  38.537  39.408   1.914
51614W        W15558   4.326  24.098   4.284
51615W        W15559  24.221  38.025  13.999
51616W        W15560  39.060  28.438   4.255
51617W        W15561  40.005  18.580   2.739
51618W        W15562  23.080  18.615  11.936
51619W        W15563  43.887   6.741   0.392
51620W        W15564  16.278  12.727   1.733
51621W        W15565  44.404  15.586  11.950
51622W        W15566  44.988  16.176  13.860
51623W        W15567  31.018  19.715  12.998
51624W        W15568  35.365  29.127   2.698
51625W        W15569  14.292  42.400  12.439
51626W        W15570  19.042  22.023  11.438
51627W        W15571  20.059  39.038  13.801
51628W        W15572  40.912   5.908  14.352
51629W        W15573  26.502   2.767   2.700
51630W        W15574  31.599  10.856  14.860
51631W        W15575  36.430   8.314  14.415
51632W        W15576  10.141  36.018  13.898
51633W        W15577  28.013   0.988  13.829
51634W        W15578  44.885  38.049   1.361
51635W        W15579  23.700  35.049  13.964
51636W        W15580  28.029  10.785  14.857
51637W        W15581   3.320   8.204  12.993
51638W        W15582  26.462  16.305   0.737
51639W        W15583  42.011  12.160   0.888
51640W        W15584  39.048  19.100  11.583
51641W        W15585  20.580   2.436  14.472
51642W        W15586   1.918  25.668   1.792
51643W        W15587  23.986  32.492  10.425
51644W        W15588  31.495   8.175   4.184
51645W        W15589   5.697  15.705  13.831
51646W        W15590   2.737  17.074  14.959
51647W        W15591   6.284   1.406   0.341
51648W        W15592  11.699  16.680   9.614
51649W        W15593  32.607  37.567   1.733
51650W        W15594   9.705  24.505  12.893
51651W        W15595  16.714  22.672   4.831
51652W        W15596   0.259  41.509  11.571
51653W        W15597  42.957  41.433   4.199
51654W        W15598  38.040  27.191  14.464
51655W        W15599   7.220  12.153   1.934
51656W        W15600  14.335   3.910  10.582
51657W        W15601  44.283   7.196   3.769
51658W        W15602  27.127   9.193  13.966
51659W        W15603  21.147   5.409  12.436
51660W        W15604  23.029  33.010   0.787
51661W        W15605  21.605  29.432  14.927
51662W        W15606  41.446   2.326   3.658
51663W        W15607   6.381   3.406   0.738
51664W        W15608   7.285  19.659   0.762
51665W        W15609  21.163   6.422  12.901
51666W        W15610   0.328  21.648   2.357
51667W        W15611  14.151  37.368  11.103
51668W        W15612  20.196   1.806   4.804
51669W        W15613  18.551   5.386   1.318
51670W        W15614   9.688  36.588   2.321
51671W        W15615  33.452   0.307   1.804
51672W        W15616  20.687  14.177  12.921
51673W        W15617  23.223   5.334   4.830
51674W        W15618   9.359  41.998  14.904
51675W        W15619  18.692  22.037  13.828
51676W        W15620  40.500  28.083   5.301
51677W        W15621  36.895  24.176  11.102
51678W        W15622  41.500  27.483   1.219
51679W        W15623  42.960   9.157   5.152
51680W        W15624   2.332   4.423   0.882
51681W        W15625   5.748   4.863   2.360
51682W        W15626  22.246  10.717  13.991
51683W        W15627  37.553   2.818  13.866
51684W        W15628   1.759  12.615   2.206
51685W        W15629  18.118  11.216   2.736
51686W        W15630  17.245   6.894   3.822
51687W        W15631  17.790  40.424  11.881
51688W        W15632  44.785  12.648   4.741
51689W        W15633   2.389   5.844   3.740
51690W        W15634  43.804   9.231  14.424
51691W        W15635   7.868  11.750   1.405
51692W        W15636  17.781  14.716   4.701
51693W        W15637  25.981  17.226   2.418
51694W        W15638   4.353  23.150   4.269
51695W        W15639  40.325  14.603   0.864
51696W        W15640  13.324  33.619  10.982
51697W        W15641  26.130  44.412  10.557
51698W        W15642  17.718  19.728   3.726
51699W        W15643   7.744  23.571   2.835
51700W        W15644  25.068   8.286   3.760
51701W        W15645  17.092   2.433  13.319
51702W        W15646  28.051   0.415   9.949
51703W        W15647  22.634  41.300   4.342
51704W        W15648  31.481   4.866  11.122
51705W        W15649   1.747   2.843  13.501
51706W        W15650  42.348  10.205   2.794
51707W        W15651  34.965  29.150   3.660
51708W        W15652  13.663   9.286  10.983
51709W        W15653   8.690  41.903  12.562
51710W        W15654  18.123  28.464   0.888
51711W        W15655   6.773  29.568   9.615
51712W        W15656  13.744  18.643  12.039
51713W        W15657  26.558   4.817   0.432
51714W        W15658   1.265  25.541   0.402
51715W        W15659  39.879  29.584  11.941
51716W        W15660  24.651  19.774  11.390
51717W        W15661  13.198  13.161   0.450
51718W        W15662  26.191  13.664   0.398
51719W        W15663  23.694  10.788  10.976
51720W        W15664  38.366   6.263  13.340
51721W        W15665   4.357  26.467   2.223
51722W        W15666   2.965  12.647   3.831
51723W        W15667   2.935  24.543  14.772
51724W        W15668  18.698  26.139  11.603
51725W        W15669  14.225   9.807   4.200
51726W        W15670   1.460  13.829   3.708
51727W        W15671   9.710  15.622  14.764
51728W        W15672   2.354   8.362  13.826
51729W        W15673  17.754   1.391   3.222
51730W        W15674  15.804   4.322  10.534
51731W        W15675  37.057   6.340  10.906
51732W        W15676  43.442  28.019   2.762
51733W        W15677  28.490  34.098  11.064
51734W        W15678  18.710  11.175   4.156
51735W        W15679  11.682  23.501   0.256
51736W        W15680   6.354   2.940   3.157
51737W        W15681  23.236  30.467   1.771
51738W        W15682  32.629  39.880   1.344
51739W        W15683   3.227  25.099   0.814
51740W        W15684  34.084  41.875   0.393
51741W        W15685  37.032  18.767   0.748
51742W        W15686  34.963  20.029  13.322
51743W        W15687  41.848  34.519  14.376
51744W        W15688  21.547   8.883  13.886
51745W        W15689  14.646  19.556   0.821
51746W        W15690  27.039  36.991  13.539
51747W        W15691  17.661  21.628   2.891
51748W        W15692  10.841  35.437   2.716
51749W        W15693   9.837  31.912  10.902
51750W        W15694  11.174  22.198   4.834
51751W        W15695   9.386  17.104  12.084
51752W        W15696  38.455  41.915  14.832
51753W        W15697  40.845  31.582   0.481
51754W        W15698   5.227  17.276   2.681
51755W        W15699  10.852   8.329   2.749
51756W        W15700  23.158  31.918  10.445
51757W        W15701  15.231  39.988  12.370
51758W        W15702  39.377   7.878   4.123
51759W        W15703  30.658  37.982   3.209
51760W        W15704  29.496  15.601   0.388
51761W        W15705  10.670  43.837   1.319
51762W        W15706  29.587   5.772  10.012
51763W        W15707  21.023   2.278   4.786
51764W        W15708  12.124  39.825   0.957
51765W        W15709   4.866   3.232   1.380
51766W        W15710   1.917  11.662   4.253
51767W        W15711  43.431  26.686  14.825
51768W        W15712   9.781  31.499   2.810
51769W        W15713  23.055  33.414  10.497
51770W        W15714  13.827  34.382  14.771
51771W        W15715   7.708  30.034   2.839
51772W        W15716  27.634  36.546   3.351
51773W        W15717  22.505   3.420   1.442
51774W        W15718   9.706  43.369  13.548
51775W        W15719  24.630  35.946  11.420
51776W        W15720  33.899  43.392  12.563
51777W        W15721  42.804   2.888   2.843
51778W        W15722  43.337  36.427   1.879
51779W        W15723  24.536   8.776  12.029
51780W        W15724  19.285  15.306   2.367
51781W        W15725  38.419  27.508   0.365
51782W        W15726  44.267  21.245  13.007
51783W        W15727  26.973  11.355  10.929
51784W        W15728  44.866   4.937   1.739
51785W        W15729  21.105   5.199  11.453
51786W        W15730   0.299  28.980  12.970
51787W        W15731  34.515  31.986   4.754
51788W        W15732  20.217   3.799   0.834
51789W        W15733   1.412  33.130   1.717
51790W        W15734  15.797  21.098   3.322
51791W        W15735  30.100  32.008  10.604
51792W        W15736  42.391   0.299   4.646
51793W        W15737   3.910  41.021  13.382
51794W        W15738   1.842  35.570   1.230
51795W        W15739  16.756  15.603  12.088
51796W        W15740  17.640  24.176   0.911
51797W        W15741  14.672  23.648  11.501
51798W        W15742  10.810   3.403   1.233
51799W        W15743  27.495  19.273  12.828
51800W        W15744  17.591  37.006  14.990
51801W        W15745  35.078  32.029  12.470
51802W        W15746  30.043  38.559   1.816
51803W        W15747  36.863   6.686   4.605
51804W        W15748   3.314  18.109  11.475
51805W        W15749  39.817  31.615  12.839
51806W        W15750   7.294  44.375   1.913
51807W        W15751   6.190  21.665  13.054
51808W        W15752  23.050  41.529  11.579
51809W        W15753   4.836  13.652   0.472
51810W        W15754  32.938  16.307   3.790
51811W        W15755  27.990  38.989   1.248
51812W        W15756  18.583  25.565  13.856
51813W        W15757  36.469   0.778   0.815
51814W        W15758  16.313  29.535   4.209
51815W        W15759  43.460   0.428  14.418
51816W        W15760  13.204  20.553   2.333
51817W        W15761  44.978   5.822  10.561
51818W        W15762  24.093  15.181  14.434
51819W        W15763  36.405  33.474   2.196
51820W        W15764  24.089  21.556  13.324
51821W        W15765   9.375  18.291  12.483
51822W        W15766   5.898  34.869   0.879
51823W        W15767  38.490  30.545  14.874
51824W        W15768  43.009  26.125  10.643
51825W        W15769  44.950  39.029  10.482
51826W        W15770  30.121   7.238   3.807
51827W        W15771  17.234  37.535  13.015
51828W        W15772  38.432   1.449   2.368
51829W        W15773  12.785  30.481   4.128
51830W        W15774  14.272   4.252   2.363
51831W        W15775  20.578  43.493   0.829
51832W        W15776  30.100  24.527   1.921
51833W        W15777  16.726  43.826  14.873
51834W        W15778  19.274   9.149   2.347
51835W        W15779  31.981  16.803  12.359
51836W        W15780  15.262  21.041  11.017
51837W        W15781  37.414  23.701   9.998
51838W        W15782  37.841  36.589   1.935
51839W        W15783   4.912  31.101  10.596
51840W        W15784  22.695  27.489  11.105
51841W        W15785   4.218  17.301  10.409
51842W        W15786  18.607  20.526  10.105
51843W        W15787  40.428  11.196  14.977
51844W        W15788  28.171  39.466   0.775
51845W        W15789  27.185  25.105  14.860
51846W        W15790  39.034   6.752   2.689
51847W        W15791   9.352  42.871  14.339
51848W        W15792  43.305  31.970  14.906
51849W        W15793   6.322   2.933   2.868
51850W        W15794  28.678   3.260   2.810
51851W        W15795  32.983  18.116  12.823
51852W        W15796  25.185  28.186  11.040
51853W        W15797  38.373  36.015  11.036
51854W        W15798  44.989  39.508   2.331
51855W        W15799  11.735  14.790   1.753
51856W        W15800  39.369  17.292   0.737
51857W        W15801  39.808  10.789   3.285
51858W        W15802  17.573  43.989   3.194
51859W        W15803  31.069  35.977   2.892
51860W        W15804  31.448  14.686  12.020
51861W        W15805  27.989  38.368  10.049
51862W        W15806  15.703  43.395  14.964
51863W        W15807   7.676  23.053   0.901
51864W        W15808  19.271   6.705  14.340
51865W        W15809  13.742  21.724  13.006
51866W        W15810  41.490  40.917  12.534
51867W        W15811  42.822  19.092   4.313
51868W        W15812  27.021  40.990  14.482
51869W        W15813  22.226  19.541   4.764
51870W        W15814  44.287   3.414   0.433
51871W        W15815   5.922  22.089   0.895
51872W        W15816   7.217  44.446  14.777
51873W        W15817  40.898  19.150   4.280
51874W        W15818   0.761  23.001   0.483
51875W        W15819  34.468  20.526   4.820
51876W        W15820  44.892  30.104  13.544
51877W        W15821  39.538   7.250   3.741
51878W        W15822  28.629   4.880  14.779
51879W        W15823   4.364  12.778  14.324
51880W        W15824  40.801  17.289  11.558
51881W        W15825   7.709  20.095   0.261
51882W        W15826  17.676   0.435  14.028
51883W        W15827  23.573   9.887  12.003
51884W        W15828  40.036  10.163  12.547
51885W        W15829  19.678  43.355   1.836
51886W        W15830  39.876  35.057   4.622
51887W        W15831  32.917  16.684  14.510
51888W        W15832  13.270   5.814   0.319
51889W        W15833  37.964  24.187   4.740
51890W        W15834  25.527  44.008  11.947
51891W        W15835  38.971  43.799   1.925
51892W        W15836  37.998  36.018   4.648
51893W        W15837  32.984   8.222   0.793
51894W        W15838  34.527   3.862   2.255
51895W        W15839   9.757   3.767   2.868
51896W        W15840  43.319  15.799   1.381
51897W        W15841  35.412  12.283  10.935
51898W        W15842   0.439  13.745   0.468
51899W        W15843   8.168   6.312   1.365
51900W        W15844  33.975   9.838   3.839
51901W        W15845   4.341  29.106  13.842
51902W        W15846  42.014  40.328   1.716
51903W        W15847   8.664  39.008  14.332
51904W        W15848   7.808  21.617   3.632
51905W        W15849   6.290  31.475   3.833
51906W        W15850  33.043  44.908  14.513
51907W        W15851  41.851   5.277  10.421
51908W        W15852  33.939  17.626  13.870
51909W        W15853  11.643  26.040  10.445
51910W        W15854  43.474  36.513   3.212
51911W        W15855  41.960   8.201  13.837
51912W        W15856  42.002  40.455  11.444
51913W        W15857  42.479   6.849   1.326
51914W        W15858  36.946  25.075   4.646
51915W        W15859  11.150  11.708   0.751
51916W        W15860  35.093  40.443  12.092
51917W        W15861  18.717   3.919  11.958
51918W        W15862   6.711  37.341   3.864
51919W        W15863  37.343  12.841   4.229
51920W        W15864  24.682  25.497  14.276
51921W        W15865  22.667   2.228  13.907
51922W        W15866  10.852  32.103  12.506
51923W        W15867  40.438  15.297  11.510
51924W        W15868  14.692   6.919   4.292
51925W        W15869   7.697  19.165  13.017
51926W        W15870  24.061  22.203  10.092
51927W        W15871  18.728  34.571  12.406
51928W        W15872  24.216  39.853   0.883
51929W        W15873  14.198  15.093  10.537
51930W        W15874  27.029   0.453   0.834
51931W        W15875  39.877  35.572  11.872
51932W        W15876  44.490  11.660  13.987
51933W        W15877  26.108   7.672  13.352
51934W        W15878  19.229  18.784   0.466
51935W        W15879  14.314   3.764  14.787
51936W        W15880  33.436  23.041   2.833
51937W        W15881  25.040  31.033  14.979
51938W        W15882  34.916  34.568   2.221
51939W        W15883   3.799  24.576  11.106
51940W        W15884  22.684  39.427   2.689
51941W        W15885  24.020  42.474  10.598
51942W        W15886  11.199  36.927  12.527
51943W        W15887  28.490  20.220   3.224
51944W        W15888  21.669  10.261   4.136
51945W        W15889  29.918  12.305   4.241
51946W        W15890   5.433  17.161  13.052
51947W        W15891   1.825   6.318   1.334
51948W        W15892  10.679   0.454   0.803
51949W        W15893  13.661   2.312  13.025
51950W        W15894  24.999  25.572   0.943
51951W        W15895  15.681  25.592   2.828
51952W        W15896  39.540  20.233   0.943
51953W        W15897  43.332  37.849  10.603
51954W        W15898  26.996  37.044  12.031
51955W        W15899   4.822  34.445  14.907
51956W        W15900  14.754   0.296  10.480
51957W        W15901  15.228   9.870   0.367
51958W        W15902  39.930  31.984  14.511
51959W        W15903  10.338  23.619  10.496
51960W        W15904  18.757  18.623  11.934
51961W        W15905  41.340   4.395   3.702
51962W        W15906  21.117  29.648  13.929
51963W        W15907  18.084  22.206  13.504
51964W        W15908  31.557  17.269   1.759
51965W        W15909  38.515  35.498   4.285
51966W        W15910  18.147   0.964  13.983
51967W        W15911  37.884  27.040  11.452
51968W        W15912   5.375  17.650   2.742
51969W        W15913  11.785  30.627   0.749
51970W        W15914  15.651  37.971  10.898
51971W        W15915  11.658  41.797  12.059
51972W        W15916  28.677   7.191   0.848
51973W        W15917  32.583   2.793   0.331
51974W        W15918  31.609  41.452   3.224
51975W        W15919  15.730  30.589   1.391
51976W        W15920  18.704  23.667  14.420
51977W        W15921  29.092  35.071  12.391
51978W        W15922  10.240  20.651  10.984
51979W        W15923  21.162   9.355  13.899
51980W        W15924   9.878  29.551  11.859
51981W        W15925  22.227  30.465  11.566
51982W        W15926  38.070  32.887  12.941
51983W        W15927  18.230  31.490  11.969
51984W        W15928  18.235  32.889   2.861
51985W        W15929   7.891   5.429  12.429
51986W        W15930  26.458  35.080  11.482
51987W        W15931  32.423  41.339   3.728
51988W        W15932   9.748  35.543   2.222
51989W        W15933  36.485  27.578  11.569
51990W        W15934  24.519  41.965   3.661
51991W        W15935  14.094  10.171   5.112
51992W        W15936  22.247  33.109   0.295
51993W        W15937  21.755  11.750   1.918
51994W        W15938  42.029  11.740  14.917
51995W        W15939  38.063  18.652   0.882
51996W        W15940  39.352  19.196  11.421
51997W        W15941  39.367   5.841  10.906
51998W        W15942  11.651  35.455   3.671
51999W        W15943  42.952  28.592  12.518
52000W        W15944  13.715  40.014  10.904
52001W        W15945  35.470  29.152  13.526
52002W        W15946  23.565   6.759  11.469
52003W        W15947  32.035  39.026   2.800
52004W        W15948  28.482  21.750   0.335
52005W        W15949  19.203  27.044   4.666
52006W        W15950   1.913  36.379  12.581
52007W        W15951  10.147  42.900   2.790
52008W        W15952   4.228  20.124   2.396
52009W        W15953  36.884  15.285  11.927
52010W        W15954   4.330  33.538   1.922
52011W        W15955  26.035  39.347  14.933
52012W        W15956  14.784   1.815   4.267
52013W        W15957   6.870  25.218  10.416
52014W        W15958  35.373  10.699  12.449
52015W        W15959  16.312  34.043   3.235
52016W        W15960  18.185  18.221   0.353
52017W        W15961   1.304  25.155  13.512
52018W        W15962  31.996  42.494   0.340
52019W        W15963  20.107  41.328   1.888
52020W        W15964  21.222  41.313   2.178
52021W        W15965  40.438  41.888  13.951
52022W        W15966  24.162  38.392  13.524
52023W        W15967  21.543  10.798   2.327
52024W        W15968  40.394  43.456  12.884
52025W        W15969   0.765  21.137   2.690
52026W        W15970  19.639  44.838   2.794
52027W        W15971  28.510  38.044   0.808
52028W        W15972  18.609  20.189   0.251
52029W        W15973   9.858  37.895   3.856
52030W        W15974  17.601   7.278   1.836
52031W        W15975   9.674  10.213   1.237
52032W        W15976   7.745  26.086  11.441
52033W        W15977  20.079   7.819  13.969
52034W        W15978  35.524  29.465   1.927
52035W        W15979  37.346  21.109  14.853
52036W        W15980  27.955  42.379   2.353
52037W        W15981  30.103  40.506  11.541
52038W        W15982  15.104   8.824   0.454
52039W        W15983   5.368  24.082   3.370
52040W        W15984   6.820   2.239  10.934
52041W        W15985  28.183  39.414  12.971
52042W        W15986   6.703  16.137   4.304
52043W        W15987  21.528  27.450   1.286
52044W        W15988  30.081   3.872   3.375
52045W        W15989  20.702   5.745   2.766
52046W        W15990  28.939  23.606  13.916
52047W        W15991   1.257  16.268  14.931
52048W        W15992  19.766  19.560   1.369
52049W        W15993  13.236  20.697  10.920
52050W        W15994  33.053  25.688   2.774
52051W        W15995   4.760  38.864   3.253
52052W        W15996  37.833  15.709   4.836
52053W        W15997  10.293  37.439   1.699
52054W        W15998   9.328  21.670  10.639
52055W        W15999  40.344  42.874  10.062
52056W        W16000  37.457  19.604  14.279
52057W        W16001  42.527   1.327   3.369
52058W        W16002  30.006  16.101   4.343
52059W        W16003  16.203  24.051  14.991
52060W        W16004  42.295  21.104  12.012
52061W        W16005   6.319  38.445  11.548
52062W        W16006  33.435  32.956   3.763
52063W        W16007  29.012  36.967  12.390
52064W        W16008  11.373  36.514  13.423
52065W        W16009   7.310   4.446  10.511
52066W        W16010  10.813   4.430   3.291
52067W        W16011  35.562  27.584   1.258
52068W        W16012  19.567  29.131   1.829
52069W        W16013   0.780   1.356   2.844
52070W        W16014  40.988   8.685   1.764
52071W        W16015  13.187  41.926   2.187
52072W        W16016  11.321  33.380  12.388
52073W        W16017  36.088  26.980  14.508
52074W        W16018  37.068  38.956  13.380
52075W        W16019   5.903  37.036  11.524
52076W        W16020  14.186  10.152   4.832
52077W        W16021  18.061  36.512  13.492
52078W        W16022   5.365  20.612  12.513
52079W        W16023   5.435  15.724   2.831
52080W        W16024   4.773  16.074  14.511
52081W        W16025   5.315  23.560  13.964
52082W        W16026  27.497   2.889   3.822
52083W        W16027   2.352  34.915   4.791
52084W        W16028  20.188  22.094   0.733
52085W        W16029  12.249  26.999  11.475
52086W        W16030  43.970  21.169   0.438
52087W        W16031  22.684   2.841  12.363
52088W        W16032  33.461  28.011   3.263
52089W        W16033  25.041  30.574  13.794
52090W        W16034   5.903  21.109   0.898
52091W        W16035  34.020  28.593   3.252
52092W        W16036  18.191  18.748   2.836
52093W        W16037  44.941   0.344  11.373
52094W        W16038   7.257  13.210  11.906
52095W        W16039   5.786  36.886   3.168
52096W        W16040   5.798  39.413   2.785
52097W        W16041   3.377  21.135   1.702
52098W        W16042  17.618   6.289   5.623
52099W        W16043  11.706  27.656  14.772
52100W        W16044  19.249  35.860   3.678
52101W        W16045  30.954  27.644  11.992
52102W        W16046   6.769  12.695   3.749
52103W        W16047   3.883  38.028  12.359
52104W        W16048  19.767  25.981   1.861
52105W        W16049   7.904  15.710  14.276
52106W        W16050  11.196  43.893  14.291
52107W        W16051  19.111  40.481  10.432
52108W        W16052  32.401  33.952   0.877
52109W        W16053  25.177   7.246  12.052
52110W        W16054   2.812  29.438   2.728
52111W        W16055  11.305  26.169   4.633
52112W        W16056  12.802  39.401   0.956
52113W        W16057  10.194  22.699   1.817
52114W        W16058  18.553  38.926   2.267
52115W        W16059  15.123  41.953  13.976
52116W        W16060  30.065   2.935  14.826
52117W        W16061  31.455  32.945   2.720
52118W        W16062  10.646  10.174  10.138
52119W        W16063  39.013  42.490  13.996
52120W        W16064   4.830  39.020  10.621
52121W        W16065  38.885  31.587  11.116
52122W        W16066  39.821   0.895   2.280
52123W        W16067  25.024  12.821  14.400
52124W        W16068  31.581  28.104   2.707
52125W        W16069   2.307  16.294  12.950
52126W        W16070  32.116   2.843  13.896
52127W        W16071  18.791  27.069  14.893
52128W        W16072   2.890  19.540  11.536
52129W        W16073  29.545   9.260  12.988
52130W        W16074  35.405  14.660  11.385
52131W        W16075  17.197  14.127  12.345
52132W        W16076   9.307  34.947   2.781
52133W        W16077  27.543   1.900  11.611
52134W        W16078   4.910  27.538  12.839
52135W        W16079  29.010  25.676   3.699
52136W        W16080  44.316  43.866  14.889
52137W        W16081  38.892  17.259   2.232
52138W        W16082  38.330  36.062  12.439
52139W        W16083  10.706  34.090   3.212
52140W        W16084  11.353  38.980  12.028
52141W        W16085   4.821   3.938   1.740
52142W        W16086  29.571  30.035   1.244
52143W        W16087  14.693   4.753   4.293
52144W        W16088  33.020  36.370  12.067
52145W        W16089  21.215  30.908   2.213
52146W        W16090  28.030  35.047  14.761
52147W        W16091  19.591   9.865  14.281
52148W        W16092   3.818   2.931   3.656
52149W        W16093   4.764  14.741  14.935
52150W        W16094   1.750   9.223   5.297
52151W        W16095  21.128   9.209   4.681
52152W        W16096  22.095   7.171   3.713
52153W        W16097   0.487  15.590   1.709
52154W        W16098  26.980  32.449  13.498
52155W        W16099  36.514  17.130  12.867
52156W        W16100  37.051   2.877  13.395
52157W        W16101  42.787   6.419   2.859
52158W        W16102  10.188  16.787  11.421
52159W        W16103  29.468  43.418   4.665
52160W        W16104  43.304   4.917   0.474
52161W        W16105  34.906  34.053   2.366
52162W        W16106   9.785  17.237   0.424
52163W        W16107  40.886   0.938   0.953
52164W        W16108   1.317  35.588  10.620
52165W        W16109  36.545  21.690  14.418
52166W        W16110  26.976  20.714   4.313
52167W        W16111   0.411  34.053  14.500
52168W        W16112   8.392  12.688  13.998
52169W        W16113  23.143  31.615   1.696
52170W        W16114   7.665   7.754  14.763
52171W        W16115  19.138   2.758   1.228
52172W        W16116  34.508  19.202  11.526
52173W        W16117   2.300  30.452   3.652
52174W        W16118  27.043  14.103  13.038
52175W        W16119  24.539  41.982  12.030
52176W        W16120  13.206   9.395  14.330
52177W        W16121  34.457  40.314   1.324
52178W        W16122  17.223  20.544   4.336
52179W        W16123  28.634  14.276   1.416
52180W        W16124  34.431  30.604  12.394
52181W        W16125  31.042  41.502  14.017
52182W        W16126  41.902  35.590  14.324
52183W        W16127  40.853  36.022   0.848
52184W        W16128  32.008  42.298  14.986
52185W        W16129  27.138   7.815  12.508
52186W        W16130   1.830   3.318   3.210
52187W        W16131  27.955  20.104   3.383
52188W        W16132   8.249  20.627   2.691
52189W        W16133   1.287  31.952  12.060
52190W        W16134  37.869  39.881  10.571
52191W        W16135  27.506  25.673  12.075
52192W        W16136  29.095   2.451   0.830
52193W        W16137  13.191  25.513  12.867
52194W        W16138  26.481  31.997   3.760
52195W        W16139  28.481  16.709  14.436
52196W        W16140   5.913   7.790   0.913
52197W        W16141   7.233  32.585  12.378
52198W        W16142   2.335   0.872  12.003
52199W        W16143  29.087   5.766   4.158
52200W        W16144   5.760  37.995  12.974
52201W        W16145  37.529   6.864   0.356
52202W        W16146  40.858  25.146  13.440
52203W        W16147   0.275  23.563   4.177
52204W        W16148  37.029   2.306   9.555
52205W        W16149  14.297   6.343  13.960
52206W        W16150  15.698   5.280   4.347
52207W        W16151  42.929  12.250   2.735
52208W        W16152  11.721  19.240  11.032
52209W        W16153  27.075  30.485  11.998
52210W        W16154  22.635  43.991   1.376
52211W        W16155   9.848  37.529  12.012
52212W        W16156   7.811   8.264  12.903
52213W        W16157  37.389   3.450   0.797
52214W        W16158   4.731   4.901  10.467
52215W        W16159   3.382  28.038  14.354
52216W        W16160  23.648   6.413   2.801
52217W        W16161  32.016  31.965   0.729
52218W        W16162  19.194  21.620   3.662
52219W        W16163   8.694  41.388   0.941
52220W        W16164  17.307  44.973   3.159
52221W        W16165  27.953   7.775   0.883
52222W        W16166  29.960  31.077  12.354
52223W        W16167   4.727  34.990  14.817
52224W        W16168  29.936  13.126   4.350
52225W        W16169   0.274  16.622   3.259
52226W        W16170  24.577  37.483   0.919
52227W        W16171  17.191  15.810   3.677
52228W        W16172   6.379  41.032   1.859
52229W        W16173  21.055  40.544   1.234
52230W        W16174  30.472  37.466   3.704
52231W        W16175  19.628  36.495   1.247
52232W        W16176   3.361  13.255   3.769
52233W        W16177  42.892  18.083   9.948
52234W        W16178  31.509  10.231  10.613
52235W        W16179  35.898  27.033   4.242
52236W        W16180  17.584  21.674  14.971
52237W        W16181  25.101  20.562  12.525
52238W        W16182  20.760  30.931   4.692
52239W        W16183   3.222  38.484  11.456
52240W        W16184  25.068  37.416   4.833
52241W        W16185  21.055  19.663   3.804
52242W        W16186  34.889  33.081   2.287
52243W        W16187  41.030  26.559   1.711
52244W        W16188  10.157  15.273   1.389
52245W        W16189  43.964   8.856   2.698
52246W        W16190  12.128  30.943   3.150
52247W        W16191  35.567   0.334   2.335
52248W        W16192  41.851  31.132   2.831
52249W        W16193  17.581  23.997   2.407
52250W        W16194  30.007  22.141  10.501
52251W        W16195  17.214   4.909  10.603
52252W        W16196   1.851  42.907  10.500
52253W        W16197  37.916  41.494   4.319
52254W        W16198   8.399  20.572  10.456
52255W        W16199  28.981   8.680   3.158
52256W        W16200  19.108  22.142  14.364
52257W        W16201  18.699  43.962  14.481
52258W        W16202  30.651  44.392   5.177
52259W        W16203  21.057   2.368   0.325
52260W        W16204  37.396   6.190  10.437
52261W        W16205  42.295  14.329  11.094
52262W        W16206  38.046   9.716   0.339
52263W        W16207  23.219   2.344   1.393
52264W        W16208  37.053  28.078  12.514
52265W        W16209  11.671   7.386  10.523
52266W        W16210  25.645  25.614  11.064
52267W        W16211  14.672  19.544  14.797
52268W        W16212  26.584   2.382   3.787
52269W        W16213  36.359  16.268   4.321
52270W        W16214  33.941  32.090   1.405
52271W        W16215  13.155  12.708   0.417
52272W        W16216  15.789  34.566   4.687
52273W        W16217  43.844  31.644  11.997
52274W        W16218  33.450  28.128  11.609
52275W        W16219  39.815  36.968   1.726
52276W        W16220  21.063   1.868   0.265
52277W        W16221  23.171  44.846   0.820
52278W        W16222   7.192  44.801  12.002
52279W        W16223   1.792  26.118  11.543
52280W        W16224  20.212  35.053  13.511
52281W        W16225  42.401  21.628   2.281
52282W        W16226  37.078  16.239   4.778
52283W        W16227  26.208  40.892  14.788
52284W        W16228  23.143   9.234   3.357
52285W        W16229  19.630   5.219  11.569
52286W        W16230   1.784   5.376  10.529
52287W        W16231  10.860  24.138   0.284
52288W        W16232  26.958  19.621  14.026
52289W        W16233  33.050  24.720  14.761
52290W        W16234  16.777  37.000  14.010
52291W        W16235   5.777  35.380  10.915
52292W        W16236  25.192  18.677   4.607
52293W        W16237   3.426  17.195  10.622
52294W        W16238  22.520   1.316   4.662
52295W        W16239   4.294  38.915  13.540
52296W        W16240  12.331  38.376   2.688
52297W        W16241  19.767  22.012  11.503
52298W        W16242  34.095  25.171  11.434
52299W        W16243  12.356  34.420  12.580
52300W        W16244  37.893  13.821  14.494
52301W        W16245  17.798  44.284  14.805
52302W        W16246   0.845  26.570   2.196
52303W        W16247  26.094  43.509  12.944
52304W        W16248   9.740   3.327  13.317
52305W        W16249  21.612  32.900   4.825
52306W        W16250  11.783   4.283  10.551
52307W        W16251  42.904  41.857   4.721
52308W        W16252  21.247   1.356  14.763
52309W        W16253  33.610   7.333   0.770
52310W        W16254  39.478   4.782  13.357
52311W        W16255   5.834  33.517  13.807
52312W        W16256  36.002  26.035   3.783
52313W        W16257   9.646   6.241  10.958
52314W        W16258   7.740  15.280  14.298
52315W        W16259   3.451  28.581   2.894
52316W        W16260  23.047   2.948  14.430
52317W        W16261  40.508  30.591  12.092
52318W        W16262  36.418  44.294  14.312
52319W        W16263  15.723  10.180   1.855
52320W        W16264  32.950  44.418  11.486
52321W        W16265  24.543  42.516   1.430
52322W        W16266   7.862  21.540  12.833
52323W        W16267   7.823  18.292  10.897
52324W        W16268  19.696  24.984   4.210
52325W        W16269   3.266  10.770  14.758
52326W        W16270   4.206  20.103   2.898
52327W        W16271  13.248  40.990   2.768
52328W        W16272   0.785  20.565   4.228
52329W        W16273  40.472   3.395  11.479
52330W        W16274   3.934  28.034  14.484
52331W        W16275   2.342  18.564   2.805
52332W        W16276  28.660  33.577   0.955
52333W        W16277  12.626  20.156  13.859
52334W        W16278  29.986  32.105  14.498
52335W        W16279  39.976  44.385  14.902
52336W        W16280   7.172   2.361   1.329
52337W        W16281  34.912  19.148  14.985
52338W        W16282  32.437  20.740  12.921
52339W        W16283   5.890  43.352   1.794
52340W        W16284  19.241  20.595  12.405
52341W        W16285  16.183  12.819   2.857
52342W        W16286  43.968   1.844   2.756
52343W        W16287  17.604  13.600   0.249
52344W        W16288  18.673  40.039   4.213
52345W        W16289   5.744  43.785   0.737
52346W        W16290  41.507  10.640   3.847
52347W        W16291   7.359  12.808  13.995
52348W        W16292  18.705  13.829   4.641
52349W        W16293  10.207  42.816   3.761
52350W        W16294  16.704   4.926   4.824
52351W        W16295  35.006  43.489   1.838
52352W        W16296  15.725   6.861  11.972
52353W        W16297  33.419  31.597   1.422
52354W        W16298  33.513  38.921   0.817
52355W        W16299  37.499  22.107  14.959
52356W        W16300   7.912  19.643   3.842
52357W        W16301  16.302   9.806   1.873
52358W        W16302   8.817  19.267   2.785
52359W        W16303   1.288   8.871  10.468
52360W        W16304   0.901   6.249   1.247
52361W        W16305  23.990   7.224  12.534
52362W        W16306  19.743  36.894  13.918
52363W        W16307  21.592  23.118   1.234
52364W        W16308   3.741  44.301   9.963
52365W        W16309  39.332  17.165  12.458
52366W        W16310  20.582  43.863   1.786
52367W        W16311  32.499  10.257  10.488
52368W        W16312  14.817  36.538   4.294
52369W        W16313  38.368  18.717  13.545
52370W        W16314  32.943  31.946  12.473
52371W        W16315  27.609  16.113  13.517
52372W        W16316   1.778  19.243  14.305
52373W        W16317  29.479  10.252  13.918
52374W        W16318  42.974  18.610  13.495
52375W        W16319  42.861   5.830  10.067
52376W        W16320  23.007  40.449   1.340
52377W        W16321  38.929  43.307   0.727
52378W        W16322   7.837   3.294  10.904
52379W        W16323  14.273   0.388   0.884
52380W        W16324  29.578  16.688  14.830
52381W        W16325   3.317   2.470   0.941
52382W        W16326  15.219  35.015   2.258
52383W        W16327  12.118  34.569  14.324
52384W        W16328  34.429   6.821  11.413
52385W        W16329   0.292   1.347   2.890
52386W        W16330  38.042  17.207  14.878
52387W        W16331  17.098  23.165   1.358
52388W        W16332  13.842   0.905   0.796
52389W        W16333  13.122  38.466   1.226
52390W        W16334  19.539  42.866  12.863
52391W        W16335  13.661  41.331   1.800
52392W        W16336  15.299  39.396   3.841
52393W        W16337  42.371   9.712  12.029
52394W        W16338  35.426  13.716  14.300
52395W        W16339  20.260  15.628   3.220
52396W        W16340  44.855   2.339   1.776
52397W        W16341  28.124  27.514   4.308
52398W        W16342  17.141   7.879  12.933
52399W        W16343  19.552  30.582   3.836
52400W        W16344   2.431  10.207   1.210
52401W        W16345  35.547  35.048  14.027
52402W        W16346  13.185  11.785  12.414
52403W        W16347   7.782  19.125  13.398
52404W        W16348   0.883  28.500   2.346
52405W        W16349  42.805  22.541  11.119
52406W        W16350   7.376  17.600   0.407
52407W        W16351  43.297  23.707   4.211
52408W        W16352  23.628  44.503  11.491
52409W        W16353  14.253   9.160   2.755
52410W        W16354  17.286  12.800  14.277
52411W        W16355   2.945  30.955  13.863
52412W        W16356  11.259   6.810  13.486
52413W        W16357  23.620   6.869   1.327
52414W        W16358  10.235   1.436   4.294
52415W        W16359  42.351   0.420   0.467
52416W        W16360  35.001  20.612  13.454
52417W        W16361  17.757  19.068  12.884
52418W        W16362  42.452  44.395   4.202
52419W        W16363  13.274  31.505   2.670
52420W        W16364  15.128  23.030  12.036
52421W        W16365  37.359  44.310  10.952
52422W        W16366  32.594  40.449  13.482
52423W        W16367   9.711  28.130  12.570
52424W        W16368  17.731  36.367   4.129
52425W        W16369   0.402  24.578  14.424
52426W        W16370  14.285   6.792  13.056
52427W        W16371  36.482   6.390  12.884
52428W        W16372  11.720  22.225  14.345
52429W        W16373   0.785  21.557  13.919
52430W        W16374  11.197  10.788  13.055
52431W        W16375  20.086   9.649   2.332
52432W        W16376  42.921   5.363   3.264
52433W        W16377  34.606  31.013   0.322
52434W        W16378  23.528  34.960   3.149
52435W        W16379  39.839  21.589   1.762
52436W        W16380   3.266  13.599  12.852
52437W        W16381  36.972  36.397   1.418
52438W        W16382  25.532   5.282  14.826
52439W        W16383   1.399   2.253   1.243
52440W        W16384  34.948   5.307   0.949
52441W        W16385  36.489  42.956  12.058
52442W        W16386   4.795  30.471   1.884
52443W        W16387  44.902   7.694   4.324
52444W        W16388  42.398  26.179  14.940
52445W        W16389  41.934  31.944  13.356
52446W        W16390   9.747   4.356   3.860
52447W        W16391  32.935   5.717  14.324
52448W        W16392  18.091  23.520  14.334
52449W        W16393   7.333  28.166   0.308
52450W        W16394  34.940   2.927   3.721
52451W        W16395  28.673  44.002  12.043
52452W        W16396  32.972  27.990  14.280
52453W        W16397  27.590  30.462   0.482
52454W        W16398  30.079  22.697  12.551
52455W        W16399  11.675  15.177   5.593
52456W        W16400  24.985  20.715  14.776
52457W        W16401  41.511   5.828  11.080
52458W        W16402  25.568  13.119   1.430
52459W        W16403  32.924   9.368   4.323
52460W        W16404  29.624   5.738  12.515
52461W        W16405  11.257  32.540   0.866
52462W        W16406  19.168  13.777   1.437
52463W        W16407  34.435   1.449  12.355
52464W        W16408  29.580   1.823  11.090
52465W        W16409  37.004  12.733  11.383
52466W        W16410  25.708   4.256   0.864
52467W        W16411  36.979   6.313  14.999
52468W        W16412   8.892   2.362   1.891
52469W        W16413  43.968  39.808  13.471
52470W        W16414  20.160  13.301   4.168
52471W        W16415  38.061  26.001  11.917
52472W        W16416   9.878  15.231  13.889
52473W        W16417   8.226  20.154  13.807
52474W        W16418  23.052   4.792  10.051
52475W        W16419  28.571  20.758   4.625
52476W        W16420  42.479  27.456  14.981
52477W        W16421  25.610  44.879  12.543
52478W        W16422   1.411  26.498  10.955
52479W        W16423  32.084  16.247  14.947
52480W        W16424  17.287  42.899   1.450
52481W        W16425  38.530   1.784  11.914
52482W        W16426  30.509  14.680   2.222
52483W        W16427  43.329  19.588  13.402
52484W        W16428  38.493  18.554   4.753
52485W        W16429   3.925  31.484  14.931
52486W        W16430  18.209  28.598  11.398
52487W        W16431  17.639  38.073  10.905
52488W        W16432   0.492  17.232   1.264
52489W        W16433  36.466  10.312   2.240
52490W        W16434   5.926   9.659   4.662
52491W        W16435  42.472  10.169  12.889
52492W        W16436   7.309  37.522   4.671
52493W        W16437  25.519  38.881  13.366
52494W        W16438  18.752  25.571  10.916
52495W        W16439  24.138  27.193   1.773
52496W        W16440  23.074  36.518  10.904
52497W        W16441  29.445   9.772  10.476
52498W        W16442  22.225  33.395  12.844
52499W        W16443   3.937  34.477  14.971
52500W        W16444  10.873  38.064   1.337
52501W        W16445  20.145  10.804  14.971
52502W        W16446  38.914  34.918   0.261
52503W        W16447  42.855  17.639   4.213
52504W        W16448  31.067  28.109   3.296
52505W        W16449   7.376  20.057   2.227
52506W        W16450   2.761  13.188  11.101
52507W        W16451  39.530  20.203  13.517
52508W        W16452  25.999  11.860  10.557
52509W        W16453   8.841  44.342   3.676
52510W        W16454  29.430  39.861  14.368
52511W        W16455   4.705  32.532  14.448
52512W        W16456  18.146  32.135   0.964
52513W        W16457  18.186  39.513  12.494
52514W        W16458  41.816  21.574  12.871
52515W        W16459  21.707  19.699  13.001
52516W        W16460  25.973   5.345  14.472
52517W        W16461   7.317   4.432  11.086
52518W        W16462  35.067  17.641  13.829
52519W        W16463  39.336   5.416   4.346
52520W        W16464  43.932  44.905  14.892
52521W        W16465  16.574   3.821   2.741
52522W        W16466  24.218  14.728  12.932
52523W        W16467   4.264   3.902  13.951
52524W        W16468  10.750  19.254   0.304
52525W        W16469  10.878  29.004  14.815
52526W        W16470   6.862  41.295   2.272
52527W        W16471  20.225  33.515   1.807
52528W        W16472   4.368  39.346  13.023
52529W        W16473  35.469  16.609   3.192
52530W        W16474   8.349   0.877  10.618
52531W        W16475  21.167  14.819  13.887
52532W        W16476  44.005   3.444  13.361
52533W        W16477  40.018  34.469   2.285
52534W        W16478  21.260  24.655   4.718
52535W        W16479  36.395  32.414   3.386
52536W        W16480  38.046   2.279  12.837
52537W        W16481  30.007  41.925   1.730
52538W        W16482  24.554   2.817  11.997
52539W        W16483   1.954  28.065  11.115
52540W        W16484  33.117  35.402   1.417
52541W        W16485  26.012  25.625  11.378
52542W        W16486  10.262  28.632  12.080
52543W        W16487  10.346  41.352  10.609
52544W        W16488  29.974  33.930  12.344
52545W        W16489  14.816  39.343  13.541
52546W        W16490  15.791  34.411   4.166
52547W        W16491  29.653   1.806  12.926
52548W        W16492  26.090   2.469  11.028
52549W        W16493  24.615   2.941   0.265
52550W        W16494  29.069   0.745  11.086
52551W        W16495  19.654  19.254  13.525
52552W        W16496   6.360   9.694   3.182
52553W        W16497  12.664  37.927   0.888
52554W        W16498  35.086  23.055   2.214
52555W        W16499  26.474  43.446  10.481
52556W        W16500  31.499   2.372   2.773
52557W        W16501  30.945  16.708   3.809
52558W        W16502   1.781  37.356  10.906
52559W        W16503  21.640  12.731   0.884
52560W        W16504  23.194  33.414  12.513
52561W        W16505  38.925  31.053  13.867
52562W        W16506  26.138  26.202  14.468
52563W        W16507  29.515  40.998   3.378
52564W        W16508  28.132  20.046  11.549
52565W        W16509   9.662  11.271  11.421
52566W        W16510  39.327  32.630  11.523
52567W        W16511  12.720   2.450   2.354
52568W        W16512  18.288  29.171  12.921
52569W        W16513  32.001  18.686   2.827
52570W        W16514  26.056  20.612   4.172
52571W        W16515   9.725  12.175   1.781
52572W        W16516   6.761  36.571  14.817
52573W        W16517  23.520  13.729   1.898
52574W        W16518  19.735  30.964  13.429
52575W        W16519  19.252   2.363  11.070
52576W        W16520   6.196  30.581  12.433
52577W        W16521  33.626  41.011  10.557
52578W        W16522  19.697  19.687   4.598
52579W        W16523  26.064  29.984   4.649
52580W        W16524   9.216  19.150  12.832
52581W        W16525   1.934  44.970  11.090
52582W        W16526  39.961  19.056   0.827
52583W        W16527   3.330  28.562  12.850
52584W        W16528  14.115  35.410  14.499
52585W        W16529   2.412   6.858  14.333
52586W        W16530   0.402  27.020   4.771
52587W        W16531  35.506   1.424  14.365
52588W        W16532  18.732  23.676  10.429
52589W        W16533  11.661  10.819   3.192
52590W        W16534  29.606   4.217   1.759
52591W        W16535  26.563  10.767   0.429
52592W        W16536  29.498  12.162  13.048
52593W        W16537  35.461  25.612   2.725
52594W        W16538  33.896  39.843   1.816
52595W        W16539   6.699  32.956  14.348
52596W        W16540  23.098  34.069  11.066
52597W        W16541  27.164  17.667   1.215
52598W        W16542   0.756   1.324  11.992
52599W        W16543  44.302  12.219   4.268
52600W        W16544   2.232  35.064   0.790
52601W        W16545   4.301  40.943  11.408
52602W        W16546   7.900  10.380   2.677
52603W        W16547  14.611  36.002   2.667
52604W        W16548   8.829   6.308   4.759
52605W        W16549  31.901   9.855   2.264
52606W        W16550  41.399  10.643   1.230
52607W        W16551  32.076  39.444   1.340
52608W        W16552  22.237  15.319   3.328
52609W        W16553  15.728   0.459  10.624
52610W        W16554  44.304   1.366  10.936
52611W        W16555  42.922   8.349  14.826
52612W        W16556   3.799  11.190   4.264
52613W        W16557   5.727  44.756   4.265
52614W        W16558  29.622   0.387   2.796
52615W        W16559  13.207  33.945  10.599
52616W        W16560  30.497   8.661   2.703
52617W        W16561  42.840  36.493  13.957
52618W        W16562  34.598   4.375  11.946
52619W        W16563  32.599   2.269   0.470
52620W        W16564  12.816  23.044   4.655
52621W        W16565  24.485  28.156   4.128
52622W        W16566  29.089   9.815  11.941
52623W        W16567  19.103  33.096   4.264
52624W        W16568   0.293  43.009  14.770
52625W        W16569  22.747  43.325  11.899
52626W        W16570  22.500   0.916   3.232
52627W        W16571  36.434  15.217  11.861
52628W        W16572  31.028  21.565  14.988
52629W        W16573  22.224  25.979   3.212
52630W        W16574   6.787  13.203   1.823
52631W        W16575  26.629  11.322   3.803
52632W        W16576  23.194  33.441   2.197
52633W        W16577  23.121  13.670  11.528
52634W        W16578  27.593   2.341   1.302
52635W        W16579  14.253  38.918   5.296
52636W        W16580  12.159   3.845   2.302
52637W        W16581  41.365  40.934   1.900
52638W        W16582  34.030  35.859   2.685
52639W        W16583   3.874  27.028  12.919
52640W        W16584   3.717  29.465   3.711
52641W        W16585  33.603  39.890   3.255
52642W        W16586   4.208   1.758  12.068
52643W        W16587  21.028  39.006  11.559
52644W        W16588  28.001  41.297  10.069
52645W        W16589   6.907  28.104  11.936
52646W        W16590   0.787  33.624   9.944
52647W        W16591  12.137  37.360   3.349
52648W        W16592  21.243   4.882  13.921
52649W        W16593   6.320  16.583  12.055
52650W        W16594  34.887  22.706   2.807
52651W        W16595   2.449  24.599   0.798
52652W        W16596  33.085  14.695   3.274
52653W        W16597  40.361   4.861  11.571
52654W        W16598  40.825  29.053   4.620
52655W        W16599  38.470  22.241  13.405
52656W        W16600  30.933  28.649   1.402
52657W        W16601  37.979  42.785   2.711
52658W        W16602  25.220   5.904   4.767
52659W        W16603  41.442  32.133  14.012
52660W        W16604   3.738  18.215  12.425
52661W        W16605   7.373   5.386  13.809
52662W        W16606   9.651  17.138  14.281
52663W        W16607  13.688  32.943   3.857
52664W        W16608  19.745   8.728   3.823
52665W        W16609  36.422  37.850  13.535
52666W        W16610   7.348   5.829  13.495
52667W        W16611  19.691  38.914   3.744
52668W        W16612  24.108  20.729   2.317
52669W        W16613  19.227   8.218  12.862
52670W        W16614  33.932  16.708   1.446
52671W        W16615  24.635  16.221   0.863
52672W        W16616   7.245   8.657   0.405
52673W        W16617  38.027  26.579  10.083
52674W        W16618  42.804  36.583  13.358
52675W        W16619  35.858  25.552   3.333
52676W        W16620  42.328   7.834  10.639
52677W        W16621   0.400  40.023  12.557
52678W        W16622   6.328  35.928  11.943
52679W        W16623  18.592   9.701   3.374
52680W        W16624   5.737  33.897   0.824
52681W        W16625  10.702  41.409   1.424
52682W        W16626  14.124  15.265   1.766
52683W        W16627  42.861  14.620  13.492
52684W        W16628  21.542  33.439   2.884
52685W        W16629  42.346  27.076  13.458
52686W        W16630  35.916  27.612   0.428
52687W        W16631  25.994  24.566   4.603
52688W        W16632  27.086  35.542   1.899
52689W        W16633   7.666  22.725   3.165
52690W        W16634  29.112  32.100   4.322
52691W        W16635  25.603  41.531   1.305
52692W        W16636  40.459  13.243  13.803
52693W        W16637  27.615   7.799   4.694
52694W        W16638  34.033  23.729  14.508
52695W        W16639  43.828  35.957   4.797
52696W        W16640   5.712  18.649   4.230
52697W        W16641  39.431  37.476   1.799
52698W        W16642  25.559  12.206   4.685
52699W        W16643  12.311  35.402  13.428
52700W        W16644  40.020   3.931  11.489
52701W        W16645  33.442   8.395   0.883
52702W        W16646   3.230  12.797  13.038
52703W        W16647   2.753  30.157   2.677
52704W        W16648  29.618  13.172   0.402
52705W        W16649  12.653  17.204  13.958
52706W        W16650   7.743  23.989   0.272
52707W        W16651  33.017  15.130  11.577
52708W        W16652  17.291  35.931  11.109
52709W        W16653  14.217  32.076  13.881
52710W        W16654  22.211   6.307  12.415
52711W        W16655  33.078  26.601  14.929
52712W        W16656  40.510   6.223   1.229
52713W        W16657   1.416   3.290   3.653
52714W        W16658  10.346   0.315   1.308
52715W        W16659  27.032   7.910   2.770
52716W        W16660  36.442   3.255   9.979
52717W        W16661  33.981   0.461   4.797
52718W        W16662  41.959   1.305  12.859
52719W        W16663  42.973  11.744  14.012
52720W        W16664  43.483  44.908   3.686
52721W        W16665  29.978  39.383  11.922
52722W        W16666  31.408  36.037   0.736
52723W        W16667   1.900   5.888  12.855
52724W        W16668  42.859   4.273  14.920
52725W        W16669  35.928  31.486  14.959
52726W        W16670  15.625  28.018  11.550
52727W        W16671  38.923  24.707   2.750
52728W        W16672  29.625   6.700   2.241
52729W        W16673  16.147  24.664   3.734
52730W        W16674  32.939   8.742  14.356
52731W        W16675  30.078  38.412   0.337
52732W        W16676  34.463  43.895  10.545
52733W        W16677  28.989  18.140  10.891
52734W        W16678  17.753   2.965  10.580
52735W        W16679  39.513  44.884  14.275
52736W        W16680  42.827  38.364   9.989
52737W        W16681  22.235   3.285  13.434
52738W        W16682  11.372  15.181   1.784
52739W        W16683   4.876  30.569  11.945
52740W        W16684  42.500  33.594   1.917
52741W        W16685   0.482  27.016  10.601
52742W        W16686  39.844  17.155   3.154
52743W        W16687  33.962  34.475  13.332
52744W        W16688  38.364  28.136  11.869
52745W        W16689  20.203  20.557   4.781
52746W        W16690   5.795  34.540   2.727
52747W        W16691  33.502  11.267   2.286
52748W        W16692  39.956  17.156   4.704
52749W        W16693  37.570  28.148   5.150
52750W        W16694  40.486  32.493   3.193
52751W        W16695  29.526   4.882   2.246
52752W        W16696  13.732  18.135   4.175
52753W        W16697   3.277  13.640  14.980
52754W        W16698  37.922  23.729  13.973
52755W        W16699  37.925  28.957  12.383
52756W        W16700  16.270  26.699   4.803
52757W        W16701  33.003  16.179   4.650
52758W        W16702  32.415  31.918  13.512
52759W        W16703  38.386  34.955  13.797
52760W        W16704  41.792  10.285   3.366
52761W        W16705  35.065  16.642   3.229
52762W        W16706  33.993  44.404   9.995
52763W        W16707  13.844  22.708  11.044
52764W        W16708  36.491  26.167  14.389
52765W        W16709  44.763  44.804  10.903
52766W        W16710  16.283  16.645  14.318
52767W        W16711  44.004  15.325  13.056
52768W        W16712   8.250  16.677   2.705
52769W        W16713  16.266  15.135  14.006
52770W        W16714  41.803  20.712   4.233
52771W        W16715  18.105  31.962  10.612
52772W        W16716  30.566  26.646  11.090
52773W        W16717  27.022   8.234   4.657
52774W        W16718  39.500  44.483  10.619
52775W        W16719  40.425  15.684   4.176
52776W        W16720  26.552   8.676   3.789
52777W        W16721   1.851  27.590   3.637
52778W        W16722   4.764  35.589   2.282
52779W        W16723  41.992  19.127   2.871
52780W        W16724  22.118  36.385  14.848
52781W        W16725  25.017  25.614  10.644
52782W        W16726  20.682  30.148  11.499
52783W        W16727  18.547  16.232   3.834
52784W        W16728  25.172   8.179  12.976
52785W        W16729   0.345  34.908  13.965
52786W        W16730  29.473   5.227   4.715
52787W        W16731  43.881  42.796  10.929
52788W        W16732  14.199   6.310  11.375
52789W        W16733   0.967  32.625   2.402
52790W        W16734  22.100  36.020   3.757
52791W        W16735   6.883   5.388  11.030
52792W        W16736  41.966  22.574  10.553
52793W        W16737  27.142  38.840   4.321
52794W        W16738  23.061  18.072  13.884
52795W        W16739  25.058  12.675  10.638
52796W        W16740   6.836  33.508  11.597
52797W        W16741  15.785   4.889   0.467
52798W        W16742  39.433  26.599   1.759
52799W        W16743  23.019  27.092   0.358
52800W        W16744   6.290  35.997  14.344
52801W        W16745   3.272   8.159  11.506
52802W        W16746  36.449  30.949   0.463
52803W        W16747  34.083  11.762   3.150
52804W        W16748  36.478  33.062   2.860
52805W        W16749  14.209   4.879  13.856
52806W        W16750  42.436  10.806  12.870
52807W        W16751  14.709  19.159  12.035
52808W        W16752  35.428  41.412   3.709
52809W        W16753  31.056  35.370   1.252
52810W        W16754  27.166  19.535  12.093
52811W        W16755  28.071   3.773  11.096
52812W        W16756  11.308  37.570  14.843
52813W        W16757  25.205  23.614   0.930
52814W        W16758  32.496  14.762   3.862
52815W        W16759  15.805  15.136   5.089
52816W        W16760   8.301  37.974   3.343
52817W        W16761   2.289   2.735   4.325
52818W        W16762   3.953  43.318  10.957
52819W        W16763  27.457   6.278  10.950
52820W        W16764  38.992  25.180   1.869
52821W        W16765  16.280  17.698   1.413
52822W        W16766   5.432   2.273  10.591
52823W        W16767  40.871  21.184  11.559
52824W        W16768  31.476  32.524   3.674
52825W        W16769  35.980   1.930  12.008
52826W        W16770  17.615  35.909   3.310
52827W        W16771  38.473  39.514   2.190
52828W        W16772  25.673  16.789   9.933
52829W        W16773   6.797  36.015  11.123
52830W        W16774   6.857  29.114   3.291
52831W        W16775  22.562  12.205  13.850
52832W        W16776   7.737  28.580  14.469
52833W        W16777  44.768  25.002  14.867
52834W        W16778   7.713  18.191   2.831
52835W        W16779  35.946  13.629  12.492
52836W        W16780  26.098  39.860  12.373
52837W        W16781  42.308  39.354   0.459
52838W        W16782  38.460  11.345  11.914
52839W        W16783  31.459  19.609   0.456
52840W        W16784  14.116  42.404  11.497
52841W        W16785   6.790  37.517   2.700
52842W        W16786  31.031  12.673   3.216
52843W        W16787   6.921  19.537   2.237
52844W        W16788  32.509  36.507   4.251
52845W        W16789   1.465   6.693  12.435
52846W        W16790  11.624  25.574   2.878
52847W        W16791  38.947   7.816   5.221
52848W        W16792  21.646  19.096   0.302
52849W        W16793  31.521  26.602   1.779
52850W        W16794  26.004  20.085  11.003
52851W        W16795  17.692   1.843  13.474
52852W        W16796  41.437  30.578   4.701
52853W        W16797   6.356  20.730  11.461
52854W        W16798  44.384  30.079   0.826
52855W        W16799   1.781  14.128   2.720
52856W        W16800   0.348  24.620   4.239
52857W        W16801   7.277  11.225   1.737
52858W        W16802  36.958   7.748   3.221
52859W        W16803  43.792  38.845  14.785
52860W        W16804  12.280  36.448   2.754
52861W        W16805  13.644  41.786   4.216
52862W        W16806  27.087   3.401  10.480
52863W        W16807  18.773   2.739   0.731
52864W        W16808   3.872  29.539   2.328
52865W        W16809  21.634  21.030  11.442
52866W        W16810   8.229  40.444  13.393
52867W        W16811  17.091   6.186   0.315
52868W        W16812  14.236  26.703   4.287
52869W        W16813   6.226   7.807   3.724
52870W        W16814  31.543   4.206  11.490
52871W        W16815  30.453  43.417   3.265
52872W        W16816  18.757   7.188  13.856
52873W        W16817   3.394  30.138   1.832
52874W        W16818   6.286  30.484  10.119
52875W        W16819  21.209  25.109   0.906
52876W        W16820   9.183  21.247  13.515
52877W        W16821  11.741   1.385  14.792
52878W        W16822  29.135   5.287  14.378
52879W        W16823  24.541  21.614  10.543
52880W        W16824  33.425  23.572  10.925
52881W        W16825   7.820  14.331   0.321
52882W        W16826  14.624   6.684   4.834
52883W        W16827  32.104  43.390  10.463
52884W        W16828   2.417   7.798   3.831
52885W        W16829  10.702  10.849   0.946
52886W        W16830  42.358  14.824   1.852
52887W        W16831  19.179   7.280  14.942
52888W        W16832  24.573  10.142  13.934
52889W        W16833  19.631  39.442  11.553
52890W        W16834   5.352   1.385   2.740
52891W        W16835  18.103  17.646  11.496
52892W        W16836  20.693   8.868  12.084
52893W        W16837   2.934   5.233   5.787
52894W        W16838   5.429  37.852  13.828
52895W        W16839  24.498  44.347   4.329
52896W        W16840   9.653  24.206   1.706
52897W        W16841  23.172  15.654   3.692
52898W        W16842   7.304  44.776  10.925
52899W        W16843  13.143  10.808  13.508
52900W        W16844  42.463  27.676  14.483
52901W        W16845  13.201  38.546  11.886
52902W        W16846  13.182   0.249   3.649
52903W        W16847  13.314   1.949  13.507
52904W        W16848  26.509  16.080   4.154
52905W        W16849   1.822  33.484  13.830
52906W        W16850  22.726  21.215   0.930
52907W        W16851  26.170  22.681   2.787
52908W        W16852  11.789  26.113  11.916
52909W        W16853  41.852  24.022  11.121
52910W        W16854  38.464  33.532   3.162
52911W        W16855  36.545  22.049   1.340
52912W        W16856   5.786  38.399   0.938
52913W        W16857  39.435  10.813  12.045
52914W        W16858   3.784  37.538  10.130
52915W        W16859  22.237   9.730  11.029
52916W        W16860  43.904  44.792  13.327
52917W        W16861  26.512   4.381   4.217
52918W        W16862  40.986   3.407   1.784
52919W        W16863  28.156  23.214  13.849
52920W        W16864  14.273  44.890  10.113
52921W        W16865  24.057  15.097   1.846
52922W        W16866  16.077  17.103  12.524
52923W        W16867  24.685  13.198   4.182
52924W        W16868  43.774  24.568   1.740
52925W        W16869  34.433   0.806   2.895
52926W        W16870   4.870  40.454   0.962
52927W        W16871   0.787  26.097  12.082
52928W        W16872   8.383   3.324  14.857
52929W        W16873  28.087  32.555   4.672
52930W        W16874  11.826  21.082   3.644
52931W        W16875  38.842  39.884   1.426
52932W        W16876   9.230   5.916  11.076
52933W        W16877  11.740  33.546  14.510
52934W        W16878  34.416  43.951  13.408
52935W        W16879  20.124   4.437  14.403
52936W        W16880  28.100   8.679  14.908
52937W        W16881  14.135  11.276   4.634
52938W        W16882  18.217   8.361  12.058
52939W        W16883  43.426   7.829   4.246
52940W        W16884  25.975  30.493  14.889
52941W        W16885  39.545  17.135  11.584
52942W        W16886  31.120   3.880  13.526
52943W        W16887  22.084  20.693  11.909
52944W        W16888  34.932  31.506  13.538
52945W        W16889   3.297  21.592   0.374
52946W        W16890  32.092   7.786  14.311
52947W        W16891  41.859   7.356  14.980
52948W        W16892   7.301  24.512   1.780
52949W        W16893  41.865  37.505  14.813
52950W        W16894  22.116   8.841  11.490
52951W        W16895  31.119  35.456  12.985
52952W        W16896  11.327  37.954   3.726
52953W        W16897  35.034   1.769  13.979
52954W        W16898  26.167  13.621  13.797
52955W        W16899  11.138   3.716  13.831
52956W        W16900  40.934   4.356  12.465
52957W        W16901  42.499  36.397   3.281
52958W        W16902   6.403  19.701   3.216
52959W        W16903  26.985  23.030   3.848
52960W        W16904   5.249  10.718   4.326
52961W        W16905  36.442  10.812   3.168
52962W        W16906   3.811   1.467  12.445
52963W        W16907  36.456  33.116  11.541
52964W        W16908  39.978   0.303   1.922
52965W        W16909  44.308  33.978   0.361
52966W        W16910  40.941   4.918  12.964
52967W        W16911  41.345  14.141  14.413
52968W        W16912  32.061   3.911  13.906
52969W        W16913  41.351  25.096  11.980
52970W        W16914   6.226  15.187  11.570
52971W        W16915  13.328   0.901   2.694
52972W        W16916   4.367  21.608  11.010
52973W        W16917   4.272  31.487   2.664
52974W        W16918  10.259   5.330  13.440
52975W        W16919  21.597  24.678   4.185
52976W        W16920  24.492  24.042   1.898
52977W        W16921  37.969  28.064   0.321
52978W        W16922  39.317  37.545   0.741
52979W        W16923  32.955  20.223   4.316
52980W        W16924  23.630   8.683   2.261
52981W        W16925   5.406  33.540   0.813
52982W        W16926  18.673  24.689   0.742
52983W        W16927  32.026   4.363  13.027
52984W        W16928  12.296  31.585  13.929
52985W        W16929  24.140  18.672   4.258
52986W        W16930  39.459  37.344  13.808
52987W        W16931  44.436  35.089   4.772
52988W        W16932  24.096  34.978  14.381
52989W        W16933  40.451  28.177   1.375
52990W        W16934  38.991  44.875   0.912
52991W        W16935   4.318  35.536  12.040
52992W        W16936  33.542  13.285   2.417
52993W        W16937  33.553  29.128  10.005
52994W        W16938  32.396  41.957   1.285
52995W        W16939   1.432  15.822  12.919
52996W        W16940  22.557  20.601   4.116
52997W        W16941  26.659  11.352   4.824
52998W        W16942  27.471  36.403   3.690
52999W        W16943  10.762   8.815   3.223
53000W        W16944  11.302  19.576  13.520
53001W        W16945  37.877   7.750   1.408
53002W        W16946  22.668  42.440  14.364
53003W        W16947   8.875  37.891   0.334
53004W        W16948  39.917   8.199   3.826
53005W        W16949  20.124  29.600   4.715
53006W        W16950   2.367  31.960   1.251
53007W        W16951   9.728  29.500   3.152
53008W        W16952  42.895  41.352  14.838
53009W        W16953  25.997  27.604  11.945
53010W        W16954  14.198  21.625  11.894
53011W        W16955   4.807   2.923   2.356
53012W        W16956   9.708   9.351   3.316
53013W        W16957  42.958  17.767   3.675
53014W        W16958   0.929   6.808  13.410
53015W        W16959  24.718  40.865  10.921
53016W        W16960  26.545  30.988   2.358
53017W        W16961  28.062  29.948  14.305
53018W        W16962  38.901  44.435  14.325
53019W        W16963  36.963   4.333   5.622
53020W        W16964  15.256  26.018  13.406
53021W        W16965  31.427  16.586   2.346
53022W        W16966  15.110  16.574  14.286
53023W        W16967  32.933  28.120  13.402
53024W        W16968   8.233  12.766  11.094
53025W        W16969  10.225  42.937  14.356
53026W        W16970   4.340   9.852   3.663
53027W        W16971  41.392  39.370   4.781
53028W        W16972  41.508  19.153  12.927
53029W        W16973  26.694  42.404  12.529
53030W        W16974   1.751  34.549   1.731
53031W        W16975  16.792  11.282   0.359
53032W        W16976  30.657  16.674  14.936
53033W        W16977  42.824  14.128  11.111
53034W        W16978   6.199  22.675  11.437
53035W        W16979  12.614  30.650   2.323
53036W        W16980  16.703  13.106   4.213
53037W        W16981  14.195  44.967  11.062
53038W        W16982  34.566  10.747   0.869
53039W        W16983   9.239  30.978  13.016
53040W        W16984  16.110  34.929   2.209
53041W        W16985  41.965  40.963  10.622
53042W        W16986  28.623  25.055  11.045
53043W        W16987   1.460  38.030  10.489
53044W        W16988  29.168  10.862   2.773
53045W        W16989  39.427  13.710   3.256
53046W        W16990   6.257  40.345   4.673
53047W        W16991   9.801  42.305   0.361
53048W        W16992  20.538   9.686   2.845
53049W        W16993  19.245   7.307  10.138
53050W        W16994  28.182  35.899  11.008
53051W        W16995  36.463  26.022   0.855
53052W        W16996  13.328  40.514   2.738
53053W        W16997  19.553  28.626   3.855
53054W        W16998   3.889  44.898  12.897
53055W        W16999  17.207   3.451  11.540
53056W        W17000  30.990  40.821   5.299
53057W        W17001   8.405  41.983   0.945
53058W        W17002  42.821  25.596  11.578
53059W        W17003   1.847  23.655  11.926
53060W        W17004  33.927  35.951  12.382
53061W        W17005  27.486   8.695   0.250
53062W        W17006  24.184  41.309  13.540
53063W        W17007  31.527  12.769  11.888
53064W        W17008   9.657  17.799   2.798
53065W        W17009  26.649  39.936   0.377
53066W        W17010   6.899  30.638  10.539
53067W        W17011   1.388  26.640  11.495
53068W        W17012   8.334  35.445   4.805
53069W        W17013   9.203  36.936  11.882
53070W        W17014  25.668  27.063   0.883
53071W        W17015   4.392  23.690  13.968
53072W        W17016  16.610  32.939  13.854
53073W        W17017  17.187  19.758   2.755
53074W        W17018  21.021  26.537  12.986
53075W        W17019   0.370   0.880  10.425
53076W        W17020   8.856  40.365  13.370
53077W        W17021  27.073  27.041  13.863
53078W        W17022   9.186  32.939   3.224
53079W        W17023  14.714  36.879  13.885
53080W        W17024  10.745  14.135  12.096
53081W        W17025   1.254  44.980   1.376
53082W        W17026   9.769  44.355   2.179
53083W        W17027  17.141  40.933   2.416
53084W        W17028  13.199   5.758  11.466
53085W        W17029  41.031  17.148  14.922
53086W        W17030   4.740  12.739  14.933
53087W        W17031   6.827  11.622   3.678
53088W        W17032  22.034   4.259   2.663
53089W        W17033  39.388   7.324   4.125
53090W        W17034  13.616  17.235   2.390
53091W        W17035  34.571  34.933   1.291
53092W        W17036  12.839  29.925  12.905
53093W        W17037  34.078  43.476  14.907
53094W        W17038  18.789   6.866   0.277
53095W        W17039  16.634  43.907   0.766
53096W        W17040  24.035  32.935   4.614
53097W        W17041  23.191  27.472   4.321
53098W        W17042   1.402  17.187   0.756
53099W        W17043  27.018   7.217  10.567
53100W        W17044  18.103  25.590   3.838
53101W        W17045  41.322  38.834   3.826
53102W        W17046  38.503  26.201   2.401
53103W        W17047   9.845  21.676  12.933
53104W        W17048  10.339   4.329  11.923
53105W        W17049  25.494  31.586   4.197
53106W        W17050  14.331  39.459   3.677
53107W        W17051  16.137  36.035  11.013
53108W        W17052  18.739  44.974  14.017
53109W        W17053  10.870  19.639  13.326
53110W        W17054   0.359  32.510   2.692
53111W        W17055  25.126   7.397  13.049
53112W        W17056   0.310  21.742  14.276
53113W        W17057   9.178  28.108   1.365
53114W        W17058   7.844  28.137  11.371
53115W        W17059   5.294  38.971   3.840
53116W        W17060  14.331  42.979   5.093
53117W        W17061  36.902   8.163  14.840
53118W        W17062  23.623  19.242   2.179
53119W        W17063  42.888  42.923  14.001
53120W        W17064   4.240   4.227  11.021
53121W        W17065  29.933   7.673  13.468
53122W        W17066  36.918  37.055   2.752
53123W        W17067  31.558  31.542   4.150
53124W        W17068  10.682  23.163   2.269
53125W        W17069  11.678  31.926  13.864
53126W        W17070  42.843  10.270   3.234
53127W        W17071  11.250  26.058  12.520
53128W        W17072  32.982  24.715   3.803
53129W        W17073  42.325   2.352  12.070
53130W        W17074  13.232  27.958  14.506
53131W        W17075  40.354  31.433   4.195
53132W        W17076   8.211   6.850  13.411
53133W        W17077  18.688   2.731  13.322
53134W        W17078  42.804  17.261  12.066
53135W        W17079  22.725  32.110  10.441
53136W        W17080  22.167  21.567   4.188
53137W        W17081  24.569  32.097   0.462
53138W        W17082  38.043  31.410   1.769
53139W        W17083  37.422   0.934  14.859
53140W        W17084  40.854  30.024   0.742
53141W        W17085   6.427  26.489   2.316
53142W        W17086  10.858  28.458  10.911
53143W        W17087  35.987  19.680  10.896
53144W        W17088  20.710  44.411   0.276
53145W        W17089  28.941  19.631  10.982
53146W        W17090   9.797  27.551  13.048
53147W        W17091  14.803   7.879   2.265
53148W        W17092  37.376  24.505  13.039
53149W        W17093  37.445  41.017   2.884
53150W        W17094  43.436   8.683  12.389
53151W        W17095  14.605  18.553   1.256
53152W        W17096  17.586  43.886   1.348
53153W        W17097  40.959  32.120  14.813
53154W        W17098  35.991   1.380  11.026
53155W        W17099  18.202  18.050  13.333
53156W        W17100   8.736   1.275   1.414
53157W        W17101  35.451  39.550  14.926
53158W        W17102  28.525  17.743   1.242
53159W        W17103  30.985   5.337  13.516
53160W        W17104   3.273  10.346   9.932
53161W        W17105  38.858   1.423  11.978
53162W        W17106  30.933  29.427  13.371
53163W        W17107   7.362  43.927  13.932
53164W        W17108  44.984   9.252   1.724
53165W        W17109  19.711  43.895   3.240
53166W        W17110  30.624  29.944  10.919
53167W        W17111   6.260  28.940   1.435
53168W        W17112  18.115  22.690  12.079
53169W        W17113  18.629   0.462  11.571
53170W        W17114  38.021   7.864  14.828
53171W        W17115  18.266   0.337  12.570
53172W        W17116  23.496  38.820   0.380
53173W        W17117  25.059  43.354  14.304
53174W        W17118  20.227   0.905  14.816
53175W        W17119  34.097  32.072   4.281
53176W        W17120  30.587  40.364   2.735
53177W        W17121  36.528   0.872   1.889
53178W        W17122   0.757  16.582  13.827
53179W        W17123  31.607  30.022  12.355
53180W        W17124  16.662  36.578   1.321
53181W        W17125   3.831  14.284  14.299
53182W        W17126   2.815   5.281  13.467
53183W        W17127  42.906  43.497   2.866
53184W        W17128  38.048  19.678  11.100
53185W        W17129  42.459  32.539  10.993
53186W        W17130  38.000  27.107  12.950
53187W        W17131  15.721  40.478   5.177
53188W        W17132  31.594  38.027  10.900
53189W        W17133  18.569  12.626   3.338
53190W        W17134  32.630  19.563   0.796
53191W        W17135  10.310  41.823   2.727
53192W        W17136  25.186  36.449   1.905
53193W        W17137  13.292  42.490  14.812
53194W        W17138   0.789  41.037   3.654
53195W        W17139  39.559  39.481   3.320
53196W        W17140  34.425  14.109   0.737
53197W        W17141   5.316  30.105  12.081
53198W        W17142  36.885  38.365  13.021
53199W        W17143  20.765  40.429   3.788
53200W        W17144  14.141  33.927  12.001
53201W        W17145   8.284  20.596  12.522
53202W        W17146   0.492  17.129   0.262
53203W        W17147  26.088  36.950   0.748
53204W        W17148  34.103  28.102  12.922
53205W        W17149  27.555   0.294  13.361
53206W        W17150  25.996  22.516  13.452
53207W        W17151  19.740  38.859  10.515
53208W        W17152  16.161  37.369  14.840
53209W        W17153  24.529  38.369   4.773
53210W        W17154  20.041  14.304   9.938
53211W        W17155  29.493  25.520  11.928
53212W        W17156  42.481  31.129   2.309
53213W        W17157  40.993  17.199   1.873
53214W        W17158  33.485  34.407   0.927
53215W        W17159  44.924  14.168   1.760
53216W        W17160  43.952  33.890   3.345
53217W        W17161   6.872  14.601   2.272
53218W        W17162  18.578  14.228   1.245
53219W        W17163  27.085  24.534   1.908
53220W        W17164  24.151  24.090  14.467
53221W        W17165  35.876  39.533   3.859
53222W        W17166   0.834  39.883   4.603
53223W        W17167   2.877  19.181   2.684
53224W        W17168  19.235  36.419  10.567
53225W        W17169  17.161  31.555  11.572
53226W        W17170  32.887   5.904   1.430
53227W        W17171  12.292  23.132  12.349
53228W        W17172   1.343   4.815   2.789
53229W        W17173  40.827  27.066   3.212
53230W        W17174  28.533  17.660  12.827
53231W        W17175  12.806  44.805   5.221
53232W        W17176  36.028  41.441   1.254
53233W        W17177   3.456  24.644   4.745
53234W        W17178  39.888  23.237   0.812
53235W        W17179  41.029  43.858  14.782
53236W        W17180  11.824  11.368   3.297
53237W        W17181   6.832  35.078   1.828
53238W        W17182  22.616  20.565   2.816
53239W        W17183  41.956  23.639   0.341
53240W        W17184   8.182   2.262   0.374
53241W        W17185  19.118   9.223  14.481
53242W        W17186  26.958   9.224  11.888
53243W        W17187  20.723  12.118  14.909
53244W        W17188  24.025   2.780  11.556
53245W        W17189  16.773  24.591  12.945
53246W        W17190   6.750  13.212   0.949
53247W        W17191  27.117   3.226   4.773
53248W        W17192  17.272  29.456  12.472
53249W        W17193  33.482  43.000  10.449
53250W        W17194   5.209  21.164  13.792
53251W        W17195  34.056   0.897   0.868
53252W        W17196  18.111  41.001  11.477
53253W        W17197  41.919   0.929  14.296
53254W        W17198  31.553  36.439   0.904
53255W        W17199  18.593   0.829  11.551
53256W        W17200  34.600  21.559  11.543
53257W        W17201   9.743  43.391   0.459
53258W        W17202  33.505   2.766  14.511
53259W        W17203  39.881   4.267   4.341
53260W        W17204   8.201  15.710  12.096
53261W        W17205   9.374   3.352  12.890
53262W        W17206  13.282   1.240   9.498
53263W        W17207  18.552  42.414  11.401
53264W        W17208   8.883  11.709  11.033
53265W        W17209  41.917   4.827  12.900
53266W        W17210  26.194  29.586  14.818
53267W        W17211  42.438  35.086   4.218
53268W        W17212   9.374  14.155  10.422
53269W        W17213   3.351  36.945  10.894
53270W        W17214  17.732  20.723  13.886
53271W        W17215  40.326  30.121   1.921
53272W        W17216  42.926  10.346   0.763
53273W        W17217  11.717  25.517   3.637
53274W        W17218  28.498   0.300  11.881
53275W        W17219   8.818  42.896  14.488
53276W        W17220   6.822   0.471  12.040
53277W        W17221  44.952  17.070   1.721
53278W        W17222  43.497  44.976   4.310
53279W        W17223   3.763  20.728  14.274
53280W        W17224  27.665  41.486  11.525
53281W        W17225   3.765  22.594   0.893
53282W        W17226   6.678  39.338  14.859
53283W        W17227   9.274  37.991  12.961
53284W        W17228  11.767   9.787   3.860
53285W        W17229   9.205  16.102  12.978
53286W        W17230   9.800  25.584   0.394
53287W        W17231  38.413   3.442  11.858
53288W        W17232  40.878   6.229  13.811
53289W        W17233  30.138  42.881   4.826
53290W        W17234  12.716  18.667  14.362
53291W        W17235  31.597   5.801  10.639
53292W        W17236   1.892  14.663   0.800
53293W        W17237   8.778  27.973  11.435
53294W        W17238  22.508  14.764   3.324
53295W        W17239  36.541  41.826  11.928
53296W        W17240  13.637  24.489   3.854
53297W        W17241  27.143  21.636  10.576
53298W        W17242  18.687   7.838  14.951
53299W        W17243  30.500  32.050  11.035
53300W        W17244  24.105  15.630   5.196
53301W        W17245   1.391  40.802  13.448
53302W        W17246  18.198  11.817   3.225
53303W        W17247  43.282  11.151  13.454
53304W        W17248  15.281   9.786   9.959
53305W        W17249  25.171   7.767   2.352
53306W        W17250   0.851  38.023   3.269
53307W        W17251   0.873  34.423   1.885
53308W        W17252  30.021   9.175  11.983
53309W        W17253  35.551  29.972   1.853
53310W        W17254   0.771  23.169  10.617
53311W        W17255   7.227  42.311  10.901
53312W        W17256   6.251  25.568   3.782
53313W        W17257  39.415  35.024   2.325
53314W        W17258  30.946  39.445  10.022
53315W        W17259  12.655  14.333  12.479
53316W        W17260  28.565  41.960   5.745
53317W        W17261  10.219   4.761   2.663
53318W        W17262  28.960  21.042  14.411
53319W        W17263  13.240  33.963  14.478
53320W        W17264  21.697  23.492   3.656
53321W        W17265  36.387  22.528   5.317
53322W        W17266  15.199  35.397  11.591
53323W        W17267   1.243   0.780   3.706
53324W        W17268  27.964  14.621  10.040
53325W        W17269  32.114  14.704  13.417
53326W        W17270  18.737  30.124   4.251
53327W        W17271  19.646  28.125  10.463
53328W        W17272   9.242  37.468  14.025
53329W        W17273  12.219  16.604   0.392
53330W        W17274  37.088  36.381  12.995
53331W        W17275  35.949  12.357   0.830
53332W        W17276  32.551  26.061  11.401
53333W        W17277  39.819  34.032  10.522
53334W        W17278   6.218   3.912  12.052
53335W        W17279   5.775  25.656  13.371
53336W        W17280  28.630  38.903  10.069
53337W        W17281  27.481  37.567  11.420
53338W        W17282   3.875   7.291   4.203
53339W        W17283   7.402   9.764   2.807
53340W        W17284   7.193   1.788   1.807
53341W        W17285  27.112   0.954  10.524
53342W        W17286  42.961  15.303   1.843
53343W        W17287  42.921  42.511  12.508
53344W        W17288  44.908   3.882  13.805
53345W        W17289  42.992   1.787  13.795
53346W        W17290  23.063  26.586  14.352
53347W        W17291  13.329  18.579  12.890
53348W        W17292  17.289  23.992   1.278
53349W        W17293  14.305  11.344   0.949
53350W        W17294  44.933  25.210   2.316
53351W        W17295  44.770  13.243  12.521
53352W        W17296  37.033  23.529  13.922
53353W        W17297  36.516  35.581   4.778
53354W        W17298  35.433  37.060   1.410
53355W        W17299  29.428   7.258   2.364
53356W        W17300  24.535  36.953   0.263
53357W        W17301  10.162  20.705   1.900
53358W        W17302  20.532  43.413   1.917
53359W        W17303  13.251   6.389   1.881
53360W        W17304  14.663  28.504   2.184
53361W        W17305  17.171  13.704   4.680
53362W        W17306  31.600  15.261   0.310
53363W        W17307  37.479   3.430  10.586
53364W        W17308  10.206  14.185  11.518
53365W        W17309  39.340  32.080   0.246
53366W        W17310  40.534  25.477  12.072
53367W        W17311  15.739  27.666  11.029
53368W        W17312   9.835   8.365  12.952
53369W        W17313  12.678   5.762   1.339
53370W        W17314  10.651   2.789  12.494
53371W        W17315  33.430  18.721  11.053
53372W        W17316   0.766  31.095  12.894
53373W        W17317   6.770   6.752   3.362
53374W        W17318  12.186  11.733   2.198
53375W        W17319  42.835  31.459   2.203
53376W        W17320   3.276   2.755  10.625
53377W        W17321  10.209   4.412   1.711
53378W        W17322  14.817  38.939  11.403
53379W        W17323  10.266   7.296   4.727
53380W        W17324  29.067  13.689   0.963
53381W        W17325  33.392  21.607   3.683
53382W        W17326  18.282   8.773  12.378
53383W        W17327  17.198  18.693   0.966
53384W        W17328  24.503  10.172   1.335
53385W        W17329  10.342   4.739   4.340
53386W        W17330   9.195  19.586   5.098
53387W        W17331  16.170  30.068   0.963
53388W        W17332  32.578   4.783  10.891
53389W        W17333  37.078  30.024   0.429
53390W        W17334  24.125  21.731   2.415
53391W        W17335  24.668  31.952  12.843
53392W        W17336  37.367   3.216   1.305
53393W        W17337  13.789  30.655   0.325
53394W        W17338  32.140  21.613  11.511
53395W        W17339  35.091   9.733   2.890
53396W        W17340  37.080  19.566   4.348
53397W        W17341  17.691  17.302  10.575
53398W        W17342  26.483  17.228   1.390
53399W        W17343  44.799  15.294   0.437
53400W        W17344   9.881  16.281   3.279
53401W        W17345   4.431  24.532   1.443
53402W        W17346  16.808  32.483  14.876
53403W        W17347  36.918  35.021   0.401
53404W        W17348   6.818   6.361   2.880
53405W        W17349  33.999   2.462  13.494
53406W        W17350  11.233  41.880   3.755
53407W        W17351  44.854  41.476  12.054
53408W        W17352  34.476  15.707   0.436
53409W        W17353  14.202  17.587  10.623
53410W        W17354  43.794  37.446  11.406
53411W        W17355  37.987  23.652  10.492
53412W        W17356  23.719  10.682   1.857
53413W        W17357  35.022  37.337   4.216
53414W        W17358  10.217  40.437   4.114
53415W        W17359   2.961  34.438   3.669
53416W        W17360  28.181  37.384  13.843
53417W        W17361  44.756   5.701   4.689
53418W        W17362  11.805  40.838  11.573
53419W        W17363  18.610  16.292  10.536
53420W        W17364   1.975  15.697   1.773
53421W        W17365  18.182  38.440   0.871
53422W        W17366  26.123  42.347  14.793
53423W        W17367  19.119  37.357  13.307
53424W        W17368   6.285  24.645   4.790
53425W        W17369  20.130   6.314  10.988
53426W        W17370  13.138  44.960   1.814
53427W        W17371  11.187   6.823   2.187
53428W        W17372  30.641  13.833  10.414
53429W        W17373  35.391   0.249   1.292
53430W        W17374  28.500  33.417  13.040
53431W        W17375  25.565  39.983  14.455
53432W        W17376  24.024   7.811   1.401
53433W        W17377  29.488  18.756  13.415
53434W        W17378  35.589   0.892  14.924
53435W        W17379  41.514   7.282  14.336
53436W        W17380  40.380  31.577  11.470
53437W        W17381   6.383   7.304   5.175
53438W        W17382  11.742  18.608   4.641
53439W        W17383  40.892  24.551   1.221
53440W        W17384  21.605  36.508   1.257
53441W        W17385  35.084  14.832   0.890
53442W        W17386  12.245   7.226  13.042
53443W        W17387  27.100   9.266  13.540
53444W        W17388  40.857  33.112   1.703
53445W        W17389  26.096  17.105  13.411
53446W        W17390  27.518  31.978   4.650
53447W        W17391   8.724  38.510  12.945
53448W        W17392   6.747   8.713  12.380
53449W        W17393  17.645   3.736  12.577
53450W        W17394  35.936   0.317   4.207
53451W        W17395  19.593  22.102  12.483
53452W        W17396  16.196   1.898   3.208
53453W        W17397  20.739  26.695   3.222
53454W        W17398   7.874  27.532   0.284
53455W        W17399   7.901  19.646   2.811
53456W        W17400  32.434  21.194  10.103
53457W        W17401   4.439  19.208  11.609
53458W        W17402   5.790   9.319  11.107
53459W        W17403  10.823  27.673   3.842
53460W        W17404   6.422   4.284  13.844
53461W        W17405   6.710  40.976  10.587
53462W        W17406   0.303   8.804   9.971
53463W        W17407  43.851  32.927   0.849
53464W        W17408  20.222  42.937   1.751
53465W        W17409  27.514  31.473  13.929
53466W        W17410  35.895  21.748  13.495
53467W        W17411  36.436   8.340   0.465
53468W        W17412  10.675  15.314  11.498
53469W        W17413  16.661  18.159  12.514
53470W        W17414  27.651   0.812  14.465
53471W        W17415   6.857  30.632   3.682
53472W        W17416  24.488  12.793   0.357
53473W        W17417  14.738   6.910  11.015
53474W        W17418  21.710  21.053   4.663
53475W        W17419   2.424  12.268  14.801
53476W        W17420  39.011  19.722   1.724
53477W        W17421  16.278  25.680   3.207
53478W        W17422  12.825  16.743   3.781
53479W        W17423  20.575  44.392  14.405
53480W        W17424  42.385  24.004  14.944
53481W        W17425  24.554   3.431   2.214
53482W        W17426  13.310  43.942   1.888
53483W        W17427   6.398   6.912  10.446
53484W        W17428  36.374  15.186  13.898
53485W        W17429  36.978  44.482   2.687
53486W        W17430  38.912  21.633  13.813
53487W        W17431  12.200  11.774  11.529
53488W        W17432  31.629  38.542   1.391
53489W        W17433  26.107  10.287  12.388
53490W        W17434  36.506  38.877  10.105
53491W        W17435   0.460  20.143   3.635
53492W        W17436  32.956  30.164   3.171
53493W        W17437  35.069  19.214   3.205
53494W        W17438   1.940  18.581  13.376
53495W        W17439   2.340   4.772   1.703
53496W        W17440  16.205  33.481   1.243
53497W        W17441  43.770   6.729   1.410
53498W        W17442  22.729  18.184   2.846
53499W        W17443  33.599  33.422   1.905
53500W        W17444   1.977   3.838  13.997
53501W        W17445  42.915  39.065  13.825
53502W        W17446  41.952  31.080  10.531
53503W        W17447   2.950  22.022   0.801
53504W        W17448  12.623  42.864  12.021
53505W        W17449  38.052  38.329  12.052
53506W        W17450   5.315  11.327  10.962
53507W        W17451  29.076  16.622  12.868
53508W        W17452  22.067  31.022  13.459
53509W        W17453   4.425   1.844  14.937
53510W        W17454  11.351   0.483  14.781
53511W        W17455   2.387  31.415   2.257
53512W        W17456  35.883  44.937   0.430
53513W        W17457  34.402  40.525  14.776
53514W        W17458  39.454   9.257  12.973
53515W        W17459  44.885  25.603  11.909
53516W        W17460  36.432  36.925  13.509
53517W        W17461   8.655  10.815   2.384
53518W        W17462  18.703  36.509  11.420
53519W        W17463  28.631  16.180  13.514
53520W        W17464   8.659   4.812   2.348
53521W        W17465  32.525  11.816   0.785
53522W        W17466  29.066  36.413   1.312
53523W        W17467   3.441  16.575   3.201
53524W        W17468  36.562  14.120  10.548
53525W        W17469   0.418  21.636  11.958
53526W        W17470  15.650   4.818  11.597
53527W        W17471  24.982   3.359  10.139
53528W        W17472  23.140  12.689  12.002
53529W        W17473   9.153  11.661   0.736
53530W        W17474  12.176   6.186   0.475
53531W        W17475  34.920  29.006  12.032
53532W        W17476  32.505   7.248   1.223
53533W        W17477  31.595  15.661  12.844
53534W        W17478  32.929   1.783   2.704
53535W        W17479   9.224  31.010  11.429
53536W        W17480  18.252  36.060   4.640
53537W        W17481  33.044  25.566   1.438
53538W        W17482  43.439  27.956  13.315
53539W        W17483   2.317  15.633   3.199
53540W        W17484  42.950  44.954  11.056
53541W        W17485   9.656  20.735  11.900
53542W        W17486   3.856  44.904  13.873
53543W        W17487   3.752  25.661  13.046
53544W        W17488  35.911  24.530   2.841
53545W        W17489  18.164   3.876   4.627
53546W        W17490   0.398  30.939  11.552
53547W        W17491  10.648  31.432   1.869
53548W        W17492   7.185  42.910  12.576
53549W        W17493  37.845  24.532  13.337
53550W        W17494   4.874  12.194  14.296
53551W        W17495   4.445  37.478   3.172
53552W        W17496  23.603  44.895  10.444
53553W        W17497  40.831  43.470   1.900
53554W        W17498   5.814  33.109  12.406
53555W        W17499   4.756   8.376   4.768
53556W        W17500   7.288  15.245  12.060
53557W        W17501  27.089  42.409   1.211
53558W        W17502   7.374  29.161   0.389
53559W        W17503  24.543  20.148  11.125
53560W        W17504  44.919  22.156  12.440
53561W        W17505  36.426  41.999   1.379
53562W        W17506  20.554  14.623   0.830
53563W        W17507  21.638  29.427  13.509
53564W        W17508  43.282  16.800   3.635
53565W        W17509  29.166  14.232  13.417
53566W        W17510   7.253   2.908   2.890
53567W        W17511  19.132  44.414   2.778
53568W        W17512  37.452  20.148  13.020
53569W        W17513  13.286  35.977   0.408
53570W        W17514  44.920  35.498   2.866
53571W        W17515  35.380  17.669  14.799
53572W        W17516   4.799  16.699   0.858
53573W        W17517  43.510  41.490  14.456
53574W        W17518   3.814  11.348  13.993
53575W        W17519   7.177  44.339  14.007
53576W        W17520  17.613  23.493  14.280
53577W        W17521  21.152  11.246  10.481
53578W        W17522  18.057  22.580   1.413
53579W        W17523  10.298  28.983   0.841
53580W        W17524   1.263  33.486  12.470
53581W        W17525  18.686   5.688  13.997
53582W        W17526  22.691   8.323  13.897
53583W        W17527  27.956  31.461   0.392
53584W        W17528  33.615  24.651  12.085
53585W        W17529  34.501  38.328  13.337
53586W        W17530  10.743  16.775  14.833
53587W        W17531  36.361  44.914  10.905
53588W        W17532  20.030  22.251   2.250
53589W        W17533  11.782  40.857   2.885
53590W        W17534  40.841  32.016  12.440
53591W        W17535  21.599  37.011  14.388
53592W        W17536  10.714  14.784   3.377
53593W        W17537  19.537  35.879  11.089
53594W        W17538  14.207   9.234   4.337
53595W        W17539   4.240   3.347  12.928
53596W        W17540  25.580  26.996  11.099
53597W        W17541   4.937  24.124  14.468
53598W        W17542  11.228  27.627   3.183
53599W        W17543  40.408  19.658  11.081
53600W        W17544   6.842  18.189   2.863
53601W        W17545  25.125  29.063   3.318
53602W        W17546  15.126  11.294  13.418
53603W        W17547   4.416  29.028   1.369
53604W        W17548  13.129  29.055   3.239
53605W        W17549  17.731  39.897  12.829
53606W        W17550  37.569  44.801  11.487
53607W        W17551  37.402  20.066   4.312
53608W        W17552  19.749  10.382  10.037
53609W        W17553  17.180  12.269   1.243
53610W        W17554  21.749   9.748  14.981
53611W        W17555  26.101   5.862   0.867
53612W        W17556  19.236   8.701  13.476
53613W        W17557  15.674   3.341   0.822
53614W        W17558   4.749   3.370   1.697
53615W        W17559  10.270  23.122   1.721
53616W        W17560  10.174  30.055  11.895
53617W        W17561  21.531  40.361   4.823
53618W        W17562  35.500  41.834   1.449
53619W        W17563  23.526  40.461  12.968
53620W        W17564  29.647  28.109   2.825
53621W        W17565  33.912  30.990   3.754
53622W        W17566  43.908  32.037   4.318
53623W        W17567   1.827  31.120  11.477
53624W        W17568  35.541   8.860  14.012
53625W        W17569  24.668  42.976   2.799
53626W        W17570  40.455  42.288  12.895
53627W        W17571  44.910  34.032   0.253
53628W        W17572  43.300  24.571  12.054
53629W        W17573  33.893  33.394  11.540
53630W        W17574  13.328  21.756  11.409
53631W        W17575  18.753   3.401  11.100
53632W        W17576  26.120  34.604   3.684
53633W        W17577   5.281  43.002  12.862
53634W        W17578   9.747   9.288   3.636
53635W        W17579   7.341  15.225  13.938
53636W        W17580  42.802  19.674   4.297
53637W        W17581  28.545  43.982  13.041
53638W        W17582   5.344  28.096  14.842
53639W        W17583  25.161  34.951  13.386
53640W        W17584   9.886  18.175   9.972
53641W        W17585  34.095   6.802   2.383
53642W        W17586  44.428  30.925   4.823
53643W        W17587  39.332  13.258  11.912
53644W        W17588  17.736   4.420  14.306
53645W        W17589   4.423  28.531  13.045
53646W        W17590   4.208   3.880   1.246
53647W        W17591   9.260   9.190   1.904
53648W        W17592  15.664  31.049   1.412
53649W        W17593  29.960  21.200  12.891
53650W        W17594  34.576  18.617   4.193
53651W        W17595  17.583  37.920  11.558
53652W        W17596  28.617  30.426   3.707
53653W        W17597  41.366  20.148   1.260
53654W        W17598  43.408  34.607   3.673
53655W        W17599  30.937  41.008  11.933
53656W        W17600   0.807   5.898   1.793
53657W        W17601  27.591  37.962   9.438
53658W        W17602   5.819  27.665   3.345
53659W        W17603  41.502   8.739   1.896
53660W        W17604  26.984  31.024  10.933
53661W        W17605  28.038   9.711  12.946
53662W        W17606   1.910  17.120  12.343
53663W        W17607  17.064  33.390   1.848
53664W        W17608  24.141  32.632  11.490
53665W        W17609  19.617  32.075  11.394
53666W        W17610  12.165  15.128   0.389
53667W        W17611  25.603   8.662   2.380
53668W        W17612  18.637  24.229   0.281
53669W        W17613  14.284   9.858  10.604
53670W        W17614  23.587  30.499   2.364
53671W        W17615   1.266  41.798   3.826
53672W        W17616   7.192  11.636   0.406
53673W        W17617  23.008  31.057   3.352
53674W        W17618  17.245  15.731   0.362
53675W        W17619  26.205   4.214  14.300
53676W        W17620   7.392   3.257   2.865
53677W        W17621  39.373  35.481   2.330
53678W        W17622   3.435  25.558   0.820
53679W        W17623  14.268  43.501  10.424
53680W        W17624  35.589  13.120  10.476
53681W        W17625  21.078  26.695  11.472
53682W        W17626  10.686  20.050  11.002
53683W        W17627  29.067  40.442  11.004
53684W        W17628  31.898  28.115   2.195
53685W        W17629  40.475  38.346  13.802
53686W        W17630  16.267  26.024   4.712
53687W        W17631   0.894   7.374   5.131
53688W        W17632   6.413  13.722  12.015
53689W        W17633  19.041  24.989   1.750
53690W        W17634  15.230  26.030   4.633
53691W        W17635  12.168  10.164  12.412
53692W        W17636  29.607  15.722   3.338
53693W        W17637   8.868  43.418   4.159
53694W        W17638   1.817  34.511   2.837
53695W        W17639  31.418  25.596  10.483
53696W        W17640  24.017  16.682  11.500
53697W        W17641  43.859  41.481   3.285
53698W        W17642  37.064  15.099   4.688
53699W        W17643  26.103  35.440  11.540
53700W        W17644  35.966  27.146   3.376
53701W        W17645  27.994  10.265   0.893
53702W        W17646  41.934  11.193  11.564
53703W        W17647  17.085  44.505  13.943
53704W        W17648  36.998  13.128  14.406
53705W        W17649  15.234  20.525   3.704
53706W        W17650  23.733   5.759   4.681
53707W        W17651   2.920  14.726  12.929
53708W        W17652  29.147  26.504   1.391
53709W        W17653  38.885  36.459   3.835
53710W        W17654  16.757  23.628   3.764
53711W        W17655  34.373  37.074   4.714
53712W        W17656  17.612  27.969   2.318
53713W        W17657  41.900  44.331  12.047
53714W        W17658   7.360  37.562  11.045
53715W        W17659  10.761  31.647  11.924
53716W        W17660  17.779  31.425  10.490
53717W        W17661   6.272   4.876  12.499
53718W        W17662   0.828  11.715   4.619
53719W        W17663  22.564   9.275  11.888
53720W        W17664  29.013  20.636  10.504
53721W        W17665  16.144  41.026  10.562
53722W        W17666  27.105   7.301   1.221
53723W        W17667  37.558  10.164  12.521
53724W        W17668  39.488   7.286   1.235
53725W        W17669   8.238   6.711  12.947
53726W        W17670  35.361  44.346   2.319
53727W        W17671  24.118   9.226   1.880
53728W        W17672  36.979  32.039   2.890
53729W        W17673  33.106  33.578   4.735
53730W        W17674  29.165  38.441  10.623
53731W        W17675  15.186   2.230  14.024
53732W        W17676  28.944   5.273  13.435
53733W        W17677  32.990  35.546   2.288
53734W        W17678   7.836  32.576  14.513
53735W        W17679  43.490  44.827  13.810
53736W        W17680  39.855  37.051   1.226
53737W        W17681  12.730  43.917   1.844
53738W        W17682  44.423  41.983  10.920
53739W        W17683  14.159   7.274  11.044
53740W        W17684  10.755  19.698   4.314
53741W        W17685  26.696  37.515  10.919
53742W        W17686  19.066  28.946  13.951
53743W        W17687  33.533   4.844  14.434
53744W        W17688  40.519  27.448  14.818
53745W        W17689  40.013  30.086  13.463
53746W        W17690  27.985   6.385   4.628
53747W        W17691   3.795  33.463   3.291
53748W        W17692  28.471  32.966  14.389
53749W        W17693  33.590   2.254  13.379
53750W        W17694  30.630   9.322   4.162
53751W        W17695  27.970  13.789   2.372
53752W        W17696  11.365  10.825   1.893
53753W        W17697  27.606   6.344   1.322
53754W        W17698  17.750  31.144   3.177
53755W        W17699  12.268  17.579  12.085
53756W        W17700   3.784   1.762   1.298
53757W        W17701   9.814  38.361  13.941
53758W        W17702   4.811   1.293   3.334
53759W        W17703   5.346  37.071   2.236
53760W        W17704   2.273  41.805   1.390
53761W        W17705   4.376  26.065   3.786
53762W        W17706  19.220   7.236   5.283
53763W        W17707  43.465  28.992   2.745
53764W        W17708  33.463  42.293   3.743
53765W        W17709   2.802  39.813  10.980
53766W        W17710  25.076   4.722  13.794
53767W        W17711  28.047  26.103  10.111
53768W        W17712   2.453  11.203   4.237
53769W        W17713   6.279  12.652  12.087
53770W        W17714   1.328  25.158   3.629
53771W        W17715  42.419  17.782  10.626
53772W        W17716  25.005  19.077   0.841
53773W        W17717   2.273  17.135  10.992
53774W        W17718  40.349  22.020   2.775
53775W        W17719  32.550  42.353  12.517
53776W        W17720  25.559  13.180  10.595
53777W        W17721  10.260  26.638   2.283
53778W        W17722  19.705  43.422  14.999
53779W        W17723  10.196  16.683   1.841
53780W        W17724   2.471  16.266   1.712
53781W        W17725  28.049  36.467   1.793
53782W        W17726  35.109   0.785   2.419
53783W        W17727  29.927  14.284  10.623
53784W        W17728  37.514   6.398  14.282
53785W        W17729   8.305  37.507  13.852
53786W        W17730  38.547  21.258  12.542
53787W        W17731  33.574   3.351   2.820
53788W        W17732   6.326   9.850  13.499
53789W        W17733  29.112   5.313   4.236
53790W        W17734  28.139  30.156   4.349
53791W        W17735  40.308  39.843   1.319
53792W        W17736  24.700  15.714  12.827
53793W        W17737   4.236   2.778   1.827
53794W        W17738  33.011  26.663  13.997
53795W        W17739  30.472  23.677   4.781
53796W        W17740   9.685  36.561  13.398
53797W        W17741  19.137  18.285  10.493
53798W        W17742  16.105  43.435  11.613
53799W        W17743  31.909  12.652   0.436
53800W        W17744  36.912  17.137  13.367
53801W        W17745  25.096  10.320  14.963
53802W        W17746  29.923   5.905  12.481
53803W        W17747  17.129  22.724   9.506
53804W        W17748   0.922  16.205   1.224
53805W        W17749   5.391  36.359  13.811
53806W        W17750  21.207   8.189   3.842
53807W        W17751   4.261  13.120   2.737
53808W        W17752  41.834  11.302   2.835
53809W        W17753  23.695  29.123   3.284
53810W        W17754  27.969  27.482  13.940
53811W        W17755  13.636  16.709  13.481
53812W        W17756  43.780  23.522   3.868
53813W        W17757  14.227  44.351  13.056
53814W        W17758  35.530  40.311   0.802
53815W        W17759  39.920  26.502  11.580
53816W        W17760  18.575  28.939  13.315
53817W        W17761  41.891  42.972  13.487
53818W        W17762  39.558  33.605  13.903
53819W        W17763  39.979   1.807   3.179
53820W        W17764  33.516  36.401  12.913
53821W        W17765  14.639  37.519  13.951
53822W        W17766  20.756  26.954  12.072
53823W        W17767  18.089  10.249   1.855
53824W        W17768  40.023  19.051   2.878
53825W        W17769   7.234  39.533  13.469
53826W        W17770  40.469   6.686   3.228
53827W        W17771  39.435  22.168   4.330
53828W        W17772  34.567  31.061   0.831
53829W        W17773  23.576  44.986  13.333
53830W        W17774   7.831  38.423   0.842
53831W        W17775  32.071  30.577  11.029
53832W        W17776  14.615  14.234   3.833
53833W        W17777  26.506  11.289  14.930
53834W        W17778  29.629   8.874  12.339
53835W        W17779   6.331  14.805  13.472
53836W        W17780  35.926  20.192   1.746
53837W        W17781  23.650  39.040   1.794
53838W        W17782  12.786   7.276   3.326
53839W        W17783   4.371  18.060   0.831
53840W        W17784  32.024  26.565  10.090
53841W        W17785  11.776   7.386   4.156
53842W        W17786  13.205  23.186   3.199
53843W        W17787  23.734   9.887   3.749
53844W        W17788  21.262  22.240   3.363
53845W        W17789   3.921  19.701   4.790
53846W        W17790  26.981  17.580   3.265
53847W        W17791  11.760  33.904  13.429
53848W        W17792  43.288  33.904   2.333
53849W        W17793  19.562   8.232   4.298
53850W        W17794  18.581  39.346  13.931
53851W        W17795   7.841  25.987   2.856
53852W        W17796  24.505  32.631  10.450
53853W        W17797  24.005  29.515  10.976
53854W        W17798  14.705   3.768   2.309
53855W        W17799   3.759  39.558  14.322
53856W        W17800  34.379  38.492  13.852
53857W        W17801  14.106   9.714  12.921
53858W        W17802  38.970  37.087  13.352
53859W        W17803  20.055  21.068   1.809
53860W        W17804  21.694   1.359   1.248
53861W        W17805  29.955  32.496  12.000
53862W        W17806   1.740  38.498   0.255
53863W        W17807  42.365  24.703   4.339
53864W        W17808  42.291  33.456   2.808
53865W        W17809   2.881  32.591  14.292
53866W        W17810  40.844  21.033  12.545
53867W        W17811  11.621  10.703   0.387
53868W        W17812  16.737  34.103  14.514
53869W        W17813   7.692  38.501  11.381
53870W        W17814   9.317  42.387   1.383
53871W        W17815  28.062  43.796  12.991
53872W        W17816  22.670  41.026  11.497
53873W        W17817  42.943  21.590   0.767
53874W        W17818   0.365  32.118  12.042
53875W        W17819   2.852  36.035   2.214
53876W        W17820  40.010  17.222  12.833
53877W        W17821  18.197  29.639   3.724
53878W        W17822  33.022  14.101   2.686
53879W        W17823  23.099  17.746  14.401
53880W        W17824  37.413  28.624  11.104
53881W        W17825   1.277  11.819  11.484
53882W        W17826   7.713  42.294  12.524
53883W        W17827  15.199   4.868  10.080
53884W        W17828  10.307   3.262  14.889
53885W        W17829   7.233  31.152  12.918
53886W        W17830  25.072  44.792   0.797
53887W        W17831  35.587  40.315   0.368
53888W        W17832  10.325  17.561  11.930
53889W        W17833   1.814   7.173   1.721
53890W        W17834  40.960  23.629  10.515
53891W        W17835  37.363  27.559  14.875
53892W        W17836  43.916  34.984  14.493
53893W        W17837  42.817  35.475  11.019
53894W        W17838  37.455  36.488   3.630
53895W        W17839  17.656  29.942  11.036
53896W        W17840  36.875  38.359   4.764
53897W        W17841  13.251   2.935   3.218
53898W        W17842  41.366  23.158  11.445
53899W        W17843  10.212  27.971   9.930
53900W        W17844  29.933  25.469  11.118
53901W        W17845  25.036  27.153   1.696
53902W        W17846  17.709   6.339  14.331
53903W        W17847  31.119  32.909   0.856
53904W        W17848  21.700  30.440  10.490
53905W        W17849  19.092  43.899  13.946
53906W        W17850  24.081  15.168   4.299
53907W        W17851  17.677  19.114  10.897
53908W        W17852  38.350   0.456   4.275
53909W        W17853  32.895   0.775  12.514
53910W        W17854  31.563  33.966  10.909
53911W        W17855  22.503   7.718  11.562
53912W        W17856  30.020  42.347   1.403
53913W        W17857  43.390  42.322   2.407
53914W        W17858  26.542  14.633   5.196
53915W        W17859  32.082  32.887  14.439
53916W        W17860   5.212   9.690   1.701
53917W        W17861   1.267  44.766   0.958
53918W        W17862  36.872  35.461  12.925
53919W        W17863  30.639  37.965  10.517
53920W        W17864  31.404   9.321  12.409
53921W        W17865  13.779  33.118  12.855
53922W        W17866  32.123  34.541   3.749
53923W        W17867  12.316  15.777  14.283
53924W        W17868  15.817   7.756   2.223
53925W        W17869  24.995   8.790   5.148
53926W        W17870  11.625  10.207   2.236
53927W        W17871  13.196  12.147   1.375
53928W        W17872  15.165  21.233   1.380
53929W        W17873  25.640  26.635   2.217
53930W        W17874  19.617  44.349  12.559
53931W        W17875  13.225  19.215  12.997
53932W        W17876  33.567  41.304   3.719
53933W        W17877  40.952  20.582   0.332
53934W        W17878  21.624  40.499   4.348
53935W        W17879   5.303  39.490  13.391
53936W        W17880   1.849  29.541   0.855
53937W        W17881  24.721   0.467   4.272
53938W        W17882  37.571  14.121   5.213
53939W        W17883   6.680  43.378   4.802
53940W        W17884  40.054  20.641   3.173
53941W        W17885   3.866  14.194   3.286
53942W        W17886  42.002  17.132   0.878
53943W        W17887  17.264  12.821   2.691
53944W        W17888  25.141  19.143  10.986
53945W        W17889  39.943  37.571  11.391
53946W        W17890   7.212  44.446   4.644
53947W        W17891   9.309  39.969   1.251
53948W        W17892   5.692  26.087   0.417
53949W        W17893  25.101  37.835   3.320
53950W        W17894   4.352  36.873  10.513
53951W        W17895  28.648  26.126  14.023
53952W        W17896  41.857  34.872   1.880
53953W        W17897  15.776  29.642  11.378
53954W        W17898   7.401  26.686  11.409
53955W        W17899  32.941  17.238   3.274
53956W        W17900  11.244  31.090   4.318
53957W        W17901  29.432   5.231  12.839
53958W        W17902  16.282  29.079  13.885
53959W        W17903  23.071  34.499  13.978
53960W        W17904  34.090  23.239  10.907
53961W        W17905   9.660  16.599   1.262
53962W        W17906  15.680   4.388  14.365
53963W        W17907  32.439  17.145   1.238
53964W        W17908   3.351  14.711  10.618
53965W        W17909   6.900   2.342   2.784
53966W        W17910  20.038  20.186   3.658
53967W        W17911  24.648  16.607  13.027
53968W        W17912  41.320   6.800  12.052
53969W        W17913  15.153  12.786  12.455
53970W        W17914  33.512   8.307  10.412
53971W        W17915  34.389   2.411  11.389
53972W        W17916   4.434  40.360   1.327
53973W        W17917  44.841   1.919  13.812
53974W        W17918  36.567  19.183   4.317
53975W        W17919  34.431   6.773  13.978
53976W        W17920  13.135  43.490  10.429
53977W        W17921  10.767  11.816   3.747
53978W        W17922  14.801  22.121  13.919
53979W        W17923  17.737  42.776   3.148
53980W        W17924  32.938  36.531  12.863
53981W        W17925  34.103  22.590  13.036
53982W        W17926  18.228  29.462  10.937
53983W        W17927  26.209  17.300  10.943
53984W        W17928  16.135  23.637  12.440
53985W        W17929  25.217   7.823  11.570
53986W        W17930  12.726   1.314   0.385
53987W        W17931   6.806  25.517   1.318
53988W        W17932  29.544   6.418  11.379
53989W        W17933  40.829  30.463  10.636
53990W        W17934  12.202   0.424   0.422
53991W        W17935  37.017   4.353  11.539
53992W        W17936  10.752  36.367   3.789
53993W        W17937  21.742  39.039   0.297
53994W        W17938  39.451  28.565  10.616
53995W        W17939   2.386   0.933  14.310
53996W        W17940  10.827  37.340   0.733
53997W        W17941  17.101  33.976   2.808
53998W        W17942  22.538   3.923   3.633
53999W        W17943   6.745  29.973  10.595
54000W        W17944  10.832  16.265   2.861
54001W        W17945  34.493  14.327  11.530
54002W        W17946  40.407  35.376  11.484
54003W        W17947  17.115  40.822   1.428
54004W        W17948  31.127  24.129   2.782
54005W        W17949  32.617  42.902  11.533
54006W        W17950  41.883  27.964  13.311
54007W        W17951  23.212  22.234  12.875
54008W        W17952  23.041   8.710  13.426
54009W        W17953  20.237  30.156  11.930
54010W        W17954  19.066   0.762   0.316
54011W        W17955   3.312   3.296  14.830
54012W        W17956  44.919  18.652   2.215
54013W        W17957   7.218  42.507   1.259
54014W        W17958  39.003  28.031   0.436
54015W        W17959   7.293  14.759   5.203
54016W        W17960  21.205  37.553  11.482
54017W        W17961   2.962  30.985   1.245
54018W        W17962  35.471   2.774  14.009
54019W        W17963  26.180  41.043   2.262
54020W        W17964   9.847  26.701   2.864
54021W        W17965   7.819  25.018  13.466
54022W        W17966  26.064  40.536  14.812
54023W        W17967  12.652  20.251  11.974
54024W        W17968  34.019  10.305   4.253
54025W        W17969  42.352  29.449  14.881
54026W        W17970  23.067   6.276  14.005
54027W        W17971  10.267  22.163   3.675
54028W        W17972   3.838  20.543  12.508
54029W        W17973   5.351   7.830  14.460
54030W        W17974  24.052   8.833   5.210
54031W        W17975  27.105  22.726   2.707
54032W        W17976   5.340  17.711   4.733
54033W        W17977   9.390  37.841  14.774
54034W        W17978  20.762  34.424  12.571
54035W        W17979  23.057  37.856   3.843
54036W        W17980  37.393  30.030   3.236
54037W        W17981   3.402   8.207  14.869
54038W        W17982  34.456  29.105  12.926
54039W        W17983  22.548  37.356   0.951
54040W        W17984  23.984  30.443  14.395
54041W        W17985  42.802  38.373   2.288
54042W        W17986   8.798  22.718  13.791
54043W        W17987  32.137  30.561   0.313
54044W        W17988  18.236  40.470  12.340
54045W        W17989   2.845  13.322  13.371
54046W        W17990  21.035  26.515   4.183
54047W        W17991  25.034  43.959  12.847
54048W        W17992  27.167  11.655   3.703
54049W        W17993   6.728  16.797  13.833
54050W        W17994  24.489  10.635  13.845
54051W        W17995  28.066  23.099   2.262
54052W        W17996  14.189   4.788  12.849
54053W        W17997  41.829  42.003   2.776
54054W        W17998  27.159  24.036  11.112
54055W        W17999  26.460   8.716  12.433
54056W        W18000   5.919  12.154  11.374
54057W        W18001  38.564   9.842   0.955
54058W        W18002   2.264  29.554   1.812
54059W        W18003  22.650  21.043  12.555
54060W        W18004  40.852  19.758   0.407
54061W        W18005  11.188   9.816   3.245
54062W        W18006   3.449  43.449  10.431
54063W        W18007  18.729  24.106  13.345
54064W        W18008  23.037   7.864  14.939
54065W        W18009  35.459   3.316  13.406
54066W        W18010   5.336  13.729   2.876
54067W        W18011  28.534  17.279  11.374
54068W        W18012   0.762  32.885   2.899
54069W        W18013   5.732   0.838  13.829
54070W        W18014   0.884  43.971   2.838
54071W        W18015  37.413  21.093   4.717
54072W        W18016  16.710   5.286   4.123
54073W        W18017  25.573  39.484   4.782
54074W        W18018   4.410  12.857  11.939
54075W        W18019  23.207  33.066  11.464
54076W        W18020   6.781  16.709   1.248
54077W        W18021   4.732  24.023   2.828
54078W        W18022  19.730   3.870   4.820
54079W        W18023  15.622  13.816  13.843
54080W        W18024  34.120   4.886   0.434
54081W        W18025  20.222  37.908   3.796
54082W        W18026  34.541   5.201   3.778
54083W        W18027  29.457   3.367   1.824
54084W        W18028  21.054  35.429  14.815
54085W        W18029   6.746  28.979   1.323
54086W        W18030  29.628  14.202  14.905
54087W        W18031  23.164   6.410  12.545
54088W        W18032  26.991  11.780  13.374
54089W        W18033  22.032   1.856  11.058
54090W        W18034  41.431  24.716   1.841
54091W        W18035  43.839  32.084   2.722
54092W        W18036  42.990  43.883   1.734
54093W        W18037  30.022  25.137  12.894
54094W        W18038  21.170  30.529  11.402
54095W        W18039  19.207  22.614  11.890
54096W        W18040  15.823  22.680  11.860
54097W        W18041  43.783  27.151   3.269
54098W        W18042  43.965  37.844  10.524
54099W        W18043   2.227   9.363  14.278
54100W        W18044  44.866  30.954   0.929
54101W        W18045  18.253  20.064  14.899
54102W        W18046  21.732  20.549   3.850
54103W        W18047  42.841  20.245   3.737
54104W        W18048  44.998   6.335  14.811
54105W        W18049  32.126  20.054   0.297
54106W        W18050  11.260  37.052  12.998
54107W        W18051  34.454  38.917   4.131
54108W        W18052   2.427  19.731   5.184
54109W        W18053  35.447  34.520   1.817
54110W        W18054  15.814  19.121   4.190
54111W        W18055  39.501  22.701  12.941
54112W        W18056  31.005  14.313   4.815
54113W        W18057  18.791   1.861  13.540
54114W        W18058  25.663   7.202  11.549
54115W        W18059  37.885   1.841  14.022
54116W        W18060  32.034  10.315   4.285
54117W        W18061   7.893   2.839   2.825
54118W        W18062  28.533  14.246  12.421
54119W        W18063  27.620  42.867   4.712
54120W        W18064   4.222  36.429  14.980
54121W        W18065  23.545  20.184   2.744
54122W        W18066  16.781  41.951   4.294
54123W        W18067  20.247   8.858   0.323
54124W        W18068  23.133   0.910   4.117
54125W        W18069  32.559  42.024   3.218
54126W        W18070  16.757   8.890  13.965
54127W        W18071  29.527   6.414   3.259
54128W        W18072  32.449  12.203   1.763
54129W        W18073  36.421  34.391   1.324
54130W        W18074  14.161   4.762   0.254
54131W        W18075  43.470  43.893  12.509
54132W        W18076  22.163  29.923  14.821
54133W        W18077   8.830  23.736   3.796
54134W        W18078  10.337  41.025   4.175
54135W        W18079  42.955  16.092   1.851
54136W        W18080  33.918  44.448   2.411
54137W        W18081  10.367   4.424   2.224
54138W        W18082  31.590  19.149   2.881
54139W        W18083   2.410   7.686  14.993
54140W        W18084  18.599   3.408   2.305
54141W        W18085   9.289   2.721  12.373
54142W        W18086  42.292   0.393  11.506
54143W        W18087  23.089   2.867   1.433
54144W        W18088  18.133  20.171   4.271
54145W        W18089  23.724   2.358   0.781
54146W        W18090  26.092  43.468  11.378
54147W        W18091  28.074   3.745  10.622
54148W        W18092  36.078   7.671  12.090
54149W        W18093   6.827  32.471  12.896
54150W        W18094  11.694  14.183   0.411
54151W        W18095   6.213  12.197  12.093
54152W        W18096  16.101  12.176   2.394
54153W        W18097  43.423  20.052  10.889
54154W        W18098  14.163  19.604  14.812
54155W        W18099  16.141  25.657  10.492
54156W        W18100  36.389   3.280   3.377
54157W        W18101  21.569  40.531   3.868
54158W        W18102  35.913  39.523  12.488
54159W        W18103  34.104  41.850  13.920
54160W        W18104   4.707  15.798   1.341
54161W        W18105  38.435   4.266  12.515
54162W        W18106  26.523  19.127   2.276
54163W        W18107   4.932  15.592  12.367
54164W        W18108  22.673  43.386   3.815
54165W        W18109  30.989  35.495  12.551
54166W        W18110  20.639  16.295  10.553
54167W        W18111   3.798  36.394   0.394
54168W        W18112  16.251  17.692  11.377
54169W        W18113  24.621  25.707  14.796
54170W        W18114  29.465   0.424  14.980
54171W        W18115  42.451  42.801  11.486
54172W        W18116   3.244  33.035  13.934
54173W        W18117  40.930  37.033  13.499
54174W        W18118  34.916  32.408   0.348
54175W        W18119  22.235  17.783  12.969
54176W        W18120  25.189   6.226  13.904
54177W        W18121  32.031   8.268   3.214
54178W        W18122  31.486  24.521  11.052
54179W        W18123  24.706   3.244  13.410
54180W        W18124  36.461  25.652  13.531
54181W        W18125  36.463  14.167   2.762
54182W        W18126   0.448  24.145  11.125
54183W        W18127  40.546   8.896   5.293
54184W        W18128   3.949  39.988  12.543
54185W        W18129   7.909  17.773   4.249
54186W        W18130  43.992  36.085   3.243
54187W        W18131  39.377  31.911  11.561
54188W        W18132  26.518  10.728  14.384
54189W        W18133  42.791  14.677  11.079
54190W        W18134   2.919   7.847   2.383
54191W        W18135  29.656  28.141   3.841
54192W        W18136  38.438  24.203  12.571
54193W        W18137  35.372  30.913   0.883
54194W        W18138   2.722  10.346  14.503
54195W        W18139  25.060  28.052  11.424
54196W        W18140  32.629  19.639   2.356
54197W        W18141  30.445  15.292   1.703
54198W        W18142  34.539  29.649  14.911
54199W        W18143  37.568  30.070   3.718
54200W        W18144   2.926  35.890   1.917
54201W        W18145  13.190   8.394   3.768
54202W        W18146   2.946   8.161   3.213
54203W        W18147  29.026  16.639   2.242
54204W        W18148  29.477  14.268  13.489
54205W        W18149  42.489  12.221   1.276
54206W        W18150   6.396   1.749  10.096
54207W        W18151  42.308  16.646   0.373
54208W        W18152  44.914   9.699  11.010
54209W        W18153   7.372  36.074   1.280
54210W        W18154  39.483  27.646   3.701
54211W        W18155  26.166  14.327   3.738
54212W        W18156  42.960  39.968   3.644
54213W        W18157  31.956  38.025  12.424
54214W        W18158   8.364  13.319  10.964
54215W        W18159  15.171  26.634  13.481
54216W        W18160  22.013  44.901   3.163
54217W        W18161  19.672   4.375  12.364
54218W        W18162   8.679  22.077  11.968
54219W        W18163  14.290  33.389   2.302
54220W        W18164   0.437   7.813   0.395
54221W        W18165  30.012  35.433   3.839
54222W        W18166  36.408   7.309   2.726
54223W        W18167   8.874  24.673  13.419
54224W        W18168  43.848  17.613   4.193
54225W        W18169  21.541  34.033   3.863
54226W        W18170  27.046  31.080  12.968
54227W        W18171  40.336  16.252  13.024
54228W        W18172  11.730   4.853  10.146
54229W        W18173  37.836   3.736   0.468
54230W        W18174   6.198  19.602   5.311
54231W        W18175  17.066   9.663  10.072
54232W        W18176  17.557  11.694   3.722
54233W        W18177   2.405  23.574   1.806
54234W        W18178   5.877  22.648   2.824
54235W        W18179   0.307  29.496   1.720
54236W        W18180   1.949  24.175  11.526
54237W        W18181   9.854  29.502  11.025
54238W        W18182  17.261  13.803   4.167
54239W        W18183  30.624  39.044  11.084
54240W        W18184  40.873   6.913   3.227
54241W        W18185  37.566  12.648   4.653
54242W        W18186   8.741   5.744   4.217
54243W        W18187  11.800   0.452   3.256
54244W        W18188  43.828  31.969  12.349
54245W        W18189  20.185   6.820   0.831
54246W        W18190  36.079  21.166  11.387
54247W        W18191  12.628  43.374   2.404
54248W        W18192  41.945  33.473  12.503
54249W        W18193  32.394   7.282  13.435
54250W        W18194  42.846  39.036  11.448
54251W        W18195  44.409   8.741  11.089
54252W        W18196  33.874  10.834   1.821
54253W        W18197  27.040   8.769  12.852
54254W        W18198  30.542  42.928  12.390
54255W        W18199  36.380   7.399  10.075
54256W        W18200   3.947   2.779   4.274
54257W        W18201  19.594  24.063  14.968
54258W        W18202   5.257  31.556  13.307
54259W        W18203   6.222  23.199   2.683
54260W        W18204  30.437  34.925  12.513
54261W        W18205  23.715  24.551  11.986
54262W        W18206   7.331  38.046  14.361
54263W        W18207  39.548  30.507  12.458
54264W        W18208  26.196  43.317   2.317
54265W        W18209  34.987  23.593  14.292
54266W        W18210  12.308  24.093  13.894
54267W        W18211  10.838  28.967   0.800
54268W        W18212  11.815  43.465   4.249
54269W        W18213  10.773   7.678   1.338
54270W        W18214  42.902  26.071   1.281
54271W        W18215  16.634  31.476  14.916
54272W        W18216  43.383  20.576  10.416
54273W        W18217  25.625  28.974  14.810
54274W        W18218  23.555   4.780   4.598
54275W        W18219   0.373  17.166  11.127
54276W        W18220  30.141  37.852  14.809
54277W        W18221  29.032  23.143  11.919
54278W        W18222  23.654  25.095   1.276
54279W        W18223  25.158  39.318  12.968
54280W        W18224   2.468  33.544   1.297
54281W        W18225  40.428  28.008   4.633
54282W        W18226  14.251  43.766   0.757
54283W        W18227   4.804  23.522   3.637
54284W        W18228  39.037   3.820   3.784
54285W        W18229  38.361  15.671   2.733
54286W        W18230  24.696  43.887   2.675
54287W        W18231  20.660  33.969   0.277
54288W        W18232  25.055  18.112   0.774
54289W        W18233  30.019  10.724  11.437
54290W        W18234  35.577   8.313  12.025
54291W        W18235  10.154   9.847  11.129
54292W        W18236  28.574   8.201  11.916
54293W        W18237  28.548  36.028  13.496
54294W        W18238   8.687  32.053  11.001
54295W        W18239  14.291  32.557   0.901
54296W        W18240  42.841  22.050  12.059
54297W        W18241   0.335   6.398   1.211
54298W        W18242  14.598   5.250   1.778
54299W        W18243  31.048  13.160  12.834
54300W        W18244  16.638   1.951  14.465
54301W        W18245  39.926  22.595   3.383
54302W        W18246   3.903  13.290  14.371
54303W        W18247  24.131  42.343  11.984
54304W        W18248  23.022   3.239  14.282
54305W        W18249  44.915  20.050   4.724
54306W        W18250  38.008  12.771  12.847
54307W        W18251  32.122   8.232  12.011
54308W        W18252   8.695  44.984   4.178
54309W        W18253   1.293   6.868  13.373
54310W        W18254  14.625  13.728  14.876
54311W        W18255  29.454  33.486   1.213
54312W        W18256  44.285   0.392  12.408
54313W        W18257  22.533  22.092   3.757
54314W        W18258  31.606  23.647  11.082
54315W        W18259   8.337  21.530  14.471
54316W        W18260  33.432  35.479   4.837
54317W        W18261   4.228  20.132  12.854
54318W        W18262  23.728  28.130   0.251
54319W        W18263  17.611  23.571  11.373
54320W        W18264  18.127   9.239  14.297
54321W        W18265  30.154  14.725  14.371
54322W        W18266   3.362  30.134   0.912
54323W        W18267  14.307  19.093   3.345
54324W        W18268  38.028  34.867  14.365
54325W        W18269  11.146  24.666  14.337
54326W        W18270  25.142  31.476   0.793
54327W        W18271  33.550  11.823   5.143
54328W        W18272   0.452  37.492  13.361
54329W        W18273  27.677  41.870  13.472
54330W        W18274  19.618  22.115  13.804
54331W        W18275  26.204  23.629   0.916
54332W        W18276   3.383  18.558  10.610
54333W        W18277   0.836  30.988  10.957
54334W        W18278  39.815   8.385   0.743
54335W        W18279  11.717  17.234  11.045
54336W        W18280  25.184  29.950  14.027
54337W        W18281   0.287  39.360   1.830
54338W        W18282  43.462   1.866   0.275
54339W        W18283  13.803  18.619   2.711
54340W        W18284   4.250  19.147   2.408
54341W        W18285  15.196   4.820  14.001
54342W        W18286  31.081  41.928  14.910
54343W        W18287   9.840  28.032  12.917
54344W        W18288  10.684  23.073   3.221
54345W        W18289   2.404  35.978  13.947
54346W        W18290  28.680  34.430  12.027
54347W        W18291  38.415  37.527   3.695
54348W        W18292  23.225  36.937   4.648
54349W        W18293  36.939   4.308   0.308
54350W        W18294  28.159   0.763  14.484
54351W        W18295  43.774  36.569   0.380
54352W        W18296  27.551  11.288  10.987
54353W        W18297  13.733  15.176  11.442
54354W        W18298  34.592  13.172   1.725
54355W        W18299  22.504   1.750   4.188
54356W        W18300  33.041  44.957  12.983
54357W        W18301  19.274  19.214  12.478
54358W        W18302   6.746  23.704   3.852
54359W        W18303   4.358  43.330  13.526
54360W        W18304   9.883  23.121   2.221
54361W        W18305  21.235  28.506   2.286
54362W        W18306  12.792  15.105   1.358
54363W        W18307  44.476  11.259  12.349
54364W        W18308  17.756   5.248  10.123
54365W        W18309  35.096  44.271   0.319
54366W        W18310   1.251  35.486   0.755
54367W        W18311  34.439  15.692  12.901
54368W        W18312  19.659  14.203   0.255
54369W        W18313  17.592  10.816  13.479
54370W        W18314  38.037  20.613  13.941
54371W        W18315   5.427  37.525   9.999
54372W        W18316  12.722  27.120  14.910
54373W        W18317  26.106  32.016   1.778
54374W        W18318   5.433  19.096  14.007
54375W        W18319  36.481  36.371  12.997
54376W        W18320   6.231  43.458  14.833
54377W        W18321  32.948  21.213  14.934
54378W        W18322  42.828  28.131  14.343
54379W        W18323  39.425  18.672   0.379
54380W        W18324   7.700  14.214   2.237
54381W        W18325   8.752  32.932  12.855
54382W        W18326  27.177  27.504  12.840
54383W        W18327  26.013  12.718   3.716
54384W        W18328   7.378   8.334  12.952
54385W        W18329  43.877  10.668  10.544
54386W        W18330   2.289  44.297   0.457
54387W        W18331  18.252   6.400  13.932
54388W        W18332  24.044  34.052  14.029
54389W        W18333  29.104  28.133   1.226
54390W        W18334  29.142  22.726  14.978
54391W        W18335  30.546  32.536  12.491
54392W        W18336   7.267   5.799  11.087
54393W        W18337  19.563  18.696  12.056
54394W        W18338  38.964  42.969  13.505
54395W        W18339  18.578  27.573   2.200
54396W        W18340  44.385  24.050   3.652
54397W        W18341  37.389  29.486   0.472
54398W        W18342  44.447  13.746  12.459
54399W        W18343  10.341  43.511  11.111
54400W        W18344  27.969  30.137  13.914
54401W        W18345   2.393   2.799   1.393
54402W        W18346   3.374  38.823   2.231
54403W        W18347  23.534  26.630  11.884
54404W        W18348   5.896  23.622   2.342
54405W        W18349  23.727  25.050   2.327
54406W        W18350  32.960  31.984   4.737
54407W        W18351  41.813  34.985   2.218
54408W        W18352  29.947   7.397   0.416
54409W        W18353  21.694  40.964  13.974
54410W        W18354  22.081  10.690  13.344
54411W        W18355   6.850  21.086   3.268
54412W        W18356   7.810  22.616  10.114
54413W        W18357  33.007  24.019  13.522
54414W        W18358  37.057  15.186   2.222
54415W        W18359   1.378  44.972  11.467
54416W        W18360  26.627  39.063   1.696
54417W        W18361  33.930  13.222  10.575
54418W        W18362   9.843  33.621   3.356
54419W        W18363   9.182  18.151   5.134
54420W        W18364  29.651  13.341  13.382
54421W        W18365  27.125   7.809   3.740
54422W        W18366  41.827  10.339  14.829
54423W        W18367  32.515  39.985  14.891
54424W        W18368  34.605   6.302  14.401
54425W        W18369  12.665  11.249  14.489
54426W        W18370  22.125  21.147  14.789
54427W        W18371   4.745  43.330   4.211
54428W        W18372  26.997  34.022   2.668
54429W        W18373  27.940  36.443  12.504
54430W        W18374  43.766  37.519  13.050
54431W        W18375  27.542  24.631  14.398
54432W        W18376  41.536  27.690  11.611
54433W        W18377  17.584  33.960  10.446
54434W        W18378  40.828   6.329   2.710
54435W        W18379   9.694  22.085   0.926
54436W        W18380   8.723  11.762  12.357
54437W        W18381   5.734   8.816  11.867
54438W        W18382   2.782   2.867  10.565
54439W        W18383  38.525  10.764  13.006
54440W        W18384  11.299  28.988   2.701
54441W        W18385  22.656  39.885  12.496
54442W        W18386  10.320   5.292  12.499
54443W        W18387  24.171  14.810  11.112
54444W        W18388  24.224  18.093   3.858
54445W        W18389  13.195  19.093  12.577
54446W        W18390   8.397  37.453  14.474
54447W        W18391  29.584  29.666   1.237
54448W        W18392   4.435   7.865   4.693
54449W        W18393  35.064  17.182  12.081
54450W        W18394  36.096   3.322  13.415
54451W        W18395   5.295  25.024   5.204
54452W        W18396   5.795  28.552   4.806
54453W        W18397   4.301  36.483  13.868
54454W        W18398  22.195  36.897   3.636
54455W        W18399  28.631  41.471  10.558
54456W        W18400  12.128  40.384  13.480
54457W        W18401  37.023   2.282   1.861
54458W        W18402  34.072  15.609  10.956
54459W        W18403  26.602  13.282   1.928
54460W        W18404  35.449   2.318  13.334
54461W        W18405  33.099  10.818   4.129
54462W        W18406   6.378  18.562  11.059
54463W        W18407  37.020  24.192   3.684
54464W        W18408  14.297  35.544   2.280
54465W        W18409  35.097  38.990  10.019
54466W        W18410  41.485  10.204  14.964
54467W        W18411  35.889   8.881   4.674
54468W        W18412  30.162   8.772   1.399
54469W        W18413   6.810  33.495   2.849
54470W        W18414  29.438  13.838   0.918
54471W        W18415   4.789  26.205  14.938
54472W        W18416   8.276   2.806   2.716
54473W        W18417   8.858  13.326   3.346
54474W        W18418  37.010  12.705  11.068
54475W        W18419  20.134  36.392  12.935
54476W        W18420   4.244   7.315   2.854
54477W        W18421  24.157   6.245   3.750
54478W        W18422  44.909   0.271   1.386
54479W        W18423  27.128  20.568   0.898
54480W        W18424  19.534  10.277   0.921
54481W        W18425  35.594  12.856   0.817
54482W        W18426  33.898  27.534  13.010
54483W        W18427   6.757  31.627  14.303
54484W        W18428  43.863   3.287   1.723
54485W        W18429  11.141   4.910  10.927
54486W        W18430  25.617  23.045  10.594
54487W        W18431  30.471  43.516  13.914
54488W        W18432  24.142  43.393  12.864
54489W        W18433  42.452  15.243  11.971
54490W        W18434  15.321   8.658   5.134
54491W        W18435  14.207  10.634   0.398
54492W        W18436   7.387   1.284  11.988
54493W        W18437   7.812  33.550   4.294
54494W        W18438  22.509  40.341  11.040
54495W        W18439  13.755  36.969   4.615
54496W        W18440   7.293  44.931   0.446
54497W        W18441  19.044  41.992   0.750
54498W        W18442  37.057  21.199  11.993
54499W        W18443  42.915  24.605   3.204
54500W        W18444   6.786  42.850   1.317
54501W        W18445  19.171  24.567   4.819
54502W        W18446  29.665  17.303  10.894
54503W        W18447  42.475  33.035  12.374
54504W        W18448  39.891  41.506  14.938
54505W        W18449  27.014  34.386  11.569
54506W        W18450  31.137  30.544   3.255
54507W        W18451  32.976   8.670   3.856
54508W        W18452  25.134  42.952  12.560
54509W        W18453  14.143  22.526  14.421
54510W        W18454  26.050  34.104  13.489
54511W        W18455  39.546  17.099  11.077
54512W        W18456  23.542  13.741   0.832
54513W        W18457  36.538  11.371   0.959
54514W        W18458   8.741  28.516  12.925
54515W        W18459  25.046  25.153   4.627
54516W        W18460  24.088  37.998  11.478
54517W        W18461  39.403  38.551   4.624
54518W        W18462   0.404  18.262  12.559
54519W        W18463  29.582   9.813   2.789
54520W        W18464  31.990  41.390   4.753
54521W        W18465  15.107   9.275   1.742
54522W        W18466  13.179   5.208  14.329
54523W        W18467  16.186   0.264   1.362
54524W        W18468  44.803  27.013  14.814
54525W        W18469  35.861  14.306  12.461
54526W        W18470  13.752  12.319  12.095
54527W        W18471   3.318  24.692  10.971
54528W        W18472  24.579  25.639   1.710
54529W        W18473   2.830  17.680  12.951
54530W        W18474  15.112  20.767  12.876
54531W        W18475   7.309  28.121   3.856
54532W        W18476  33.103  23.529  14.818
54533W        W18477  12.737  25.127   3.279
54534W        W18478  30.600  29.481   3.200
54535W        W18479  44.500   3.714  11.857
54536W        W18480  23.192   0.826   3.218
54537W        W18481  20.115  44.279   1.439
54538W        W18482  17.643  18.708  12.457
54539W        W18483  11.312  16.670   5.576
54540W        W18484  38.032  32.128   3.380
54541W        W18485  33.891  32.616  12.916
54542W        W18486  40.320  42.967  11.437
54543W        W18487  32.588  19.555   0.470
54544W        W18488  25.135  27.506   2.288
54545W        W18489  12.777  43.910  14.397
54546W        W18490  22.728  31.614  11.474
54547W        W18491   8.895   1.264   2.866
54548W        W18492  12.707  44.388   3.641
54549W        W18493  38.060  32.989   4.673
54550W        W18494  44.958  41.881  14.939
54551W        W18495  12.129  21.083   4.705
54552W        W18496   1.899   1.459  14.355
54553W        W18497   5.420  21.072  13.323
54554W        W18498   6.679  26.121  12.407
54555W        W18499   5.765  28.505  14.863
54556W        W18500  28.540  33.087   0.806
54557W        W18501   8.218  21.052  11.102
54558W        W18502  22.684  18.589  10.601
54559W        W18503   6.243  30.455   5.120
54560W        W18504  37.381  14.102  14.385
54561W        W18505  35.874  37.367  11.958
54562W        W18506  18.222   0.316  10.986
54563W        W18507  11.215  27.004  12.480
54564W        W18508  41.977   6.689   2.223
54565W        W18509   3.405   2.786  13.921
54566W        W18510   8.814   8.748  10.535
54567W        W18511  35.366   6.889  13.349
54568W        W18512  13.740  37.001   1.898
54569W        W18513  25.617  28.945   2.785
54570W        W18514  41.457  16.216   1.394
54571W        W18515  17.161  41.482  11.962
54572W        W18516   1.362   3.849   1.371
54573W        W18517  35.089   8.858   3.302
54574W        W18518  13.210  43.952   0.295
54575W        W18519  41.886  36.948  13.366
54576W        W18520   0.335  14.832  12.051
54577W        W18521  41.932  11.199  10.517
54578W        W18522  38.935  23.038   1.277
54579W        W18523  36.419  33.540   5.253
54580W        W18524  30.611   5.729   2.393
54581W        W18525   3.775  37.454  13.975
54582W        W18526  10.378   2.327  10.957
54583W        W18527  11.237  21.556   2.762
54584W        W18528  17.219  38.868  13.034
54585W        W18529  39.005  39.924   0.854
54586W        W18530  11.363   2.291   1.337
54587W        W18531  10.827  27.120  12.376
54588W        W18532  19.068   3.428  11.865
54589W        W18533  21.073   8.891   4.193
54590W        W18534  11.154  24.706   4.733
54591W        W18535  40.411  17.165   0.287
54592W        W18536   7.379   6.321  13.830
54593W        W18537   4.265  19.627  10.509
54594W        W18538  16.568  28.675  14.457
54595W        W18539  24.640  31.429  11.385
54596W        W18540  16.712  24.210   0.308
54597W        W18541  21.735  10.739  14.006
54598W        W18542  35.374  15.622   2.291
54599W        W18543  40.530  28.022  14.833
54600W        W18544   4.298  21.056  12.501
54601W        W18545  38.518   1.958   2.304
54602W        W18546  11.837  26.474   0.898
54603W        W18547  32.419  13.632  14.319
54604W        W18548  13.609   9.799   4.606
54605W        W18549  28.083   3.323   3.695
54606W        W18550  21.114   2.939  13.854
54607W        W18551  32.052  42.810   5.281
54608W        W18552  34.489  31.427  11.958
54609W        W18553  30.052  22.686  14.352
54610W        W18554   2.396  21.741  13.941
54611W        W18555   1.735  31.903  11.954
54612W        W18556  26.595   7.249   3.686
54613W        W18557  10.232  43.002  14.899
54614W        W18558  12.639  12.132   1.342
54615W        W18559  27.003  35.595  12.559
54616W        W18560  27.157   0.367   0.437
54617W        W18561  34.422  12.326  13.949
54618W        W18562  21.592  44.798   4.139
54619W        W18563   9.326   7.897  13.453
54620W        W18564  20.605  30.029   0.273
54621W        W18565  25.180   1.295  11.449
54622W        W18566  25.058   8.333   4.829
54623W        W18567  38.498  26.186  11.926
54624W        W18568  17.137  40.450  14.922
54625W        W18569  14.663  42.402   2.341
54626W        W18570  17.650   2.333   2.889
54627W        W18571  24.567  34.039  13.961
54628W        W18572  14.724  14.160   0.317
54629W        W18573  20.736  24.614  10.439
54630W        W18574  44.422  22.528   0.943
54631W        W18575  11.142  42.875  11.991
54632W        W18576  11.189  41.008  14.839
54633W        W18577   6.706  10.160   0.823
54634W        W18578  12.638  29.589  12.856
54635W        W18579  37.566  16.709  12.443
54636W        W18580  38.884  31.403  14.868
54637W        W18581  27.075  25.670  11.518
54638W        W18582  41.503  28.478  12.411
54639W        W18583  36.972   1.924   1.812
54640W        W18584  24.521   2.273  11.462
54641W        W18585  40.862  43.395  12.076
54642W        W18586   3.857   6.883  12.088
54643W        W18587   7.740  37.421  12.847
54644W        W18588   3.926   4.255   2.337
54645W        W18589   6.688  31.030  11.396
54646W        W18590  15.259  27.165  12.528
54647W        W18591  36.388  42.475  12.546
54648W        W18592  28.073   2.280   1.300
54649W        W18593   5.912  12.360  13.000
54650W        W18594  30.457  38.445   9.499
54651W        W18595  38.942   6.422   3.666
54652W        W18596  35.501  44.866   4.837
54653W        W18597  42.347  36.094  11.058
54654W        W18598  35.436  39.355  11.515
54655W        W18599  17.169   0.302  12.976
54656W        W18600  10.826  26.174   2.848
54657W        W18601  31.639  36.549   3.371
54658W        W18602  10.165  32.956   3.152
54659W        W18603  44.303  21.598  11.410
54660W        W18604  39.520  12.612  10.915
54661W        W18605  32.453  32.031   1.807
54662W        W18606  35.019  29.429   1.436
54663W        W18607  31.123  34.429  12.428
54664W        W18608  22.742  21.670   4.315
54665W        W18609  11.826   4.715   2.362
54666W        W18610  40.440  34.376  11.106
54667W        W18611  11.664  42.806   4.764
54668W        W18612  34.098   5.712   4.226
54669W        W18613  26.134  21.033  13.008
54670W        W18614  17.200  18.678  13.367
54671W        W18615  44.938   0.900   4.258
54672W        W18616   5.440   4.254  12.446
54673W        W18617  34.429  42.396  12.980
54674W        W18618  14.618  15.227  11.037
54675W        W18619  36.986   5.830   3.263
54676W        W18620  11.824  28.655  14.920
54677W        W18621  25.984  31.524  14.770
54678W        W18622  27.690   6.757   1.384
54679W        W18623  18.162  42.856   1.358
54680W        W18624  25.702  15.739  14.895
54681W        W18625   6.258   3.843  11.121
54682W        W18626  18.217  18.258  11.992
54683W        W18627   5.898  44.925   2.809
54684W        W18628  41.827  26.171   0.759
54685W        W18629   1.859  34.528  14.984
54686W        W18630  19.777  34.534   2.298
54687W        W18631  11.788  37.510   4.180
54688W        W18632  22.616   0.827  13.840
54689W        W18633  14.726  36.569  14.421
54690W        W18634  29.038  28.010   1.802
54691W        W18635  41.325  41.837  11.895
54692W        W18636  38.828  42.811  10.960
54693W        W18637   8.718  41.929   3.781
54694W        W18638  28.005  12.162   1.404
54695W        W18639  19.168  11.818  14.796
54696W        W18640  34.947  15.744  13.502
54697W        W18641  41.947  41.821  12.578
54698W        W18642  11.173   4.337   4.210
54699W        W18643   6.698   5.220   1.878
54700W        W18644  34.561  19.726   0.459
54701W        W18645  35.894  10.290  13.479
54702W        W18646  18.618  24.664   5.642
54703W        W18647  10.877  36.006   1.816
54704W        W18648  36.888  15.227  13.977
54705W        W18649  39.881  15.696  13.371
54706W        W18650  10.832  14.213  14.496
54707W        W18651  22.588  38.838  10.495
54708W        W18652   2.869   4.401   9.602
54709W        W18653  18.763  39.468  12.479
54710W        W18654  38.339  36.890  14.985
54711W        W18655  31.026   4.352   0.250
54712W        W18656  31.049  30.608   2.230
54713W        W18657  34.936  14.775  14.330
54714W        W18658  15.641   5.304   3.191
54715W        W18659  44.415  23.164  12.549
54716W        W18660   3.318  25.037   3.684
54717W        W18661  40.841   2.840  13.501
54718W        W18662  35.473  32.483  12.533
54719W        W18663   6.750  23.219   1.794
54720W        W18664  24.497  38.408  10.516
54721W        W18665  26.136   0.940   1.404
54722W        W18666  31.027  22.559  14.495
54723W        W18667  35.447  36.369   3.851
54724W        W18668  25.193   7.750   5.240
54725W        W18669  20.245   4.352   4.613
54726W        W18670  18.757  30.450   0.315
54727W        W18671  19.646  34.863   4.772
54728W        W18672  30.640  19.537   4.831
54729W        W18673   7.817  35.552  13.378
54730W        W18674   6.702  41.993   2.822
54731W        W18675  25.102  41.493  12.360
54732W        W18676  24.674  41.473  13.860
54733W        W18677  31.090  13.810   3.716
54734W        W18678  15.814   0.483   4.806
54735W        W18679   6.268  43.500   4.246
54736W        W18680   3.746  35.468   4.195
54737W        W18681  28.465   1.804  11.610
54738W        W18682  14.148  28.977  12.347
54739W        W18683  16.287  19.612  13.812
54740W        W18684  19.088  44.009   4.771
54741W        W18685  10.253  11.295  10.158
54742W        W18686  32.432  12.735  13.517
54743W        W18687  13.672   9.211  14.380
54744W        W18688   5.818  35.565  13.877
54745W        W18689  21.570   3.460   2.362
54746W        W18690  11.215  22.088  11.107
54747W        W18691   6.279   4.424  14.299
54748W        W18692  24.565  18.722   3.157
54749W        W18693  31.466  44.505  12.494
54750W        W18694  17.224  13.325  14.286
54751W        W18695   5.869  43.903   0.475
54752W        W18696  34.498  29.577   0.293
54753W        W18697  34.922   5.328   3.861
54754W        W18698  44.986   5.795   3.165
54755W        W18699  42.940  44.812   2.255
54756W        W18700  18.103  43.381   4.340
54757W        W18701   7.808  13.349   4.616
54758W        W18702   5.371  41.308   0.852
54759W        W18703  25.015  35.989   2.365
54760W        W18704  43.807   7.384  14.979
54761W        W18705  27.661  41.480  10.896
54762W        W18706  42.978   0.937   0.925
54763W        W18707  17.221  21.735  11.111
54764W        W18708  22.041  19.756  12.498
54765W        W18709  41.448   6.212   0.894
54766W        W18710  36.958  18.058   4.334
54767W        W18711  21.024  41.313   3.805
54768W        W18712  33.882  16.621   1.775
54769W        W18713   7.179  18.771   0.745
54770W        W18714   8.324   5.780   3.153
54771W        W18715   7.182   7.217  14.989
54772W        W18716  38.548   8.819  11.415
54773W        W18717  17.077   7.323  11.863
54774W        W18718   5.435  24.025   3.706
54775W        W18719  20.053  15.789  11.014
54776W        W18720  23.728  40.020   0.796
54777W        W18721  15.239   9.392  10.979
54778W        W18722   2.332  28.543   0.446
54779W        W18723  37.910  27.608  11.013
54780W        W18724   3.378  38.932   2.892
54781W        W18725   2.364  42.955  11.413
54782W        W18726   6.728  37.046  12.087
54783W        W18727  15.681  26.657  14.854
54784W        W18728  34.516  22.033   2.824
54785W        W18729  42.000   9.728  11.083
54786W        W18730  10.277  33.898   4.759
54787W        W18731  32.592  28.118  10.073
54788W        W18732  44.484  32.580   1.778
54789W        W18733  37.064  12.661   3.717
54790W        W18734  37.419  31.519  13.872
54791W        W18735  18.274  41.466  10.448
54792W        W18736  43.432  31.904   3.835
54793W        W18737  23.150  23.073  14.767
54794W        W18738  42.018  22.121   0.918
54795W        W18739  12.662  13.347   2.190
54796W        W18740  44.292  14.748   3.686
54797W        W18741  40.014  37.953  10.908
54798W        W18742  18.195  30.578   1.734
54799W        W18743  20.207  30.500   5.294
54800W        W18744  34.011  23.999  14.996
54801W        W18745  17.722  10.664   5.239
54802W        W18746  31.148  40.398   0.952
54803W        W18747  20.041   1.314  11.067
54804W        W18748  29.117  44.761   0.886
54805W        W18749  31.076  27.955  13.043
54806W        W18750   3.942  31.916   0.857
54807W        W18751  32.021  13.632  13.462
54808W        W18752  33.996  29.921  14.804
54809W        W18753  33.010  40.842  11.407
54810W        W18754  27.687   4.745   4.352
54811W        W18755  13.340  20.655  12.406
54812W        W18756  18.630   1.929   2.695
54813W        W18757   0.864  21.245  12.520
54814W        W18758  29.514  26.599   5.303
54815W        W18759  18.073  22.216   5.793
54816W        W18760  22.153  34.009  13.016
54817W        W18761  28.481  30.510  10.575
54818W        W18762  12.128   4.208   2.700
54819W        W18763  13.803  22.191   4.330
54820W        W18764  42.477   7.368   4.742
54821W        W18765  32.944  39.910   1.708
54822W        W18766  11.347  38.530  11.390
54823W        W18767  19.156   4.875   2.380
54824W        W18768   0.280  41.822   2.754
54825W        W18769  42.339  41.003  11.033
54826W        W18770  35.030   1.242  10.907
54827W        W18771   3.460  16.671   4.821
54828W        W18772  40.890   6.920  10.025
54829W        W18773  26.525   7.817   4.216
54830W        W18774  19.217  44.412  12.956
54831W        W18775   7.370  37.979  12.944
54832W        W18776   8.765  12.234   1.932
54833W        W18777  16.172  10.234  10.579
54834W        W18778  16.145   1.902   2.888
54835W        W18779  38.965   4.368   2.265
54836W        W18780  16.165  38.448  10.584
54837W        W18781  13.793  13.818   4.173
54838W        W18782  42.812  13.164   1.210
54839W        W18783   5.219  32.405  11.100
54840W        W18784  15.220  31.486   5.798
54841W        W18785  30.574  34.105  13.912
54842W        W18786  24.212  42.002  13.866
54843W        W18787  31.427   0.962  10.480
54844W        W18788  35.905  35.361   0.905
54845W        W18789   3.798  16.154  14.443
54846W        W18790  37.467  44.862   4.268
54847W        W18791   0.831  34.597  11.129
54848W        W18792  14.164  30.092  13.504
54849W        W18793  33.471  30.483   4.766
54850W        W18794  37.030  34.558  13.457
54851W        W18795  42.415  20.647   1.240
54852W        W18796  34.007  11.255  14.369
54853W        W18797  23.084  40.514  13.496
54854W        W18798   4.409  23.096   2.259
54855W        W18799  17.126   1.345   0.382
54856W        W18800  27.526  44.483  11.116
54857W        W18801  35.000   8.767  11.912
54858W        W18802   6.349  31.519   9.942
54859W        W18803  36.525  20.093  11.906
54860W        W18804  10.164   7.912  14.512
54861W        W18805  19.739  18.594   4.644
54862W        W18806  36.412   1.787  13.865
54863W        W18807  44.002  10.841   3.822
54864W        W18808  43.298  41.871   0.755
54865W        W18809  34.992  42.987  14.989
54866W        W18810  27.481  38.545  14.841
54867W        W18811   1.857  27.454  12.944
54868W        W18812  27.663  18.137  13.959
54869W        W18813   2.401  13.227  11.431
54870W        W18814  44.263   9.308   1.931
54871W        W18815  16.258   7.242  13.405
54872W        W18816   5.753  19.661  11.955
54873W        W18817  42.839  23.507   2.184
54874W        W18818   9.280  38.861   3.731
54875W        W18819  23.053  17.184  13.960
54876W        W18820  28.130  38.541   0.434
54877W        W18821  10.878  40.966  11.536
54878W        W18822  12.203  32.537   2.372
54879W        W18823  43.507  21.256   2.750
54880W        W18824  34.929  44.004  10.584
54881W        W18825  32.039  21.040   1.413
54882W        W18826   1.452  27.578  12.963
54883W        W18827   9.376  29.585  12.896
54884W        W18828  11.209  44.332  11.096
54885W        W18829   3.248   1.358   2.312
54886W        W18830  30.950  10.876   4.223
54887W        W18831  22.092  23.533   3.267
54888W        W18832  34.878  32.536  12.907
54889W        W18833  40.000  28.444   2.353
54890W        W18834  33.018  13.331   2.901
54891W        W18835  44.891  42.808   2.668
54892W        W18836  12.289  38.837  12.969
54893W        W18837  34.533  17.075   1.744
54894W        W18838  37.426  20.572  10.416
54895W        W18839   4.369   8.291  14.492
54896W        W18840  41.391  42.421  10.955
54897W        W18841   8.165  35.927   0.435
54898W        W18842  35.481   7.358  10.478
54899W        W18843  35.358  19.178   0.313
54900W        W18844   6.397  22.628  10.564
54901W        W18845   4.721  14.260   0.352
54902W        W18846   5.830  42.289   3.715
54903W        W18847  30.499  22.227  10.555
54904W        W18848  14.676  35.382   2.759
54905W        W18849  31.023   6.247  12.928
54906W        W18850  22.096  42.829   4.149
54907W        W18851  33.028  15.215  11.904
54908W        W18852  20.220  24.977   4.236
54909W        W18853  42.990  17.684   3.214
54910W        W18854  30.504   5.761  14.834
54911W        W18855  28.118  12.746  10.456
54912W        W18856  14.701  22.050  12.493
54913W        W18857  26.639  32.440  13.402
54914W        W18858  41.391   0.309   0.855
54915W        W18859  20.155   7.265  11.484
54916W        W18860  31.447  38.921  13.828
54917W        W18861  16.614   7.686  11.070
54918W        W18862  30.597  42.021  14.496
54919W        W18863  44.962   3.282   3.679
54920W        W18864  38.397  18.553  12.047
54921W        W18865   1.450  13.655   1.814
54922W        W18866  26.961  17.148  11.583
54923W        W18867  14.746  22.728  11.946
54924W        W18868  21.149  42.014  11.478
54925W        W18869  27.461   8.817  14.768
54926W        W18870  16.225  36.003  10.129
54927W        W18871  42.813  30.589   3.282
54928W        W18872  28.458  22.654  13.844
54929W        W18873  16.227  16.634  11.894
54930W        W18874  25.627  11.257  11.469
54931W        W18875  43.798   4.422   0.917
54932W        W18876  25.173  28.080   4.148
54933W        W18877  33.450  39.463  12.912
54934W        W18878  33.559  13.128  14.481
54935W        W18879  20.682  26.201  14.403
54936W        W18880  43.365   2.865   2.826
54937W        W18881  17.766  29.066  10.934
54938W        W18882  31.986  33.594   1.890
54939W        W18883  22.548  15.121   9.983
54940W        W18884  17.256  42.437  14.359
54941W        W18885   6.835  44.285  11.402
54942W        W18886  42.476  14.798   2.734
54943W        W18887  41.377   2.950  10.583
54944W        W18888  44.493  11.744   1.265
54945W        W18889  35.058  40.877   3.286
54946W        W18890   5.282  27.093   4.135
54947W        W18891  44.853  20.715  12.468
54948W        W18892  15.682  41.339  12.526
54949W        W18893  16.715   4.733  13.894
54950W        W18894  37.507  40.932  13.868
54951W        W18895  36.875  32.138  13.491
54952W        W18896  20.028  14.121  12.560
54953W        W18897  22.166   6.688   2.416
54954W        W18898  31.529  17.747   1.369
54955W        W18899  33.885  33.584  10.577
54956W        W18900  15.611  33.057  11.000
54957W        W18901  12.196  12.841  13.513
54958W        W18902  23.107  15.821  11.892
54959W        W18903  41.854  33.078   3.318
54960W        W18904   3.230  30.044   4.740
54961W        W18905  16.622  42.484  11.125
54962W        W18906  12.164   2.350  13.314
54963W        W18907  42.950  41.879  11.395
54964W        W18908  20.255  15.322   0.438
54965W        W18909  35.871  12.635   2.874
54966W        W18910   5.213  17.231  13.859
54967W        W18911  25.555  15.105  13.505
54968W        W18912  35.492  35.080  12.882
54969W        W18913  30.421   9.672   1.874
54970W        W18914   5.266   5.263   1.817
54971W        W18915  31.145   3.378  11.918
54972W        W18916  17.156  40.495  12.908
54973W        W18917  40.463   1.371   2.897
54974W        W18918  29.471   6.214   2.205
54975W        W18919  19.219  36.436   0.757
54976W        W18920  25.099  40.415   3.257
54977W        W18921  24.040  16.718  11.968
54978W        W18922  31.487  18.614   4.807
54979W        W18923  13.665  20.145   3.854
54980W        W18924  39.822  18.638  14.503
54981W        W18925   2.770  42.425   3.323
54982W        W18926  40.340  31.406   3.791
54983W        W18927  18.122  39.477  13.333
54984W        W18928  33.029  35.579  14.960
54985W        W18929   5.350  42.366   0.867
54986W        W18930  34.465   5.806   1.925
54987W        W18931  41.822  36.875  14.373
54988W        W18932  32.914  31.922   4.118
54989W        W18933  25.518  18.121  12.972
54990W        W18934  28.458  15.763  14.878
54991W        W18935  14.144  15.673   2.305
54992W        W18936  16.781  17.198  11.978
54993W        W18937  21.208  36.008  10.629
54994W        W18938   0.298   2.399   4.351
54995W        W18939  22.159  32.562   3.236
54996W        W18940  31.933  35.569  12.469
54997W        W18941  24.613  24.213   4.135
54998W        W18942   8.791  39.844  14.875
54999W        W18943   3.803  30.471   2.787
55000W        W18944   9.337   8.371   4.635
55001W        W18945  32.586  19.047   3.770
55002W        W18946  10.189  22.733  11.035
55003W        W18947  16.734  37.878  10.599
55004W        W18948  23.140  19.051  10.624
55005W        W18949  17.643  11.761   4.802
55006W        W18950   9.270  18.695  14.961
55007W        W18951  20.624  29.494  10.578
55008W        W18952   7.807   8.373  11.125
55009W        W18953   7.357  41.786   2.668
55010W        W18954  40.970  22.998   4.611
55011W        W18955  24.176  18.111   9.921
55012W        W18956  39.331  10.698  13.025
55013W        W18957  41.957  38.538  14.380
55014W        W18958   0.251  33.131  14.957
55015W        W18959  32.544   9.187   4.834
55016W        W18960  42.379  40.829   3.779
55017W        W18961  11.169  37.536   3.162
55018W        W18962  31.069   6.703  13.348
55019W        W18963   8.805   3.777  12.027
55020W        W18964  42.321  33.942  13.535
55021W        W18965  10.859  12.822   1.721
55022W        W18966  33.007   7.378  12.522
55023W        W18967  13.147  14.123   5.296
55024W        W18968  19.606  43.289  12.576
55025W        W18969   4.268  14.244   1.431
55026W        W18970  20.604  22.510   0.261
55027W        W18971  33.433   4.297  12.459
55028W        W18972  17.082  14.233   5.268
55029W        W18973  20.185  28.507  11.992
55030W        W18974  16.139  31.108   4.744
55031W        W18975  40.023  36.872   0.397
55032W        W18976  41.383   4.425  11.048
55033W        W18977  16.652  31.644   4.803
55034W        W18978   8.893  24.644  11.476
55035W        W18979   3.351  18.134   3.170
55036W        W18980   2.292   7.242   0.471
55037W        W18981  30.646  26.695   1.776
55038W        W18982  27.674  31.967  13.064
55039W        W18983  12.632   0.434   3.869
55040W        W18984  38.971  34.976   1.380
55041W        W18985   1.772  23.695   1.446
55042W        W18986  22.623   9.813  12.847
55043W        W18987  18.565  32.613   0.955
55044W        W18988  19.687  38.821   3.290
55045W        W18989  34.594   0.428  14.961
55046W        W18990  20.200  35.106  11.012
55047W        W18991  42.928   5.384   2.842
55048W        W18992  17.768  21.024   4.123
55049W        W18993  39.372   3.339  14.976
55050W        W18994  28.464  11.127  12.858
55051W        W18995  37.899  24.991   1.407
55052W        W18996  42.898  15.163   0.862
55053W        W18997  30.558  42.431   2.802
55054W        W18998  30.487  42.438  13.367
55055W        W18999   1.806  23.083  11.059
55056W        W19000  40.451  43.816   0.252
55057W        W19001  35.879   4.207  13.009
55058W        W19002  37.439   3.412  14.782
55059W        W19003  20.219   1.394  14.805
55060W        W19004  15.125  29.611  14.829
55061W        W19005  39.429  33.440   9.980
55062W        W19006  24.009  23.625  10.113
55063W        W19007   4.390   7.729  13.370
55064W        W19008  23.224  39.832  13.399
55065W        W19009  20.076  21.253  13.442
55066W        W19010  24.131   2.294   3.783
55067W        W19011  37.409  36.012  12.548
55068W        W19012  22.744  43.000   2.224
55069W        W19013  11.147  39.886   3.253
55070W        W19014  22.637  41.469   3.374
55071W        W19015   8.786  38.011   1.855
55072W        W19016  15.244  37.936   0.363
55073W        W19017   6.703  27.988  11.426
55074W        W19018   2.293   2.467   4.669
55075W        W19019  37.865  37.538   3.374
55076W        W19020  22.698  21.525   3.185
55077W        W19021  26.031  40.324  10.028
55078W        W19022  30.447  37.019   0.964
55079W        W19023  21.088  18.281   0.386
55080W        W19024   8.837   1.811  13.345
55081W        W19025   5.728  17.614   0.326
55082W        W19026  41.352  41.840  11.486
55083W        W19027   1.380   4.707  12.534
55084W        W19028  17.583  16.278   2.296
55085W        W19029  25.031  44.480  13.048
55086W        W19030  21.020   5.255  11.031
55087W        W19031   3.743  12.700  13.409
55088W        W19032  39.927  18.714  12.504
55089W        W19033  38.380  31.962  11.102
55090W        W19034  16.134   5.281  11.115
55091W        W19035  15.720  28.475   0.264
55092W        W19036  32.456  34.894   4.762
55093W        W19037   3.429  13.264   3.248
55094W        W19038  12.261  32.397   1.700
55095W        W19039   7.411  26.511   0.889
55096W        W19040   0.862  32.493   4.682
55097W        W19041  36.048  40.935  11.420
55098W        W19042  31.469  41.864  14.820
55099W        W19043  14.805  42.004  13.894
55100W        W19044   8.194  28.572   0.769
55101W        W19045   8.746   4.220   0.396
55102W        W19046  42.307  11.244   1.249
55103W        W19047  37.581  43.957  12.967
55104W        W19048  19.779  43.021   0.961
55105W        W19049  30.073  35.858   1.431
55106W        W19050  21.627   3.850  11.443
55107W        W19051  32.467  31.548   4.708
55108W        W19052   4.319  17.799  14.303
55109W        W19053  18.074  26.538  13.881
55110W        W19054  23.559   0.962   0.745
55111W        W19055  31.462  12.275   4.666
55112W        W19056  19.198  33.106  10.436
55113W        W19057  12.680  15.786  10.919
55114W        W19058  36.905  12.670   2.298
55115W        W19059  28.130   9.335   0.869
55116W        W19060  10.797  19.210  11.964
55117W        W19061  42.918  22.703   4.781
55118W        W19062   7.227   9.195  12.009
55119W        W19063  14.792  22.552   9.973
55120W        W19064   7.193   1.295   3.666
55121W        W19065  33.941  40.010  11.882
55122W        W19066  37.385  14.096   3.870
55123W        W19067  34.946  37.013  14.445
55124W        W19068   3.316  14.105   4.769
55125W        W19069  27.136  18.582  11.476
55126W        W19070  44.829  42.289   3.706
55127W        W19071  11.146  39.357  11.439
55128W        W19072  12.281  35.597  12.831
55129W        W19073  40.833  11.349  11.982
55130W        W19074  40.411  43.507   2.294
55131W        W19075  17.131   7.830  13.842
55132W        W19076  10.257   5.282   1.909
55133W        W19077  19.232  27.636   3.765
55134W        W19078   9.689  41.915  12.470
55135W        W19079  32.480  28.507   1.791
55136W        W19080  44.289  38.864  14.030
55137W        W19081  35.531  19.125   3.850
55138W        W19082   0.477  34.891   4.663
55139W        W19083  11.259  15.328   3.175
55140W        W19084  34.541  21.177  13.311
55141W        W19085   9.236  29.020   1.695
55142W        W19086  27.590   7.666   1.254
55143W        W19087   0.876  27.030  10.936
55144W        W19088  20.032  34.024  13.851
55145W        W19089   8.204  13.784   1.804
55146W        W19090   7.323  37.960  10.423
55147W        W19091  36.463  33.439   3.274
55148W        W19092  14.326  28.473   4.299
55149W        W19093  41.423  39.411   2.190
55150W        W19094   3.276  38.377   3.340
55151W        W19095  14.632  19.714   5.168
55152W        W19096  24.055   4.903   0.744
55153W        W19097  35.953  25.044   1.269
55154W        W19098  30.000  31.430   0.860
55155W        W19099   1.824  39.492  10.539
55156W        W19100   1.259  27.965   0.950
55157W        W19101  40.856   2.932  11.917
55158W        W19102  42.286  10.679   4.139
55159W        W19103  19.206  15.670   3.380
55160W        W19104  24.066  22.134   1.752
55161W        W19105  12.341  25.470   4.688
55162W        W19106  25.691  16.692   2.803
55163W        W19107  38.476  14.275  10.634
55164W        W19108  27.062  36.435   1.393
55165W        W19109  21.703  30.954  13.318
55166W        W19110   4.213  34.442  12.343
55167W        W19111  13.682  12.697  10.473
55168W        W19112  29.117  20.625   2.304
55169W        W19113  15.734  10.833  10.578
55170W        W19114  21.150  20.165  14.385
55171W        W19115  14.786  17.261   3.711
55172W        W19116   2.936  28.442   3.344
55173W        W19117  33.108  12.339  14.487
55174W        W19118  23.712  13.212  12.016
55175W        W19119  13.604  16.676   2.179
55176W        W19120  11.694  15.246  10.561
55177W        W19121  13.190  12.621   1.233
55178W        W19122  26.091  18.574   1.808
55179W        W19123   8.343   6.829   2.364
55180W        W19124  41.294   0.790  11.885
55181W        W19125  34.385  31.503  14.871
55182W        W19126  30.598  28.113  14.462
55183W        W19127  35.477  35.485  10.949
55184W        W19128  30.466  28.453   1.235
55185W        W19129  19.172   4.936   3.378
55186W        W19130  21.133  39.940   3.749
55187W        W19131  13.662   0.425  11.577
55188W        W19132  37.948  32.979   1.425
55189W        W19133  33.622   1.267   2.361
55190W        W19134  19.691   6.730   3.284
55191W        W19135  43.916  33.980  14.488
55192W        W19136   9.285  12.621   4.215
55193W        W19137   0.883  17.743   2.800
55194W        W19138  18.588  31.943   3.820
55195W        W19139  10.844  31.630   3.641
55196W        W19140  27.108   8.227   2.384
55197W        W19141  36.969  44.952   0.277
55198W        W19142  32.030   1.374   1.782
55199W        W19143   5.890  40.896   0.767
55200W        W19144   5.236  35.008   2.745
55201W        W19145  30.522  42.777   2.328
55202W        W19146  37.432   0.356   0.466
55203W        W19147  15.656  22.626   3.274
55204W        W19148  11.835  36.994  12.560
55205W        W19149  22.704  40.860   4.167
55206W        W19150   9.789  41.314  11.515
55207W        W19151  19.703   1.344  11.951
55208W        W19152  13.835   0.897   3.167
55209W        W19153  17.577   1.842   3.171
55210W        W19154   5.400  39.547  11.585
55211W        W19155  36.403  40.962  12.579
55212W        W19156  17.105  33.625  12.425
55213W        W19157  38.022  21.243   2.357
55214W        W19158  11.144  39.824   2.406
55215W        W19159   9.687   3.296   5.116
55216W        W19160  42.293   4.294   0.432
55217W        W19161  37.916  30.053  10.416
55218W        W19162  44.380  12.850   3.687
55219W        W19163  23.566  12.153  10.954
55220W        W19164   4.232   1.731  13.455
55221W        W19165  38.336  24.112  11.551
55222W        W19166  16.136  34.871   4.728
55223W        W19167  21.264   6.850  14.293
55224W        W19168   9.862  12.799   1.869
55225W        W19169  11.229  14.811   4.240
55226W        W19170  14.191   3.760  11.884
55227W        W19171   3.847  33.463  13.500
55228W        W19172  41.429  27.047  11.375
55229W        W19173  28.117   3.827  12.479
55230W        W19174   6.737   4.368  14.478
55231W        W19175  24.521  23.521   0.957
55232W        W19176  10.349  23.209  14.865
55233W        W19177   8.400   0.457  14.324
55234W        W19178  39.932  10.818  11.911
55235W        W19179  20.111  26.675  13.472
55236W        W19180  37.555   4.255  13.973
55237W        W19181  17.685  25.606   3.215
55238W        W19182  20.568  15.136   3.652
55239W        W19183  27.130  22.655  11.881
55240W        W19184  31.010  18.057  14.796
55241W        W19185  30.148   2.368   3.316
55242W        W19186  40.464  14.201   1.808
55243W        W19187  33.444  33.939  12.827
55244W        W19188  15.249  20.568   0.877
55245W        W19189  39.444  32.977   4.764
55246W        W19190   8.767  18.613  11.572
55247W        W19191  39.549  38.535   1.262
55248W        W19192  27.031  11.701  13.892
55249W        W19193  22.610  31.922   1.779
55250W        W19194  43.950  28.619   0.366
55251W        W19195   1.780  41.979   4.251
55252W        W19196  34.509  36.054  11.572
55253W        W19197  16.648  33.066   2.787
55254W        W19198  43.446  27.556   1.706
55255W        W19199  41.497  18.726   1.212
55256W        W19200  15.750   3.772  10.099
55257W        W19201  12.329  34.412  13.841
55258W        W19202  22.071  14.334  13.876
55259W        W19203  11.703  33.556  11.095
55260W        W19204  29.518  19.141  12.067
55261W        W19205   6.698  38.326   0.878
55262W        W19206  16.710  16.252  11.475
55263W        W19207  35.891  40.512   0.779
55264W        W19208  32.903  25.031  10.979
55265W        W19209  23.715  16.801   3.817
55266W        W19210  15.181   8.713   2.678
55267W        W19211   2.863   6.313   1.791
55268W        W19212  30.425  39.461   1.790
55269W        W19213  40.025  25.530  14.409
55270W        W19214   8.253   4.317   0.816
55271W        W19215  24.148  36.085   5.277
55272W        W19216  26.682   3.839   0.470
55273W        W19217  18.772  41.428   0.897
55274W        W19218   2.797  36.877   0.467
55275W        W19219   4.215   9.261  11.372
55276W        W19220  34.889  23.532  12.381
55277W        W19221  44.487  33.587  13.813
55278W        W19222  28.662  29.627   2.271
55279W        W19223  38.039  38.505   0.730
55280W        W19224  40.978   9.772  12.400
55281W        W19225  26.588  38.933  12.396
55282W        W19226   6.897  31.104   4.168
55283W        W19227  14.637  27.541   0.294
55284W        W19228  34.389   4.722   0.368
55285W        W19229   2.456  23.056  13.822
55286W        W19230  14.825  15.584   3.803
55287W        W19231   1.806  32.505  11.050
55288W        W19232  15.244  11.827   3.384
55289W        W19233  32.051  24.205  10.952
55290W        W19234  12.670  44.267  13.853
55291W        W19235  16.227   9.720   2.390
55292W        W19236  21.163  25.483  13.850
55293W        W19237  24.170  41.014  13.479
55294W        W19238  38.456  14.660   1.717
55295W        W19239  36.084   7.317   0.895
55296W        W19240  11.341  27.564  12.544
55297W        W19241  10.357   8.864   0.962
55298W        W19242  24.649  35.554   2.831
55299W        W19243  24.038   1.771   3.225
55300W        W19244  31.624  21.138  12.555
55301W        W19245  44.457  35.096  12.949
55302W        W19246  27.969  16.167  10.403
55303W        W19247  36.851  21.239   2.340
55304W        W19248  16.080  18.699   4.632
55305W        W19249   6.393  16.089   4.205
55306W        W19250   3.257  10.653  12.435
55307W        W19251  19.180  27.971   0.342
55308W        W19252  18.148  10.384   4.355
55309W        W19253  30.163  11.177  14.366
55310W        W19254  23.072  34.945   1.390
55311W        W19255  43.468  22.637   0.886
55312W        W19256  10.875  17.061   0.256
55313W        W19257  13.836  23.717   0.882
55314W        W19258   2.866   6.779   2.234
55315W        W19259  16.807   0.343  11.110
55316W        W19260  37.457   6.348   0.756
55317W        W19261  27.993   0.882  11.019
55318W        W19262  11.371  13.134   1.225
55319W        W19263  29.463   4.430  10.969
55320W        W19264   2.404  11.630   4.207
55321W        W19265   4.750  23.513  12.508
55322W        W19266  29.665  13.733  14.787
55323W        W19267   8.657  11.763  12.054
55324W        W19268  20.189   0.253   1.405
55325W        W19269  13.641   1.409  11.410
55326W        W19270  13.147   3.420  13.392
55327W        W19271  19.215   2.836   4.651
55328W        W19272   5.844   9.820   2.781
55329W        W19273  36.049  17.694   4.124
55330W        W19274  19.668  32.029  12.856
55331W        W19275  29.983  21.224   4.148
55332W        W19276  24.080   6.375  12.921
55333W        W19277  19.693  18.756   2.695
55334W        W19278  39.893  32.618   4.149
55335W        W19279  11.852   7.393  14.425
55336W        W19280  41.954  23.025  11.395
55337W        W19281  32.909  14.738  10.963
55338W        W19282  19.715   4.901  13.018
55339W        W19283  41.799  10.381   4.334
55340W        W19284  44.306   0.792   3.199
55341W        W19285   5.283  42.506   3.672
55342W        W19286   7.707  38.037  10.446
55343W        W19287   2.426  39.930   1.728
55344W        W19288  23.696   3.461  12.968
55345W        W19289  22.061  36.951   1.323
55346W        W19290  32.946  11.750   2.889
55347W        W19291  29.628  37.882   4.751
55348W        W19292  14.701  28.478   3.750
55349W        W19293   3.340  43.316  13.006
55350W        W19294  43.431  22.194  14.312
55351W        W19295   4.252  19.169   1.370
55352W        W19296  14.214   1.416   4.274
55353W        W19297   0.971   2.901  13.363
55354W        W19298   2.401  33.021   3.380
55355W        W19299  31.128  18.242  12.967
55356W        W19300   0.372  38.842  10.480
55357W        W19301  18.109  36.588  12.398
55358W        W19302  19.197   6.745   3.658
55359W        W19303  44.304  15.282   3.719
55360W        W19304  18.585  36.433   0.356
55361W        W19305  24.629  25.634  10.940
55362W        W19306  41.925   9.832  14.284
55363W        W19307  31.927  28.930  11.111
55364W        W19308  17.226  12.194  11.412
55365W        W19309  42.431  23.705   2.676
55366W        W19310   3.878  13.176  13.046
55367W        W19311   6.225  27.600  12.873
55368W        W19312  20.029  12.116   2.699
55369W        W19313  44.454  22.555   5.277
55370W        W19314  14.213  32.101  14.940
55371W        W19315  10.237  36.412   2.691
55372W        W19316  17.694  37.885  14.941
55373W        W19317  28.159  33.933   1.782
55374W        W19318   3.419  35.075   2.783
55375W        W19319   8.795  35.865  12.507
55376W        W19320  40.849  14.181  13.845
55377W        W19321  33.497  30.541   2.876
55378W        W19322  16.710  24.977  13.985
55379W        W19323  19.076  21.649  12.546
55380W        W19324  33.422  43.408  12.985
55381W        W19325  30.464   0.926  12.392
55382W        W19326  35.103  12.813   2.206
55383W        W19327  17.118   2.275  12.526
55384W        W19328  15.177  17.114   2.859
55385W        W19329  28.445  15.604   5.717
55386W        W19330  15.139  32.119   2.712
55387W        W19331  27.634  19.174  13.455
55388W        W19332  19.101   1.439  11.083
55389W        W19333  29.640  39.318   3.273
55390W        W19334  38.566  34.931  10.466
55391W        W19335  32.091  38.923   0.829
55392W        W19336  36.081  28.156  10.609
55393W        W19337  33.128   4.265   0.883
55394W        W19338  42.000  16.764  12.396
55395W        W19339   0.479  32.135  11.041
55396W        W19340  13.750  31.010  12.575
55397W        W19341   4.779  36.951  10.481
55398W        W19342  25.197   0.954   5.318
55399W        W19343  42.347  40.373  11.095
55400W        W19344   9.394  12.321  12.980
55401W        W19345  40.020  20.627   2.783
55402W        W19346  39.817  42.472  13.969
55403W        W19347  11.682  26.070  13.983
55404W        W19348  33.062  26.614   2.798
55405W        W19349  30.526   0.955   4.792
55406W        W19350   2.863  16.601   2.879
55407W        W19351  17.183  19.624   0.762
55408W        W19352  26.195  32.466   4.140
55409W        W19353  31.466   3.343   3.866
55410W        W19354  39.970   3.837   1.698
55411W        W19355  34.083  35.985  14.415
55412W        W19356   8.330  21.524  14.791
55413W        W19357  41.480  34.453  13.449
55414W        W19358  41.521  18.673  13.346
55415W        W19359  39.911  42.469   0.386
55416W        W19360  28.654  29.637  13.842
55417W        W19361  14.598  21.690  11.102
55418W        W19362  28.501  27.543   1.753
55419W        W19363  30.074  32.025   4.681
55420W        W19364  23.111  34.528   3.253
55421W        W19365   8.342   8.887   2.192
55422W        W19366  24.630   4.726  14.943
55423W        W19367  11.783  41.292   9.935
55424W        W19368  42.509   0.466  12.895
55425W        W19369  18.256  24.177   2.779
55426W        W19370  44.882  21.164  10.536
55427W        W19371  10.828  24.099   4.788
55428W        W19372   3.263  24.115   3.750
55429W        W19373  18.597  37.956   0.283
55430W        W19374   5.290  34.412  14.823
55431W        W19375   0.975   7.401   2.301
55432W        W19376  35.040  16.271  14.996
55433W        W19377  19.141  28.106  14.318
55434W        W19378   3.754  17.771   4.666
55435W        W19379  26.196  16.649   0.888
55436W        W19380  27.956  38.068   2.801
55437W        W19381   8.717  29.581   0.388
55438W        W19382  27.658  28.068  11.463
55439W        W19383  27.080  19.751   1.266
55440W        W19384  44.865  29.518   1.831
55441W        W19385  14.156  16.765   1.871
55442W        W19386  39.339  13.818   3.767
55443W        W19387  31.007  34.902   1.253
55444W        W19388   1.956  30.509   4.228
55445W        W19389  17.592   1.967  10.552
55446W        W19390  28.046   4.724  11.959
55447W        W19391  21.756  10.850  10.514
55448W        W19392  18.171  16.236   2.801
55449W        W19393  33.898  35.063   4.282
55450W        W19394  34.105  34.080  11.414
55451W        W19395  43.464  11.209  10.406
55452W        W19396  31.999  14.103  10.591
55453W        W19397  37.848  12.792  10.409
55454W        W19398  26.648  43.821   9.960
55455W        W19399   5.888   6.289   4.351
55456W        W19400  12.790  33.522  12.375
55457W        W19401   7.810  23.731  11.541
55458W        W19402   2.896  38.410  12.870
55459W        W19403  38.994   0.858   0.327
55460W        W19404  19.620  27.960  12.887
55461W        W19405  39.990  35.078  13.959
55462W        W19406  44.269  43.495  13.817
55463W        W19407  33.606  42.803  11.997
55464W        W19408  32.031  18.681   1.725
55465W        W19409  22.074  37.464  13.869
55466W        W19410  14.318   4.820  11.605
55467W        W19411  39.444  30.581   1.804
55468W        W19412   8.284  13.234   0.749
55469W        W19413  39.335   6.266  14.912
55470W        W19414  20.687  41.032  14.346
55471W        W19415  33.126  39.837   0.869
55472W        W19416   3.807  39.358   2.784
55473W        W19417   3.749  34.041  10.555
55474W        W19418  27.482  25.176  10.544
55475W        W19419   6.700  29.623   0.466
55476W        W19420  17.791   1.875  14.911
55477W        W19421  15.148  29.607  10.969
55478W        W19422  44.452  37.495   3.154
55479W        W19423  18.271  19.158  11.895
55480W        W19424  15.100  19.641   0.839
55481W        W19425  33.596  14.720   4.738
55482W        W19426  39.832   1.788  11.009
55483W        W19427  14.098  12.811   1.756
55484W        W19428  17.218  33.054  14.491
55485W        W19429   0.467  41.504  14.494
55486W        W19430  17.076  33.417  14.374
55487W        W19431  43.897  39.822   3.151
55488W        W19432  37.008  20.144  14.943
55489W        W19433  41.503  42.854   2.218
55490W        W19434  28.081  22.184   2.276
55491W        W19435  30.558  37.423   4.231
55492W        W19436  43.299  34.430  13.412
55493W        W19437  16.583  16.204  12.974
55494W        W19438   7.412  24.087  14.973
55495W        W19439  42.510  42.977   3.162
55496W        W19440  18.619  34.419  10.048
55497W        W19441  19.100   5.400   2.691
55498W        W19442  14.798  16.766   0.953
55499W        W19443   5.211  33.911  11.503
55500W        W19444  39.474  15.168  11.888
55501W        W19445  24.076  15.183   2.737
55502W        W19446  37.882  36.882  11.926
55503W        W19447  42.318  13.209   4.206
55504W        W19448   2.828  13.827  11.597
55505W        W19449  26.128  42.781   0.438
55506W        W19450  23.514  16.617  13.021
55507W        W19451  32.428  21.649  13.313
55508W        W19452  30.982  12.785  11.885
55509W        W19453  11.179  23.168   4.704
55510W        W19454  12.698  12.333  10.973
55511W        W19455   3.425  25.485   0.454
55512W        W19456  29.032  33.464  10.492
55513W        W19457  23.043   1.307  13.942
55514W        W19458  11.691  29.670   5.172
55515W        W19459   4.872  28.935  13.935
55516W        W19460   9.821  35.868   4.158
55517W        W19461  29.626  33.942  10.539
55518W        W19462  27.013   5.884   0.732
55519W        W19463   4.311   9.237  10.418
55520W        W19464  22.643  41.042  10.961
55521W        W19465  25.474  37.367  12.525
55522W        W19466   7.229  17.666   0.824
55523W        W19467   7.892  29.584   1.877
55524W        W19468  37.425  15.276  14.278
55525W        W19469  21.215  27.602   4.727
55526W        W19470   6.392  28.639  13.393
55527W        W19471  28.041   6.304  14.908
55528W        W19472  37.353  44.924  13.814
55529W        W19473  22.535  33.909   2.779
55530W        W19474  14.633  35.566  13.017
55531W        W19475  41.298   6.385   2.319
55532W        W19476  38.014  22.652   0.734
55533W        W19477  31.006  41.525  11.376
55534W        W19478  28.011   2.953   2.858
55535W        W19479  12.205   7.338  14.877
55536W        W19480  39.461  11.344   0.281
55537W        W19481  18.711  25.105   2.774
55538W        W19482   9.353   1.345  14.924
55539W        W19483  26.566  40.479   9.615
55540W        W19484  42.931  33.418  11.567
55541W        W19485  39.447  16.075   2.353
55542W        W19486  38.494  35.921  10.603
55543W        W19487  26.999   4.222  10.433
55544W        W19488  22.137  16.581   0.419
55545W        W19489  28.973  44.942   3.844
55546W        W19490  23.575  25.196  10.901
55547W        W19491  25.700  15.324  12.981
55548W        W19492  31.438   5.852   3.678
55549W        W19493  31.635  26.666  10.576
55550W        W19494  15.209  19.135  13.933
55551W        W19495  40.948  38.363   1.926
55552W        W19496  35.967  31.591   0.420
55553W        W19497  29.099  35.551   4.710
55554W        W19498  13.303   4.428  12.537
55555W        W19499  39.441  11.128  12.352
55556W        W19500  31.079   6.764  11.122
55557W        W19501  44.787  15.693   0.864
55558W        W19502  35.559   9.234  14.932
55559W        W19503   2.430  28.667   4.265
55560W        W19504   3.457  20.031   3.164
55561W        W19505  38.899   3.744   3.329
55562W        W19506  21.520  37.435  12.044
55563W        W19507  21.656  41.524   1.908
55564W        W19508   6.907  36.994   3.763
55565W        W19509  15.114  43.829   2.771
55566W        W19510  18.279  18.637   1.885
55567W        W19511   9.285  35.948  11.522
55568W        W19512  20.106  19.582   5.093
55569W        W19513  14.094  14.099  13.856
55570W        W19514  29.064  26.099  13.414
55571W        W19515  33.943  13.341   0.736
55572W        W19516  35.381  10.376  13.374
55573W        W19517  39.350   2.466   4.629
55574W        W19518  24.520  38.917   4.671
55575W        W19519  42.783  44.924  14.409
55576W        W19520  15.311  25.676  13.928
55577W        W19521  11.859  24.039  14.789
55578W        W19522  16.590  25.205  13.473
55579W        W19523  17.664   8.826  14.399
55580W        W19524   8.748   6.896  12.496
55581W        W19525  38.541  23.229   1.819
55582W        W19526  23.188  16.747   3.213
55583W        W19527  33.995  20.196  12.902
55584W        W19528  14.219  38.539   1.864
55585W        W19529  20.602  27.155   4.119
55586W        W19530  30.100   9.150  13.896
55587W        W19531   6.356  38.870  12.401
55588W        W19532  35.577   6.865   0.760
55589W        W19533  26.461  15.174  11.612
55590W        W19534  39.963  19.779  11.528
55591W        W19535  35.377  28.507  11.879
55592W        W19536  33.617  15.743  11.031
55593W        W19537  20.732   6.408   4.181
55594W        W19538  12.193  27.525  12.503
55595W        W19539  40.915  37.953   4.644
55596W        W19540  20.649  28.643   4.778
55597W        W19541  16.679  36.057   0.464
55598W        W19542   5.432  43.856   0.806
55599W        W19543  10.726   1.788   2.752
55600W        W19544   4.335  24.700  14.316
55601W        W19545  37.885   1.332  10.956
55602W        W19546  28.665   9.696  10.462
55603W        W19547   0.983  39.847  12.837
55604W        W19548  31.519   1.250   2.382
55605W        W19549   7.901  17.656   4.716
55606W        W19550  12.184   9.285  14.501
55607W        W19551  26.495  16.228  10.568
55608W        W19552  11.271  13.663   4.688
55609W        W19553  21.561  22.049   1.918
55610W        W19554  19.593   5.811   0.762
55611W        W19555  14.709  15.783   0.753
55612W        W19556  39.813  23.659   2.891
55613W        W19557   0.385  44.844   4.802
55614W        W19558  20.080  24.576  10.018
55615W        W19559   8.678   2.794  13.527
55616W        W19560  18.714  29.966  13.025
55617W        W19561  36.409   8.329  14.826
55618W        W19562  30.054  23.608   0.374
55619W        W19563  13.107  43.372  13.441
55620W        W19564  40.968   4.218   2.828
55621W        W19565   6.813  35.463  13.437
55622W        W19566  16.799   3.386   1.378
55623W        W19567  41.875  12.205  12.851
55624W        W19568  32.030  27.490  12.420
55625W        W19569  24.094  32.109   1.773
55626W        W19570   0.919   4.385   3.729
55627W        W19571  35.462  29.116   0.948
55628W        W19572  41.349  23.734  11.970
55629W        W19573  24.607  30.939  13.500
55630W        W19574  34.035   2.926   4.312
55631W        W19575  41.808   9.269  11.028
55632W        W19576  24.652  20.222   3.272
55633W        W19577  15.296  36.847   0.817
55634W        W19578   0.981  30.068   0.268
55635W        W19579  34.457  31.140  13.795
55636W        W19580  39.322  11.823   4.192
55637W        W19581  34.079   5.810   0.305
55638W        W19582  14.210  20.237   0.250
55639W        W19583  16.667  22.552   0.438
55640W        W19584  21.144  41.402  14.464
55641W        W19585  11.768  17.277  13.002
55642W        W19586  36.410  34.981   1.221
55643W        W19587  14.826   0.454   0.775
55644W        W19588  35.877  42.827   0.927
55645W        W19589  32.515  26.082  13.933
55646W        W19590  21.223  25.158   4.750
55647W        W19591  44.973   1.362   3.170
55648W        W19592   7.416  16.219   4.352
55649W        W19593  34.978  13.784   1.819
55650W        W19594  15.234  31.039   1.851
55651W        W19595  10.320  32.471  12.827
55652W        W19596  34.971  16.688  10.525
55653W        W19597  23.011  23.548  14.966
55654W        W19598  10.735  28.642   3.755
55655W        W19599  36.042  13.242  10.916
55656W        W19600  36.384   4.865   4.124
55657W        W19601  36.065   1.909   4.261
55658W        W19602  29.638  31.427   0.381
55659W        W19603  25.200   7.862   0.830
55660W        W19604  40.843  41.374   3.653
55661W        W19605  20.156   2.434  14.918
55662W        W19606  14.150  41.953  14.799
55663W        W19607  27.593  37.910  12.518
55664W        W19608  20.573  35.968  10.464
55665W        W19609   4.411  30.087   1.930
55666W        W19610  10.861  25.658   2.850
55667W        W19611   4.826  44.980   3.191
55668W        W19612   2.877  37.407   1.872
55669W        W19613  19.273  34.424   1.250
55670W        W19614  42.305  17.696  12.085
55671W        W19615   8.835  39.050   4.296
55672W        W19616  44.402   2.247  14.500
55673W        W19617  22.200  10.158  11.060
55674W        W19618  40.473  40.385  14.462
55675W        W19619  15.242  18.087  12.043
55676W        W19620  38.384  38.056   0.870
55677W        W19621  21.559  43.483  10.566
55678W        W19622   4.754  34.970   1.886
55679W        W19623  39.809  24.495   0.314
55680W        W19624  37.028   9.649  13.470
55681W        W19625  32.992  32.436   1.401
55682W        W19626  28.100  30.421   0.915
55683W        W19627  38.924  37.048   2.696
55684W        W19628  41.018  29.533   3.853
55685W        W19629  12.813  17.128   2.812
55686W        W19630  27.459  35.951  14.491
55687W        W19631  17.598  38.485  14.958
55688W        W19632   6.399  28.477   5.670
55689W        W19633  25.621   3.903   0.784
55690W        W19634  35.395  34.594  13.900
55691W        W19635  23.511  31.446  11.566
55692W        W19636   8.185  33.427   1.385
55693W        W19637  25.080  10.335  12.514
55694W        W19638  17.622  10.372   4.783
55695W        W19639   6.824   2.764  12.855
55696W        W19640  12.645  34.399   3.716
55697W        W19641  25.122  35.391  12.566
55698W        W19642  24.172   8.871   4.644
55699W        W19643  13.623   2.886  13.040
55700W        W19644  35.492  24.642   2.343
55701W        W19645  10.836  32.403  14.801
55702W        W19646   0.302  29.605  11.395
55703W        W19647  18.585  34.986   0.366
55704W        W19648   4.207   2.843  12.038
55705W        W19649  34.032   1.912  13.503
55706W        W19650  26.504  24.166  11.029
55707W        W19651  34.530  13.210   0.801
55708W        W19652   9.166  24.117   3.812
55709W        W19653  43.446  29.428  12.908
55710W        W19654   5.377  41.024   3.718
55711W        W19655  29.970  39.321   4.142
55712W        W19656   3.902  22.594  10.566
55713W        W19657  18.127  42.505  13.364
55714W        W19658  23.178  25.070  13.904
55715W        W19659  25.582  37.083   4.135
55716W        W19660  23.592   4.727   3.753
55717W        W19661  17.159  24.547   4.830
55718W        W19662  19.750   1.447  13.916
55719W        W19663   4.360  25.044  11.501
55720W        W19664  30.121  25.581  14.763
55721W        W19665  19.558  30.156   2.396
55722W        W19666  25.111  38.537   2.851
55723W        W19667  38.016  36.558  10.487
55724W        W19668  38.559  26.028  11.610
55725W        W19669   8.219  33.894   3.329
55726W        W19670   5.357  16.231   0.850
55727W        W19671  22.999  44.350  12.041
55728W        W19672  25.144  28.056  13.312
55729W        W19673   0.439  18.065  14.485
55730W        W19674   9.794  43.887   1.861
55731W        W19675  44.353  11.141  14.445
55732W        W19676  13.621  18.177   4.611
55733W        W19677  39.953   5.705   3.279
55734W        W19678  34.096  31.470   1.895
55735W        W19679  38.945   6.426   1.824
55736W        W19680   8.800   1.750  14.503
55737W        W19681  44.259   2.858  14.842
55738W        W19682  13.616  25.524  10.435
55739W        W19683  15.615  14.635   1.330
55740W        W19684  17.272  19.151  14.418
55741W        W19685  20.758  25.199   0.402
55742W        W19686  17.660   5.695   0.279
55743W        W19687  23.120  19.139   0.307
55744W        W19688  12.317  11.190  13.461
55745W        W19689   0.982  43.834   4.783
55746W        W19690  11.699  35.391  13.308
55747W        W19691  39.327  10.260   0.841
55748W        W19692  20.226   2.908   0.421
55749W        W19693  27.102  22.030   0.253
55750W        W19694  10.767  32.119   4.274
55751W        W19695   7.778  43.478   4.794
55752W        W19696   2.853  24.159   0.440
55753W        W19697  16.738  32.894  14.482
55754W        W19698   7.193   1.256   0.448
55755W        W19699  33.415   6.826  11.889
55756W        W19700  42.501   9.164   1.353
55757W        W19701  17.762  28.105  13.922
55758W        W19702   2.244   0.420  12.468
55759W        W19703   4.397  21.755   3.249
55760W        W19704  22.617  23.077   3.713
55761W        W19705  23.529   8.876   3.743
55762W        W19706  17.106  43.854   0.816
55763W        W19707  15.768  23.065  13.385
55764W        W19708  17.078   5.905  10.511
55765W        W19709   1.793  25.215  10.903
55766W        W19710  19.683  43.301   1.215
55767W        W19711   3.868   4.307  12.924
55768W        W19712  21.742  18.567  10.590
55769W        W19713   6.379  20.760   0.913
55770W        W19714  32.924  19.675  14.957
55771W        W19715   9.302   9.889   1.234
55772W        W19716  34.031  38.937   3.292
55773W        W19717  40.891  37.526  11.560
55774W        W19718  34.534  17.280   2.341
55775W        W19719  21.247  39.830  14.001
55776W        W19720   5.734  30.998  14.827
55777W        W19721  23.007  37.527  12.996
55778W        W19722  36.397  36.349  11.880
55779W        W19723  19.158  20.216  12.988
55780W        W19724   5.207   0.419   2.276
55781W        W19725  21.662  36.520   4.265
55782W        W19726  38.489  28.981  10.927
55783W        W19727  23.073  30.494   5.268
55784W        W19728   9.738   4.206  11.856
55785W        W19729  24.203   2.359  11.081
55786W        W19730   4.867  37.946  13.542
55787W        W19731  40.359  10.268  11.055
55788W        W19732  37.939  38.447  10.921
55789W        W19733   3.235  41.439   1.768
55790W        W19734  28.963  40.853  14.354
55791W        W19735  39.504  33.929   2.352
55792W        W19736  21.179   4.241  13.831
55793W        W19737  22.075   0.946  13.505
55794W        W19738  13.109  11.671  12.907
55795W        W19739   7.684  20.711   1.235
55796W        W19740  15.587  38.037   1.398
55797W        W19741  10.338  22.697   2.235
55798W        W19742  35.452  19.661   2.881
55799W        W19743   2.768  31.472   2.672
55800W        W19744  32.036  18.136   1.396
55801W        W19745  30.448  38.022   4.807
55802W        W19746  15.703  21.045   1.312
55803W        W19747  30.935  37.077  13.536
55804W        W19748  18.661  37.419  11.107
55805W        W19749  27.047  33.128  11.502
55806W        W19750  13.275  41.463  12.387
55807W        W19751  24.584  19.116   3.306
55808W        W19752  33.495  15.277  13.514
55809W        W19753   5.292  13.227  14.928
55810W        W19754  15.679   9.393  11.502
55811W        W19755  35.017  38.051   3.266
55812W        W19756  39.014  16.149  11.909
55813W        W19757  29.929  42.839   4.237
55814W        W19758  27.658  34.400   3.302
55815W        W19759   2.316  20.607  12.496
55816W        W19760  43.430  29.954   4.241
55817W        W19761  29.980  18.737   4.192
55818W        W19762  15.324  39.994  11.450
55819W        W19763  31.082   5.892  14.467
55820W        W19764   2.312  42.295   2.697
55821W        W19765  18.075  12.192   0.845
55822W        W19766  37.847  11.842   0.918
55823W        W19767  32.138  19.698   0.937
55824W        W19768  19.761   8.258   0.447
55825W        W19769   6.677  44.977   2.186
55826W        W19770   7.321  36.587   1.922
55827W        W19771  16.699  28.484   3.245
55828W        W19772  35.052  42.438  10.425
55829W        W19773  38.074  17.152  11.442
55830W        W19774  15.757  17.081  13.886
55831W        W19775  11.318  41.803   2.222
55832W        W19776  31.013  40.416  13.460
55833W        W19777  42.032  30.645   0.819
55834W        W19778  28.987  10.816  10.551
55835W        W19779  24.054  37.990   1.218
55836W        W19780  31.452  18.611  10.101
55837W        W19781  23.115  40.413   4.819
55838W        W19782  19.116  41.305   1.328
55839W        W19783  22.018  25.691   4.741
55840W        W19784  43.005  41.924  13.492
55841W        W19785  41.532  16.124  12.413
55842W        W19786   5.351  14.783  11.994
55843W        W19787  33.987   0.808  12.069
55844W        W19788  43.318  27.531   2.745
55845W        W19789  43.833  16.074   0.960
55846W        W19790  28.169  19.231   3.334
55847W        W19791  18.684  26.469   4.346
55848W        W19792  44.413  14.712  12.380
55849W        W19793   3.941  29.107   0.254
55850W        W19794  35.387  16.236  11.422
55851W        W19795   0.265  16.606   1.390
55852W        W19796  17.644  21.135  10.916
55853W        W19797  22.564   8.710  11.418
55854W        W19798  26.109  26.951  11.499
55855W        W19799   5.774  29.988   2.378
55856W        W19800   2.955  13.737   4.752
55857W        W19801  37.013  40.431  12.427
55858W        W19802   4.909  16.248  13.851
55859W        W19803  34.102   8.255  13.370
55860W        W19804   3.352  41.457   4.658
55861W        W19805  37.866  31.541  10.477
55862W        W19806   5.700   3.447   4.285
55863W        W19807  38.031  10.734   3.305
55864W        W19808  37.447  35.042   2.675
55865W        W19809  24.981  10.375   4.827
55866W        W19810  39.360  36.070   1.356
55867W        W19811  29.098  40.807  12.455
55868W        W19812  36.040   7.300   4.834
55869W        W19813   1.856  33.031   4.194
55870W        W19814  30.459  44.907   0.325
55871W        W19815   9.830  26.016   4.759
55872W        W19816  42.365  16.761  12.470
55873W        W19817  21.197   4.406  10.586
55874W        W19818  10.229  42.501   2.379
55875W        W19819   9.769   6.359   0.388
55876W        W19820  11.298  34.453  11.904
55877W        W19821   8.195   5.216  12.512
55878W        W19822   0.263  18.191  11.430
55879W        W19823  11.317   7.226   3.369
55880W        W19824   9.793  19.634   0.306
55881W        W19825   4.761   1.398  14.995
55882W        W19826  24.171  15.798   0.310
55883W        W19827  34.586  23.116   1.403
55884W        W19828  15.090   6.803   0.315
55885W        W19829   3.812   4.872   3.746
55886W        W19830  30.584  26.651  10.114
55887W        W19831  28.131  15.611   4.793
55888W        W19832   5.215  16.744   2.388
55889W        W19833   6.308  33.026  14.306
55890W        W19834  30.045   7.239  14.432
55891W        W19835   9.653  31.028   2.747
55892W        W19836  17.606   9.283   1.776
55893W        W19837  44.259  37.525   3.837
55894W        W19838  33.119  14.153   1.867
55895W        W19839  27.675  22.551  13.487
55896W        W19840  28.033   3.830  13.814
55897W        W19841  33.901  23.638  13.856
55898W        W19842  19.579   9.879   4.243
55899W        W19843  19.555   2.228  12.978
55900W        W19844   5.320   4.886  12.553
55901W        W19845  40.322  30.161  13.972
55902W        W19846  22.998  14.097  11.416
55903W        W19847  21.203  34.061  10.513
55904W        W19848  42.784  13.131  14.437
55905W        W19849  42.444  35.860  13.506
55906W        W19850  32.138   0.375   3.218
55907W        W19851  28.114  39.811   1.695
55908W        W19852  14.618  12.768  13.321
55909W        W19853  24.221  40.849  12.961
55910W        W19854  35.568   6.226   0.746
55911W        W19855  25.123  25.119   0.928
55912W        W19856  15.701  44.789  14.852
55913W        W19857  31.477  11.659  10.427
55914W        W19858  16.269  18.547   1.272
55915W        W19859  18.140  33.959   5.216
55916W        W19860  19.171  43.318   2.818
55917W        W19861  24.131  13.633  11.527
55918W        W19862  13.838  34.503  12.577
55919W        W19863  23.687  14.213  11.015
55920W        W19864  39.011  37.458   2.703
55921W        W19865  32.528  14.181   0.341
55922W        W19866  15.794  24.199  10.444
55923W        W19867  14.202  12.180  11.028
55924W        W19868  19.251  23.640   3.809
55925W        W19869  40.837  37.540  14.898
55926W        W19870   1.246  23.116  14.926
55927W        W19871  44.472  42.784   0.388
55928W        W19872   1.857   5.751  13.918
55929W        W19873  28.528  36.460   3.779
55930W        W19874  18.080   8.690   0.450
55931W        W19875  19.571  21.239  14.984
55932W        W19876  27.673  28.018  14.290
55933W        W19877  24.070   8.204   2.271
55934W        W19878  41.324  44.320  14.013
55935W        W19879  20.641  43.360   3.639
55936W        W19880   0.298   2.908  14.294
55937W        W19881  35.547  16.112   2.251
55938W        W19882  36.390   6.874   1.441
55939W        W19883  18.686   7.216   3.731
55940W        W19884  21.737   2.818  12.462
55941W        W19885  34.410   5.194   1.744
55942W        W19886   3.776  39.873  10.494
55943W        W19887   6.861   4.234   1.295
55944W        W19888   3.322  36.404   3.841
55945W        W19889  25.174  37.432   0.269
55946W        W19890  12.151  19.538  10.981
55947W        W19891  11.319  21.062  11.375
55948W        W19892  42.948  10.733   1.227
55949W        W19893  37.442  43.283  13.396
55950W        W19894   8.843  31.116  10.148
55951W        W19895  18.753  35.529  12.092
55952W        W19896  42.906  40.533  12.399
55953W        W19897  35.102   4.805   4.211
55954W        W19898   2.740   5.217   9.663
55955W        W19899  31.081  25.551  11.585
55956W        W19900  38.869  44.943  13.947
55957W        W19901  13.105  40.945   3.777
55958W        W19902   1.428  18.294  12.409
55959W        W19903  19.274  28.154  14.005
55960W        W19904  25.588  22.705  11.607
55961W        W19905  34.895  10.775  13.830
55962W        W19906  19.650  34.554  10.050
55963W        W19907  24.594   9.219   3.313
55964W        W19908  24.516   6.874  10.908
55965W        W19909  11.737   3.741  10.577
55966W        W19910  19.739   6.283   4.265
55967W        W19911   6.860  35.872  13.437
55968W        W19912  36.539  28.940  14.824
55969W        W19913  26.501  18.553  11.946
55970W        W19914  17.191  34.452   1.401
55971W        W19915   4.903  37.541   1.879
55972W        W19916   0.390  20.126   0.912
55973W        W19917  20.628  21.741  10.607
55974W        W19918  34.968   3.458  11.936
55975W        W19919  19.203  31.532   0.293
55976W        W19920  31.617  21.702  14.372
55977W        W19921  32.411  30.502  13.966
55978W        W19922  24.510  11.644  14.335
55979W        W19923   6.273   9.836   2.670
55980W        W19924  29.083  21.606   2.893
55981W        W19925  43.943  42.956  12.529
55982W        W19926  32.948  10.653  14.898
55983W        W19927  10.854  44.285  11.587
55984W        W19928  31.128   7.330  13.883
55985W        W19929  10.280  37.397  12.910
55986W        W19930  11.285   4.760   2.733
55987W        W19931  28.994  25.485   0.329
55988W        W19932  35.501  28.124   0.958
55989W        W19933  34.562  17.681   2.833
55990W        W19934  15.315  38.933   3.674
55991W        W19935  13.288  11.730   4.733
55992W        W19936  29.143  41.788   2.382
55993W        W19937  22.695  42.805  11.061
55994W        W19938  13.684  40.399   3.211
55995W        W19939  23.158   2.462  11.577
55996W        W19940   9.881   7.731   2.899
55997W        W19941   9.800  26.960   0.863
55998W        W19942  27.662  23.050   4.714
55999W        W19943  23.566  26.610   0.296
56000W        W19944  15.109   8.815   1.244
56001W        W19945  26.018  32.620  13.874
56002W        W19946  36.997  21.587   0.860
56003W        W19947  23.116  11.329  10.420
56004W        W19948  24.613   0.301   1.395
56005W        W19949  35.360  21.688   2.251
56006W        W19950  20.583  15.771  12.465
56007W        W19951  21.262  13.692   1.868
56008W        W19952  36.513  27.046  12.968
56009W        W19953  34.951   1.397  14.910
56010W        W19954   2.295  35.022  14.349
56011W        W19955   9.882   1.849   2.323
56012W        W19956  35.854   5.393  12.494
56013W        W19957  21.703  41.844   2.888
56014W        W19958  42.366   7.856   0.448
56015W        W19959  35.947  37.086   4.678
56016W        W19960  24.526  25.614   3.346
56017W        W19961  19.185   8.752  10.127
56018W        W19962  16.609   2.253   2.666
56019W        W19963  44.848  40.836  13.795
56020W        W19964  17.782  34.470   0.338
56021W        W19965  10.859  24.147  12.993
56022W        W19966  32.466  29.523  14.433
56023W        W19967  28.011  25.641   4.249
56024W        W19968  15.798  27.102  11.464
56025W        W19969  36.958  17.287  10.454
56026W        W19970  42.894  20.181  12.388
56027W        W19971  13.824  21.549  10.640
56028W        W19972   0.966  28.967   0.908
56029W        W19973  41.913  24.112  12.020
56030W        W19974  42.846   2.932   3.777
56031W        W19975  44.997  18.244  14.500
56032W        W19976  14.291  42.973   1.903
56033W        W19977   9.885  33.453  13.330
56034W        W19978  16.765  44.857  12.042
56035W        W19979  13.756  43.992  14.836
56036W        W19980  36.349  35.044  13.989
56037W        W19981  36.862  31.413  12.396
56038W        W19982  18.547  11.238  10.061
56039W        W19983   7.670  26.070  13.335
56040W        W19984  35.591  37.443  11.070
56041W        W19985  42.884  42.801   2.207
56042W        W19986  16.198  19.560  11.913
56043W        W19987  22.020  26.058   4.690
56044W        W19988  32.564  23.694   2.732
56045W        W19989  34.075  37.842  10.423
56046W        W19990  30.963   7.201  11.030
56047W        W19991  38.819   1.343   4.334
56048W        W19992   0.974  26.084  11.032
56049W        W19993   1.733  28.463  13.918
56050W        W19994  19.551  15.725   1.793
56051W        W19995  18.060  23.614  12.937
56052W        W19996  22.585   1.265  14.803
56053W        W19997   5.203  34.570  11.606
56054W        W19998   1.375  17.699  12.969
56055W        W19999  21.670  41.006  10.584
56056W        W20000  10.766  31.917   1.246
56057W        W20001   3.311  22.088  13.055
56058W        W20002  37.974  11.212  15.000
56059W        W20003   7.262  20.081   0.350
56060W        W20004  22.643  43.366   1.872
56061W        W20005   5.233  29.010  13.338
56062W        W20006  25.079  20.556  13.000
56063W        W20007  22.579  40.811   2.202
56064W        W20008  21.714  28.122  10.957
56065W        W20009   3.402  40.394  12.085
56066W        W20010  44.971  21.085   2.769
56067W        W20011   7.371  27.550   0.793
56068W        W20012  17.090  21.658  14.513
56069W        W20013  25.524  17.772   1.397
56070W        W20014  19.706  25.094  14.018
56071W        W20015  20.089  32.473  13.438
56072W        W20016   1.359  34.098  12.402
56073W        W20017   9.246  20.653   1.897
56074W        W20018  24.182  19.639   2.297
56075W        W20019  41.960  25.146  12.391
56076W        W20020  17.785  12.647  12.351
56077W        W20021  22.101  22.139   2.737
56078W        W20022  18.758  34.027   0.334
56079W        W20023   2.410  23.533   4.795
56080W        W20024  35.592  36.356  11.057
56081W        W20025   8.785  21.178  10.493
56082W        W20026  43.833  20.184  12.433
56083W        W20027  27.579  44.425   2.338
56084W        W20028  40.371   6.867  13.910
56085W        W20029   8.734  36.916   4.132
56086W        W20030  14.684  34.964   3.843
56087W        W20031  11.784  35.400  13.039
56088W        W20032  12.660  19.184   3.819
56089W        W20033  13.215  41.790   4.612
56090W        W20034  31.553  40.401  11.008
56091W        W20035  16.133  17.146   4.307
56092W        W20036  23.721  15.251  14.476
56093W        W20037   7.197  29.570  12.838
56094W        W20038   5.266   6.336  11.094
56095W        W20039  25.173  11.270  11.458
56096W        W20040  36.888  38.454   0.336
56097W        W20041  26.119   6.218  13.821
56098W        W20042  27.987  32.921  10.568
56099W        W20043  34.520  34.391  10.418
56100W        W20044   3.907  40.936   3.859
56101W        W20045   9.351  27.528   1.729
56102W        W20046  36.449  36.889   4.118
56103W        W20047  33.001  21.185   1.758
56104W        W20048  23.230   0.380   4.144
56105W        W20049  10.180  38.978  13.450
56106W        W20050  19.558  22.534  11.002
56107W        W20051   8.887  19.564  10.487
56108W        W20052  17.089  16.274  13.487
56109W        W20053  32.961   7.411  12.868
56110W        W20054  41.321  13.282   3.285
56111W        W20055  17.269   2.902  14.791
56112W        W20056  10.297  38.042   0.764
56113W        W20057  37.359   9.679   4.785
56114W        W20058  12.667   5.387   1.355
56115W        W20059  24.086  24.171  12.060
56116W        W20060   9.219  32.471   0.431
56117W        W20061  11.311  27.459  13.505
56118W        W20062  13.675  19.661   1.822
56119W        W20063  38.029  26.099   1.699
56120W        W20064  33.996   8.849   2.888
56121W        W20065  14.659   7.244  13.912
56122W        W20066   3.716   1.336  13.000
56123W        W20067   6.901  19.155  11.381
56124W        W20068   9.360   3.397   3.859
56125W        W20069  15.763   6.746  11.088
56126W        W20070  10.790  17.588   0.736
56127W        W20071   5.380  20.269  10.419
56128W        W20072   8.803  25.075  11.584
56129W        W20073  28.169  11.180   3.629
56130W        W20074  43.832   2.876   4.165
56131W        W20075  17.077   5.233   4.740
56132W        W20076  18.747   8.792  14.026
56133W        W20077   2.774  23.661  14.390
56134W        W20078  44.305   7.216  10.627
56135W        W20079   8.273  35.023   2.759
56136W        W20080  27.114  12.173  10.967
56137W        W20081  41.943   1.875   5.169
56138W        W20082   2.387   0.989  13.986
56139W        W20083  27.002  24.707   3.785
56140W        W20084  39.990   0.847  11.376
56141W        W20085  19.039  26.024   3.347
56142W        W20086  34.956   7.284  11.064
56143W        W20087  38.493  10.340  12.847
56144W        W20088   8.402  21.203  11.473
56145W        W20089  33.607   8.735  14.474
56146W        W20090  29.164  14.288  10.560
56147W        W20091  15.599  32.000  14.385
56148W        W20092  39.342  22.108   4.629
56149W        W20093  26.619  31.459  13.368
56150W        W20094   0.376  17.212   1.789
56151W        W20095  32.555  13.262   1.274
56152W        W20096   7.786  36.388   4.641
56153W        W20097  15.311  26.458   0.277
56154W        W20098  11.661  31.080   2.765
56155W        W20099   5.731   3.942  12.425
56156W        W20100  25.576  18.733   2.359
56157W        W20101  40.462  12.146   2.249
56158W        W20102  14.832   6.254   0.887
56159W        W20103  37.421   4.250  14.883
56160W        W20104  31.599  32.583  10.547
56161W        W20105  23.700  33.493  10.524
56162W        W20106  23.575  28.562  11.562
56163W        W20107  36.492  27.103   4.676
56164W        W20108  16.294   8.730   3.167
56165W        W20109   5.811  41.941   1.416
56166W        W20110  27.596   2.781   1.927
56167W        W20111  23.031   6.830  12.478
56168W        W20112  29.518  40.891  13.843
56169W        W20113  11.366  33.577  14.352
56170W        W20114  42.994  12.187   2.187
56171W        W20115  43.807  38.830   4.116
56172W        W20116  34.458  26.580   0.856
56173W        W20117  11.764  24.108   2.266
56174W        W20118  23.153  41.486  13.410
56175W        W20119  19.623  16.804  11.549
56176W        W20120  30.001  38.531   3.649
56177W        W20121  22.518  43.996  14.416
56178W        W20122   8.798  37.541   4.352
56179W        W20123  10.146  10.379   4.328
56180W        W20124   5.744  18.545   3.159
56181W        W20125  38.351  19.546  14.875
56182W        W20126  18.564   1.824  10.934
56183W        W20127  19.161  28.630  14.998
56184W        W20128  28.595   6.398  14.405
56185W        W20129  33.023   0.270  10.469
56186W        W20130  19.778  23.226  13.941
56187W        W20131  10.789  42.392   0.889
56188W        W20132  14.185  42.026  14.020
56189W        W20133  21.133  10.138  13.342
56190W        W20134   1.738   2.396   4.351
56191W        W20135   1.288  36.852  13.970
56192W        W20136  25.554   1.866  12.830
56193W        W20137  27.945  28.007  13.501
56194W        W20138  16.102  19.664  11.409
56195W        W20139  42.905   4.770   2.393
56196W        W20140  16.183   3.947  11.466
56197W        W20141  33.551  34.598  10.565
56198W        W20142   1.899  37.410   3.190
56199W        W20143  24.625  26.583   4.285
56200W        W20144  31.509  35.414  13.941
56201W        W20145   5.340   4.775  13.993
56202W        W20146   9.180  11.718   3.771
56203W        W20147  32.504  21.257   1.408
56204W        W20148  29.559   6.913   0.354
56205W        W20149  40.840   5.278   1.417
56206W        W20150  44.379  16.288  13.887
56207W        W20151   2.954  33.463   1.427
56208W        W20152  37.029   7.295   2.361
56209W        W20153  30.085   1.911  10.480
56210W        W20154   2.376   8.833  10.488
56211W        W20155  26.555  43.777  10.540
56212W        W20156  39.454  31.504   3.146
56213W        W20157  44.897  12.240   3.741
56214W        W20158  41.837  32.118  10.502
56215W        W20159  41.302  34.880   5.276
56216W        W20160  44.467  32.540  10.630
56217W        W20161  40.411  40.326   1.310
56218W        W20162  39.426  11.857   1.280
56219W        W20163  42.438  11.302  11.556
56220W        W20164   2.292   4.249   0.364
56221W        W20165   3.729   7.337   1.893
56222W        W20166  37.957   9.660   1.422
56223W        W20167  37.572   2.419  13.925
56224W        W20168  13.171   3.888  10.407
56225W        W20169  36.077  30.087  11.477
56226W        W20170   1.798   3.773  14.494
56227W        W20171  38.062  13.295  13.843
56228W        W20172  43.270  41.370   4.818
56229W        W20173  43.971  14.160  12.450
56230W        W20174  25.117  43.476  10.497
56231W        W20175  41.371  24.671  13.993
56232W        W20176  27.052  17.173  12.908
56233W        W20177  14.210   6.365  12.961
56234W        W20178  41.873  33.572   2.727
56235W        W20179  14.287  22.079  14.994
56236W        W20180  43.917  25.486  11.063
56237W        W20181  23.162  11.648  14.984
56238W        W20182  20.142  35.512  14.276
56239W        W20183  16.125   1.303  12.939
56240W        W20184   3.864  20.729   2.707
56241W        W20185  26.702  13.227  13.035
56242W        W20186   6.724  14.128   3.227
56243W        W20187  41.911  29.163   1.780
56244W        W20188  11.785  43.449   1.871
56245W        W20189   2.730  43.001   1.793
56246W        W20190   7.890  37.529  10.412
56247W        W20191  44.883  41.864  13.472
56248W        W20192  33.027  11.324   4.159
56249W        W20193  11.161  13.636  14.892
56250W        W20194  42.824  28.630   4.649
56251W        W20195   5.709  39.961  14.020
56252W        W20196   0.384   6.802  12.487
56253W        W20197  42.284   9.826  13.811
56254W        W20198  40.846  17.728  13.964
56255W        W20199  15.194  24.671   0.283
56256W        W20200  29.146  35.083  13.914
56257W        W20201  16.136  28.615  14.378
56258W        W20202   1.238   8.224   1.358
56259W        W20203  12.778  15.208   0.326
56260W        W20204   5.333  12.182   1.255
56261W        W20205  16.586  42.369   0.755
56262W        W20206   0.795   0.334  12.903
56263W        W20207  37.433  15.615   2.311
56264W        W20208  35.974  41.933  13.815
56265W        W20209  20.229  22.640   1.215
56266W        W20210  42.868   0.330  13.365
56267W        W20211  42.331  24.203  11.444
56268W        W20212   0.935  21.535  10.433
56269W        W20213  41.985  19.661  13.494
56270W        W20214  19.741   7.784   2.871
56271W        W20215  37.344  36.871  11.086
56272W        W20216  29.098  18.166   1.352
56273W        W20217  43.423  20.133  14.305
56274W        W20218  12.641  25.600   4.118
56275W        W20219  37.911   1.304   4.166
56276W        W20220  11.752  28.140  14.785
56277W        W20221   0.256   1.441   4.243
56278W        W20222  28.614   8.160   0.363
56279W        W20223  43.944  18.584  14.490
56280W        W20224   9.370  18.168  14.902
56281W        W20225  10.381   2.868   4.615
56282W        W20226  25.157  10.229  12.095
56283W        W20227  13.716   7.821   0.320
56284W        W20228  11.351   4.788  14.005
56285W        W20229  19.767  16.768   1.415
56286W        W20230   1.351  41.872   4.245
56287W        W20231  40.921   2.889   3.715
56288W        W20232  16.747  10.182   2.715
56289W        W20233  13.626  36.389   1.904
56290W        W20234   5.267  34.888  11.868
56291W        W20235  21.182  27.135   2.394
56292W        W20236   1.831  34.872   1.713
56293W        W20237  37.877   1.872  11.385
56294W        W20238   1.860  10.688  11.042
56295W        W20239  32.995  30.139  11.528
56296W        W20240  18.753  25.532   4.243
56297W        W20241  34.937  39.970  11.560
56298W        W20242  29.446  38.912  12.526
56299W        W20243   4.244  43.982  11.400
56300W        W20244  18.133  13.719  11.027
56301W        W20245   7.230  34.446  13.495
56302W        W20246   0.945  44.487   2.255
56303W        W20247  24.219  22.147   0.898
56304W        W20248   2.935   3.752  13.903
56305W        W20249  10.261  22.019   0.369
56306W        W20250  22.618   5.742  10.416
56307W        W20251  10.648  21.516  11.521
56308W        W20252  36.545  44.823  13.466
56309W        W20253   8.843   9.886   1.345
56310W        W20254  38.525  32.052  14.025
56311W        W20255  24.722  19.059   0.284
56312W        W20256  14.636  15.806  11.103
56313W        W20257  32.932   1.804   2.416
56314W        W20258  29.159  38.546  10.999
56315W        W20259  39.052  14.297   0.777
56316W        W20260  12.856  20.047   1.714
56317W        W20261  16.263  23.104  14.304
56318W        W20262  11.797  33.464   4.754
56319W        W20263   4.808  24.979  12.053
56320W        W20264  20.145  42.994  10.456
56321W        W20265  11.804  27.677  10.140
56322W        W20266  12.792   1.392   3.196
56323W        W20267  25.681  33.580  14.290
56324W        W20268  29.508  10.649  12.035
56325W        W20269  17.167  30.929  11.063
56326W        W20270   4.936  19.163   2.190
56327W        W20271  34.369  33.113   1.371
56328W        W20272  19.542  18.215   0.771
56329W        W20273   1.800   3.717   4.321
56330W        W20274  15.710  22.551   0.383
56331W        W20275  25.705  13.208  12.069
56332W        W20276  38.921  31.644   1.421
56333W        W20277  17.082  14.221   2.827
56334W        W20278  29.091  14.277   3.294
56335W        W20279  11.366  29.134  11.526
56336W        W20280  38.855  38.066  12.469
56337W        W20281   1.800  43.429  14.471
56338W        W20282   5.412  19.698  13.338
56339W        W20283  28.021  35.394  14.940
56340W        W20284  17.701  36.048  12.526
56341W        W20285  37.564  39.987   4.260
56342W        W20286  42.493  28.625   1.302
56343W        W20287   8.217  14.208   3.728
56344W        W20288  13.812  40.458   1.921
56345W        W20289  33.964  27.538   2.803
56346W        W20290  25.546  19.205   4.196
56347W        W20291   6.349  26.077  14.960
56348W        W20292  39.381  26.951   0.335
56349W        W20293  15.627  11.268   4.754
56350W        W20294  43.464  11.651   4.115
56351W        W20295   8.190  27.629  10.422
56352W        W20296  36.868  18.148  13.847
56353W        W20297  28.137   7.811  12.891
56354W        W20298  33.080  28.563   2.782
56355W        W20299  22.196  37.855  14.283
56356W        W20300  37.352  22.556  12.464
56357W        W20301  37.340  43.921   0.423
56358W        W20302  41.029  17.179   0.278
56359W        W20303  26.653  35.420  14.979
56360W        W20304  25.001   4.394  10.407
56361W        W20305  34.450  25.174  13.462
56362W        W20306  17.577   6.857  10.114
56363W        W20307  44.462   9.337  13.445
56364W        W20308  24.720  20.758  14.814
56365W        W20309   0.290   1.861   1.439
56366W        W20310   6.768  30.944  14.314
56367W        W20311  12.150  15.710  13.521
56368W        W20312  43.484  26.200   0.456
56369W        W20313  15.324   2.305  10.132
56370W        W20314  13.750  29.602  11.921
56371W        W20315   9.352   6.187   4.351
56372W        W20316  16.614  26.103  11.395
56373W        W20317   8.371  37.356   4.693
56374W        W20318  20.269  30.428   0.851
56375W        W20319  13.625  17.714  12.519
56376W        W20320  23.136  37.476   0.833
56377W        W20321  29.575  30.635   1.863
56378W        W20322   1.812  20.637   0.310
56379W        W20323  12.264  35.959  13.449
56380W        W20324  41.013  36.963   0.316
56381W        W20325  21.133   4.712  10.995
56382W        W20326  43.857  36.843  14.759
56383W        W20327   7.390   1.773   4.247
56384W        W20328  40.967  17.698  11.918
56385W        W20329  40.019  27.564   4.700
56386W        W20330  41.913  24.072   1.399
56387W        W20331  32.059  32.625  14.836
56388W        W20332  40.801   4.400   3.725
56389W        W20333   3.758  28.437   2.352
56390W        W20334  26.096  36.359  14.801
56391W        W20335   8.383  26.489   1.698
56392W        W20336  16.773  11.266  11.048
56393W        W20337  41.042   1.750   0.354
56394W        W20338   3.248   2.326   4.618
56395W        W20339  26.488  22.086   0.734
56396W        W20340  31.153  24.007  13.455
56397W        W20341  12.673  18.570   3.363
56398W        W20342  22.590   4.927   2.246
56399W        W20343  14.231  23.241   3.201
56400W        W20344  40.005  15.093   1.747
56401W        W20345  12.693  13.179   0.407
56402W        W20346  34.075  35.866   4.788
56403W        W20347  10.369   8.666  14.328
56404W        W20348  13.313   3.795   1.216
56405W        W20349   3.432   4.754   0.736
56406W        W20350  31.143  17.250   5.283
56407W        W20351  39.486  23.223   3.828
56408W        W20352  36.058  32.606   0.256
56409W        W20353  11.633  20.694  11.453
56410W        W20354  17.128  14.281  11.068
56411W        W20355  43.370   5.718  12.064
56412W        W20356  15.314  35.371  10.139
56413W        W20357  24.682  44.896  13.928
56414W        W20358  22.521  38.829   1.366
56415W        W20359  27.003   6.698   4.237
56416W        W20360  26.128  19.600   3.180
56417W        W20361   8.784  34.558   0.432
56418W        W20362  34.523  11.248   0.805
56419W        W20363  20.625  26.973  13.949
56420W        W20364  22.204  22.555   3.188
56421W        W20365  43.898  12.188   1.260
56422W        W20366  37.393  33.582   0.335
56423W        W20367  37.451   0.847  10.468
56424W        W20368   1.285  15.309   4.164
56425W        W20369  29.525  26.674   4.197
56426W        W20370   7.674  17.207   0.879
56427W        W20371  24.210  27.134  11.917
56428W        W20372  18.547  25.121  14.379
56429W        W20373  12.736  31.417   4.148
56430W        W20374   8.235  32.963   0.811
56431W        W20375   4.833   5.196   4.634
56432W        W20376  25.179  43.447  12.936
56433W        W20377  13.769  17.237   4.319
56434W        W20378  38.898  33.543   1.215
56435W        W20379  20.200   3.951   2.851
56436W        W20380  18.553   1.852  10.529
56437W        W20381   6.707  12.620  13.930
56438W        W20382  10.291  24.198   2.831
56439W        W20383   3.905  42.898  12.960
56440W        W20384   4.790  18.078  14.832
56441W        W20385   8.708  28.124   4.354
56442W        W20386  16.073  41.477  13.386
56443W        W20387  43.805  42.341   2.756
56444W        W20388  10.675  31.147  13.325
56445W        W20389  16.666  14.697  13.496
56446W        W20390  11.193   3.709   4.247
56447W        W20391  35.004  39.489   0.866
56448W        W20392  32.047  20.063  11.933
56449W        W20393  23.126  41.477   4.805
56450W        W20394   4.760   1.372  12.890
56451W        W20395  34.542  33.012  12.859
56452W        W20396  27.034   3.926   0.268
56453W        W20397  12.771  43.881  14.780
56454W        W20398   6.427   9.188   0.460
56455W        W20399   5.730  28.589   3.340
56456W        W20400  20.717  23.051  11.090
56457W        W20401  22.624  22.194  14.335
56458W        W20402  20.272  29.117  10.939
56459W        W20403  33.891  21.601   2.250
56460W        W20404   3.945  20.635   3.648
56461W        W20405  20.625  12.809  11.969
56462W        W20406   0.274   9.368  14.981
56463W        W20407   5.262  42.004  12.988
56464W        W20408  26.151  26.501  12.984
56465W        W20409  37.359  29.999  11.969
56466W        W20410  32.623   2.931   3.705
56467W        W20411  11.714  16.694  10.644
56468W        W20412  28.130  10.324  14.403
56469W        W20413   7.865   2.317   1.223
56470W        W20414   9.395  43.279  12.865
56471W        W20415   0.818   7.716  13.452
56472W        W20416  20.191  14.590  12.346
56473W        W20417  15.240   8.203   4.671
56474W        W20418  29.661  33.955  10.901
56475W        W20419  24.512  43.444  13.884
56476W        W20420  15.803   0.464   5.218
56477W        W20421  42.882  33.605  12.046
56478W        W20422  30.947  34.437  11.934
56479W        W20423  14.735  43.331   2.795
56480W        W20424  25.579  17.141   2.771
56481W        W20425  31.054  33.132  14.317
56482W        W20426  14.116  19.533  13.518
56483W        W20427  39.824   1.383   3.334
56484W        W20428  17.686   4.875  14.931
56485W        W20429  30.534  14.200   1.716
56486W        W20430   4.278  13.607   0.381
56487W        W20431  19.127   4.822  12.052
56488W        W20432  42.399   8.811   4.249
56489W        W20433  10.876  27.976   3.634
56490W        W20434  34.530   9.889   0.739
56491W        W20435  20.571  42.818  11.452
56492W        W20436  31.525  28.004   0.469
56493W        W20437   4.218  20.532   0.955
56494W        W20438  18.073  24.597  14.417
56495W        W20439  19.659   2.884  13.914
56496W        W20440   7.300  43.881   4.626
56497W        W20441  16.303  12.348   3.330
56498W        W20442  13.328   9.366  13.798
56499W        W20443  39.440  13.305   2.864
56500W        W20444  16.183   8.306  11.462
56501W        W20445  34.048  29.059   0.931
56502W        W20446  21.613   4.742   0.912
56503W        W20447  27.154  23.228   3.248
56504W        W20448  36.581  17.717  13.885
56505W        W20449   9.267   6.200   0.271
56506W        W20450   7.171  15.265  14.478
56507W        W20451  31.423   2.863  10.981
56508W        W20452  26.624  31.406   3.730
56509W        W20453  34.448  23.605   1.711
56510W        W20454  33.982  31.985   2.863
56511W        W20455  21.627  21.138   1.856
56512W        W20456   6.722  24.986   4.158
56513W        W20457  44.954  35.518  13.838
56514W        W20458  44.883  39.454  14.970
56515W        W20459  20.630  16.611  14.821
56516W        W20460  37.951  25.143  14.471
56517W        W20461  39.424  17.683  11.047
56518W        W20462   3.233  22.691  12.847
56519W        W20463  39.343  33.118   2.743
56520W        W20464  38.962  29.160   4.749
56521W        W20465  11.185   2.842  11.108
56522W        W20466  40.805  15.325   2.776
56523W        W20467  20.747  42.852  13.025
56524W        W20468  29.581   9.363  10.910
56525W        W20469  20.033  17.069  14.463
56526W        W20470  44.821  36.516   1.718
56527W        W20471  13.141  13.250  14.861
56528W        W20472   5.207  13.745  10.486
56529W        W20473  32.604  23.169   3.304
56530W        W20474  30.063  28.942   0.390
56531W        W20475  16.280  29.506  14.867
56532W        W20476  31.583  17.577  12.086
56533W        W20477   7.788  11.793  12.351
56534W        W20478   8.231  32.497   3.799
56535W        W20479  23.674   0.815   1.368
56536W        W20480  30.105  24.582   2.202
56537W        W20481   4.734  22.522   1.791
56538W        W20482  29.527  18.076   2.868
56539W        W20483   1.403  18.183   0.921
56540W        W20484  42.419  14.303   2.261
56541W        W20485   2.340   5.698   5.761
56542W        W20486   8.756   7.750  12.942
56543W        W20487  43.986  11.806  12.878
56544W        W20488   6.839   9.752   1.396
56545W        W20489  27.080   0.456   4.353
56546W        W20490  39.392  20.530  11.030
56547W        W20491  22.115  20.664   2.884
56548W        W20492  20.686  31.434   2.772
56549W        W20493  23.143  32.132   0.769
56550W        W20494  10.743  44.318   1.365
56551W        W20495  44.290   1.306  13.889
56552W        W20496  44.805  32.014   3.810
56553W        W20497  44.842  21.536  13.479
56554W        W20498  29.935  39.008   4.179
56555W        W20499   8.200  28.480  11.965
56556W        W20500  26.029  44.467  12.450
56557W        W20501  32.430  30.115   3.766
56558W        W20502  32.022  14.697  14.998
56559W        W20503   9.373   4.285  11.529
56560W        W20504  11.372  18.619  14.308
56561W        W20505  29.029  19.064   1.278
56562W        W20506  13.254  27.586   3.857
56563W        W20507  28.943  26.588  12.909
56564W        W20508  41.465  44.826   3.335
56565W        W20509  19.142  16.712   2.346
56566W        W20510  22.104  21.228  11.868
56567W        W20511   4.412   1.354  11.910
56568W        W20512  11.220   0.463  12.528
56569W        W20513  21.715  30.498   3.323
56570W        W20514   6.918   7.342  11.456
56571W        W20515  15.189  24.648  10.089
56572W        W20516  32.134  18.228   3.261
56573W        W20517   4.894  38.407  11.916
56574W        W20518  38.480  44.358  10.497
56575W        W20519  10.306   5.841   3.841
56576W        W20520  32.502   7.838   0.366
56577W        W20521  24.012   2.866   3.159
56578W        W20522   6.226  28.598   9.533
56579W        W20523  20.607  29.056   1.211
56580W        W20524  39.993  25.191  14.937
56581W        W20525  32.511  12.192  11.520
56582W        W20526   2.813   1.376   4.253
56583W        W20527   4.859  24.226  10.571
56584W        W20528  14.251  16.151  11.023
56585W        W20529  26.595   9.755   0.350
56586W        W20530  24.544  43.779   2.398
56587W        W20531  22.633  35.392  11.085
56588W        W20532   0.281  26.652  13.461
56589W        W20533  39.982  28.518   2.743
56590W        W20534   0.883  13.635   1.926
56591W        W20535  44.471   6.358  13.063
56592W        W20536  19.706  37.509  13.870
56593W        W20537  22.072  29.520   2.395
56594W        W20538  25.044  44.393   3.856
56595W        W20539   3.789  42.857   3.227
56596W        W20540   1.778  20.585  12.968
56597W        W20541  24.035   9.832  12.022
56598W        W20542   4.404  41.940  11.429
56599W        W20543  28.452  17.729   0.785
56600W        W20544  23.141  30.623   1.299
56601W        W20545  43.993  20.744   2.397
56602W        W20546  28.453  36.065   0.471
56603W        W20547   3.725  35.095   2.268
56604W        W20548  28.458  36.076   3.802
56605W        W20549  24.202  17.118   4.343
56606W        W20550  24.997  22.582  13.810
56607W        W20551   5.737  24.124   2.813
56608W        W20552  38.948  32.562   3.240
56609W        W20553  12.350  42.372  14.922
56610W        W20554  22.565   9.229  12.894
56611W        W20555  36.388  38.981   2.206
56612W        W20556  12.661  26.157   4.344
56613W        W20557   4.722  17.556  13.438
56614W        W20558  10.219  22.217  14.919
56615W        W20559   9.816   2.291   2.872
56616W        W20560  34.994  22.011  11.944
56617W        W20561  12.722  10.300  13.538
56618W        W20562  41.394  17.220  11.000
56619W        W20563  42.029  19.141   3.697
56620W        W20564   3.781  35.591   3.260
56621W        W20565  40.012  28.935  14.910
56622W        W20566  44.355  28.619   3.344
56623W        W20567  42.317  39.314  11.876
56624W        W20568   3.835  42.391   2.319
56625W        W20569  34.879   4.783   3.361
56626W        W20570   7.788  21.188  11.857
56627W        W20571  21.734  27.658  12.369
56628W        W20572  38.031  31.486   3.629
56629W        W20573  32.091  27.451  13.543
56630W        W20574  41.870  38.997  14.417
56631W        W20575  28.969  21.073  11.520
56632W        W20576  15.317   1.773   2.742
56633W        W20577  15.818  18.125  14.957
56634W        W20578  28.476  18.690  14.912
56635W        W20579  28.968  43.936  14.986
56636W        W20580  31.920  22.744   0.264
56637W        W20581   5.792  15.766  13.529
56638W        W20582  34.542  22.013   4.608
56639W        W20583  29.519  44.939   4.735
56640W        W20584   6.329  41.012  11.103
56641W        W20585  36.068  35.039  14.417
56642W        W20586  11.138  38.076   4.666
56643W        W20587  18.569  34.486  14.504
56644W        W20588  41.867   2.301   3.757
56645W        W20589   2.966  24.079  14.834
56646W        W20590  41.363  32.921   3.852
56647W        W20591  44.404   4.707   3.649
56648W        W20592  43.957  38.504  13.986
56649W        W20593  18.713  41.332   1.351
56650W        W20594  31.913  18.762  13.884
56651W        W20595  35.048  14.278  14.759
56652W        W20596   5.370  31.517  11.559
56653W        W20597  32.582  22.548   3.287
56654W        W20598  37.006  41.469   4.814
56655W        W20599  10.144  44.795   2.284
56656W        W20600  17.067  28.572  14.514
56657W        W20601  11.637   4.399   2.325
56658W        W20602  26.658  41.835   3.863
56659W        W20603  24.511  39.868   3.360
56660W        W20604  38.384  10.661  12.381
56661W        W20605   5.308  17.693  12.876
56662W        W20606  30.549  43.992   4.604
56663W        W20607   8.356  11.203  11.878
56664W        W20608   3.290  10.366   3.357
56665W        W20609  15.624   4.945  11.091
56666W        W20610  30.571   3.747   0.432
56667W        W20611  38.829   1.798  11.581
56668W        W20612  11.296   9.771   4.298
56669W        W20613  16.761  30.123  12.356
56670W        W20614   3.863  42.824   2.342
56671W        W20615  20.140  25.102  10.528
56672W        W20616  27.652  24.689   4.794
56673W        W20617  19.771  44.435   0.444
56674W        W20618  25.071   3.299   0.323
56675W        W20619  29.426  32.402  10.606
56676W        W20620  25.478  42.816  10.464
56677W        W20621  10.252  24.184   1.334
56678W        W20622  29.521  20.636  13.507
56679W        W20623  20.650  32.408  10.446
56680W        W20624  23.027  16.592  12.977
56681W        W20625  36.096  44.367  12.349
56682W        W20626  20.530   0.290   3.737
56683W        W20627  14.303  24.490   1.282
56684W        W20628  32.625   1.443  10.940
56685W        W20629  24.625  16.702  14.510
56686W        W20630  15.266  22.622  14.799
56687W        W20631   5.229  23.164   0.900
56688W        W20632   6.278   5.294  14.304
56689W        W20633  29.575  22.163   3.234
56690W        W20634  27.072   5.349  11.608
56691W        W20635  16.692  20.037   0.339
56692W        W20636   4.289  27.180   3.246
56693W        W20637  29.970   2.433   3.817
56694W        W20638  11.353   7.869  13.904
56695W        W20639  42.947  18.158   0.943
56696W        W20640   6.319  10.855   1.816
56697W        W20641  13.238  30.992  13.456
56698W        W20642  21.636  17.219  14.005
56699W        W20643  24.581  25.018   3.752
56700W        W20644  23.562  27.031  10.640
56701W        W20645   2.804  38.333  13.350
56702W        W20646   2.380   0.250   4.658
56703W        W20647  25.639  12.193   1.443
56704W        W20648  33.051  37.385  11.530
56705W        W20649   7.344  44.282  13.542
56706W        W20650  43.456  35.537  10.561
56707W        W20651  22.226  26.489   1.723
56708W        W20652  24.218  26.103   0.776
56709W        W20653  42.863  35.441   0.824
56710W        W20654  22.155  30.626  12.428
56711W        W20655   0.970  26.136   2.884
56712W        W20656  26.610  40.310   3.159
56713W        W20657  14.165  33.549  12.886
56714W        W20658  34.056  12.664   2.808
56715W        W20659  13.663   7.742  14.395
56716W        W20660  39.042  37.968  13.991
56717W        W20661  19.179  37.537   1.243
56718W        W20662  16.179  31.555   0.877
56719W        W20663  44.947  31.457   4.718
56720W        W20664  38.336  10.745  13.868
56721W        W20665   3.756  16.765  13.064
56722W        W20666  17.147  38.382  13.400
56723W        W20667  24.981  29.015   9.974
56724W        W20668  18.708   7.244   4.618
56725W        W20669  19.274  37.081   1.882
56726W        W20670  23.120   6.272   1.328
56727W        W20671  32.894  22.094   1.320
56728W        W20672  19.141  21.168  12.409
56729W        W20673   9.234   2.232  14.908
56730W        W20674  33.048  24.643   4.825
56731W        W20675  23.998   9.341  13.887
56732W        W20676  31.152  30.039  12.856
56733W        W20677  29.481  21.679   0.741
56734W        W20678  21.173   7.353  10.072
56735W        W20679  42.998  28.674   1.318
56736W        W20680  44.820  17.098  12.578
56737W        W20681   4.348  34.106   3.654
56738W        W20682  16.800  24.123  11.406
56739W        W20683  37.077  26.601   0.816
56740W        W20684   4.377  14.605  14.401
56741W        W20685   9.851  37.847   3.176
56742W        W20686  36.038  42.517   3.286
56743W        W20687  36.965   3.826  13.333
56744W        W20688  42.911  16.223   0.423
56745W        W20689  12.740  14.803  12.543
56746W        W20690  10.158   2.468   1.731
56747W        W20691   0.817  19.133  14.317
56748W        W20692  40.983  42.326  13.375
56749W        W20693  44.004  38.820  13.382
56750W        W20694  35.092  43.417   4.285
56751W        W20695  21.028  38.063  14.295
56752W        W20696  25.570  28.980   3.866
56753W        W20697  37.506  29.169   4.762
56754W        W20698   0.344  13.173   1.878
56755W        W20699   3.943  14.830   0.812
56756W        W20700  12.625  35.092   4.187
56757W        W20701  26.999  38.352   1.361
56758W        W20702   0.370   5.411  10.161
56759W        W20703  23.991  13.222  14.295
56760W        W20704  43.826  31.457  14.904
56761W        W20705  17.758   1.425   1.446
56762W        W20706  29.104  35.448   3.368
56763W        W20707  23.621  14.250  12.051
56764W        W20708   9.799   5.786  11.475
56765W        W20709   3.441  12.790   4.285
56766W        W20710   0.787  12.683   0.812
56767W        W20711  34.040  17.187   1.900
56768W        W20712  40.887  39.908   3.832
56769W        W20713   3.330  39.550  14.293
56770W        W20714  39.429   1.754  12.559
56771W        W20715  18.702   6.311   2.856
56772W        W20716  23.232   1.403  11.429
56773W        W20717  35.527  13.253   1.414
56774W        W20718  31.134  26.464  12.464
56775W        W20719   3.369  28.098  13.054
56776W        W20720  22.238  31.089  11.439
56777W        W20721  35.867  23.607   3.372
56778W        W20722  18.235   9.698  11.979
56779W        W20723  41.908  22.595   0.246
56780W        W20724  16.242  41.331  14.969
56781W        W20725  10.824   4.328  11.095
56782W        W20726  33.409   8.168   4.304
56783W        W20727   9.786  33.130   0.798
56784W        W20728  13.186  10.706  14.928
56785W        W20729  33.979   8.753  11.090
56786W        W20730  21.686  16.678  12.506
56787W        W20731  17.077  42.475   3.216
56788W        W20732  35.516   8.354  12.521
56789W        W20733   6.714  29.931   4.654
56790W        W20734  34.016  30.055  13.884
56791W        W20735   7.712  18.740   1.901
56792W        W20736  30.590   9.878   1.343
56793W        W20737  40.042  29.003  12.969
56794W        W20738  37.961  37.487  14.336
56795W        W20739  12.120  44.264  10.007
56796W        W20740  18.199  11.195   5.305
56797W        W20741   5.910   0.446   3.863
56798W        W20742  14.588  23.491   4.761
56799W        W20743   2.735  41.005   3.755
56800W        W20744  17.710  22.028  13.918
56801W        W20745   9.685  42.390  13.891
56802W        W20746   0.301  15.804   0.735
56803W        W20747  31.029  24.114  13.994
56804W        W20748   8.809  43.355  10.614
56805W        W20749  14.264  15.100   4.663
56806W        W20750  21.252  20.179   3.283
56807W        W20751  36.855  25.473  10.932
56808W        W20752  20.153   7.386   1.792
56809W        W20753  42.417  39.868   1.450
56810W        W20754  44.842   0.900   4.731
56811W        W20755  14.247   8.363  10.520
56812W        W20756  33.099   0.300  13.038
56813W        W20757  39.995  36.453  13.439
56814W        W20758   1.972  15.801  14.788
56815W        W20759  41.848  32.532   2.196
56816W        W20760  16.145  14.184  13.862
56817W        W20761   9.806  13.123  13.390
56818W        W20762   3.372  18.780  11.538
56819W        W20763  14.303  23.038   1.359
56820W        W20764  40.951   4.389   3.271
56821W        W20765   4.933  11.725   4.665
56822W        W20766  26.027   4.930  11.545
56823W        W20767  24.570  23.566  13.529
56824W        W20768   2.772  10.335   5.105
56825W        W20769  25.518  17.624  12.954
56826W        W20770  23.171  42.957   3.219
56827W        W20771  14.818  37.937  14.873
56828W        W20772  44.952  39.514   2.897
56829W        W20773  30.564   3.248   3.301
56830W        W20774  16.275  33.555   2.835
56831W        W20775  32.528  34.469   3.742
56832W        W20776  19.241  25.661  13.030
56833W        W20777  25.987  16.771   4.228
56834W        W20778  13.844  20.727   0.277
56835W        W20779  37.073  35.973   4.645
56836W        W20780  30.470   9.807   0.930
56837W        W20781  37.364   5.347  13.491
56838W        W20782  26.013  19.670   4.153
56839W        W20783  30.964   8.840   3.775
56840W        W20784   6.843  19.719  11.119
56841W        W20785  14.807  11.195  10.906
56842W        W20786  29.921  11.841  13.840
56843W        W20787  12.654  27.169  13.978
56844W        W20788  11.845  27.193   1.318
56845W        W20789  18.180   1.811  13.901
56846W        W20790  28.539  43.921  14.796
56847W        W20791  12.657  11.133   1.362
56848W        W20792  25.963  16.604   0.367
56849W        W20793  28.477  44.869  13.987
56850W        W20794  43.903  35.517  14.796
56851W        W20795   6.690  38.970   0.268
56852W        W20796   7.666  20.158   2.356
56853W        W20797   3.304   3.887  13.008
56854W        W20798  24.177   7.368  13.013
56855W        W20799  22.046   5.373  13.019
56856W        W20800  11.147   0.960  14.374
56857W        W20801   5.858   7.192   1.411
56858W        W20802  10.286   7.795   2.342
56859W        W20803   6.268  26.003  11.935
56860W        W20804   0.759  41.408   3.280
56861W        W20805   7.195  20.244  14.874
56862W        W20806  15.641  40.354  13.033
56863W        W20807  14.110  42.516   4.277
56864W        W20808  26.616  44.424   1.449
56865W        W20809  31.411  23.706   3.839
56866W        W20810  22.246  38.462   3.378
56867W        W20811   3.801   5.913   9.649
56868W        W20812  39.827  13.120  14.977
56869W        W20813  26.060   6.335  13.489
56870W        W20814  12.757  12.318  12.874
56871W        W20815   8.166  41.941  11.594
56872W        W20816   8.740  37.413   1.317
56873W        W20817  38.893  24.626  10.471
56874W        W20818  33.036  31.493   0.766
56875W        W20819  29.661   7.680   5.316
56876W        W20820  43.953   6.386   0.437
56877W        W20821  19.052  39.554   1.350
56878W        W20822  14.304   8.864  14.396
56879W        W20823  27.999  19.084   5.150
56880W        W20824  26.541  36.854  13.442
56881W        W20825  12.835   3.952  10.934
56882W        W20826  23.597   7.809  12.519
56883W        W20827  16.628  16.707   2.741
56884W        W20828  33.093  38.046   4.158
56885W        W20829  42.830  12.802  11.105
56886W        W20830  14.615  22.629  10.938
56887W        W20831  42.290  44.840  14.366
56888W        W20832  44.805  32.564   2.786
56889W        W20833  34.478  23.634  10.506
56890W        W20834   7.178  21.067  13.333
56891W        W20835  16.075  34.525   0.276
56892W        W20836  33.935  35.589  14.421
56893W        W20837  17.746  13.653  12.422
56894W        W20838   4.945  32.551   4.778
56895W        W20839   1.372  13.244  14.795
56896W        W20840  41.993  22.631  13.822
56897W        W20841  24.595  41.020   0.377
56898W        W20842  18.231   9.799  14.430
56899W        W20843  29.964   6.899   0.921
56900W        W20844  15.795  44.003   2.737
56901W        W20845  24.183  40.033   4.653
56902W        W20846  33.000   0.824  10.480
56903W        W20847  33.901  31.590  13.433
56904W        W20848  28.150  22.514   5.237
56905W        W20849  36.017  25.193   2.824
56906W        W20850  36.098  42.957   3.651
56907W        W20851  38.072  15.691   3.299
56908W        W20852  24.489  20.618  12.856
56909W        W20853   6.688  31.600  10.942
56910W        W20854   7.246  12.245   0.481
56911W        W20855   8.320  14.651   4.815
56912W        W20856  27.014  39.840   1.320
56913W        W20857  13.260  39.002   9.919
56914W        W20858   5.720   7.401   3.674
56915W        W20859  42.376  36.575   2.342
56916W        W20860  43.324  22.152   4.332
56917W        W20861  44.966   4.277   0.299
56918W        W20862  30.542  40.426  13.873
56919W        W20863  21.238  17.576  13.362
56920W        W20864   1.386  37.378  12.501
56921W        W20865  25.128  43.398   0.895
56922W        W20866  41.528  20.236  12.013
56923W        W20867  19.280  17.075   0.838
56924W        W20868  26.669   3.276  13.863
56925W        W20869  32.111  25.708   3.147
56926W        W20870  25.657  19.184   1.211
56927W        W20871  42.997  30.967  11.952
56928W        W20872   4.301   8.288   0.448
56929W        W20873  26.599  10.823   4.352
56930W        W20874  13.178  16.623   1.315
56931W        W20875  21.236   4.728  14.420
56932W        W20876  11.162  33.535  13.988
56933W        W20877   1.735  22.606   0.476
56934W        W20878  38.422  36.593  14.326
56935W        W20879  30.052  15.634  10.593
56936W        W20880  14.681  34.481  13.520
56937W        W20881  24.131  33.521  10.980
56938W        W20882   0.959   6.186  14.791
56939W        W20883   8.824  25.577  11.455
56940W        W20884  37.858  26.486  13.869
56941W        W20885  38.047  33.969  12.537
56942W        W20886  29.456  40.423   2.412
56943W        W20887  32.622  25.133  13.435
56944W        W20888   7.264   8.297   4.746
56945W        W20889  42.003  11.640   3.377
56946W        W20890  37.353  19.546   1.821
56947W        W20891  34.054  11.630   0.298
56948W        W20892  27.543   9.347   2.338
56949W        W20893  34.577  20.662   0.252
56950W        W20894  33.993  40.405   2.846
56951W        W20895  24.564  13.312   2.884
56952W        W20896  14.132  37.023  11.939
56953W        W20897  27.974  14.239  10.469
56954W        W20898  34.071  14.203  10.632
56955W        W20899  22.728  42.947  14.418
56956W        W20900  19.581  20.703   1.719
56957W        W20901  22.521  32.468   3.270
56958W        W20902   5.836  22.092  12.354
56959W        W20903  15.203  12.676  11.099
56960W        W20904   6.203   7.325  13.330
56961W        W20905   5.918  40.036  14.906
56962W        W20906  44.007   5.907  10.930
56963W        W20907   0.965  13.603  10.990
56964W        W20908   5.322   8.292  13.872
56965W        W20909  18.575  40.500  11.097
56966W        W20910   8.376  15.129   5.220
56967W        W20911   1.894  26.556  14.914
56968W        W20912   9.786  40.400  10.531
56969W        W20913  25.596  13.736  12.482
56970W        W20914  18.218  18.215  14.405
56971W        W20915   8.178  16.297   4.130
56972W        W20916   4.772  13.190  12.910
56973W        W20917  35.392  20.733  14.361
56974W        W20918  22.551  34.111   0.755
56975W        W20919  12.230  20.192  11.445
56976W        W20920   2.828  16.760   3.241
56977W        W20921  27.171  40.999  14.937
56978W        W20922  25.567  22.246   1.369
56979W        W20923  26.612  26.495  12.983
56980W        W20924  39.874  23.119  14.002
56981W        W20925  23.206  31.501   3.149
56982W        W20926  28.646  31.957  11.104
56983W        W20927  10.802  16.793  10.959
56984W        W20928   9.290  28.041  12.513
56985W        W20929  21.521   3.419   0.792
56986W        W20930  27.474  38.856   2.763
56987W        W20931   0.918  42.803   5.089
56988W        W20932  14.278  23.189  13.530
56989W        W20933  44.413  15.252   0.879
56990W        W20934   2.801  29.510   3.374
56991W        W20935  15.213   0.820  14.465
56992W        W20936   0.311  10.854   3.150
56993W        W20937  17.693   1.798   4.728
56994W        W20938  11.814  38.900   5.169
56995W        W20939  28.593  19.284   2.849
56996W        W20940  42.308  18.762   1.280
56997W        W20941  44.391  23.735   1.342
56998W        W20942  34.600  25.087  11.895
56999W        W20943   7.724  35.444   1.447
57000W        W20944   5.271  22.647  10.588
57001W        W20945  32.440  18.191  13.967
57002W        W20946  26.024  36.010   2.258
57003W        W20947  17.715   9.769  14.856
57004W        W20948  22.708   8.711  11.898
57005W        W20949   0.938  17.754   1.419
57006W        W20950  13.787  39.935  13.389
57007W        W20951   0.825  21.058  11.519
57008W        W20952   8.201  23.535   1.219
57009W        W20953  26.552  19.101  10.469
57010W        W20954  33.516  20.769   4.330
57011W        W20955  17.679   4.390   2.786
57012W        W20956  12.636  19.065   4.191
57013W        W20957  38.929  38.493   0.259
57014W        W20958  30.908  39.389   1.889
57015W        W20959   2.894  23.733   3.192
57016W        W20960  43.492   3.262  13.044
57017W        W20961  32.993  20.713  14.788
57018W        W20962  31.950  29.971  11.428
57019W        W20963  40.399   5.844   3.357
57020W        W20964  42.843  25.123  12.967
57021W        W20965  27.047   8.674  13.878
57022W        W20966  29.127  21.023  14.856
57023W        W20967   0.364  30.069   1.276
57024W        W20968  20.110  42.787   4.242
57025W        W20969  43.376  14.224  13.006
57026W        W20970  39.859  15.269   3.702
57027W        W20971  36.587  13.746  11.073
57028W        W20972  19.766  20.586   3.864
57029W        W20973  17.272  33.098  11.944
57030W        W20974   1.277   7.249  13.010
57031W        W20975   3.908  42.451  10.588
57032W        W20976  28.139   1.866   0.478
57033W        W20977  15.617   7.319  12.384
57034W        W20978   1.860  21.043  13.396
57035W        W20979  37.049  17.662   2.759
57036W        W20980   4.399   8.828   1.355
57037W        W20981  44.296  31.094   1.777
57038W        W20982  15.734  33.540   4.752
57039W        W20983  16.085   3.951  13.349
57040W        W20984  40.362   5.801   2.897
57041W        W20985  13.768   8.698  12.405
57042W        W20986  29.079   2.761   2.695
57043W        W20987   6.909  38.992   3.360
57044W        W20988  44.389   2.242  12.849
57045W        W20989   3.935  40.357  14.957
57046W        W20990  35.969  12.743   0.781
57047W        W20991   3.841   3.755   4.728
57048W        W20992  15.084  34.530   0.791
57049W        W20993  38.060  35.896  14.818
57050W        W20994   1.806   3.426   0.362
57051W        W20995  39.548   4.388  14.476
57052W        W20996   4.737  15.198  10.476
57053W        W20997  33.887   9.234   1.713
57054W        W20998  28.591   6.836   3.676
57055W        W20999  21.595  35.493  13.916
57056W        W21000   2.784  36.086  11.053
57057W        W21001  39.894  33.604   4.659
57058W        W21002  24.078   0.473   0.934
57059W        W21003   9.359  40.487   3.283
57060W        W21004   0.880  31.128   4.749
57061W        W21005  30.423  37.995   0.779
57062W        W21006  41.888  31.423  14.333
57063W        W21007  26.514  21.234  14.441
57064W        W21008   3.453  12.172   3.296
57065W        W21009  13.800  28.555  11.902
57066W        W21010  37.443   6.221   2.687
57067W        W21011  15.648  24.980   0.481
57068W        W21012  21.232  19.152   2.362
57069W        W21013  40.374   5.839   4.339
57070W        W21014   5.207  24.539  10.572
57071W        W21015  24.581  37.556   1.387
57072W        W21016  29.095  17.158   0.878
57073W        W21017   2.467  12.804   3.674
57074W        W21018  41.014  24.193  10.949
57075W        W21019  41.940   4.770   3.245
57076W        W21020  17.583  26.538   2.674
57077W        W21021  36.388  37.472   5.095
57078W        W21022  12.756  21.205  14.837
57079W        W21023  18.137  22.158  11.993
57080W        W21024  20.669   2.267   2.257
57081W        W21025  31.486  27.606   2.720
57082W        W21026  28.082  23.149  10.630
57083W        W21027   2.229  24.501   3.173
57084W        W21028  28.536  27.008   2.353
57085W        W21029  21.139  20.542   3.212
57086W        W21030  10.878  17.144   9.977
57087W        W21031  41.926  12.336  12.024
57088W        W21032  26.104  41.305   0.323
57089W        W21033  17.131  42.852  11.926
57090W        W21034  42.369  12.283  11.437
57091W        W21035  11.317  25.692   4.208
57092W        W21036  26.165   0.479   3.832
57093W        W21037   4.362  22.248   1.806
57094W        W21038  42.310  35.527   1.842
57095W        W21039  18.594  18.672  10.952
57096W        W21040  40.987  11.703  14.976
57097W        W21041  44.873  40.019  13.003
57098W        W21042   1.963   7.669  11.856
57099W        W21043  43.481  35.531  13.801
57100W        W21044  43.780  40.321  10.627
57101W        W21045  18.106  44.273  11.097
57102W        W21046  12.637  33.013   1.302
57103W        W21047  28.653  25.569   0.827
57104W        W21048  29.137  42.857   4.745
57105W        W21049  15.607  14.131  12.522
57106W        W21050  39.324  37.400   2.191
57107W        W21051   5.853  11.200   1.866
57108W        W21052  38.893  17.751  13.453
57109W        W21053  39.485  14.129  13.865
57110W        W21054  15.190  19.687   2.870
57111W        W21055   4.395  15.629  14.866
57112W        W21056  20.683  39.345   0.860
57113W        W21057   9.832   4.356   3.259
57114W        W21058   0.476   1.952   0.769
57115W        W21059  43.442  33.578   2.819
57116W        W21060  44.370  42.401   3.263
57117W        W21061   1.733  22.036   4.219
57118W        W21062  25.531   5.406   2.361
57119W        W21063  35.858  39.838  13.428
57120W        W21064  44.924  31.147  12.514
57121W        W21065   1.825  27.686   2.272
57122W        W21066   6.403  10.262   4.205
57123W        W21067   1.264  12.209   2.769
57124W        W21068  44.335  24.519   1.794
57125W        W21069  23.731  37.351   1.314
57126W        W21070  11.753   4.895   5.097
57127W        W21071  20.095  21.647   0.909
57128W        W21072   4.411  23.095  14.765
57129W        W21073   1.779  33.621   0.847
57130W        W21074  29.146  10.234   1.929
57131W        W21075  24.680  38.971  10.443
57132W        W21076  34.912   3.850  11.429
57133W        W21077  29.082  43.823   1.236
57134W        W21078  34.088  43.340  10.544
57135W        W21079  34.527  18.714   3.343
57136W        W21080  11.853   2.832   0.483
57137W        W21081  37.446   5.194  13.942
57138W        W21082  22.530  40.452   1.705
57139W        W21083  19.760  25.713   0.958
57140W        W21084  28.556  40.463   1.837
57141W        W21085  16.620  41.324   3.299
57142W        W21086  21.170   0.288  12.389
57143W        W21087  37.486   0.977  12.070
57144W        W21088   5.232   2.251  11.588
57145W        W21089  42.335  21.185  14.872
57146W        W21090  25.082  13.197   1.804
57147W        W21091  39.896  29.507   4.147
57148W        W21092   7.789  34.444  14.947
57149W        W21093  35.464   1.799  13.532
57150W        W21094  15.758  11.139   0.316
57151W        W21095  25.573  16.238  10.537
57152W        W21096  26.697  20.744  10.414
57153W        W21097  24.713  10.288  12.552
57154W        W21098  17.074  38.847   1.713
57155W        W21099  30.482  20.177   3.636
57156W        W21100  38.058  20.208   0.323
57157W        W21101  11.765   7.723  13.929
57158W        W21102  30.116  13.180   3.355
57159W        W21103  10.760  42.419  11.504
57160W        W21104  23.630  33.058   1.895
57161W        W21105  31.609  16.606   2.809
57162W        W21106  21.187  30.613  10.968
57163W        W21107   2.419  41.882   4.350
57164W        W21108  44.956  43.892  10.585
57165W        W21109  40.406  12.261  13.877
57166W        W21110  39.905  16.128   2.250
57167W        W21111   7.382  23.618  12.018
57168W        W21112  37.063   4.781   4.116
57169W        W21113  18.602  33.491  14.514
57170W        W21114  36.023  19.103   2.239
57171W        W21115  38.873  18.081  12.039
57172W        W21116  33.916  41.321  12.914
57173W        W21117   0.304  23.216   2.239
57174W        W21118   6.298  39.444  10.599
57175W        W21119  41.325  15.153   4.830
57176W        W21120   7.716   6.871   3.711
57177W        W21121  33.491  13.614  10.933
57178W        W21122  24.511  13.325  13.859
57179W        W21123  39.319  23.716  11.127
57180W        W21124  10.280  29.085  12.464
57181W        W21125  30.430  25.477   1.255
57182W        W21126  21.536  20.586  13.464
57183W        W21127  28.085  35.472  11.423
57184W        W21128  40.389  12.233  10.531
57185W        W21129  42.319   8.338  12.495
57186W        W21130  28.157  37.850  10.594
57187W        W21131  26.590   1.940   1.735
57188W        W21132  19.624  31.024   0.327
57189W        W21133  14.167  13.259   0.417
57190W        W21134  41.951  13.138  13.049
57191W        W21135  41.914  18.790   1.930
57192W        W21136  23.165  42.932   1.927
57193W        W21137  21.058   8.807  14.472
57194W        W21138   6.831  30.501   5.106
57195W        W21139  23.492  44.899   4.699
57196W        W21140  24.010  15.773  11.501
57197W        W21141  33.040   4.781  14.339
57198W        W21142  32.054  44.458  11.609
57199W        W21143   9.714  36.930  13.354
57200W        W21144   5.819  30.010   5.121
57201W        W21145  39.002   4.864   4.727
57202W        W21146   2.227  39.832  14.989
57203W        W21147  34.918   8.773  11.567
57204W        W21148  44.272   3.349   2.185
57205W        W21149  15.621  22.687   4.631
57206W        W21150   4.245   2.397   3.174
57207W        W21151  27.168   7.251  14.448
57208W        W21152  18.637  35.426   2.296
57209W        W21153  26.108   0.911  12.349
57210W        W21154   3.282  41.958   2.720
57211W        W21155  29.456  39.964  12.575
57212W        W21156  21.516  27.071  11.986
57213W        W21157   0.480   7.774  13.900
57214W        W21158  22.112  35.852   1.438
57215W        W21159  26.506  14.775  14.317
57216W        W21160  23.695  35.005   0.302
57217W        W21161  44.294  35.409  13.386
57218W        W21162  16.622   1.880  10.484
57219W        W21163   2.398   4.366   3.680
57220W        W21164   2.257  23.615   3.840
57221W        W21165  14.272  28.089  13.858
57222W        W21166  29.431  37.484   3.278
57223W        W21167  33.964  22.601  10.518
57224W        W21168  12.251  40.894   0.739
57225W        W21169   8.894  14.282   1.342
57226W        W21170   1.793  41.407   2.213
57227W        W21171  20.729  41.792   1.437
57228W        W21172  26.961  24.547   4.815
57229W        W21173  33.970  28.009  11.984
57230W        W21174   7.768  20.041  14.396
57231W        W21175  38.484  26.086  14.475
57232W        W21176  44.789  10.825  13.929
57233W        W21177  12.218   8.178   0.746
57234W        W21178  43.855   8.170   3.270
57235W        W21179  42.491   8.802   3.147
57236W        W21180   1.266   1.345   4.658
57237W        W21181  33.581  31.040  14.282
57238W        W21182   1.378   3.283  10.916
57239W        W21183  21.622   5.742   1.925
57240W        W21184  21.563   2.296  13.340
57241W        W21185  41.318  20.672  10.437
57242W        W21186  15.127  39.355   1.879
57243W        W21187  20.537  36.352   0.756
57244W        W21188  12.786  29.482  10.603
57245W        W21189  13.282  33.098   0.842
57246W        W21190  16.605  27.683  12.376
57247W        W21191  11.186  34.411  13.481
57248W        W21192  19.629  34.950   0.276
57249W        W21193  33.564  30.053   1.243
57250W        W21194  37.942  43.324  14.381
57251W        W21195  40.547  20.139  11.493
57252W        W21196  19.720  32.435   4.227
57253W        W21197  24.633  44.334  12.063
57254W        W21198   1.808   8.320   0.253
57255W        W21199  42.331  28.593  11.476
57256W        W21200   4.450  17.702  13.432
57257W        W21201  38.848  34.061   3.338
57258W        W21202   3.741  14.759   3.850
57259W        W21203  31.983  29.995   3.817
57260W        W21204   4.332  41.387   2.728
57261W        W21205  44.003  25.491   1.819
57262W        W21206  32.099  34.953  14.369
57263W        W21207   2.381  39.987   3.332
57264W        W21208  34.993  24.597  10.634
57265W        W21209   9.293  34.987   4.288
57266W        W21210  32.924  29.984   1.733
57267W        W21211  43.985  26.503  11.108
57268W        W21212   8.398  44.345   4.319
57269W        W21213  14.316  14.203   3.207
57270W        W21214  23.695  30.659   0.329
57271W        W21215   9.651  41.314  14.275
57272W        W21216  36.349  22.071   0.918
57273W        W21217  25.160   5.368   0.455
57274W        W21218  43.926   3.365   2.786
57275W        W21219  26.476  42.784  10.939
57276W        W21220  19.661  26.033   2.843
57277W        W21221   3.294   5.841  13.491
57278W        W21222  35.056  10.348   4.210
57279W        W21223  42.497  14.181   4.346
57280W        W21224  11.356  37.020  11.048
57281W        W21225   6.205  34.558  12.562
57282W        W21226  12.363  14.810   0.396
57283W        W21227  10.152  12.350   1.307
57284W        W21228  23.202  41.462  12.875
57285W        W21229  34.961  16.598  14.435
57286W        W21230   0.282  16.131   2.329
57287W        W21231  24.973  21.213  11.038
57288W        W21232  35.425   7.277   0.935
57289W        W21233  36.401  11.825  10.075
57290W        W21234  10.170   1.897  10.049
57291W        W21235  27.629  14.302   3.650
57292W        W21236   9.316  44.389   2.709
57293W        W21237  30.012  44.431  12.440
57294W        W21238  33.906  36.481   3.661
57295W        W21239  35.854   6.349  10.412
57296W        W21240  32.421  38.039  14.878
57297W        W21241  38.386  17.073  12.370
57298W        W21242   5.772  23.091   2.185
57299W        W21243  41.400  34.611  14.310
57300W        W21244   5.262  39.412   4.240
57301W        W21245  15.289  37.458  14.375
57302W        W21246  31.477  17.632   2.277
57303W        W21247   9.809  27.686   3.267
57304W        W21248  28.960  11.372   3.255
57305W        W21249  38.009   5.262   5.281
57306W        W21250  35.395   2.229  14.398
57307W        W21251   9.744  15.286  14.407
57308W        W21252   9.862  26.547  10.572
57309W        W21253  36.906  30.070   2.674
57310W        W21254   0.333  34.458  11.590
57311W        W21255  37.080  42.814  14.332
57312W        W21256   0.318   2.414   1.733
57313W        W21257  35.086  41.968   0.899
57314W        W21258   7.174  31.931  12.546
57315W        W21259  28.062   3.941  13.030
57316W        W21260  43.805  22.029   1.935
57317W        W21261  11.334   4.929   0.247
57318W        W21262  38.395  33.527   0.844
57319W        W21263  23.503  33.535  12.859
57320W        W21264  28.602   9.702   0.779
57321W        W21265  14.733  17.741  13.892
57322W        W21266  10.813   1.359  13.970
57323W        W21267  29.948   3.354   4.654
57324W        W21268   1.303  28.530  13.896
57325W        W21269   2.460  30.145   2.344
57326W        W21270  14.253  29.644  13.432
57327W        W21271  18.082  30.959  13.499
57328W        W21272  44.835   1.845  14.875
57329W        W21273  17.282  16.598  13.860
57330W        W21274   8.357  43.289  11.989
57331W        W21275  15.619  31.040   2.665
57332W        W21276   9.682  35.994   2.871
57333W        W21277  39.880   5.375   3.314
57334W        W21278  38.478  20.581  12.855
57335W        W21279  20.154  24.146   4.307
57336W        W21280   6.301   1.345  12.477
57337W        W21281  18.604  13.221  14.030
57338W        W21282  35.365  31.128  14.926
57339W        W21283   9.310  28.639   4.336
57340W        W21284  44.295   7.226  10.101
57341W        W21285  30.046  38.951  12.557
57342W        W21286  15.276   5.763  12.895
57343W        W21287  30.928  44.932   3.690
57344W        W21288  36.019  38.827  14.790
57345W        W21289  35.466  30.501   4.702
57346W        W21290  42.369  21.755  11.481
57347W        W21291  33.071   6.355  13.008
57348W        W21292  34.056  30.568  13.374
57349W        W21293  21.163  35.939  12.944
57350W        W21294  12.288  28.052  10.434
57351W        W21295  32.628  44.305  11.521
57352W        W21296  26.576  26.125  13.019
57353W        W21297  26.151   1.353  11.109
57354W        W21298  23.537  44.433   1.906
57355W        W21299  31.618  13.658  11.109
57356W        W21300   7.273  13.348  11.068
57357W        W21301  23.226  26.614   1.302
57358W        W21302  13.183   7.846   4.241
57359W        W21303  30.971  14.708   3.282
57360W        W21304  39.052   0.266  11.038
57361W        W21305  39.367  12.250  10.432
57362W        W21306  18.716  25.577   4.671
57363W        W21307   3.399  24.582   1.284
57364W        W21308  13.845  24.003  13.953
57365W        W21309  34.437  18.195   0.483
57366W        W21310  16.148  33.421  13.021
57367W        W21311   8.744  16.667   3.665
57368W        W21312  40.509   5.756  11.483
57369W        W21313  29.662  12.309   0.757
57370W        W21314  14.787   8.292   0.741
57371W        W21315  30.464  39.816   1.817
57372W        W21316  22.659  28.125   1.368
57373W        W21317  12.797  36.482  14.303
57374W        W21318   4.898  41.923  14.430
57375W        W21319  40.019   0.249   1.326
57376W        W21320  40.846  13.615  14.448
57377W        W21321  22.737   8.880  14.339
57378W        W21322  36.447  11.765  13.501
57379W        W21323   1.444  43.864  14.323
57380W        W21324  23.217  35.971   2.286
57381W        W21325  39.885  19.246   4.190
57382W        W21326  15.725  20.596   4.301
57383W        W21327  19.243  10.870   4.804
57384W        W21328   3.800  17.201  14.934
57385W        W21329   3.429  21.214  10.501
57386W        W21330  14.680   6.745   0.867
57387W        W21331   6.737  35.424  14.303
57388W        W21332   3.936  18.073  11.047
57389W        W21333  17.254  29.495  13.475
57390W        W21334  16.720  19.130   4.349
57391W        W21335  34.866  18.695   4.201
57392W        W21336  25.142   0.749   1.335
57393W        W21337  39.321  42.863   0.388
57394W        W21338  43.387  34.532  14.885
57395W        W21339  25.644   0.293  11.592
57396W        W21340  38.500   8.834   3.781
57397W        W21341  10.312   5.407   2.878
57398W        W21342  22.679  39.327  10.496
57399W        W21343  30.057  29.602   1.757
57400W        W21344  25.120   9.785   0.318
57401W        W21345  27.615  36.570   0.448
57402W        W21346  39.324  12.696  13.321
57403W        W21347  27.963   1.759  12.857
57404W        W21348  27.617  22.216  13.939
57405W        W21349  31.104  27.478  10.517
57406W        W21350   5.726  18.747   4.667
57407W        W21351  12.689  29.920  14.841
57408W        W21352  24.999  26.181   2.234
57409W        W21353   0.966   6.782   4.206
57410W        W21354  31.958  38.375  10.932
57411W        W21355  32.906  40.005   2.211
57412W        W21356  26.547  24.077  13.869
57413W        W21357   0.450   4.853  12.404
57414W        W21358  18.718  28.577   2.294
57415W        W21359  32.968  26.143   1.366
57416W        W21360  22.505  35.394   2.706
57417W        W21361  42.293  23.143  13.533
57418W        W21362   2.840   8.358  13.466
57419W        W21363  12.789  16.156  12.932
57420W        W21364  21.218  24.981  10.076
57421W        W21365  35.007  32.569  13.337
57422W        W21366  32.523  13.266   2.250
57423W        W21367  14.224  10.372  10.905
57424W        W21368   7.263  21.690   4.838
57425W        W21369  18.712  21.192   3.217
57426W        W21370  34.381  44.807   2.831
57427W        W21371  42.499  16.240  10.947
57428W        W21372  40.531  40.967  13.481
57429W        W21373  40.016  43.498   3.631
57430W        W21374  31.097  44.354  13.916
57431W        W21375  20.202  18.179   4.213
57432W        W21376  11.239  23.614   0.306
57433W        W21377  34.478   7.908  13.854
57434W        W21378  30.648  42.503   4.209
57435W        W21379  26.114   5.314  10.931
57436W        W21380  40.003  43.891   4.625
57437W        W21381   3.457  40.847   0.437
57438W        W21382  14.222  44.503  13.506
57439W        W21383  38.947   8.247  11.065
57440W        W21384  33.883  33.618  13.812
57441W        W21385  36.913  26.205   1.255
57442W        W21386  28.155  40.413   0.320
57443W        W21387  31.112  19.139  12.345
57444W        W21388  20.758  13.740  14.454
57445W        W21389  18.083  38.843  12.502
57446W        W21390  20.653   3.935  12.928
57447W        W21391   9.769  43.453   2.853
57448W        W21392  14.143  40.410  11.594
57449W        W21393  44.283  13.308  13.412
57450W        W21394   4.805  29.003  12.466
57451W        W21395  40.527  23.064   3.840
57452W        W21396  26.577  39.920   3.673
57453W        W21397  38.994  21.079   2.697
57454W        W21398  13.149  22.075   3.150
57455W        W21399  43.905  29.079   1.773
57456W        W21400  15.652   1.821   2.311
57457W        W21401   3.817  25.563  12.453
57458W        W21402  30.579  19.693  13.897
57459W        W21403  44.505  36.010  13.384
57460W        W21404   7.751   1.751   2.796
57461W        W21405  28.563   9.887   3.290
57462W        W21406  19.157  42.351   1.924
57463W        W21407  15.152   6.922  13.853
57464W        W21408  43.841  29.661  14.859
57465W        W21409   8.871   9.704   4.665
57466W        W21410   2.298  28.134  12.871
57467W        W21411  21.549  15.174   3.706
57468W        W21412  40.500  32.075  10.954
57469W        W21413  19.203  29.562  13.438
57470W        W21414  18.772  44.447   3.339
57471W        W21415  10.304  22.192   1.229
57472W        W21416  30.586   8.761  13.331
57473W        W21417  22.169  27.100   4.314
57474W        W21418  15.302  28.139  12.354
57475W        W21419  16.159  14.332   4.302
57476W        W21420  20.086  39.852  11.451
57477W        W21421  15.671  36.850   3.769
57478W        W21422  14.707  30.585  11.509
57479W        W21423  27.684   4.897  13.041
57480W        W21424   1.861  20.163  12.518
57481W        W21425  14.653  41.359   0.735
57482W        W21426   1.924  32.626   3.748
57483W        W21427  31.443  41.410   2.199
57484W        W21428  42.951  22.032  11.113
57485W        W21429   1.883  10.831   2.419
57486W        W21430   4.360  19.045   4.194
57487W        W21431   5.705  34.090   0.340
57488W        W21432  41.994  34.443   3.778
57489W        W21433  29.629   8.880  14.322
57490W        W21434  17.147  22.251   2.263
57491W        W21435   5.286  26.474  11.083
57492W        W21436  42.457  15.690  10.527
57493W        W21437  31.153  21.728   1.226
57494W        W21438  44.770  20.644  11.552
57495W        W21439  32.615  13.746   1.800
57496W        W21440  43.271  36.845   0.302
57497W        W21441  13.605  15.638   1.890
57498W        W21442  32.417  42.974   3.758
57499W        W21443  30.038   4.397  11.128
57500W        W21444  18.175  14.706  13.002
57501W        W21445   3.316   2.881   0.271
57502W        W21446  15.264  11.652   1.910
57503W        W21447   3.899  20.625  10.954
57504W        W21448   5.881  34.078  13.041
57505W        W21449  37.901  11.631  11.500
57506W        W21450  37.370  43.383   1.361
57507W        W21451   8.844  26.490  10.914
57508W        W21452  16.264   6.922  12.365
57509W        W21453  11.807  27.009   2.892
57510W        W21454  38.380   3.863   2.797
57511W        W21455  31.648  21.066  11.898
57512W        W21456   9.763  35.875  12.956
57513W        W21457   5.247  27.106   4.651
57514W        W21458  30.537  22.025  14.001
57515W        W21459  39.548  27.944   4.708
57516W        W21460  31.016  17.575  11.414
57517W        W21461  37.553   7.327  12.937
57518W        W21462   4.365  22.553  13.425
57519W        W21463   3.836  12.254   1.210
57520W        W21464  25.208   6.240   1.371
57521W        W21465  20.755  17.744   4.159
57522W        W21466  10.154   7.247   3.334
57523W        W21467  28.483  27.123  14.881
57524W        W21468  23.555  32.405   4.680
57525W        W21469  22.620  38.996   4.794
57526W        W21470  13.827  40.446   0.269
57527W        W21471  41.302  12.192  11.539
57528W        W21472   7.805   7.855   1.367
57529W        W21473   8.665  33.127   1.713
57530W        W21474  23.670   3.340  11.071
57531W        W21475  43.994   6.802   1.812
57532W        W21476  37.574  22.195  11.094
57533W        W21477  20.163  36.977  14.961
57534W        W21478  11.650   0.831  12.427
57535W        W21479  30.040  38.953   3.326
57536W        W21480  30.987  35.465  13.335
57537W        W21481   2.380  12.700   0.249
57538W        W21482  30.445   2.745  10.427
57539W        W21483  40.514  25.026   1.308
57540W        W21484  19.757  15.253   0.756
57541W        W21485  29.118  26.691   0.761
57542W        W21486  28.024  34.461   3.172
57543W        W21487   9.889   7.850   4.759
57544W        W21488  31.986  15.779   3.760
57545W        W21489  39.852  39.944  12.516
57546W        W21490  38.033  17.239  11.902
57547W        W21491  43.998   8.870   3.734
57548W        W21492  43.508  19.140  10.935
57549W        W21493   2.382  32.007   2.270
57550W        W21494  44.784  17.294  12.827
57551W        W21495  13.787  18.192  14.372
57552W        W21496  21.124  41.428   3.228
57553W        W21497   7.741  32.545   3.224
57554W        W21498  21.184  29.478  14.476
57555W        W21499  39.960  43.333  13.477
57556W        W21500   7.769  19.581  13.986
57557W        W21501  41.320  17.597   3.790
57558W        W21502  37.063  40.364  12.882
57559W        W21503  44.762  14.800  13.802
57560W        W21504  10.730   3.266   5.256
57561W        W21505  44.262  33.908  14.902
57562W        W21506  28.033   2.875   4.829
57563W        W21507  26.125  32.022   2.249
57564W        W21508  28.553  23.695  11.581
57565W        W21509  34.895  25.692  12.026
57566W        W21510  35.036  12.243   4.203
57567W        W21511   4.400  25.474  11.482
57568W        W21512  39.497  41.933   3.169
57569W        W21513   8.276  25.654  11.517
57570W        W21514  43.454  41.880   4.634
57571W        W21515   3.409  12.256   0.872
57572W        W21516  41.391   8.690  14.968
57573W        W21517   3.320  18.563  11.075
57574W        W21518  16.700   5.322   1.725
57575W        W21519  15.147  30.505   4.269
57576W        W21520  44.310   4.213  11.457
57577W        W21521  35.594  40.456   1.298
57578W        W21522  30.479  36.375   3.700
57579W        W21523  40.805  42.502  14.799
57580W        W21524  39.355  44.393   0.845
57581W        W21525  28.976  11.807  12.977
57582W        W21526  44.419  35.906   1.289
57583W        W21527  32.471  10.348   3.328
57584W        W21528  30.995  30.650   5.135
57585W        W21529  37.579  22.164  12.866
57586W        W21530  25.105  34.953   0.255
57587W        W21531  37.860  31.133   1.771
57588W        W21532  28.678  15.297  11.403
57589W        W21533  32.005  42.459  12.519
57590W        W21534  40.363  19.208  13.338
57591W        W21535   4.844  18.654   0.366
57592W        W21536  14.741  31.592   3.354
57593W        W21537  25.024   8.690  14.863
57594W        W21538  12.142  35.036  12.482
57595W        W21539  24.146  38.823  10.146
57596W        W21540   7.347   4.208  14.787
57597W        W21541  36.553  42.516  11.584
57598W        W21542  30.649  14.677   3.864
57599W        W21543   4.347  25.572   1.816
57600W        W21544  21.137  10.215   3.305
57601W        W21545  11.222  27.006   3.747
57602W        W21546  43.988  41.937  14.456
57603W        W21547  31.614  11.770   0.852
57604W        W21548  32.630  30.523   4.652
57605W        W21549  22.594   1.782   1.873
57606W        W21550  23.625  14.798   0.297
57607W        W21551  32.589  28.129  11.079
57608W        W21552  32.911  18.103   3.832
57609W        W21553  39.420  38.517  12.986
57610W        W21554  15.263  37.881   1.423
57611W        W21555   5.768  38.387  12.922
57612W        W21556  41.867  37.428   1.278
57613W        W21557  10.639  17.279   2.213
57614W        W21558  27.060   6.274  14.941
57615W        W21559  40.956  44.393  12.948
57616W        W21560  37.971  15.608  11.959
57617W        W21561  38.876   2.796   1.730
57618W        W21562  18.671  41.353   4.195
57619W        W21563  41.816   6.708  12.346
57620W        W21564  33.515  19.741   0.818
57621W        W21565  37.903  44.372   3.224
57622W        W21566  11.808   2.812   3.384
57623W        W21567  32.939  39.358  10.503
57624W        W21568  39.520  10.176  11.020
57625W        W21569  38.518  10.829   1.713
57626W        W21570  13.298  18.769  11.532
57627W        W21571  42.506  18.240  12.045
57628W        W21572   5.885  29.463   1.223
57629W        W21573  24.596   7.176   1.896
57630W        W21574   0.482  25.622  11.036
57631W        W21575  18.766  16.573   3.385
57632W        W21576  15.297  18.743   4.639
57633W        W21577  27.954  26.189  14.346
57634W        W21578  10.742  42.787  10.050
57635W        W21579  27.170  32.484  11.936
57636W        W21580  35.860   1.244  13.995
57637W        W21581   0.786  26.034  14.933
57638W        W21582   9.381  25.529  14.799
57639W        W21583  39.015   6.917  12.945
57640W        W21584  25.686  18.070   5.110
57641W        W21585  17.080  43.338  11.443
57642W        W21586  21.731  37.945   1.877
57643W        W21587  16.808  17.586  12.433
57644W        W21588   0.851   8.301   4.806
57645W        W21589   9.811  43.922   1.259
57646W        W21590  37.339  10.820   0.968
57647W        W21591  14.241   8.719   3.322
57648W        W21592  20.576  24.090   2.312
57649W        W21593  22.601   8.862   9.969
57650W        W21594  43.792   7.848  10.979
57651W        W21595  19.761  28.550   3.195
57652W        W21596  39.397  15.767   2.794
57653W        W21597   2.941  25.522  11.473
57654W        W21598  30.911   3.286   1.289
57655W        W21599  18.581  19.229  14.909
57656W        W21600  40.541  13.285  14.401
57657W        W21601   0.769  44.774   1.265
57658W        W21602  32.093  25.589   4.827
57659W        W21603   8.787  14.296   3.704
57660W        W21604  37.933  35.091  12.876
57661W        W21605   1.452  33.530  14.383
57662W        W21606  40.538  41.509   0.789
57663W        W21607  29.927  44.372  14.864
57664W        W21608  19.154   2.367  11.579
57665W        W21609   3.232  39.840   0.319
57666W        W21610  39.010  17.734   4.243
57667W        W21611  39.369   0.471  13.476
57668W        W21612  23.721  26.083   3.310
57669W        W21613   4.204  38.488  11.126
57670W        W21614  17.292  29.974   0.872
57671W        W21615  25.193  21.551   0.929
57672W        W21616   4.247  12.832   2.804
57673W        W21617  31.466   7.287  12.390
57674W        W21618  27.036  21.120  13.341
57675W        W21619  35.518  37.901  12.089
57676W        W21620  16.737  25.091   1.847
57677W        W21621  19.716   4.831  11.515
57678W        W21622  39.319  24.648  10.997
57679W        W21623  42.517  23.698   0.870
57680W        W21624  31.460  40.412   0.342
57681W        W21625  41.882  35.558   4.339
57682W        W21626  14.695  36.536   1.295
57683W        W21627  28.125  26.596   0.259
57684W        W21628   3.359  17.210  14.912
57685W        W21629  23.117  23.115   3.654
57686W        W21630  43.859  15.823  14.438
57687W        W21631  11.803  37.361  12.848
57688W        W21632  36.407  28.017  14.458
57689W        W21633   7.825  13.655   2.831
57690W        W21634  27.636  10.835  11.025
57691W        W21635  35.994  36.522  13.486
57692W        W21636  26.598  29.999   1.886
57693W        W21637   9.778  26.053   3.367
57694W        W21638  23.638   5.843   3.767
57695W        W21639  19.261  11.831   3.366
57696W        W21640  14.752   1.889  11.947
57697W        W21641  37.562   9.369   2.788
57698W        W21642  18.263   6.686   0.372
57699W        W21643  27.163   2.291  13.802
57700W        W21644   0.333   3.445   3.369
57701W        W21645   1.350  26.524  13.529
57702W        W21646  11.827   4.888   2.726
57703W        W21647   1.437  15.667   0.421
57704W        W21648  26.604   9.713   2.851
57705W        W21649  22.559  28.671   4.659
57706W        W21650  39.999  43.295  14.413
57707W        W21651  35.596   2.434  12.433
57708W        W21652  43.322  18.568   0.954
57709W        W21653  39.843  44.286  10.561
57710W        W21654   8.675  25.618   5.178
57711W        W21655  18.193  40.428   1.860
57712W        W21656  19.123  34.118   0.841
57713W        W21657  41.807   3.369   4.342
57714W        W21658   1.902  19.045   0.451
57715W        W21659  15.216   4.701  12.059
57716W        W21660  21.031   5.372   0.447
57717W        W21661  23.989  11.191  11.063
57718W        W21662  44.959  27.145  13.964
57719W        W21663  19.555  33.408   1.447
57720W        W21664  22.013  44.763   4.712
57721W        W21665   1.977  21.042  14.922
57722W        W21666   6.198   7.304  13.954
57723W        W21667  12.219  12.232  10.442
57724W        W21668  41.511   9.792   4.162
57725W        W21669  37.970  19.555  13.893
57726W        W21670  19.589  40.882  11.116
57727W        W21671  33.381  16.648  12.056
57728W        W21672  18.281  39.881   1.392
57729W        W21673  13.622  22.555   1.322
57730W        W21674  29.023  27.643  10.504
57731W        W21675   2.910  27.536   2.853
57732W        W21676  35.055  12.356   2.344
57733W        W21677   2.926  15.308  12.841
57734W        W21678  43.876   0.791   3.228
57735W        W21679  10.836   9.809   1.935
57736W        W21680  42.868   6.387  12.458
57737W        W21681  28.497  25.046  11.418
57738W        W21682  25.033  18.142   2.743
57739W        W21683  18.211   2.422   2.402
57740W        W21684  17.217  20.143   2.673
57741W        W21685  27.448  44.975   2.711
57742W        W21686  15.118  21.595  12.404
57743W        W21687  31.106  12.181   1.719
57744W        W21688  24.607  20.262  13.948
57745W        W21689   4.721  17.746   1.855
57746W        W21690  17.243  38.538  10.609
57747W        W21691   6.788  40.023  11.447
57748W        W21692  41.983  41.538  12.434
57749W        W21693   6.302  39.549   4.603
57750W        W21694  13.731  27.030   1.868
57751W        W21695  25.659  24.572   2.391
57752W        W21696  39.415  21.256   9.989
57753W        W21697  10.183  16.173   0.909
57754W        W21698  44.975  25.514  13.936
57755W        W21699  23.176  28.650  11.917
57756W        W21700  44.819  11.246   2.360
57757W        W21701  16.624  12.664   3.234
57758W        W21702   1.934   4.727  10.944
57759W        W21703  28.106  31.521   1.704
57760W        W21704  24.139  22.610  12.506
57761W        W21705   6.220  15.657   3.667
57762W        W21706  43.843  31.517  11.577
57763W        W21707  28.973  20.621   1.389
57764W        W21708  40.505  25.614  13.994
57765W        W21709   0.967   4.723  13.026
57766W        W21710   2.351   4.897   5.088
57767W        W21711  21.183  10.873  13.878
57768W        W21712  11.162  40.031  14.452
57769W        W21713   2.341  29.639   0.479
57770W        W21714  35.397   0.845  14.320
57771W        W21715   6.884   7.204   4.209
57772W        W21716  14.834  17.196  12.571
57773W        W21717  28.146   4.772   4.315
57774W        W21718  38.570  40.420   3.654
57775W        W21719  10.318  35.380   0.726
57776W        W21720  24.484  44.955   2.882
57777W        W21721  32.925  28.589  12.384
57778W        W21722  12.774   9.383   0.482
57779W        W21723  15.819  38.075   1.751
57780W        W21724  23.494  19.594  14.881
57781W        W21725  29.985  32.117   1.272
57782W        W21726  19.706  33.113  11.966
57783W        W21727  22.581  25.626  13.371
57784W        W21728   0.937   9.865  12.922
57785W        W21729  14.740  38.931  13.968
57786W        W21730  26.074  25.190   1.425
57787W        W21731  29.079   3.339  12.341
57788W        W21732  29.469  26.699   0.249
57789W        W21733  21.559  19.657  11.009
57790W        W21734   4.339  38.889   4.758
57791W        W21735  25.549   6.878  11.984
57792W        W21736  28.560   5.234   0.443
57793W        W21737   7.351  30.952  11.067
57794W        W21738  41.424  37.443   1.389
57795W        W21739   3.789  36.982   0.897
57796W        W21740  36.898   6.702  11.106
57797W        W21741  15.290   8.232  14.311
57798W        W21742  44.372  38.542  12.385
57799W        W21743  17.248  35.368   2.691
57800W        W21744  19.237  27.986  14.872
57801W        W21745  30.601  32.584   4.322
57802W        W21746   4.357   5.879   5.147
57803W        W21747  15.103   9.178  12.985
57804W        W21748  34.868  17.229   4.231
57805W        W21749  44.004  26.170   1.324
57806W        W21750  43.479  18.743   3.242
57807W        W21751  16.776  13.744  11.054
57808W        W21752   4.355  13.130   1.385
57809W        W21753  33.074  19.558   1.310
57810W        W21754  31.143  33.006  11.058
57811W        W21755  15.226  39.962  12.960
57812W        W21756   7.749  24.631   0.806
57813W        W21757  19.139   8.688   4.156
57814W        W21758  38.861  42.346   4.719
57815W        W21759  44.894  44.502   0.333
57816W        W21760  20.124  37.984  11.877
57817W        W21761  42.458  26.570  12.445
57818W        W21762  23.569   1.822   1.926
57819W        W21763  25.203  10.759  13.937
57820W        W21764  10.840  19.611  14.925
57821W        W21765  37.055  41.905  14.822
57822W        W21766   3.780   6.892  12.460
57823W        W21767  16.808  18.191  11.497
57824W        W21768  30.111   2.848   4.832
57825W        W21769   7.741  17.284   1.879
57826W        W21770  41.466  10.374  10.598
57827W        W21771  12.131   7.245  10.642
57828W        W21772  11.794   0.387  12.025
57829W        W21773  36.995  20.548   3.270
57830W        W21774  39.825  36.026  12.004
57831W        W21775  22.211  16.270   0.394
57832W        W21776   9.886  14.731   3.745
57833W        W21777  24.052  21.261  13.339
57834W        W21778  17.671   3.290   4.198
57835W        W21779   4.796  13.276   2.745
57836W        W21780  19.584  20.208  13.908
57837W        W21781  30.955  10.226  14.354
57838W        W21782  24.173  32.088  12.845
57839W        W21783  20.172  18.294   3.678
57840W        W21784  11.327  29.137   1.337
57841W        W21785   9.782  36.937  10.896
57842W        W21786  44.296  16.111   2.238
57843W        W21787  12.646  27.464   4.697
57844W        W21788  14.271  44.288   1.901
57845W        W21789  33.054  34.893   1.723
57846W        W21790  17.145  35.882  12.478
57847W        W21791  16.304  18.748  13.030
57848W        W21792  29.082  20.240   0.322
57849W        W21793   0.270   6.818  13.375
57850W        W21794   3.885  44.005  11.101
57851W        W21795  19.698  29.518   3.841
57852W        W21796   5.212  34.371  10.522
57853W        W21797   9.759  28.558   2.848
57854W        W21798  14.813   8.656   1.295
57855W        W21799   2.815  37.932  11.383
57856W        W21800  34.599   9.817   3.701
57857W        W21801  36.022  13.663   2.814
57858W        W21802   2.865  41.982  14.789
57859W        W21803  30.439  19.283  10.100
57860W        W21804  30.012  33.394  11.920
57861W        W21805  44.324  24.533   2.351
57862W        W21806  18.264  11.688   5.176
57863W        W21807  38.966  20.112   1.708
57864W        W21808  22.615  10.231   0.425
57865W        W21809   5.278  44.342  13.522
57866W        W21810  36.378  28.485   0.427
57867W        W21811  14.213  39.329  11.588
57868W        W21812  38.071   7.236  10.484
57869W        W21813  15.740  37.861   4.280
57870W        W21814  37.015  29.607   1.388
57871W        W21815  29.454  38.365  10.409
57872W        W21816  42.418  25.532   2.665
57873W        W21817  39.468  37.057  11.897
57874W        W21818  44.939  22.520  11.017
57875W        W21819   9.257  21.588   4.755
57876W        W21820  12.282  13.724  12.944
57877W        W21821   3.910   9.350   1.873
57878W        W21822  39.532  15.144   4.718
57879W        W21823  14.287  42.805  11.421
57880W        W21824  26.619  10.660   2.263
57881W        W21825  10.636   7.185   4.682
57882W        W21826   5.209   1.302   3.261
57883W        W21827  15.227  40.414  13.527
57884W        W21828  35.862   9.778  12.856
57885W        W21829   7.817  10.778   2.315
57886W        W21830  29.524  31.557   2.274
57887W        W21831  12.213  28.068  12.530
57888W        W21832  10.348   6.817  10.479
57889W        W21833  16.786  29.129  14.356
57890W        W21834  17.146   3.781  13.461
57891W        W21835   3.372  27.470   1.275
57892W        W21836  34.951  44.858   0.856
57893W        W21837   4.698  37.368   0.930
57894W        W21838   2.381  39.952  10.950
57895W        W21839  44.333   2.835  10.944
57896W        W21840  40.361  22.558   4.715
57897W        W21841  33.572  38.539  14.465
57898W        W21842  39.527   3.414   1.774
57899W        W21843  36.497  18.788   0.288
57900W        W21844  22.580  13.134   3.634
57901W        W21845  34.583  14.796   3.813
57902W        W21846  37.087   2.868  10.576
57903W        W21847   5.328  40.041   1.388
57904W        W21848  37.877  26.687  14.880
57905W        W21849  19.239   0.979  11.471
57906W        W21850  19.277  26.558   3.736
57907W        W21851  44.489  26.189  13.829
57908W        W21852  36.963  41.799   0.840
57909W        W21853  35.063  14.227   0.437
57910W        W21854  38.878   7.873   0.339
57911W        W21855  24.130  24.091   4.731
57912W        W21856  33.382  14.827  13.533
57913W        W21857  19.752  11.707  14.866
57914W        W21858  12.696  34.982   0.473
57915W        W21859  42.006  26.195   3.820
57916W        W21860   8.805  16.220  13.472
57917W        W21861  37.972  16.210   0.461
57918W        W21862  14.156  16.077   0.412
57919W        W21863   6.428   3.764  13.339
57920W        W21864  17.176  30.572  14.898
57921W        W21865  17.622  29.567  11.924
57922W        W21866   4.761  38.883  12.848
57923W        W21867  28.134   8.247   2.840
57924W        W21868  19.724  18.159  14.989
57925W        W21869  12.262   2.435   1.699
57926W        W21870  33.528  42.314  11.390
57927W        W21871  29.439  20.155   3.149
57928W        W21872  38.936   2.868   9.557
57929W        W21873  10.714  13.276   3.865
57930W        W21874  22.016   8.188   4.354
57931W        W21875  31.543   3.384  11.000
57932W        W21876  27.022   8.859  11.073
57933W        W21877  28.068  39.934   1.437
57934W        W21878  33.921  20.108   4.328
57935W        W21879  30.435  18.598   3.213
57936W        W21880  17.733  42.817  14.449
57937W        W21881   9.191  42.331  10.989
57938W        W21882  33.456  35.447  14.500
57939W        W21883  38.989  42.419   1.781
57940W        W21884   7.401   9.830   0.733
57941W        W21885  41.474   2.300   1.268
57942W        W21886   8.829  18.608   2.804
57943W        W21887  17.120  42.437  12.085
57944W        W21888  37.363  40.430  14.388
57945W        W21889   4.439  27.468  12.934
57946W        W21890   2.809  33.936   1.925
57947W        W21891  16.586  34.390   4.168
57948W        W21892  25.216   3.342  13.037
57949W        W21893   3.776  41.369   2.365
57950W        W21894   6.404   7.676   4.344
57951W        W21895   7.243   5.259   3.723
57952W        W21896  25.192  24.498  11.504
57953W        W21897   6.341  19.073   0.265
57954W        W21898  26.561   6.784   0.955
57955W        W21899  20.764  13.647   2.692
57956W        W21900   9.260  44.996  10.456
57957W        W21901  27.624  19.691  11.449
57958W        W21902  31.406  21.106  10.000
57959W        W21903  11.310  25.485   3.682
57960W        W21904  32.937  34.968  10.932
57961W        W21905  18.153  37.012   0.797
57962W        W21906  41.386  44.439   1.792
57963W        W21907  34.116   0.468   0.297
57964W        W21908  13.732   5.258   4.178
57965W        W21909  28.186  23.593   3.283
57966W        W21910   9.287  23.628   1.760
57967W        W21911  23.613  17.228  12.420
57968W        W21912  23.647  23.045   0.380
57969W        W21913  18.693  33.948  13.030
57970W        W21914  19.098  24.114  12.024
57971W        W21915  11.758  20.072   2.233
57972W        W21916   0.419  23.201  13.423
57973W        W21917  33.921  37.395   4.280
57974W        W21918  36.064  44.901  10.585
57975W        W21919  34.083  29.952  12.904
57976W        W21920  10.794  32.568  12.435
57977W        W21921  10.233  26.178   4.217
57978W        W21922  43.770  34.034   4.215
57979W        W21923   6.838  36.572   2.382
57980W        W21924   3.397  42.503  11.523
57981W        W21925  36.018  43.843  13.401
57982W        W21926  27.999  44.901  11.973
57983W        W21927  41.503  39.338   3.383
57984W        W21928  20.725  17.709  12.073
57985W        W21929  14.278  27.042  13.452
57986W        W21930  22.179  32.515  14.023
57987W        W21931  20.152   8.676  10.030
57988W        W21932  10.779  19.143  14.469
57989W        W21933  18.551  16.221  13.817
57990W        W21934  11.246   3.821   2.841
57991W        W21935  10.177  29.098   2.283
57992W        W21936  38.365  26.547   1.359
57993W        W21937  22.023  37.866  13.977
57994W        W21938  43.358  15.113  13.356
57995W        W21939  22.742  35.974  14.348
57996W        W21940  14.205  35.036   2.771
57997W        W21941  14.637  10.242  12.394
57998W        W21942  13.247  10.243  14.461
57999W        W21943  35.863   9.821   1.869
58000W        W21944  36.991   6.857   2.831
58001W        W21945   6.204  24.689   0.749
58002W        W21946   6.744   4.752  10.976
58003W        W21947  35.078  41.865  11.526
58004W        W21948  24.222  44.884  11.565
58005W        W21949  32.583  26.652  14.765
58006W        W21950  29.644  21.050   4.731
58007W        W21951   8.347  38.446  10.567
58008W        W21952   0.945  12.808   0.264
58009W        W21953  33.499   9.806   4.181
58010W        W21954   8.377  25.215  12.925
58011W        W21955   5.924   8.331  14.415
58012W        W21956   9.171   2.782   3.742
58013W        W21957  22.072  40.012   2.333
58014W        W21958  20.105   7.709   1.294
58015W        W21959   2.438  35.492   3.685
58016W        W21960  33.037  30.534   1.299
58017W        W21961  19.075  37.075   2.871
58018W        W21962   4.323  15.744  11.060
58019W        W21963  34.981   2.773  12.348
58020W        W21964  37.015  26.025  13.882
58021W        W21965  13.269  15.728   5.157
58022W        W21966  32.944  11.281  12.439
58023W        W21967  34.587  37.541  14.472
58024W        W21968  32.397  17.251   2.763
58025W        W21969  21.151  43.822  13.967
58026W        W21970  29.582   5.427  14.437
58027W        W21971   2.839  15.577  12.978
58028W        W21972  32.087  19.547  12.911
58029W        W21973   6.860  39.928  14.832
58030W        W21974  27.481  21.226   2.190
58031W        W21975  30.140   7.213   4.206
58032W        W21976  15.195  14.740   2.182
58033W        W21977  13.287  19.195   0.754
58034W        W21978  34.577  11.791   0.313
58035W        W21979  22.997  26.168   2.821
58036W        W21980  29.585  25.570  12.937
58037W        W21981  32.449  22.179  13.059
58038W        W21982  13.184  23.559   0.389
58039W        W21983  29.981  21.109   2.220
58040W        W21984  29.641  15.739  11.031
58041W        W21985  15.714   7.274   4.765
58042W        W21986  31.085  39.899  13.828
58043W        W21987  18.208   6.921   4.737
58044W        W21988  24.067  26.489  12.866
58045W        W21989  16.684   8.246   2.846
58046W        W21990   7.354  20.270  13.041
58047W        W21991  32.502  37.363  14.810
58048W        W21992  29.601  16.649  13.498
58049W        W21993  27.580  43.357   1.241
58050W        W21994   6.843   3.434  10.410
58051W        W21995  44.927  27.014   3.677
58052W        W21996  30.560  34.466  11.008
58053W        W21997  18.642  28.068  10.084
58054W        W21998  36.960  29.509   1.922
58055W        W21999  44.328   9.747   4.286
58056W        W22000  31.506   4.746  11.560
58057W        W22001  37.486   9.304   1.875
58058W        W22002  35.493  32.477   4.333
58059W        W22003   0.487  41.908  14.905
58060W        W22004  18.736   6.296   4.775
58061W        W22005  34.430   9.222   1.716
58062W        W22006  41.905  27.964  11.443
58063W        W22007  11.621  10.299   0.809
58064W        W22008   5.340   1.766   0.916
58065W        W22009  32.554  36.848  12.914
58066W        W22010  15.691  35.022   2.331
58067W        W22011  22.747  24.093  11.576
58068W        W22012  36.085  44.343  13.907
58069W        W22013  22.088   2.905   2.349
58070W        W22014  23.537  23.708  13.059
58071W        W22015  31.502  29.106  14.833
58072W        W22016   9.182   4.402  14.031
58073W        W22017  20.660   1.855   4.616
58074W        W22018  44.305   3.888   3.201
58075W        W22019  22.115   0.789  13.856
58076W        W22020  35.025  42.810   5.094
58077W        W22021  40.995  34.441   3.664
58078W        W22022  29.074  16.086  11.389
58079W        W22023  44.271  11.253  14.944
58080W        W22024  21.692  25.196   4.177
58081W        W22025  31.470  23.107   0.908
58082W        W22026  43.507  37.006   4.616
58083W        W22027  15.684  24.214   0.796
58084W        W22028  41.510  19.223  14.930
58085W        W22029   4.817  37.884   3.385
58086W        W22030   7.376   8.774   2.831
58087W        W22031  42.986   6.244  12.968
58088W        W22032   1.353   9.836  13.452
58089W        W22033  17.647  18.589  10.946
58090W        W22034  38.375  23.537   0.951
58091W        W22035  19.256  38.520   0.812
58092W        W22036   9.236  16.687  11.043
58093W        W22037  26.573   0.385   1.339
58094W        W22038  35.400  34.117   4.352
58095W        W22039  29.573  14.809  14.450
58096W        W22040  38.497  34.100  12.827
58097W        W22041  34.374  13.121  11.063
58098W        W22042  31.955  40.520  12.422
58099W        W22043  42.315  35.584   3.155
58100W        W22044  12.816  12.197  14.820
58101W        W22045  12.647  18.071  10.998
58102W        W22046  30.160   2.921  13.904
58103W        W22047  31.616  39.511  14.822
58104W        W22048  29.620   2.417  14.959
58105W        W22049   5.399  37.477   2.859
58106W        W22050  24.678  44.839   0.424
58107W        W22051  13.692  17.732   3.350
58108W        W22052  16.780  11.332   1.915
58109W        W22053  39.340  41.004  14.398
58110W        W22054  23.491  25.207  11.989
58111W        W22055  40.826  36.452   3.866
58112W        W22056  23.240  23.235  12.887
58113W        W22057  36.015  20.245   4.643
58114W        W22058  30.936  20.654   3.191
58115W        W22059  39.530  20.686   2.280
58116W        W22060  18.569  18.102   0.957
58117W        W22061   6.703  43.866   1.256
58118W        W22062  24.045  21.607   2.801
58119W        W22063   6.417  44.767  14.379
58120W        W22064   0.914  29.154   1.233
58121W        W22065   5.817   5.728   2.882
58122W        W22066  38.824  37.418  10.643
58123W        W22067  36.376  21.747   3.847
58124W        W22068  15.137  22.549   4.665
58125W        W22069  19.073   4.226   3.863
58126W        W22070  11.352  30.609   0.846
58127W        W22071  24.700   5.735   3.272
58128W        W22072  29.922  20.112  11.912
58129W        W22073  11.752  28.102  13.336
58130W        W22074   8.663   8.807  12.967
58131W        W22075  29.603   1.436  10.435
58132W        W22076  16.140  20.593  14.296
58133W        W22077  40.962  21.674  12.005
58134W        W22078  26.480  40.414   2.302
58135W        W22079  43.445   9.357  14.850
58136W        W22080  21.149  29.946   2.741
58137W        W22081   2.741   9.153   2.263
58138W        W22082  36.992  37.423   3.324
58139W        W22083  21.054   2.345   2.323
58140W        W22084   0.792  10.324  11.896
58141W        W22085  25.189  31.534  11.092
58142W        W22086  18.727   5.722   3.833
58143W        W22087  28.457  24.603  14.924
58144W        W22088   0.859  22.679  11.917
58145W        W22089   6.216   3.405   4.658
58146W        W22090  23.563  31.981  12.453
58147W        W22091  14.321  34.404  12.453
58148W        W22092   0.287  33.069   0.951
58149W        W22093  22.137  22.530  11.023
58150W        W22094  29.630  20.698   4.199
58151W        W22095  37.460  17.763  12.525
58152W        W22096   6.725  10.664  12.345
58153W        W22097  44.810  11.151   4.639
58154W        W22098  15.666  30.064   3.323
58155W        W22099  16.621  41.511  13.382
58156W        W22100  44.498  41.864   4.130
58157W        W22101  33.590  20.531  12.435
58158W        W22102  42.383  44.366   4.745
58159W        W22103  10.265  39.918   2.360
58160W        W22104  30.999  28.601   0.823
58161W        W22105  42.487  25.178   1.816
58162W        W22106  20.764  44.909  11.439
58163W        W22107  15.112   5.921  10.546
58164W        W22108   7.249   9.807   4.773
58165W        W22109  21.123  13.648   4.755
58166W        W22110  18.065  11.341  12.984
58167W        W22111  30.495   9.163  12.954
58168W        W22112  34.880   5.852   0.333
58169W        W22113  28.604  20.544  11.920
58170W        W22114  44.360  33.962  14.312
58171W        W22115   4.923  29.424  10.892
58172W        W22116   7.685  22.535  13.409
58173W        W22117  25.563   6.408   2.379
58174W        W22118  32.890  42.824  14.925
58175W        W22119  44.942  42.481  12.024
58176W        W22120  31.040   9.890  10.996
58177W        W22121   1.754  18.747  10.573
58178W        W22122  32.513   9.745   1.929
58179W        W22123   9.230  26.600   0.305
58180W        W22124   8.691  42.404  14.841
58181W        W22125  38.499   0.755  13.885
58182W        W22126  32.934  40.319  10.613
58183W        W22127  40.448  39.400  11.052
58184W        W22128  42.324  12.748  14.848
58185W        W22129  12.289  27.570  11.384
58186W        W22130   0.420  29.071   1.395
58187W        W22131   6.261   1.393   4.262
58188W        W22132  42.804   9.648   1.868
58189W        W22133  42.950   4.782  12.492
58190W        W22134  41.851  43.898  11.927
58191W        W22135   0.770  31.409  11.042
58192W        W22136  24.618  34.450  10.588
58193W        W22137  27.182  26.685  12.459
58194W        W22138  34.423   4.252  13.382
58195W        W22139  41.353  38.366  13.455
58196W        W22140  43.395  35.045  12.448
58197W        W22141  15.618  44.894   2.397
58198W        W22142   1.378   7.336  11.415
58199W        W22143  38.847  38.473   4.212
58200W        W22144  13.309   5.739   3.207
58201W        W22145  21.126  24.601   1.825
58202W        W22146  19.273  19.722  11.912
58203W        W22147   8.851   8.881   0.425
58204W        W22148   5.933  30.058  14.867
58205W        W22149  15.110  25.698   4.715
58206W        W22150  28.624  40.533   2.326
58207W        W22151  44.879  30.415  12.916
58208W        W22152  28.644  37.937  12.972
58209W        W22153  42.802  41.883   5.122
58210W        W22154  15.815   7.800  11.597
58211W        W22155  12.176  28.020   2.836
58212W        W22156  34.551  31.637  14.410
58213W        W22157   3.319  20.240   4.304
58214W        W22158  21.601  33.091  12.024
58215W        W22159  33.551   7.819  14.882
58216W        W22160  27.142  22.573  10.946
58217W        W22161  18.649  38.868  11.404
58218W        W22162  19.582  12.762  10.413
58219W        W22163  25.184   9.246   1.241
58220W        W22164  18.119  13.795   0.860
58221W        W22165   8.712   9.182   2.399
58222W        W22166   7.352  19.099  10.470
58223W        W22167   8.822  37.381  10.559
58224W        W22168  23.517  35.907  13.933
58225W        W22169   2.326  37.059  13.862
58226W        W22170  31.567  16.199  12.024
58227W        W22171  28.146  21.608   4.828
58228W        W22172  44.266  28.075   4.269
58229W        W22173  38.883   9.860  10.109
58230W        W22174  16.708  38.561   0.882
58231W        W22175  32.934  41.517   0.962
58232W        W22176   9.762   0.348  11.895
58233W        W22177  15.227   1.372  11.994
58234W        W22178  40.405  10.215  10.490
58235W        W22179  32.963  39.048   1.901
58236W        W22180   1.301  18.172   3.860
58237W        W22181  19.693  22.624  14.866
58238W        W22182   3.878  36.959  12.505
58239W        W22183  36.964  42.779  14.824
58240W        W22184   3.828  39.340   3.167
58241W        W22185  38.507   0.914   1.907
58242W        W22186  34.938  29.111  14.853
58243W        W22187  30.599  17.745   0.848
58244W        W22188  25.702   9.357  13.467
58245W        W22189  34.576  37.944   1.224
58246W        W22190   8.712  40.978   0.926
58247W        W22191  30.444  24.057   1.333
58248W        W22192  20.756   2.415   3.862
58249W        W22193  35.078   6.407  12.955
58250W        W22194  36.555  12.665   0.854
58251W        W22195  44.388  35.030  11.486
58252W        W22196  10.643   6.903   4.814
58253W        W22197  33.939  34.082   3.272
58254W        W22198   3.955   6.252   3.324
58255W        W22199  17.291  21.107   5.247
58256W        W22200  31.978   0.862   3.778
58257W        W22201  42.341   3.332   0.469
58258W        W22202  22.582  28.057  11.517
58259W        W22203  30.441   0.268   1.356
58260W        W22204   1.337  29.041  11.985
58261W        W22205  20.115   0.328   2.419
58262W        W22206  27.012  13.226  14.297
58263W        W22207  44.903  32.541   4.125
58264W        W22208   6.217  25.606  12.561
58265W        W22209   9.219  20.178   1.886
58266W        W22210  26.053  41.533   4.736
58267W        W22211  40.822  16.791   2.326
58268W        W22212  35.865  30.093   0.452
58269W        W22213  15.759  40.835   2.265
58270W        W22214  40.486   9.366  11.941
58271W        W22215  19.238   6.709   1.407
58272W        W22216  25.527  27.604  13.004
58273W        W22217  25.214   5.718   4.266
58274W        W22218  33.995  16.275  11.531
58275W        W22219  12.627  37.016   2.298
58276W        W22220  34.542  38.525  11.983
58277W        W22221  34.871  42.370   0.355
58278W        W22222   1.900  30.623  14.504
58279W        W22223  16.591  42.961   0.431
58280W        W22224  43.826  40.878   3.747
58281W        W22225  27.606   6.392  13.374
58282W        W22226  43.416   3.738   3.157
58283W        W22227   6.885  29.030   1.917
58284W        W22228  26.617  30.552  14.409
58285W        W22229   0.475  20.136  12.958
58286W        W22230  25.681  29.663  10.641
58287W        W22231   9.261  14.205   0.831
58288W        W22232  17.751  31.077   1.799
58289W        W22233  35.076  21.186  10.986
58290W        W22234  12.264   1.450   1.255
58291W        W22235  37.384  21.113  11.546
58292W        W22236  21.602   7.849   4.608
58293W        W22237  41.016   0.477   3.340
58294W        W22238  25.558  42.457  11.501
58295W        W22239  25.492  35.510  14.377
58296W        W22240   4.707  11.311  12.912
58297W        W22241  29.109  10.273  14.027
58298W        W22242  40.030  28.650   3.656
58299W        W22243  20.184   4.420   1.870
58300W        W22244  10.310  27.575   1.864
58301W        W22245  41.813   3.845  10.121
58302W        W22246   3.407   3.952   4.259
58303W        W22247  38.544  37.897  12.536
58304W        W22248  21.053  19.259   3.229
58305W        W22249  12.326  12.784  11.528
58306W        W22250   9.385  30.116   2.252
58307W        W22251   1.398  13.632  12.357
58308W        W22252   3.733  35.009   3.649
58309W        W22253  18.151  15.758  12.409
58310W        W22254   6.296  16.072   5.596
58311W        W22255  19.068   4.445  11.928
58312W        W22256  43.868   4.211  10.447
58313W        W22257  37.030  35.018   2.876
58314W        W22258   5.728  14.191   2.413
58315W        W22259   6.818  43.842  10.504
58316W        W22260  44.977  42.402   2.413
58317W        W22261  34.920  17.791  10.996
58318W        W22262  43.306  21.608  10.538
58319W        W22263   6.378  37.382  13.474
58320W        W22264  33.431   1.941  10.078
58321W        W22265  41.958   5.262   3.194
58322W        W22266  27.580   6.394   2.667
58323W        W22267   8.381  31.101   0.435
58324W        W22268  31.479   6.792   4.732
58325W        W22269  41.364  37.971   4.735
58326W        W22270  11.314  34.920   0.853
58327W        W22271  37.977  29.941  13.470
58328W        W22272  18.092  42.400  12.379
58329W        W22273  35.411  39.022  13.404
58330W        W22274  37.850   5.789  10.528
58331W        W22275   2.726  14.757   0.883
58332W        W22276   6.836  24.536   1.313
58333W        W22277  15.654  39.957   2.268
58334W        W22278  44.912  30.543   2.880
58335W        W22279  22.160   3.714   3.679
58336W        W22280   7.885   7.907   3.743
58337W        W22281  15.325  21.725  13.845
58338W        W22282  38.010  12.347  13.482
58339W        W22283   9.712  10.209   0.242
58340W        W22284  25.711  28.575   3.215
58341W        W22285   8.358  34.971   3.794
58342W        W22286  20.043  25.202  12.964
58343W        W22287  16.240  43.812  12.825
58344W        W22288  33.504   4.255  10.546
58345W        W22289  15.254  40.916   4.187
58346W        W22290  42.011  41.513   3.213
58347W        W22291   1.902  40.386  11.921
58348W        W22292  23.158  31.071  10.609
58349W        W22293   8.293   9.182   4.125
58350W        W22294   2.874  26.054  13.367
58351W        W22295  24.683  11.791  12.859
58352W        W22296  16.584  37.444  13.538
58353W        W22297  38.058  23.646  11.085
58354W        W22298   5.758  36.351  12.002
58355W        W22299   8.229  19.603   2.864
58356W        W22300  14.829  39.968  14.437
58357W        W22301  34.464  31.538   1.449
58358W        W22302  35.853   1.870  14.900
58359W        W22303  34.472  18.282   0.928
58360W        W22304  16.078  22.120   9.954
58361W        W22305  37.547  40.009   3.747
58362W        W22306  43.414   0.383  11.431
58363W        W22307  31.126  21.043   3.182
58364W        W22308   8.700  42.456  12.947
58365W        W22309  31.541  18.734  11.102
58366W        W22310   4.804  19.054  11.933
58367W        W22311  17.095   7.747  10.986
58368W        W22312  10.334  43.999  10.935
58369W        W22313  26.046  26.599   4.661
58370W        W22314  19.191  30.509  11.459
58371W        W22315  39.013   4.730  10.465
58372W        W22316  13.656  32.408   2.744
58373W        W22317  21.107  42.336  12.522
58374W        W22318   5.782  36.900  14.475
58375W        W22319  19.114  40.322  13.353
58376W        W22320  43.504   5.688   2.661
58377W        W22321  15.186   5.257  13.463
58378W        W22322  13.115   8.729  12.900
58379W        W22323  36.591  36.929  10.409
58380W        W22324  24.522   2.900  14.325
58381W        W22325  37.531  26.623   1.242
58382W        W22326  36.355   1.243  14.367
58383W        W22327  22.141  19.632  14.796
58384W        W22328  44.468   1.933   4.602
58385W        W22329  14.191  32.498  11.026
58386W        W22330  18.104  29.957  13.898
58387W        W22331  41.026  37.922  12.533
58388W        W22332  33.942   0.835   1.249
58389W        W22333  15.168  24.128  11.608
58390W        W22334  37.464  27.047   2.338
58391W        W22335  31.030  37.074  13.896
58392W        W22336  33.091  13.127  12.473
58393W        W22337  17.212  34.532   1.815
58394W        W22338  31.521  35.079  12.424
58395W        W22339  31.091   8.264  11.969
58396W        W22340  21.629  15.157  12.537
58397W        W22341  10.313  41.963  10.915
58398W        W22342  40.013   9.846   0.771
58399W        W22343  18.264  21.553   1.896
58400W        W22344  29.648   6.249   0.372
58401W        W22345  38.954  33.523   3.278
58402W        W22346  27.617  28.595  13.985
58403W        W22347  26.019  12.315   1.756
58404W        W22348   6.425  11.160   2.255
58405W        W22349  34.375  19.732   3.711
58406W        W22350  14.756  19.203  11.110
58407W        W22351   1.259  42.020  13.491
58408W        W22352  16.618  28.158   4.254
58409W        W22353  36.963   5.864   1.837
58410W        W22354  37.414   4.826  10.059
58411W        W22355  29.151  31.436  13.381
58412W        W22356  15.112  40.415  10.557
58413W        W22357   5.776  42.851   3.294
58414W        W22358  14.823  26.176  11.971
58415W        W22359   2.466   3.230   2.710
58416W        W22360   1.376   1.402   3.228
58417W        W22361   3.252   0.983   0.402
58418W        W22362   3.326   5.754  11.001
58419W        W22363  23.020   3.775   4.259
58420W        W22364  42.368  19.778  14.383
58421W        W22365   5.861  13.803   1.449
58422W        W22366   6.393   1.457   3.354
58423W        W22367  26.468  12.219  11.018
58424W        W22368  34.939  41.522   1.450
58425W        W22369   4.393  36.090   2.309
58426W        W22370  20.602  24.110  12.356
58427W        W22371  25.076  41.318   2.797
58428W        W22372  28.041  39.544   3.669
58429W        W22373  37.882  25.089  10.893
58430W        W22374   4.304   8.867   1.860
58431W        W22375  29.053  36.551  10.989
58432W        W22376  40.455  17.714  11.079
58433W        W22377  17.185   6.717   1.712
58434W        W22378   7.385  18.110   1.221
58435W        W22379  27.677  25.577   1.930
58436W        W22380   4.716  13.719   2.716
58437W        W22381  10.756   3.880  14.284
58438W        W22382   8.362  39.020   2.896
58439W        W22383  37.444   5.214   4.166
58440W        W22384  11.267  11.252   0.899
58441W        W22385  28.963  17.573   1.788
58442W        W22386   4.764  29.574  11.399
58443W        W22387   6.386  20.724   2.725
58444W        W22388   9.229  15.712   1.334
58445W        W22389   2.803  21.702   4.688
58446W        W22390  44.858  20.028  12.077
58447W        W22391  35.972  23.575  13.798
58448W        W22392  31.591  16.716   9.992
58449W        W22393  30.069  16.126  10.642
58450W        W22394  12.684   1.291  11.059
58451W        W22395  32.019  26.060  13.832
58452W        W22396  43.285  16.149   3.818
58453W        W22397   4.940  10.148  10.086
58454W        W22398  26.533   0.822   1.749
58455W        W22399  24.117   9.259  11.534
58456W        W22400  11.678  31.955   0.392
58457W        W22401  13.732  40.930   1.442
58458W        W22402  19.634  11.733   4.813
58459W        W22403  20.549   1.449  14.287
58460W        W22404  29.127   9.196   1.770
58461W        W22405  34.915  37.411   1.757
58462W        W22406  16.268   7.702   3.727
58463W        W22407  23.644  17.616   1.257
58464W        W22408  40.999   0.265  14.351
58465W        W22409   1.873  44.467   1.437
58466W        W22410  10.214   4.328   4.752
58467W        W22411  39.873   7.293  14.897
58468W        W22412   9.746   3.249  12.826
58469W        W22413  40.525   9.693  14.862
58470W        W22414  22.606  18.128   1.883
58471W        W22415  27.619  44.458  10.591
58472W        W22416   4.226   4.288  13.355
58473W        W22417  24.184  27.996  11.395
58474W        W22418  20.734   0.481  11.112
58475W        W22419  26.468  13.251   3.838
58476W        W22420   8.787  26.967   0.311
58477W        W22421  13.210  26.105  13.495
58478W        W22422  44.498  43.003  12.095
58479W        W22423  32.504  44.413  10.905
58480W        W22424  44.308  14.614   2.742
58481W        W22425  32.589  43.512   3.672
58482W        W22426   4.388  31.962  10.566
58483W        W22427  42.789  28.174   2.268
58484W        W22428  23.560   4.365  11.028
58485W        W22429  12.318  39.937  14.963
58486W        W22430  20.195  19.721  11.405
58487W        W22431  21.605   1.756  14.447
58488W        W22432  35.897  24.701   2.238
58489W        W22433  17.063  35.900   0.791
58490W        W22434  24.975  33.550   4.118
58491W        W22435  18.235  27.671  10.918
58492W        W22436  14.183  32.519  11.879
58493W        W22437  24.987  29.585  10.458
58494W        W22438  25.033   9.660   1.302
58495W        W22439  30.443   9.765  11.004
58496W        W22440  44.993  36.417   1.217
58497W        W22441  27.632  32.064  12.062
58498W        W22442   2.305   8.693  10.920
58499W        W22443   9.375  15.162  11.485
58500W        W22444  33.536  40.357   3.213
58501W        W22445  17.663  20.703  13.444
58502W        W22446  20.683  17.264  11.068
58503W        W22447  22.669  11.832  14.465
58504W        W22448  35.921  20.654   2.412
58505W        W22449  14.787   6.788   2.866
58506W        W22450  15.309  13.349  13.034
58507W        W22451  24.597  32.945  12.898
58508W        W22452  29.929  18.126   0.783
58509W        W22453  41.947  35.087   1.343
58510W        W22454   1.818   0.801   2.239
58511W        W22455  31.408  43.385  10.408
58512W        W22456   2.817  34.510   2.814
58513W        W22457  36.419  43.383  11.863
58514W        W22458  11.208  32.891  14.841
58515W        W22459  25.533   8.188   4.229
58516W        W22460  12.653  40.849   3.731
58517W        W22461  16.212   8.681   3.637
58518W        W22462  42.361  42.955   1.281
58519W        W22463  15.207   3.225  13.399
58520W        W22464   9.762   5.780   2.703
58521W        W22465  34.473   1.770   1.353
58522W        W22466  28.567  38.854  14.922
58523W        W22467  25.132  32.108  12.547
58524W        W22468  34.568  19.268  14.352
58525W        W22469   8.849  41.361   2.739
58526W        W22470   9.315  20.747   4.793
58527W        W22471  41.359  40.527   0.769
58528W        W22472  36.050  27.682  10.541
58529W        W22473  14.705  34.431   4.755
58530W        W22474   7.812   0.379  13.383
58531W        W22475  27.456  15.594  11.956
58532W        W22476  44.838  21.104   4.128
58533W        W22477  22.020  41.512   4.725
58534W        W22478  37.056  14.318  14.358
58535W        W22479  10.315  34.000   1.720
58536W        W22480  39.388   9.645   2.211
58537W        W22481  29.163  12.137   1.759
58538W        W22482  41.821  32.922  12.866
58539W        W22483  32.102   8.397   2.242
58540W        W22484  36.012   2.905  11.050
58541W        W22485  40.945  13.260  10.498
58542W        W22486  19.622   9.887  10.629
58543W        W22487  41.825  24.548  14.976
58544W        W22488  29.951  43.447   2.223
58545W        W22489   4.206   6.694   4.147
58546W        W22490  25.526  24.627  11.091
58547W        W22491  10.708  44.405  14.007
58548W        W22492  12.636   4.840   1.316
58549W        W22493   5.314  16.775   2.671
58550W        W22494  32.993  41.432   3.269
58551W        W22495  16.677  25.104   0.269
58552W        W22496  15.794   5.911  14.490
58553W        W22497   0.983   4.710  11.578
58554W        W22498  35.594  36.586  14.491
58555W        W22499  23.611  22.593  11.517
58556W        W22500   0.752  10.370   1.773
58557W        W22501  29.648   1.287  11.517
58558W        W22502  42.357   8.345   3.178
58559W        W22503   6.301  41.799   3.827
58560W        W22504  44.758   4.939  11.520
58561W        W22505   6.681  32.059   4.281
58562W        W22506  13.729  20.034   0.870
58563W        W22507   8.217  22.098  14.841
58564W        W22508  44.825  37.469  13.398
58565W        W22509  23.707  12.349   0.349
58566W        W22510  39.969  34.977  13.394
58567W        W22511  29.665  18.717  14.991
58568W        W22512  43.384  25.588  14.388
58569W        W22513  38.852  22.685   0.307
58570W        W22514  35.100   0.346  11.560
58571W        W22515  38.874  21.634   0.834
58572W        W22516  39.020  41.988  10.903
58573W        W22517   5.373  23.129  10.976
58574W        W22518  36.859  40.522  14.839
58575W        W22519  44.753   8.370   2.392
58576W        W22520  18.564  28.050  14.323
58577W        W22521   6.309  31.154  14.920
58578W        W22522  22.083   1.796  10.413
58579W        W22523   0.811   7.288  14.805
58580W        W22524  42.390  40.517   1.220
58581W        W22525  16.746   7.330  11.025
58582W        W22526   0.410   2.877  11.113
58583W        W22527  36.406  37.346   4.771
58584W        W22528  16.638  10.697   2.293
58585W        W22529  18.645   7.244  12.961
58586W        W22530   5.907  26.065  14.317
58587W        W22531  25.650  26.603   3.265
58588W        W22532  15.594  37.404   0.753
58589W        W22533   2.928  44.941   1.797
58590W        W22534  10.744  37.342   3.182
58591W        W22535  41.376  38.965  14.795
58592W        W22536   5.217  23.039  11.496
58593W        W22537   7.227  40.837  10.564
58594W        W22538  38.528  41.534  13.908
58595W        W22539  39.036  13.336  10.526
58596W        W22540   1.915  44.001   4.656
58597W        W22541   8.874   4.223   4.823
58598W        W22542   9.845  15.189   4.269
58599W        W22543  12.715  11.264   3.295
58600W        W22544  43.773  22.714  14.384
58601W        W22545  35.921  40.840   0.432
58602W        W22546  14.316  34.921  11.376
58603W        W22547   8.750  38.473   0.736
58604W        W22548  33.602  33.503   3.229
58605W        W22549   0.388  29.084   2.750
58606W        W22550   5.422   9.690   4.205
58607W        W22551  30.484   2.225  12.422
58608W        W22552  10.810  22.646   1.392
58609W        W22553  23.993  27.692   2.706
58610W        W22554  10.690   5.278   2.841
58611W        W22555  43.766   0.972  11.459
58612W        W22556  10.344  36.907  11.874
58613W        W22557   0.922  26.158  12.879
58614W        W22558  41.463   2.243   2.362
58615W        W22559  15.750   5.299  13.955
58616W        W22560  20.153   7.312  13.965
58617W        W22561   6.224  16.250   5.126
58618W        W22562  17.622  41.987  10.565
58619W        W22563  12.626  33.415   3.787
58620W        W22564  22.640  35.054   4.755
58621W        W22565  15.748  43.381  13.821
58622W        W22566  31.457  10.841  11.971
58623W        W22567  38.435  43.955   4.267
58624W        W22568   0.947  25.097   5.285
58625W        W22569  29.504  41.451   3.683
58626W        W22570  31.020  29.517   0.385
58627W        W22571  13.745  34.063   0.767
58628W        W22572   6.428  39.810  12.463
58629W        W22573  37.933  17.240   2.894
58630W        W22574  15.282  41.412   4.828
58631W        W22575   0.773  28.949  14.300
58632W        W22576  40.980   1.325  10.587
58633W        W22577  18.236  43.390  10.596
58634W        W22578  20.029  22.054  11.039
58635W        W22579  23.525   6.844   1.785
58636W        W22580  43.328  42.946  10.581
58637W        W22581  21.692   0.398   1.316
58638W        W22582   3.949  14.266   1.395
58639W        W22583   8.748  12.137   1.272
58640W        W22584  10.238  43.827   2.887
58641W        W22585  22.695  24.547  13.047
58642W        W22586  29.112  23.526   3.671
58643W        W22587   4.746   0.254  13.490
58644W        W22588  17.211  43.906   4.786
58645W        W22589  44.443  43.370   0.937
58646W        W22590   8.359   4.232  11.944
58647W        W22591  18.165  13.835  13.409
58648W        W22592  22.509  26.669  12.088
58649W        W22593   9.861  44.869  13.940
58650W        W22594  10.170  26.191  12.399
58651W        W22595  40.371  27.561   4.696
58652W        W22596  33.590  30.452  10.465
58653W        W22597  42.510   8.815  11.872
58654W        W22598  43.351  40.531  11.000
58655W        W22599   8.901  22.703  12.983
58656W        W22600   5.301  16.097   3.772
58657W        W22601  22.061  23.696  14.364
58658W        W22602   4.782   0.454  11.392
58659W        W22603  17.146  24.075  12.068
58660W        W22604  20.534  30.995   3.747
58661W        W22605  28.941  24.708   0.255
58662W        W22606   5.216  33.592   1.862
58663W        W22607  30.590  14.302   3.246
58664W        W22608   8.351  25.032   4.612
58665W        W22609  42.942  34.545  12.944
58666W        W22610  44.005  32.132  11.549
58667W        W22611  15.670  43.993   4.732
58668W        W22612  39.915  28.997  14.328
58669W        W22613  14.826   7.813   3.263
58670W        W22614  22.154  39.876  11.979
58671W        W22615   2.336  28.014   4.703
58672W        W22616  26.980  36.011   1.297
58673W        W22617  44.987  14.197   4.276
58674W        W22618  16.213  25.176  12.044
58675W        W22619   0.938  26.128   0.757
58676W        W22620  10.146  29.441  12.894
58677W        W22621  32.025   0.822  11.393
58678W        W22622  14.715  17.587  11.982
58679W        W22623  35.052   9.856   3.669
58680W        W22624  36.504  31.024   4.316
58681W        W22625  15.606  27.499  13.861
58682W        W22626  33.486  12.671   9.977
58683W        W22627  22.162  32.484  11.439
58684W        W22628  13.236  21.666  10.539
58685W        W22629   8.165  38.997  14.824
58686W        W22630  40.986  43.998   4.287
58687W        W22631  18.232  17.150  14.920
58688W        W22632  21.020  13.815  12.062
58689W        W22633   7.185   2.947   2.394
58690W        W22634  20.050  29.604  13.354
58691W        W22635   3.712  33.506   0.259
58692W        W22636  38.060  22.516   2.707
58693W        W22637  22.507   4.897  10.564
58694W        W22638  11.733  31.073  12.885
58695W        W22639  38.946  28.149  11.877
58696W        W22640  41.381  13.638  13.439
58697W        W22641  29.141  27.151  12.076
58698W        W22642   1.778   5.764   1.427
58699W        W22643  12.744  31.079  10.956
58700W        W22644  32.031  11.191   3.279
58701W        W22645  11.194  15.179  12.953
58702W        W22646  34.914  38.515  12.514
58703W        W22647  39.441  13.830   2.211
58704W        W22648  41.462  30.506   2.362
58705W        W22649  19.716  33.058   2.791
58706W        W22650  21.236   3.377   5.181
58707W        W22651  16.587  15.261   3.694
58708W        W22652   7.223  37.343   0.456
58709W        W22653   1.883  25.996   2.259
58710W        W22654  35.899  32.514  14.029
58711W        W22655   6.841  30.161   5.227
58712W        W22656  35.479  31.953  12.070
58713W        W22657   8.334   0.748   2.844
58714W        W22658  41.471  41.016  10.466
58715W        W22659  29.444  26.466  14.759
58716W        W22660  43.369  27.128   2.272
58717W        W22661   1.387  38.867   1.842
58718W        W22662  13.747   9.780   3.779
58719W        W22663  13.782   9.221  12.435
58720W        W22664  10.794  44.890  12.895
58721W        W22665  26.580   4.374  10.917
58722W        W22666  32.117  35.981  12.545
58723W        W22667  22.013  22.609   4.337
58724W        W22668  30.117  28.139  10.579
58725W        W22669  21.570   1.379  14.450
58726W        W22670  11.718  34.983   2.867
58727W        W22671  36.993  27.530   2.780
58728W        W22672  29.524  44.264   5.167
58729W        W22673  16.604  42.472  12.576
58730W        W22674  40.396  26.534  10.056
58731W        W22675  32.096  12.166  12.417
58732W        W22676  12.643  12.828  11.375
58733W        W22677  15.292  27.604  12.984
58734W        W22678   0.956  44.905  14.504
58735W        W22679  31.152  15.776  14.443
58736W        W22680  42.804  25.541   2.678
58737W        W22681  26.474  33.417  13.809
58738W        W22682  33.441  42.291  14.767
58739W        W22683  41.425   8.852   1.406
58740W        W22684  39.814  11.693   1.873
58741W        W22685   8.291  29.590  11.391
58742W        W22686  29.540  39.043  11.977
58743W        W22687  32.443   0.342   2.301
58744W        W22688  30.083  17.767  14.971
58745W        W22689  18.256  34.981  14.305
58746W        W22690  34.469   8.857  13.019
58747W        W22691   8.384  38.440   2.842
58748W        W22692  20.149  11.154   0.921
58749W        W22693  17.066  26.690  13.425
58750W        W22694  17.250  40.918  13.954
58751W        W22695  18.758  19.662  10.033
58752W        W22696  21.228  27.631  14.970
58753W        W22697  16.589   1.277  11.882
58754W        W22698   7.879  36.438  13.312
58755W        W22699  29.477  17.628   0.907
58756W        W22700  40.501   8.782  11.947
58757W        W22701  38.470  33.563  10.907
58758W        W22702  12.149  40.873   3.234
58759W        W22703  32.478  35.887  12.473
58760W        W22704   9.310   3.385  14.329
58761W        W22705   1.372  31.137  11.119
58762W        W22706   4.396  38.917  11.553
58763W        W22707  37.489  11.860   1.236
58764W        W22708   5.393   4.443  14.796
58765W        W22709  39.924  34.988  11.912
58766W        W22710  35.100  22.579  11.549
58767W        W22711  42.986  24.060   3.280
58768W        W22712  25.518  28.154   2.846
58769W        W22713  20.055  21.120  12.555
58770W        W22714  41.327  11.810  11.086
58771W        W22715  15.579  29.545   1.876
58772W        W22716  11.160  26.953   1.262
58773W        W22717  39.968  28.525  11.862
58774W        W22718  37.346  37.342  14.290
58775W        W22719  10.194  20.544   2.259
58776W        W22720   0.315  13.799  13.486
58777W        W22721  25.628   0.955  11.386
58778W        W22722  20.563  28.610   3.301
58779W        W22723  36.909   6.408  10.596
58780W        W22724   5.841  37.347  11.059
58781W        W22725  38.070  42.348   0.421
58782W        W22726   3.876   3.286   2.359
58783W        W22727  19.606  40.921  10.405
58784W        W22728  23.169  20.177  14.381
58785W        W22729  26.691  41.492   2.696
58786W        W22730  41.440  43.510   4.350
58787W        W22731  29.622  17.561  14.918
58788W        W22732  43.393  17.721  13.915
58789W        W22733  19.760  27.191   2.674
58790W        W22734  40.432  19.636   2.302
58791W        W22735  22.078   0.384   3.663
58792W        W22736  35.991  38.821   1.288
58793W        W22737   8.845  16.736   0.374
58794W        W22738   2.760  15.799  13.880
58795W        W22739  23.226  32.015   2.265
58796W        W22740   0.757  14.711   2.787
58797W        W22741  10.194   6.422  14.408
58798W        W22742  29.144  35.908   1.429
58799W        W22743  42.836   1.247  11.568
58800W        W22744  38.569  28.558   1.761
58801W        W22745  33.499  20.664   1.803
58802W        W22746  16.708  20.075  14.418
58803W        W22747  38.824  26.556  13.062
58804W        W22748  21.548  16.284   1.427
58805W        W22749  21.049  18.284   3.802
58806W        W22750  10.730  19.639  12.374
58807W        W22751  35.979  40.459   4.805
58808W        W22752   0.474  34.581   3.156
58809W        W22753  13.283  18.206   1.815
58810W        W22754  24.571  29.016  13.434
58811W        W22755  33.928  26.666   1.837
58812W        W22756  33.043   2.376  13.809
58813W        W22757  26.201  43.331   0.301
58814W        W22758  10.837   1.442  14.956
58815W        W22759  44.760  14.193   0.836
58816W        W22760   7.689  30.450  10.987
58817W        W22761  25.988  35.009  11.548
58818W        W22762  40.524  24.185   5.278
58819W        W22763  18.746  12.150  13.544
58820W        W22764  33.571  18.266   1.340
58821W        W22765   1.789  33.953  11.881
58822W        W22766  14.266   1.375  13.515
58823W        W22767  39.977   2.952  13.808
58824W        W22768  35.596  12.244  12.455
58825W        W22769   1.410  35.987   1.822
58826W        W22770   6.252  11.327   3.727
58827W        W22771  42.478  35.956   3.271
58828W        W22772   1.947  20.267  13.919
58829W        W22773  20.721  14.626   1.771
58830W        W22774  31.924  13.114   5.136
58831W        W22775  25.689  37.881  12.066
58832W        W22776   5.377  23.012  13.502
58833W        W22777  35.433  13.739   4.801
58834W        W22778   3.758  39.061   2.319
58835W        W22779  17.291  28.123  13.499
58836W        W22780   0.448  44.422  12.383
58837W        W22781   8.232  30.154  11.914
58838W        W22782  18.218  40.424   2.871
58839W        W22783  39.966   4.709   2.738
58840W        W22784  30.056   3.380  11.070
58841W        W22785  31.030  44.838  12.450
58842W        W22786  40.816   3.402   0.766
58843W        W22787  37.979  30.563   0.381
58844W        W22788  11.297  25.982   3.190
58845W        W22789   0.767  12.270   3.648
58846W        W22790  37.555  21.747  10.452
58847W        W22791  24.605  19.264  13.326
58848W        W22792   4.796  35.522   2.705
58849W        W22793  11.660  10.153  10.899
58850W        W22794  40.380   2.378  10.500
58851W        W22795  41.403  29.019   4.599
58852W        W22796  32.003   3.319   1.260
58853W        W22797  18.766  36.393  11.013
58854W        W22798  39.505  21.176   0.806
58855W        W22799   2.277  32.125   4.324
58856W        W22800  34.594  30.083  10.911
58857W        W22801   0.322  16.759  13.808
58858W        W22802  20.057  28.984   1.442
58859W        W22803  41.807   5.229  11.065
58860W        W22804   3.819  17.631  13.451
58861W        W22805  23.699   8.847  12.519
58862W        W22806  29.157  25.586  13.324
58863W        W22807  10.312  33.928   3.650
58864W        W22808  23.527  21.187  10.984
58865W        W22809  32.605  24.696   3.820
58866W        W22810  26.505  34.495  12.935
58867W        W22811  39.395  13.239   1.323
58868W        W22812  16.573  35.006   3.327
58869W        W22813  28.558  18.782   2.828
58870W        W22814  40.527   3.267   2.717
58871W        W22815  28.579  32.141  13.363
58872W        W22816  34.397   9.307   4.775
58873W        W22817   8.334  37.364   2.852
58874W        W22818  37.870  36.923  14.958
58875W        W22819  17.746  27.597  12.446
58876W        W22820  33.402  27.671   4.727
58877W        W22821  38.981  33.445   0.384
58878W        W22822  21.688  23.505  10.410
58879W        W22823  24.136   3.294   1.311
58880W        W22824  28.596   6.781   0.821
58881W        W22825   3.244  29.129  13.847
58882W        W22826  16.103   2.890  11.553
58883W        W22827  12.204   4.370  12.464
58884W        W22828   4.883  18.224   4.339
58885W        W22829  20.134   6.891   1.900
58886W        W22830   8.305   9.391  14.925
58887W        W22831  37.018   0.819  14.296
58888W        W22832  12.270  40.320   3.231
58889W        W22833  44.419  11.213   9.947
58890W        W22834   8.762  36.518  14.012
58891W        W22835   3.362  17.629  14.499
58892W        W22836   0.404  18.701  14.279
58893W        W22837   1.245   5.335  12.034
58894W        W22838  40.875  18.789  11.589
58895W        W22839   3.872  28.061  10.484
58896W        W22840  21.024  37.872   0.242
58897W        W22841  35.086  34.528  10.083
58898W        W22842   8.900  37.445  12.393
58899W        W22843  30.653  23.008   1.351
58900W        W22844   4.337   5.248   5.083
58901W        W22845  21.045  20.035  11.068
58902W        W22846  35.892  26.044  14.766
58903W        W22847   0.890  13.162  10.936
58904W        W22848  11.331  25.027  13.322
58905W        W22849  40.344  44.932   1.861
58906W        W22850   5.927  38.991  12.879
58907W        W22851  41.806   2.301   3.373
58908W        W22852  40.994  36.513   1.332
58909W        W22853  17.101  27.983   5.101
58910W        W22854  41.014  15.633   3.752
58911W        W22855  19.614   3.295  10.047
58912W        W22856  44.277  24.523   3.369
58913W        W22857  38.332  14.193   3.193
58914W        W22858  37.415  29.129  13.912
58915W        W22859  28.992   1.346  11.955
58916W        W22860  34.081  28.077  10.935
58917W        W22861  41.870  37.429   2.302
58918W        W22862  27.078   2.910   2.314
58919W        W22863  14.160  20.658   0.926
58920W        W22864   9.255  18.235   3.265
58921W        W22865   4.936  42.469   2.286
58922W        W22866  21.636  18.280   2.770
58923W        W22867  29.110  30.997   3.146
58924W        W22868  23.991  29.531  14.910
58925W        W22869  37.359  29.939   2.204
58926W        W22870  17.179   6.922   9.575
58927W        W22871  38.382   8.204   4.597
58928W        W22872  24.723  27.175   1.749
58929W        W22873  35.378  36.083  13.904
58930W        W22874  29.000  38.941  11.435
58931W        W22875  34.066  19.583   2.836
58932W        W22876  37.893  37.516   1.400
58933W        W22877   1.773  23.502   3.841
58934W        W22878  13.284  40.463  12.860
58935W        W22879  36.092  38.482  12.430
58936W        W22880  43.990  44.757   0.898
58937W        W22881  17.063   6.677   5.607
58938W        W22882  21.230  33.446   0.794
58939W        W22883  43.944  42.911   2.782
58940W        W22884   6.406   2.841   0.347
58941W        W22885  43.507  43.291   2.246
58942W        W22886  10.745  36.858  11.041
58943W        W22887   4.393  23.089   0.802
58944W        W22888  17.683  20.527  12.564
58945W        W22889  15.173   9.824   3.355
58946W        W22890  40.419   4.322   4.256
58947W        W22891   7.283  39.528   0.921
58948W        W22892  32.115  42.836  11.104
58949W        W22893  18.705   5.438   1.760
58950W        W22894  15.704  32.082   2.309
58951W        W22895  23.140  42.287  14.503
58952W        W22896  42.857  11.705   3.167
58953W        W22897  18.626  26.199  13.827
58954W        W22898  44.761  40.041  11.431
58955W        W22899  15.724  31.401  11.461
58956W        W22900  18.239  26.643  10.529
58957W        W22901   2.457  38.039  10.446
58958W        W22902   3.773   6.872  13.866
58959W        W22903   7.901  28.670   2.243
58960W        W22904  10.842  12.681  10.630
58961W        W22905  18.719  32.504  10.636
58962W        W22906  37.839  44.337  10.149
58963W        W22907   6.681  15.117   1.699
58964W        W22908   1.397   7.818  13.877
58965W        W22909  38.028   8.851  11.879
58966W        W22910  11.705  27.501   0.446
58967W        W22911  15.180   4.933  11.034
58968W        W22912  20.710  19.158  13.809
58969W        W22913  41.962   7.299  10.490
58970W        W22914  14.725  27.965   2.187
58971W        W22915   1.272  14.612  10.602
58972W        W22916  10.819  32.540  11.034
58973W        W22917  22.551   2.427  12.976
58974W        W22918  14.693  16.149   0.339
58975W        W22919  28.156  26.048  12.916
58976W        W22920  21.135  30.051   3.168
58977W        W22921  10.311  36.913   4.335
58978W        W22922  33.562  17.677  14.782
58979W        W22923  29.545  44.346   3.240
58980W        W22924   9.309   4.708  14.495
58981W        W22925  19.778  33.043   1.375
58982W        W22926  18.192  14.289   2.328
58983W        W22927  18.678  43.904   0.428
58984W        W22928  13.182  10.846   0.962
58985W        W22929  26.620  42.358   3.226
58986W        W22930  14.676  30.583   0.283
58987W        W22931  19.631  25.069   1.796
58988W        W22932  29.613  21.042  10.461
58989W        W22933  34.949  18.752   1.892
58990W        W22934   4.378  25.122   4.212
58991W        W22935   2.824  23.733  13.448
58992W        W22936  43.450  40.477   0.902
58993W        W22937  39.038  24.130   2.352
58994W        W22938  31.609  32.123  13.484
58995W        W22939  25.564   2.793   4.746
58996W        W22940  38.051  27.948   4.817
58997W        W22941  39.435  21.637   0.940
58998W        W22942  30.078  37.342   3.631
58999W        W22943   9.735   4.729   2.692
59000W        W22944  20.728   9.230   9.586
59001W        W22945   8.892  24.219   4.756
59002W        W22946  39.824   2.447  10.986
59003W        W22947   7.705  37.949   2.741
59004W        W22948  20.572  32.513   3.158
59005W        W22949   5.866  33.428  12.509
59006W        W22950  38.873  43.961  11.971
59007W        W22951  33.927  11.835   0.823
59008W        W22952  39.858  41.918   2.299
59009W        W22953  30.958  33.094   4.220
59010W        W22954   2.235  29.525  14.454
59011W        W22955  17.116   4.337   0.937
59012W        W22956  44.829   1.374   1.848
59013W        W22957  14.258  28.021   1.861
59014W        W22958  14.706   8.325  13.400
59015W        W22959  12.700  11.353  13.449
59016W        W22960  24.155  12.343   0.940
59017W        W22961  24.546  43.891  13.364
59018W        W22962  41.956  20.592   2.841
59019W        W22963  28.950   0.746  14.947
59020W        W22964  36.850  39.913   2.744
59021W        W22965  30.485  22.622  12.439
59022W        W22966  22.581   6.708  11.964
59023W        W22967  20.091  37.531  14.454
59024W        W22968  10.868  12.822   4.684
59025W        W22969  32.596  21.706  10.406
59026W        W22970  33.506   5.205   3.720
59027W        W22971  22.131   9.293   3.253
59028W        W22972  37.387  22.111  11.382
59029W        W22973   1.925  17.242   3.170
59030W        W22974  19.563  28.128   0.737
59031W        W22975  43.316  41.927  14.489
59032W        W22976  36.953  37.960  12.459
59033W        W22977  18.790  12.733   2.209
59034W        W22978  37.928  37.010   1.368
59035W        W22979  16.741  44.279   4.152
59036W        W22980   1.282  12.798   2.288
59037W        W22981  35.028  41.460   0.768
59038W        W22982  24.062  44.878  11.059
59039W        W22983  10.786  25.532   1.240
59040W        W22984  13.324  30.580  13.804
59041W        W22985   6.729  18.265  11.563
59042W        W22986  34.927  32.090  10.436
59043W        W22987   1.426  15.657  11.005
59044W        W22988  41.335  40.041   0.759
59045W        W22989  39.035  15.273  14.978
59046W        W22990   9.868  12.260   3.813
59047W        W22991  33.016  26.047   2.887
59048W        W22992  43.950  16.738  14.320
59049W        W22993   4.760  44.966   0.925
59050W        W22994   6.282  16.726  12.893
59051W        W22995  37.391   2.391  12.018
59052W        W22996   5.831  34.437  11.594
59053W        W22997   8.205   1.905  11.579
59054W        W22998   0.383  26.191  14.303
59055W        W22999  26.106  23.228   1.360
59056W        W23000  11.715  36.879   0.325
59057W        W23001  24.695  22.126   1.935
59058W        W23002  33.551  19.209  13.475
59059W        W23003  18.294  34.024   1.868
59060W        W23004  36.377  10.187  14.278
59061W        W23005  32.989  19.255  10.586
59062W        W23006  39.493  35.419  11.421
59063W        W23007  10.138   0.338  10.448
59064W        W23008  16.652  10.759  11.400
59065W        W23009  21.251   4.391  14.513
59066W        W23010   4.865   2.296  12.545
59067W        W23011   2.440  33.545   0.336
59068W        W23012  11.666  27.589   4.242
59069W        W23013  43.859  24.559  10.534
59070W        W23014  34.372   3.807   1.293
59071W        W23015  18.223   3.234  11.882
59072W        W23016  25.031   1.920   2.201
59073W        W23017  10.149  24.200   3.206
59074W        W23018  28.085  43.965   3.266
59075W        W23019   5.307  26.657  13.405
59076W        W23020  42.315  11.302  12.395
59077W        W23021  36.493  33.383   0.273
59078W        W23022  28.965  21.163   2.883
59079W        W23023   4.391  11.358   1.293
59080W        W23024   8.660   3.909   0.413
59081W        W23025  44.405  18.072   3.232
59082W        W23026  19.558   3.797   5.084
59083W        W23027   4.788   3.324  14.515
59084W        W23028  37.579  33.984   0.868
59085W        W23029  35.042  13.695   4.343
59086W        W23030  30.430  25.127   3.641
59087W        W23031  28.974   2.377  14.905
59088W        W23032   3.718   5.864  13.895
59089W        W23033  22.607   4.371   4.237
59090W        W23034   0.851  37.440  10.631
59091W        W23035  41.465  11.681   0.754
59092W        W23036  29.637  22.013  12.470
59093W        W23037  12.305   7.889   4.150
59094W        W23038  11.708  14.825   0.825
59095W        W23039  25.198  23.168   0.951
59096W        W23040   3.786   9.303  12.412
59097W        W23041   2.404  42.929  12.032
59098W        W23042  27.501   9.335   3.771
59099W        W23043  28.491  44.376  10.607
59100W        W23044  43.378  38.516   3.266
59101W        W23045  43.379   8.256   2.738
59102W        W23046   2.310   9.246  13.469
59103W        W23047   9.170  11.155  10.579
59104W        W23048   8.830  38.054   2.888
59105W        W23049  28.610   3.850  13.442
59106W        W23050  27.153  20.655  11.576
59107W        W23051  21.028  26.504  14.022
59108W        W23052  28.571   4.839   2.346
59109W        W23053  21.254  21.672  13.003
59110W        W23054  19.070  17.637  12.076
59111W        W23055  44.754  26.513  10.908
59112W        W23056  17.597  21.754  10.053
59113W        W23057  36.569  28.133   4.346
59114W        W23058  20.167   9.879   2.855
59115W        W23059  39.818   0.494  13.836
59116W        W23060  20.668  10.849  11.539
59117W        W23061  14.233  29.945  10.935
59118W        W23062  44.898  10.184   1.700
59119W        W23063  30.104  42.828   3.204
59120W        W23064  24.220  17.760   3.355
59121W        W23065  28.640  35.383   4.184
59122W        W23066  22.625  26.494  12.558
59123W        W23067  35.529  21.734  14.951
59124W        W23068  40.374  22.156   0.278
59125W        W23069  34.502  41.874  11.494
59126W        W23070  41.426  30.987   5.248
59127W        W23071  20.663  24.034  11.418
59128W        W23072   7.741  26.526   4.215
59129W        W23073  29.487  24.590   0.943
59130W        W23074  24.150  15.698   2.745
59131W        W23075  28.955  16.220   5.138
59132W        W23076  42.959  10.250  12.357
59133W        W23077   2.359  10.232   3.843
59134W        W23078  19.193  44.504   4.652
59135W        W23079  29.668  26.099   0.328
59136W        W23080  44.393   9.773  11.054
59137W        W23081   7.273  12.686   1.738
59138W        W23082   9.183   2.363   0.265
59139W        W23083  33.447   8.825   2.701
59140W        W23084   1.925  44.923   1.222
59141W        W23085  21.751  15.820   1.272
59142W        W23086  24.008  12.853   4.735
59143W        W23087  24.498  23.512   2.859
59144W        W23088  34.434   9.832  14.875
59145W        W23089  10.759  15.144   2.760
59146W        W23090  28.126  41.983   1.434
59147W        W23091  15.735  20.612   9.949
59148W        W23092  42.997  13.245   4.354
59149W        W23093  22.207  29.654  10.543
59150W        W23094  25.522  14.195  12.554
59151W        W23095  10.820   8.309  12.899
59152W        W23096  31.470  23.169  13.951
59153W        W23097   9.759  10.652  13.842
59154W        W23098  31.908   9.651  13.864
59155W        W23099   5.392   4.351   4.697
59156W        W23100  26.538  23.075  13.308
59157W        W23101   5.933   0.926  12.427
59158W        W23102   2.891  24.601   1.377
59159W        W23103   8.348  23.589  12.535
59160W        W23104  43.329  29.506  14.025
59161W        W23105  29.508  34.109  12.848
59162W        W23106  14.608  25.583  13.326
59163W        W23107   2.770  44.434   0.462
59164W        W23108  18.548  34.934   3.210
59165W        W23109  24.187   1.743   4.215
59166W        W23110   9.349  12.215  14.462
59167W        W23111  26.496  41.369   0.351
59168W        W23112  30.595   4.825  13.480
59169W        W23113  32.989   6.730   3.235
59170W        W23114  30.108  23.146  14.864
59171W        W23115  10.199  40.312  13.495
59172W        W23116   5.333  43.974  11.502
59173W        W23117  39.967  30.557   1.220
59174W        W23118  28.980   7.390   4.799
59175W        W23119  41.887  21.570  13.975
59176W        W23120  24.082  29.011  14.936
59177W        W23121  20.619   8.854  14.408
59178W        W23122  13.835  15.583   0.407
59179W        W23123  16.305  40.011  14.806
59180W        W23124   6.766  21.262  12.524
59181W        W23125  18.751  44.830  14.466
59182W        W23126   9.323   6.862   4.173
59183W        W23127  10.699  31.917   5.157
59184W        W23128  23.109  13.733  12.914
59185W        W23129   4.724  19.694   3.264
59186W        W23130  35.998  10.765   2.263
59187W        W23131  43.307  42.781  12.841
59188W        W23132  41.994  28.436  10.962
59189W        W23133  31.418   3.723   0.750
59190W        W23134   4.276   7.912   2.267
59191W        W23135  39.014  23.225  14.449
59192W        W23136  33.396   0.744  13.055
59193W        W23137  29.074  23.107  14.342
59194W        W23138  32.975  33.048  11.560
59195W        W23139  42.898  36.535  11.520
59196W        W23140  14.303  15.207  13.421
59197W        W23141  18.596  25.118   5.287
59198W        W23142  12.303   2.265  10.642
59199W        W23143  26.682   3.258   0.961
59200W        W23144   4.924  40.815  12.886
59201W        W23145  18.607   2.233   1.897
59202W        W23146  29.652  28.469   1.913
59203W        W23147  20.740   9.730   0.953
59204W        W23148   6.250  40.328   1.436
59205W        W23149  37.044  30.984  14.915
59206W        W23150  20.522   1.364  11.511
59207W        W23151  31.406  23.214  14.404
59208W        W23152  27.075  23.724   3.355
59209W        W23153  40.022  30.073  14.838
59210W        W23154  27.128   9.223  12.461
59211W        W23155  20.140   3.338  11.917
59212W        W23156  30.507  27.576  14.498
59213W        W23157  34.077  12.804   0.320
59214W        W23158  28.066  33.939   3.355
59215W        W23159   5.885  40.836   4.663
59216W        W23160   4.780  21.232   4.340
59217W        W23161  20.231  41.957  14.358
59218W        W23162  11.336   1.783  13.800
59219W        W23163   5.305  16.597  14.957
59220W        W23164  27.081  29.508   4.206
59221W        W23165  15.212  23.629  14.920
59222W        W23166  40.427  35.087  13.978
59223W        W23167   1.906  27.151   3.309
59224W        W23168   7.763  36.364  14.466
59225W        W23169  38.471  25.005   0.448
59226W        W23170  31.599  14.179  11.122
59227W        W23171  41.464  36.481   4.754
59228W        W23172  36.998   6.699   3.828
59229W        W23173  24.078  38.430  14.409
59230W        W23174  28.473  39.512   9.443
59231W        W23175  21.220  11.160   2.856
59232W        W23176   5.347  13.753  11.424
59233W        W23177  39.381  17.190   4.223
59234W        W23178  44.901  21.685   4.835
59235W        W23179   4.889  41.330  13.845
59236W        W23180  40.467  21.580  13.385
59237W        W23181   2.323  44.386  11.945
59238W        W23182   1.328  27.170   1.871
59239W        W23183  17.675  27.072   3.300
59240W        W23184  36.374   2.420  13.901
59241W        W23185  16.073  17.289  11.515
59242W        W23186  36.941  44.348  13.900
59243W        W23187  29.591  38.069  12.414
59244W        W23188  28.510  42.355   4.165
59245W        W23189  21.063  22.726   4.732
59246W        W23190  35.390  34.908  12.056
59247W        W23191  35.550  28.488  10.428
59248W        W23192  13.723   9.279   1.289
59249W        W23193  29.001  15.744  11.448
59250W        W23194   7.809   9.158  14.825
59251W        W23195  15.812  33.559   2.349
59252W        W23196  43.474  17.668  12.835
59253W        W23197  36.990  22.714   1.284
59254W        W23198  29.039  14.649  12.567
59255W        W23199  24.724  44.338   2.365
59256W        W23200  28.557  38.970  11.420
59257W        W23201   2.372  35.423   2.828
59258W        W23202   3.801  39.899   3.355
59259W        W23203  36.477   3.935   0.922
59260W        W23204  11.177  18.132  10.908
59261W        W23205  20.549  42.376   4.726
59262W        W23206  15.638  37.038  10.430
59263W        W23207  18.251  28.582  13.971
59264W        W23208   7.209  24.036   3.763
59265W        W23209  31.989  31.136   1.800
59266W        W23210   4.812  32.033   4.241
59267W        W23211   1.870   1.370  10.454
59268W        W23212  36.585  36.921  13.847
59269W        W23213   4.388   3.951   3.777
59270W        W23214   5.798  11.218  11.970
59271W        W23215   1.740  26.604   0.738
59272W        W23216  22.165   1.334  11.588
59273W        W23217  38.930  17.608   1.803
59274W        W23218  27.492  42.381  10.956
59275W        W23219  24.670   3.914  12.996
59276W        W23220  37.879  36.854  12.391
59277W        W23221  44.984  20.641   3.173
59278W        W23222  40.421  10.826  14.335
59279W        W23223   2.252  26.011   2.796
59280W        W23224  32.014  21.179  14.771
59281W        W23225  24.687  17.657  11.456
59282W        W23226  11.227  41.441   3.163
59283W        W23227  29.074  39.872   3.870
59284W        W23228  12.359  18.231  12.957
59285W        W23229   5.413  29.427  11.430
59286W        W23230   6.709  34.006  14.823
59287W        W23231  22.550   8.231   2.710
59288W        W23232  16.263  30.615  11.554
59289W        W23233  27.970  11.741  10.643
59290W        W23234  16.265  27.189   3.328
59291W        W23235  22.517   0.845  12.580
59292W        W23236  38.325  30.423  14.303
59293W        W23237  21.677   5.704   0.847
59294W        W23238  40.517  36.099   5.226
59295W        W23239  24.065  16.278  11.536
59296W        W23240  27.047  32.134  13.039
59297W        W23241  33.000  37.967  10.543
59298W        W23242  15.138   9.290   5.139
59299W        W23243  28.129   8.203   3.318
59300W        W23244  17.668   8.883   4.237
59301W        W23245   9.699  12.818  13.883
59302W        W23246   4.434  32.494   4.697
59303W        W23247  27.495  26.639   3.861
59304W        W23248  16.741  40.848   1.728
59305W        W23249  41.867   9.253   3.273
59306W        W23250   1.900  38.834   3.336
59307W        W23251  44.883  19.570  14.946
59308W        W23252  16.192   9.251   2.266
59309W        W23253   6.886  43.801   3.862
59310W        W23254   0.415  13.318   3.367
59311W        W23255  28.671  20.666   3.377
59312W        W23256  33.977   4.313  11.437
59313W        W23257  16.625  15.278   0.727
59314W        W23258  41.972  19.697   3.347
59315W        W23259  25.025   9.788  10.635
59316W        W23260  35.039   0.804   4.718
59317W        W23261  21.200  10.877   3.268
59318W        W23262   6.800  21.196  14.388
59319W        W23263  25.056  31.408  13.465
59320W        W23264  16.088  11.238   3.807
59321W        W23265  41.928  30.990   0.460
59322W        W23266  34.057  11.199   1.754
59323W        W23267  21.696  37.990  13.823
59324W        W23268  36.062  32.421   3.184
59325W        W23269   3.273   5.263   1.706
59326W        W23270  10.691  33.503  11.970
59327W        W23271  17.732  38.526  10.488
59328W        W23272   4.219  31.923  14.809
59329W        W23273  16.811  41.328   4.209
59330W        W23274  19.146   2.821  13.336
59331W        W23275  33.063  37.368  11.087
59332W        W23276  29.584  39.042  14.277
59333W        W23277  10.768  11.679  10.130
59334W        W23278  44.865  26.977  11.468
59335W        W23279   5.415  24.144  12.884
59336W        W23280  35.571  26.564   4.675
59337W        W23281   1.242  42.410   4.145
59338W        W23282  39.355  38.927  13.542
59339W        W23283  14.221   2.837  11.913
59340W        W23284  15.294  33.995  11.482
59341W        W23285  39.929  18.273  13.547
59342W        W23286  42.447   3.266  12.415
59343W        W23287   9.736  12.276  14.897
59344W        W23288  23.688  27.968   3.328
59345W        W23289  11.205  25.484  13.927
59346W        W23290   4.238  41.509   0.831
59347W        W23291  24.626   4.748   0.844
59348W        W23292  23.499  42.526   3.167
59349W        W23293  32.946  28.521  12.932
59350W        W23294  22.726  19.544   0.955
59351W        W23295  29.952  28.092  14.443
59352W        W23296  43.270   7.406  13.030
59353W        W23297  15.695   4.230  13.418
59354W        W23298  28.634  38.371  11.863
59355W        W23299   3.766  39.969  10.052
59356W        W23300  26.588  12.313   2.773
59357W        W23301   1.249   1.482  14.422
59358W        W23302   7.394  12.310  14.954
59359W        W23303  23.614  42.292  10.514
59360W        W23304  27.487  42.439   1.905
59361W        W23305  28.959  37.495   4.722
59362W        W23306  33.385  20.253  13.846
59363W        W23307   9.819   7.315  11.886
59364W        W23308   9.817  12.199  12.483
59365W        W23309  19.608  39.974  14.474
59366W        W23310  30.045   0.394  10.591
59367W        W23311  25.106   5.861  12.508
59368W        W23312  12.764  33.940  12.502
59369W        W23313  17.296  34.452  10.406
59370W        W23314  37.840   2.722  13.014
59371W        W23315  26.113  21.677  14.934
59372W        W23316  26.597  41.407  11.074
59373W        W23317  37.532   0.322  14.328
59374W        W23318  39.826  43.943  13.876
59375W        W23319   0.849   4.371   4.282
59376W        W23320  43.929  34.870  12.436
59377W        W23321  21.071  33.988   3.335
59378W        W23322  34.465  37.994  11.890
59379W        W23323  34.413  30.091  11.980
59380W        W23324   7.293  31.614  11.944
59381W        W23325  16.246  11.186  12.051
59382W        W23326  39.824   2.801   3.691
59383W        W23327  15.163  44.472   2.845
59384W        W23328  39.515  34.120  13.507
59385W        W23329  16.101  20.172  14.936
59386W        W23330   3.324  13.133   4.732
59387W        W23331  21.106  20.268   0.790
59388W        W23332  11.132  38.989   3.824
59389W        W23333  33.496  29.495  13.836
59390W        W23334  38.833  32.442   4.209
59391W        W23335  23.703  31.601   2.208
59392W        W23336   8.335   7.702   4.693
59393W        W23337  33.444   7.844  12.936
59394W        W23338  32.502  36.077   2.753
59395W        W23339   5.792   0.271   3.299
59396W        W23340   2.361  22.509   9.934
59397W        W23341  10.784  27.185   0.251
59398W        W23342  17.090  29.130  11.954
59399W        W23343   3.792   9.868  14.339
59400W        W23344  28.130  31.965   0.914
59401W        W23345  20.055  19.664  10.079
59402W        W23346  11.195  35.591  14.862
59403W        W23347  12.761  24.086  13.923
59404W        W23348  15.245  16.205   1.894
59405W        W23349  16.313  10.726   4.733
59406W        W23350  20.106  34.941   0.429
59407W        W23351   3.874  44.787  12.508
59408W        W23352  29.928  17.590  11.034
59409W        W23353  21.094  34.921  13.864
59410W        W23354   4.847  33.118  14.900
59411W        W23355  29.492  27.653  12.409
59412W        W23356  27.489  23.096   1.772
59413W        W23357  31.018  39.824   1.709
59414W        W23358  37.855   0.303  11.562
59415W        W23359  32.566   2.798   3.196
59416W        W23360  18.129  22.139   4.820
59417W        W23361  39.032  30.533   2.776
59418W        W23362  44.283   3.456  11.565
59419W        W23363  31.459  22.102  11.417
59420W        W23364  42.292  15.657  14.917
59421W        W23365  25.506  28.073  14.512
59422W        W23366   4.338  42.285   1.286
59423W        W23367  12.265  17.279  12.351
59424W        W23368   7.897  31.957  12.422
59425W        W23369  25.017  41.860   2.893
59426W        W23370  18.134  40.849   3.677
59427W        W23371  29.452  18.581   2.865
59428W        W23372   6.199  33.569   2.800
59429W        W23373  26.966  12.737  14.849
59430W        W23374  19.123  20.113  11.933
59431W        W23375   2.257  27.988   0.329
59432W        W23376   4.807  16.196   0.319
59433W        W23377  21.216  33.556  14.345
59434W        W23378   2.844  13.818   1.803
59435W        W23379  21.071  43.980   1.310
59436W        W23380  33.047  12.124   1.384
59437W        W23381   0.756  39.509  13.330
59438W        W23382  22.620  23.101   0.803
59439W        W23383  29.173  41.953  11.016
59440W        W23384  14.128  27.105  11.114
59441W        W23385  43.923   4.724   1.906
59442W        W23386  34.379  24.121  12.938
59443W        W23387  24.065  13.843   1.850
59444W        W23388  39.553  22.646  10.429
59445W        W23389  35.596  24.196  13.431
59446W        W23390  36.980  27.665   3.659
59447W        W23391  21.071   9.370  11.123
59448W        W23392  17.727  43.001  10.434
59449W        W23393   7.694   2.248   0.427
59450W        W23394  12.174  36.425   0.415
59451W        W23395  27.068  31.494   1.363
59452W        W23396  15.775  34.074  12.833
59453W        W23397   1.976  34.502  11.925
59454W        W23398   1.819   0.475   0.818
59455W        W23399   0.295  16.195   0.736
59456W        W23400   3.782  23.491   2.411
59457W        W23401  42.502  32.494  13.018
59458W        W23402  23.642  29.983   4.300
59459W        W23403  16.188   6.329   3.261
59460W        W23404  17.152  33.015   2.875
59461W        W23405   4.318  41.864   4.236
59462W        W23406  23.579  21.673  11.508
59463W        W23407  16.131  34.941  14.939
59464W        W23408  40.402  43.991  12.977
59465W        W23409  10.295  14.643   1.704
59466W        W23410  13.627  20.224  11.878
59467W        W23411  18.210  21.642  10.962
59468W        W23412   1.342  10.845  10.618
59469W        W23413   6.245  18.780   1.223
59470W        W23414   0.367  11.663   2.887
59471W        W23415  37.355  41.469  12.964
59472W        W23416   1.387   0.459   4.641
59473W        W23417  10.244  13.821   3.741
59474W        W23418  16.085  32.403   3.779
59475W        W23419  29.988  40.999   3.194
59476W        W23420  30.981   4.319   2.337
59477W        W23421  31.931  36.925   0.881
59478W        W23422  37.567  30.542  12.881
59479W        W23423   1.425  44.977   4.354
59480W        W23424  18.663  18.071  13.862
59481W        W23425  23.016  26.514  13.472
59482W        W23426   6.301  13.260  14.870
59483W        W23427  16.733  25.639  12.889
59484W        W23428   8.302  21.207   5.240
59485W        W23429  32.045  31.471  14.904
59486W        W23430   8.695  22.631   4.227
59487W        W23431   6.185  27.185  12.900
59488W        W23432   6.208  15.601  11.529
59489W        W23433  15.749  29.106  13.509
59490W        W23434  16.693  32.039   3.368
59491W        W23435  29.539   1.291   3.828
59492W        W23436   8.814   6.243  10.984
59493W        W23437  12.647  13.287  10.956
59494W        W23438   2.933  21.235   3.694
59495W        W23439  40.317  42.471   3.303
59496W        W23440  17.655  39.338  10.516
59497W        W23441  34.370  10.771  10.532
59498W        W23442  23.647  37.511  13.955
59499W        W23443  19.230   4.397   1.380
59500W        W23444  38.888  14.328   3.314
59501W        W23445   2.941  32.393   0.742
59502W        W23446  29.069   0.886   2.687
59503W        W23447  16.798  38.408  12.069
59504W        W23448   6.688  41.990  12.045
59505W        W23449   9.676   9.646  11.889
59506W        W23450  30.486  43.503   2.217
59507W        W23451  27.639  34.879  11.483
59508W        W23452  16.644   6.898   3.381
59509W        W23453  40.446  43.829   2.840
59510W        W23454  16.175  29.666   0.339
59511W        W23455  26.505   7.785   4.652
59512W        W23456   7.179   6.365  12.005
59513W        W23457   5.209  20.605   1.279
59514W        W23458  24.542  35.381   3.782
59515W        W23459  17.267  28.569   1.314
59516W        W23460   9.178  17.619  11.494
59517W        W23461  19.780   4.428   3.384
59518W        W23462   8.688   9.333  10.469
59519W        W23463  19.588  31.025   4.717
59520W        W23464  33.981  37.399  14.776
59521W        W23465  10.829  15.324   1.394
59522W        W23466   8.868  14.782   0.911
59523W        W23467   3.354  35.040   0.771
59524W        W23468   7.773  35.559  14.851
59525W        W23469  30.984  17.683   4.300
59526W        W23470  34.477  43.844   1.845
59527W        W23471  15.275  21.166   0.825
59528W        W23472  35.439  24.538   3.684
59529W        W23473  41.830  29.930  11.937
59530W        W23474   5.354  14.831  12.522
59531W        W23475  11.360   0.454   3.806
59532W        W23476   4.309  23.196  13.043
59533W        W23477   5.362  18.582   4.195
59534W        W23478  44.395  11.650   2.281
59535W        W23479   1.814   7.365  13.054
59536W        W23480  16.242  14.593  10.983
59537W        W23481  18.572  19.611   0.373
59538W        W23482  27.600   3.414   2.712
59539W        W23483  20.671  41.382   2.812
59540W        W23484  20.627   9.765  12.358
59541W        W23485  23.632  21.696   1.814
59542W        W23486  31.114  39.322   3.755
59543W        W23487  30.588   9.371  12.576
59544W        W23488  38.844  38.332  10.147
59545W        W23489  29.963  40.360   3.312
59546W        W23490  16.643   9.247  13.349
59547W        W23491  24.159  27.634  13.454
59548W        W23492  33.882  38.907   2.777
59549W        W23493  28.184  36.846  14.439
59550W        W23494  32.913   8.834  13.333
59551W        W23495  33.388  31.501  14.762
59552W        W23496  21.116  39.055   0.765
59553W        W23497  15.812  12.247   0.748
59554W        W23498   6.298  43.328   1.916
59555W        W23499   4.360  42.881  14.382
59556W        W23500  36.975  10.365  10.607
59557W        W23501   2.251  43.827   3.771
59558W        W23502   9.708  41.818   2.809
59559W        W23503  14.158  40.956   1.778
59560W        W23504  36.878  25.003   2.259
59561W        W23505  11.366  21.654   2.396
59562W        W23506  27.072  26.013  14.895
59563W        W23507   5.280  26.603   0.249
59564W        W23508  15.324  10.734   3.322
59565W        W23509  30.495  44.408   1.797
59566W        W23510  18.765   0.387  11.035
59567W        W23511  13.145   6.331  11.602
59568W        W23512  34.587   5.263   2.321
59569W        W23513   7.702  24.078   1.873
59570W        W23514   1.789   6.256   3.230
59571W        W23515  30.617  16.282   0.858
59572W        W23516  39.935  18.650   1.798
59573W        W23517  31.992  26.557  10.635
59574W        W23518  13.169  40.375  12.404
59575W        W23519  40.886  35.859  10.906
59576W        W23520  10.272  35.475  12.346
59577W        W23521  41.928  12.803   0.816
59578W        W23522   6.342  18.708   1.745
59579W        W23523  33.076  38.529  13.878
59580W        W23524  13.316  21.249   4.121
59581W        W23525  36.972   8.170   0.726
59582W        W23526  11.728  23.720   0.950
59583W        W23527  26.492   5.895  10.160
59584W        W23528   9.880  13.735   1.277
59585W        W23529  17.114   5.829   1.443
59586W        W23530   9.237  42.510   3.864
59587W        W23531  25.603  32.900   1.388
59588W        W23532  37.374  44.760   1.322
59589W        W23533   6.391  27.532  10.965
59590W        W23534  35.105  16.233  13.909
59591W        W23535  25.062  35.480  13.526
59592W        W23536  37.344  16.288  12.343
59593W        W23537  18.631   4.818   1.392
59594W        W23538   3.888  23.688   4.219
59595W        W23539  22.566  42.384   2.787
59596W        W23540  26.960   8.321   3.266
59597W        W23541  19.634   1.319   3.183
59598W        W23542  36.037   2.804  13.363
59599W        W23543  37.423  31.048   1.311
59600W        W23544  27.070  14.623   0.951
59601W        W23545  27.690  26.973   2.670
59602W        W23546  40.347  36.985   1.441
59603W        W23547  30.960  16.688  11.410
59604W        W23548  26.119  44.900   0.857
59605W        W23549  18.268  11.140  13.528
59606W        W23550  26.984  44.754  10.641
59607W        W23551  16.760  30.496   4.810
59608W        W23552  27.641  43.935  12.466
59609W        W23553  43.441  26.597  14.384
59610W        W23554  40.898  35.441   4.814
59611W        W23555   5.302  38.874   9.919
59612W        W23556  23.134  40.447  12.342
59613W        W23557   8.670  11.149   0.273
59614W        W23558   9.644   6.822   1.913
59615W        W23559   6.881  11.145  13.042
59616W        W23560  11.798  44.473   3.716
59617W        W23561  15.248  24.698  12.034
59618W        W23562  39.944  26.674   3.867
59619W        W23563  12.252  38.990   0.466
59620W        W23564   1.755   8.280   4.823
59621W        W23565  15.612  25.493  11.868
59622W        W23566  26.568  39.460   4.338
59623W        W23567  21.136  32.124  10.116
59624W        W23568  32.028  39.378  10.600
59625W        W23569  16.082  18.680  11.971
59626W        W23570  39.324  30.156   2.302
59627W        W23571  39.930  33.389   0.350
59628W        W23572   6.355  33.498  12.006
59629W        W23573  13.338  38.476   4.144
59630W        W23574  38.932  10.381   4.693
59631W        W23575  36.442  29.606   4.654
59632W        W23576  13.831   5.907  13.449
59633W        W23577  12.125  41.840   3.659
59634W        W23578  15.116  42.421  14.790
59635W        W23579  40.892  38.986  12.926
59636W        W23580   7.707  31.082  14.780
59637W        W23581  42.353  26.147   0.254
59638W        W23582   4.885  40.320   4.758
59639W        W23583  27.046  18.612   0.849
59640W        W23584   4.725  23.239  14.481
59641W        W23585  30.050  44.499   4.299
59642W        W23586  25.184   0.417  12.468
59643W        W23587  28.140  24.088   1.396
59644W        W23588  33.983   5.289   4.255
59645W        W23589  31.072  42.347  14.774
59646W        W23590  27.147  16.073   4.202
59647W        W23591  29.541  24.673  10.975
59648W        W23592  14.208  17.679  11.611
59649W        W23593   3.248   9.729  12.460
59650W        W23594  39.361  25.668   0.948
59651W        W23595  41.874  23.524   1.705
59652W        W23596  40.303   8.226  10.476
59653W        W23597  44.337  27.958   0.340
59654W        W23598  12.725  39.464  11.525
59655W        W23599  13.184   8.246  14.360
59656W        W23600  14.743  43.456  11.395
59657W        W23601  21.200  41.979  14.304
59658W        W23602  16.136  13.723  10.511
59659W        W23603  21.547  43.820   4.318
59660W        W23604  10.831  44.983  10.533
59661W        W23605   4.902  42.892   1.695
59662W        W23606  24.227  24.019   5.228
59663W        W23607  37.980  23.063  12.841
59664W        W23608  30.063  20.644  12.353
59665W        W23609  38.366   5.884  11.430
59666W        W23610  40.486  17.601   3.280
59667W        W23611  42.904  29.482   3.262
59668W        W23612   9.833   1.434   1.289
59669W        W23613  42.912  20.697  14.463
59670W        W23614  34.419  22.235  10.516
59671W        W23615  41.421  38.505   0.850
59672W        W23616  15.124   3.435   0.962
59673W        W23617  15.762  24.506   1.326
59674W        W23618  42.024   2.861   0.907
59675W        W23619  33.124  25.168  11.921
59676W        W23620  33.601  16.581   3.758
59677W        W23621  36.055  35.933   2.405
59678W        W23622  37.387  34.436  10.606
59679W        W23623  15.605  35.081  13.912
59680W        W23624  17.615   5.740   1.371
59681W        W23625  18.686  33.025   4.172
59682W        W23626   5.292  31.000   4.207
59683W        W23627  33.402   0.411   2.821
59684W        W23628  16.088  29.932  10.421
59685W        W23629   8.270  13.661   0.920
59686W        W23630  15.672   0.803  14.516
59687W        W23631   7.876   2.863  11.000
59688W        W23632  34.888  26.689   4.655
59689W        W23633  23.524   7.405   3.212
59690W        W23634   6.796  18.263  12.932
59691W        W23635  41.507   5.709   0.343
59692W        W23636   4.272   7.253   3.187
59693W        W23637  33.434  32.014   3.342
59694W        W23638  31.569  29.167  12.576
59695W        W23639   6.749  39.834   0.819
59696W        W23640  13.136  28.677  13.062
59697W        W23641  33.614  23.008  14.989
59698W        W23642  19.748  22.634   1.304
59699W        W23643  18.093  41.349  12.043
59700W        W23644  18.553   1.431  13.358
59701W        W23645   9.361  25.130   1.443
59702W        W23646  28.496  39.547   4.692
59703W        W23647  32.131  20.588  14.442
59704W        W23648   8.881  20.177   0.293
59705W        W23649  22.642  31.524  11.865
59706W        W23650  18.755   1.970   3.787
59707W        W23651  22.030   4.211  13.832
59708W        W23652  28.491  21.058  10.080
59709W        W23653  30.504  26.206   1.273
59710W        W23654  39.408   2.901   2.179
59711W        W23655  26.583  44.389   5.105
59712W        W23656  10.718  21.655   2.262
59713W        W23657  17.794  42.426   2.763
59714W        W23658  19.060   4.423  12.990
59715W        W23659  28.020  25.986   2.664
59716W        W23660  42.443  15.640   4.310
59717W        W23661  34.899   9.177   2.201
59718W        W23662   3.809   1.470   1.760
59719W        W23663  19.548  42.301  12.434
59720W        W23664  43.291  36.380  13.812
59721W        W23665  40.953   9.202   2.785
59722W        W23666  26.698  29.623  14.455
59723W        W23667  29.439  30.567   0.926
59724W        W23668  35.474  27.584   2.372
59725W        W23669  43.978   6.245   2.851
59726W        W23670  31.557  11.234   3.656
59727W        W23671  11.759  43.980   3.715
59728W        W23672   1.752  23.015   4.308
59729W        W23673   7.173  32.569   2.349
59730W        W23674  19.550  34.465   3.282
59731W        W23675   2.451  31.907   5.151
59732W        W23676  43.443   1.817  10.974
59733W        W23677   0.899  44.798  12.461
59734W        W23678   0.470   1.333  10.565
59735W        W23679  37.889  41.929   1.800
59736W        W23680  17.061   2.764   0.369
59737W        W23681   6.394  38.073   0.788
59738W        W23682  16.091  15.680   2.793
59739W        W23683  12.148  44.474  14.821
59740W        W23684  12.679  39.027   4.314
59741W        W23685  21.749  24.558   2.744
59742W        W23686  35.591  17.112   2.398
59743W        W23687  32.428   3.851  13.866
59744W        W23688  41.356   3.310  10.058
59745W        W23689  14.312  35.014  14.390
59746W        W23690  24.148  30.618  13.487
59747W        W23691  37.475  35.989   1.433
59748W        W23692  11.781  15.197  13.385
59749W        W23693  35.953  38.514   4.218
59750W        W23694  20.531  28.141   2.178
59751W        W23695   5.729  15.139  10.492
59752W        W23696  39.397   4.323  11.904
59753W        W23697  36.953  13.827  12.499
59754W        W23698  24.561   2.244   0.764
59755W        W23699  38.386  36.367   4.202
59756W        W23700  43.993  36.960   3.692
59757W        W23701  42.925  25.544   2.357
59758W        W23702  32.507  33.058   1.747
59759W        W23703  31.093  14.808  13.471
59760W        W23704  21.581   8.219  12.901
59761W        W23705   8.377  44.916  12.058
59762W        W23706   7.823  13.136  11.587
59763W        W23707  38.346  36.504   4.719
59764W        W23708  41.430  34.910  13.819
59765W        W23709  36.092  42.340  10.558
59766W        W23710   6.683  20.149  11.067
59767W        W23711  36.980   9.740   0.963
59768W        W23712  35.374  32.442  11.106
59769W        W23713  29.564   6.211  12.454
59770W        W23714  43.381  25.661   4.675
59771W        W23715  31.927  20.253   3.766
59772W        W23716  42.986  27.498   4.121
59773W        W23717  29.550  30.150   4.220
59774W        W23718   6.309   7.680  13.998
59775W        W23719  32.101  32.404  12.876
59776W        W23720  44.328   1.348   1.354
59777W        W23721  27.177  44.790   1.700
59778W        W23722  37.566   6.883  10.544
59779W        W23723   6.393  23.723  10.111
59780W        W23724  28.164  31.063   1.919
59781W        W23725  14.694   1.755  14.774
59782W        W23726  26.588  23.070   2.315
59783W        W23727  18.180  31.448   1.320
59784W        W23728   2.236   9.845   3.766
59785W        W23729  26.691  27.541  14.313
59786W        W23730   3.920   9.344   0.942
59787W        W23731  21.722  29.920   1.763
59788W        W23732   8.898  15.764   1.701
59789W        W23733  37.484  44.387   1.399
59790W        W23734  22.589  38.460   2.378
59791W        W23735  14.642  44.980   2.402
59792W        W23736  17.265  30.429   2.697
59793W        W23737  13.621  42.327  10.437
59794W        W23738  33.101   8.705  13.895
59795W        W23739  28.056   8.375   1.778
59796W        W23740  17.627  24.082  11.468
59797W        W23741  17.653  37.979  12.498
59798W        W23742  35.578  16.284  13.860
59799W        W23743  20.125  15.751   5.104
59800W        W23744  11.842   0.833   2.705
59801W        W23745  35.489   3.338  13.803
59802W        W23746  39.997   8.324  14.505
59803W        W23747  34.087  24.487  11.077
59804W        W23748  33.466   3.387  12.906
59805W        W23749  44.803  40.978   2.325
59806W        W23750   3.882   5.922  11.989
59807W        W23751  14.652  12.349   2.740
59808W        W23752  27.154   7.393   2.754
59809W        W23753  42.878  24.622   4.254
59810W        W23754   3.824   8.753   3.645
59811W        W23755  13.164  23.048   4.196
59812W        W23756  20.581  17.100  14.897
59813W        W23757  31.934  29.559   4.721
59814W        W23758  17.780   3.380  11.986
59815W        W23759  33.120   7.205   3.692
59816W        W23760  21.554  43.428   4.249
59817W        W23761  40.854  22.694   2.373
59818W        W23762   6.391  13.661  10.523
59819W        W23763  27.547  15.665  14.781
59820W        W23764  30.638  15.670  10.957
59821W        W23765  16.719  30.158   3.858
59822W        W23766  44.905  39.449   3.216
59823W        W23767  28.963  39.008  10.912
59824W        W23768  31.032  41.384   4.292
59825W        W23769  31.051  11.356  10.642
59826W        W23770   6.865  29.072  14.443
59827W        W23771  24.988  44.790  12.452
59828W        W23772  14.207  33.936  10.080
59829W        W23773  33.949  18.639  12.982
59830W        W23774  43.438  12.231   3.173
59831W        W23775  26.517  17.125  11.569
59832W        W23776  16.653  38.008   4.728
59833W        W23777  14.162  41.813  12.517
59834W        W23778  15.100   7.412  12.969
59835W        W23779  12.128  31.459  11.939
59836W        W23780  29.920   2.778   0.268
59837W        W23781  34.369  11.833  11.031
59838W        W23782  30.621   6.318   0.778
59839W        W23783  11.230  17.124   1.745
59840W        W23784   0.753  13.644   0.288
59841W        W23785  12.709  20.173  11.407
59842W        W23786  31.617  19.645  13.538
59843W        W23787  30.646  13.285   4.719
59844W        W23788  42.972  39.810  12.834
59845W        W23789   4.830  10.377  10.413
59846W        W23790  28.616  37.479  11.022
59847W        W23791   8.744   6.322  10.489
59848W        W23792  13.115  27.968   3.283
59849W        W23793  30.968  12.787   4.329
59850W        W23794  30.065  29.932  10.555
59851W        W23795  12.748  41.942  13.424
59852W        W23796  33.433  22.231   0.473
59853W        W23797  21.118  20.542   2.691
59854W        W23798  36.037  31.046   2.194
59855W        W23799  27.022  31.918   4.182
59856W        W23800   1.322  22.158  10.529
59857W        W23801  13.779  29.040  14.451
59858W        W23802  15.123   3.220  13.885
59859W        W23803  30.968  27.064  11.506
59860W        W23804  19.232   5.435   3.704
59861W        W23805  22.504  19.107   2.379
59862W        W23806   1.858  19.572   0.358
59863W        W23807  19.705  34.023  13.534
59864W        W23808  14.129  34.940  10.478
59865W        W23809   2.947  39.359  13.954
59866W        W23810  33.494  12.339  12.451
59867W        W23811  33.050  34.081   2.192
59868W        W23812  22.027  41.378  14.978
59869W        W23813  13.174   2.306   0.771
59870W        W23814   5.698  40.364  12.400
59871W        W23815  35.942  34.374   1.740
59872W        W23816   5.824   3.352  12.990
59873W        W23817  26.583   7.684  10.511
59874W        W23818   6.723  22.157  10.431
59875W        W23819  25.088  26.113  10.423
59876W        W23820   1.444  28.613  13.053
59877W        W23821   2.822  26.683  14.482
59878W        W23822  42.430  44.984   1.844
59879W        W23823  18.770  12.125   1.862
59880W        W23824  40.306  35.464   0.476
59881W        W23825  34.933  25.085  13.468
59882W        W23826  38.544  41.537  12.499
59883W        W23827  42.779   0.887  13.804
59884W        W23828  12.755  44.828   4.195
59885W        W23829   3.351  18.240  13.510
59886W        W23830  13.156  26.631  13.837
59887W        W23831  13.245  39.430  14.393
59888W        W23832  25.623  10.667   4.267
59889W        W23833  39.451  43.020  11.425
59890W        W23834  24.184  21.039  14.392
59891W        W23835  19.152  11.664  13.389
59892W        W23836  42.484  13.320  11.612
59893W        W23837   6.408  41.316   0.442
59894W        W23838  32.044  13.756   4.280
59895W        W23839  22.096  14.260  12.982
59896W        W23840   9.740  32.985  14.404
59897W        W23841  19.149   2.266  14.345
59898W        W23842  29.936  32.547   1.883
59899W        W23843  20.137  23.998  11.999
59900W        W23844  32.583  36.369   4.610
59901W        W23845  43.827  40.829  11.467
59902W        W23846  24.526  43.843   4.712
59903W        W23847  39.847  17.155  14.875
59904W        W23848  25.014  30.052   1.856
59905W        W23849  14.122  36.485   4.355
59906W        W23850  43.408  13.278   2.248
59907W        W23851   8.168  15.823   1.419
59908W        W23852  27.071  40.511   1.728
59909W        W23853  20.712  15.272  14.031
59910W        W23854   3.452  16.113   2.687
59911W        W23855  42.030  33.553   4.817
59912W        W23856  10.783   1.950   0.797
59913W        W23857  10.821  31.958   4.759
59914W        W23858  36.551  41.535  10.889
59915W        W23859  12.260  13.156  11.980
59916W        W23860  16.077  26.962   4.323
59917W        W23861  13.121  23.670   2.230
59918W        W23862  27.143  12.781  10.995
59919W        W23863   2.853  23.489  14.842
59920W        W23864   7.860  26.493  13.055
59921W        W23865   4.390  26.195   2.718
59922W        W23866   7.731  23.014   3.147
59923W        W23867  18.690  42.840   5.139
59924W        W23868  21.262  15.284  14.762
59925W        W23869  32.131  31.419   4.735
59926W        W23870  11.152  12.341   3.339
59927W        W23871  21.564  24.675  11.902
59928W        W23872  23.592  38.855  10.457
59929W        W23873  25.123  17.795   1.739
59930W        W23874  17.306  35.918  10.057
59931W        W23875  28.957  15.284   0.449
59932W        W23876  26.619  37.033   3.275
59933W        W23877  20.635  35.393  10.558
59934W        W23878  37.969  26.511   3.653
59935W        W23879  42.495   0.334   3.297
59936W        W23880   1.317  43.900  14.981
59937W        W23881   4.427  13.261  10.908
59938W        W23882  11.288  11.788  10.429
59939W        W23883  31.976  44.273  14.397
59940W        W23884  34.484  40.527  13.362
59941W        W23885   7.877   1.352  11.884
59942W        W23886   6.296   0.852  14.283
59943W        W23887  44.935  22.742   2.240
59944W        W23888  39.045  14.742  11.017
59945W        W23889   6.861  23.036   4.195
59946W        W23890  39.321  22.097  13.923
59947W        W23891  27.108  16.289   2.235
59948W        W23892  34.599   4.311   1.891
59949W        W23893  16.193  34.440   2.878
59950W        W23894   2.333  33.578  13.888
59951W        W23895  44.869  22.605  12.834
59952W        W23896  25.548  25.585  10.490
59953W        W23897  33.104  29.951   2.688
59954W        W23898  40.826  17.670   0.874
59955W        W23899  23.561   4.438  12.529
59956W        W23900  39.323  10.198  13.452
59957W        W23901  29.119  17.148  11.518
59958W        W23902  37.984  14.639   1.210
59959W        W23903  42.370  36.577   2.774
59960W        W23904  21.536  41.466  12.567
59961W        W23905  31.610  14.166   4.708
59962W        W23906   7.397  44.459  12.536
59963W        W23907   2.860  12.138  14.275
59964W        W23908  35.904  39.843   2.822
59965W        W23909   7.869  16.727   3.193
59966W        W23910   1.343  40.947   2.730
59967W        W23911   3.307  10.309  14.495
59968W        W23912   1.331  18.622   3.378
59969W        W23913  16.221  19.122   1.360
59970W        W23914  31.150   0.770   0.374
59971W        W23915  35.033  14.820   2.731
59972W        W23916  14.711  34.462   2.812
59973W        W23917  14.687  43.790  12.349
59974W        W23918  22.112   2.282  10.896
59975W        W23919   9.657  32.027   2.839
59976W        W23920  28.645   1.911  10.958
59977W        W23921  44.935  26.013   4.782
59978W        W23922  43.906  29.461  11.517
59979W        W23923   6.779  20.544  12.367
59980W        W23924  32.036  18.622   3.334
59981W        W23925  29.444  29.137  14.459
59982W        W23926  43.369  26.474  11.111
59983W        W23927  17.120  44.318   3.655
59984W        W23928   6.393  37.869  14.386
59985W        W23929  22.746  35.386   1.371
59986W        W23930  34.431   1.266  10.995
59987W        W23931  33.536  39.999  11.371
59988W        W23932  25.182  29.593   4.655
59989W        W23933  28.023   7.901  11.879
59990W        W23934  10.232   3.321   0.826
59991W        W23935   7.328  12.126   4.238
59992W        W23936  18.569  18.177  13.312
59993W        W23937  23.610  12.637  13.358
59994W        W23938  26.124  26.039   4.748
59995W        W23939   6.253   2.922  13.503
59996W        W23940  37.066  26.986   4.281
59997W        W23941   6.781  13.121   2.687
59998W        W23942  14.199   7.785  10.034
59999W        W23943  15.317   7.797  12.864
60000W        W23944  14.324  19.598  11.522
60001W        W23945  18.585  33.001   4.760
60002W        W23946  20.269  11.822  11.532
60003W        W23947  14.200  36.513   2.360
60004W        W23948   6.261  34.080   1.786
60005W        W23949  11.822  17.200  12.407
60006W        W23950  25.533  23.162   1.267
60007W        W23951  34.895   3.902  12.406
60008W        W23952  43.770  17.612   2.416
60009W        W23953  39.950   4.260  14.961
60010W        W23954  18.227  16.595   1.249
60011W        W23955  28.584  21.618  14.485
60012W        W23956  30.091  13.304  11.516
60013W        W23957  38.875   2.409   2.740
60014W        W23958  23.707  25.582  14.913
60015W        W23959   9.666   0.404   1.279
60016W        W23960  28.591  42.461  14.787
60017W        W23961  13.229   4.426   3.233
60018W        W23962  38.001  38.063   2.252
60019W        W23963   3.918  28.675  11.109
60020W        W23964  22.231   8.327   3.717
60021W        W23965  37.015   7.746  12.050
60022W        W23966  12.140  18.176  12.458
60023W        W23967  19.126  28.109   4.148
60024W        W23968   2.938   5.696  12.834
60025W        W23969  25.168  28.122  12.566
60026W        W23970  12.696  28.596   0.873
60027W        W23971   6.707  24.701  14.309
60028W        W23972  35.898  34.928  14.914
60029W        W23973  15.192  17.077  12.023
60030W        W23974  17.302   4.272   3.179
60031W        W23975  13.159  29.074  12.412
60032W        W23976   7.260   7.722   2.369
60033W        W23977  21.191  44.434   4.803
60034W        W23978  26.571  11.286   3.324
60035W        W23979  23.985  34.372  11.603
60036W        W23980  15.242   4.223   0.323
60037W        W23981  33.561   3.807  12.889
60038W        W23982  11.152   7.375  11.036
60039W        W23983  34.987   1.963   3.369
60040W        W23984  35.093  39.548   3.324
60041W        W23985  19.150   2.806   0.356
60042W        W23986   2.947  27.662   1.307
60043W        W23987   8.317  29.121  11.024
60044W        W23988   3.790  35.857  11.918
60045W        W23989  19.587  23.598   2.857
60046W        W23990  26.648   7.379   0.408
60047W        W23991  33.445  18.747   3.188
60048W        W23992  42.465  37.488   4.250
60049W        W23993  31.496  18.717  14.800
60050W        W23994  33.624  43.432   1.372
60051W        W23995  44.270  28.514  14.776
60052W        W23996  42.793  16.647   4.267
60053W        W23997  25.544  18.253  12.006
60054W        W23998  41.481  19.214  11.907
60055W        W23999  22.159  17.765   1.397
60056W        W24000  27.973  32.559  13.422
60057W        W24001  37.431  33.614   1.440
60058W        W24002   4.938  24.704  13.793
60059W        W24003  34.890  28.596   4.161
60060W        W24004  24.000  33.962  14.883
60061W        W24005  27.643  23.100   3.730
60062W        W24006  41.345  19.574  13.315
60063W        W24007  13.638  25.150   3.366
60064W        W24008  17.780  44.293  11.959
60065W        W24009  23.191  29.581  11.017
60066W        W24010   1.938   1.308   4.270
60067W        W24011  32.406  42.815  10.423
60068W        W24012  38.868  32.472   4.725
60069W        W24013  36.387  17.066  13.415
60070W        W24014  35.868  38.956   4.801
60071W        W24015   3.362  18.071  10.525
60072W        W24016  33.042  30.053  11.123
60073W        W24017  32.494  40.478   4.813
60074W        W24018  15.784  25.630   4.322
60075W        W24019   0.261  17.294  14.466
60076W        W24020   5.276  21.190   3.152
60077W        W24021  26.540   0.761   2.825
60078W        W24022   2.464   3.895  13.932
60079W        W24023  19.705   4.930   5.095
60080W        W24024  41.883  10.168  12.889
60081W        W24025  25.025  11.657  14.380
60082W        W24026  29.528  20.203   2.236
60083W        W24027  35.949  26.046  13.370
60084W        W24028  40.310  44.275  11.574
60085W        W24029   0.826  26.553  11.583
60086W        W24030  42.006  28.185  10.083
60087W        W24031  41.005  15.730   4.656
60088W        W24032  25.969  10.832  11.476
60089W        W24033  19.539  22.232   2.304
60090W        W24034  36.047  20.219  13.310
60091W        W24035  28.469   2.404   1.331
60092W        W24036  42.294  20.720  14.950
60093W        W24037   8.728   8.349   1.768
60094W        W24038  39.998  15.231   2.666
60095W        W24039  33.894  43.327  14.432
60096W        W24040  37.571  19.548  13.828
60097W        W24041  36.476  17.200   0.770
60098W        W24042   6.802  34.501   1.899
60099W        W24043  13.140   3.366  11.899
60100W        W24044   1.945  10.813   4.645
60101W        W24045  23.230  43.292   0.462
60102W        W24046  26.082   7.754   4.800
60103W        W24047  41.952   2.450  13.019
60104W        W24048  14.275  28.071  10.457
60105W        W24049  25.474  35.870  13.820
60106W        W24050  41.321   3.866   2.331
60107W        W24051  22.572   5.211  10.481
60108W        W24052  32.617  37.980  13.834
60109W        W24053  21.055  37.409   2.386
60110W        W24054  28.614  34.083   4.312
60111W        W24055   3.930   4.894  11.577
60112W        W24056  20.157  31.136  14.881
60113W        W24057  42.819   8.218   3.316
60114W        W24058  12.787  37.967   2.305
60115W        W24059   1.323  28.931  13.365
60116W        W24060  35.967  13.763   4.815
60117W        W24061   7.337  40.045   4.819
60118W        W24062  15.307  36.019   5.107
60119W        W24063  29.023   5.846   4.621
60120W        W24064  20.727   3.802  13.894
60121W        W24065  10.154  26.958   1.809
60122W        W24066  35.053  36.063  10.545
60123W        W24067   8.858  35.078   0.287
60124W        W24068  34.474  33.128   3.842
60125W        W24069  33.100  33.589  13.864
60126W        W24070  35.951  27.144   2.773
60127W        W24071  27.447  35.061   0.760
60128W        W24072  35.915  31.110  12.004
60129W        W24073  44.911   8.352   3.834
60130W        W24074   5.885  42.364   1.330
60131W        W24075  32.547  40.803  12.075
60132W        W24076  19.770   5.406  11.939
60133W        W24077  22.151  14.310   1.306
60134W        W24078  44.781  39.497  13.541
60135W        W24079  10.148  17.075   5.710
60136W        W24080  22.177  27.520   4.763
60137W        W24081  21.703  41.521   2.369
60138W        W24082   8.853  10.252  14.361
60139W        W24083  11.191  42.361   3.847
60140W        W24084  37.036  14.131  10.511
60141W        W24085  42.467  42.520   1.788
60142W        W24086  10.367   3.852  10.627
60143W        W24087  36.084   2.910   1.432
60144W        W24088  23.030  36.383   2.321
60145W        W24089  23.534  23.136   4.135
60146W        W24090   2.731  31.976  11.548
60147W        W24091  12.810  32.637  13.455
60148W        W24092  32.920   4.846   0.479
60149W        W24093   7.765   5.723   0.373
60150W        W24094  37.084  13.745   2.871
60151W        W24095  38.361  38.875   1.765
60152W        W24096  30.422  25.659   2.416
60153W        W24097  11.250   9.346  10.553
60154W        W24098  30.644  30.484   3.301
60155W        W24099  25.077  24.086   5.230
60156W        W24100  20.148  17.306   0.383
60157W        W24101  44.478  12.739  10.602
60158W        W24102  33.593  44.865  12.889
60159W        W24103  24.603   2.918   0.735
60160W        W24104   4.846  36.021  12.925
60161W        W24105  33.422  18.056  13.892
60162W        W24106  12.830   7.195  12.898
60163W        W24107   1.448  26.069   0.938
60164W        W24108  19.248  14.798  12.418
60165W        W24109  27.513  42.401  13.919
60166W        W24110  27.175   3.896   2.751
60167W        W24111   1.474   8.730   4.635
60168W        W24112   8.258  40.895  11.393
60169W        W24113  32.900  41.377   4.820
60170W        W24114  18.288  25.481  13.834
60171W        W24115  27.991  42.816   2.724
60172W        W24116   1.347  28.646  10.470
60173W        W24117   5.373  31.465   2.744
60174W        W24118  10.243  19.596   0.391
60175W        W24119   7.748  40.522  10.626
60176W        W24120  25.090  33.130   2.319
60177W        W24121  23.224  14.326   1.261
60178W        W24122  38.487  32.410  14.470
60179W        W24123  29.944  44.838  13.403
60180W        W24124  42.425  14.227   4.679
60181W        W24125  11.367  41.917  13.463
60182W        W24126  42.512  31.047   3.175
60183W        W24127  26.029  31.999  12.453
60184W        W24128  28.007  27.040  14.803
60185W        W24129  20.232  31.542  13.440
60186W        W24130  23.567  11.760   0.472
60187W        W24131  15.740   4.330   2.288
60188W        W24132  23.107  27.134   2.673
60189W        W24133  25.649   7.771   3.365
60190W        W24134  22.597  20.216  12.871
60191W        W24135  44.770  11.719   4.831
60192W        W24136   9.870  28.494   3.688
60193W        W24137   1.249  22.546   2.187
60194W        W24138  24.499  14.136  10.584
60195W        W24139  34.457  10.156  10.547
60196W        W24140  21.587  28.067   4.241
60197W        W24141  26.493  25.214   3.736
60198W        W24142  11.640  30.620   1.930
60199W        W24143  30.596  25.216  13.312
60200W        W24144  27.012  15.702  10.624
60201W        W24145  26.058  15.633   0.920
60202W        W24146  20.087  22.653   3.707
60203W        W24147  36.894  22.085   1.315
60204W        W24148  26.502   2.841  13.001
60205W        W24149  28.563  25.965   2.713
60206W        W24150  28.639   3.930  14.415
60207W        W24151  24.128  10.871   0.919
60208W        W24152  22.123   5.840   2.297
60209W        W24153  33.527  42.960   3.657
60210W        W24154   6.872  33.484   0.410
60211W        W24155  35.494  41.440   0.918
60212W        W24156  38.489  13.638   2.749
60213W        W24157  34.062  40.830   2.197
60214W        W24158  36.394  32.963  13.486
60215W        W24159  21.681  28.475   4.828
60216W        W24160  20.088  11.637   3.772
60217W        W24161  29.032  43.912  13.869
60218W        W24162  29.037  37.893   1.322
60219W        W24163  36.347  23.212  14.963
60220W        W24164  31.997  33.598   2.318
60221W        W24165  25.986  17.087  11.512
60222W        W24166  33.507  33.397   3.841
60223W        W24167  13.729  22.664   0.406
60224W        W24168   6.789  23.573  13.430
60225W        W24169  30.973  27.998   1.221
60226W        W24170  21.749   5.384  13.548
60227W        W24171   3.774   0.823   4.616
60228W        W24172  38.912  12.825   2.693
60229W        W24173  21.064  34.985  11.460
60230W        W24174  36.876  12.136  14.978
60231W        W24175  27.162   7.842   1.887
60232W        W24176  37.341  43.470   2.392
60233W        W24177   9.798  11.845   3.747
60234W        W24178   7.726   6.803   0.936
60235W        W24179  20.692   8.402  14.337
60236W        W24180   6.872  37.978   1.348
60237W        W24181  38.512  39.854  10.969
60238W        W24182   1.460  23.991  10.502
60239W        W24183  37.930  28.561   2.666
60240W        W24184  30.007   6.676  12.994
60241W        W24185   4.900  16.153   4.819
60242W        W24186  23.669  32.988   3.289
60243W        W24187   6.266  14.210  14.934
60244W        W24188  32.977  16.161   2.378
60245W        W24189  42.408  14.635  14.967
60246W        W24190  22.239   6.426   0.883
60247W        W24191  44.283  25.987   2.779
60248W        W24192  22.016  36.855  13.050
60249W        W24193  42.855  24.606   3.664
60250W        W24194   7.875  15.650  10.930
60251W        W24195   5.903   8.840   2.241
60252W        W24196  20.721  18.758  10.916
60253W        W24197  25.114  28.953   1.349
60254W        W24198   3.748  38.989   1.358
60255W        W24199  32.957  32.420   4.232
60256W        W24200  11.727   0.826  11.381
60257W        W24201  12.336  36.046  11.992
60258W        W24202   3.925  20.228   0.925
60259W        W24203  14.325  18.689  12.513
60260W        W24204  20.720  17.704  12.365
60261W        W24205  40.417   8.179  14.976
60262W        W24206  22.214  32.142   1.814
60263W        W24207  31.590  38.412  11.401
60264W        W24208  24.590   2.860  12.375
60265W        W24209  29.933  35.483  13.506
60266W        W24210  17.652   8.298   4.312
60267W        W24211   1.786  36.996  11.384
60268W        W24212   5.310  35.519  13.461
60269W        W24213   4.734   0.988  14.829
60270W        W24214  26.679  44.411  14.372
60271W        W24215  12.781  10.783   1.215
60272W        W24216  16.095   6.198  12.563
60273W        W24217  13.145  18.257   0.889
60274W        W24218  39.956   4.918  12.412
60275W        W24219  42.779  32.133   2.233
60276W        W24220  36.095  43.467   1.907
60277W        W24221   1.329   5.833  14.358
60278W        W24222  14.637  24.724  12.027
60279W        W24223   9.317  26.548   9.946
60280W        W24224  18.228  37.924  12.829
60281W        W24225  35.423  38.826  14.364
60282W        W24226   7.414   7.263  10.623
60283W        W24227  23.573  27.614   3.371
60284W        W24228  10.856  37.980   3.345
60285W        W24229   2.782  22.032  12.505
60286W        W24230  20.563  34.372   0.312
60287W        W24231  38.473  30.962   0.400
60288W        W24232   4.236  31.644   4.647
60289W        W24233   4.855  42.461   4.115
60290W        W24234  30.110  23.054  11.860
60291W        W24235  25.963   1.824   3.247
60292W        W24236  24.667  18.703  14.023
60293W        W24237  33.068  38.933  11.966
60294W        W24238  29.928  41.364   0.801
60295W        W24239  37.974  38.972   3.214
60296W        W24240  37.833  23.221   1.836
60297W        W24241  39.404  22.716   0.465
60298W        W24242  21.710  16.600   0.780
60299W        W24243  42.483  36.515   1.230
60300W        W24244  21.050  37.023  14.976
60301W        W24245  40.928  36.570  13.465
60302W        W24246  29.670  22.677   3.247
60303W        W24247  30.128  38.350  12.372
60304W        W24248   3.785  19.620   2.263
60305W        W24249  18.260  24.495  12.465
60306W        W24250   8.738  19.573  11.423
60307W        W24251  31.947   6.347  14.413
60308W        W24252  29.951  30.531   2.217
60309W        W24253  36.464  34.976   3.307
60310W        W24254  16.142  32.105  13.523
60311W        W24255  39.357  37.445  14.514
60312W        W24256  12.726  13.642  11.979
60313W        W24257  28.591  38.895   2.227
60314W        W24258   3.303  20.564   3.759
60315W        W24259  19.272  21.153  11.891
60316W        W24260  21.647  32.085  11.443
60317W        W24261   4.853  44.357   3.287
60318W        W24262   4.771  25.983   3.699
60319W        W24263   6.897  26.560  12.454
60320W        W24264  20.069  36.493  10.631
60321W        W24265  27.612  33.475  11.105
60322W        W24266  21.220  30.070  12.854
60323W        W24267  15.170   9.235  13.860
60324W        W24268  16.083  41.407  12.561
60325W        W24269  41.396  10.661   1.739
60326W        W24270  24.150  25.167   4.295
60327W        W24271  27.603   9.268  11.937
60328W        W24272  37.930  32.490   4.213
60329W        W24273  16.580  22.054   5.095
60330W        W24274  13.128  17.111   4.146
60331W        W24275  16.205  26.460   1.269
60332W        W24276   3.822  44.295   1.748
60333W        W24277  36.586  40.421   2.895
60334W        W24278  17.791  18.736   2.700
60335W        W24279  30.975  38.925   9.499
60336W        W24280  41.947  14.320   4.154
60337W        W24281  24.098  42.912   4.237
60338W        W24282  29.056  20.216  14.976
60339W        W24283  24.001  12.754  13.544
60340W        W24284   4.348   4.777   1.849
60341W        W24285  23.217  32.056   3.714
60342W        W24286  37.860  33.008   3.289
60343W        W24287   0.319   2.839  12.474
60344W        W24288  10.779   4.932   2.412
60345W        W24289  19.708   8.784   5.267
60346W        W24290  12.265  34.990   0.395
60347W        W24291  37.461   1.326  11.047
60348W        W24292   1.368  37.972   3.211
60349W        W24293  42.475  29.966  14.999
60350W        W24294   4.829  12.841   1.768
60351W        W24295  26.644  31.534  14.913
60352W        W24296  29.081   1.915   0.807
60353W        W24297   7.178  34.485  11.905
60354W        W24298  35.099  19.604  12.553
60355W        W24299  16.574  16.236  14.382
60356W        W24300  25.203   5.270  14.893
60357W        W24301  14.821  11.795   3.264
60358W        W24302  35.459  42.379   4.712
60359W        W24303  33.449  17.569   3.639
60360W        W24304  19.199   4.717  12.415
60361W        W24305  34.017  41.860   4.221
60362W        W24306  39.559  19.185  12.880
60363W        W24307  11.736  15.704  14.446
60364W        W24308  32.024  35.953   0.828
60365W        W24309  20.530   9.284   5.289
60366W        W24310  17.299  22.097  10.510
60367W        W24311  40.036  40.820  11.565
60368W        W24312  28.157  11.318   2.212
60369W        W24313  38.467  28.464  12.095
60370W        W24314   5.728  12.841   1.817
60371W        W24315  13.844  42.868   4.616
60372W        W24316   3.349  18.756   2.867
60373W        W24317   9.166  29.546   3.307
60374W        W24318  42.334   4.845  14.809
60375W        W24319  15.277   2.903   1.728
60376W        W24320  12.233  41.874  10.948
60377W        W24321  38.020  36.431  12.394
60378W        W24322   5.405  16.207  11.891
60379W        W24323  22.597  38.936   1.930
60380W        W24324  35.864   3.814  11.861
60381W        W24325  35.949  21.250  12.832
60382W        W24326   1.342  32.003  10.446
60383W        W24327  11.811  33.549   5.133
60384W        W24328  13.771  24.541   0.836
60385W        W24329  44.475  14.603   3.268
60386W        W24330  27.162  40.525  14.839
60387W        W24331   4.206  36.849  14.389
60388W        W24332   9.739  30.419   4.781
60389W        W24333   8.396  12.290   1.697
60390W        W24334  34.506  10.176   2.726
60391W        W24335  28.138  28.960   3.208
60392W        W24336  19.671   7.670  11.496
60393W        W24337   6.356  25.115  13.855
60394W        W24338  11.706   5.349   0.729
60395W        W24339  16.673  34.984   4.707
60396W        W24340   4.739   4.736   0.840
60397W        W24341  26.625  38.036  10.551
60398W        W24342  27.090  20.215   4.756
60399W        W24343  24.633  35.507   3.165
60400W        W24344  21.224   8.712   5.216
60401W        W24345   0.857   7.178   1.862
60402W        W24346  33.476  37.888   4.169
60403W        W24347  22.691   8.364  10.459
60404W        W24348  39.519  32.480  12.396
60405W        W24349  24.723  44.777   2.383
60406W        W24350  12.729  19.680  12.377
60407W        W24351  15.266  10.638   2.377
60408W        W24352  11.629  27.083   4.656
60409W        W24353  20.572  36.576  11.455
60410W        W24354   7.181   8.367  11.382
60411W        W24355  38.325  21.043  14.981
60412W        W24356   8.714  44.340  11.015
60413W        W24357  32.043  15.248   0.254
60414W        W24358  14.339  32.448   5.240
60415W        W24359  35.060  14.598   0.459
60416W        W24360  36.460   8.772   1.750
60417W        W24361  26.624  20.755   1.407
60418W        W24362  43.767  25.187   1.821
60419W        W24363  44.319  36.406   2.250
60420W        W24364  32.996  44.342   0.770
60421W        W24365  37.927  25.158  12.026
60422W        W24366   8.894  23.595  10.643
60423W        W24367  12.280  43.931  10.982
60424W        W24368  14.141  27.065  14.821
60425W        W24369  27.971  39.977   0.728
60426W        W24370   0.451   2.878  11.415
60427W        W24371  15.329   1.950  11.081
60428W        W24372   4.944  40.979   1.222
60429W        W24373   2.729  24.530   3.251
60430W        W24374  38.377  35.090  13.309
60431W        W24375  24.208  43.291   4.144
60432W        W24376  19.629  29.105   0.341
60433W        W24377   9.812   1.863  13.857
60434W        W24378  10.849  13.288  10.434
60435W        W24379   8.340   8.195   2.777
60436W        W24380  16.781  24.223  12.827
60437W        W24381  33.562  11.832   2.275
60438W        W24382  18.611   2.728  12.418
60439W        W24383   9.324   1.973   4.140
60440W        W24384  25.587  40.022  12.360
60441W        W24385  42.351  19.601   3.183
60442W        W24386  13.768  12.127  11.128
60443W        W24387  33.979  20.141  12.409
60444W        W24388  38.032  43.320  13.871
60445W        W24389  34.520  12.655  12.074
60446W        W24390  35.986  19.095  13.808
60447W        W24391  10.731  34.379  14.368
60448W        W24392  30.457   8.755   2.408
60449W        W24393  29.124  37.884   2.800
60450W        W24394  19.039  21.677   2.711
60451W        W24395  38.992  11.708   0.287
60452W        W24396  34.989  40.040  10.082
60453W        W24397  41.329   1.782   0.745
60454W        W24398  16.684  38.953   4.673
60455W        W24399  40.837   8.201  13.396
60456W        W24400  12.633  28.119   3.653
60457W        W24401   1.387  22.618  12.073
60458W        W24402  16.251  35.981   4.782
60459W        W24403   7.820  27.108   0.356
60460W        W24404  42.900  12.710   1.222
60461W        W24405   0.776  12.716  13.932
60462W        W24406  12.263  20.630  11.455
60463W        W24407  28.993  27.132   0.279
60464W        W24408   8.253  27.121   4.757
60465W        W24409   8.256  18.732  12.096
60466W        W24410  42.459  26.962   1.796
60467W        W24411  35.065   7.722  13.057
60468W        W24412   4.822  34.108  13.894
60469W        W24413   2.857   5.929   1.429
60470W        W24414  29.488  15.616  12.521
60471W        W24415  40.842  18.658  13.932
60472W        W24416  32.503  24.517  13.518
60473W        W24417  20.217  24.205  11.406
60474W        W24418   8.175  38.875   4.821
60475W        W24419   8.694  19.682  14.936
60476W        W24420   8.160   5.777   4.236
60477W        W24421   3.843  32.439  11.543
60478W        W24422  10.355  11.293   1.406
60479W        W24423   6.826  16.749   4.306
60480W        W24424   3.741   0.913  11.549
60481W        W24425  41.293  31.477  11.588
60482W        W24426   4.918  23.113   4.605
60483W        W24427  43.816  26.014   2.762
60484W        W24428  19.159  13.240   0.338
60485W        W24429  23.064  22.745   2.386
60486W        W24430  44.490  21.667   3.827
60487W        W24431  13.124  20.688  14.401
60488W        W24432  19.711  11.783   2.228
60489W        W24433   4.330  35.034   0.462
60490W        W24434  27.565  22.165   3.179
60491W        W24435   7.186   6.845  13.950
60492W        W24436  15.314   6.720   0.888
60493W        W24437  18.216  30.916   0.735
60494W        W24438  40.874  31.081  10.562
60495W        W24439  38.891  10.214   4.234
60496W        W24440  12.776  10.840   0.923
60497W        W24441   7.217  41.870   3.718
60498W        W24442  40.047  40.318  13.499
60499W        W24443   5.210  22.179  11.050
60500W        W24444  31.507  38.846   3.733
60501W        W24445   9.780   7.734   4.129
60502W        W24446  30.946   4.810  13.941
60503W        W24447  29.635  36.511  11.448
60504W        W24448  21.240  28.561  14.505
60505W        W24449  15.596  36.496  10.559
60506W        W24450   7.705   0.289  12.422
60507W        W24451  30.643  23.523  10.537
60508W        W24452  31.146  37.872   3.816
60509W        W24453   5.276  10.751  10.907
60510W        W24454   0.778  26.951   1.773
60511W        W24455  24.666   6.366   3.214
60512W        W24456   6.426  14.172  12.948
60513W        W24457  37.547  33.475  13.442
60514W        W24458  18.550  22.589  13.948
60515W        W24459  15.797   9.352   0.934
60516W        W24460  32.086  32.039  12.514
60517W        W24461  16.137  10.299   3.683
60518W        W24462  10.822  36.903   3.679
60519W        W24463  10.679  22.687   3.214
60520W        W24464   6.698  42.296  14.877
60521W        W24465  17.798  21.739  13.988
60522W        W24466  24.214  44.822  10.560
60523W        W24467  24.650  21.584   0.373
60524W        W24468  44.432  19.125  10.611
60525W        W24469  36.086  11.176   2.811
60526W        W24470  42.891   3.812   1.338
60527W        W24471  37.442  24.594  10.449
60528W        W24472  33.074  12.224  11.025
60529W        W24473  41.431  30.417  12.055
60530W        W24474  42.439  28.457  13.927
60531W        W24475   7.261  42.908  13.033
60532W        W24476   9.877  30.471  14.901
60533W        W24477  23.102  37.347  12.440
60534W        W24478   7.847  25.067   3.738
60535W        W24479  19.050  18.172  11.407
60536W        W24480   4.416  27.649  14.913
60537W        W24481   4.382   5.350   1.797
60538W        W24482  37.466   4.407   1.439
60539W        W24483  23.604  15.256   1.863
60540W        W24484   4.877  29.622  13.359
60541W        W24485  18.284  32.102   4.330
60542W        W24486  28.031  11.212  12.851
60543W        W24487  16.787   0.344   1.403
60544W        W24488   8.766  13.264   5.258
60545W        W24489  14.313  31.047   2.207
60546W        W24490  31.026  40.527  11.483
60547W        W24491  41.519  12.169  11.881
60548W        W24492  10.237  38.863  10.446
60549W        W24493   3.771  20.627   3.249
60550W        W24494  35.093  40.470   2.361
60551W        W24495  42.419  23.092  12.065
60552W        W24496  44.987   9.824  12.489
60553W        W24497   0.287  11.825   3.679
60554W        W24498  36.885  34.925   4.328
60555W        W24499  32.942  11.716  12.444
60556W        W24500  19.675  43.021   1.828
60557W        W24501  39.048  15.162   1.772
60558W        W24502  28.015  25.616   0.791
60559W        W24503  34.467  20.753   1.390
60560W        W24504  13.321   0.363   4.254
60561W        W24505   3.335  18.584   4.186
60562W        W24506  40.805  15.744   1.752
60563W        W24507  18.061  43.331  10.938
60564W        W24508  18.254  28.598   0.396
60565W        W24509  14.819   9.245   3.298
60566W        W24510  10.341  12.222   4.297
60567W        W24511  14.156  21.263  14.988
60568W        W24512  44.950  13.820  11.867
60569W        W24513  35.884   3.226  11.053
60570W        W24514  22.009   5.228  11.031
60571W        W24515  13.684   6.789  11.067
60572W        W24516  32.576  28.494  10.519
60573W        W24517  38.933  32.495   0.409
60574W        W24518   0.971  44.334   3.353
60575W        W24519  16.080  40.928   0.743
60576W        W24520  42.414  16.645   4.653
60577W        W24521  10.676  35.519   0.331
60578W        W24522  31.117  18.591  10.426
60579W        W24523  22.693  30.114  10.938
60580W        W24524  18.633  39.045   4.132
60581W        W24525  29.537  22.250  10.499
60582W        W24526  26.458  20.668   2.230
60583W        W24527   6.198  22.196  11.861
60584W        W24528  35.098   3.448  11.453
60585W        W24529  14.731  35.358  12.457
60586W        W24530  33.904  22.223   2.408
60587W        W24531   6.263  30.100  13.014
60588W        W24532  33.929  23.197   4.704
60589W        W24533  28.494  25.581   1.879
60590W        W24534  16.801  34.904  10.961
60591W        W24535  43.801  28.153  13.938
60592W        W24536   6.284  36.426  11.111
60593W        W24537  29.170   0.319  11.906
60594W        W24538  12.125  14.626  13.518
60595W        W24539  23.686  33.057   4.724
60596W        W24540  27.151   4.818  12.409
60597W        W24541  12.677   5.761   0.446
60598W        W24542  31.908  36.543   0.815
60599W        W24543  22.130  33.097  14.450
60600W        W24544   1.469  20.707   0.843
60601W        W24545  17.242  10.195   0.783
60602W        W24546  23.170  41.315   1.695
60603W        W24547  40.033  18.689   0.400
60604W        W24548  21.655  42.989  10.132
60605W        W24549  34.489  28.087   3.751
60606W        W24550  18.589  20.098   3.866
60607W        W24551  31.429   4.827  13.365
60608W        W24552  30.494  33.017  12.035
60609W        W24553   1.461  36.922   0.786
60610W        W24554  21.205   0.437   4.226
60611W        W24555  21.207  11.335   4.637
60612W        W24556  28.985   1.340   3.156
60613W        W24557  18.562  26.192   0.913
60614W        W24558   0.391  42.338   4.202
60615W        W24559  22.137  18.145  12.569
60616W        W24560   0.853  36.004   3.234
60617W        W24561   4.361  35.915  13.890
60618W        W24562  16.633  32.442   0.267
60619W        W24563  34.569  33.520  13.007
60620W        W24564   9.197  43.357   1.848
60621W        W24565  44.867  22.020   1.366
60622W        W24566   4.705  26.533   0.920
60623W        W24567  38.977  13.627  11.030
60624W        W24568  15.144  38.407   2.394
60625W        W24569   5.243  38.460   2.854
60626W        W24570  16.256  34.505  12.552
60627W        W24571  33.533   3.436   2.390
60628W        W24572  14.635  25.525  12.910
60629W        W24573  37.858  17.291  13.911
60630W        W24574  10.346   5.805  11.104
60631W        W24575  42.452   8.311  10.902
60632W        W24576  11.639  10.677   3.871
60633W        W24577  13.762  15.133   4.614
60634W        W24578  13.703  34.987   0.908
60635W        W24579  31.905  36.848   0.358
60636W        W24580  40.898  11.187  11.601
60637W        W24581  12.790  18.203   3.723
60638W        W24582  34.541  27.946   2.682
60639W        W24583  31.512  16.751  10.909
60640W        W24584  28.936  30.629   0.442
60641W        W24585   7.293  11.204  14.459
60642W        W24586  43.892  21.571   1.266
60643W        W24587  41.792  30.970  11.544
60644W        W24588  28.029   4.384   4.234
60645W        W24589  31.460  13.800   1.336
60646W        W24590  22.113  28.529  12.893
60647W        W24591  13.316   7.888  11.075
60648W        W24592  30.076  38.356  13.482
60649W        W24593   2.816  14.772  14.783
60650W        W24594  35.510   2.861   2.762
60651W        W24595  38.346  24.111  13.992
60652W        W24596  44.818  23.078   0.886
60653W        W24597  23.637  37.368  14.831
60654W        W24598   4.876  25.604   0.328
60655W        W24599  42.472   2.761   2.277
60656W        W24600  43.454  19.192   2.356
60657W        W24601  29.620   3.256  10.051
60658W        W24602  25.107  44.844  10.472
60659W        W24603  25.085  32.134  13.450
60660W        W24604  18.597   4.728  13.059
60661W        W24605  26.989  37.437  10.935
60662W        W24606  39.317   2.413   3.650
60663W        W24607   1.821   4.418   3.833
60664W        W24608   8.358  22.041  11.923
60665W        W24609  19.746   8.845  14.455
60666W        W24610  19.587  42.800  13.959
60667W        W24611   0.898   3.920  14.291
60668W        W24612   3.353   0.419   4.653
60669W        W24613   2.299  23.499  13.015
60670W        W24614  12.166  36.051  12.385
60671W        W24615  37.928  13.336   1.792
60672W        W24616   8.244  40.332  10.618
60673W        W24617  20.717  24.662  12.560
60674W        W24618  39.906  32.997  11.124
60675W        W24619  35.582  16.635   0.356
60676W        W24620  27.068  44.459   4.639
60677W        W24621  15.253  27.007  11.964
60678W        W24622  12.189  16.226   2.324
60679W        W24623  39.914  18.660  10.436
60680W        W24624   6.893   0.379   2.800
60681W        W24625  10.641  24.215   4.243
60682W        W24626  18.050  10.169  10.062
60683W        W24627  38.381  21.525  14.418
60684W        W24628   9.297  24.638   1.742
60685W        W24629   6.848  15.092  13.959
60686W        W24630  25.574  42.304  13.477
60687W        W24631  42.964  38.882  14.468
60688W        W24632  39.358  43.335  12.930
60689W        W24633  41.355  40.975   3.764
60690W        W24634  38.002   7.197   3.756
60691W        W24635  38.353  25.699   2.283
60692W        W24636  33.973   5.295   2.286
60693W        W24637   6.676  19.262   0.727
60694W        W24638  14.766  14.652  13.963
60695W        W24639  21.073  33.943   2.310
60696W        W24640  12.208  15.288  10.555
60697W        W24641  27.513  42.404  11.559
60698W        W24642   9.319  36.037   5.176
60699W        W24643  19.087  33.607   4.253
60700W        W24644  11.707  12.277   1.864
60701W        W24645  29.001  22.252   4.221
60702W        W24646   4.293  34.976  12.489
60703W        W24647  11.168  23.635   2.717
60704W        W24648  16.805   8.268  11.563
60705W        W24649  33.555  25.494   3.265
60706W        W24650   9.775  18.659   1.782
60707W        W24651  24.661  29.113  13.948
60708W        W24652  43.863  16.667  13.889
60709W        W24653  10.347  28.599  14.301
60710W        W24654  44.922  22.094  13.412
60711W        W24655   8.401   1.302   4.742
60712W        W24656  39.038  39.331   0.934
60713W        W24657  15.809   0.927  11.443
60714W        W24658  21.629   0.883  11.974
60715W        W24659  21.666  10.227   3.298
60716W        W24660   7.854  19.556  11.521
60717W        W24661  37.484   9.811  12.509
60718W        W24662  28.435  40.918   5.181
60719W        W24663  42.496  26.202  12.478
60720W        W24664  29.516  23.635   2.862
60721W        W24665   5.317   8.817  11.087
60722W        W24666  28.559   6.727  14.364
60723W        W24667  27.651  25.071  14.399
60724W        W24668  38.537  42.848   3.149
60725W        W24669  37.376  31.023  12.833
60726W        W24670  25.568  22.999  14.356
60727W        W24671  34.985   6.891   2.273
60728W        W24672   5.909   8.659  11.418
60729W        W24673  19.107   6.867   2.274
60730W        W24674  40.455  42.385   4.697
60731W        W24675  31.996  24.989   4.657
60732W        W24676  40.479  42.887  13.359
60733W        W24677  10.825  17.602   4.789
60734W        W24678  38.908  21.042  12.474
60735W        W24679  35.457  16.081   1.331
60736W        W24680  43.460  33.875   4.706
60737W        W24681  41.018  29.157  13.416
60738W        W24682  32.998   9.284  12.379
60739W        W24683  15.123  25.000   2.892
60740W        W24684  15.225  17.557  11.106
60741W        W24685   5.391   6.808  13.866
60742W        W24686  28.086  10.804  13.463
60743W        W24687  19.204   2.721  10.599
60744W        W24688  43.921  16.122   2.258
60745W        W24689   6.375  15.126   1.873
60746W        W24690  43.388  32.567  13.478
60747W        W24691  12.655   8.296  10.439
60748W        W24692  43.466   5.218  13.914
60749W        W24693  30.420  16.647   5.296
60750W        W24694  43.469  36.532  11.475
60751W        W24695  41.981  20.097   0.355
60752W        W24696  20.123  18.598   4.658
60753W        W24697   2.308   0.805   0.335
60754W        W24698  38.961  36.513   4.296
60755W        W24699  33.427  19.258  12.500
60756W        W24700  29.619  12.787   1.825
60757W        W24701  36.510   9.674   0.910
60758W        W24702   0.805  19.258  12.549
60759W        W24703  12.730  26.066   1.271
60760W        W24704  30.574  39.344   2.878
60761W        W24705  33.529  24.621  11.069
60762W        W24706  39.828  18.131   2.362
60763W        W24707  20.578  26.582   3.675
60764W        W24708  28.158  11.860   5.322
60765W        W24709  29.546  12.705  12.077
60766W        W24710  40.489  12.855  14.930
60767W        W24711  16.790  42.832   0.761
60768W        W24712  36.524   4.444   1.367
60769W        W24713  42.349  39.557  12.945
60770W        W24714  11.209   6.734  10.986
60771W        W24715  17.233  25.184  14.339
60772W        W24716   4.896  18.790  14.982
60773W        W24717  32.027   2.813  12.472
60774W        W24718  12.657  36.469   2.802
60775W        W24719  38.009  11.829  12.405
60776W        W24720  15.602   7.189   3.658
60777W        W24721  41.370   8.394  14.285
60778W        W24722  10.372  40.435   5.261
60779W        W24723   7.842  44.764   0.754
60780W        W24724   3.854  25.999  14.344
60781W        W24725   9.367  44.852  14.934
60782W        W24726  27.007  34.885   0.829
60783W        W24727  14.283  25.033  11.029
60784W        W24728  43.825  15.712   1.217
60785W        W24729   9.376  14.231  11.383
60786W        W24730  16.243   7.815  12.013
60787W        W24731  30.103  43.280   3.373
60788W        W24732  44.795   9.387   0.785
60789W        W24733   7.182  19.211   1.416
60790W        W24734  20.156  20.754  14.396
60791W        W24735  36.377  39.822  10.430
60792W        W24736  29.134  19.703  11.566
60793W        W24737  41.805  37.074  10.975
60794W        W24738  16.787  37.456   1.382
60795W        W24739  21.157  37.352   2.683
60796W        W24740  14.245   5.842  11.568
60797W        W24741  26.084  36.526  10.448
60798W        W24742   1.251  38.979   2.680
60799W        W24743   7.255  38.369   3.318
60800W        W24744  26.698  23.241  11.477
60801W        W24745  35.072  25.202  12.830
60802W        W24746  30.501  40.947   3.647
60803W        W24747  27.063   1.393   4.663
60804W        W24748  18.585  40.838  12.897
60805W        W24749  24.044  33.101   1.239
60806W        W24750  31.466  27.067   0.864
60807W        W24751  28.671   6.404   2.748
60808W        W24752  17.570  15.793  12.555
60809W        W24753   2.816   1.928  11.080
60810W        W24754  38.917   9.272   2.884
60811W        W24755   7.239   5.908   1.274
60812W        W24756  35.031  34.575  14.396
60813W        W24757  21.599  24.598  13.793
60814W        W24758  33.463  10.376   3.365
60815W        W24759  32.108   7.203  10.567
60816W        W24760  12.151   1.839  14.374
60817W        W24761   0.371  31.615   4.199
60818W        W24762  33.023  28.949  11.861
60819W        W24763  35.860  36.047  14.833
60820W        W24764  22.253  16.687  14.468
60821W        W24765  26.622  31.556  10.962
60822W        W24766  19.160  36.047   3.286
60823W        W24767  15.283  20.042  13.968
60824W        W24768   4.384   2.297   2.764
60825W        W24769  16.783  24.539  11.950
60826W        W24770   4.287   9.188   1.748
60827W        W24771  35.046  43.367  13.510
60828W        W24772  12.693  41.810   2.267
60829W        W24773  29.570  40.340  11.863
60830W        W24774  17.066  16.098  10.142
60831W        W24775  25.664  14.805   1.917
60832W        W24776  29.552  32.544   2.783
60833W        W24777  34.936   8.672  12.339
60834W        W24778  20.766  25.165  11.893
60835W        W24779   3.860  34.088  11.570
60836W        W24780  38.895  11.282   4.628
60837W        W24781  41.001  16.676  12.084
60838W        W24782  31.643  36.576  12.058
60839W        W24783   5.348  40.867   1.858
60840W        W24784   6.333  38.993  11.086
60841W        W24785  43.479  15.085  12.493
60842W        W24786  31.081  37.528   1.774
60843W        W24787   8.191  27.592   5.256
60844W        W24788   8.741  41.892   4.218
60845W        W24789  39.533  31.106   0.385
60846W        W24790  11.280  18.217   3.329
60847W        W24791  10.342  20.217  12.492
60848W        W24792  15.283  11.283   1.232
60849W        W24793  35.378   8.701  11.906
60850W        W24794  21.039  44.452  14.933
60851W        W24795   0.791  43.793   3.637
60852W        W24796  33.070  43.778  14.958
60853W        W24797  32.923  37.461  10.602
60854W        W24798  29.125  13.778   2.709
60855W        W24799   1.435   6.327  14.472
60856W        W24800   6.693   5.736  13.911
60857W        W24801  44.886  33.077  14.362
60858W        W24802  18.582  10.316   1.401
60859W        W24803  44.473  39.981  14.988
60860W        W24804  25.027  36.058  10.442
60861W        W24805   0.320  30.932   0.366
60862W        W24806  27.941  18.610   0.482
60863W        W24807  29.431  39.516  11.993
60864W        W24808  14.177  33.597   1.311
60865W        W24809   6.362  27.959   0.820
60866W        W24810  42.906  11.322  13.019
60867W        W24811  19.542  22.226   3.165
60868W        W24812   5.928  17.300  12.074
60869W        W24813   4.924   9.730  11.957
60870W        W24814   8.842   7.412  11.902
60871W        W24815  33.042  33.974  13.516
60872W        W24816  28.051  22.191  11.069
60873W        W24817  15.329  15.143  11.533
60874W        W24818  33.060  12.678  12.861
60875W        W24819  35.002  35.080   0.360
60876W        W24820  15.656  28.982   0.429
60877W        W24821  41.482  25.191  10.559
60878W        W24822  25.207  21.131   2.858
60879W        W24823  13.250  12.350   4.266
60880W        W24824  32.111  25.141   0.392
60881W        W24825   9.390  29.636   4.239
60882W        W24826  10.341  42.484   1.289
60883W        W24827  36.454  44.800   4.768
60884W        W24828  17.099  36.969  14.326
60885W        W24829  34.918  33.490  12.565
60886W        W24830  14.602  38.392  14.357
60887W        W24831  25.170  33.889   0.761
60888W        W24832   3.320  40.858   2.675
60889W        W24833  42.849   1.898  13.444
60890W        W24834  14.650  38.951   4.178
60891W        W24835  31.519  32.107   3.867
60892W        W24836  42.891   4.720   2.769
60893W        W24837   0.270   2.933   1.259
60894W        W24838  37.469   5.352  10.526
60895W        W24839  29.961  39.326  14.817
60896W        W24840  17.230  20.138   1.728
60897W        W24841  17.266  12.246   4.615
60898W        W24842  25.130   2.890  13.029
60899W        W24843   5.413  11.275  14.909
60900W        W24844  18.656   7.278   5.235
60901W        W24845  39.045  23.174  12.008
60902W        W24846  35.946  20.557  14.866
60903W        W24847   9.744   8.712   1.355
60904W        W24848  27.452  17.689  13.472
60905W        W24849  19.245  35.953   0.942
60906W        W24850  22.137  38.855   0.330
60907W        W24851  42.506  26.457  14.793
60908W        W24852  40.458  28.679  12.911
60909W        W24853  43.861  37.875   0.396
60910W        W24854  34.088  17.629   0.785
60911W        W24855  21.646  25.595   3.719
60912W        W24856  23.711  29.995   3.170
60913W        W24857  32.122  36.033  13.528
60914W        W24858  42.313  13.683   4.254
60915W        W24859  31.073  10.877   1.343
60916W        W24860  21.750  33.880  14.967
60917W        W24861   7.686  21.114   0.281
60918W        W24862   0.289  32.419  14.296
60919W        W24863   3.339  42.897   4.698
60920W        W24864  19.228  10.302  10.946
60921W        W24865  19.658  24.484  11.456
60922W        W24866   4.929  28.117   2.752
60923W        W24867   0.347   9.791   3.866
60924W        W24868  11.714  22.698  10.048
60925W        W24869  27.672  17.134   2.345
60926W        W24870  10.161  33.555   4.665
60927W        W24871  19.684  35.921   1.413
60928W        W24872  26.498  44.456   0.843
60929W        W24873  19.226  23.523  14.900
60930W        W24874   4.941  12.621   1.292
60931W        W24875  28.981  41.836  10.014
60932W        W24876  27.502   7.183   1.832
60933W        W24877  39.865  14.271   5.182
60934W        W24878   2.915  31.896  12.996
60935W        W24879  11.278   6.351  13.953
60936W        W24880  43.824  15.274   0.368
60937W        W24881  41.807  33.012  11.067
60938W        W24882  36.474  10.269  14.024
60939W        W24883  17.635   9.783  11.426
60940W        W24884   5.766   6.764   2.298
60941W        W24885  17.226  38.466   0.785
60942W        W24886   3.416  24.529   3.745
60943W        W24887   9.752  39.551   1.884
60944W        W24888  22.645  44.793   1.341
60945W        W24889  16.757  21.703  13.865
60946W        W24890  26.147  22.093  14.356
60947W        W24891  13.827  17.610   1.291
60948W        W24892   7.813  36.875   3.375
60949W        W24893  32.893  35.042  13.424
60950W        W24894  18.683  31.646   0.820
60951W        W24895  15.251  24.587   0.878
60952W        W24896  42.973   1.350  13.459
60953W        W24897   4.737   9.796   9.959
60954W        W24898   8.757  14.607   1.392
60955W        W24899  23.056  41.799  14.501
60956W        W24900  27.166   2.380   0.449
60957W        W24901   8.396  22.015  11.493
60958W        W24902  24.531  41.335  12.875
60959W        W24903  38.455  35.967  12.934
60960W        W24904  25.073  30.579  11.433
60961W        W24905   8.786  22.532   2.292
60962W        W24906  28.634  37.066  11.925
60963W        W24907   1.438  11.239  13.382
60964W        W24908  32.505   7.883  11.998
60965W        W24909   8.347   7.318  13.999
60966W        W24910   5.385  29.114   1.898
60967W        W24911  27.116  31.034   3.283
60968W        W24912  37.507  44.278   3.855
60969W        W24913   2.737  36.889  12.902
60970W        W24914   0.907  32.583   3.659
60971W        W24915  39.463  31.057  11.512
60972W        W24916  44.878  15.118   1.879
60973W        W24917  30.987   0.746  12.889
60974W        W24918  25.670   3.256   4.287
60975W        W24919  25.678  17.623   0.817
60976W        W24920   6.328  21.707   1.888
60977W        W24921   4.778   5.835   9.989
60978W        W24922  34.997  33.562   0.430
60979W        W24923  28.182   8.221  13.880
60980W        W24924   9.221  12.650   2.188
60981W        W24925  37.947   9.677   0.734
60982W        W24926  22.590  25.112   1.345
60983W        W24927  37.873  19.601   0.419
60984W        W24928   5.336  36.052   1.849
60985W        W24929   8.735  19.069   3.789
60986W        W24930   5.299  30.009  11.553
60987W        W24931  27.579  37.556  13.544
60988W        W24932  28.570  44.800  14.821
60989W        W24933  15.262  15.759   3.237
60990W        W24934  18.141  29.068   1.300
60991W        W24935   2.872  44.480   2.370
60992W        W24936   3.419  37.553   1.444
60993W        W24937  22.065  29.637   4.639
60994W        W24938  24.532   5.705   4.754
60995W        W24939  14.177  15.286  10.899
60996W        W24940   5.925  25.052   2.766
60997W        W24941  21.681  20.112  12.039
60998W        W24942  16.640  29.982  10.958
60999W        W24943   4.363  33.443  14.963
61000W        W24944   6.256  42.329  12.438
61001W        W24945  14.634  30.643  13.830
61002W        W24946  17.562  33.918   4.664
61003W        W24947  14.169   8.354   3.185
61004W        W24948  32.024  41.943   1.226
61005W        W24949  18.219  19.756   0.345
61006W        W24950   9.841  31.571  14.399
61007W        W24951  14.182  24.172  11.408
61008W        W24952  19.089  35.483  14.901
61009W        W24953  32.409  22.639  11.080
61010W        W24954  11.762   4.378  11.562
61011W        W24955  35.388  37.439  10.568
61012W        W24956  36.022  29.932  14.003
61013W        W24957  30.101  41.494  14.466
61014W        W24958  26.201  19.208   2.208
61015W        W24959  10.734  40.904   4.750
61016W        W24960   0.900   6.293   3.699
61017W        W24961  28.929  35.949  14.351
61018W        W24962   7.897  31.601  11.876
61019W        W24963  12.155  12.707  12.841
61020W        W24964  44.361  17.570  12.869
61021W        W24965   2.254  17.693  11.897
61022W        W24966  37.466   4.347  12.965
61023W        W24967   8.683  31.593   0.455
61024W        W24968  37.519  34.083  10.432
61025W        W24969   7.719   6.737   2.362
61026W        W24970   7.750  38.932  11.558
61027W        W24971  34.525  13.301  14.360
61028W        W24972  15.617  41.385  13.444
61029W        W24973  18.238  18.268   2.671
61030W        W24974  19.684  34.511  12.920
61031W        W24975  18.617   7.756   0.731
61032W        W24976  35.955  42.868   1.909
61033W        W24977  38.855   4.272   4.325
61034W        W24978  17.159  25.484   2.340
61035W        W24979  15.714  35.501   5.157
61036W        W24980   1.737  42.484  14.920
61037W        W24981   0.898  33.519  10.507
61038W        W24982  31.900  24.608  14.497
61039W        W24983  26.610  29.612  14.882
61040W        W24984  23.021   5.382  10.924
61041W        W24985   4.302   2.238   0.243
61042W        W24986  35.893  12.267   0.343
61043W        W24987  22.531  19.250   4.641
61044W        W24988   7.261  26.131   2.777
61045W        W24989   6.885  24.684   2.846
61046W        W24990  15.263   1.324   1.821
61047W        W24991   3.434   3.300  10.059
61048W        W24992  42.517  41.443   1.849
61049W        W24993  22.180  30.630  13.930
61050W        W24994   2.364  25.469  13.896
61051W        W24995  25.490  19.666   4.733
61052W        W24996   0.248  43.405  13.897
61053W        W24997  25.478  20.234   4.762
61054W        W24998   6.223  38.539   4.326
61055W        W24999  23.606  10.649   4.279
61056W        W25000  22.010  26.969  12.451
61057W        W25001  44.982  26.992   4.838
61058W        W25002  31.130  26.101   2.267
61059W        W25003  35.600   7.293   3.803
61060W        W25004  24.208  31.954   4.191
61061W        W25005  22.154  31.504  10.485
61062W        W25006   3.351  33.548   5.240
61063W        W25007  19.759   9.150   5.091
61064W        W25008   9.149  32.138  11.955
61065W        W25009  27.948  10.671  10.122
61066W        W25010  20.139  10.187   3.639
61067W        W25011  24.228  36.076   1.311
61068W        W25012  21.127  28.580   3.259
61069W        W25013  29.503  31.480  11.433
61070W        W25014   9.233  27.142   0.348
61071W        W25015  36.043  37.571  11.502
61072W        W25016  11.147  42.028   1.378
61073W        W25017   0.800   2.438  13.468
61074W        W25018  30.452  28.621   2.314
61075W        W25019  19.723  15.699   4.638
61076W        W25020   0.988  17.204   4.606
61077W        W25021  11.132  24.048  13.983
61078W        W25022  34.028  23.564   0.414
61079W        W25023  18.627  44.813  14.962
61080W        W25024  37.535  33.407   0.769
61081W        W25025   7.336  22.547   0.744
61082W        W25026  35.538   8.710   3.726
61083W        W25027  16.665  19.762  14.826
61084W        W25028  11.720   0.408   1.922
61085W        W25029   8.337  14.314  10.075
61086W        W25030  34.966  12.292   3.298
61087W        W25031  11.659  38.937   4.282
61088W        W25032  18.121  41.903   1.920
61089W        W25033   3.285  14.180  13.815
61090W        W25034   7.234  15.643  14.324
61091W        W25035  33.475   4.331   4.764
61092W        W25036   4.836  30.589   2.715
61093W        W25037   1.323  39.906   2.772
61094W        W25038  42.975  29.971   1.917
61095W        W25039  16.724  42.386   0.339
61096W        W25040   1.777  44.959   0.396
61097W        W25041   1.880  13.704   1.274
61098W        W25042  18.254  36.936   4.212
61099W        W25043  11.186  15.822  13.923
61100W        W25044   9.664   4.371   1.287
61101W        W25045  14.648  30.603   4.631
61102W        W25046   7.196  27.464   5.236
61103W        W25047   5.250  23.699   2.294
61104W        W25048  38.350  32.930  13.838
61105W        W25049  38.922  20.251   4.684
61106W        W25050  41.019  29.939   3.228
61107W        W25051  19.237  10.716  12.383
61108W        W25052   7.764  37.058   4.787
61109W        W25053  13.823   4.204  12.444
61110W        W25054  44.326  27.446  13.806
61111W        W25055   1.764  35.875  14.952
61112W        W25056   4.735  44.813  14.020
61113W        W25057  42.353  16.263   0.740
61114W        W25058  41.398  22.221  13.450
61115W        W25059  14.325  22.237  14.019
61116W        W25060   9.789   4.433   0.829
61117W        W25061   6.229  35.986   1.709
61118W        W25062  23.713  24.193   0.946
61119W        W25063  42.986  43.994   3.156
61120W        W25064   8.704  18.607   4.835
61121W        W25065  41.800  34.981  14.513
61122W        W25066   6.875  18.222  14.800
61123W        W25067  32.446   2.729  12.427
61124W        W25068   5.774  24.006  11.009
61125W        W25069  28.550  35.039   0.744
61126W        W25070  26.557  11.816   5.216
61127W        W25071  41.806  21.643   4.197
61128W        W25072   3.256  24.562  12.063
61129W        W25073  14.340  16.783   2.671
61130W        W25074   4.943   8.781  14.507
61131W        W25075  38.403  25.678  14.801
61132W        W25076   7.773   2.275  12.514
61133W        W25077  21.030  29.544   1.428
61134W        W25078  17.070   5.291  10.628
61135W        W25079  15.178  40.896   3.813
61136W        W25080  15.113  34.425  14.828
61137W        W25081  35.944  42.972   3.229
61138W        W25082  36.948   6.754  12.493
61139W        W25083   9.855  42.320   3.710
61140W        W25084  22.543  40.968  14.439
61141W        W25085   3.425  30.418   3.242
61142W        W25086   0.977  31.631  12.511
61143W        W25087  12.853  20.152   1.322
61144W        W25088  24.018  35.916  10.491
61145W        W25089  13.774  44.443   3.750
61146W        W25090  34.531  16.314   0.891
61147W        W25091  22.695  31.620  14.508
61148W        W25092  40.950  19.598   3.308
61149W        W25093   5.329  24.089  14.845
61150W        W25094  24.567   1.769   4.142
61151W        W25095  26.487  21.614   0.441
61152W        W25096   8.736  37.369  10.958
61153W        W25097   0.904  26.160   3.724
61154W        W25098  14.324  24.665   3.301
61155W        W25099  28.474  35.419  14.470
61156W        W25100   2.726  19.722   3.764
61157W        W25101  28.563  33.519  12.547
61158W        W25102   9.304  32.523  13.806
61159W        W25103  14.185  35.072   0.290
61160W        W25104   2.359  39.552   0.845
61161W        W25105  15.271   3.709  14.896
61162W        W25106  11.797  37.494   2.410
61163W        W25107  18.088  18.146  11.442
61164W        W25108   5.222   0.459   4.761
61165W        W25109  10.775  15.136   1.864
61166W        W25110   3.739  11.195  12.936
61167W        W25111  15.180   0.817   0.458
61168W        W25112  38.955  34.587  10.975
61169W        W25113  38.015  16.729  11.080
61170W        W25114  16.571  24.615   2.359
61171W        W25115  39.029  13.746  10.483
61172W        W25116  26.512  28.988   1.825
61173W        W25117  24.047  31.520  13.911
61174W        W25118  33.931  21.534   0.744
61175W        W25119  37.950  33.046  13.969
61176W        W25120  20.716   4.437  12.946
61177W        W25121  29.512  11.172  11.611
61178W        W25122  13.825  43.283  10.986
61179W        W25123  32.604  34.516  10.963
61180W        W25124  33.893  41.395   0.360
61181W        W25125  39.981  20.212   3.294
61182W        W25126  34.391  23.167  14.449
61183W        W25127  23.562  38.473   2.859
61184W        W25128   5.834  24.686  13.892
61185W        W25129  32.025  26.988  13.335
61186W        W25130  20.131  31.641  13.991
61187W        W25131  11.787  12.278   3.263
61188W        W25132  33.095  31.471   3.853
61189W        W25133   0.933   2.919   0.955
61190W        W25134  33.519  18.133   3.705
61191W        W25135   7.803  13.656  13.415
61192W        W25136  38.956  36.002   0.836
61193W        W25137  17.247  26.557  11.576
61194W        W25138  13.724  37.417   1.258
61195W        W25139   9.737   3.785  11.947
61196W        W25140  21.042  31.582  14.759
61197W        W25141  14.784  35.497   0.803
61198W        W25142  35.431   3.259  11.856
61199W        W25143  28.015  29.130   2.665
61200W        W25144  44.504  41.300   2.776
61201W        W25145  15.760   7.739   3.707
61202W        W25146  37.535   3.720  11.533
61203W        W25147  24.213   1.830  11.943
61204W        W25148  29.613  27.177   2.345
61205W        W25149  28.977  11.712   2.358
61206W        W25150   8.668  23.059  11.471
61207W        W25151  37.036  38.864  14.917
61208W        W25152  37.942  18.789  11.120
61209W        W25153  15.630  36.374  11.540
61210W        W25154  18.610   4.759  14.978
61211W        W25155  23.139  35.965   4.317
61212W        W25156  11.141  12.786  12.921
61213W        W25157  43.333   0.986  14.421
61214W        W25158  41.023  29.518  12.395
61215W        W25159  10.282  15.658  13.812
61216W        W25160  29.575  13.808  14.412
61217W        W25161  22.213  31.607   4.647
61218W        W25162  23.003  11.188  11.533
61219W        W25163  16.148  10.230   0.302
61220W        W25164  29.959  40.858  11.498
61221W        W25165   3.334  22.735   5.201
61222W        W25166  28.057  16.216  11.395
61223W        W25167  16.743  21.183  12.503
61224W        W25168  31.437  23.640  14.417
61225W        W25169   1.264  24.567  14.771
61226W        W25170  31.981  15.210   2.314
61227W        W25171   3.716   2.283  13.817
61228W        W25172  23.646  14.751   2.267
61229W        W25173  19.074  18.272  10.945
61230W        W25174  23.151  39.001   0.345
61231W        W25175  10.334  44.788   2.765
61232W        W25176  44.888   0.460   2.182
61233W        W25177  35.551   2.892  11.873
61234W        W25178  41.471  24.028  11.557
61235W        W25179  35.930  15.632   2.381
61236W        W25180  25.679  28.661   1.313
61237W        W25181  23.042  19.598  10.614
61238W        W25182  16.684   4.700   2.715
61239W        W25183   9.351   5.875   2.671
61240W        W25184  16.631   2.814  10.975
61241W        W25185  21.659  35.416   0.827
61242W        W25186  21.543  41.951  13.999
61243W        W25187  18.620  30.537   3.719
61244W        W25188  30.094  37.406  14.381
61245W        W25189   0.400  12.824   2.663
61246W        W25190  41.408   6.200  10.922
61247W        W25191   2.259  16.293  10.902
61248W        W25192  27.157   7.207   1.890
61249W        W25193  14.142  21.085  12.834
61250W        W25194  39.958  13.630  14.903
61251W        W25195  43.344  25.039  10.459
61252W        W25196  19.684   3.849   3.763
61253W        W25197  21.681   5.255   2.731
61254W        W25198  22.226  37.873  10.541
61255W        W25199  34.054  11.806  13.485
61256W        W25200  42.858  21.622   3.307
61257W        W25201  11.801  38.964   4.704
61258W        W25202   6.360  19.039   3.275
61259W        W25203  20.580  27.501  13.467
61260W        W25204  38.851   7.828  10.633
61261W        W25205  14.143  41.329  11.592
61262W        W25206   9.887  40.394   4.760
61263W        W25207  13.134  22.664  14.888
61264W        W25208  10.663  38.505   3.171
61265W        W25209  17.677   8.668  10.924
61266W        W25210  30.121  20.545  13.357
61267W        W25211   4.376   1.464  11.406
61268W        W25212  20.171   5.332   4.313
61269W        W25213  27.089  16.720   1.884
61270W        W25214  29.932  11.196  13.407
61271W        W25215  36.533  32.512  13.400
61272W        W25216   8.209  23.228  14.759
61273W        W25217   5.855  28.951  14.963
61274W        W25218  21.189  40.856   4.605
61275W        W25219  12.358   6.375  11.491
61276W        W25220  29.106  24.172   1.702
61277W        W25221   2.452  28.010  12.345
61278W        W25222  42.371  20.175   4.335
61279W        W25223  17.260  23.168   4.113
61280W        W25224  12.804  44.795   2.721
61281W        W25225  38.884  43.923   3.714
61282W        W25226  27.551  20.236  10.464
61283W        W25227   3.767   7.187  13.544
61284W        W25228  44.432  29.472   4.621
61285W        W25229  17.625  41.487   1.244
61286W        W25230  22.153  13.822  10.501
61287W        W25231   7.263   4.399   3.312
61288W        W25232  27.988  12.628   1.232
61289W        W25233  38.417   2.888  13.903
61290W        W25234  10.208   2.307  12.025
61291W        W25235   3.321  37.564  12.036
61292W        W25236  29.990  22.544  12.919
61293W        W25237  42.872  11.354  11.960
61294W        W25238  17.101  27.565   2.712
61295W        W25239  35.405  21.530   4.678
61296W        W25240  32.039  35.955   0.397
61297W        W25241  12.702  38.512   0.448
61298W        W25242  10.849  39.512  12.871
61299W        W25243  36.862  12.831   1.422
61300W        W25244  18.765  36.436   2.752
61301W        W25245  26.542  40.342  13.877
61302W        W25246   4.790  40.010  14.893
61303W        W25247   9.251  44.879  12.066
61304W        W25248  19.198  33.531   2.825
61305W        W25249  32.010  40.025  11.559
61306W        W25250  31.112  39.950  10.071
61307W        W25251  34.600  25.480  13.004
61308W        W25252  25.692   8.666  12.399
61309W        W25253  38.371  36.592  14.907
61310W        W25254  22.704  10.635  13.922
61311W        W25255  42.456  40.048   2.220
61312W        W25256  36.978   4.413  14.776
61313W        W25257  32.076  14.303  14.503
61314W        W25258  11.172  34.097   1.927
61315W        W25259   1.787   5.393   9.996
61316W        W25260  14.656   9.151  11.525
61317W        W25261  32.515  35.873  12.851
61318W        W25262  27.644  42.437  10.425
61319W        W25263   7.213  21.575  13.800
61320W        W25264   4.348  12.261   0.285
61321W        W25265  24.591  14.220  14.429
61322W        W25266  20.101  24.029  10.979
61323W        W25267  13.248   5.273   2.389
61324W        W25268  36.896  25.566  12.407
61325W        W25269  44.838  10.315   3.663
61326W        W25270  18.055  35.035  11.112
61327W        W25271  36.368  43.310  11.089
61328W        W25272  43.434  40.987  12.878
61329W        W25273  11.227  17.164   3.843
61330W        W25274  23.708  31.056  11.121
61331W        W25275   9.701  10.745   3.326
61332W        W25276   2.916   6.899  14.371
61333W        W25277  32.110  21.098   2.680
61334W        W25278  10.183   3.424   2.813
61335W        W25279   5.692  28.186  12.551
61336W        W25280  15.279  34.562   2.804
61337W        W25281  34.477  31.063  11.373
61338W        W25282  10.211   0.748  13.373
61339W        W25283  44.779  39.325  10.507
61340W        W25284  41.354  40.871   3.181
61341W        W25285  13.138  23.646  12.026
61342W        W25286  24.077  33.410  10.490
61343W        W25287  25.475  14.796   0.360
61344W        W25288   2.265  44.903   4.303
61345W        W25289  17.293  28.002  12.041
61346W        W25290   3.945  32.139   4.115
61347W        W25291  35.857   7.850  11.496
61348W        W25292  16.568  39.411   4.354
61349W        W25293  11.644  14.124   9.957
61350W        W25294   7.326   7.888  11.529
61351W        W25295  16.289  27.567   0.882
61352W        W25296  14.129  11.227   2.208
61353W        W25297  23.610  18.680   3.354
61354W        W25298  34.864  18.173  14.017
61355W        W25299  44.835   3.252  12.345
61356W        W25300  28.536   6.825  14.022
61357W        W25301   9.337  31.047   5.246
61358W        W25302  15.108  24.605  11.382
61359W        W25303  27.586  10.833  13.802
61360W        W25304  12.660  20.671  13.907
61361W        W25305  40.362  17.574  10.549
61362W        W25306  20.131  22.673  13.900
61363W        W25307  42.436   7.818  13.440
61364W        W25308  16.634  10.787   1.822
61365W        W25309  42.025   5.346  14.280
61366W        W25310  13.738  30.956  13.891
61367W        W25311   6.191   2.772  10.426
61368W        W25312   3.803  14.237   3.748
61369W        W25313   3.300  17.654   1.346
61370W        W25314  41.533   7.360   2.751
61371W        W25315  27.017  44.307  11.406
61372W        W25316  30.931  21.066  13.397
61373W        W25317  25.518  11.325  14.430
61374W        W25318   5.213  32.136   0.898
61375W        W25319  12.647  19.635   3.654
61376W        W25320  42.007  28.118   1.312
61377W        W25321  32.896  30.439  11.891
61378W        W25322  16.635  39.373  12.898
61379W        W25323  15.205  35.428  12.969
61380W        W25324  23.132  35.539  12.011
61381W        W25325   5.724  44.767  14.789
61382W        W25326   9.365  16.665  10.145
61383W        W25327  39.878   3.315  13.803
61384W        W25328  32.104  28.591   1.400
61385W        W25329  25.044  14.108   2.842
61386W        W25330  39.412  28.107  10.480
61387W        W25331  11.179   8.868   2.296
61388W        W25332  18.615   4.239   3.284
61389W        W25333  17.592  44.005  10.451
61390W        W25334  25.709   2.440   0.412
61391W        W25335  41.916   2.425   1.215
61392W        W25336  39.833  31.907   3.299
61393W        W25337  42.435  11.691  13.841
61394W        W25338  36.529  30.037  11.583
61395W        W25339  13.302   1.407  13.962
61396W        W25340  10.798  36.043  10.453
61397W        W25341  27.544   8.199  14.028
61398W        W25342  27.692  41.326   5.230
61399W        W25343  24.165  28.941   1.882
61400W        W25344  16.226  37.934  14.407
61401W        W25345  42.414   3.389   2.221
61402W        W25346  18.573   8.739   5.713
61403W        W25347  21.545   0.750   3.833
61404W        W25348   7.787   9.696  14.792
61405W        W25349  33.121  26.565  11.571
61406W        W25350  41.300  44.960   3.802
61407W        W25351  39.392  41.349   1.725
61408W        W25352   9.192   0.364   4.198
61409W        W25353  22.115  28.065  12.345
61410W        W25354  23.541  17.784  12.388
61411W        W25355  44.974  12.849  14.343
61412W        W25356  34.895  16.241   0.365
61413W        W25357   2.345   9.825   0.823
61414W        W25358  39.366  10.848  12.471
61415W        W25359  37.535   2.728  14.808
61416W        W25360  20.166  26.526   3.386
61417W        W25361  34.089   3.346   3.161
61418W        W25362   4.876  31.407   1.261
61419W        W25363  28.952  34.379   2.818
61420W        W25364   4.407  10.708  14.776
61421W        W25365   2.409  28.019   3.733
61422W        W25366  37.950   0.778   1.913
61423W        W25367   7.245   3.903   3.198
61424W        W25368  23.070  44.792   3.269
61425W        W25369  22.576  23.009  11.101
61426W        W25370  23.171  13.833  14.825
61427W        W25371  18.234  44.362   0.927
61428W        W25372  38.435  16.572   2.898
61429W        W25373  41.875  16.315  14.936
61430W        W25374   5.832  37.339  10.517
61431W        W25375  13.764  38.927   2.283
61432W        W25376  30.055  27.069   3.784
61433W        W25377  39.829  29.076   1.830
61434W        W25378   6.324   7.255  14.413
61435W        W25379  22.141   2.264  11.386
61436W        W25380   5.247   0.930   1.356
61437W        W25381  42.310  20.043   0.375
61438W        W25382  25.998  41.968   0.816
61439W        W25383   2.352  35.467  13.508
61440W        W25384  40.533  26.988  11.099
61441W        W25385  33.404  19.126  14.899
61442W        W25386  24.648  30.057   0.779
61443W        W25387  36.039  35.403  13.018
61444W        W25388   3.274  13.108   1.251
61445W        W25389  13.621  26.969   3.269
61446W        W25390  20.146  31.589  12.571
61447W        W25391  26.461  41.043   3.707
61448W        W25392  43.305  19.040  11.447
61449W        W25393   7.845  30.532   5.267
61450W        W25394  18.546  10.160   0.283
61451W        W25395  12.628  19.159   0.793
61452W        W25396   9.723   6.783   1.275
61453W        W25397  38.843  43.444  14.794
61454W        W25398   0.813   2.937   0.355
61455W        W25399  14.212  39.432  10.599
61456W        W25400  11.199   9.261  14.327
61457W        W25401  32.900  29.572   3.763
61458W        W25402  27.545   4.936  14.341
61459W        W25403  33.926   6.740   1.880
61460W        W25404  32.960   8.787   0.805
61461W        W25405  33.619  16.595   4.835
61462W        W25406  32.459  28.463  11.533
61463W        W25407   2.944  29.493   0.377
61464W        W25408  37.082  44.799   3.365
61465W        W25409  33.031   3.805   1.827
61466W        W25410   6.342  28.130  11.420
61467W        W25411  31.043  42.375   1.283
61468W        W25412  26.619  34.939  12.073
61469W        W25413  32.126  31.117   5.105
61470W        W25414   1.239   5.789  14.863
61471W        W25415  19.596  42.295  11.983
61472W        W25416  39.946   7.747  14.895
61473W        W25417  34.894  28.538  11.456
61474W        W25418  19.600   8.249   2.835
61475W        W25419  16.643  28.001   1.293
61476W        W25420  27.466  20.196  14.904
61477W        W25421  41.437  15.705  11.552
61478W        W25422  16.178   4.830  12.398
61479W        W25423  42.833  29.936  10.504
61480W        W25424  22.645  31.498  11.056
61481W        W25425  15.110  43.509  14.450
61482W        W25426   4.704  38.454   9.937
61483W        W25427   3.946  41.519   0.948
61484W        W25428  31.533  24.189  11.507
61485W        W25429  21.100  38.466   0.935
61486W        W25430  40.304   1.439   3.697
61487W        W25431   0.792  43.831   1.932
61488W        W25432  16.767  22.743  14.407
61489W        W25433  22.043   2.856  12.349
61490W        W25434  31.985  41.424  10.484
61491W        W25435  10.757  20.660   1.905
61492W        W25436   3.811   7.832   0.965
61493W        W25437  39.868   0.375   4.161
61494W        W25438  39.403  30.564  11.473
61495W        W25439  37.957  19.044  13.838
61496W        W25440  29.925  43.015  11.386
61497W        W25441  14.315  14.232   0.350
61498W        W25442   6.746  12.262  13.792
61499W        W25443  23.136  34.000  13.348
61500W        W25444  22.658  41.789   1.774
61501W        W25445  36.059  25.470  12.830
61502W        W25446  21.135  25.630   3.687
61503W        W25447  16.757  20.568  12.576
61504W        W25448  11.692  39.892   4.178
61505W        W25449  11.351   8.385  11.898
61506W        W25450  11.822   1.283  11.578
61507W        W25451  36.355  34.944  11.045
61508W        W25452  42.884   6.799   1.828
61509W        W25453  21.621  37.860  11.986
61510W        W25454  18.149  41.934   4.291
61511W        W25455   0.952  22.507  13.510
61512W        W25456  18.115  29.064   2.742
61513W        W25457  18.231  11.832   4.251
61514W        W25458  30.426  31.086   0.787
61515W        W25459  37.389  16.227  14.475
61516W        W25460   0.951  10.336   3.365
61517W        W25461  34.397  12.668  13.792
61518W        W25462  44.484  18.120   9.950
61519W        W25463  22.230  27.552   0.756
61520W        W25464  21.202  20.153   1.840
61521W        W25465  25.612  12.321   4.260
61522W        W25466  29.600  28.957   0.318
61523W        W25467  15.132  35.596  10.962
61524W        W25468  18.742  37.365   0.286
61525W        W25469   0.332  30.529  13.370
61526W        W25470   4.770  14.258  13.860
61527W        W25471  31.116  18.708  14.375
61528W        W25472  38.327  12.234  14.025
61529W        W25473  40.315  14.769  11.899
61530W        W25474  24.151  35.922   2.729
61531W        W25475  26.496  29.578   4.607
61532W        W25476  28.181  14.677  13.957
61533W        W25477  10.246  32.462  10.429
61534W        W25478  44.417  18.712   4.809
61535W        W25479   7.828  16.677  14.969
61536W        W25480  21.035   5.867   2.286
61537W        W25481  38.948  11.207  13.839
61538W        W25482  11.814   3.786   2.776
61539W        W25483  23.217  31.646  13.822
61540W        W25484  30.619  35.967  11.529
61541W        W25485   5.765  17.283   4.772
61542W        W25486  29.973  19.124   3.692
61543W        W25487   0.786  28.457   3.836
61544W        W25488   6.863  17.566   2.370
61545W        W25489  30.453  30.099   1.341
61546W        W25490  15.240  22.566   2.258
61547W        W25491  18.732  44.928  11.422
61548W        W25492  21.657  32.005   0.800
61549W        W25493  42.807  24.039   3.711
61550W        W25494  27.182   7.312   2.224
61551W        W25495   3.772  38.507   2.266
61552W        W25496   2.392  16.146   2.737
61553W        W25497   9.233  34.511  14.350
61554W        W25498  42.303  43.455  14.796
61555W        W25499  29.492  43.367  12.502
61556W        W25500  29.455  44.986   0.386
61557W        W25501  15.229  37.005   1.770
61558W        W25502  36.576  29.569   4.336
61559W        W25503  39.946  24.639  10.637
61560W        W25504  25.202  16.768   3.712
61561W        W25505   5.283   5.245  10.612
61562W        W25506   3.349  15.687  11.061
61563W        W25507  22.712  32.438   3.653
61564W        W25508  18.653  22.660   3.659
61565W        W25509  10.196  29.515   3.781
61566W        W25510  31.097  41.445  10.033
61567W        W25511  44.935  24.064   0.367
61568W        W25512  22.242  22.016  13.502
61569W        W25513  31.935  39.530  13.028
61570W        W25514  24.084  15.241   0.439
61571W        W25515   3.792  32.542  10.923
61572W        W25516  27.024  42.390  12.004
61573W        W25517   2.267  14.327  12.039
61574W        W25518   2.324  10.706  12.014
61575W        W25519   4.257  11.214  13.447
61576W        W25520  40.011  36.094   0.786
61577W        W25521  22.624  18.775  13.825
61578W        W25522   8.827  13.753  12.941
61579W        W25523  12.315  14.288  14.826
61580W        W25524  42.442  26.681  12.939
61581W        W25525  38.897   7.880  14.279
61582W        W25526  38.033   1.748  10.467
61583W        W25527   9.357  13.173  12.542
61584W        W25528  30.117  22.099  12.930
61585W        W25529   5.846  19.207  12.974
61586W        W25530  41.882  17.635   1.769
61587W        W25531  10.257  24.515   4.610
61588W        W25532  21.529  36.879   1.804
61589W        W25533  33.589  14.304  13.393
61590W        W25534  11.200   5.255   4.123
61591W        W25535   5.752  42.827   4.243
61592W        W25536  17.662  19.075   4.794
61593W        W25537  15.712  44.301  10.512
61594W        W25538  32.031  23.685  11.896
61595W        W25539   2.453  16.691  14.812
61596W        W25540  27.510  34.604  14.836
61597W        W25541  35.936  41.962   3.236
61598W        W25542   3.733  35.975   1.837
61599W        W25543  16.674  20.743  14.405
61600W        W25544  32.565  32.139  13.885
61601W        W25545  31.434  11.790  14.373
61602W        W25546  15.616  34.934   0.323
61603W        W25547  27.570   0.746   4.609
61604W        W25548  23.556  36.527  11.082
61605W        W25549  44.331  12.133  14.509
61606W        W25550  43.442  12.628   3.664
61607W        W25551  15.097   2.722   4.663
61608W        W25552  21.137  26.551  12.073
61609W        W25553  31.149   4.418   3.847
61610W        W25554  17.630  31.463  11.035
61611W        W25555  36.370  35.992  14.997
61612W        W25556   2.226  22.162   1.393
61613W        W25557  14.197  26.626  11.890
61614W        W25558  38.067  11.314   4.651
61615W        W25559  36.950  33.617  14.892
61616W        W25560  32.416  34.487  14.973
61617W        W25561   6.720  35.591  12.890
61618W        W25562  18.064  44.862   1.908
61619W        W25563   8.822  20.750   2.900
61620W        W25564   8.699   3.819   1.412
61621W        W25565  17.611   6.884   3.717
61622W        W25566  26.060  41.937  10.544
61623W        W25567  16.700  13.341   3.146
61624W        W25568  35.025  36.879   4.142
61625W        W25569  19.181  25.993  13.512
61626W        W25570  17.739  32.411   0.872
61627W        W25571  30.488  13.688   1.265
61628W        W25572   0.826  36.930  14.461
61629W        W25573  34.050   1.373   0.879
61630W        W25574  10.205  32.925   0.255
61631W        W25575  31.440  35.562   2.397
61632W        W25576  10.833  38.950   2.850
61633W        W25577  34.956  22.645   5.240
61634W        W25578  11.655   4.936   3.688
61635W        W25579  33.414  37.051   2.389
61636W        W25580  35.574   5.256  12.024
61637W        W25581  40.032  36.067   1.407
61638W        W25582  31.458  27.599  13.326
61639W        W25583  30.518   1.339  11.983
61640W        W25584  43.478  35.389  12.938
61641W        W25585  32.139  28.472  10.412
61642W        W25586  39.860  22.210   0.429
61643W        W25587   0.774  44.340   3.715
61644W        W25588   0.475  28.007  14.400
61645W        W25589  11.866  14.094  14.467
61646W        W25590  33.085  43.826  10.444
61647W        W25591  12.150  21.151   2.315
61648W        W25592  16.620  32.564  11.468
61649W        W25593  30.976   7.669   1.815
61650W        W25594  13.671  31.637   0.758
61651W        W25595   3.851   4.365  13.861
61652W        W25596  21.541  37.059  11.412
61653W        W25597  18.618  30.034   3.290
61654W        W25598  34.482  14.764   1.739
61655W        W25599   0.775  39.504   0.826
61656W        W25600  41.907   9.349  14.443
61657W        W25601  21.522  29.556  12.987
61658W        W25602  35.869  25.493  12.023
61659W        W25603  44.001  15.750  11.524
61660W        W25604   2.759  17.613  14.417
61661W        W25605  21.117  40.509  12.471
61662W        W25606  27.470  21.245   2.890
61663W        W25607  30.022   0.267   2.198
61664W        W25608  17.077  44.279   5.138
61665W        W25609   9.268  21.628   0.297
61666W        W25610   3.312  32.475   1.302
61667W        W25611  29.437   4.865  12.452
61668W        W25612  37.405  10.235  14.431
61669W        W25613   9.218  19.147   1.309
61670W        W25614  41.993  34.550  11.455
61671W        W25615   7.373   6.377  11.600
61672W        W25616  14.095  17.601  12.439
61673W        W25617   6.296  11.322  14.302
61674W        W25618  18.786  16.695  12.931
61675W        W25619   3.371   4.337   3.671
61676W        W25620  30.647  22.226   2.340
61677W        W25621   4.316  38.484   0.281
61678W        W25622  28.138  20.723  10.563
61679W        W25623  33.044   9.156   3.233
61680W        W25624  36.431  13.691  12.047
61681W        W25625   0.897   1.804   4.253
61682W        W25626  13.330  27.125   1.748
61683W        W25627  12.810  37.476   2.807
61684W        W25628  36.351  40.970   2.226
61685W        W25629   6.830   9.731   4.279
61686W        W25630  40.965  12.684  10.921
61687W        W25631  38.016  24.094  11.973
61688W        W25632  17.200  34.560   2.311
61689W        W25633   3.814  23.689   1.875
61690W        W25634  26.011  21.220   0.473
61691W        W25635  26.103  24.560   2.896
61692W        W25636  26.080  23.518   4.245
61693W        W25637   3.461  26.631  14.375
61694W        W25638   5.732  20.666  12.864
61695W        W25639  41.347  30.099  13.308
61696W        W25640   9.351   6.368  10.894
61697W        W25641  30.142  19.100   0.303
61698W        W25642   7.765  35.464  13.839
61699W        W25643  11.796   1.743   3.151
61700W        W25644  10.159  38.413   2.706
61701W        W25645  34.561  24.022  12.375
61702W        W25646  15.327  12.800   3.812
61703W        W25647  14.175  42.308   2.743
61704W        W25648  28.055  32.428  13.856
61705W        W25649  30.507  38.332  11.999
61706W        W25650  38.861  32.011  14.001
61707W        W25651  11.332  38.377   4.154
61708W        W25652  21.639   1.320   0.372
61709W        W25653  13.191   2.473  11.441
61710W        W25654  17.686  29.965   0.930
61711W        W25655  16.312  28.062  13.039
61712W        W25656  27.051  14.190   3.829
61713W        W25657  23.984  41.989  10.477
61714W        W25658  38.035  30.123  10.945
61715W        W25659   6.806   5.782   1.922
61716W        W25660  37.502  24.136  11.485
61717W        W25661  13.622  39.536   3.246
61718W        W25662  26.693   1.860   0.761
61719W        W25663  20.166  43.979  14.483
61720W        W25664   4.769  38.842  13.992
61721W        W25665  29.440  35.925   0.809
61722W        W25666  12.757  23.143  10.556
61723W        W25667  18.273  19.763   3.689
61724W        W25668  43.374  20.121   2.181
61725W        W25669  43.864  40.391  13.356
61726W        W25670  42.971  40.982   4.178
61727W        W25671  28.671  39.831   1.757
61728W        W25672  43.845  22.713  11.917
61729W        W25673  33.071  33.515   1.223
61730W        W25674  36.991  15.327   0.945
61731W        W25675  40.950   1.823   2.344
61732W        W25676  18.078  36.929  13.052
61733W        W25677  13.671  22.670  12.084
61734W        W25678   6.842  34.520  14.818
61735W        W25679   5.754  13.706   0.350
61736W        W25680  40.438  35.464   2.293
61737W        W25681  36.915  27.481  12.880
61738W        W25682  30.920   7.279   0.831
61739W        W25683   6.916  43.779  14.511
61740W        W25684  24.708   4.924   0.454
61741W        W25685  15.593  11.677   2.675
61742W        W25686  26.653  21.125   4.322
61743W        W25687  21.207   4.212   4.219
61744W        W25688  44.911  32.428   0.254
61745W        W25689   3.405  27.068  12.941
61746W        W25690  23.161   4.890   3.206
61747W        W25691  42.418   9.713  12.577
61748W        W25692  44.274  22.526   1.911
61749W        W25693   0.921   4.940   0.266
61750W        W25694  28.938  34.036   4.172
61751W        W25695   6.223  42.332   2.886
61752W        W25696  42.915  38.988   1.801
61753W        W25697  11.657  29.597   3.739
61754W        W25698  20.111  12.855   3.865
61755W        W25699  44.928  21.711   2.741
61756W        W25700  34.586  22.033   3.262
61757W        W25701   7.388  16.799  10.902
61758W        W25702  21.717  22.673   1.276
61759W        W25703  27.043  15.724   2.808
61760W        W25704  18.748  36.869   1.293
61761W        W25705   6.221  10.666  14.016
61762W        W25706  35.012  26.680  11.387
61763W        W25707  12.787  13.238  13.972
61764W        W25708  34.943  24.205   4.350
61765W        W25709   0.427  18.223   2.311
61766W        W25710  17.178  12.677  12.473
61767W        W25711  31.106   2.376  12.971
61768W        W25712  11.215  42.483   0.312
61769W        W25713  40.885   9.861   1.879
61770W        W25714  23.708  20.533  12.522
61771W        W25715  18.651  19.195   4.758
61772W        W25716  28.084  21.543   3.731
61773W        W25717  43.299  26.007  11.473
61774W        W25718  40.920   2.282  11.375
61775W        W25719  11.727   7.334   3.659
61776W        W25720  21.190   9.360  11.477
61777W        W25721  36.471  16.776  14.928
61778W        W25722  28.986  18.594  11.476
61779W        W25723  42.812   5.848   1.309
61780W        W25724   1.831  42.487  14.401
61781W        W25725  28.157  25.636  14.333
61782W        W25726  40.982  17.270   3.309
61783W        W25727  29.065  41.459   5.260
61784W        W25728  14.127  29.656  10.412
61785W        W25729  30.911  41.874  12.372
61786W        W25730  34.077  41.863  13.547
61787W        W25731  42.936  28.605  12.823
61788W        W25732  27.633  20.172  13.540
61789W        W25733  11.336  23.648  11.916
61790W        W25734  26.116   3.314   3.148
61791W        W25735  17.796  27.476  13.010
61792W        W25736  17.748  40.946  11.983
61793W        W25737   7.721  43.493  10.499
61794W        W25738   8.242  19.161   4.742
61795W        W25739  32.935  24.700   1.787
61796W        W25740   2.246   6.368   3.755
61797W        W25741  21.078  42.804  14.334
61798W        W25742  11.650  39.984  12.431
61799W        W25743  24.608   9.705   3.315
61800W        W25744   1.477  31.459  10.510
61801W        W25745  20.530  22.132  11.031
61802W        W25746  28.018  22.598  11.859
61803W        W25747  31.526  40.928   3.264
61804W        W25748  33.049  25.114   4.156
61805W        W25749  26.686   5.364   3.371
61806W        W25750  44.316  34.554  13.874
61807W        W25751  33.471  30.955   1.215
61808W        W25752   8.404  21.261  13.904
61809W        W25753  35.971  35.465   1.236
61810W        W25754  24.000  29.521   0.429
61811W        W25755  35.086  23.650   4.725
61812W        W25756  31.132  35.914  12.545
61813W        W25757  40.889  37.446   4.269
61814W        W25758   9.883  38.011  12.842
61815W        W25759  41.362  25.075  11.003
61816W        W25760  28.969  13.234   2.794
61817W        W25761  21.528   8.799   0.765
61818W        W25762  25.096   8.228  11.545
61819W        W25763  40.819   1.286   4.633
61820W        W25764   4.319  38.472   3.688
61821W        W25765   9.831  26.463   0.271
61822W        W25766  12.806  39.814  12.480
61823W        W25767  23.042  36.429  14.816
61824W        W25768  37.463  27.500  12.567
61825W        W25769  43.429  31.121  13.520
61826W        W25770  38.982  20.045   1.443
61827W        W25771  39.960  41.951  14.948
61828W        W25772  30.920  15.774  12.959
61829W        W25773  34.002   8.283   2.315
61830W        W25774  18.645  10.212  12.917
61831W        W25775  30.003  40.805   0.315
61832W        W25776   8.798  36.847  10.589
61833W        W25777   6.831  42.416   3.383
61834W        W25778  16.261  38.559   4.832
61835W        W25779  14.786  12.849  12.931
61836W        W25780   1.967  24.586   2.763
61837W        W25781  24.074  34.572  12.358
61838W        W25782  29.044  40.880  13.526
61839W        W25783  39.993   3.289   9.657
61840W        W25784  29.050  33.567   1.900
61841W        W25785  10.286  32.601  13.836
61842W        W25786  26.567  18.758   1.845
61843W        W25787   5.232  34.404   3.644
61844W        W25788  37.864  29.166   4.238
61845W        W25789   0.284  35.995  13.007
61846W        W25790  20.166  23.221  13.939
61847W        W25791   0.388  18.590   1.824
61848W        W25792   4.735   4.319  14.945
61849W        W25793  12.612  35.382  13.526
61850W        W25794   0.430  15.731  13.881
61851W        W25795  27.616  23.203   2.719
61852W        W25796  11.829  36.408  14.398
61853W        W25797  36.858  38.016   0.280
61854W        W25798  41.805  44.366  11.448
61855W        W25799  38.056  43.800  10.907
61856W        W25800  26.556   3.843   2.740
61857W        W25801  44.469  26.992   1.916
61858W        W25802  24.583   9.270  10.939
61859W        W25803  29.558  10.253  11.051
61860W        W25804  27.106  33.490   1.289
61861W        W25805  39.343   5.919   2.708
61862W        W25806  20.147  27.549   1.915
61863W        W25807   7.219  24.075  11.889
61864W        W25808  41.796  33.475  10.599
61865W        W25809  28.033  23.551  13.846
61866W        W25810  29.100  40.004   0.459
61867W        W25811  13.832  27.492   3.760
61868W        W25812  27.188  18.281  11.513
61869W        W25813  33.411  33.585   5.206
61870W        W25814   6.343  35.855   0.479
61871W        W25815  30.440  15.770  14.975
61872W        W25816  10.274  29.619  14.027
61873W        W25817  21.051  15.233   1.303
61874W        W25818  42.316  44.357  12.404
61875W        W25819  31.481  26.561   0.419
61876W        W25820  29.633  26.604  12.501
61877W        W25821  23.985   0.372   3.734
61878W        W25822  12.226  37.941   4.219
61879W        W25823  14.810  14.233  12.379
61880W        W25824  20.115  41.490   4.197
61881W        W25825  38.990   1.851   0.823
61882W        W25826  40.986   6.416   4.662
61883W        W25827  28.956  25.065  10.461
61884W        W25828  26.097  14.677  12.419
61885W        W25829  23.615   2.895   4.258
61886W        W25830  10.296  30.606  11.942
61887W        W25831  33.075  43.491   2.822
61888W        W25832  34.000  19.564   3.748
61889W        W25833  11.756  16.644   4.731
61890W        W25834  22.655   3.851   2.858
61891W        W25835   9.724  14.176   4.811
61892W        W25836  11.731  30.067   2.875
61893W        W25837  18.560  23.012   4.144
61894W        W25838  37.905  28.556  11.044
61895W        W25839  12.629  10.716  12.093
61896W        W25840  22.152  33.990  13.927
61897W        W25841  43.829  40.320   3.638
61898W        W25842  38.428  39.560   4.281
61899W        W25843  30.606  19.768   4.303
61900W        W25844  32.029   8.186  12.888
61901W        W25845  39.842   6.272  10.928
61902W        W25846   0.378   1.874   3.187
61903W        W25847  27.540   5.737   0.882
61904W        W25848  42.335  13.226  14.465
61905W        W25849  38.030  44.009  11.454
61906W        W25850   6.746   7.810  11.452
61907W        W25851  13.622   5.265  12.836
61908W        W25852  42.780  23.207   2.665
61909W        W25853  33.539  35.602   3.811
61910W        W25854  16.782  10.760  10.435
61911W        W25855  25.004  34.387  13.476
61912W        W25856  40.973  11.261  10.936
61913W        W25857  14.178  15.682  11.452
61914W        W25858  21.057  41.453  14.914
61915W        W25859  31.455   4.777  14.031
61916W        W25860  15.724   1.978  14.495
61917W        W25861  30.482  23.661   0.939
61918W        W25862  39.528  32.498   4.656
61919W        W25863  17.098   3.874   1.275
61920W        W25864  33.572   0.432  10.437
61921W        W25865   3.776  12.845  13.992
61922W        W25866   1.827  38.819  11.048
61923W        W25867   2.380  38.333   3.855
61924W        W25868  39.045   8.252  10.025
61925W        W25869   4.420  18.573  11.037
61926W        W25870  36.843  40.543  10.605
61927W        W25871  31.102  31.982   0.302
61928W        W25872  34.472  36.935  12.518
61929W        W25873   0.336  11.349  13.060
61930W        W25874  13.717  11.659   3.156
61931W        W25875  38.386  25.634   1.423
61932W        W25876  40.864  19.126   2.310
61933W        W25877  16.252   1.292  13.844
61934W        W25878  24.719  24.649   3.732
61935W        W25879  28.111  40.883  12.379
61936W        W25880  36.408  10.846  13.898
61937W        W25881   6.267  23.632  14.817
61938W        W25882  41.012  22.648  11.011
61939W        W25883  28.624  23.718   4.680
61940W        W25884  30.004  13.610   1.266
61941W        W25885  27.650  27.681   0.380
61942W        W25886  16.695   3.947   1.283
61943W        W25887  33.006  33.887   3.752
61944W        W25888  37.856  44.294   0.799
61945W        W25889  16.073   6.900  11.946
61946W        W25890   6.688  20.159   0.311
61947W        W25891  30.509  29.574   1.797
61948W        W25892  42.333  20.181  10.485
61949W        W25893  22.528  23.728  13.317
61950W        W25894  22.595  10.712  11.485
61951W        W25895  31.077   5.279  11.604
61952W        W25896  44.768  17.559   2.280
61953W        W25897  32.486  41.354   3.258
61954W        W25898  38.956  24.587  14.469
61955W        W25899   4.805  36.894  11.935
61956W        W25900  43.827  41.350   1.761
61957W        W25901   8.172  23.999   2.728
61958W        W25902  13.695  13.603  14.328
61959W        W25903  19.256  26.001   0.400
61960W        W25904  19.558   8.697   2.388
61961W        W25905  23.005  31.111  12.081
61962W        W25906  28.625  22.094  13.012
61963W        W25907   5.352  18.680   1.908
61964W        W25908  40.983  38.443  12.567
61965W        W25909  24.216  25.040  12.832
61966W        W25910   2.838   6.712   1.256
61967W        W25911  18.206   9.794  14.992
61968W        W25912  30.942  14.635  10.914
61969W        W25913  35.086   4.791   2.191
61970W        W25914  12.700  22.648  11.933
61971W        W25915  44.309  44.447  14.483
61972W        W25916   3.955  23.148   1.395
61973W        W25917  39.849  27.545  14.513
61974W        W25918  17.743   4.766   3.228
61975W        W25919  22.110  32.030  11.017
61976W        W25920   6.256  26.150  11.553
61977W        W25921  28.458   3.396   2.302
61978W        W25922  26.139  13.196   4.230
61979W        W25923   3.799  41.969  12.989
61980W        W25924  11.332  20.223   4.333
61981W        W25925   5.908  26.687   1.418
61982W        W25926  33.098   2.291   3.372
61983W        W25927  43.433  13.210   1.433
61984W        W25928  40.821  44.470   2.744
61985W        W25929  25.989  35.932   4.787
61986W        W25930  29.089  38.853  10.644
61987W        W25931  42.940  39.452  12.570
61988W        W25932  33.123  35.587   0.414
61989W        W25933  36.047  28.649  11.869
61990W        W25934  15.755  32.998  11.448
61991W        W25935  18.715  26.671   0.941
61992W        W25936  14.173  38.413  10.473
61993W        W25937  13.240  16.118   4.168
61994W        W25938  15.127  36.518  11.579
61995W        W25939  30.657  15.709  11.399
61996W        W25940  30.589  20.533  14.952
61997W        W25941  28.988   0.261  12.376
61998W        W25942  38.532   2.821   1.226
61999W        W25943  25.596  30.031  13.988
62000W        W25944   6.836  22.134   1.747
62001W        W25945  43.328  24.180   0.785
62002W        W25946  14.622  22.032  14.954
62003W        W25947   6.294  38.430  11.915
62004W        W25948  32.003  13.712   0.854
62005W        W25949  29.557  42.918  12.428
62006W        W25950  33.100  28.465  14.287
62007W        W25951  29.124  37.388  11.599
62008W        W25952  44.831   3.276   9.930
62009W        W25953  37.983  26.491  10.568
62010W        W25954   7.883  22.216   1.235
62011W        W25955  11.767  21.263   5.134
62012W        W25956  25.197   2.821  11.424
62013W        W25957  32.537  42.994   4.132
62014W        W25958  14.649  23.605   0.440
62015W        W25959   2.348  19.723   1.903
62016W        W25960  38.037  38.860   0.377
62017W        W25961  17.100  22.228   4.823
62018W        W25962  15.100  17.095  12.988
62019W        W25963  38.827   5.286  11.033
62020W        W25964  38.820   7.902   1.825
62021W        W25965  10.645  24.642   4.735
62022W        W25966  19.563  38.029  11.945
62023W        W25967  33.612  36.842  14.435
62024W        W25968  38.938   7.824   2.290
62025W        W25969  13.774  23.672   4.170
62026W        W25970  29.962  13.141   2.736
62027W        W25971  11.266  25.004   1.850
62028W        W25972  37.502  22.107  14.451
62029W        W25973  13.113  38.040  10.926
62030W        W25974  39.423  23.039  14.903
62031W        W25975  26.115  26.181  10.493
62032W        W25976   0.290  38.014   3.380
62033W        W25977  32.533  11.638   3.699
62034W        W25978   0.839  11.780  10.154
62035W        W25979   1.272  37.410  11.126
62036W        W25980   6.682  25.529   1.709
62037W        W25981  42.318  40.954   0.855
62038W        W25982  22.060  19.750  14.503
62039W        W25983   4.283  36.972   1.424
62040W        W25984  28.949  29.172  11.430
62041W        W25985  19.758  17.687  12.093
62042W        W25986  15.099  28.440   0.743
62043W        W25987  28.980  29.947   3.726
62044W        W25988  17.617  27.103  12.550
62045W        W25989  43.828   0.293  13.414
62046W        W25990  33.050  44.305  14.958
62047W        W25991  24.065   8.685  11.121
62048W        W25992  36.556   5.933  13.309
62049W        W25993  35.070  32.397   4.820
62050W        W25994  21.102  33.570   2.369
62051W        W25995  16.689  39.322   3.677
62052W        W25996   9.755   0.364  13.496
62053W        W25997  23.716  39.031   1.305
62054W        W25998  25.622  31.112   4.231
62055W        W25999  29.004  19.586   2.871
62056W        W26000   6.709  27.663   1.293
62057W        W26001  17.677  19.728  13.410
62058W        W26002   4.794  38.021  14.286
62059W        W26003  24.685  11.731   4.608
62060W        W26004  43.948  41.323  14.504
62061W        W26005  25.088  14.242   0.833
62062W        W26006   0.354  39.501  12.954
62063W        W26007  22.220   6.289   1.359
62064W        W26008   3.786  11.696  11.867
62065W        W26009  35.547  43.971  11.390
62066W        W26010  28.174  21.182  10.099
62067W        W26011  30.441  35.449   2.708
62068W        W26012  12.836  17.075   4.770
62069W        W26013   4.340   4.366   3.304
62070W        W26014   9.887  21.134   1.862
62071W        W26015   2.455  30.002  10.622
62072W        W26016  12.795  16.609   1.304
62073W        W26017   4.881  36.547   2.276
62074W        W26018  34.459  13.739   1.323
62075W        W26019  23.555   7.195  11.029
62076W        W26020  41.000  12.348  14.365
62077W        W26021  36.384  27.576   1.764
62078W        W26022  27.488  14.632   3.716
62079W        W26023  17.590  18.068  11.038
62080W        W26024  11.677   2.938  11.599
62081W        W26025  24.048  43.934   1.234
62082W        W26026  19.612  10.871   0.914
62083W        W26027  15.614  24.128  11.428
62084W        W26028  29.155  21.201  10.991
62085W        W26029   0.354  27.583  11.908
62086W        W26030  29.664  33.120  10.467
62087W        W26031  44.268  10.726  10.964
62088W        W26032   0.440   8.742   5.650
62089W        W26033   9.255  31.077   1.817
62090W        W26034  25.705  25.009  12.549
62091W        W26035   4.814  13.238   4.688
62092W        W26036  33.023  44.403   0.256
62093W        W26037  29.600   2.373  12.352
62094W        W26038  41.316  33.958  11.058
62095W        W26039  24.081  12.716   1.260
62096W        W26040  41.375  32.571   2.839
62097W        W26041  39.812  10.678  14.847
62098W        W26042   5.397  37.582  14.766
62099W        W26043   2.249  37.517  11.979
62100W        W26044  42.443  36.857  14.988
62101W        W26045  11.299  19.050  13.395
62102W        W26046  10.827  34.914   2.213
62103W        W26047  10.190  30.609   2.335
62104W        W26048  13.840   4.732  11.957
62105W        W26049  15.129   3.757   4.225
62106W        W26050  15.319   4.233  14.970
62107W        W26051  29.138  10.178   1.373
62108W        W26052   7.851  19.177  10.498
62109W        W26053  20.680   8.323  13.998
62110W        W26054  32.489  40.923  12.579
62111W        W26055  38.378  21.647   4.265
62112W        W26056  33.054  17.749   0.784
62113W        W26057  15.213  26.556   5.238
62114W        W26058  30.161  18.254  14.004
62115W        W26059  19.234  26.583   0.432
62116W        W26060  28.161  33.548   4.146
62117W        W26061   1.240  42.011  11.569
62118W        W26062  43.808   5.416   2.363
62119W        W26063   5.889  27.078   2.851
62120W        W26064  10.728  33.117   3.841
62121W        W26065   2.733  28.465  10.988
62122W        W26066   6.383  21.701  13.838
62123W        W26067   1.269  12.220   4.163
62124W        W26068  36.466  25.138   0.369
62125W        W26069   7.360   6.872  14.487
62126W        W26070   6.190   0.946   0.860
62127W        W26071  25.992  41.403  11.940
62128W        W26072  29.972   3.849  13.352
62129W        W26073  35.916  27.182   0.443
62130W        W26074  35.107  13.623  11.504
62131W        W26075  19.589  30.962   0.960
62132W        W26076  33.879  28.623   2.726
62133W        W26077  29.982   1.404   3.699
62134W        W26078  43.978   8.353  11.523
62135W        W26079  13.706   3.741  11.105
62136W        W26080   2.955  41.989  13.533
62137W        W26081  30.137  30.117  11.894
62138W        W26082   7.339  33.613  13.816
62139W        W26083  24.208  26.010  12.884
62140W        W26084   2.738  19.065   4.115
62141W        W26085  34.879  29.136   5.289
62142W        W26086  38.987   2.775   4.160
62143W        W26087  20.234  17.173  11.886
62144W        W26088  19.277   2.247   3.735
62145W        W26089  26.543  28.465  13.869
62146W        W26090   6.247  23.062   4.290
62147W        W26091  28.563  40.328  11.116
62148W        W26092  21.017  39.826  12.880
62149W        W26093  37.853  35.881  10.519
62150W        W26094  30.910  39.840   1.359
62151W        W26095  30.953  30.528   3.828
62152W        W26096  29.919  17.283   4.152
62153W        W26097   8.817  16.257  12.406
62154W        W26098   1.258  31.602  11.896
62155W        W26099  12.276  41.992   2.375
62156W        W26100  42.829  42.857   3.800
62157W        W26101  31.116  36.083   1.363
62158W        W26102  32.444   1.305   4.115
62159W        W26103  19.652  41.304   1.756
62160W        W26104  10.861  41.298   4.745
62161W        W26105  13.604  34.558  11.065
62162W        W26106   6.685  29.000   9.467
62163W        W26107  39.498  10.244   4.765
62164W        W26108  37.025  39.871  14.342
62165W        W26109  38.980  16.767  11.860
62166W        W26110  35.515  14.795   3.679
62167W        W26111  24.137  25.624  13.328
62168W        W26112   9.655  23.122   4.225
62169W        W26113  26.081  40.047  14.847
62170W        W26114  25.607  12.232  10.429
62171W        W26115   4.395  25.109  10.458
62172W        W26116  34.568  33.986  12.425
62173W        W26117   6.204  13.837  13.468
62174W        W26118  41.926  30.093  14.380
62175W        W26119  28.456  24.014   2.354
62176W        W26120   2.935   2.370   1.423
62177W        W26121   1.787  34.878  12.368
62178W        W26122  44.853  12.614   3.741
62179W        W26123  23.682  42.852  12.092
62180W        W26124   0.858  44.365  10.151
62181W        W26125   5.350  40.338   4.337
62182W        W26126  43.468   2.385  13.855
62183W        W26127  38.066  43.498  10.565
62184W        W26128   3.764  26.963   3.712
62185W        W26129  40.441  41.998   1.934
62186W        W26130   6.202  24.569   3.870
62187W        W26131  21.040  27.688  10.981
62188W        W26132  24.979  12.746  11.948
62189W        W26133   1.800  33.427  11.425
62190W        W26134  41.007  32.901  10.472
62191W        W26135  17.289  34.598   0.962
62192W        W26136  42.777  44.844   3.155
62193W        W26137  25.137  21.116  14.000
62194W        W26138  15.185  25.207   3.269
62195W        W26139  44.259  44.307  11.490
62196W        W26140  43.404  19.058  11.906
62197W        W26141  18.634  22.099  12.992
62198W        W26142   8.722   0.774  10.491
62199W        W26143  10.382  36.540  12.845
62200W        W26144  32.555  15.305   4.614
62201W        W26145  31.920  34.378  11.494
62202W        W26146   7.910  19.075  11.446
62203W        W26147   0.436  39.064  14.866
62204W        W26148  36.851  32.931  13.005
62205W        W26149  41.872   9.756   4.349
62206W        W26150  26.067  40.499  14.413
62207W        W26151  15.682   7.909  12.096
62208W        W26152  21.669  41.335   2.848
62209W        W26153  23.139  40.935  11.076
62210W        W26154  35.378  32.925  13.886
62211W        W26155  11.816  31.103   5.315
62212W        W26156  14.805  35.451  11.091
62213W        W26157  31.927   1.394  13.466
62214W        W26158   9.152  24.503  11.024
62215W        W26159  37.877  14.181  13.313
62216W        W26160  39.403   8.847  11.431
62217W        W26161  38.055  10.218   1.865
62218W        W26162  16.630  18.758  10.926
62219W        W26163  13.612  20.573   2.309
62220W        W26164   2.943  30.589  13.385
62221W        W26165  24.083  19.279   1.237
62222W        W26166   3.356   2.965   4.210
62223W        W26167  43.985  23.570   4.787
62224W        W26168  19.176   5.765  11.607
62225W        W26169  29.438  32.560   1.862
62226W        W26170  35.367   6.205   3.299
62227W        W26171   1.809  12.328   4.819
62228W        W26172  26.546  40.031   0.934
62229W        W26173  23.084  13.276   2.194
62230W        W26174  27.124  28.572   4.237
62231W        W26175  15.581   5.293   4.600
62232W        W26176  34.504  41.926   3.704
62233W        W26177  42.371  15.239   1.815
62234W        W26178  30.513  44.770  13.826
62235W        W26179  37.527  44.381  11.498
62236W        W26180  35.012   6.186  10.964
62237W        W26181  44.297  14.333   3.290
62238W        W26182   5.709  21.235   4.660
62239W        W26183  41.823   3.315   5.235
62240W        W26184  43.270  44.384  13.969
62241W        W26185  32.021  44.994   4.754
62242W        W26186  39.979  27.559   1.857
62243W        W26187  21.685  34.092  12.059
62244W        W26188  16.300   3.387  14.339
62245W        W26189  40.464  18.751  13.442
62246W        W26190  33.615  11.162   1.238
62247W        W26191   5.932   1.400  11.063
62248W        W26192  39.868  32.571  11.081
62249W        W26193  10.867  33.498  12.978
62250W        W26194  40.945   1.801   4.329
62251W        W26195   2.356   9.318  12.562
62252W        W26196  12.300  38.342   1.912
62253W        W26197  36.450   8.886   4.836
62254W        W26198  39.419  26.637  11.987
62255W        W26199  34.462  35.005   4.604
62256W        W26200  36.372  34.114   3.852
62257W        W26201  29.655  40.414   3.170
62258W        W26202  21.225  35.047  11.926
62259W        W26203  33.551  14.796  14.290
62260W        W26204  41.393  41.478   1.440
62261W        W26205  12.639  33.092  12.036
62262W        W26206  13.177   0.849   3.176
62263W        W26207   5.310   2.922   3.733
62264W        W26208  12.641  29.460   1.338
62265W        W26209   2.260  24.034  11.096
62266W        W26210  31.119   2.902   3.369
62267W        W26211  11.174  23.650  14.415
62268W        W26212  36.554  29.970  10.610
62269W        W26213  19.744  36.505  12.579
62270W        W26214  14.104  37.863   2.844
62271W        W26215  12.297  32.073   3.778
62272W        W26216  30.515  39.511  14.466
62273W        W26217  30.107   6.889   1.744
62274W        W26218  43.359   8.740   4.805
62275W        W26219  37.983   8.705   4.711
62276W        W26220  38.901  28.033  14.949
62277W        W26221  34.026  28.603  11.077
62278W        W26222  20.179   8.236   1.401
62279W        W26223   9.796  10.229  14.983
62280W        W26224  28.996  44.427   3.758
62281W        W26225  24.559  33.440   0.408
62282W        W26226   9.787  16.698   2.308
62283W        W26227  17.139   7.318  12.518
62284W        W26228   4.855  32.031  12.055
62285W        W26229  10.337  34.058   0.469
62286W        W26230   9.878   3.761  10.588
62287W        W26231  24.219   4.725  13.803
62288W        W26232  37.345  12.828  11.969
62289W        W26233  17.283   2.807   4.128
62290W        W26234  30.653  27.978   3.286
62291W        W26235  35.561  41.518   4.347
62292W        W26236  26.647  13.762   2.399
62293W        W26237  16.618   6.283   3.820
62294W        W26238  17.119  20.051  10.923
62295W        W26239  12.786  11.351   0.296
62296W        W26240  41.990   8.277  11.582
62297W        W26241  44.009   3.271   5.209
62298W        W26242  22.160  30.998  10.493
62299W        W26243  36.525   7.263  14.351
62300W        W26244  39.858   1.316   0.313
62301W        W26245  41.910  11.823  13.841
62302W        W26246  20.663  28.058   3.716
62303W        W26247   8.726   9.295   0.728
62304W        W26248  38.017  20.087  14.897
62305W        W26249  22.165  22.668   2.737
62306W        W26250  10.195  31.999   1.723
62307W        W26251  16.145  33.626   3.853
62308W        W26252  44.911  38.971   3.287
62309W        W26253  18.594  39.468   2.718
62310W        W26254  20.689  26.034  13.953
62311W        W26255  44.937  31.084  13.949
62312W        W26256   9.351   1.394  13.805
62313W        W26257  10.771   6.342  14.298
62314W        W26258  21.041  36.404   5.232
62315W        W26259  10.684   3.394   0.813
62316W        W26260  32.429  15.702   3.849
62317W        W26261  31.532  24.698  14.814
62318W        W26262   0.964  44.963   0.342
62319W        W26263  35.958   2.891   1.704
62320W        W26264  10.331  24.132   4.754
62321W        W26265  33.447  35.107  12.579
62322W        W26266   0.358  32.449   1.696
62323W        W26267  41.919  11.730   3.700
62324W        W26268   7.401  40.038   1.843
62325W        W26269  18.082   3.799   0.878
62326W        W26270  17.709  25.988   3.799
62327W        W26271   9.879  26.153  14.306
62328W        W26272  13.749  32.040   0.845
62329W        W26273   3.812   2.916  13.431
62330W        W26274  27.120  16.171   0.442
62331W        W26275   9.294  12.617   0.454
62332W        W26276   0.437  25.665   4.197
62333W        W26277   8.337  11.235   2.883
62334W        W26278  41.948   6.867   1.795
62335W        W26279   1.304  10.352   0.370
62336W        W26280  32.089   5.816   2.241
62337W        W26281  27.019   4.892   3.243
62338W        W26282  23.081  13.793  10.954
62339W        W26283  14.588   3.283   1.413
62340W        W26284  44.317   6.190   0.744
62341W        W26285  23.692   5.324  12.539
62342W        W26286  28.582  24.720   3.632
62343W        W26287  15.140  31.575   2.306
62344W        W26288  10.180   4.927   0.412
62345W        W26289  24.649  41.401   4.161
62346W        W26290  10.813  38.868  10.443
62347W        W26291  11.710   7.882  14.369
62348W        W26292  11.329   0.335   4.626
62349W        W26293  11.677  24.718   4.313
62350W        W26294  17.259  41.477  10.983
62351W        W26295  41.305  30.605  11.530
62352W        W26296  11.786  44.446  12.385
62353W        W26297   2.726   3.424  12.380
62354W        W26298   6.916  44.907  13.038
62355W        W26299   2.454  18.221  14.412
62356W        W26300   8.755  36.031  12.037
62357W        W26301  42.998   3.838   3.196
62358W        W26302   4.793   1.949   1.793
62359W        W26303  13.753  36.420  13.986
62360W        W26304   9.783  27.020  10.014
62361W        W26305  39.535  40.451  14.885
62362W        W26306  27.990  26.176   1.237
62363W        W26307   0.867  16.307  11.949
62364W        W26308  33.479  11.760   1.400
62365W        W26309  24.207  43.971  12.925
62366W        W26310  30.540  23.703   3.352
62367W        W26311  36.470   5.436   4.248
62368W        W26312  11.230  25.119   0.963
62369W        W26313  34.568  43.503   3.703
62370W        W26314  42.886  39.341  12.035
62371W        W26315  31.943  14.775  14.030
62372W        W26316  14.629  22.510  10.523
62373W        W26317   4.233  15.106  11.478
62374W        W26318  16.115  29.023  10.537
62375W        W26319  16.806  40.316   4.232
62376W        W26320   4.443   6.335   0.812
62377W        W26321  39.464  27.107  14.372
62378W        W26322  17.793   9.311   1.330
62379W        W26323  24.202  37.479  11.050
62380W        W26324  21.081  19.601  11.598
62381W        W26325  16.186   3.235   4.239
62382W        W26326   8.831  31.145   1.892
62383W        W26327  13.805  29.506  14.295
62384W        W26328  17.091  38.941  11.498
62385W        W26329  43.820  25.675   0.389
62386W        W26330   5.347   3.337  10.556
62387W        W26331  21.122  24.720   9.970
62388W        W26332  22.666  10.260  12.023
62389W        W26333  34.014  24.574  12.546
62390W        W26334  21.228   6.201  11.019
62391W        W26335  35.043  26.202   4.162
62392W        W26336   0.408  25.479   3.720
62393W        W26337  40.844  13.647  10.462
62394W        W26338  30.445   9.235  11.931
62395W        W26339  43.867  10.809   4.748
62396W        W26340   4.870  25.632  12.091
62397W        W26341  14.273  21.609   4.811
62398W        W26342   3.446  31.438  11.975
62399W        W26343   9.325   9.855   4.736
62400W        W26344  37.977  15.207   1.308
62401W        W26345   9.379  44.806   0.382
62402W        W26346  33.573   8.214   2.890
62403W        W26347   1.296  42.362  10.996
62404W        W26348  33.543  21.705   4.694
62405W        W26349  20.189  35.546  12.532
62406W        W26350  15.117  43.370  10.491
62407W        W26351  32.912  33.095   3.791
62408W        W26352   3.371  28.159   1.733
62409W        W26353  26.585  19.623  13.955
62410W        W26354   4.916  31.087   4.198
62411W        W26355  18.741  13.723  11.495
62412W        W26356  40.414  12.818  11.416
62413W        W26357  30.977  26.464   4.256
62414W        W26358  41.514   6.238   3.751
62415W        W26359   1.864   9.733   2.417
62416W        W26360  43.972   0.797  14.997
62417W        W26361  40.959  33.471   0.348
62418W        W26362  30.036  22.701  10.514
62419W        W26363  24.614   0.428   3.690
62420W        W26364  41.520  26.084   4.795
62421W        W26365  40.948   5.871   3.735
62422W        W26366  25.688  33.062   4.306
62423W        W26367  38.936  28.139   0.946
62424W        W26368  26.653  34.469   0.753
62425W        W26369  43.292  20.154   2.779
62426W        W26370  15.752  31.464   3.686
62427W        W26371  38.859  27.026  11.555
62428W        W26372   7.242  17.672  10.949
62429W        W26373  19.767  36.489   0.862
62430W        W26374  13.349  40.493   3.713
62431W        W26375  12.650   4.254  13.988
62432W        W26376  25.493   3.234  11.877
62433W        W26377  39.353  33.113   2.353
62434W        W26378  27.626  24.049   1.377
62435W        W26379  44.358  17.709   1.855
62436W        W26380   2.418  23.577  14.994
62437W        W26381  10.336  30.941  10.594
62438W        W26382  35.437   9.296  12.021
62439W        W26383  20.174  26.495  12.823
62440W        W26384  23.149  36.511  11.387
62441W        W26385  40.325   4.930  13.825
62442W        W26386   8.754  14.705   2.244
62443W        W26387  39.965   8.825  13.893
62444W        W26388  21.076  10.189   2.290
62445W        W26389  27.681  28.464   3.226
62446W        W26390   8.170  43.869   2.248
62447W        W26391  39.425  11.757  11.864
62448W        W26392  34.555  30.956   4.679
62449W        W26393  32.988  11.742  12.067
62450W        W26394  41.292  11.770   0.265
62451W        W26395  22.051  38.347  14.456
62452W        W26396  21.062  22.616  13.403
62453W        W26397  28.670  21.562  11.098
62454W        W26398  35.407  28.665  14.502
62455W        W26399  23.578  29.640   0.248
62456W        W26400  16.247  37.384   1.280
62457W        W26401  37.467   1.777   1.711
62458W        W26402  32.571  35.451  13.060
62459W        W26403  37.429  10.790  11.122
62460W        W26404   8.389  10.359   1.394
62461W        W26405  10.217  24.679  14.953
62462W        W26406  14.149   2.824  14.452
62463W        W26407   8.804  34.900   2.405
62464W        W26408   3.836  31.049   4.147
62465W        W26409  40.848   3.849   5.706
62466W        W26410  24.679  40.048   1.310
62467W        W26411  20.157   7.182   0.266
62468W        W26412  15.634  41.467  13.830
62469W        W26413  12.819   0.391   4.223
62470W        W26414  38.537  41.842  11.989
62471W        W26415   2.357  26.074  12.957
62472W        W26416  36.571  37.955   3.249
62473W        W26417  33.483  29.019  12.546
62474W        W26418  17.101  21.550  12.501
62475W        W26419   7.212   3.386   3.239
62476W        W26420   8.735  34.898  12.412
62477W        W26421   0.367   1.806  13.827
62478W        W26422  39.492  27.635   4.672
62479W        W26423  31.950  30.604  12.423
62480W        W26424  19.692   3.365  11.860
62481W        W26425   9.701  33.941  14.775
62482W        W26426  33.519  15.748   5.267
62483W        W26427  22.124  11.309  12.881
62484W        W26428   5.375  21.623  12.576
62485W        W26429  34.472  10.812  13.419
62486W        W26430  35.863  25.577  11.117
62487W        W26431  23.158  13.284   4.121
62488W        W26432  21.238  43.398  12.916
62489W        W26433  17.164  39.917  10.044
62490W        W26434  42.031  16.703   1.370
62491W        W26435  14.105  26.662  12.569
62492W        W26436   5.691  35.019   1.219
62493W        W26437  31.047   2.808   4.130
62494W        W26438   2.815  28.073  13.427
62495W        W26439  26.125   6.313  11.482
62496W        W26440   1.813  15.269   1.739
62497W        W26441  23.622  28.552   2.314
62498W        W26442   4.726   9.705   4.674
62499W        W26443  31.431  21.527   1.389
62500W        W26444  44.858  40.498   4.207
62501W        W26445  42.445   2.413   4.149
62502W        W26446  10.166  33.574   3.149
62503W        W26447  33.432  25.986  10.137
62504W        W26448  32.975  20.132  11.573
62505W        W26449   6.918  14.786   3.350
62506W        W26450  12.325   5.418  14.920
62507W        W26451   1.390   0.984   2.822
62508W        W26452  26.008  25.615   2.392
62509W        W26453  14.244  31.104   1.694
62510W        W26454  41.803  17.794  11.479
62511W        W26455  36.851  32.540   3.276
62512W        W26456   4.242  10.371  14.980
62513W        W26457  32.564  38.562  12.553
62514W        W26458   8.256  22.637   4.325
62515W        W26459  16.154  22.034   5.088
62516W        W26460  22.674  10.192  13.535
62517W        W26461   6.708  10.842   1.287
62518W        W26462   4.808   3.716  14.814
62519W        W26463   3.425  20.037   1.756
62520W        W26464   5.412   9.244   3.722
62521W        W26465  42.013  20.262  11.074
62522W        W26466   3.948  14.687  12.958
62523W        W26467  20.758  20.264   3.341
62524W        W26468  14.176  37.071   1.849
62525W        W26469  42.312   2.233   1.420
62526W        W26470   2.792  36.385   4.597
62527W        W26471  13.609  43.803  11.390
62528W        W26472   2.281  36.914   0.938
62529W        W26473  25.624  18.113   4.694
62530W        W26474  43.344   2.792  12.464
62531W        W26475  39.845  16.737   3.710
62532W        W26476  25.638  32.887   0.343
62533W        W26477  23.553  33.010  14.898
62534W        W26478  31.578   4.307  13.009
62535W        W26479   8.297  38.925  11.555
62536W        W26480  15.632  21.669   1.813
62537W        W26481   0.854  39.492   0.349
62538W        W26482  25.203  30.513   2.848
62539W        W26483  43.873   1.951  14.008
62540W        W26484  10.246  22.534  14.783
62541W        W26485  41.346  43.363  14.896
62542W        W26486  39.061   8.263  14.832
62543W        W26487  24.633   3.818   4.835
62544W        W26488  43.474  19.139   3.728
62545W        W26489  22.540   9.871   4.811
62546W        W26490  19.189  43.515  14.471
62547W        W26491  13.345   7.196   0.913
62548W        W26492  37.359  28.524   2.393
62549W        W26493  42.787  26.487   4.658
62550W        W26494  30.658  35.508  14.895
62551W        W26495  41.436   0.414  12.563
62552W        W26496  37.025  24.676  14.907
62553W        W26497  34.433  41.034   3.345
62554W        W26498  29.935  42.354  11.095
62555W        W26499  21.718  18.774   2.306
62556W        W26500  19.063  22.540  14.339
62557W        W26501  19.060  42.317   2.327
62558W        W26502  12.722  37.942  11.883
62559W        W26503  11.816   9.235  13.958
62560W        W26504  28.566  35.945  14.798
62561W        W26505  13.233  39.366   4.228
62562W        W26506  35.003  27.593   3.283
62563W        W26507  34.390   8.164   0.359
62564W        W26508  39.817   6.329   0.274
62565W        W26509   6.419   7.839  13.458
62566W        W26510  43.330  30.980   4.772
62567W        W26511   0.886  12.275  14.336
62568W        W26512  13.135  27.014  11.513
62569W        W26513  32.589  39.034  14.824
62570W        W26514   5.439  42.493  13.951
62571W        W26515  40.482  24.010   3.178
62572W        W26516   5.758  38.441  10.480
62573W        W26517  19.630  37.840  11.484
62574W        W26518  27.950  33.607  11.585
62575W        W26519  36.481  35.568   0.398
62576W        W26520  32.583   7.816   1.444
62577W        W26521   7.844   8.693  13.364
62578W        W26522  25.471  31.912  14.289
62579W        W26523  40.985  27.963   1.726
62580W        W26524  24.687  39.359  11.540
62581W        W26525  35.464   6.813  11.898
62582W        W26526  24.541  37.900   4.341
62583W        W26527  43.503  18.571   3.711
62584W        W26528  18.279  34.373  10.075
62585W        W26529  31.131  17.209   4.629
62586W        W26530  41.932   8.326  12.427
62587W        W26531  17.666  28.602   0.253
62588W        W26532  29.476  38.569   0.310
62589W        W26533  14.701  42.392  10.483
62590W        W26534  40.918  19.550   4.792
62591W        W26535  27.608  35.376  11.870
62592W        W26536  12.204  40.033  12.973
62593W        W26537  31.421  36.956  10.451
62594W        W26538   3.279  18.253  14.499
62595W        W26539  42.898  42.907  10.965
62596W        W26540  38.392  17.275  14.883
62597W        W26541  17.132   0.900  13.435
62598W        W26542  10.283  14.241  12.065
62599W        W26543  32.901  12.802   4.622
62600W        W26544  31.476  37.507   2.395
62601W        W26545  25.646   6.709   4.161
62602W        W26546  14.748  17.783   0.264
62603W        W26547  41.299  42.970   5.257
62604W        W26548  18.288  20.134  11.005
62605W        W26549   5.359  22.698  14.902
62606W        W26550  38.033  11.153   3.218
62607W        W26551  40.356  36.865   0.938
62608W        W26552  23.034   1.850   4.255
62609W        W26553  37.865  27.551  14.915
62610W        W26554   1.838  34.399  14.312
62611W        W26555  26.629  24.634  13.480
62612W        W26556  13.833  42.387  12.084
62613W        W26557  31.607  13.770   3.720
62614W        W26558  19.703   3.843  12.829
62615W        W26559   6.901  26.683   1.766
62616W        W26560   8.308   8.211  14.024
62617W        W26561  27.105  15.152   2.892
62618W        W26562  30.917  37.988  10.559
62619W        W26563  24.564  24.653   4.661
62620W        W26564  11.167  23.193   0.879
62621W        W26565  39.474  43.846  13.392
62622W        W26566   5.238  18.169   4.651
62623W        W26567   1.837  41.820   2.408
62624W        W26568  29.073   6.409   0.455
62625W        W26569  24.623  30.571  12.491
62626W        W26570  33.012  28.664   3.769
62627W        W26571  14.789  41.388   4.154
62628W        W26572   9.719  32.416  13.969
62629W        W26573  35.522  30.415  12.013
62630W        W26574  12.269  43.945   9.451
62631W        W26575   7.206  17.713   2.720
62632W        W26576  13.762  31.424  11.087
62633W        W26577  32.104  33.578  14.772
62634W        W26578   9.859  22.085   3.152
62635W        W26579   5.389  17.116   2.398
62636W        W26580  39.958  39.481   0.936
62637W        W26581  34.460  28.002   2.251
62638W        W26582  17.726  32.623   1.249
62639W        W26583  23.556  10.280   0.248
62640W        W26584   7.887  34.597   1.825
62641W        W26585  42.858  21.607   0.296
62642W        W26586  18.773   7.682  14.490
62643W        W26587  15.246  37.405   2.714
62644W        W26588  12.782  17.795   2.273
62645W        W26589  18.158  38.862   1.310
62646W        W26590  38.566  32.896   4.697
62647W        W26591  30.005  28.635   4.613
62648W        W26592  10.253  28.999   2.768
62649W        W26593  22.547   2.280  13.438
62650W        W26594  37.370  35.102   0.948
62651W        W26595  14.689  39.350  12.883
62652W        W26596  10.763   0.940   1.875
62653W        W26597  27.137  30.031   4.261
62654W        W26598  32.056  23.004   0.762
62655W        W26599  13.654   1.956  12.022
62656W        W26600  28.035   5.245  10.926
62657W        W26601  18.581  40.536  10.091
62658W        W26602   0.758   0.905   5.106
62659W        W26603  13.217   1.302   2.882
62660W        W26604  10.676   1.887   2.275
62661W        W26605  32.624  11.226   3.219
62662W        W26606   2.840  14.278   2.324
62663W        W26607  41.482  29.613  14.346
62664W        W26608  39.885  34.022   2.751
62665W        W26609  18.584  27.567   4.188
62666W        W26610  23.151  12.219  13.532
62667W        W26611  41.415  43.913  14.936
62668W        W26612  17.700   9.234   0.933
62669W        W26613   6.819  32.958   3.377
62670W        W26614   6.788   5.803  11.916
62671W        W26615  37.564  17.301  10.498
62672W        W26616  24.135  32.110   0.941
62673W        W26617  42.982  34.103  12.511
62674W        W26618  14.209  41.508  10.099
62675W        W26619   8.869  22.170  12.493
62676W        W26620   0.250  27.077   1.923
62677W        W26621  22.516  18.198   1.338
62678W        W26622  35.595  21.640  14.402
62679W        W26623  14.632  33.046  13.362
62680W        W26624  22.735  14.289  14.924
62681W        W26625  26.559   9.367  14.356
62682W        W26626   4.418  12.188   1.734
62683W        W26627  35.095  34.420   3.272
62684W        W26628  12.282   3.269   2.798
62685W        W26629  28.102   8.318  13.430
62686W        W26630   6.806  23.076   3.790
62687W        W26631  32.482  41.457   5.168
62688W        W26632  39.938  43.935   2.348
62689W        W26633  20.762  41.368   3.825
62690W        W26634  43.869  13.120   4.154
62691W        W26635  43.795  26.980  13.018
62692W        W26636  11.682  38.524   2.379
62693W        W26637  12.288   1.876   2.789
62694W        W26638   0.407  33.934  11.432
62695W        W26639  24.120  36.443   3.826
62696W        W26640  42.426  11.167   3.203
62697W        W26641  26.614  39.948   2.250
62698W        W26642  43.872  17.714  14.325
62699W        W26643  23.199  42.815   3.820
62700W        W26644  19.553  29.126   0.757
62701W        W26645  44.281  21.185  11.990
62702W        W26646  30.062  17.123   1.220
62703W        W26647  19.761  15.131   2.191
62704W        W26648  28.052  44.966   4.238
62705W        W26649   3.366  33.888   4.640
62706W        W26650   7.328  42.784  11.900
62707W        W26651   4.245  12.798   1.446
62708W        W26652   2.731   1.269   1.726
62709W        W26653  27.592  34.984  12.376
62710W        W26654  37.356  42.013  12.968
62711W        W26655  38.503  44.284  12.907
62712W        W26656  42.384  24.150   3.672
62713W        W26657  37.375   0.913  14.504
62714W        W26658  40.952  35.993   4.162
62715W        W26659  10.225  19.171  14.952
62716W        W26660   7.716  30.989   3.809
62717W        W26661  11.824  31.556   2.204
62718W        W26662  12.657  14.600   0.419
62719W        W26663  17.288  40.025  10.984
62720W        W26664  36.412  19.730   1.355
62721W        W26665  42.950  28.472   4.120
62722W        W26666  20.746  28.478   2.832
62723W        W26667  39.825  35.110  14.292
62724W        W26668  24.621   9.273  11.553
62725W        W26669  11.361  35.532   4.141
62726W        W26670  12.137  37.434   4.733
62727W        W26671  43.276   3.253  13.961
62728W        W26672  29.153  42.407   4.706
62729W        W26673   1.253  43.884  11.414
62730W        W26674  18.739   1.390  13.901
62731W        W26675   9.773  21.244   3.236
62732W        W26676   4.432   0.420  13.882
62733W        W26677  17.571   0.764  13.380
62734W        W26678  27.184  44.461   0.401
62735W        W26679  14.186   2.878   1.931
62736W        W26680   8.773  41.972  14.466
62737W        W26681  33.094   0.465  14.759
62738W        W26682  32.451   0.742   0.841
62739W        W26683   5.261  38.489  12.868
62740W        W26684  40.366  42.932   2.727
62741W        W26685  15.745  11.863   1.266
62742W        W26686  37.984   3.420   1.363
62743W        W26687  12.739  37.926  12.836
62744W        W26688  11.793  40.397  13.481
62745W        W26689  29.568  27.560  11.028
62746W        W26690   0.388  24.175  12.088
62747W        W26691  38.014  16.077  10.497
62748W        W26692  27.519  28.140  13.515
62749W        W26693  34.984  18.577  11.871
62750W        W26694  38.479  10.325  14.806
62751W        W26695  30.050  10.384   2.798
62752W        W26696  21.567  40.543   0.797
62753W        W26697  44.968  38.863   1.402
62754W        W26698  31.498  13.338  12.396
62755W        W26699  30.922  26.557  12.937
62756W        W26700  30.636  27.196   3.357
62757W        W26701  27.536  36.574   2.735
62758W        W26702  44.839   2.883   0.369
62759W        W26703  22.731  29.152   1.756
62760W        W26704  38.893  12.288   4.626
62761W        W26705  35.447  20.563   3.346
62762W        W26706   1.819  41.360   4.647
62763W        W26707  42.813  34.913   5.094
62764W        W26708  20.046  24.635   2.411
62765W        W26709  16.767  26.596   4.610
62766W        W26710  38.332  18.253   4.637
62767W        W26711   0.853  15.157   3.163
62768W        W26712   2.952   0.807   3.742
62769W        W26713   9.230   0.848  11.411
62770W        W26714   2.735  26.666  13.412
62771W        W26715  27.019  19.158  12.041
62772W        W26716  11.184  26.473   3.688
62773W        W26717  28.981  14.691   4.607
62774W        W26718  21.150   7.309  12.073
62775W        W26719  33.057  26.998  11.432
62776W        W26720  24.710  13.163  12.839
62777W        W26721  13.313  14.097  11.413
62778W        W26722  21.549  13.715  14.405
62779W        W26723  23.194  10.727  11.897
62780W        W26724   7.381  11.283   2.283
62781W        W26725  12.730   2.822   1.711
62782W        W26726  34.530   6.771   0.433
62783W        W26727   6.428  38.504  12.451
62784W        W26728  14.812   1.425   1.909
62785W        W26729  35.526  39.431  11.981
62786W        W26730  18.554  28.663   3.193
62787W        W26731  42.996   3.788   2.308
62788W        W26732  37.881   9.191  12.476
62789W        W26733  25.559  16.796  14.291
62790W        W26734  18.123  40.480   3.646
62791W        W26735  24.029  30.073   2.777
62792W        W26736  33.483  35.883  11.985
62793W        W26737  32.052   6.888  13.015
62794W        W26738   7.770  20.756   2.210
62795W        W26739   9.786  41.909   3.172
62796W        W26740  13.239  15.241  10.892
62797W        W26741  13.655  12.297   0.246
62798W        W26742  35.381  16.698  12.939
62799W        W26743  39.049  34.435   2.674
62800W        W26744   7.852   0.444  11.102
62801W        W26745  26.577  30.057   1.238
62802W        W26746  19.668  34.477   0.760
62803W        W26747  11.150  38.497  12.986
62804W        W26748  39.830  34.448   3.699
62805W        W26749  25.550  34.119   1.387
62806W        W26750  23.694   4.728  10.916
62807W        W26751  37.918  22.240  11.113
62808W        W26752  18.101  14.270  11.891
62809W        W26753  17.279  20.248  13.400
62810W        W26754   2.797   0.483  13.892
62811W        W26755  14.667  30.922   0.291
62812W        W26756  44.265  15.637  13.946
62813W        W26757  40.365  17.136  12.533
62814W        W26758   2.936  23.119  12.972
62815W        W26759  24.706  17.194  12.072
62816W        W26760  33.501  31.457   0.958
62817W        W26761  36.568  29.928  14.383
62818W        W26762  41.415   3.939   3.631
62819W        W26763  43.342   7.417   5.220
62820W        W26764  31.144   3.920  11.073
62821W        W26765  24.208   4.925  12.909
62822W        W26766   8.387   0.356   4.667
62823W        W26767  29.073  27.004  10.965
62824W        W26768   6.258  36.468   1.848
62825W        W26769  36.581   7.754  11.863
62826W        W26770  39.871  26.517   0.801
62827W        W26771  28.127  25.693  11.460
62828W        W26772  19.722  21.118  14.497
62829W        W26773  30.504  21.026   4.628
62830W        W26774  15.133  19.580  14.290
62831W        W26775  33.907  23.047   2.807
62832W        W26776  12.328  30.084   2.198
62833W        W26777  34.451   6.901   3.353
62834W        W26778  20.571   7.318  14.292
62835W        W26779  34.503  20.545  12.935
62836W        W26780  34.021  26.150  13.542
62837W        W26781  41.972   8.873   3.733
62838W        W26782  35.490  32.917   2.790
62839W        W26783   6.239  17.781   0.850
62840W        W26784   9.196  43.469  11.027
62841W        W26785  16.697  26.703  10.598
62842W        W26786  32.600  32.563   2.230
62843W        W26787  13.224  33.974  11.450
62844W        W26788  16.096  40.817  13.877
62845W        W26789  34.919  25.990  12.950
62846W        W26790  25.492  31.069   0.250
62847W        W26791  44.813  23.633  12.038
62848W        W26792  14.242  10.174   1.243
62849W        W26793  29.540  11.174   2.710
62850W        W26794  29.018  38.863   3.745
62851W        W26795   0.808  43.350  14.758
62852W        W26796  11.143  40.052   3.668
62853W        W26797  42.354  37.491   1.212
62854W        W26798  20.760  27.452  12.830
62855W        W26799  27.539  19.548   2.666
62856W        W26800  19.178  33.084   2.248
62857W        W26801  37.512   8.712   0.398
62858W        W26802  11.223  28.575   1.710
62859W        W26803  27.675  32.988   0.378
62860W        W26804  43.819   8.370   2.720
62861W        W26805   6.788  36.058   1.302
62862W        W26806  20.558  15.620  11.442
62863W        W26807   4.912  42.410  14.402
62864W        W26808   7.395  29.972   2.733
62865W        W26809  15.725   7.881  13.879
62866W        W26810   1.814  25.027   1.443
62867W        W26811  33.457  16.742   1.854
62868W        W26812   4.843  29.137   4.752
62869W        W26813  39.455  36.508   3.365
62870W        W26814  18.173   1.886  14.943
62871W        W26815   3.790  21.539   1.759
62872W        W26816  44.258   6.829   3.365
62873W        W26817  17.571   1.938   3.675
62874W        W26818  10.836  12.649  14.433
62875W        W26819  11.223  14.687  14.809
62876W        W26820  12.799  29.513   4.801
62877W        W26821  35.074  39.022   4.755
62878W        W26822  40.843  35.415  10.426
62879W        W26823   7.742  29.120   2.259
62880W        W26824  17.220  24.201  14.016
62881W        W26825  44.770  18.634  13.814
62882W        W26826  21.255  37.972   1.303
62883W        W26827  31.419   7.295   4.185
62884W        W26828  11.807  36.403   2.267
62885W        W26829   2.783  28.494   0.361
62886W        W26830  25.021  32.886  13.419
62887W        W26831  27.630  13.653  12.488
62888W        W26832  31.408  13.280  14.317
62889W        W26833   1.859  32.532  13.353
62890W        W26834   4.737   8.351  13.924
62891W        W26835  21.218  24.120  11.522
62892W        W26836   6.372   4.853   1.273
62893W        W26837  12.191  18.100  13.367
62894W        W26838  36.378   1.750  10.068
62895W        W26839  14.773  12.646  12.417
62896W        W26840  41.346  35.403  12.929
62897W        W26841  41.336  40.433  11.496
62898W        W26842  41.324  16.149   3.821
62899W        W26843  38.042  27.021  11.036
62900W        W26844  31.621  43.768  12.562
62901W        W26845  11.743  17.646   0.967
62902W        W26846  12.786  33.026   5.241
62903W        W26847  29.453  12.140   0.458
62904W        W26848   0.247  35.087   2.309
62905W        W26849  39.986  29.131   4.125
62906W        W26850  41.857   4.215   2.220
62907W        W26851  21.741  12.732   0.260
62908W        W26852  19.565  27.574   1.782
62909W        W26853  17.636  35.550   0.385
62910W        W26854  38.540   0.267  10.588
62911W        W26855  12.652  11.843  10.455
62912W        W26856  29.970  10.676   0.339
62913W        W26857  41.888  17.559   4.291
62914W        W26858   9.671  26.667   4.763
62915W        W26859  44.459  14.279   0.359
62916W        W26860  14.277   3.709  14.389
62917W        W26861   0.355  26.085   0.267
62918W        W26862  23.115  36.373   0.853
62919W        W26863  10.733  35.569  11.592
62920W        W26864  24.623  26.145   2.261
62921W        W26865  24.624   4.836   3.849
62922W        W26866  12.610  41.857  12.997
62923W        W26867  26.617  33.625  14.759
62924W        W26868   8.732  13.606   1.338
62925W        W26869  28.570  31.519  14.924
62926W        W26870   1.305  25.711  13.900
62927W        W26871  23.202  35.385  11.509
62928W        W26872  26.506   0.303   3.357
62929W        W26873   5.716   0.370  11.021
62930W        W26874  42.838  32.890  13.046
62931W        W26875  18.600   7.253  12.574
62932W        W26876  20.061  29.551  11.041
62933W        W26877  42.488  10.868  12.456
62934W        W26878  12.851  44.880   0.324
62935W        W26879  37.079  29.547   2.831
62936W        W26880   7.403   2.741   4.743
62937W        W26881  28.629   5.372  12.441
62938W        W26882  38.434  42.964   3.826
62939W        W26883  25.635  26.148  14.275
62940W        W26884  39.417  23.143  11.576
62941W        W26885  12.298  27.503  11.090
62942W        W26886  18.071  43.798   3.231
62943W        W26887   1.926  32.058  14.368
62944W        W26888   9.311  41.358   4.604
62945W        W26889  27.602  27.662   1.900
62946W        W26890  14.618  32.072   2.767
62947W        W26891   9.293  14.123  13.972
62948W        W26892  14.327  29.506  11.585
62949W        W26893  18.179  20.207   1.289
62950W        W26894  32.529  20.657   3.303
62951W        W26895   4.435  33.582  11.399
62952W        W26896  29.641  15.297  12.577
62953W        W26897  13.634  34.042   2.390
62954W        W26898   8.699  11.201  11.897
62955W        W26899  34.970  16.166   0.879
62956W        W26900  27.004  40.527   2.305
62957W        W26901  39.542  29.056   0.347
62958W        W26902  19.593   9.725   5.138
62959W        W26903  40.979  41.843   0.470
62960W        W26904  33.479   4.740  11.944
62961W        W26905   9.158  18.576   0.316
62962W        W26906  36.850  36.057  10.576
62963W        W26907  14.273  21.540   3.230
62964W        W26908  24.230   6.771   1.227
62965W        W26909  39.402  21.060   2.779
62966W        W26910  28.511  31.527  13.518
62967W        W26911  24.048   7.394   0.281
62968W        W26912  16.708  17.155  14.330
62969W        W26913  44.852  16.158  12.937
62970W        W26914   8.239  16.147  11.060
62971W        W26915  16.685  30.605  12.574
62972W        W26916  32.134  31.009   0.812
62973W        W26917  40.402  15.133  11.972
62974W        W26918  39.014  44.378  14.865
62975W        W26919  21.158  32.135  12.864
62976W        W26920   2.724  42.492   0.804
62977W        W26921  40.816   5.819  14.947
62978W        W26922  31.429  11.665   1.756
62979W        W26923  27.085  25.088   2.725
62980W        W26924  44.845   6.352   1.822
62981W        W26925  40.829  21.040  11.927
62982W        W26926  32.404  12.647   0.778
62983W        W26927   3.878  28.051  13.345
62984W        W26928  22.658  44.502   4.307
62985W        W26929   1.919  11.704   3.729
62986W        W26930  29.555  34.446   3.701
62987W        W26931  34.492  38.055  10.485
62988W        W26932  28.022  10.143   3.768
62989W        W26933  40.511   2.289   3.786
62990W        W26934  19.695  40.925  12.469
62991W        W26935   6.401  44.376   0.295
62992W        W26936  16.081  34.425  13.888
62993W        W26937  39.820  24.570   2.810
62994W        W26938  24.039  21.087  12.538
62995W        W26939  38.565  38.033  10.413
62996W        W26940  34.491   9.881   2.842
62997W        W26941  11.636  33.122  12.925
62998W        W26942  27.101  11.197   2.829
62999W        W26943  17.284   6.335   2.799
63000W        W26944  36.863  44.822  10.416
63001W        W26945  27.962  33.448  13.877
63002W        W26946  16.804  25.569   0.897
63003W        W26947  26.544  16.098  12.995
63004W        W26948  35.003  28.139   3.270
63005W        W26949  18.172  40.897  14.504
63006W        W26950  15.804  20.591  12.077
63007W        W26951  12.163   4.344  13.058
63008W        W26952  24.498  25.998  11.591
63009W        W26953  20.612  27.676   3.851
63010W        W26954  35.875  29.544  12.508
63011W        W26955  25.192  17.127  13.332
63012W        W26956  18.708  32.548  14.933
63013W        W26957  27.582  39.461   1.234
63014W        W26958  39.002   0.857   4.733
63015W        W26959  32.129  23.570  14.285
63016W        W26960  11.628  22.717   1.764
63017W        W26961  19.717   6.315  13.545
63018W        W26962  28.437  17.298  11.003
63019W        W26963   0.947   3.933   1.411
63020W        W26964  10.676  43.889   0.317
63021W        W26965  42.432  42.363   0.763
63022W        W26966  15.089   1.452   2.704
63023W        W26967  29.042   4.803   3.819
63024W        W26968  37.086  26.673   2.186
63025W        W26969   3.858  33.504   1.340
63026W        W26970  26.533  26.663   0.933
63027W        W26971  17.576  43.434  14.969
63028W        W26972  19.705  27.072   4.647
63029W        W26973  23.623  34.077   2.724
63030W        W26974  39.329  20.255  14.818
63031W        W26975  23.092   3.401   0.965
63032W        W26976  25.601  43.827   0.837
63033W        W26977  12.638   1.756  13.368
63034W        W26978  13.120   4.784   2.687
63035W        W26979  37.069  36.570  13.860
63036W        W26980  37.832  26.667   1.436
63037W        W26981   8.339  31.033   1.760
63038W        W26982  42.328  32.069   1.404
63039W        W26983   7.796  21.601  13.517
63040W        W26984  27.102  34.396   3.308
63041W        W26985  13.726  12.285   0.911
63042W        W26986   5.247  16.143  12.541
63043W        W26987  11.272   5.731   2.283
63044W        W26988  25.997  32.114  14.372
63045W        W26989  20.747   5.775  13.856
63046W        W26990  20.057  33.484   2.775
63047W        W26991  20.086   6.418   3.870
63048W        W26992  16.120  16.643   2.202
63049W        W26993  22.123  33.593  12.017
63050W        W26994   9.703  43.968   0.785
63051W        W26995   5.304  10.797   3.832
63052W        W26996   1.805  16.750   3.148
63053W        W26997  34.954  43.276  11.391
63054W        W26998  36.861  23.698   1.234
63055W        W26999  10.308  39.981  13.937
63056W        W27000  20.052  24.211   0.475
63057W        W27001   7.909  38.489   4.648
63058W        W27002  25.497  26.553  11.988
63059W        W27003  43.904   8.784   0.954
63060W        W27004  28.127  43.822  13.413
63061W        W27005   3.384  44.421   1.771
63062W        W27006   6.859  19.682   4.240
63063W        W27007  42.941  43.009   4.603
63064W        W27008  18.656  40.980   4.146
63065W        W27009   7.774  12.856   2.198
63066W        W27010  32.106   8.898   3.750
63067W        W27011  20.268  43.815   4.700
63068W        W27012  21.061  31.601   4.197
63069W        W27013  34.605  33.604  10.429
63070W        W27014  15.638  35.897  12.849
63071W        W27015   6.845  17.630  14.344
63072W        W27016  11.635  22.231   2.286
63073W        W27017   1.266  18.761  10.471
63074W        W27018  39.391  27.074   0.753
63075W        W27019  43.956  42.003  14.021
63076W        W27020  17.751   2.272  13.970
63077W        W27021   7.855  43.817   4.666
63078W        W27022   4.365  42.523  11.589
63079W        W27023  41.410   4.855  10.997
63080W        W27024  20.600  19.688  12.965
63081W        W27025  37.373  19.547  12.940
63082W        W27026  27.568  17.674   1.713
63083W        W27027  22.108  42.521  13.897
63084W        W27028  34.541  21.107  13.843
63085W        W27029  15.624   8.256  12.931
63086W        W27030   6.353  32.086   0.355
63087W        W27031  23.523  40.881   0.293
63088W        W27032  12.791  42.795   1.356
63089W        W27033   2.872   1.837  11.473
63090W        W27034   2.340  44.797  11.885
63091W        W27035  14.130  43.295   4.780
63092W        W27036  16.118  13.737  12.000
63093W        W27037   8.895   1.413   0.733
63094W        W27038  11.356  39.435   1.924
63095W        W27039  33.919  10.151   2.765
63096W        W27040  19.700  36.008   3.212
63097W        W27041  11.675  11.699  11.556
63098W        W27042  26.633  12.154  11.538
63099W        W27043  15.689   2.928   0.941
63100W        W27044  22.239  20.659   1.742
63101W        W27045   2.468  44.452   2.278
63102W        W27046  31.529   2.763  14.393
63103W        W27047  42.815  17.170   3.241
63104W        W27048  16.157  19.044   0.966
63105W        W27049  34.009  17.242   4.804
63106W        W27050  33.011  39.851  11.079
63107W        W27051  43.416  43.376  10.904
63108W        W27052  30.084  14.329   3.701
63109W        W27053  42.803  21.023  12.852
63110W        W27054  34.935   6.349   4.632
63111W        W27055  28.570  38.414  14.814
63112W        W27056   0.982   4.774  11.900
63113W        W27057  28.466  34.555  13.941
63114W        W27058   7.171  21.738  11.036
63115W        W27059  36.376  26.560   4.142
63116W        W27060  35.920  22.088  14.364
63117W        W27061  22.030   5.193  11.503
63118W        W27062  33.980  24.168   2.307
63119W        W27063  24.103  41.506  10.571
63120W        W27064  18.057   4.921   2.886
63121W        W27065   5.898   6.792  11.884
63122W        W27066  28.491  39.436   9.978
63123W        W27067  32.497   0.854   1.428
63124W        W27068  13.706   7.888  12.960
63125W        W27069   9.151  17.774   2.732
63126W        W27070  24.513  23.095   0.396
63127W        W27071  25.187  41.311   3.650
63128W        W27072  40.367  17.233  14.006
63129W        W27073  20.695   7.254  11.075
63130W        W27074  32.089   7.747   4.724
63131W        W27075   0.486  41.392   2.781
63132W        W27076  31.491  14.818   3.846
63133W        W27077   8.265  14.313  12.339
63134W        W27078  19.072  27.557   0.783
63135W        W27079  36.869  28.619  10.970
63136W        W27080  17.299   4.808   1.371
63137W        W27081  30.533  23.214  12.981
63138W        W27082  22.603  27.556   3.781
63139W        W27083  25.059  16.652   2.796
63140W        W27084  27.138   3.757   1.767
63141W        W27085  36.858  42.462  13.982
63142W        W27086  26.006   4.779   3.839
63143W        W27087  14.678  20.713   1.739
63144W        W27088  27.105  34.409  12.504
63145W        W27089  20.100  43.018  12.079
63146W        W27090  27.069   9.330  11.549
63147W        W27091  41.936  41.873   2.229
63148W        W27092  28.152  34.558  10.538
63149W        W27093  19.664   4.385  13.860
63150W        W27094   8.791  13.196  13.049
63151W        W27095   0.893   9.369  13.431
63152W        W27096  36.859  42.471  11.535
63153W        W27097  10.353  37.990   0.397
63154W        W27098  43.969  20.627   0.424
63155W        W27099  13.715  28.503   0.452
63156W        W27100  19.670   2.431  13.836
63157W        W27101  38.892  22.649   3.656
63158W        W27102  15.793  32.946   3.774
63159W        W27103  14.732   4.450  11.567
63160W        W27104  31.971   1.916  12.875
63161W        W27105  19.091  21.682   0.481
63162W        W27106  26.495  38.385   1.316
63163W        W27107   6.795   2.320  14.996
63164W        W27108   4.404  20.533   1.412
63165W        W27109  31.561  17.713   3.806
63166W        W27110  18.693  28.168  10.504
63167W        W27111  22.208  39.476   0.749
63168W        W27112  21.728  14.205   1.413
63169W        W27113  10.275  32.470  11.442
63170W        W27114  43.506  20.701   0.420
63171W        W27115  18.108   9.759   9.634
63172W        W27116  35.892  35.933   3.187
63173W        W27117   6.804   6.412   0.263
63174W        W27118   8.744  33.466   2.662
63175W        W27119  15.159   0.393   3.250
63176W        W27120  37.062   4.287  12.973
63177W        W27121  43.370  26.186  13.437
63178W        W27122  27.960  36.097   1.267
63179W        W27123  44.895  44.937   3.703
63180W        W27124  25.985  23.043  11.039
63181W        W27125   5.805  21.719   0.449
63182W        W27126  25.083  31.565   1.432
63183W        W27127  17.254   7.718   0.334
63184W        W27128  36.850  39.442  12.036
63185W        W27129  22.022  41.948   3.752
63186W        W27130  39.370  17.108  12.921
63187W        W27131  19.779  20.761   2.782
63188W        W27132   1.436  19.630  14.482
63189W        W27133  10.191   6.372   2.681
63190W        W27134  25.471  36.536   4.307
63191W        W27135  22.025  23.021   0.313
63192W        W27136  11.858  30.105  12.970
63193W        W27137  10.322  22.669  11.506
63194W        W27138  29.980  44.270  14.415
63195W        W27139  11.736   2.942   1.727
63196W        W27140  37.468  27.618   2.873
63197W        W27141  33.881  29.541  14.493
63198W        W27142  27.551  39.828  11.877
63199W        W27143  29.479  38.958  11.547
63200W        W27144  10.147  42.480  11.606
63201W        W27145  43.936  33.448  12.967
63202W        W27146   9.166  15.760   0.846
63203W        W27147  13.159  26.103   3.829
63204W        W27148  30.160  12.341  14.301
63205W        W27149  19.674  23.604  14.990
63206W        W27150  28.931   2.466   4.838
63207W        W27151  25.139   0.770   2.759
63208W        W27152  43.384  17.678  14.839
63209W        W27153  34.575  30.111   4.744
63210W        W27154   9.234  19.644  14.011
63211W        W27155  18.594  14.709  14.438
63212W        W27156  29.563  23.097   0.923
63213W        W27157  11.240   0.455   3.293
63214W        W27158   3.285  36.075  12.412
63215W        W27159  28.526   5.331  11.577
63216W        W27160  34.380  16.243  12.908
63217W        W27161   5.804  17.650  10.128
63218W        W27162  37.957  39.495   3.179
63219W        W27163  30.063   6.701  12.451
63220W        W27164  11.747   8.840  13.426
63221W        W27165   1.952  19.588   4.683
63222W        W27166  30.435  39.539  12.957
63223W        W27167   6.351   5.781   0.360
63224W        W27168  43.920  11.135  12.404
63225W        W27169  18.106  43.383  11.582
63226W        W27170  11.135  26.632   1.386
63227W        W27171  18.229  21.135   2.357
63228W        W27172  26.519   5.852  10.566
63229W        W27173   2.265  42.342  10.409
63230W        W27174  39.502  27.447   0.776
63231W        W27175  44.315   9.173  12.987
63232W        W27176   1.449  23.165  13.877
63233W        W27177  25.658  37.353  10.616
63234W        W27178  24.483  26.562  14.357
63235W        W27179  31.578   1.257   4.285
63236W        W27180  32.602  33.571  14.807
63237W        W27181  25.092  20.214   2.259
63238W        W27182  29.544  29.505  11.591
63239W        W27183  23.529  13.662  12.950
63240W        W27184  22.611  31.605   0.253
63241W        W27185  12.239  39.400   3.832
63242W        W27186  36.497   9.360  14.500
63243W        W27187  22.555  28.440  14.368
63244W        W27188  18.079  11.265  11.024
63245W        W27189  12.179  17.255   2.263
63246W        W27190  25.048   4.749  11.059
63247W        W27191   6.895  24.207   1.243
63248W        W27192  37.031  44.335   1.389
63249W        W27193  25.067  40.443   1.886
63250W        W27194  22.060  30.002  11.971
63251W        W27195  20.751   8.849  12.558
63252W        W27196  11.256  13.788  13.851
63253W        W27197  14.802  15.727  13.454
63254W        W27198  21.638  20.170   2.682
63255W        W27199  28.142  27.957   2.227
63256W        W27200  17.780  12.199  12.945
63257W        W27201   3.857  15.708   3.154
63258W        W27202  34.441  13.154  12.982
63259W        W27203  28.440  43.900   4.153
63260W        W27204   6.760  26.149   2.757
63261W        W27205  13.318  15.788   4.321
63262W        W27206   7.332  19.575   4.733
63263W        W27207  10.206  10.212  12.522
63264W        W27208   6.336  17.276   3.174
63265W        W27209   0.294   8.744  10.540
63266W        W27210  33.027  24.678  11.507
63267W        W27211   0.901   6.856   1.889
63268W        W27212  43.774  18.553  11.494
63269W        W27213  37.947   0.334  13.853
63270W        W27214  32.991  35.870   2.364
63271W        W27215  15.307  17.301   4.779
63272W        W27216  37.370  23.023   3.374
63273W        W27217   4.720  28.959  12.955
63274W        W27218  17.565   5.402  10.973
63275W        W27219  21.087  28.562  12.421
63276W        W27220  44.927  32.478  12.852
63277W        W27221   3.746  10.237   4.284
63278W        W27222  42.817  42.800   2.766
63279W        W27223  31.517  26.004  10.481
63280W        W27224  36.439  36.883  14.512
63281W        W27225  13.726   8.809  10.515
63282W        W27226  17.293  26.685  10.509
63283W        W27227   5.719  30.927  12.410
63284W        W27228   9.339  11.138   0.407
63285W        W27229  14.665  24.489  14.812
63286W        W27230  35.887  16.752   0.251
63287W        W27231  38.511   4.373   2.680
63288W        W27232  29.457  40.436   1.776
63289W        W27233   9.263  13.142   4.831
63290W        W27234  22.692   0.757  11.977
63291W        W27235   0.475  38.361   3.662
63292W        W27236  31.503  42.027   3.262
63293W        W27237  29.638  35.591   1.891
63294W        W27238  44.285   0.314   3.156
63295W        W27239  30.632  11.343   4.321
63296W        W27240  41.906  44.796   1.216
63297W        W27241  40.473  10.811  13.821
63298W        W27242  26.070  34.553  10.889
63299W        W27243  10.715  17.119   3.336
63300W        W27244  36.049   2.298  13.009
63301W        W27245  29.978  32.940  12.401
63302W        W27246  27.626  18.629   1.440
63303W        W27247  30.047  18.131   2.747
63304W        W27248  20.211  17.568   4.324
63305W        W27249  36.441  14.835   2.315
63306W        W27250  20.113  34.028  10.583
63307W        W27251  31.625  30.978   0.319
63308W        W27252   3.832  17.664   0.781
63309W        W27253  16.633   1.258  12.551
63310W        W27254  34.020  32.560   2.896
63311W        W27255  21.593  36.388   0.794
63312W        W27256   7.307  37.343   3.344
63313W        W27257  22.045  21.187   3.784
63314W        W27258  22.112  37.415   1.266
63315W        W27259  39.029   4.355   1.923
63316W        W27260  16.757  40.523   0.757
63317W        W27261  37.383  31.067   3.340
63318W        W27262  15.742  36.056   5.256
63319W        W27263  41.464  39.032  14.512
63320W        W27264  25.488  38.853   2.724
63321W        W27265  25.554  12.721   5.116
63322W        W27266   3.858  18.675  12.898
63323W        W27267  27.525  10.788   0.747
63324W        W27268  31.413  33.593   4.813
63325W        W27269  16.626  10.311  13.339
63326W        W27270   2.827   4.812  11.931
63327W        W27271  36.034   7.217   0.363
63328W        W27272  28.133  25.127   3.748
63329W        W27273   6.345  16.605   1.888
63330W        W27274  42.963   6.383  14.011
63331W        W27275  32.553  17.714  11.880
63332W        W27276  11.815   3.742   3.729
63333W        W27277  39.981  29.079   3.308
63334W        W27278  21.720   9.843   3.265
63335W        W27279  15.667  14.162   0.389
63336W        W27280  41.013  33.013   2.280
63337W        W27281  22.662   2.823   0.250
63338W        W27282  38.532   2.259   2.344
63339W        W27283   2.755  19.154   1.443
63340W        W27284  28.456  19.191  11.459
63341W        W27285  19.250   9.223  12.983
63342W        W27286   2.826   8.678   3.732
63343W        W27287  17.143  22.542  12.444
63344W        W27288  25.707   4.702   2.358
63345W        W27289  38.547   6.813   5.745
63346W        W27290  25.994  26.667  13.396
63347W        W27291   2.926  26.564  12.069
63348W        W27292  13.649  30.621   3.838
63349W        W27293  35.108  11.156  14.812
63350W        W27294  20.750  39.460   4.352
63351W        W27295  25.179  42.841  13.996
63352W        W27296  33.950  16.218   1.326
63353W        W27297  11.854   8.837   5.251
63354W        W27298  38.560  38.535  14.982
63355W        W27299   2.407  21.175  11.875
63356W        W27300  30.594  23.225   4.273
63357W        W27301  33.064   2.882  14.461
63358W        W27302  12.622  27.611  11.875
63359W        W27303  35.104  44.861   0.247
63360W        W27304   2.324  13.643  10.421
63361W        W27305  11.722   3.291   2.891
63362W        W27306  17.741  14.247   4.716
63363W        W27307  40.803  17.061  11.885
63364W        W27308   4.728   3.297  11.033
63365W        W27309  30.563  19.698  12.038
63366W        W27310   0.772  38.444   1.787
63367W        W27311  16.721  25.568  13.463
63368W        W27312  34.375  38.553  12.471
63369W        W27313   6.706  16.640   1.755
63370W        W27314  19.545  19.265   0.848
63371W        W27315  18.625  15.616   0.466
63372W        W27316   7.737  41.468  10.638
63373W        W27317  25.486  31.558   2.181
63374W        W27318  25.684  39.040   0.284
63375W        W27319  19.108   5.416  14.787
63376W        W27320   7.272  32.099   4.217
63377W        W27321  18.168  30.440  13.386
63378W        W27322   2.302  38.883   1.253
63379W        W27323   5.300  44.356   2.260
63380W        W27324  18.164   5.250   2.385
63381W        W27325  20.656   3.807   1.411
63382W        W27326  19.692   4.347  13.400
63383W        W27327  18.262  25.589   5.106
63384W        W27328   7.859   4.206  14.812
63385W        W27329   3.769  26.128   3.386
63386W        W27330  39.430  19.668  13.867
63387W        W27331  11.706  42.933  11.513
63388W        W27332  23.184  13.632   0.378
63389W        W27333  21.133  20.530   3.658
63390W        W27334  42.899  37.370  13.513
63391W        W27335  40.009   9.699  12.955
63392W        W27336   3.865   9.248   4.658
63393W        W27337  33.570   6.772   2.364
63394W        W27338   5.710   9.199  11.388
63395W        W27339  13.641  24.544   2.180
63396W        W27340  15.703   0.835  11.999
63397W        W27341  16.648  17.075   1.802
63398W        W27342  24.036  33.030   0.324
63399W        W27343  29.582   7.853  13.331
63400W        W27344  16.086  38.955   2.800
63401W        W27345  17.574  16.629   1.239
63402W        W27346  16.688  30.576   3.314
63403W        W27347   1.936  16.162  14.483
63404W        W27348  38.975  18.570  12.547
63405W        W27349  18.626  43.878   3.702
63406W        W27350  28.516  24.540  13.443
63407W        W27351  21.525  11.688   0.282
63408W        W27352  11.772  17.775   3.784
63409W        W27353   0.969  44.914  11.414
63410W        W27354  44.406  35.469  11.993
63411W        W27355   9.852  33.422  11.968
63412W        W27356   4.823  35.572   4.678
63413W        W27357  12.670  26.089  12.895
63414W        W27358  12.727  15.609  14.000
63415W        W27359  11.810  42.501   2.782
63416W        W27360  34.040   9.151   3.719
63417W        W27361  14.107  31.529   3.773
63418W        W27362  27.526  37.910  11.437
63419W        W27363  39.049  13.801   1.787
63420W        W27364  36.440  34.414  10.554
63421W        W27365  40.036  21.557   0.810
63422W        W27366  38.042  37.462  12.933
63423W        W27367  15.266  12.660  11.460
63424W        W27368  36.025  26.173   2.320
63425W        W27369  22.234   8.270  12.056
63426W        W27370   2.432  28.450  14.774
63427W        W27371  13.634  29.919   2.717
63428W        W27372  36.926  17.217   0.905
63429W        W27373  19.624  42.783   4.200
63430W        W27374  31.529  18.602  12.079
63431W        W27375  11.244  39.377   1.441
63432W        W27376  16.078  36.843  13.837
63433W        W27377  30.131  39.056  13.332
63434W        W27378  38.906  16.088  11.537
63435W        W27379  40.493   8.208  12.843
63436W        W27380  17.712   6.845   1.375
63437W        W27381  20.572  44.409   1.262
63438W        W27382  32.064   1.274   3.268
63439W        W27383  16.090  38.944   9.973
63440W        W27384  39.456  22.048   0.807
63441W        W27385   3.952  26.702  13.490
63442W        W27386  28.072  44.297   2.865
63443W        W27387   1.784  13.812   2.837
63444W        W27388   8.679  10.850   0.404
63445W        W27389  19.246  42.479   2.761
63446W        W27390  35.378  12.684  12.522
63447W        W27391  33.599  12.192   3.318
63448W        W27392  15.742  14.236   1.374
63449W        W27393  34.113  24.591  12.053
63450W        W27394  36.573  15.584   4.145
63451W        W27395  30.544   8.249   3.790
63452W        W27396  14.740  29.623   4.144
63453W        W27397  30.163   3.924  11.468
63454W        W27398  33.510  26.148   4.821
63455W        W27399   6.713   9.678  12.464
63456W        W27400  24.064  34.120  13.458
63457W        W27401  22.080  11.273  11.531
63458W        W27402  38.999  15.761   9.976
63459W        W27403  12.116  37.853   2.194
63460W        W27404  11.715  32.045   5.113
63461W        W27405  41.872  16.179  11.603
63462W        W27406   1.360  19.210   3.355
63463W        W27407  43.995  24.003  10.491
63464W        W27408  27.139   4.943   0.752
63465W        W27409  25.474   3.433  12.346
63466W        W27410   6.686  38.872  13.381
63467W        W27411   4.826   2.392  10.406
63468W        W27412  44.410  12.739  12.973
63469W        W27413  17.246  39.507  11.399
63470W        W27414   7.260   4.279  12.369
63471W        W27415   0.333   6.293  14.983
63472W        W27416   2.436  12.178  13.950
63473W        W27417  11.719  32.919  11.890
63474W        W27418  36.519  38.059  12.437
63475W        W27419  13.688  20.726   0.798
63476W        W27420  12.760  12.701   2.216
63477W        W27421   4.874   8.238  14.454
63478W        W27422   6.834   8.378   0.949
63479W        W27423  35.918  10.799  14.915
63480W        W27424  33.452  31.538  10.585
63481W        W27425   6.750   1.938   0.386
63482W        W27426  37.530  19.213   1.725
63483W        W27427  13.607  18.662   3.343
63484W        W27428  38.960   6.790  11.548
63485W        W27429  12.273  22.612   1.283
63486W        W27430  21.751  40.921   4.791
63487W        W27431  25.019  22.521   0.456
63488W        W27432  18.627  31.997   0.800
63489W        W27433  17.726  11.139   2.841
63490W        W27434  24.541  23.500   4.231
63491W        W27435  33.074  37.915  11.507
63492W        W27436  36.906  23.706  11.120
63493W        W27437   5.199  34.469  12.355
63494W        W27438  28.965  14.821   9.448
63495W        W27439  14.297  33.458  13.792
63496W        W27440  28.619  42.850   4.249
63497W        W27441  34.571   4.832  10.428
63498W        W27442  11.296  36.482   3.347
63499W        W27443  27.510  13.688  13.857
63500W        W27444   5.378  14.214   2.208
63501W        W27445  23.147  17.738  11.455
63502W        W27446  13.692   8.274   0.280
63503W        W27447  17.640  12.839   1.836
63504W        W27448  21.043  30.606   1.247
63505W        W27449  43.506  12.356   4.130
63506W        W27450  22.589  41.470   9.936
63507W        W27451  11.692  37.086   4.804
63508W        W27452   1.429  39.823  11.612
63509W        W27453  32.097  42.861   2.361
63510W        W27454  26.607  42.461  11.379
63511W        W27455  39.456  20.655  12.991
63512W        W27456  31.503   8.699   0.772
63513W        W27457   4.395  41.473   0.340
63514W        W27458  35.987   8.384   2.413
63515W        W27459  20.177  11.196   3.279
63516W        W27460  15.280  30.094  12.077
63517W        W27461  42.026  14.258  10.980
63518W        W27462  39.989  27.092   2.414
63519W        W27463  15.766  28.947  10.629
63520W        W27464  26.591   0.376  12.065
63521W        W27465  25.573  17.758   1.840
63522W        W27466  30.447  28.107  11.598
63523W        W27467  35.057  11.799   3.815
63524W        W27468  18.676  42.407  12.871
63525W        W27469  30.453  32.006  13.539
63526W        W27470  33.403   7.686  11.975
63527W        W27471  15.652  39.809  14.790
63528W        W27472  27.599  16.099   0.959
63529W        W27473  28.619  19.716  12.983
63530W        W27474  40.936   5.808  11.455
63531W        W27475  34.927  27.683   1.227
63532W        W27476  41.880   5.801  10.585
63533W        W27477  18.090  10.813   2.219
63534W        W27478  41.003  16.265  12.445
63535W        W27479  31.478  40.837   2.804
63536W        W27480  11.189  43.277  12.550
63537W        W27481  33.382   8.881   1.429
63538W        W27482  40.909   9.327  14.905
63539W        W27483  16.258  22.249   1.694
63540W        W27484  18.137  32.025  11.041
63541W        W27485  11.764  44.431  13.431
63542W        W27486  34.013  20.662   2.714
63543W        W27487  29.085  34.533  13.463
63544W        W27488  16.753   8.709   2.210
63545W        W27489  33.928  40.453   3.353
63546W        W27490  32.637   6.336   1.916
63547W        W27491  10.691  14.672  12.414
63548W        W27492  30.147  26.040  11.573
63549W        W27493  18.619  35.483  11.451
63550W        W27494  25.591  13.215  13.061
63551W        W27495  32.523  17.714  10.975
63552W        W27496  23.576  39.492  14.845
63553W        W27497   9.815  15.817   2.385
63554W        W27498   9.738  27.544   2.781
63555W        W27499   4.863  17.244   1.831
63556W        W27500  36.090   9.288  13.487
63557W        W27501   1.268  11.257   3.679
63558W        W27502  13.773  23.729   3.669
63559W        W27503   4.713  13.713  11.424
63560W        W27504   1.436  37.886   4.772
63561W        W27505  19.584  21.661  11.489
63562W        W27506   3.798  12.221  12.083
63563W        W27507  30.557  36.540   3.210
63564W        W27508  30.945  16.576   9.459
63565W        W27509   0.257  35.985  11.498
63566W        W27510   2.891   5.426   3.864
63567W        W27511   2.927  28.530  13.318
63568W        W27512  20.673  32.416   4.679
63569W        W27513  43.927  23.637  14.480
63570W        W27514  44.754  29.072   4.706
63571W        W27515  38.899  42.386   2.824
63572W        W27516  39.816  17.728   4.344
63573W        W27517  40.414   2.735   4.630
63574W        W27518  16.112  16.204   2.393
63575W        W27519  24.561  12.651  14.408
63576W        W27520  32.546  29.536   1.247
63577W        W27521  29.593  36.893   0.811
63578W        W27522  16.753  36.383  13.481
63579W        W27523  22.720  26.025  10.457
63580W        W27524   2.237  34.495  10.457
63581W        W27525  44.996  21.695  12.427
63582W        W27526  38.452  13.773   0.830
63583W        W27527  22.047  15.095  13.991
63584W        W27528  22.174  38.450   0.741
63585W        W27529   1.312  28.170  10.926
63586W        W27530  29.064  34.911   3.734
63587W        W27531  22.622  20.757  11.059
63588W        W27532  18.265   7.268   3.861
63589W        W27533  39.383  17.583   4.124
63590W        W27534  38.842  42.404   0.388
63591W        W27535  16.761  10.763   3.869
63592W        W27536  24.527  25.036  13.392
63593W        W27537  25.676  12.362   3.859
63594W        W27538  41.363  24.005   1.753
63595W        W27539   6.295  15.639  14.475
63596W        W27540  43.969  29.426  11.869
63597W        W27541   5.276   3.841  10.594
63598W        W27542  12.300  17.590   4.260
63599W        W27543  28.091  11.129  10.426
63600W        W27544   4.763  13.267   4.271
63601W        W27545  10.168  40.994   4.829
63602W        W27546  27.506  40.465  12.553
63603W        W27547  24.653  22.227  12.494
63604W        W27548  28.675  20.156   0.292
63605W        W27549  13.835  25.159  14.825
63606W        W27550  40.853  25.142   0.312
63607W        W27551   7.324   5.765  11.465
63608W        W27552  24.710  34.542   3.837
63609W        W27553  14.304   9.644  13.361
63610W        W27554  38.025  17.063   1.394
63611W        W27555   3.371  38.327   2.309
63612W        W27556  12.220   4.921   3.369
63613W        W27557  13.311  17.663  13.348
63614W        W27558  35.466  14.117   3.669
63615W        W27559  12.197   5.833   1.932
63616W        W27560  29.962  12.279   1.333
63617W        W27561   6.697  34.100  12.562
63618W        W27562  35.098  37.580  14.432
63619W        W27563  33.619  32.439  14.514
63620W        W27564  34.905   9.686  12.855
63621W        W27565  19.556   6.417   1.742
63622W        W27566  16.218  29.094   0.337
63623W        W27567  18.221  36.004  14.012
63624W        W27568  11.804  40.497  14.833
63625W        W27569  44.820  26.174  13.327
63626W        W27570  31.095   1.875   1.429
63627W        W27571   7.380  22.092   2.276
63628W        W27572  14.278  22.562  13.052
63629W        W27573  19.093  25.612  10.987
63630W        W27574  34.611  20.631  14.009
63631W        W27575  19.111  25.164   2.731
63632W        W27576  41.370   1.241   2.686
63633W        W27577   4.699  35.603  10.410
63634W        W27578  21.149  28.974  10.517
63635W        W27579  44.460  44.273   2.286
63636W        W27580  28.444  39.898  13.439
63637W        W27581   8.763  26.557  14.891
63638W        W27582  32.573  37.835   1.818
63639W        W27583  20.666  24.685   0.866
63640W        W27584   0.281  15.822  12.017
63641W        W27585  42.853  44.993  11.980
63642W        W27586  28.143  33.468  12.094
63643W        W27587  20.239  10.731   2.324
63644W        W27588  43.943   6.866  11.585
63645W        W27589  44.306   5.697  10.969
63646W        W27590  12.660  25.992   0.912
63647W        W27591  11.648  26.191  12.528
63648W        W27592  35.068  16.105   1.736
63649W        W27593  20.144   4.757   0.317
63650W        W27594  12.295  42.951   3.664
63651W        W27595   7.325  22.123   0.310
63652W        W27596  23.704  38.496   4.140
63653W        W27597  22.036  34.948  11.903
63654W        W27598  37.571  37.930   0.813
63655W        W27599  15.688  43.311   4.838
63656W        W27600  31.080   1.480  11.394
63657W        W27601  20.641  35.984   1.838
63658W        W27602  21.077  15.198  12.418
63659W        W27603  11.171  14.149  10.087
63660W        W27604  33.394  21.642   4.323
63661W        W27605  13.751  10.808   2.280
63662W        W27606  41.836  43.003  14.285
63663W        W27607  39.367  19.558   1.875
63664W        W27608   3.924  42.514   0.896
63665W        W27609  30.982  35.567  10.600
63666W        W27610   7.775  17.614  11.587
63667W        W27611  12.139  30.426  13.064
63668W        W27612   7.868  44.355  13.986
63669W        W27613  39.038  32.071   1.249
63670W        W27614  11.188  16.606   4.652
63671W        W27615   4.400  18.733   0.335
63672W        W27616  25.495  34.565   1.423
63673W        W27617  26.534   4.268   0.330
63674W        W27618  33.525  28.525   2.326
63675W        W27619  44.445  25.975  10.438
63676W        W27620  17.231  36.368  11.919
63677W        W27621  38.071  25.082   0.330
63678W        W27622   5.239  33.490  12.383
63679W        W27623  17.085  38.474  12.450
63680W        W27624  32.081  23.702  13.461
63681W        W27625  28.088  11.703   4.343
63682W        W27626   1.393  31.584   2.846
63683W        W27627  21.640  24.089   3.251
63684W        W27628  37.859  35.540  11.456
63685W        W27629  42.510   6.210  10.568
63686W        W27630  15.288  43.903  13.369
63687W        W27631   3.432  24.157   4.354
63688W        W27632  37.928  23.078   3.330
63689W        W27633  12.790  14.128  12.065
63690W        W27634  21.564  19.696  10.562
63691W        W27635  34.506  15.211   1.859
63692W        W27636  26.083   1.876  11.532
63693W        W27637  40.861  18.769   2.328
63694W        W27638  31.124   5.873   1.379
63695W        W27639   8.810  32.056   0.892
63696W        W27640  25.587  21.122  12.541
63697W        W27641  39.356  41.037   4.210
63698W        W27642  24.687   3.783  13.495
63699W        W27643  42.440  33.889   2.324
63700W        W27644  16.693  24.038  10.118
63701W        W27645   8.374   7.686  14.027
63702W        W27646   4.755  41.329   1.858
63703W        W27647  31.438  12.323  14.352
63704W        W27648  18.249  22.604   2.768
63705W        W27649  25.485   9.357   3.634
63706W        W27650  25.514  13.199   3.845
63707W        W27651  28.507   2.765  13.808
63708W        W27652  42.991  28.451   0.478
63709W        W27653   9.227  14.782   2.333
63710W        W27654  21.747  40.518  10.455
63711W        W27655  43.503  19.152  14.286
63712W        W27656  33.604  39.913  14.292
63713W        W27657  10.774  11.763  12.065
63714W        W27658   8.672  15.673   2.830
63715W        W27659  41.787  11.166   3.326
63716W        W27660  34.593   8.823   2.342
63717W        W27661  19.199  26.165   2.792
63718W        W27662  43.481  31.006  12.840
63719W        W27663  14.640  22.695   3.220
63720W        W27664  31.615   2.423   3.748
63721W        W27665  15.694  44.851   0.757
63722W        W27666   4.838  13.206   0.385
63723W        W27667  35.545   2.847  13.460
63724W        W27668  13.657  38.873   0.811
63725W        W27669  16.671  44.453  12.986
63726W        W27670  12.243  22.712  14.416
63727W        W27671   2.250   5.845   4.792
63728W        W27672  10.752   5.689  14.915
63729W        W27673  17.267  27.057   2.231
63730W        W27674  20.671   5.263   1.708
63731W        W27675  35.009  19.089  12.512
63732W        W27676  44.392  15.747   2.361
63733W        W27677  42.023  14.764   3.351
63734W        W27678   6.246  21.093  13.436
63735W        W27679  36.570  41.920   4.745
63736W        W27680  43.339  41.303  12.042
63737W        W27681  27.675  32.441  12.917
63738W        W27682   2.953  29.959  12.569
63739W        W27683  23.639  31.956   4.629
63740W        W27684  42.311  20.267  11.964
63741W        W27685  10.798   2.942   3.260
63742W        W27686  24.037   4.356  12.401
63743W        W27687  20.130  11.824   4.829
63744W        W27688   0.286   0.393  11.956
63745W        W27689   7.807   0.966   3.742
63746W        W27690  31.506  32.418  12.550
63747W        W27691   5.246   7.297  12.361
63748W        W27692  28.545  28.500  11.454
63749W        W27693  23.149  28.442   4.289
63750W        W27694   3.840  26.164  12.454
63751W        W27695  14.748  21.520  14.298
63752W        W27696   0.346  42.433   2.297
63753W        W27697  20.569  39.378   3.836
63754W        W27698  24.120  13.808  12.018
63755W        W27699   9.770  42.891  14.923
63756W        W27700  28.011  25.630   2.393
63757W        W27701  28.052  21.030   0.801
63758W        W27702  15.126  43.844   2.398
63759W        W27703  17.775  20.115   0.745
63760W        W27704   1.295  12.137   3.730
63761W        W27705  31.905   8.250   3.771
63762W        W27706  12.330   2.342  11.086
63763W        W27707  13.704  35.599  14.824
63764W        W27708   7.409  30.521   0.312
63765W        W27709  11.709  23.193   3.711
63766W        W27710  31.444  29.528  10.628
63767W        W27711   1.817   9.883  14.863
63768W        W27712   4.754  24.625  13.413
63769W        W27713  20.211   3.353   2.832
63770W        W27714  43.429   2.287  12.943
63771W        W27715  30.583   3.898   2.345
63772W        W27716  16.117  20.149   2.822
63773W        W27717  11.703  17.717  14.865
63774W        W27718  21.023   9.171   5.151
63775W        W27719  38.424  42.369  14.498
63776W        W27720  44.953  20.117  13.841
63777W        W27721  36.446   7.353   1.336
63778W        W27722   5.921  26.986   3.676
63779W        W27723  30.084  39.057  11.588
63780W        W27724  14.260  12.266   1.346
63781W        W27725  37.556  44.960  12.900
63782W        W27726  19.744  20.649   2.296
63783W        W27727  26.484  10.207  12.080
63784W        W27728  26.668  13.126  12.421
63785W        W27729   5.411  30.478   1.848
63786W        W27730  19.552  10.186  14.834
63787W        W27731  27.567  23.578   2.398
63788W        W27732  27.972  29.920  11.007
63789W        W27733  17.195   8.322  10.471
63790W        W27734  28.676  43.456  12.383
63791W        W27735  39.560  32.628  10.554
63792W        W27736  13.741  43.771  10.053
63793W        W27737  39.958  19.581   1.238
63794W        W27738  21.749  20.539   2.178
63795W        W27739  10.196  43.771  14.960
63796W        W27740  12.745  33.961  11.495
63797W        W27741  12.766  33.123  14.956
63798W        W27742  33.058  26.620  10.098
63799W        W27743  40.538   0.366   1.217
63800W        W27744  13.660  28.610   3.658
63801W        W27745  27.479  31.569   1.753
63802W        W27746  35.505   1.755   1.449
63803W        W27747  26.054   0.892   2.350
63804W        W27748  28.038   5.783  12.916
63805W        W27749   5.899  40.798  13.820
63806W        W27750  19.539  11.625  13.059
63807W        W27751  21.592   1.765  11.865
63808W        W27752  36.047   9.696   2.330
63809W        W27753  12.130  16.674   9.942
63810W        W27754  38.343  21.717   1.413
63811W        W27755  39.488   7.814   2.417
63812W        W27756   0.897  33.535  12.480
63813W        W27757  16.202  35.573  14.802
63814W        W27758  16.640  21.558   2.179
63815W        W27759  14.284  16.278  13.502
63816W        W27760  28.583  31.995  11.461
63817W        W27761  42.392  24.078   1.771
63818W        W27762  16.705   1.765  12.410
63819W        W27763  34.864  40.971   3.843
63820W        W27764   9.847  41.439   2.243
63821W        W27765  25.580  12.823  10.954
63822W        W27766  12.853   1.821  14.801
63823W        W27767  30.138  34.557   0.419
63824W        W27768  32.021   9.351  14.834
63825W        W27769  26.983  15.622   3.716
63826W        W27770  42.449   8.859  12.558
63827W        W27771  13.627  41.922   3.758
63828W        W27772  20.739  24.006   9.944
63829W        W27773  13.766  22.087  14.295
63830W        W27774   6.874   4.780   9.996
63831W        W27775  32.044  14.609  12.573
63832W        W27776  35.863  20.272  14.815
63833W        W27777   0.854   8.804  13.905
63834W        W27778  24.202   3.849  14.437
63835W        W27779  16.707  43.018  12.530
63836W        W27780  18.714  20.130  13.872
63837W        W27781  43.963  17.122  13.521
63838W        W27782  31.904  39.060  14.373
63839W        W27783  35.853  35.594   3.831
63840W        W27784  30.972  23.060  12.072
63841W        W27785  14.305  37.445  11.476
63842W        W27786  40.007   6.912  13.998
63843W        W27787  42.280  38.549   3.329
63844W        W27788  28.954  16.241  10.116
63845W        W27789   3.848  36.028  10.044
63846W        W27790  23.708  16.198   3.694
63847W        W27791  19.537  38.453  14.851
63848W        W27792  38.413  21.127   0.259
63849W        W27793   7.772  25.675  10.565
63850W        W27794   0.451  34.505  14.353
63851W        W27795  19.046  44.785   0.434
63852W        W27796   5.807  22.539  12.842
63853W        W27797   5.887  41.411   4.308
63854W        W27798  10.760  26.646   0.870
63855W        W27799   8.666  18.582  14.382
63856W        W27800  26.525   6.699  10.404
63857W        W27801   5.773  42.794  10.547
63858W        W27802  19.041  10.849  12.869
63859W        W27803  33.602  16.078   0.448
63860W        W27804  20.732  20.133   2.202
63861W        W27805   2.427  24.231   3.780
63862W        W27806  21.632  41.924  12.029
63863W        W27807  28.070   0.345   2.875
63864W        W27808   8.321   8.680  13.893
63865W        W27809  22.212   5.280  14.288
63866W        W27810  27.181  11.673  10.607
63867W        W27811  20.572  32.929   4.139
63868W        W27812  14.691  27.004   1.824
63869W        W27813  11.256  40.379  12.849
63870W        W27814   8.679  43.803  11.565
63871W        W27815   0.988   4.447  11.443
63872W        W27816  15.765  39.415   3.240
63873W        W27817  38.340  21.105   2.774
63874W        W27818  43.852   8.758  14.436
63875W        W27819   5.905  19.184  11.118
63876W        W27820   4.396  33.117  10.424
63877W        W27821  32.558  22.523   2.198
63878W        W27822  36.558  30.466   4.315
63879W        W27823   3.758  27.577   3.665
63880W        W27824   0.336  22.179  13.382
63881W        W27825  12.790  13.672  14.027
63882W        W27826  23.556  36.926   2.838
63883W        W27827  42.284  29.641   1.717
63884W        W27828  27.491  31.130   4.743
63885W        W27829   6.841  31.045  13.378
63886W        W27830   5.391   6.227  13.032
63887W        W27831  10.282  19.771  13.064
63888W        W27832  44.463  22.019   4.619
63889W        W27833  43.913  15.289  12.095
63890W        W27834   5.808  14.688  13.814
63891W        W27835  10.300  40.509  10.113
63892W        W27836  37.875  31.007   4.353
63893W        W27837  30.467   3.928  12.900
63894W        W27838  12.255  43.926  11.531
63895W        W27839   2.788   7.742  11.861
63896W        W27840   8.776  18.126   4.665
63897W        W27841  41.484  20.143   2.415
63898W        W27842  24.628  22.231  11.103
63899W        W27843  11.344   3.337   0.430
63900W        W27844   7.807  16.657   1.705
63901W        W27845  36.565  23.201   1.860
63902W        W27846  13.717  33.439   4.157
63903W        W27847  22.668  15.267  14.949
63904W        W27848  23.624  24.691   0.936
63905W        W27849  25.006   0.981   3.676
63906W        W27850  24.008  26.545  13.900
63907W        W27851  18.625  20.216  11.121
63908W        W27852   6.814  13.285   1.442
63909W        W27853   7.805   0.433  11.928
63910W        W27854  36.941  28.081   1.245
63911W        W27855  15.224  17.725  13.325
63912W        W27856   8.707  29.519  14.328
63913W        W27857  17.108  39.456  13.387
63914W        W27858  33.527  24.150  11.926
63915W        W27859  40.373   7.387  12.365
63916W        W27860  10.367  30.977   4.658
63917W        W27861  29.537  36.901  10.890
63918W        W27862  14.194  31.577   1.295
63919W        W27863  22.674  32.059   5.145
63920W        W27864  26.610  44.870  13.416
63921W        W27865   0.469  25.115   4.322
63922W        W27866  16.661  27.481  13.020
63923W        W27867   2.899  15.728  13.470
63924W        W27868  35.360  21.131  14.793
63925W        W27869  41.497   6.196  10.160
63926W        W27870  25.077  11.217  13.965
63927W        W27871  43.453   4.881   0.819
63928W        W27872   0.294  18.283   0.944
63929W        W27873   6.326  28.087   3.839
63930W        W27874   6.698  16.769   0.922
63931W        W27875  28.517  39.024  13.451
63932W        W27876  26.093  31.145   2.292
63933W        W27877  10.782   0.938   3.254
63934W        W27878  24.567  35.512  12.015
63935W        W27879  29.667   8.221   2.778
63936W        W27880  14.221  24.712  13.323
63937W        W27881  41.870  40.874   1.265
63938W        W27882   6.756  24.583   4.333
63939W        W27883  35.523   1.826  12.433
63940W        W27884   6.780  18.578   4.169
63941W        W27885  41.018  43.293   1.380
63942W        W27886   1.384   1.765  13.834
63943W        W27887  39.527  24.080   4.267
63944W        W27888   1.949  43.274   0.388
63945W        W27889  27.052   0.790  11.918
63946W        W27890  21.263  43.996  11.552
63947W        W27891  40.877  11.151   3.272
63948W        W27892  10.151  39.854  13.334
63949W        W27893  21.601   2.333  14.800
63950W        W27894  20.085   3.402   0.307
63951W        W27895  20.065   4.324  12.946
63952W        W27896  11.739  42.882  11.095
63953W        W27897  43.810  12.154   3.378
63954W        W27898  43.453  34.889   1.893
63955W        W27899   8.213   0.760   0.779
63956W        W27900  20.638  27.500  10.430
63957W        W27901   1.892  25.643  10.510
63958W        W27902  38.448  35.479   1.718
63959W        W27903  38.041  25.626  12.562
63960W        W27904   0.274  19.754  13.953
63961W        W27905   0.468  31.594  14.466
63962W        W27906  40.853  20.739   3.146
63963W        W27907  40.880   3.289  11.067
63964W        W27908   2.750  21.227  13.330
63965W        W27909  28.065   7.183  11.049
63966W        W27910  32.115  30.654   3.384
63967W        W27911  21.724  10.254  13.051
63968W        W27912  27.132   2.936   1.437
63969W        W27913  29.623  28.145   0.867
63970W        W27914  30.153   1.739  14.988
63971W        W27915  22.639  17.556   4.758
63972W        W27916   6.242  10.250  10.899
63973W        W27917   7.391  38.913  11.979
63974W        W27918  39.549  10.639  13.314
63975W        W27919   8.827  20.668   2.405
63976W        W27920  31.646  22.559  11.982
63977W        W27921  32.545  27.532  10.421
63978W        W27922  27.115  30.939  13.544
63979W        W27923   3.956  18.665   1.340
63980W        W27924   7.368  35.905  12.534
63981W        W27925   9.294  33.530   2.301
63982W        W27926  18.684  24.201  11.071
63983W        W27927   8.837   3.440  14.906
63984W        W27928  27.072  25.492   1.925
63985W        W27929  31.499  25.707   4.265
63986W        W27930  33.121  35.992   4.808
63987W        W27931   3.763  16.793   4.199
63988W        W27932  15.207   7.328  11.894
63989W        W27933   4.350  19.701  12.504
63990W        W27934  15.794  13.655   1.725
63991W        W27935  31.639  12.207   4.122
63992W        W27936   4.769  41.336  11.901
63993W        W27937   4.848  14.742   0.403
63994W        W27938  42.963  29.932   4.308
63995W        W27939  21.062  22.657  14.801
63996W        W27940  13.334  28.174   4.275
63997W        W27941  38.066  12.211  14.414
63998W        W27942  16.668   7.333  12.857
63999W        W27943  18.078   5.220   3.353
64000W        W27944  31.497  10.788   2.682
64001W        W27945  20.671  26.135   3.701
64002W        W27946  14.791   3.305   3.286
64003W        W27947   8.695  34.039   2.302
64004W        W27948  29.117  39.975  14.011
64005W        W27949  31.474  43.364  13.372
64006W        W27950   3.254  41.383  14.825
64007W        W27951   4.803  19.264  14.453
64008W        W27952  32.574  26.534   3.730
64009W        W27953   6.746  44.301   2.869
64010W        W27954   8.740   7.820   3.674
64011W        W27955  16.136   1.330   3.771
64012W        W27956  32.944  33.434   2.260
64013W        W27957  42.410  16.812   4.157
64014W        W27958  12.727  13.685   2.391
64015W        W27959  18.260   2.740   1.341
64016W        W27960  13.184  18.116  13.449
64017W        W27961  11.746  44.321   0.923
64018W        W27962  22.591  26.503   5.101
64019W        W27963   1.966  16.672  11.915
64020W        W27964  40.905  27.090  12.975
64021W        W27965  16.680  29.488   1.265
64022W        W27966  29.467  37.510   4.250
64023W        W27967  23.615  20.627  14.429
64024W        W27968  15.815  29.489   3.821
64025W        W27969  10.868   4.848   3.270
64026W        W27970   5.886  41.476   0.770
64027W        W27971  43.932   0.409   3.181
64028W        W27972  29.504  31.026  12.503
64029W        W27973  43.314  31.930   2.285
64030W        W27974  26.639  10.147  11.093
64031W        W27975  11.641  38.044  10.889
64032W        W27976  16.143   2.721   1.362
64033W        W27977  22.105  42.340  11.490
64034W        W27978  34.939  10.845  14.485
64035W        W27979  10.199   3.383  11.034
64036W        W27980  13.766  38.335   4.190
64037W        W27981  20.647  10.207   3.183
64038W        W27982   6.887  23.135  11.588
64039W        W27983  36.083  13.240   4.189
64040W        W27984  12.218  29.632  13.939
64041W        W27985  22.075  26.557   0.398
64042W        W27986  17.614  36.085  10.890
64043W        W27987   6.386  30.453  13.960
64044W        W27988  10.203  14.303  14.505
64045W        W27989  13.633  22.010  11.976
64046W        W27990  28.957  20.761  14.336
64047W        W27991  21.672  22.214  12.356
64048W        W27992   7.196  38.540   3.852
64049W        W27993  31.124   2.290  14.912
64050W        W27994  16.593  34.390  10.014
64051W        W27995  40.985   2.727  10.615
64052W        W27996  41.296  19.723  14.766
64053W        W27997  27.531   3.369   0.356
64054W        W27998  34.368   5.271  10.971
64055W        W27999  19.637  16.792  13.380
64056W        W28000   7.195  43.293  11.522
64057W        W28001   3.803  21.185  10.593
64058W        W28002  39.880  29.594  11.595
64059W        W28003  36.484  39.959  13.365
64060W        W28004   4.798   3.320   2.403
64061W        W28005  41.506  11.800   2.837
64062W        W28006   0.344  29.973   0.765
64063W        W28007  41.960  16.586   2.697
64064W        W28008   2.927  25.599   2.828
64065W        W28009  25.203  10.143   4.340
64066W        W28010  12.688  29.168   0.962
64067W        W28011  23.603  44.303   3.732
64068W        W28012  12.233  15.257  13.886
64069W        W28013  36.015  41.817   2.191
64070W        W28014  14.172   6.250   4.732
64071W        W28015   7.195  37.997  10.923
64072W        W28016  13.635   3.294   9.641
64073W        W28017  38.552  17.257   2.669
64074W        W28018  10.169   4.333  13.820
64075W        W28019  19.681  23.067   0.889
64076W        W28020   0.854  36.961  10.538
64077W        W28021   0.975  37.437   4.190
64078W        W28022  13.659  13.617   3.782
64079W        W28023  32.024   0.368  11.115
64080W        W28024  36.035  24.720   3.151
64081W        W28025  10.244  36.475  14.364
64082W        W28026  44.463  12.792  11.592
64083W        W28027  12.164  24.104   4.725
64084W        W28028  21.062   1.886   3.267
64085W        W28029  31.955  10.635   1.451
64086W        W28030   5.339  27.946  12.472
64087W        W28031  40.505   0.855  11.090
64088W        W28032  34.611  14.271   0.323
64089W        W28033   1.812  23.130  10.430
64090W        W28034  42.826  16.800  11.476
64091W        W28035  28.991  36.034   1.877
64092W        W28036  42.305  17.213  14.353
64093W        W28037   4.332  20.105   0.409
64094W        W28038  25.493   7.352   3.842
64095W        W28039  22.239  19.141   1.396
64096W        W28040  22.174  26.988  11.024
64097W        W28041  31.998  34.499  13.386
64098W        W28042  19.699  41.860  14.323
64099W        W28043  42.352  31.613   4.663
64100W        W28044   6.802   7.193  13.951
64101W        W28045  30.030  21.669  11.526
64102W        W28046  15.796  15.126  12.832
64103W        W28047  27.086  36.448  11.044
64104W        W28048  16.152  20.717  14.904
64105W        W28049  41.798   6.867   4.749
64106W        W28050  25.632   6.777   0.366
64107W        W28051  39.963  10.284   0.448
64108W        W28052   0.464  22.124   1.870
64109W        W28053   8.307  36.025  10.514
64110W        W28054  44.307  42.334   1.872
64111W        W28055  10.777  15.715  11.095
64112W        W28056  34.048  12.125  10.458
64113W        W28057  34.086  25.602   0.368
64114W        W28058   1.944  41.377   3.247
64115W        W28059   5.844  19.212  12.017
64116W        W28060  26.970  25.134  11.930
64117W        W28061  15.804  20.236  11.044
64118W        W28062  32.483  28.133   0.926
64119W        W28063  36.411  35.068   1.880
64120W        W28064  17.102  32.080  14.883
64121W        W28065   0.264  20.756  10.601
64122W        W28066   0.934  44.822   0.822
64123W        W28067  39.062  24.497   1.703
64124W        W28068  28.933  21.235   3.750
64125W        W28069  22.596  29.947  13.403
64126W        W28070  25.538  27.483  10.553
64127W        W28071   8.779   8.802   2.353
64128W        W28072  43.838  22.214   1.280
64129W        W28073  21.546  36.516  11.413
64130W        W28074  29.494   0.988   1.328
64131W        W28075  16.618  16.305   3.680
64132W        W28076  41.414  15.580  11.027
64133W        W28077   2.245  35.497  14.835
64134W        W28078  12.261  43.949  13.978
64135W        W28079  44.281   3.797   0.247
64136W        W28080  15.238  11.686   4.707
64137W        W28081  21.211  37.986  13.813
64138W        W28082   8.220  31.956   3.381
64139W        W28083  28.530   4.839  11.469
64140W        W28084  21.633  37.915   4.758
64141W        W28085  14.690   6.870  13.862
64142W        W28086  11.330  37.580   1.888
64143W        W28087  19.773  41.846   4.784
64144W        W28088  39.533  28.630  12.901
64145W        W28089   8.896  17.279   4.190
64146W        W28090  10.754  34.571   2.380
64147W        W28091  29.608  18.758   1.805
64148W        W28092  40.548   6.218   4.695
64149W        W28093  41.365  20.707   2.819
64150W        W28094  29.434  35.998  11.987
64151W        W28095   1.323  31.977  13.924
64152W        W28096  44.303  40.430   5.301
64153W        W28097  30.992  44.409  11.099
64154W        W28098  35.988  18.600  12.561
64155W        W28099  41.909  32.580  14.380
64156W        W28100  29.472  25.042  11.000
64157W        W28101  29.064  35.058  13.398
64158W        W28102  24.613  33.569   1.346
64159W        W28103   5.788  11.742  13.497
64160W        W28104  43.829  41.323   2.801
64161W        W28105  11.732  19.721   4.689
64162W        W28106   2.465   5.332   1.282
64163W        W28107  40.520  29.577  11.577
64164W        W28108  26.486  25.071  12.973
64165W        W28109   1.877  43.829  12.032
64166W        W28110  24.177  18.787   3.383
64167W        W28111  21.641  17.246  12.497
64168W        W28112   2.864  36.994   4.623
64169W        W28113   4.416  20.746  14.797
64170W        W28114   2.346  22.051  14.370
64171W        W28115  24.589   9.354   0.860
64172W        W28116  36.379   6.244   3.808
64173W        W28117  10.244   8.786   1.403
64174W        W28118  23.507  42.831  12.385
64175W        W28119  44.404  43.811   0.361
64176W        W28120  34.374  27.465  12.393
64177W        W28121  22.589  26.559   4.767
64178W        W28122  10.189  44.493   2.840
64179W        W28123  18.051  33.436  11.382
64180W        W28124  44.869  25.593   1.451
64181W        W28125  32.506  19.248   3.209
64182W        W28126  22.649  34.494  12.359
64183W        W28127  36.060  41.463  11.376
64184W        W28128  42.863  31.925  12.427
64185W        W28129  11.287   6.286   0.890
64186W        W28130   7.186   2.334   2.859
64187W        W28131  40.893  39.373   2.343
64188W        W28132  33.924  12.345  14.808
64189W        W28133  19.149  42.511  12.445
64190W        W28134   9.821  15.811  11.410
64191W        W28135   6.383  30.151  12.442
64192W        W28136  39.432  27.528   2.326
64193W        W28137  30.151  14.298  11.419
64194W        W28138  40.543   6.249   0.867
64195W        W28139  12.722  26.530   4.327
64196W        W28140  20.618  23.710  10.058
64197W        W28141  25.138  21.211  12.364
64198W        W28142   8.166  28.504  14.477
64199W        W28143  32.411  10.710   1.778
64200W        W28144   1.849  43.270  11.468
64201W        W28145  26.603   4.720   3.692
64202W        W28146  30.530  44.873  11.863
64203W        W28147  29.587  41.522   2.291
64204W        W28148  27.451  23.529  10.972
64205W        W28149  41.502  34.537  11.564
64206W        W28150  18.059  37.465   4.137
64207W        W28151  35.036  32.617  14.425
64208W        W28152   4.420  19.052   3.752
64209W        W28153  22.184  25.589  10.898
64210W        W28154  13.679  21.087   3.382
64211W        W28155  19.186   9.315  10.153
64212W        W28156  40.517  13.765  11.906
64213W        W28157  21.171   3.719   5.095
64214W        W28158  30.934  14.241   0.954
64215W        W28159  24.510   0.318  12.896
64216W        W28160  21.697  21.618   2.893
64217W        W28161  12.310  10.731  10.956
64218W        W28162  13.671  37.469  12.032
64219W        W28163  41.978  17.115  11.501
64220W        W28164  40.438  28.949  12.487
64221W        W28165  32.607  24.631   0.286
64222W        W28166  35.456   3.293  14.951
64223W        W28167   6.864  35.602   1.257
64224W        W28168  28.676  12.280  14.284
64225W        W28169  13.173  38.933   1.848
64226W        W28170  11.305   8.719   4.336
64227W        W28171   0.958  34.515  11.422
64228W        W28172   2.940  21.091   0.346
64229W        W28173  18.083  33.024   4.767
64230W        W28174   1.865  38.954   0.798
64231W        W28175  41.535   3.928  12.999
64232W        W28176  20.052  25.600  14.844
64233W        W28177  39.333  42.479   0.372
64234W        W28178  18.619  10.330  13.534
64235W        W28179  33.038   3.879   2.806
64236W        W28180   7.781   7.314  12.000
64237W        W28181  13.612   4.933   3.760
64238W        W28182  20.666   9.330   3.272
64239W        W28183  38.548  37.522  12.400
64240W        W28184  11.267  16.100   2.711
64241W        W28185  19.759  12.313   3.177
64242W        W28186  32.395   0.263   1.706
64243W        W28187   7.356  41.859  12.381
64244W        W28188  19.200   7.863   0.848
64245W        W28189  41.043  22.558  13.820
64246W        W28190  33.422  10.686   3.665
64247W        W28191  15.602  10.868  12.534
64248W        W28192  21.671  15.302  14.456
64249W        W28193   9.168  44.283  10.008
64250W        W28194  42.893  40.316   5.321
64251W        W28195   8.397  17.667  12.978
64252W        W28196  17.102  33.032  12.486
64253W        W28197  28.486  40.418  13.507
64254W        W28198  26.645  36.510   2.195
64255W        W28199  41.318  41.483  11.377
64256W        W28200  13.813   7.189  14.305
64257W        W28201  32.915  12.700   2.685
64258W        W28202  26.464  12.132  12.561
64259W        W28203   2.951   7.280  11.388
64260W        W28204  25.968   8.674  11.594
64261W        W28205   1.744  43.310   4.246
64262W        W28206  25.041   4.826  12.366
64263W        W28207  32.459   5.225   4.261
64264W        W28208  13.831   3.218  13.989
64265W        W28209  40.044  37.517   5.109
64266W        W28210   2.328  30.554   3.245
64267W        W28211  12.649  34.010   4.753
64268W        W28212  44.317  16.785  10.535
64269W        W28213  39.553   3.319   2.225
64270W        W28214  30.648  17.216  14.976
64271W        W28215  35.069  33.473   3.279
64272W        W28216  19.190  18.655   1.709
64273W        W28217  17.107  25.689  12.480
64274W        W28218  13.276  39.459   2.893
64275W        W28219   0.834  22.501   2.670
64276W        W28220  23.064  28.181  13.818
64277W        W28221  42.843  39.367   1.277
64278W        W28222   2.854  39.407   3.353
64279W        W28223   6.901   1.321   0.400
64280W        W28224   9.745   4.214  12.851
64281W        W28225  18.714  22.705  10.989
64282W        W28226  19.709  11.780   1.758
64283W        W28227  29.591  31.010  13.427
64284W        W28228  42.986  29.467  10.440
64285W        W28229  36.426  29.049   4.662
64286W        W28230  24.048   0.290  14.943
64287W        W28231   7.191   0.327  10.908
64288W        W28232  31.063  19.616  12.015
64289W        W28233  35.987  22.246  10.524
64290W        W28234  24.725  37.862  11.429
64291W        W28235   9.818  16.193   3.729
64292W        W28236   5.895  27.185   4.309
64293W        W28237  25.977   6.871   1.355
64294W        W28238   2.363  43.361  12.491
64295W        W28239  43.435  28.019   4.748
64296W        W28240   2.801  27.645   2.260
64297W        W28241  25.182   7.361  10.928
64298W        W28242  38.829  32.967   2.822
64299W        W28243   5.265   2.384   4.775
64300W        W28244  30.565  17.639  13.456
64301W        W28245  32.990   9.746   3.806
64302W        W28246   5.858  11.338   0.341
64303W        W28247  27.569  20.175  12.409
64304W        W28248  27.095   9.194   2.877
64305W        W28249  26.128  22.129  11.123
64306W        W28250  40.366   4.435   0.966
64307W        W28251  30.102  40.813   5.786
64308W        W28252   2.841  23.217  10.575
64309W        W28253  13.712  13.836   0.357
64310W        W28254  29.073  14.185  11.551
64311W        W28255  38.895  15.227  13.503
64312W        W28256  36.348  19.094   3.698
64313W        W28257  18.076  39.956   3.383
64314W        W28258  42.792  31.912  14.785
64315W        W28259  19.177  24.643  13.379
64316W        W28260  28.581   3.240  14.469
64317W        W28261  19.052   4.810   1.321
64318W        W28262   3.806  43.306   3.204
64319W        W28263  27.960   2.929   2.248
64320W        W28264  42.897   0.835  13.373
64321W        W28265  26.207  17.177   1.230
64322W        W28266  26.999  16.207   5.309
64323W        W28267  40.942  23.538  12.074
64324W        W28268  34.084  42.958   2.703
64325W        W28269  34.110   3.316  14.486
64326W        W28270  24.534   7.793   0.832
64327W        W28271   9.157  35.487   0.858
64328W        W28272   0.773  21.186   5.097
64329W        W28273  34.996  18.127  11.410
64330W        W28274  33.126   0.344  12.494
64331W        W28275  22.148  15.241   2.322
64332W        W28276   6.295  14.680   1.270
64333W        W28277  28.186  36.426  11.403
64334W        W28278  38.007  43.856  14.924
64335W        W28279   6.855  41.930  11.604
64336W        W28280   6.752   9.184  11.873
64337W        W28281  24.128  23.227  13.064
64338W        W28282  17.738   7.757   1.804
64339W        W28283  21.064  31.515   0.784
64340W        W28284  26.189   5.385   0.881
64341W        W28285  36.096   6.417   3.356
64342W        W28286  42.983  11.678   1.405
64343W        W28287  22.197  37.372  10.588
64344W        W28288  14.653  13.107   1.437
64345W        W28289   0.425  17.062  11.449
64346W        W28290  38.889  18.257   4.190
64347W        W28291  15.329   3.362  12.938
64348W        W28292  30.622  24.695   2.374
64349W        W28293  22.244  21.086   4.264
64350W        W28294  32.577  38.822   4.321
64351W        W28295  41.444  27.992   0.441
64352W        W28296  24.053  20.058  14.400
64353W        W28297  11.310  14.335   3.821
64354W        W28298  16.643  14.831   4.741
64355W        W28299  14.808  36.430   2.289
64356W        W28300  39.494  11.816  12.524
64357W        W28301  29.670   2.730   3.753
64358W        W28302  32.939  41.975   3.298
64359W        W28303  18.055  43.436  13.880
64360W        W28304   6.905  34.378  13.479
64361W        W28305  20.099  23.520   3.191
64362W        W28306  18.641   2.396  11.431
64363W        W28307  31.907  30.968   0.474
64364W        W28308  25.596  27.477  13.437
64365W        W28309  34.520  14.141   4.702
64366W        W28310   3.417  33.979   4.153
64367W        W28311  11.622  18.566  10.941
64368W        W28312  31.456   7.787  10.585
64369W        W28313  31.139   0.934   2.364
64370W        W28314  16.211  35.919   3.811
64371W        W28315  37.960  18.142   2.826
64372W        W28316  36.998  20.049  13.005
64373W        W28317  25.554  25.105   3.712
64374W        W28318  36.522  23.705  11.460
64375W        W28319   3.846   3.780   1.382
64376W        W28320  40.944   2.344   0.452
64377W        W28321  37.362  21.737   0.819
64378W        W28322  10.845  13.694   4.822
64379W        W28323  17.654   2.759   3.677
64380W        W28324  16.742  13.196   4.826
64381W        W28325  43.447  38.053  14.286
64382W        W28326   3.226  12.119  11.994
64383W        W28327  20.266  31.046   0.361
64384W        W28328  13.664  39.386   0.764
64385W        W28329   4.916  16.237  12.874
64386W        W28330  16.749  29.622  14.350
64387W        W28331  20.726  13.287   4.295
64388W        W28332  14.621  39.929   1.777
64389W        W28333  28.656   5.339   3.167
64390W        W28334  19.706   3.817  13.546
64391W        W28335  20.571  30.456   4.282
64392W        W28336  13.313  26.523   5.245
64393W        W28337   6.849  12.209  11.104
64394W        W28338  33.469  41.902  10.935
64395W        W28339  14.795  29.141   4.219
64396W        W28340  35.087  22.601  12.360
64397W        W28341  28.639  13.676   1.902
64398W        W28342  25.679   4.396  13.400
64399W        W28343   1.923  33.392  13.349
64400W        W28344  42.968  19.762   2.349
64401W        W28345  37.504  29.069   1.225
64402W        W28346  17.174  43.496   3.314
64403W        W28347   4.732  43.982   4.676
64404W        W28348  25.555  44.422   1.820
64405W        W28349  39.937   8.206  12.928
64406W        W28350  25.144  28.971  13.935
64407W        W28351  21.668  33.589   1.259
64408W        W28352  32.961  36.967   3.797
64409W        W28353   5.389  18.257  12.366
64410W        W28354  29.949  37.425  11.397
64411W        W28355  27.016  21.646   2.178
64412W        W28356   1.289  39.552  12.855
64413W        W28357  12.339  41.462  12.367
64414W        W28358  37.061  36.050   0.449
64415W        W28359  44.379  15.112   2.331
64416W        W28360  41.980  29.972   3.377
64417W        W28361  24.021  14.232   5.154
64418W        W28362  15.150   4.311  14.463
64419W        W28363  10.167   5.225  10.984
64420W        W28364  12.265  33.479   4.323
64421W        W28365  39.497  44.848  11.960
64422W        W28366  19.693  26.076   0.399
64423W        W28367  19.568  44.959   2.278
64424W        W28368  29.172   1.885   1.784
64425W        W28369  18.104  36.846  14.832
64426W        W28370  36.427  42.938   1.886
64427W        W28371   8.228  35.370  14.891
64428W        W28372  41.387  20.565   3.148
64429W        W28373   6.727  14.772   1.787
64430W        W28374  29.653   4.390   2.391
64431W        W28375  43.007  26.961  12.500
64432W        W28376   3.360  21.580  11.883
64433W        W28377   0.260  27.510  13.480
64434W        W28378  15.687  20.608  12.449
64435W        W28379  25.116   1.930   4.257
64436W        W28380  30.002  30.424   1.400
64437W        W28381  11.782   6.217  13.993
64438W        W28382  34.456  36.509  12.411
64439W        W28383  23.115  18.684   4.768
64440W        W28384  40.357  17.593  12.092
64441W        W28385  19.205   5.803   0.395
64442W        W28386  11.806   7.836   4.160
64443W        W28387  35.016  42.959  11.903
64444W        W28388  29.933  19.167  14.437
64445W        W28389  28.991  28.123   4.823
64446W        W28390  30.551   0.319   0.334
64447W        W28391  23.189  19.202  12.535
64448W        W28392   1.252  35.897   2.671
64449W        W28393  33.121  26.485   3.796
64450W        W28394   6.843  34.469  10.486
64451W        W28395  38.482  30.156   2.331
64452W        W28396  10.700  31.122  11.056
64453W        W28397  19.183  15.824   4.787
64454W        W28398  32.605  41.330   1.298
64455W        W28399  10.817  33.103  13.933
64456W        W28400  34.945  11.630  10.516
64457W        W28401  23.661  40.387   0.729
64458W        W28402  28.482  28.080   1.272
64459W        W28403   9.280  12.198  11.436
64460W        W28404  18.624   9.381   1.214
64461W        W28405  34.399  38.363   4.754
64462W        W28406  19.052  11.799   1.709
64463W        W28407  19.695   8.187  13.416
64464W        W28408  34.011   6.840  11.515
64465W        W28409  22.173  24.156  11.423
64466W        W28410  20.169  12.334  11.883
64467W        W28411   7.175  36.549  12.387
64468W        W28412  21.576  43.396  12.464
64469W        W28413   7.739  31.604  14.009
64470W        W28414  26.580  21.222  13.536
64471W        W28415  29.116   5.925  13.431
64472W        W28416  15.699  42.831   2.852
64473W        W28417  28.091  42.888   4.693
64474W        W28418  23.693  38.419  10.555
64475W        W28419  13.797  15.778  14.300
64476W        W28420  26.518  12.727  10.115
64477W        W28421  13.681  28.570   3.196
64478W        W28422  27.002  23.098  11.563
64479W        W28423  15.770  38.339  14.310
64480W        W28424  15.592  26.566  10.507
64481W        W28425  36.573  30.522   2.892
64482W        W28426  34.401  33.384  11.062
64483W        W28427  25.692   3.302   3.686
64484W        W28428   8.203  23.152  13.038
64485W        W28429   7.764   6.780  11.056
64486W        W28430  15.192  39.498  13.842
64487W        W28431   4.211  33.059   3.269
64488W        W28432  42.505  15.766   1.735
64489W        W28433  25.203  34.455  12.557
64490W        W28434  18.107  17.274   1.215
64491W        W28435  13.614   9.767   2.794
64492W        W28436   9.821  19.677   2.797
64493W        W28437   1.243  42.511  10.591
64494W        W28438  34.614  29.058   4.297
64495W        W28439   9.766   8.785   1.896
64496W        W28440  28.010  36.448  14.023
64497W        W28441  11.310  37.339  11.886
64498W        W28442  19.774   5.863  10.475
64499W        W28443   8.859  37.350   2.270
64500W        W28444  31.589  16.655  11.888
64501W        W28445   1.346  12.319  11.407
64502W        W28446  26.137  16.606  11.010
64503W        W28447  19.215  10.296   3.639
64504W        W28448  39.931   4.815  13.052
64505W        W28449  16.180  15.220   1.343
64506W        W28450  23.521  23.715   2.384
64507W        W28451  27.589  33.068   3.366
64508W        W28452   8.847  18.204   4.119
64509W        W28453  28.482   0.845  12.042
64510W        W28454  24.138   7.253   2.367
64511W        W28455  11.821  17.271   0.418
64512W        W28456  20.705  15.790   0.284
64513W        W28457  24.611  38.900   1.929
64514W        W28458  22.009  15.785   9.943
64515W        W28459  22.018  18.072   4.354
64516W        W28460   0.889  30.604   9.938
64517W        W28461  18.579  38.929   3.692
64518W        W28462  19.203  10.812  10.133
64519W        W28463   1.751  22.676   4.217
64520W        W28464  25.643  21.614  10.463
64521W        W28465  21.112  38.991  13.021
64522W        W28466  38.865  34.977  11.111
64523W        W28467  29.943   9.765   0.363
64524W        W28468  41.504   4.322  14.305
64525W        W28469  19.714  28.175  13.946
64526W        W28470  28.577   2.367  10.983
64527W        W28471  26.605   7.696  11.934
64528W        W28472  29.641  12.134  11.390
64529W        W28473   2.347  15.264   1.874
64530W        W28474  34.931  28.569  13.476
64531W        W28475   8.809  41.038   2.300
64532W        W28476   9.344  16.743  11.587
64533W        W28477  34.557  32.455   2.371
64534W        W28478  21.609  12.686   4.127
64535W        W28479  34.115  43.344   3.843
64536W        W28480  15.181  21.062   0.357
64537W        W28481  18.064   4.869   0.347
64538W        W28482  10.714  28.467  14.478
64539W        W28483   8.189   1.947   3.244
64540W        W28484  35.556  11.244  11.601
64541W        W28485  39.555  38.333  10.491
64542W        W28486  34.997  16.674   2.357
64543W        W28487   1.753  41.329   2.811
64544W        W28488   6.707  12.709  11.515
64545W        W28489  21.701  28.579   4.166
64546W        W28490  35.394   7.814  11.575
64547W        W28491  37.994  18.061   0.858
64548W        W28492   7.675   2.332   2.901
64549W        W28493  29.650   3.269   3.704
64550W        W28494  42.929  11.159   4.121
64551W        W28495  38.829   8.766   3.855
64552W        W28496   5.197  17.796  13.997
64553W        W28497  30.009  19.125  12.476
64554W        W28498  23.514  36.012  14.896
64555W        W28499  36.486  12.229  13.476
64556W        W28500  27.680   1.236   4.618
64557W        W28501   1.282  24.715  12.833
64558W        W28502  34.924  30.016  11.438
64559W        W28503  33.623   6.870   4.817
64560W        W28504  15.724  15.648   1.760
64561W        W28505  14.103  42.956  14.974
64562W        W28506  37.927  13.738  14.834
64563W        W28507   2.307  44.324   1.706
64564W        W28508  31.485  41.403  10.054
64565W        W28509  11.724  24.681  11.417
64566W        W28510  11.132  36.425  10.988
64567W        W28511  21.032  33.053  10.579
64568W        W28512  41.939  44.977  10.452
64569W        W28513  39.934   3.716   0.300
64570W        W28514   3.888  33.049   2.275
64571W        W28515  18.587  20.252  14.801
64572W        W28516  44.329  14.261   4.188
64573W        W28517  33.072  36.536  13.545
64574W        W28518  19.270  15.581  12.059
64575W        W28519  24.071   8.333  11.576
64576W        W28520  24.079   2.756  11.046
64577W        W28521  43.864   4.284  12.939
64578W        W28522  30.981  22.661   5.146
64579W        W28523   4.792  18.611   4.335
64580W        W28524   3.252   5.233  12.073
64581W        W28525   8.776  21.720  12.899
64582W        W28526  18.779  26.610   1.803
64583W        W28527  33.513   0.416   3.869
64584W        W28528  40.047  24.605  11.867
64585W        W28529  21.019  42.847   0.855
64586W        W28530  14.748  12.182  12.423
64587W        W28531  36.010  28.041   0.285
64588W        W28532   7.774  20.216  13.438
64589W        W28533  28.600  23.728  10.619
64590W        W28534  44.354  25.059   3.850
64591W        W28535  39.373  42.320   2.716
64592W        W28536  43.860  16.662   2.349
64593W        W28537  39.053  13.345   2.318
64594W        W28538   5.810  24.978   4.627
64595W        W28539  27.984  12.654  14.958
64596W        W28540   9.783  35.485   3.642
64597W        W28541  44.411  39.364  14.315
64598W        W28542  11.315  21.227   0.329
64599W        W28543  33.107  30.522  11.598
64600W        W28544  11.665  20.768   2.409
64601W        W28545  27.667  15.144  11.915
64602W        W28546  27.054  33.609  14.319
64603W        W28547  31.637  20.065   0.881
64604W        W28548  22.735  15.654   3.309
64605W        W28549  23.230  11.317  12.891
64606W        W28550   8.864  11.220  13.829
64607W        W28551  32.613  19.089   0.735
64608W        W28552  23.532  36.966  12.490
64609W        W28553  41.929  44.839   1.855
64610W        W28554   0.798  16.668   3.251
64611W        W28555  35.470   5.783  11.048
64612W        W28556  44.948  30.049   1.745
64613W        W28557   4.852  17.112   4.632
64614W        W28558  14.105   8.888  12.463
64615W        W28559  38.459  37.847   2.352
64616W        W28560  27.120  42.468  14.827
64617W        W28561   1.790  23.994   3.810
64618W        W28562  24.632  32.490   0.327
64619W        W28563  11.217   7.842  11.488
64620W        W28564   3.853  18.118   3.194
64621W        W28565  10.638  30.071   0.404
64622W        W28566   0.371   9.867   1.767
64623W        W28567  23.239   5.721   0.947
64624W        W28568  33.076  41.511   2.195
64625W        W28569  20.739  19.151  13.402
64626W        W28570  24.675  38.839   0.245
64627W        W28571  32.415  11.838   3.199
64628W        W28572  42.946   9.652  13.814
64629W        W28573  18.640  14.682  12.339
64630W        W28574  26.167  37.015  10.492
64631W        W28575  28.000   1.289   0.324
64632W        W28576  18.687  40.518   2.894
64633W        W28577   9.302  12.628  11.401
64634W        W28578  26.146  36.543  12.580
64635W        W28579  35.489  37.889  11.592
64636W        W28580  17.691  38.442  13.469
64637W        W28581  13.234   9.679   0.243
64638W        W28582  31.647  17.746   0.458
64639W        W28583  29.609  19.606   3.664
64640W        W28584  20.232  22.152  12.012
64641W        W28585  10.711  15.701   3.798
64642W        W28586  21.696  24.520  14.896
64643W        W28587  20.533  44.393   4.200
64644W        W28588  15.719  10.850  11.069
64645W        W28589  12.683  33.984  12.080
64646W        W28590  18.645  21.076  13.839
64647W        W28591  15.137  23.550  12.528
64648W        W28592  18.164  22.198   0.948
64649W        W28593  18.185   2.345  13.034
64650W        W28594  20.580  37.922  13.907
64651W        W28595  14.721   4.916   4.781
64652W        W28596  38.952   3.803  10.428
64653W        W28597  37.472  30.077  10.460
64654W        W28598  12.748  40.892   1.826
64655W        W28599   8.686   7.323   1.903
64656W        W28600  17.558  31.915  13.472
64657W        W28601  39.997  19.282  12.406
64658W        W28602  10.275  13.628  14.952
64659W        W28603  31.960  15.145   4.227
64660W        W28604  19.262   4.431   2.828
64661W        W28605  14.673   3.720  14.926
64662W        W28606  20.765  11.807  14.814
64663W        W28607  43.304   0.294   0.455
64664W        W28608   2.250  15.201  12.002
64665W        W28609   1.363  30.554  12.515
64666W        W28610  15.763  25.070   2.833
64667W        W28611  41.397   5.736   2.748
64668W        W28612  25.106  25.055   4.270
64669W        W28613   5.819  43.281  13.534
64670W        W28614   7.385  38.984  13.349
64671W        W28615   4.702  14.168  14.501
64672W        W28616  21.230   3.746   0.443
64673W        W28617  42.990  26.010  14.391
64674W        W28618  44.392  20.089  11.855
64675W        W28619  33.070  38.435  12.543
64676W        W28620  17.159  31.052   9.921
64677W        W28621  15.659  44.003   2.378
64678W        W28622  31.992  13.631   3.309
64679W        W28623  21.707  44.815  12.422
64680W        W28624  39.423  43.902   1.725
64681W        W28625  24.056  18.087  13.404
64682W        W28626  20.114  34.978   3.814
64683W        W28627  31.646  23.573   1.425
64684W        W28628  10.218   0.455   3.316
64685W        W28629  16.288  26.056  10.991
64686W        W28630  12.644  21.019   4.171
64687W        W28631   8.705   6.248  13.895
64688W        W28632  44.503   6.876  14.847
64689W        W28633  33.989  11.737  12.972
64690W        W28634  23.581  14.316   4.171
64691W        W28635  32.894  20.698  10.538
64692W        W28636  30.542  40.974   1.442
64693W        W28637   7.781  10.163   3.374
64694W        W28638  24.531  42.430   2.324
64695W        W28639  30.062  33.905   0.331
64696W        W28640  40.343  25.162   4.236
64697W        W28641  34.410  16.626   3.673
64698W        W28642  14.154   4.277   4.303
64699W        W28643  17.593  33.451  11.575
64700W        W28644  15.265  44.856  14.415
64701W        W28645   3.373   9.769  14.474
64702W        W28646  34.614  29.630  13.458
64703W        W28647  37.443  11.281   1.452
64704W        W28648  39.880  38.949   3.234
64705W        W28649  16.739   7.381  11.490
64706W        W28650  10.139  43.809   4.237
64707W        W28651  34.584   7.325   3.690
64708W        W28652   4.874  18.742  13.471
64709W        W28653   2.226  38.820  11.978
64710W        W28654  10.296  24.973   2.780
64711W        W28655  17.573   4.890   4.728
64712W        W28656  20.667  11.693   0.928
64713W        W28657  41.967  32.902  13.533
64714W        W28658  28.640   1.877  12.994
64715W        W28659  23.525  29.991   2.711
64716W        W28660  42.894  29.534   2.896
64717W        W28661   4.781  20.682   0.248
64718W        W28662   0.486  27.958   2.290
64719W        W28663  32.410  26.962   4.612
64720W        W28664  36.440  29.926   3.655
64721W        W28665  39.060  23.648  14.840
64722W        W28666  25.481  31.054  14.280
64723W        W28667  19.256  19.222  14.437
64724W        W28668  36.957  21.601   4.611
64725W        W28669  31.026   5.366  12.886
64726W        W28670  28.451   0.954   1.924
64727W        W28671  34.901   3.340  11.000
64728W        W28672   7.785   8.254   0.958
64729W        W28673  22.114   9.353   0.861
64730W        W28674  11.817  19.212   3.289
64731W        W28675   4.376   0.955   3.221
64732W        W28676  33.556  34.078   3.775
64733W        W28677  11.689  12.157   0.477
64734W        W28678  41.479  42.874   0.726
64735W        W28679   7.177  15.603  13.001
64736W        W28680  24.206   4.300  14.436
64737W        W28681  40.916   0.433  11.997
64738W        W28682   2.798   7.811  11.458
64739W        W28683  29.003  13.722   4.286
64740W        W28684  40.802  29.045  14.758
64741W        W28685  37.908  40.515  11.392
64742W        W28686  36.589  11.158   1.738
64743W        W28687  17.584   4.707  10.932
64744W        W28688  40.464  36.093   3.795
64745W        W28689  34.435   7.843  13.366
64746W        W28690  12.298  22.241   1.343
64747W        W28691   0.411  35.857   1.817
64748W        W28692  37.557   7.897  11.387
64749W        W28693   7.783  43.431  11.612
64750W        W28694  27.960  17.304   1.240
64751W        W28695   3.843  33.963  11.054
64752W        W28696  22.034  29.969  13.852
64753W        W28697  25.199  38.480  11.544
64754W        W28698  17.696  42.514   1.723
64755W        W28699  38.502  28.471   0.919
64756W        W28700  41.845  25.034  14.452
64757W        W28701  18.276  15.794  11.024
64758W        W28702  28.642  11.335  12.348
64759W        W28703  29.113   3.424  14.934
64760W        W28704  44.873  36.376   2.367
64761W        W28705   7.746  27.026   1.358
64762W        W28706  39.542   4.850  10.947
64763W        W28707   1.432  15.311   2.860
64764W        W28708  14.141  12.152  11.456
64765W        W28709   5.353  43.335  11.599
64766W        W28710   0.488   4.274   1.337
64767W        W28711  17.579  16.798  12.431
64768W        W28712   1.935  12.744   3.249
64769W        W28713  36.357  11.230   4.615
64770W        W28714   7.273  24.219   2.712
64771W        W28715  13.761   2.920  10.507
64772W        W28716   9.321  37.982  13.445
64773W        W28717  42.422  37.557  12.469
64774W        W28718  34.427  26.044   4.309
64775W        W28719  25.064  37.936  10.639
64776W        W28720   3.832  28.579   4.134
64777W        W28721  36.474  25.123   1.262
64778W        W28722  40.011  42.402  14.455
64779W        W28723  17.667  20.096   2.325
64780W        W28724  10.743   0.259   5.140
64781W        W28725  24.210  31.019  11.887
64782W        W28726   0.345  38.385   1.228
64783W        W28727   0.798  14.182  11.454
64784W        W28728  15.193  15.652  12.344
64785W        W28729   8.777   6.922  11.496
64786W        W28730  33.565   2.819  12.367
64787W        W28731  28.674  25.121  13.800
64788W        W28732  22.068  19.241  14.355
64789W        W28733  37.524  11.299   2.208
64790W        W28734  38.470  27.051  13.031
64791W        W28735  20.234  29.613  14.837
64792W        W28736  44.977  26.138   4.337
64793W        W28737  35.971  33.017  11.505
64794W        W28738   2.772  41.372  13.341
64795W        W28739   5.749   0.361   1.217
64796W        W28740  18.612  21.652  11.389
64797W        W28741  16.189  32.887  14.859
64798W        W28742   7.796  23.667  10.121
64799W        W28743  30.573  39.923   5.698
64800W        W28744  36.559  15.641  13.017
64801W        W28745  39.933  15.817   1.841
64802W        W28746  30.636  41.426   2.769
64803W        W28747  25.199  18.584   1.915
64804W        W28748  27.567  23.680  10.538
64805W        W28749  37.412   0.456  14.961
64806W        W28750  11.801  25.080  11.000
64807W        W28751  44.274  29.947   2.903
64808W        W28752  17.757  31.981   1.865
64809W        W28753  11.761  12.808  14.912
64810W        W28754  31.984  12.796   4.245
64811W        W28755  43.015  20.602   1.911
64812W        W28756  29.088  20.261   3.741
64813W        W28757  31.076  21.067  12.437
64814W        W28758   6.215  12.819  10.928
64815W        W28759  41.347  19.683  13.862
64816W        W28760  15.256   6.309  14.407
64817W        W28761  36.065  34.052   4.154
64818W        W28762  43.485  28.448  14.393
64819W        W28763  35.026  33.476  14.973
64820W        W28764  32.987   9.328  14.344
64821W        W28765  20.754  37.982   3.660
64822W        W28766  34.945   1.910   0.885
64823W        W28767  32.964  23.622  12.839
64824W        W28768   2.903  37.951   4.764
64825W        W28769  44.498  37.920  11.486
64826W        W28770  33.080   9.729  10.936
64827W        W28771  31.978  16.654  12.992
64828W        W28772  34.416  14.270  10.919
64829W        W28773  41.497  43.341   3.204
64830W        W28774  43.926  15.159   1.408
64831W        W28775   5.369  31.621   1.409
64832W        W28776  21.569  41.462   4.156
64833W        W28777   1.928  34.091   1.354
64834W        W28778  27.038  42.368   1.695
64835W        W28779  11.342  34.414   3.847
64836W        W28780   8.675  26.986   3.815
64837W        W28781  32.133  17.150  14.366
64838W        W28782   7.339  23.015  10.954
64839W        W28783  44.340  31.525   3.175
64840W        W28784   0.444  17.289  10.540
64841W        W28785  25.100  15.311   1.318
64842W        W28786  42.019  32.018   1.894
64843W        W28787   4.239   7.849   0.317
64844W        W28788   8.217  27.454  14.373
64845W        W28789  27.133  25.706  11.096
64846W        W28790  33.113  24.556  14.338
64847W        W28791  44.297  38.989   5.206
64848W        W28792  43.798  10.194  12.009
64849W        W28793  44.931   5.404   9.965
64850W        W28794  43.973  44.003  12.949
64851W        W28795  26.040  21.208   4.324
64852W        W28796  40.946  16.717  11.389
64853W        W28797  26.662  34.018  14.349
64854W        W28798  33.003  41.041   4.253
64855W        W28799   2.850  18.706   0.436
64856W        W28800  24.106   8.298  12.389
64857W        W28801   1.880  13.761  13.950
64858W        W28802  28.958  25.100   4.604
64859W        W28803  13.639   4.822  13.315
64860W        W28804  12.845  19.180   4.662
64861W        W28805  28.183   2.940  11.941
64862W        W28806  33.032  10.285   0.845
64863W        W28807  14.286   0.816   1.266
64864W        W28808  10.290  20.154   4.734
64865W        W28809   7.871   8.893  10.048
64866W        W28810  15.625   9.386   3.162
64867W        W28811  10.642  17.284  13.006
64868W        W28812  23.219  21.731  14.923
64869W        W28813   4.703  15.139   0.454
64870W        W28814  21.204  15.129  14.476
64871W        W28815   9.279  16.675  14.995
64872W        W28816  41.414  44.424   1.387
64873W        W28817  39.060   7.282  14.984
64874W        W28818  38.024  35.482  12.425
64875W        W28819  29.459  19.115  13.981
64876W        W28820  39.473   8.394   3.176
64877W        W28821  42.457  30.457  13.329
64878W        W28822  43.417  13.313   0.949
64879W        W28823  28.185  43.388  11.511
64880W        W28824  24.145   5.801   4.273
64881W        W28825   6.773  17.190   3.264
64882W        W28826  14.798  42.821  13.901
64883W        W28827  19.120  43.832   3.850
64884W        W28828   7.247   8.277  14.516
64885W        W28829   6.372  14.759  10.896
64886W        W28830   1.315  25.538  13.050
64887W        W28831  33.102  34.520   2.739
64888W        W28832   8.875   3.288  10.424
64889W        W28833  29.007  37.964  10.572
64890W        W28834  29.004  18.593   5.671
64891W        W28835  41.835   6.211   4.263
64892W        W28836  18.588  22.116   0.372
64893W        W28837  19.184   8.864  13.978
64894W        W28838  18.264  44.375   0.357
64895W        W28839  14.240  25.538   3.646
64896W        W28840  30.508   2.396   3.693
64897W        W28841   7.763  42.951  12.452
64898W        W28842  33.520   5.412   2.199
64899W        W28843   9.159  17.287   5.164
64900W        W28844  16.732  41.357   2.828
64901W        W28845  13.259   6.700  11.127
64902W        W28846  36.501  17.642  13.355
64903W        W28847  31.038  24.558  14.317
64904W        W28848  40.343  14.266   5.279
64905W        W28849  24.567  44.432   1.242
64906W        W28850  23.034  40.975   3.385
64907W        W28851   3.769  10.786  12.023
64908W        W28852  18.186  11.647  12.517
64909W        W28853  43.422  44.798  13.362
64910W        W28854  27.455  44.295  14.816
64911W        W28855  30.431  41.894   0.963
64912W        W28856  34.532  23.715   2.805
64913W        W28857  26.992  40.044  13.847
64914W        W28858  20.032   7.677   2.413
64915W        W28859  30.497  24.145  14.983
64916W        W28860  24.634  27.458   0.811
64917W        W28861  27.537  18.707  14.489
64918W        W28862  32.576  22.010  12.065
64919W        W28863   0.341  33.046  13.459
64920W        W28864  19.630  18.136  14.293
64921W        W28865  12.715  37.405  14.792
64922W        W28866  22.037   0.969   0.319
64923W        W28867  38.527  16.751  14.448
64924W        W28868  33.548   9.700   3.771
64925W        W28869  11.297  40.869   2.803
64926W        W28870   9.283  12.304  13.949
64927W        W28871  35.987  15.712  13.851
64928W        W28872  41.303  18.208   0.964
64929W        W28873  35.588  30.039  11.532
64930W        W28874  11.793   6.278   0.323
64931W        W28875  39.519   6.354   4.621
64932W        W28876  19.590  24.586   1.721
64933W        W28877  28.017  16.673   1.720
64934W        W28878   0.755  33.130  14.473
64935W        W28879  25.202  27.998   3.707
64936W        W28880   3.397  19.550  11.905
64937W        W28881  14.645   3.889   2.796
64938W        W28882   6.229  25.124   1.868
64939W        W28883   4.841  26.565  12.057
64940W        W28884   2.780   0.845  11.472
64941W        W28885  10.228  44.490   1.818
64942W        W28886  10.702  10.812   3.260
64943W        W28887  35.916  17.176   4.233
64944W        W28888  33.908   7.200   1.842
64945W        W28889  29.532  16.301  13.844
64946W        W28890  38.429  44.990  12.579
64947W        W28891   8.263   9.157   4.801
64948W        W28892  37.453  43.342   1.728
64949W        W28893   7.714  24.518  11.533
64950W        W28894  33.394  40.547   0.299
64951W        W28895  16.608  25.604  11.539
64952W        W28896  21.227   8.871   3.783
64953W        W28897  19.284  44.311  10.900
64954W        W28898  28.124  41.333   0.455
64955W        W28899  13.117   1.912   0.418
64956W        W28900   2.835  37.372  14.767
64957W        W28901  40.824  30.523   2.857
64958W        W28902  34.906  18.755   0.300
64959W        W28903  35.589  24.615  12.556
64960W        W28904  32.446  27.111  11.611
64961W        W28905   6.221  40.348  12.826
64962W        W28906  43.434  10.310   4.167
64963W        W28907  43.863  30.932  10.932
64964W        W28908  37.958  44.896  13.949
64965W        W28909  30.623  20.267   3.181
64966W        W28910   9.886  22.222   2.360
64967W        W28911   4.847   7.279  13.351
64968W        W28912  25.046  44.453   0.859
64969W        W28913   0.370  25.982   4.757
64970W        W28914   3.428   2.876   3.638
64971W        W28915  14.271  25.704  11.464
64972W        W28916  43.791  25.202  13.427
64973W        W28917   9.219  27.983  11.958
64974W        W28918  26.644  11.775  12.442
64975W        W28919  26.203  29.964   2.392
64976W        W28920  33.973  24.669   3.314
64977W        W28921  14.833  33.530  11.462
64978W        W28922  17.197  39.036  11.968
64979W        W28923  25.642  20.645  14.025
64980W        W28924  37.405  42.307   1.741
64981W        W28925  18.643  26.540  10.118
64982W        W28926  33.471  39.518   3.677
64983W        W28927   5.383   4.441  10.441
64984W        W28928  23.059  39.051  10.467
64985W        W28929  39.887  26.979   2.787
64986W        W28930  22.114  26.153  14.450
64987W        W28931  25.187  32.456  12.083
64988W        W28932  35.595  25.664   2.343
64989W        W28933   3.953  28.599   3.771
64990W        W28934  22.095  14.801  14.827
64991W        W28935  30.004  34.388   4.271
64992W        W28936  43.411  43.370  11.492
64993W        W28937  24.016   1.908  13.343
64994W        W28938  21.224  37.836   1.860
64995W        W28939   5.407  18.051   3.762
64996W        W28940  34.120  42.295   3.739
64997W        W28941   5.387  20.115   3.816
64998W        W28942   0.457  10.777  14.925
64999W        W28943  32.403  33.446  12.011
65000W        W28944   3.350  29.526  12.554
65001W        W28945  33.084  15.676   3.362
65002W        W28946  27.603   6.846  13.309
65003W        W28947  20.565  16.316   3.802
65004W        W28948  39.337  34.607   2.327
65005W        W28949   4.304  44.321  12.409
65006W        W28950  43.913  15.673  12.364
65007W        W28951   4.265  33.006  12.482
65008W        W28952  42.792  39.001  12.032
65009W        W28953   6.302   3.839   2.240
65010W        W28954  24.550  37.521   4.646
65011W        W28955   4.354   8.350  11.056
65012W        W28956  24.621   8.245   4.200
65013W        W28957  41.422  14.304  11.892
65014W        W28958  11.276  43.831  12.470
65015W        W28959  27.982  38.384   2.723
65016W        W28960  16.116  26.989  10.976
65017W        W28961  22.184   8.870   0.422
65018W        W28962   8.372  25.654  13.405
65019W        W28963  42.455  13.809   3.687
65020W        W28964  12.297  33.563   4.750
65021W        W28965  16.161   7.188   0.797
65022W        W28966  13.793  25.553   4.826
65023W        W28967  42.515  38.897   1.449
65024W        W28968  43.916  12.832   2.413
65025W        W28969  26.691  23.143   3.760
65026W        W28970  28.676   9.316   1.856
65027W        W28971  36.515  14.766   3.374
65028W        W28972  29.087   8.316  14.002
65029W        W28973   1.389  33.952  13.394
65030W        W28974  28.575   3.777  13.796
65031W        W28975  32.425  43.294  12.915
65032W        W28976   9.360   4.228  10.490
65033W        W28977   5.753   3.365   3.159
65034W        W28978  43.475  21.698  12.894
65035W        W28979  29.519  37.958  13.513
65036W        W28980  43.498  37.519  14.833
65037W        W28981  25.981  39.837  13.897
65038W        W28982  31.534  25.124  13.831
65039W        W28983  40.878  44.948   1.281
65040W        W28984  28.016   5.295   0.947
65041W        W28985  14.174  19.582  14.473
65042W        W28986  11.729  40.509   2.900
65043W        W28987  35.449  31.108   3.830
65044W        W28988  34.528  40.824  14.881
65045W        W28989  37.467  37.886  11.915
65046W        W28990  17.086  30.432  14.449
65047W        W28991  22.023  14.828  11.386
65048W        W28992   4.444  13.149   0.765
65049W        W28993  27.955  30.948   1.283
65050W        W28994   1.925  44.486   4.352
65051W        W28995  39.341  33.111  12.995
65052W        W28996   1.751  12.328   3.191
65053W        W28997  39.520  37.851  10.903
65054W        W28998  26.669  38.509  14.464
65055W        W28999  36.891  41.337  10.998
65056W        W29000  17.795  33.999  14.832
65057W        W29001  44.937   4.732   3.358
65058W        W29002  23.503   3.308  12.481
65059W        W29003  19.534  41.339  12.997
65060W        W29004  26.977  35.903  13.362
65061W        W29005  42.985  14.714   1.915
65062W        W29006  27.551   4.215   1.752
65063W        W29007  14.791  15.693   4.740
65064W        W29008  43.925   9.734  14.882
65065W        W29009   4.728  13.262  12.020
65066W        W29010  19.279  11.623   1.250
65067W        W29011  15.587  36.986  14.303
65068W        W29012  39.504  10.208   3.175
65069W        W29013  19.092  16.618   2.843
65070W        W29014   4.868  18.157  11.890
65071W        W29015  31.439  34.572  13.023
65072W        W29016  27.662  22.587   2.802
65073W        W29017  10.191  34.865   2.219
65074W        W29018  36.460   7.200   4.305
65075W        W29019   2.809   8.746  10.153
65076W        W29020  39.842  44.901   0.276
65077W        W29021   6.225  19.577   9.995
65078W        W29022  37.575  17.225   3.310
65079W        W29023  20.261  26.678   1.294
65080W        W29024  17.143  22.515   3.729
65081W        W29025  12.262  16.789  10.584
65082W        W29026  23.165  11.784   1.404
65083W        W29027  22.599  29.978  14.822
65084W        W29028  24.054  13.606  14.898
65085W        W29029  16.111   0.452  12.030
65086W        W29030  33.618   2.244   2.327
65087W        W29031  29.425  26.649  14.030
65088W        W29032   9.253  38.558  14.875
65089W        W29033  13.175  34.546  10.988
65090W        W29034  43.832   6.255  14.886
65091W        W29035  31.982  15.310   3.662
65092W        W29036  41.468  19.726   3.866
65093W        W29037  24.012  27.618  14.764
65094W        W29038  41.506  29.648  12.982
65095W        W29039   1.383  17.643  11.914
65096W        W29040  44.886  27.949  12.499
65097W        W29041  13.663  35.025   2.721
65098W        W29042   9.800  34.600   3.273
65099W        W29043  40.940  19.225   1.437
65100W        W29044  19.627   9.711   0.936
65101W        W29045  16.568  14.095  11.089
65102W        W29046   9.171   6.296   3.745
65103W        W29047  44.464   4.767   1.410
65104W        W29048  22.726   9.859  14.927
65105W        W29049  14.783  38.417   0.892
65106W        W29050  19.045  34.388  13.467
65107W        W29051  40.332  31.412  13.449
65108W        W29052  16.073  12.780  12.513
65109W        W29053  16.096  20.540   3.646
65110W        W29054  13.812  28.131  12.861
65111W        W29055  25.691   0.782   1.327
65112W        W29056  14.726  18.272   1.375
65113W        W29057  29.494   5.731  11.860
65114W        W29058  31.646  17.187   3.323
65115W        W29059  35.525  38.949   2.758
65116W        W29060  20.168  37.468   2.704
65117W        W29061  34.530  38.541  14.957
65118W        W29062  13.314  34.422   3.348
65119W        W29063   9.255  40.898  14.843
65120W        W29064  19.187  15.126   4.306
65121W        W29065  37.389   2.461  13.529
65122W        W29066  37.946  33.072   2.180
65123W        W29067   0.419  38.454   0.243
65124W        W29068  30.908  11.829  13.406
65125W        W29069  23.666  37.553   0.375
65126W        W29070  34.552  24.662  10.501
65127W        W29071  42.816   8.241  12.921
65128W        W29072  40.910  20.092  11.509
65129W        W29073  25.529   9.235   2.742
65130W        W29074   8.765  10.325  12.992
65131W        W29075  27.600  21.095  13.922
65132W        W29076  43.784  10.877  11.552
65133W        W29077  32.495   9.215   0.908
65134W        W29078  35.024  42.828  13.961
65135W        W29079  20.591   9.392  10.416
65136W        W29080  10.149  26.535  14.476
65137W        W29081  14.637  32.533   2.735
65138W        W29082  43.503  25.098  12.025
65139W        W29083   8.774  24.591   4.629
65140W        W29084  24.022  22.191   3.728
65141W        W29085  10.673  26.675   3.720
65142W        W29086  40.375  37.447  11.949
65143W        W29087  12.844   3.938   4.603
65144W        W29088  33.901  21.559   1.364
65145W        W29089  28.539  44.288   3.752
65146W        W29090  17.672  11.343   2.261
65147W        W29091  28.972  38.849  14.380
65148W        W29092  27.577  16.181   1.742
65149W        W29093  42.918  29.093   3.237
65150W        W29094  14.686  22.504   1.250
65151W        W29095  25.103   1.828  10.489
65152W        W29096  43.916  35.045   4.230
65153W        W29097  20.250  24.683   4.331
65154W        W29098  12.747  10.349  10.511
65155W        W29099  10.725  19.077   2.284
65156W        W29100  38.526   7.417   5.279
65157W        W29101   7.831  35.910   2.838
65158W        W29102  42.864  42.843  11.566
65159W        W29103  28.536   5.402  10.913
65160W        W29104  10.678   9.700  13.950
65161W        W29105  17.592   8.368   0.288
65162W        W29106  36.057  34.542   0.443
65163W        W29107  36.921  41.790  13.936
65164W        W29108  30.053   9.755  12.873
65165W        W29109  34.598  18.059   2.682
65166W        W29110  11.206  43.974  12.882
65167W        W29111  22.009   4.805  11.900
65168W        W29112  35.495  14.250  13.867
65169W        W29113  42.943  12.256   1.705
65170W        W29114  33.029   4.916   1.819
65171W        W29115  34.529  32.048  13.525
65172W        W29116  33.019   0.902   3.336
65173W        W29117  19.644  15.791   4.160
65174W        W29118   2.454  24.553  12.436
65175W        W29119   8.786  25.968  14.979
65176W        W29120  14.305   0.924  13.839
65177W        W29121   2.446  30.535   4.644
65178W        W29122   7.308  16.095   1.424
65179W        W29123  11.684  28.978   4.294
65180W        W29124  13.310  30.956   4.337
65181W        W29125  26.602  37.056  12.883
65182W        W29126  15.652  36.033  11.024
65183W        W29127  14.714  27.157  13.956
65184W        W29128   0.966  19.135   0.821
65185W        W29129  33.394  24.118   0.301
65186W        W29130  29.448  25.132  11.909
65187W        W29131  44.970  10.819  13.372
65188W        W29132   3.367  40.434   4.795
65189W        W29133  33.070   8.816  10.998
65190W        W29134   8.325  41.957  14.288
65191W        W29135   3.936  22.128   0.457
65192W        W29136  43.470  15.167   0.318
65193W        W29137  32.951  21.224  11.003
65194W        W29138   0.344  35.440   4.177
65195W        W29139   9.371   9.758  12.959
65196W        W29140   0.964  33.120   4.314
65197W        W29141   2.795  38.566   4.810
65198W        W29142  32.449  37.555  14.486
65199W        W29143   4.390   1.267  10.946
65200W        W29144  25.031  27.068  12.472
65201W        W29145  26.601  12.356   3.183
65202W        W29146  36.015  21.638   3.157
65203W        W29147   0.907  23.139  11.979
65204W        W29148  32.439  12.826   4.660
65205W        W29149  35.106  13.336  12.423
65206W        W29150   6.339  25.531   4.335
65207W        W29151   1.431   9.269   2.287
65208W        W29152  30.476  26.487   3.760
65209W        W29153  33.547  34.545   1.818
65210W        W29154  38.331   0.880   0.793
65211W        W29155  12.283   8.736   4.682
65212W        W29156  24.148  42.912   3.812
65213W        W29157  18.626  11.238   3.290
65214W        W29158  42.415  16.079   2.867
65215W        W29159  11.206  31.549  13.490
65216W        W29160  28.532   8.269  13.520
65217W        W29161  29.541  42.397   1.920
65218W        W29162  25.607  42.886  13.840
65219W        W29163  23.096  26.117  13.824
65220W        W29164  31.572  38.052  13.971
65221W        W29165   9.762  41.393   3.148
65222W        W29166  12.853  18.121   0.894
65223W        W29167  40.914  40.996   1.885
65224W        W29168  37.974  43.368  14.834
65225W        W29169   9.348  43.810  12.021
65226W        W29170  29.038   5.258   3.319
65227W        W29171  42.915  19.674  14.845
65228W        W29172  14.253  14.186  13.063
65229W        W29173  20.191  11.271  10.522
65230W        W29174  12.229  42.929  13.825
65231W        W29175  42.301  13.731   4.740
65232W        W29176  39.521  21.560   1.857
65233W        W29177  33.515  40.489  14.344
65234W        W29178  24.044  31.596   2.717
65235W        W29179  22.626  20.679   2.320
65236W        W29180  37.003  17.680   4.727
65237W        W29181  18.149  15.127   3.843
65238W        W29182  29.961  29.520   3.845
65239W        W29183  32.890   7.297  14.416
65240W        W29184  44.352  24.215   0.477
65241W        W29185  14.179   6.810   4.635
65242W        W29186  23.026  43.820   0.789
65243W        W29187   9.653  31.015   9.957
65244W        W29188  34.473  29.985  12.560
65245W        W29189   0.390  13.694  14.769
65246W        W29190  31.134  40.412  12.920
65247W        W29191  25.083  41.890  10.950
65248W        W29192  41.325   8.237  10.954
65249W        W29193   4.711  37.844   5.206
65250W        W29194  41.302  39.065   2.834
65251W        W29195  35.006  29.471  14.492
65252W        W29196  35.547  18.572  12.840
65253W        W29197  37.372  10.174   2.894
65254W        W29198  26.671   3.947   2.200
65255W        W29199  31.946  16.611   0.322
65256W        W29200   9.352  23.723  13.413
65257W        W29201  16.655  37.002  11.901
65258W        W29202  15.189  20.110   3.840
65259W        W29203  29.424   3.417  11.410
65260W        W29204  16.613  25.579   1.824
65261W        W29205  30.617   1.243   1.726
65262W        W29206  40.497  11.738   4.288
65263W        W29207  42.878   4.853   3.662
65264W        W29208   4.412  17.077   4.636
65265W        W29209  36.371  41.391  12.538
65266W        W29210   2.231  19.577  10.468
65267W        W29211   6.720  36.370  11.042
65268W        W29212  32.605  34.497  11.396
65269W        W29213  37.397   4.923   5.099
65270W        W29214  29.650   9.377  12.535
65271W        W29215  39.504  16.745  11.610
65272W        W29216  17.639  19.713  10.630
65273W        W29217  33.391  19.250   0.334
65274W        W29218   4.942  32.914  10.113
65275W        W29219  23.554  15.319   2.408
65276W        W29220   6.422  30.546   0.392
65277W        W29221  39.422  32.100  12.397
65278W        W29222  41.412  33.476  12.974
65279W        W29223   3.716  18.074   0.963
65280W        W29224  32.050  25.591  14.834
65281W        W29225   7.241  17.674   3.241
65282W        W29226  39.060  32.425  12.882
65283W        W29227  44.476  17.084   0.427
65284W        W29228  14.110  33.451  13.524
65285W        W29229  37.964  20.261  14.345
65286W        W29230  11.353   3.856  12.522
65287W        W29231   8.705  44.353  10.476
65288W        W29232  18.756  41.300  13.809
65289W        W29233  11.834   9.272  13.314
65290W        W29234  18.790  31.925  11.061
65291W        W29235  37.077  10.827  13.396
65292W        W29236   2.315  13.628  10.911
65293W        W29237  44.355  14.789  11.390
65294W        W29238  17.709  14.320  11.936
65295W        W29239  14.270  43.908   9.957
65296W        W29240  16.313  16.171   1.723
65297W        W29241  19.563  39.554  12.542
65298W        W29242  20.066  31.101  11.091
65299W        W29243  12.165  22.024  12.045
65300W        W29244   0.984  28.547  14.444
65301W        W29245  40.932  23.984   0.947
65302W        W29246  11.793  38.422   3.172
65303W        W29247   5.848  19.182  14.973
65304W        W29248  20.139  33.536   1.403
65305W        W29249  24.723  39.318  12.024
65306W        W29250  34.595  39.521  11.898
65307W        W29251  11.816  15.610  11.045
65308W        W29252  25.485  22.722   2.766
65309W        W29253   2.801  39.934   1.425
65310W        W29254  31.133   2.884  12.928
65311W        W29255   8.297  24.717   4.297
65312W        W29256  21.595  10.789   3.725
65313W        W29257   3.775  32.887   1.802
65314W        W29258  22.676  10.158  11.087
65315W        W29259  16.211   1.308   4.142
65316W        W29260  39.040   4.869  11.510
65317W        W29261  23.679  27.194  11.513
65318W        W29262  12.771  22.231   0.391
65319W        W29263  28.642  10.158  14.970
65320W        W29264  18.733  18.734  11.587
65321W        W29265  20.765  10.259  14.494
65322W        W29266  24.552  17.066   3.815
65323W        W29267  28.521   3.942   0.457
65324W        W29268  42.931  40.864   0.481
65325W        W29269  28.004  26.031  13.810
65326W        W29270  29.632   7.864   0.804
65327W        W29271  11.674  18.771  13.341
65328W        W29272  16.165  33.896   2.701
65329W        W29273  14.196  33.478   3.314
65330W        W29274  37.861  24.668   2.663
65331W        W29275  42.490  15.263  14.989
65332W        W29276  27.549  44.892  10.990
65333W        W29277  32.028  39.019   0.275
65334W        W29278  32.976  20.753   3.374
65335W        W29279   8.166   4.796   4.647
65336W        W29280  35.067  13.740   3.658
65337W        W29281  25.080  31.481   2.739
65338W        W29282  13.275   8.273  14.950
65339W        W29283  34.978   7.414   0.743
65340W        W29284  19.729  31.448   4.633
65341W        W29285  15.809  26.090   4.120
65342W        W29286   3.858  31.058   1.905
65343W        W29287  32.070  33.893   1.842
65344W        W29288  41.912  23.557   2.749
65345W        W29289   8.324   8.194  13.448
65346W        W29290  36.052   4.204   3.244
65347W        W29291  12.322  35.014   3.207
65348W        W29292  28.027  16.648   3.694
65349W        W29293  35.088  42.403  12.500
65350W        W29294  22.698  21.223   4.752
65351W        W29295  31.492  33.543   2.744
65352W        W29296  27.110  15.114   0.728
65353W        W29297  13.744  41.390  10.558
65354W        W29298  18.121  34.117  13.882
65355W        W29299  11.289  18.788  13.895
65356W        W29300   8.237  32.959   3.795
65357W        W29301   2.405   6.335  14.346
65358W        W29302  44.440  16.218  14.867
65359W        W29303  17.579  23.627  13.324
65360W        W29304   8.777   5.267   2.332
65361W        W29305  36.041   3.445  14.337
65362W        W29306  15.605  31.925   3.334
65363W        W29307   8.371  15.782   2.780
65364W        W29308  15.195  20.666   1.367
65365W        W29309  35.472  28.612  13.342
65366W        W29310  23.102   3.838  12.966
65367W        W29311  16.289  25.068   2.740
65368W        W29312   1.347   0.340   1.433
65369W        W29313  41.417  25.533   5.237
65370W        W29314  38.970  21.017   4.621
65371W        W29315  26.026  29.527  13.508
65372W        W29316   1.933  11.169  10.576
65373W        W29317  11.147  34.499   2.894
65374W        W29318  16.617   8.338   0.398
65375W        W29319   7.682  30.024   1.870
65376W        W29320  14.095   6.781   3.254
65377W        W29321  26.012  23.631  14.352
65378W        W29322  35.486  43.310   1.368
65379W        W29323   7.822  38.412  10.523
65380W        W29324  12.357  25.628   0.317
65381W        W29325  19.153  31.940   3.808
65382W        W29326   1.363  42.010  12.998
65383W        W29327  18.124  42.462   2.664
65384W        W29328  27.635  23.642  14.327
65385W        W29329   4.884  21.688  14.509
65386W        W29330   5.832  27.016  13.541
65387W        W29331  38.473  22.168   0.773
65388W        W29332   3.388  42.301  11.957
65389W        W29333  22.680  13.762   4.790
65390W        W29334  22.157  38.468   4.138
65391W        W29335   1.906  28.950  14.029
65392W        W29336  23.136  35.009   0.782
65393W        W29337  31.647  12.165   3.796
65394W        W29338  36.494  40.483  12.990
65395W        W29339  16.178  33.079   0.742
65396W        W29340   7.379  33.917   2.393
65397W        W29341  31.970  29.041  14.825
65398W        W29342  27.559  41.818   0.372
65399W        W29343  27.613  26.046  10.982
65400W        W29344  13.128  14.708  10.915
65401W        W29345  26.192  25.610  10.919
65402W        W29346  22.010  26.045  14.009
65403W        W29347  27.481  22.145  14.872
65404W        W29348  37.525  24.534   3.290
65405W        W29349  30.503  13.232  10.961
65406W        W29350  10.731  10.190  14.452
65407W        W29351  20.693  42.775   1.767
65408W        W29352  17.777   7.690   1.235
65409W        W29353   4.434  32.421  11.056
65410W        W29354   6.196  35.923  10.996
65411W        W29355  44.492  33.555   1.302
65412W        W29356  24.680  31.492  12.900
65413W        W29357   7.313  40.389  12.037
65414W        W29358  19.285  19.183  12.848
65415W        W29359  29.003   0.270  13.344
65416W        W29360  36.884   7.287  14.800
65417W        W29361  38.552  24.214  10.913
65418W        W29362   1.319   9.279  12.552
65419W        W29363  44.983  28.610  10.508
65420W        W29364  44.767   0.331  14.337
65421W        W29365   5.389  21.244  11.562
65422W        W29366  31.559  13.128   1.860
65423W        W29367  37.085   9.180   1.228
65424W        W29368  37.082  12.206  11.509
65425W        W29369  36.519  42.793  10.471
65426W        W29370  34.373  33.457   4.218
65427W        W29371   3.779   7.907  11.023
65428W        W29372   9.323  19.651   1.213
65429W        W29373  41.350  27.525   2.196
65430W        W29374  18.274  16.286   3.361
65431W        W29375  33.086  29.509  13.403
65432W        W29376   7.189  33.893  13.885
65433W        W29377  27.501  20.172   1.444
65434W        W29378  40.313  17.102   4.723
65435W        W29379  29.070  24.682   4.821
65436W        W29380   9.244  37.379  11.468
65437W        W29381  34.943  43.281   0.791
65438W        W29382   2.362  27.048  14.768
65439W        W29383  10.183  24.689  12.050
65440W        W29384   6.336  32.615  11.912
65441W        W29385  33.037  11.654  13.507
65442W        W29386  35.087  41.980   1.710
65443W        W29387  42.971  35.888   2.678
65444W        W29388  29.588  38.530   1.870
65445W        W29389  34.402  29.076   4.622
65446W        W29390  25.671  20.253  13.908
65447W        W29391  37.357   5.824  12.849
65448W        W29392   4.433  10.837   4.826
65449W        W29393  15.733  16.133   3.686
65450W        W29394   5.262  20.689   0.411
65451W        W29395  19.136  17.581   4.210
65452W        W29396  41.959  28.501  10.463
65453W        W29397  14.271   1.416  14.934
65454W        W29398   1.764  37.907  11.036
65455W        W29399  41.352   0.454   3.685
65456W        W29400  28.545  15.214   3.173
65457W        W29401   6.896  13.180  13.047
65458W        W29402  17.672  37.388   5.300
65459W        W29403  11.747  25.602  14.790
65460W        W29404  15.308  21.722  14.275
65461W        W29405   4.870  17.227   5.252
65462W        W29406  38.343  13.738   0.391
65463W        W29407  26.173  32.611   1.289
65464W        W29408  33.888  28.160   4.609
65465W        W29409  39.810  13.635   0.928
65466W        W29410  15.620  20.225  12.405
65467W        W29411  29.428  22.519  11.859
65468W        W29412  30.489  32.497  14.974
65469W        W29413   0.834  30.001  14.336
65470W        W29414   4.934  37.508   4.156
65471W        W29415  16.104  31.138  11.560
65472W        W29416  19.692  14.781  11.431
65473W        W29417  27.948  29.472  10.622
65474W        W29418  44.463  11.806  12.017
65475W        W29419  33.479  21.557   2.749
65476W        W29420  38.919  29.051   3.174
65477W        W29421   5.751  24.677  10.609
65478W        W29422  27.534   1.801  12.347
65479W        W29423  44.770  41.392   1.219
65480W        W29424   5.867  32.051   2.689
65481W        W29425  31.109  12.708  13.411
65482W        W29426  23.734  27.959   4.181
65483W        W29427  20.224  16.692  12.852
65484W        W29428  11.148  36.911   2.343
65485W        W29429   4.417  21.062  10.933
65486W        W29430  24.039   3.328   4.281
65487W        W29431   3.844  15.319  13.505
65488W        W29432  22.106  14.217  14.799
65489W        W29433  17.607   6.419  12.079
65490W        W29434   7.753  18.735   4.637
65491W        W29435  27.590  43.324  13.821
65492W        W29436  15.197  11.810  12.895
65493W        W29437   4.719  43.012   4.183
65494W        W29438  12.363  17.734   2.664
65495W        W29439  38.001  10.756  14.281
65496W        W29440  25.629  28.674  11.876
65497W        W29441  29.127  24.172  13.345
65498W        W29442   7.205  34.588   4.310
65499W        W29443  31.079  35.557   3.739
65500W        W29444  43.371  22.599   4.253
65501W        W29445   2.299  17.244  10.056
65502W        W29446  19.144  15.144  11.004
65503W        W29447  44.984   4.392  11.095
65504W        W29448  10.379  15.746  12.917
65505W        W29449   3.237  36.998   1.712
65506W        W29450  28.592  11.220  10.404
65507W        W29451  28.117  21.672  14.342
65508W        W29452   2.347   5.410   9.658
65509W        W29453  13.795   1.416   3.761
65510W        W29454  41.296  17.583  10.962
65511W        W29455  32.941  35.459   3.761
65512W        W29456   3.934   8.813  13.379
65513W        W29457  20.242  24.186  12.881
65514W        W29458  41.991   4.236  14.007
65515W        W29459  19.731   4.860   0.782
65516W        W29460  33.595  33.931   0.298
65517W        W29461  19.249  12.170   2.823
65518W        W29462  36.093  11.655  13.834
65519W        W29463   0.261  20.088  11.416
65520W        W29464  32.500  40.839  14.796
65521W        W29465  15.142  30.436  13.469
65522W        W29466  34.494  34.968  13.843
65523W        W29467  38.518  20.074  13.858
65524W        W29468  34.965  33.489   0.877
65525W        W29469  35.913  40.892   1.794
65526W        W29470  43.833  18.248   3.315
65527W        W29471   8.354  15.123   0.829
65528W        W29472  33.483   3.280  13.878
65529W        W29473  24.506   9.799  14.927
65530W        W29474  28.589  15.309   0.425
65531W        W29475  40.882  10.787   0.727
65532W        W29476  33.015   2.248  12.947
65533W        W29477   3.871  34.569  10.425
65534W        W29478   9.684  29.661  13.506
65535W        W29479   9.347   4.813  11.571
65536W        W29480   0.946  20.610  11.918
65537W        W29481   2.764   2.949   4.771
65538W        W29482  20.227  11.331   4.116
65539W        W29483  26.181  10.780  13.821
65540W        W29484   1.465  27.614   4.186
65541W        W29485  35.577   7.695  14.774
65542W        W29486  15.291  35.377   1.274
65543W        W29487  35.474  18.207   0.328
65544W        W29488  20.102   2.873   1.721
65545W        W29489  34.871   5.386  13.799
65546W        W29490  30.650  18.548   1.812
65547W        W29491   4.255  40.909   3.257
65548W        W29492  18.628  17.628   4.165
65549W        W29493  30.534   3.755   5.089
65550W        W29494   2.909  31.946  10.921
65551W        W29495  22.611  42.928   4.788
65552W        W29496  40.514  28.930   0.943
65553W        W29497  32.467   4.729   1.210
65554W        W29498  40.914   5.736   4.706
65555W        W29499  30.623   8.233  12.484
65556W        W29500  12.742  39.435   2.882
65557W        W29501  25.190  25.576  10.994
65558W        W29502   3.939  39.502  12.473
65559W        W29503  24.605   8.819  14.956
65560W        W29504  22.113   1.741   1.374
65561W        W29505  13.230  24.564   3.176
65562W        W29506  18.655  43.767   2.410
65563W        W29507  11.852  12.253  13.795
65564W        W29508  38.383  12.753  11.610
65565W        W29509  14.303  23.233   1.927
65566W        W29510   8.822  36.977   1.303
65567W        W29511  19.735  42.429   3.178
65568W        W29512  38.451  34.963   0.730
65569W        W29513   4.334  41.418  12.544
65570W        W29514  10.869  38.366   4.176
65571W        W29515  20.726   7.775   4.151
65572W        W29516  24.626  37.985  13.967
65573W        W29517  10.212  11.863   2.281
65574W        W29518  35.360  40.922   3.718
65575W        W29519  21.155  19.626  13.444
65576W        W29520  29.113   4.361  11.487
65577W        W29521  28.001  30.564   1.401
65578W        W29522  16.677  15.749   2.725
65579W        W29523  27.623   7.329   0.284
65580W        W29524  28.664  43.436   5.123
65581W        W29525  37.373  15.804  14.871
65582W        W29526  30.632  32.451  12.082
65583W        W29527  34.567  17.711   4.706
65584W        W29528  21.081   7.274   4.198
65585W        W29529  39.869   1.456  11.428
65586W        W29530  41.836  10.269   2.392
65587W        W29531   2.900   8.761   0.383
65588W        W29532   2.445  33.538  11.052
65589W        W29533   0.418  30.530  12.571
65590W        W29534  35.554   3.856  13.851
65591W        W29535  35.960  25.671   1.874
65592W        W29536  36.591  21.648  11.867
65593W        W29537  15.268  21.621  14.849
65594W        W29538  15.711  14.674  12.825
65595W        W29539  42.872  35.395   1.248
65596W        W29540  24.226  42.777   4.760
65597W        W29541  21.156  16.143   4.318
65598W        W29542  34.906  28.129   4.723
65599W        W29543  14.235  28.446   1.781
65600W        W29544  43.403  30.553  11.004
65601W        W29545  33.108  39.480  10.945
65602W        W29546  41.370   6.359  14.386
65603W        W29547  40.359  12.149  13.507
65604W        W29548  18.057  40.955   2.854
65605W        W29549  20.759  14.304  12.455
65606W        W29550   2.399   9.313  10.059
65607W        W29551  24.050   8.194   4.644
65608W        W29552  23.008  19.777   0.381
65609W        W29553  41.856  40.336  14.808
65610W        W29554   9.765  28.124   4.768
65611W        W29555  24.546  37.084  12.895
65612W        W29556  41.466   3.391   2.681
65613W        W29557  19.207  42.906  12.967
65614W        W29558  22.181  12.335   3.741
65615W        W29559   1.804  12.209  11.089
65616W        W29560  44.980   9.221   0.278
65617W        W29561  27.017  11.638  14.857
65618W        W29562  39.329  44.423  13.476
65619W        W29563  41.362  16.117  10.901
65620W        W29564   6.387  15.596   2.273
65621W        W29565  10.717   6.277   1.263
65622W        W29566  17.085   7.812  13.529
65623W        W29567   6.302  36.085  13.876
65624W        W29568  33.394  26.098   4.194
65625W        W29569  27.013   3.796  12.547
65626W        W29570  44.856  37.575   3.855
65627W        W29571  11.141   9.221   4.179
65628W        W29572  13.142  38.501  12.895
65629W        W29573   9.242  30.103   4.193
65630W        W29574  28.057  41.823  12.002
65631W        W29575  29.155  21.157  12.369
65632W        W29576  10.228  18.647  12.999
65633W        W29577  27.647  27.571  12.557
65634W        W29578  40.537  29.069  13.483
65635W        W29579  31.132  11.156   3.327
65636W        W29580  34.071  10.164   4.710
65637W        W29581   9.280  40.922  13.382
65638W        W29582  44.459  25.086   1.389
65639W        W29583  40.360  18.690  10.485
65640W        W29584  20.138  27.020   0.302
65641W        W29585   8.381  32.415  13.492
65642W        W29586  23.236   3.852   2.405
65643W        W29587  33.062   1.788   1.765
65644W        W29588  17.099   9.730   3.757
65645W        W29589  38.457  14.746   4.823
65646W        W29590  30.073   8.300   0.860
65647W        W29591  41.892   5.691   3.724
65648W        W29592  35.593   1.807  14.999
65649W        W29593   4.408   3.870   4.270
65650W        W29594  25.700  24.100  14.309
65651W        W29595  32.529  36.910   1.413
65652W        W29596  17.207   7.349  11.606
65653W        W29597  24.712  33.963  10.472
65654W        W29598   6.323   8.166   4.256
65655W        W29599  28.445  26.981  14.286
65656W        W29600  41.356   2.455  12.488
65657W        W29601  41.788   8.377  13.393
65658W        W29602  36.088  32.455  10.449
65659W        W29603  39.877  21.060  14.918
65660W        W29604  21.574  19.741   3.262
65661W        W29605  15.701   6.884   1.926
65662W        W29606  11.244  27.616  14.407
65663W        W29607   0.970  23.691   0.963
65664W        W29608  44.412  34.560  12.013
65665W        W29609  28.451   1.359   1.805
65666W        W29610  37.861   8.886   2.709
65667W        W29611  11.209  33.527   4.175
65668W        W29612  36.447   4.893   5.299
65669W        W29613  25.142  26.073  11.581
65670W        W29614   0.842  11.172   0.768
65671W        W29615  43.509  22.040   4.822
65672W        W29616  37.536   5.836   0.898
65673W        W29617  26.461   3.938  11.395
65674W        W29618  31.005   1.839  10.936
65675W        W29619  37.552  16.636   4.275
65676W        W29620   8.890  19.739  13.861
65677W        W29621   8.362   8.737   3.239
65678W        W29622  15.705   9.885  11.945
65679W        W29623  11.172   9.352   1.845
65680W        W29624  12.331   5.900   3.147
65681W        W29625  12.218  11.329   2.267
65682W        W29626   0.833   2.378  13.980
65683W        W29627   9.327  28.023   9.654
65684W        W29628  41.492  37.424   0.820
65685W        W29629   3.431  10.360   0.781
65686W        W29630  40.356  12.278   3.791
65687W        W29631   0.346   1.472   0.304
65688W        W29632  25.124  28.475   3.217
65689W        W29633   7.909  42.461   4.713
65690W        W29634  27.482  10.732  11.864
65691W        W29635  35.108  33.083  12.073
65692W        W29636  35.452  24.142  13.010
65693W        W29637   7.801  40.527   1.262
65694W        W29638  18.756  41.535   3.749
65695W        W29639  27.503  14.179  10.032
65696W        W29640  11.340   2.416  11.391
65697W        W29641  35.603   0.277   4.751
65698W        W29642   4.271  37.422   3.862
65699W        W29643   0.310  32.614   1.377
65700W        W29644  14.698  30.443   2.279
65701W        W29645   4.875  42.375   1.281
65702W        W29646   0.954  10.175   1.334
65703W        W29647  15.581  25.633   3.314
65704W        W29648  35.394   4.215  10.476
65705W        W29649  20.714  40.403  11.533
65706W        W29650  31.090  24.687   4.163
65707W        W29651  16.253  13.275  11.031
65708W        W29652  26.202  33.119  14.342
65709W        W29653  26.654  21.241  14.978
65710W        W29654   9.761  14.812   1.372
65711W        W29655  21.677   1.462  12.825
65712W        W29656  18.144  11.144  14.956
65713W        W29657  12.614   4.824   5.241
65714W        W29658  34.066  31.047  10.563
65715W        W29659  12.633  16.136  11.028
65716W        W29660   4.844  10.265   0.299
65717W        W29661  17.737   9.249  13.006
65718W        W29662   4.262  31.478  14.358
65719W        W29663  17.578  40.372  13.530
65720W        W29664  15.664  13.299   0.789
65721W        W29665  34.575  37.886  13.051
65722W        W29666   1.803  15.111  13.023
65723W        W29667   6.310  14.255   5.141
65724W        W29668  37.448  17.749  14.984
65725W        W29669  16.783  14.253  10.423
65726W        W29670   7.826  14.123   1.301
65727W        W29671  16.721  11.186  10.450
65728W        W29672  35.989  25.047   3.720
65729W        W29673  37.563  13.252  13.908
65730W        W29674  24.533   6.362  10.548
65731W        W29675  25.988   1.834  14.349
65732W        W29676   3.893   2.942   3.296
65733W        W29677  38.012  43.361  11.599
65734W        W29678  32.607  19.716  13.816
65735W        W29679  24.075   1.414  13.542
65736W        W29680  27.491   0.803  10.599
65737W        W29681   1.948  28.519   1.730
65738W        W29682  18.615  34.376   2.270
65739W        W29683  10.809   7.377  10.407
65740W        W29684  31.016  44.468   1.319
65741W        W29685  31.087   6.866   1.406
65742W        W29686  41.327  18.582  10.493
65743W        W29687  44.469  13.284   5.170
65744W        W29688   0.314  38.062   1.356
65745W        W29689  26.016   3.362  11.061
65746W        W29690  30.059   2.849   0.749
65747W        W29691  21.050  40.353  14.515
65748W        W29692  17.149   3.909  12.964
65749W        W29693  20.751  23.730   1.726
65750W        W29694  36.050  10.211   0.879
65751W        W29695  28.071  36.452  13.004
65752W        W29696  28.651  11.363  11.871
65753W        W29697   1.283  26.097   1.378
65754W        W29698   4.225   4.355  12.942
65755W        W29699   3.349  21.154   4.283
65756W        W29700   2.344  29.085  11.515
65757W        W29701   1.408  22.106  11.978
65758W        W29702  15.215  10.674  14.951
65759W        W29703  20.729  40.958  13.501
65760W        W29704   3.244  13.813   1.839
65761W        W29705  35.499  30.106   1.314
65762W        W29706  28.499   9.645  12.055
65763W        W29707   9.329  38.938   3.347
65764W        W29708  17.255   2.378  12.044
65765W        W29709  30.637   4.831  10.630
65766W        W29710  40.349  15.629  10.985
65767W        W29711  32.410  19.199   4.714
65768W        W29712   6.770   2.780   2.711
65769W        W29713  13.760   0.827  14.853
65770W        W29714  31.928  24.486  11.430
65771W        W29715  33.042  32.087  11.956
65772W        W29716  41.421   4.732  12.002
65773W        W29717   7.413  31.924   2.217
65774W        W29718   0.297   3.728   4.279
65775W        W29719  31.566  18.162   1.346
65776W        W29720   1.284  14.259  13.496
65777W        W29721   9.351  35.037   1.418
65778W        W29722  39.375  10.709   2.823
65779W        W29723  21.758   4.717  13.889
65780W        W29724  15.127  16.236   0.413
65781W        W29725  23.223  34.880   2.811
65782W        W29726  20.150  41.398   2.259
65783W        W29727  16.710  15.627  11.048
65784W        W29728  16.134  19.561  14.921
65785W        W29729   6.866  44.264   1.745
65786W        W29730  36.982  21.657  10.958
65787W        W29731  44.376  17.713   4.648
65788W        W29732  23.064  22.643   0.766
65789W        W29733  20.717   8.406  12.445
65790W        W29734  39.505  15.197   1.210
65791W        W29735   9.735  19.556  13.309
65792W        W29736  12.282  39.912   2.890
65793W        W29737  12.750  18.126  14.824
65794W        W29738  36.455  32.974   1.277
65795W        W29739   3.906  19.143   3.171
65796W        W29740  19.537  37.382   4.663
65797W        W29741  10.356  35.546  11.597
65798W        W29742  44.488   9.777  14.345
65799W        W29743  40.869  22.246   1.388
65800W        W29744  14.829  11.694  13.796
65801W        W29745  16.126  32.143  14.287
65802W        W29746  17.682   7.380  14.917
65803W        W29747  43.272  38.514   1.312
65804W        W29748  22.576  34.590   2.364
65805W        W29749   0.837   2.457   2.193
65806W        W29750   4.805  23.734   1.887
65807W        W29751  22.665  13.165   4.145
65808W        W29752  30.416   6.868   1.724
65809W        W29753  33.481  28.961   3.335
65810W        W29754  29.920  29.122   4.344
65811W        W29755  20.123  37.862   0.351
65812W        W29756  32.465  11.763   2.289
65813W        W29757  23.184  33.951   0.333
65814W        W29758  38.562  12.775   4.266
65815W        W29759  41.376   9.190   2.816
65816W        W29760  35.536  12.144   2.288
65817W        W29761   2.893   5.408  11.588
65818W        W29762   4.442  24.047   1.798
65819W        W29763   4.364  37.951   0.733
65820W        W29764  24.606  18.662   2.320
65821W        W29765   9.764  23.657   2.727
65822W        W29766  16.592   0.353  13.012
65823W        W29767   9.190  33.118   0.855
65824W        W29768   0.458  29.462   2.849
65825W        W29769  15.183   0.839   3.383
65826W        W29770   5.436  24.583   4.717
65827W        W29771  33.452   4.888  13.405
65828W        W29772  44.943  41.876   0.444
65829W        W29773  21.220  23.213   3.665
65830W        W29774  36.427  35.912  10.435
65831W        W29775  29.597  16.212   4.641
65832W        W29776   7.760  34.501   3.380
65833W        W29777  38.057   2.819   3.219
65834W        W29778  44.363  40.834   3.820
65835W        W29779   8.232  30.913   4.334
65836W        W29780  33.896  26.567   2.224
65837W        W29781  12.125  30.017   1.908
65838W        W29782  29.481  12.282   4.617
65839W        W29783  41.508   3.906  13.527
65840W        W29784   3.840  13.108  13.482
65841W        W29785  29.017  44.820  11.897
65842W        W29786  37.353  38.895   5.090
65843W        W29787  29.458  39.319   0.339
65844W        W29788   1.798  36.381  11.571
65845W        W29789  23.092  22.652  12.010
65846W        W29790  41.942  11.832  14.410
65847W        W29791   0.484   2.229   1.394
65848W        W29792  44.352  24.654  14.922
65849W        W29793  18.137  44.839  14.515
65850W        W29794  35.923   6.190   2.758
65851W        W29795  28.036  44.003  10.480
65852W        W29796  17.726  26.986  13.432
65853W        W29797  25.095   8.190   1.260
65854W        W29798  36.555   9.375  10.635
65855W        W29799  38.432  38.571   3.728
65856W        W29800   4.834  26.193   0.747
65857W        W29801  30.588  16.221   2.290
65858W        W29802  29.615  19.687  12.470
65859W        W29803  22.006   2.386   2.721
65860W        W29804  24.480  14.593  11.415
65861W        W29805  27.623  37.498  10.121
65862W        W29806   7.857   2.911  14.908
65863W        W29807  30.015  24.055  10.898
65864W        W29808  25.489  43.480  12.394
65865W        W29809   6.684  40.021   2.374
65866W        W29810   1.781  14.824  11.491
65867W        W29811  24.063  38.915  11.499
65868W        W29812  44.759  15.666  14.354
65869W        W29813  37.563  40.960   2.331
65870W        W29814  18.240  41.312   3.748
65871W        W29815  18.105   9.715  10.024
65872W        W29816   8.243  38.969   3.803
65873W        W29817  11.224  20.126  10.513
65874W        W29818  39.985   6.404   3.781
65875W        W29819  20.583  20.044   0.339
65876W        W29820  23.520  15.248   2.878
65877W        W29821  13.155  31.468  14.479
65878W        W29822   3.287  28.945   1.302
65879W        W29823   0.781  38.827  11.097
65880W        W29824   2.922  22.676   2.801
65881W        W29825  11.174  34.563   1.224
65882W        W29826  12.788  19.566   4.339
65883W        W29827  35.491  20.624   0.854
65884W        W29828  29.551  13.763   3.674
65885W        W29829   2.773  26.981  12.053
65886W        W29830   7.225   7.392   1.695
65887W        W29831   1.921  32.072  10.542
65888W        W29832  26.556  15.714   0.267
65889W        W29833  35.410   0.747  10.456
65890W        W29834  36.400  22.044  11.385
65891W        W29835  27.992   8.847  11.389
65892W        W29836  24.041  14.684  13.437
65893W        W29837  34.399  10.342   4.642
65894W        W29838  23.239  38.059  11.861
65895W        W29839  36.347  35.548   4.350
65896W        W29840  38.500  34.563  14.368
65897W        W29841  29.019  24.549  14.315
65898W        W29842  22.573   4.715   4.662
65899W        W29843  21.222  20.181   5.243
65900W        W29844   4.303   0.806   2.284
65901W        W29845  44.936   8.263  10.641
65902W        W29846  15.632  12.162   0.404
65903W        W29847  31.548   0.450   3.178
65904W        W29848  14.276  37.413  10.553
65905W        W29849  14.692   7.796  11.494
65906W        W29850  16.626  26.143   1.803
65907W        W29851  33.460  43.861   1.359
65908W        W29852  15.197  25.163   3.653
65909W        W29853  35.052   9.739   1.736
65910W        W29854  19.228  36.057  13.015
65911W        W29855  22.146  41.377   1.336
65912W        W29856  10.372   8.262   0.943
65913W        W29857  39.383   1.339   4.796
65914W        W29858  19.040  12.203  12.945
65915W        W29859  20.735  30.134   0.849
65916W        W29860  21.260  14.233  12.977
65917W        W29861  22.540   2.935  11.595
65918W        W29862  37.511  27.598   2.261
65919W        W29863  20.668  42.920   2.318
65920W        W29864  37.495  44.357  13.809
65921W        W29865  19.177  11.308  13.890
65922W        W29866  11.164   7.901  12.478
65923W        W29867  32.485   2.913  13.469
65924W        W29868  27.947  42.896   1.221
65925W        W29869  22.225  11.639   4.179
65926W        W29870  10.862  15.783   9.631
65927W        W29871  16.279  34.394  13.511
65928W        W29872   7.358   4.823  12.888
65929W        W29873  13.130  16.273   0.863
65930W        W29874  11.203  11.317  13.906
65931W        W29875  17.754  41.425   0.894
65932W        W29876  29.464  13.664   2.742
65933W        W29877   7.721   5.206   0.952
65934W        W29878  21.148   5.753  12.896
65935W        W29879  31.910  42.325  11.915
65936W        W29880   0.406   2.431  14.354
65937W        W29881   3.947   2.769  11.873
65938W        W29882  13.637   5.931   1.857
65939W        W29883  41.399  37.560   0.261
65940W        W29884   6.839   4.844   4.817
65941W        W29885  22.641   3.216  11.903
65942W        W29886  13.713   6.365  13.993
65943W        W29887   1.855  20.542   3.358
65944W        W29888  21.177  13.278  12.827
65945W        W29889  36.510  38.392  12.861
65946W        W29890  41.516  35.943   4.138
65947W        W29891   7.357  10.749   3.822
65948W        W29892  34.884  22.656   4.676
65949W        W29893   7.822  11.626  13.316
65950W        W29894  19.125  20.196   1.706
65951W        W29895  11.232  39.547  10.643
65952W        W29896  14.614  12.796   1.403
65953W        W29897  20.052  44.900  11.024
65954W        W29898   9.177  28.006   1.763
65955W        W29899  33.935  36.017  12.981
65956W        W29900  21.554   3.311  11.965
65957W        W29901  12.846  20.586  10.555
65958W        W29902  42.439  44.846   3.187
65959W        W29903   1.915  18.632   2.800
65960W        W29904  44.781  19.693  12.965
65961W        W29905  25.147  24.995   0.280
65962W        W29906  18.670  31.539   2.271
65963W        W29907  39.957  43.999  13.397
65964W        W29908  17.651  16.718   0.829
65965W        W29909  25.195  23.172  12.866
65966W        W29910  23.104   7.397  12.006
65967W        W29911  39.371   2.961   0.890
65968W        W29912   8.217   3.823  10.552
65969W        W29913  11.637  37.432  12.501
65970W        W29914  28.170  40.541  14.513
65971W        W29915   3.318   5.270  13.353
65972W        W29916  26.591   9.338  11.908
65973W        W29917  35.037  40.394  12.514
65974W        W29918  41.028  40.024  11.923
65975W        W29919  27.065   8.168   3.695
65976W        W29920  33.075  21.659  10.905
65977W        W29921  35.901  25.666   0.473
65978W        W29922  25.160  24.002   1.235
65979W        W29923  16.619  39.925   2.247
65980W        W29924  15.249   5.809  12.426
65981W        W29925  24.111  28.063  12.984
65982W        W29926   0.836   6.362  11.050
65983W        W29927  20.650   0.481  14.028
65984W        W29928  39.324  44.776   2.705
65985W        W29929  21.747  40.850  12.903
65986W        W29930   4.369  20.256  11.875
65987W        W29931   5.701  30.142  13.833
65988W        W29932   1.245  16.650   3.719
65989W        W29933  40.954  27.166  14.869
65990W        W29934  23.040  29.095   4.140
65991W        W29935  41.858   2.939  14.404
65992W        W29936  28.463  20.057   1.760
65993W        W29937   9.749  34.870  14.508
65994W        W29938  14.796   7.408  14.346
65995W        W29939  21.742  22.040   3.192
65996W        W29940  20.136  10.160   4.827
65997W        W29941  32.944  36.888   4.644
65998W        W29942  27.129  11.365  14.365
65999W        W29943  43.802  37.941  12.059
66000W        W29944  44.404  25.565  12.005
66001W        W29945  44.891   7.285   4.118
66002W        W29946  25.128  44.292   2.302
66003W        W29947  11.829  33.489   3.202
66004W        W29948  41.463   4.839   1.855
66005W        W29949  19.042  32.555  14.773
66006W        W29950  13.286   4.268  12.923
66007W        W29951  32.505   5.723  14.420
66008W        W29952   1.318  27.071  13.542
66009W        W29953  44.395  23.602   2.263
66010W        W29954  15.810  41.533  14.458
66011W        W29955  26.062  40.822   1.412
66012W        W29956  26.115  44.392  14.841
66013W        W29957   6.286  39.514   1.901
66014W        W29958  36.430  13.286   4.830
66015W        W29959  17.230  21.030  13.064
66016W        W29960   5.729  24.602   2.869
66017W        W29961   8.260  16.759  14.515
66018W        W29962   5.376  12.224   3.723
66019W        W29963  23.549  10.692  12.017
66020W        W29964   0.960  38.891   2.767
66021W        W29965  36.948  40.805  11.565
66022W        W29966  32.132  34.487   4.649
66023W        W29967   9.646  15.688  12.552
66024W        W29968  41.300  26.959  14.822
66025W        W29969  10.304  24.695  13.910
66026W        W29970  21.106  38.059   2.250
66027W        W29971   3.368  43.387  13.314
66028W        W29972  33.962  43.286   1.438
66029W        W29973  16.162  18.755   2.718
66030W        W29974  32.984  18.180  13.492
66031W        W29975  15.700  12.615   3.287
66032W        W29976   0.446  35.992  14.975
66033W        W29977  12.260   9.250  12.578
66034W        W29978  28.446  42.929   0.738
66035W        W29979   5.805   2.820   0.872
66036W        W29980  16.131  43.408   3.301
66037W        W29981  44.757  42.853   1.930
66038W        W29982  28.591   7.357  13.347
66039W        W29983  40.963  43.381   4.232
66040W        W29984   2.938   0.446  14.939
66041W        W29985  24.559  43.366   4.170
66042W        W29986  23.717   5.921   1.880
66043W        W29987  25.499  34.419   4.781
66044W        W29988  43.946  31.969   4.671
66045W        W29989  38.360  16.127  10.409
66046W        W29990   7.877  29.474  11.954
66047W        W29991  37.402  25.011   3.860
66048W        W29992  15.732  18.581  11.516
66049W        W29993  19.678   8.358  14.926
66050W        W29994  41.328  14.780  10.557
66051W        W29995   1.783  24.016  12.004
66052W        W29996  30.007  27.624  10.603
66053W        W29997   8.748  33.434   0.265
66054W        W29998  22.040  44.958  13.384
66055W        W29999  31.032  12.336  11.372
66056W        W30000  30.038  18.623  13.846
66057W        W30001   3.952  35.092   1.730
66058W        W30002  24.087   5.295  13.832
66059W        W30003  38.373  20.601  14.802
66060W        W30004  21.135  43.281   3.193
66061W        W30005  29.634   7.744  14.299
66062W        W30006  13.765   1.816   0.938
66063W        W30007  26.203  26.618  12.345
66064W        W30008  32.575  33.997  14.376
66065W        W30009  38.514   0.435  13.797
66066W        W30010  23.656  13.244  14.900
66067W        W30011  26.187  39.512  11.058
66068W        W30012  18.721  22.708   2.216
66069W        W30013  43.895   9.777  12.077
66070W        W30014   6.237   7.876  13.029
66071W        W30015  43.306  13.690   3.710
66072W        W30016  39.858   8.857  10.967
66073W        W30017  23.542   9.383  11.938
66074W        W30018   9.705  34.892  12.989
66075W        W30019  25.179  42.008   4.784
66076W        W30020  24.588  10.837   1.756
66077W        W30021  33.056  18.709  13.800
66078W        W30022  37.848  18.699   2.680
66079W        W30023  33.459  10.195  14.786
66080W        W30024  19.041  38.432  11.386
66081W        W30025  26.027  32.489   0.926
66082W        W30026  20.164  23.548   9.676
66083W        W30027  33.555  24.142  14.362
66084W        W30028  44.758  12.285  12.972
66085W        W30029  36.083   7.188   2.762
66086W        W30030  16.611   0.943   0.931
66087W        W30031  17.722  15.108  13.432
66088W        W30032  18.162  13.254   4.297
66089W        W30033   4.446  16.739   4.767
66090W        W30034  28.582  15.181   1.358
66091W        W30035  38.372  12.668   3.704
66092W        W30036   2.778  10.252  10.639
66093W        W30037   0.371   3.292   3.794
66094W        W30038  24.484  18.689   4.708
66095W        W30039   8.388   8.871  13.027
66096W        W30040   1.347  39.481   3.164
66097W        W30041  12.208   8.661  14.426
66098W        W30042  13.307  36.436  14.012
66099W        W30043  14.648  39.537  11.569
66100W        W30044  33.464  39.329   2.292
66101W        W30045  20.270  43.351  14.976
66102W        W30046  15.214  31.052   5.235
66103W        W30047  37.393  30.530   1.862
66104W        W30048  21.640  23.586  12.552
66105W        W30049  13.271  20.540   1.694
66106W        W30050   8.221  28.485  12.404
66107W        W30051  25.117  29.034  12.090
66108W        W30052  21.669  13.828   4.658
66109W        W30053  11.737   4.405   0.844
66110W        W30054   7.234  38.520   0.444
66111W        W30055   7.291  39.060   0.820
66112W        W30056   6.401  43.920  12.480
66113W        W30057  38.325  33.113   1.440
66114W        W30058  26.527   8.328  10.906
66115W        W30059  25.131  18.776  13.826
66116W        W30060  34.876  18.745   3.159
66117W        W30061  15.805  44.300   1.392
66118W        W30062  12.310  42.491  12.409
66119W        W30063  17.581  37.454   0.769
66120W        W30064  17.176   3.392  11.935
66121W        W30065  29.630  15.111  14.292
66122W        W30066  33.114  19.710  12.058
66123W        W30067  19.280  17.612   0.860
66124W        W30068  22.139   6.822   2.802
66125W        W30069  31.078  34.592  10.519
66126W        W30070  42.404   7.357  13.334
66127W        W30071  30.085  18.117   2.336
66128W        W30072  37.086  32.088  12.064
66129W        W30073  33.417  18.216   4.766
66130W        W30074   0.341  35.969  13.998
66131W        W30075  23.532  31.534   2.818
66132W        W30076  24.203  12.362   3.260
66133W        W30077   2.847  39.463  12.533
66134W        W30078  39.967  13.650  12.871
66135W        W30079  15.662  14.139  14.921
66136W        W30080  10.246   5.210   3.665
66137W        W30081  30.564  41.846   1.345
66138W        W30082  15.273   2.798   0.371
66139W        W30083   9.220  42.973   4.303
66140W        W30084  42.448  28.022   0.889
66141W        W30085  44.795   1.846  12.079
66142W        W30086  18.560  28.016  12.362
66143W        W30087  17.197  13.603   0.472
66144W        W30088  37.929  13.762   3.292
66145W        W30089   2.841  21.200  10.617
66146W        W30090  36.356   1.777   4.826
66147W        W30091  24.592  24.064  14.979
66148W        W30092  34.091  43.805   1.311
66149W        W30093  34.110   7.904  12.909
66150W        W30094   7.746   2.811   0.285
66151W        W30095  40.903  33.104  14.360
66152W        W30096  27.098  10.151   2.801
66153W        W30097  44.984  12.333   4.821
66154W        W30098   4.803  40.369  12.903
66155W        W30099  24.677  40.525  10.923
66156W        W30100  23.992  37.515  14.481
66157W        W30101  20.642  26.196   2.341
66158W        W30102  23.099  14.716   0.858
66159W        W30103  25.683  35.364  10.413
66160W        W30104   9.714  18.711   0.479
66161W        W30105  24.610  15.307  11.948
66162W        W30106  36.880  43.385  14.945
66163W        W30107  22.723  12.257   1.409
66164W        W30108   8.368  25.621   3.747
66165W        W30109  18.609  36.439   1.786
66166W        W30110   6.295  31.905   4.152
66167W        W30111  17.772  29.151   2.813
66168W        W30112  34.925  35.080  10.476
66169W        W30113  11.305  30.626   3.385
66170W        W30114  27.472  13.641   1.266
66171W        W30115  40.978   0.749   1.859
66172W        W30116  12.739   9.333   4.142
66173W        W30117   7.886  44.993  14.462
66174W        W30118  39.443  34.069   1.329
66175W        W30119   7.851  18.075  13.466
66176W        W30120   7.885  18.765   4.197
66177W        W30121   7.759  27.195   2.883
66178W        W30122  27.019   2.244  10.447
66179W        W30123  21.122   7.696   4.209
66180W        W30124  37.051   0.911  13.346
66181W        W30125  21.683  10.287   3.766
66182W        W30126   0.812   2.363   3.156
66183W        W30127  34.462  16.788   1.278
66184W        W30128  35.488  43.286  14.338
66185W        W30129  20.129  43.771  14.845
66186W        W30130  11.264  33.918  13.814
66187W        W30131  36.516  20.060   2.299
66188W        W30132  12.255   5.277   0.382
66189W        W30133  16.636   8.255  13.932
66190W        W30134  18.274  33.610  11.077
66191W        W30135  32.518  37.959   3.381
66192W        W30136  31.421  15.634  10.067
66193W        W30137  15.178   1.826  10.428
66194W        W30138  35.555  36.930   3.367
66195W        W30139  33.556  37.854  12.037
66196W        W30140  30.093   8.817   3.697
66197W        W30141  35.036  22.149   2.318
66198W        W30142  12.835   7.365   2.199
66199W        W30143  38.949  21.143   3.756
66200W        W30144  31.403  38.410  14.346
66201W        W30145  21.263  35.029   4.660
66202W        W30146  15.325   2.771  11.475
66203W        W30147  41.977  20.259   1.766
66204W        W30148  28.517  37.517  11.373
66205W        W30149   6.327  23.997   1.915
66206W        W30150  44.934   7.298   5.130
66207W        W30151  42.349   7.827  11.490
66208W        W30152  13.223  37.376   4.116
66209W        W30153   2.753  35.931  13.492
66210W        W30154  24.484  43.984  14.420
66211W        W30155   6.903  13.642  10.493
66212W        W30156  33.117  15.580   4.692
66213W        W30157   7.290  43.304   3.203
66214W        W30158   2.880  30.642  11.515
66215W        W30159  44.335  21.132   3.805
66216W        W30160  40.903  35.546  13.469
66217W        W30161  20.735  33.472   0.736
66218W        W30162   0.768  43.921   1.230
66219W        W30163  15.140  10.740  11.579
66220W        W30164  43.454  15.707   1.934
66221W        W30165  21.549  40.047  11.027
66222W        W30166  37.579  12.281  10.499
66223W        W30167  35.469   7.733   1.304
66224W        W30168  35.927  35.388  11.129
66225W        W30169  29.057   3.788  14.785
66226W        W30170  41.896  32.629   3.192
66227W        W30171   4.250  43.022   0.855
66228W        W30172   5.392  27.958   1.362
66229W        W30173  36.988  22.015   4.682
66230W        W30174  22.603  18.104  14.514
66231W        W30175  25.196  20.178  13.812
66232W        W30176   6.838  29.488  11.894
66233W        W30177   4.313   9.218  14.428
66234W        W30178  36.477   5.744   1.371
66235W        W30179  22.727  30.572   0.886
66236W        W30180   2.461  27.631  11.992
66237W        W30181   1.423  29.031  10.541
66238W        W30182  30.944  29.038  10.567
66239W        W30183   6.865  26.688  11.859
66240W        W30184   0.466   3.361   4.171
66241W        W30185  29.950   7.218   4.670
66242W        W30186  36.078  17.708   2.707
66243W        W30187  39.901  27.999   3.298
66244W        W30188  26.601  42.997   0.265
66245W        W30189  12.362  13.251   4.260
66246W        W30190   8.249  17.269  14.947
66247W        W30191  25.616  21.686   1.235
66248W        W30192  18.221  10.717  11.512
66249W        W30193  12.326  31.444  12.527
66250W        W30194  26.651  36.064   0.866
66251W        W30195  27.447  21.157  11.530
66252W        W30196  26.692  30.470  12.549
66253W        W30197  40.839  13.171  10.901
66254W        W30198  38.937  36.916  12.849
66255W        W30199  12.615  36.488   1.774
66256W        W30200  16.303  42.982  12.862
66257W        W30201  23.223  21.125  14.493
66258W        W30202  42.322  34.010  10.478
66259W        W30203  18.162  29.644   4.177
66260W        W30204  11.709  44.280   2.895
66261W        W30205  17.594  28.561  10.502
66262W        W30206  38.436   4.407   1.799
66263W        W30207  14.115  24.144  13.835
66264W        W30208  36.577  25.145  14.497
66265W        W30209  20.100  23.185  11.465
66266W        W30210  20.190  10.721   4.703
66267W        W30211  33.913  15.115  12.963
66268W        W30212  30.659  30.908   0.464
66269W        W30213  36.503  37.899  11.583
66270W        W30214   2.775  37.031  13.334
66271W        W30215  13.263  43.813  12.948
66272W        W30216  30.562  38.337   2.759
66273W        W30217  34.545  44.454  13.467
66274W        W30218  32.524  40.433   1.427
66275W        W30219  11.251  21.167   0.728
66276W        W30220  36.910  34.090  14.868
66277W        W30221  23.687   8.171  10.636
66278W        W30222  44.486  24.212   0.935
66279W        W30223  37.063  24.011  13.884
66280W        W30224   9.306  40.018  12.566
66281W        W30225  16.727  37.398   2.186
66282W        W30226   0.286  16.150   3.302
66283W        W30227  31.618  17.102   0.757
66284W        W30228  19.753  19.283  11.402
66285W        W30229   9.213   2.458   1.802
66286W        W30230  22.159  30.003  13.433
66287W        W30231  17.095   5.434  11.951
66288W        W30232   5.883  27.674  14.026
66289W        W30233  42.351  16.612  14.390
66290W        W30234  28.022  29.531   4.720
66291W        W30235   9.382  30.428   1.386
66292W        W30236  19.707  28.102  14.450
66293W        W30237  26.083  36.378   1.272
66294W        W30238  12.324  36.081  10.465
66295W        W30239   0.451  37.082  10.405
66296W        W30240  14.150  17.275  12.426
66297W        W30241   3.798   8.187  14.426
66298W        W30242  31.620  22.040   0.324
66299W        W30243  19.650  44.340   3.665
66300W        W30244  24.151  15.125  12.995
66301W        W30245  44.278   2.804   1.273
66302W        W30246  24.682  34.945  11.019
66303W        W30247  28.474  43.480   4.797
66304W        W30248  17.592  33.939   3.832
66305W        W30249  26.159  18.544   2.837
66306W        W30250  31.550  14.700   1.863
66307W        W30251  44.892   6.815   0.807
66308W        W30252   4.794  19.645   3.773
66309W        W30253  41.795  21.130  13.911
66310W        W30254  24.155  28.637  11.903
66311W        W30255  11.229  33.003  11.534
66312W        W30256  37.862   7.248  14.438
66313W        W30257  30.913   0.487   3.251
66314W        W30258   9.825  31.959   1.413
66315W        W30259   0.307  38.332   2.690
66316W        W30260  24.676  39.049  14.462
66317W        W30261   3.725  18.091  10.071
66318W        W30262  23.997  19.221   0.268
66319W        W30263  28.058  20.526   1.921
66320W        W30264   2.393   5.215  13.961
66321W        W30265  36.457   0.483   2.326
66322W        W30266  16.083  21.698  11.508
66323W        W30267  27.537  11.262   3.310
66324W        W30268  29.081  30.632   1.932
66325W        W30269  36.461   7.751  13.370
66326W        W30270  10.874   7.855  11.420
66327W        W30271   7.695  17.128   0.395
66328W        W30272  28.996   4.840  13.810
66329W        W30273  38.992  20.604  13.347
66330W        W30274  29.149  17.650   2.318
66331W        W30275  35.376   1.459  12.826
66332W        W30276  22.637  39.913  10.068
66333W        W30277  42.475  17.074  13.872
66334W        W30278  42.316  10.276   1.741
66335W        W30279   8.728  43.338  14.992
66336W        W30280  41.451  17.747  11.576
66337W        W30281  16.621  16.717  14.792
66338W        W30282  28.108  36.864  14.814
66339W        W30283   7.847   3.764  14.445
66340W        W30284  12.797   6.226   3.686
66341W        W30285  11.146  31.953  13.411
66342W        W30286   2.888   0.475  10.416
66343W        W30287  38.390  30.512  13.422
66344W        W30288  39.378  44.459  14.455
66345W        W30289   6.233  34.931   4.159
66346W        W30290  18.632   4.398  14.429
66347W        W30291  14.670  42.009  12.488
66348W        W30292   2.457   2.315  12.435
66349W        W30293  29.998  39.831   3.816
66350W        W30294  10.635  25.993  11.426
66351W        W30295  10.861  38.951   1.414
66352W        W30296  19.089  43.465   0.876
66353W        W30297   3.337   9.769  10.540
66354W        W30298  15.262  12.688   2.875
66355W        W30299  34.050  22.202  14.849
66356W        W30300  14.769  26.159   3.722
66357W        W30301  11.129   2.432   0.734
66358W        W30302  13.809  43.287  14.291
66359W        W30303  15.133  30.113   1.821
66360W        W30304  11.756  43.002  11.950
66361W        W30305  42.027  38.465   1.796
66362W        W30306  43.279  26.539   3.814
66363W        W30307  18.713   8.211  12.961
66364W        W30308  32.497   4.929  13.059
66365W        W30309  44.783  39.062  12.459
66366W        W30310  23.684   4.891  13.390
66367W        W30311  42.314  11.724   3.261
66368W        W30312  22.637  31.114  14.469
66369W        W30313  35.944  16.780  14.479
66370W        W30314  26.066  33.900   4.140
66371W        W30315   4.355   9.890  10.497
66372W        W30316  34.384  42.291  11.564
66373W        W30317   8.340   4.286   3.157
66374W        W30318  11.324  24.198  12.848
66375W        W30319  17.589  28.133   4.259
66376W        W30320  26.522  28.093   2.209
66377W        W30321  30.544   8.292   1.232
66378W        W30322  30.480  31.607   0.952
66379W        W30323  44.268  33.576   4.175
66380W        W30324  18.663   1.950  12.533
66381W        W30325  42.281   2.367   4.764
66382W        W30326  29.017  25.686   1.714
66383W        W30327  19.597   8.805  12.971
66384W        W30328  15.766  31.006  10.147
66385W        W30329  15.272   0.430   3.756
66386W        W30330  34.465   5.312   2.786
66387W        W30331  22.060  37.017   1.765
66388W        W30332  30.997   0.895  13.938
66389W        W30333  37.087   2.471  14.977
66390W        W30334  26.699  38.867   5.264
66391W        W30335  41.816  21.217  12.995
66392W        W30336  39.524  33.503   0.808
66393W        W30337  16.141   1.960  14.012
66394W        W30338  29.497  19.064   0.249
66395W        W30339  36.850   9.848  14.849
66396W        W30340  40.974  33.413   0.908
66397W        W30341  41.006  16.137  11.904
66398W        W30342  42.881   4.728  10.572
66399W        W30343  22.100  27.145   1.210
66400W        W30344  37.892  36.487   0.404
66401W        W30345  19.657  32.970  12.920
66402W        W30346  10.298  40.904  14.475
66403W        W30347  12.233   1.768   0.333
66404W        W30348  42.977   2.737   1.871
66405W        W30349  19.576  30.654  11.373
66406W        W30350  10.878   8.194   3.226
66407W        W30351  40.421  38.948  14.427
66408W        W30352  11.660  15.717   1.249
66409W        W30353  42.463  28.447   2.216
66410W        W30354  22.089  42.323  10.501
66411W        W30355   0.813  16.577   4.812
66412W        W30356  23.205  12.126   0.384
66413W        W30357  32.070  20.651   4.605
66414W        W30358   3.438  43.508  11.126
66415W        W30359  12.836  16.126   1.331
66416W        W30360  30.120  27.479   4.273
66417W        W30361  23.535  35.481   4.770
66418W        W30362  43.503  35.418   1.797
66419W        W30363  40.982  15.294   3.664
66420W        W30364  20.640   7.398   3.661
66421W        W30365  37.490  12.162  13.548
66422W        W30366  12.344  32.437   0.928
66423W        W30367  19.585   7.279   0.305
66424W        W30368  44.265  39.531  12.454
66425W        W30369  30.923   3.314   0.923
66426W        W30370   0.283  36.531   2.360
66427W        W30371  23.159  19.610   3.795
66428W        W30372  18.758   6.907   4.675
66429W        W30373  31.440  43.436  14.946
66430W        W30374  17.061   1.857  11.962
66431W        W30375  11.197  23.647   4.322
66432W        W30376  12.201  42.863  12.880
66433W        W30377  42.400  17.659  14.309
66434W        W30378  30.656  33.888   2.257
66435W        W30379  40.009  34.109   4.274
66436W        W30380  14.833  13.620   4.812
66437W        W30381   7.765  23.619   0.419
66438W        W30382  32.455  26.483   4.625
66439W        W30383  20.083  20.719  10.442
66440W        W30384  20.118  32.580   0.822
66441W        W30385  37.530   8.840   4.780
66442W        W30386  24.214  15.304  11.544
66443W        W30387   5.757  13.746  14.967
66444W        W30388  13.179  44.349  13.466
66445W        W30389  11.727  23.147   1.790
66446W        W30390  21.182   8.298  13.456
66447W        W30391  22.099  36.011  11.503
66448W        W30392  41.798  30.559  12.934
66449W        W30393  17.742  14.147  11.035
66450W        W30394  28.995  21.577   4.275
66451W        W30395   3.386  33.420   1.795
66452W        W30396  28.459  21.196   1.868
66453W        W30397  11.277  35.022   3.795
66454W        W30398  14.268   1.326  11.564
66455W        W30399   5.860   0.821  10.944
66456W        W30400  22.602  42.775  13.384
66457W        W30401  16.648  39.531   2.738
66458W        W30402   9.345  30.571   2.663
66459W        W30403  20.696  23.203   3.314
66460W        W30404  41.955  27.044   4.273
66461W        W30405  14.739  20.126  10.903
66462W        W30406  42.794  30.458  10.567
66463W        W30407  22.010  32.440   0.268
66464W        W30408  21.512  11.176   4.317
66465W        W30409   2.446  40.045   2.681
66466W        W30410  26.956  26.684  14.292
66467W        W30411  29.125  19.122  12.487
66468W        W30412  29.428  37.006  10.441
66469W        W30413  44.996  19.285   0.960
66470W        W30414  10.635  23.055   4.604
66471W        W30415  24.055   1.936   0.891
66472W        W30416   8.756   3.778   0.800
66473W        W30417  18.160   0.468   3.727
66474W        W30418  25.549   7.349   3.246
66475W        W30419  14.618  10.813   3.351
66476W        W30420  41.395   8.236   4.719
66477W        W30421  29.465  28.625   3.163
66478W        W30422  19.759  36.348   1.824
66479W        W30423   1.338  34.574   2.391
66480W        W30424  31.012  26.982  12.527
66481W        W30425  23.161  28.507   0.825
66482W        W30426   4.210  23.506   0.879
66483W        W30427   6.682  17.267   0.280
66484W        W30428  41.358   6.867   3.291
66485W        W30429   5.863  31.450   1.762
66486W        W30430  16.738  44.956   1.414
66487W        W30431  10.324  23.691   0.892
66488W        W30432  36.432   2.874   1.389
66489W        W30433  33.474   4.436  11.404
66490W        W30434  12.626  10.302  11.600
66491W        W30435  40.966   0.368  12.396
66492W        W30436  44.276  32.040  12.036
66493W        W30437  27.079   4.789   9.996
66494W        W30438  27.653  12.212   0.750
66495W        W30439  38.016   7.720   4.634
66496W        W30440  22.027  35.862   0.417
66497W        W30441  12.279  18.123  11.991
66498W        W30442  15.310   4.934  12.570
66499W        W30443   4.850   7.222   4.751
66500W        W30444  28.102  42.291  13.353
66501W        W30445   0.788  31.486   2.179
66502W        W30446  14.611  22.041  14.329
66503W        W30447   9.733  24.639   3.752
66504W        W30448  29.175   8.851  11.001
66505W        W30449   9.813  24.036   1.439
66506W        W30450  41.972  15.108   0.952
66507W        W30451   1.942   2.394  11.982
66508W        W30452  40.455   4.395   0.481
66509W        W30453  36.423  36.088  11.475
66510W        W30454  13.194  15.671  11.585
66511W        W30455  10.755  20.130   4.191
66512W        W30456  29.050  36.978  12.991
66513W        W30457  21.519  36.929  12.055
66514W        W30458  23.156  24.584  10.501
66515W        W30459  27.474  13.714  14.322
66516W        W30460  22.623  35.407  14.409
66517W        W30461  32.017  26.129  13.313
66518W        W30462  30.516  38.028  12.393
66519W        W30463  31.950  40.921  13.513
66520W        W30464   8.176  20.667   0.810
66521W        W30465  25.004   4.370  13.451
66522W        W30466  29.076  12.286  11.547
66523W        W30467  43.878  34.074   1.429
66524W        W30468  31.985  25.106   1.806
66525W        W30469  38.941   5.413  14.958
66526W        W30470   0.350  33.416   2.260
66527W        W30471   0.870  37.974  13.432
66528W        W30472  32.523  21.091   2.872
66529W        W30473  44.804  12.145  13.399
66530W        W30474   1.788  15.222  10.982
66531W        W30475  11.287  42.517  14.931
66532W        W30476  22.222   3.894  12.096
66533W        W30477  31.102  28.510   4.655
66534W        W30478  25.609  13.655  10.433
66535W        W30479   9.328  35.949   2.786
66536W        W30480  31.935  22.682   2.358
66537W        W30481  32.427  21.717   0.397
66538W        W30482  35.877  42.310   0.914
66539W        W30483   1.253  33.065   2.768
66540W        W30484   4.345  35.003   4.823
66541W        W30485  27.528   0.872   1.378
66542W        W30486  34.446  35.557  14.897
66543W        W30487  33.574  16.316  11.492
66544W        W30488  19.246  38.867  14.428
66545W        W30489  37.395  10.773  11.899
66546W        W30490   4.795   8.376   1.761
66547W        W30491  39.428  38.512   2.798
66548W        W30492  34.087  40.827  13.893
66549W        W30493  33.474  19.190  10.501
66550W        W30494  11.794  31.517  11.518
66551W        W30495  29.657  36.083   3.240
66552W        W30496  27.645  21.629   2.815
66553W        W30497  28.990  12.656  11.006
66554W        W30498  13.280  25.142   1.706
66555W        W30499  13.775   3.419  13.022
66556W        W30500  40.324   9.687   3.215
66557W        W30501   6.728  38.368  12.859
66558W        W30502  31.115  32.572  11.932
66559W        W30503  36.924  28.018   4.775
66560W        W30504  30.013  36.358   3.716
66561W        W30505  26.696   9.218   1.367
66562W        W30506  37.011   3.455   3.779
66563W        W30507  29.051  17.722  13.834
66564W        W30508  33.613  32.968  10.054
66565W        W30509  26.637  16.121  14.023
66566W        W30510   4.893  27.606  12.451
66567W        W30511  34.505   3.231  12.094
66568W        W30512   6.372  22.733  13.812
66569W        W30513  25.154  20.176   3.818
66570W        W30514  38.937  16.614   1.323
66571W        W30515  17.235  38.539  11.600
66572W        W30516  19.586  16.125   0.376
66573W        W30517   2.901   6.732  12.343
66574W        W30518   2.734  22.664  10.929
66575W        W30519  35.068  28.536  12.476
66576W        W30520  34.064  34.900   3.752
66577W        W30521  37.488  15.095  14.026
66578W        W30522  40.048  43.358   4.172
66579W        W30523  41.894  44.949  11.398
66580W        W30524   9.309   7.853   4.244
66581W        W30525   4.883  27.510   4.169
66582W        W30526   9.670  15.136  10.971
66583W        W30527  35.536  34.467   0.795
66584W        W30528  18.148  31.145  12.576
66585W        W30529  32.508  43.774   1.722
66586W        W30530  17.297  26.136  11.872
66587W        W30531  25.539  43.470  10.546
66588W        W30532   3.371   9.822   4.317
66589W        W30533  31.032   2.331   0.816
66590W        W30534  32.526   7.380  11.537
66591W        W30535  31.441  25.515   0.862
66592W        W30536   8.390  25.699   0.296
66593W        W30537  35.358   5.730  12.488
66594W        W30538   5.730  43.286  11.129
66595W        W30539  36.447  29.922  14.916
66596W        W30540   5.424   9.325   0.865
66597W        W30541  11.788   5.729  13.869
66598W        W30542  11.768  15.623  12.376
66599W        W30543  13.738   5.742   4.284
66600W        W30544  10.346  14.321  11.022
66601W        W30545  18.101  43.783   3.799
66602W        W30546  23.065  33.079  13.890
66603W        W30547   6.893  42.348   0.837
66604W        W30548   5.304  13.622  13.513
66605W        W30549  22.624  41.961   1.260
66606W        W30550  21.686  38.833  12.368
66607W        W30551  36.573  32.047  11.557
66608W        W30552   6.363   1.413   0.893
66609W        W30553  37.841  18.237   1.279
66610W        W30554  18.745  19.540   1.327
66611W        W30555   2.841  17.781   1.330
66612W        W30556  44.962  30.592   3.631
66613W        W30557   2.458  27.134   0.758
66614W        W30558  13.771  36.393   0.324
66615W        W30559   3.416  24.029   0.912
66616W        W30560  21.070  17.731   0.261
66617W        W30561  20.181  28.935   4.718
66618W        W30562   9.890  21.024  13.477
66619W        W30563  30.065   9.667  10.615
66620W        W30564  31.481   2.333  13.056
66621W        W30565  35.454  39.373   2.246
66622W        W30566  22.147  11.698  11.859
66623W        W30567  17.236  16.215  12.415
66624W        W30568  35.453  24.170  14.337
66625W        W30569  43.447   0.843   0.739
66626W        W30570   2.296   0.363  10.591
66627W        W30571  24.070   7.770  12.438
66628W        W30572   4.273  28.162  14.306
66629W        W30573  35.379   4.775   3.672
66630W        W30574  14.718  31.466  11.594
66631W        W30575  31.538   5.324   2.888
66632W        W30576  29.072  41.925  14.788
66633W        W30577  33.007  10.876  12.832
66634W        W30578  22.194  33.937   2.786
66635W        W30579  22.554  42.504  13.435
66636W        W30580  26.110  44.458   0.823
66637W        W30581  16.601  23.704   2.853
66638W        W30582  19.742  34.918  11.521
66639W        W30583  28.995  36.470   3.179
66640W        W30584   8.222  27.582  12.999
66641W        W30585   9.788  29.568   3.714
66642W        W30586  19.185  36.082   4.838
66643W        W30587  23.629  38.014   0.855
66644W        W30588  17.242  36.460  10.057
66645W        W30589  23.204  38.326  12.869
66646W        W30590  34.611   9.654   1.363
66647W        W30591  34.008  17.219   3.225
66648W        W30592  33.478   5.689   3.673
66649W        W30593   0.355  24.150   3.148
66650W        W30594  27.637   1.959  14.408
66651W        W30595   1.313  24.564  12.495
66652W        W30596  12.258  40.356  11.978
66653W        W30597   0.391  27.600   2.370
66654W        W30598  34.005  40.861   1.884
66655W        W30599  34.080  41.407  10.987
66656W        W30600  22.720  12.752   3.316
66657W        W30601  41.938  22.123  10.979
66658W        W30602  26.606   1.462  13.902
66659W        W30603  24.508  20.611   2.854
66660W        W30604   0.882  39.398  13.899
66661W        W30605   1.423  12.678   0.310
66662W        W30606  26.576  36.856  14.824
66663W        W30607   0.258  43.988   4.220
66664W        W30608  30.421   2.877   2.330
66665W        W30609  25.180  13.611   0.845
66666W        W30610   9.649   5.437   3.242
66667W        W30611  18.212  24.982  12.497
66668W        W30612  29.062  37.552  12.363
66669W        W30613  40.480  11.278  13.931
66670W        W30614   8.845  26.103   3.320
66671W        W30615   6.716  43.355  11.974
66672W        W30616  29.615   8.200   0.949
66673W        W30617   0.418  22.705   2.335
66674W        W30618   9.804  42.994   2.742
66675W        W30619   3.384  29.176  11.976
66676W        W30620  42.799   4.907   0.257
66677W        W30621   7.336  17.735  11.916
66678W        W30622   3.438   3.308   1.442
66679W        W30623  25.619  38.367  13.824
66680W        W30624  24.027  21.239   2.835
66681W        W30625  30.115   6.778  14.905
66682W        W30626  16.797  17.277  12.956
66683W        W30627   8.781  29.527  11.938
66684W        W30628   1.828  31.983  12.563
66685W        W30629  33.052  25.627   1.740
66686W        W30630  18.770   8.796   0.901
66687W        W30631  10.290  18.186  13.414
66688W        W30632  14.656  19.259   1.855
66689W        W30633  12.714  14.699  11.592
66690W        W30634  14.297  30.035  14.774
66691W        W30635  37.574  20.632  10.953
66692W        W30636  11.814  43.929  11.397
66693W        W30637  11.710  34.064   1.855
66694W        W30638  13.770  43.430   4.784
66695W        W30639  40.543  41.464  13.873
66696W        W30640  13.600  34.096  12.921
66697W        W30641  34.998  17.636   3.818
66698W        W30642   9.650  27.086   5.194
66699W        W30643  13.818  10.197   4.150
66700W        W30644  35.896  39.893   0.921
66701W        W30645   6.247   4.747  10.913
66702W        W30646  19.688  39.452   3.752
66703W        W30647  29.078  30.133  11.092
66704W        W30648   1.403  40.990   3.834
66705W        W30649  38.077  22.691  11.411
66706W        W30650  31.003   3.335   1.736
66707W        W30651  17.576   8.798   1.760
66708W        W30652  15.286   7.876  14.985
66709W        W30653   2.338  42.945   9.991
66710W        W30654  15.161  38.373  10.428
66711W        W30655   2.723   6.360  13.974
66712W        W30656  16.072  26.083  14.312
66713W        W30657  32.450  16.082   0.753
66714W        W30658  44.474  25.170  12.865
66715W        W30659  12.793  39.992   2.849
66716W        W30660  40.052  13.619   2.755
66717W        W30661  18.610   6.737   4.243
66718W        W30662  16.288  33.006  13.392
66719W        W30663  10.668   2.443  14.981
66720W        W30664  42.965   8.657   3.828
66721W        W30665   1.745  37.953  11.874
66722W        W30666  42.943  22.590  12.952
66723W        W30667   1.302  30.460  14.414
66724W        W30668  37.514   3.432   3.831
66725W        W30669  21.737  23.729   2.716
66726W        W30670  32.611  41.928  12.548
66727W        W30671  29.984  16.262  12.574
66728W        W30672   1.348  38.054  14.830
66729W        W30673   2.360  10.325   0.264
66730W        W30674  10.790   8.750   1.442
66731W        W30675  41.320  30.143  13.813
66732W        W30676  15.109   2.877  14.932
66733W        W30677  18.129  20.555   0.779
66734W        W30678   6.400   6.693  11.587
66735W        W30679  37.049   9.733  12.851
66736W        W30680   1.276  26.129   3.161
66737W        W30681   1.927  14.627  14.963
66738W        W30682  44.989  37.995  13.803
66739W        W30683  34.905  26.581   5.321
66740W        W30684  14.807  10.757   0.455
66741W        W30685  36.922  14.268   2.855
66742W        W30686  37.501  20.553   3.344
66743W        W30687  41.341  22.724  12.353
66744W        W30688  21.686  17.160   0.404
66745W        W30689   4.727  27.109  11.489
66746W        W30690   1.433  37.397   0.777
66747W        W30691  24.603   9.369   1.280
66748W        W30692  28.168  34.470  13.540
66749W        W30693   1.425  23.174  13.323
66750W        W30694  16.167   5.373  13.035
66751W        W30695  11.129  17.071  14.425
66752W        W30696  42.023  18.278   3.243
66753W        W30697  20.714   8.841   0.864
66754W        W30698  39.554  29.533   0.911
66755W        W30699  19.276  38.492   4.307
66756W        W30700  22.020  13.713   2.218
66757W        W30701  25.080   3.407   5.226
66758W        W30702  31.029  31.102   3.198
66759W        W30703  34.892   5.876  13.915
66760W        W30704  29.633  27.666   1.786
66761W        W30705  18.213  32.545  12.388
66762W        W30706  18.629  28.118   5.116
66763W        W30707  15.286  35.552   4.144
66764W        W30708  12.155  39.314  11.914
66765W        W30709   3.886   5.697   3.821
66766W        W30710  37.929   6.797   4.823
66767W        W30711  20.095   7.819   3.381
66768W        W30712  27.047  18.191  13.798
66769W        W30713  22.530  21.529  11.989
66770W        W30714  35.501   4.727  13.881
66771W        W30715   7.820  36.436   0.908
66772W        W30716  38.326   1.356   2.899
66773W        W30717  32.434  10.151   4.807
66774W        W30718   9.179  38.437  10.978
66775W        W30719  11.133   6.304  12.909
66776W        W30720  10.383   8.336   2.740
66777W        W30721  15.815   4.794   4.320
66778W        W30722   1.804  18.596   4.697
66779W        W30723  19.698  43.358  14.005
66780W        W30724  31.980   7.854  11.595
66781W        W30725   3.449  27.524  10.618
66782W        W30726  19.557  30.453   4.641
66783W        W30727  17.802  38.820   3.800
66784W        W30728  14.199  35.986   3.337
66785W        W30729  25.089  31.056   2.380
66786W        W30730  34.453  10.306  13.879
66787W        W30731  34.431  43.514  11.924
66788W        W30732  38.932  43.844  11.054
66789W        W30733  28.455  27.646   3.743
66790W        W30734  38.519  42.517  10.938
66791W        W30735   4.232  19.641  12.993
66792W        W30736  14.624   2.330  14.765
66793W        W30737  28.571  13.845   3.685
66794W        W30738  43.852  18.282   3.789
66795W        W30739  29.989  25.642  11.969
66796W        W30740  12.644   2.268  14.391
66797W        W30741  11.302  31.585  11.439
66798W        W30742   6.721  37.337   2.230
66799W        W30743  28.592  19.720  10.110
66800W        W30744   6.293  32.067  13.951
66801W        W30745  21.663  27.021  11.501
66802W        W30746  33.440  12.148   4.631
66803W        W30747   1.439  44.870   3.837
66804W        W30748  15.221  37.353  11.545
66805W        W30749  31.031  16.129  10.000
66806W        W30750  12.120  41.865  13.882
66807W        W30751   8.200  22.531   3.787
66808W        W30752  26.641  34.492   0.334
66809W        W30753  16.792  29.076   0.757
66810W        W30754   9.169  39.518   3.255
66811W        W30755   4.286  39.831  13.796
66812W        W30756  12.254  37.070   1.866
66813W        W30757  13.806  30.589   4.120
66814W        W30758  37.422  37.515  14.999
66815W        W30759  23.631  27.191  13.949
66816W        W30760  31.403  10.832   3.222
66817W        W30761  34.389  22.534   4.290
66818W        W30762  31.539  11.142  12.825
66819W        W30763  11.788  43.411   0.925
66820W        W30764  25.104   9.299  12.364
66821W        W30765  17.801  27.595   0.335
66822W        W30766  15.140  19.656  12.061
66823W        W30767  28.602   3.347  10.909
66824W        W30768  22.214   5.400  13.882
66825W        W30769  12.698  35.535  14.004
66826W        W30770  18.604  41.310   5.158
66827W        W30771   0.322  16.145  10.970
66828W        W30772   4.704  22.139   1.386
66829W        W30773  15.145   2.323   2.254
66830W        W30774  26.599  21.142  12.042
66831W        W30775  44.485  17.183  13.886
66832W        W30776  42.013  44.815  11.021
66833W        W30777  22.033  30.436  12.929
66834W        W30778  21.559  17.641   2.338
66835W        W30779  42.347  32.456   1.324
66836W        W30780  40.432  18.268  13.436
66837W        W30781   5.787  28.469  13.927
66838W        W30782  35.066  25.633  12.461
66839W        W30783  20.549  41.341  10.418
66840W        W30784  15.716  35.395  14.355
66841W        W30785  30.636  31.090   3.643
66842W        W30786  23.693   0.823  13.972
66843W        W30787  29.002  35.421  12.860
66844W        W30788  23.036  28.537  13.469
66845W        W30789  34.028   7.383   4.157
66846W        W30790   7.896   5.886   9.994
66847W        W30791   6.280  30.461   3.638
66848W        W30792  19.565  35.571  11.872
66849W        W30793  20.731  14.728  14.012
66850W        W30794  39.039   5.302  12.372
66851W        W30795  35.029  19.285  11.897
66852W        W30796  10.836  28.464  12.340
66853W        W30797  40.365   0.753  13.986
66854W        W30798   4.730  11.174  11.986
66855W        W30799  23.120   6.843   4.225
66856W        W30800  39.064  26.185   0.371
66857W        W30801  15.243   0.279   1.817
66858W        W30802   1.944   3.720  12.876
66859W        W30803  32.975   4.854  12.407
66860W        W30804  26.084  39.481  12.549
66861W        W30805   8.826  33.626   2.382
66862W        W30806  33.022  14.226  11.590
66863W        W30807  16.142  15.292  12.495
66864W        W30808   8.691  23.019  10.512
66865W        W30809  37.522  36.347  12.573
66866W        W30810  20.652  22.127  14.511
66867W        W30811  12.306   2.811  14.767
66868W        W30812  32.441  40.479  13.827
66869W        W30813  33.911  43.401   4.220
66870W        W30814   1.432  32.599  12.910
66871W        W30815   4.337  44.896   4.790
66872W        W30816  36.042  31.472  14.028
66873W        W30817  11.195  18.244  13.357
66874W        W30818   9.320  32.396   3.677
66875W        W30819  20.188   1.305  12.405
66876W        W30820   4.775   6.377   4.160
66877W        W30821  27.612  34.481  14.353
66878W        W30822  20.247  29.540   1.742
66879W        W30823   1.739  26.621   4.162
66880W        W30824   3.363  29.468  12.957
66881W        W30825  19.181   5.241  12.040
66882W        W30826  24.085  11.215   4.197
66883W        W30827  36.375  28.168  13.872
66884W        W30828  40.975  18.654  14.306
66885W        W30829   6.743   9.643  14.019
66886W        W30830  31.640  16.798   4.151
66887W        W30831   3.322  26.498  13.940
66888W        W30832  28.636  40.473  11.913
66889W        W30833   8.836   2.276   3.200
66890W        W30834  23.618  37.539  10.574
66891W        W30835  23.150  17.720   4.770
66892W        W30836   1.482  39.994  12.017
66893W        W30837   8.819  34.008  13.825
66894W        W30838  19.286  31.069   4.293
66895W        W30839  40.972  11.305   1.767
66896W        W30840   0.317  42.973   9.961
66897W        W30841  43.963  33.013   2.211
66898W        W30842  16.777  38.925   2.848
66899W        W30843  34.383  20.067  13.828
66900W        W30844  36.956  18.226   1.777
66901W        W30845  12.189  25.587  11.390
66902W        W30846   0.369  42.335   3.210
66903W        W30847  15.728  42.508   4.665
66904W        W30848  17.764  36.441   1.273
66905W        W30849  28.978   7.245   3.717
66906W        W30850  21.584  44.306  12.403
66907W        W30851  32.585  32.049   5.267
66908W        W30852  14.810  36.029   0.916
66909W        W30853  31.563  34.923  11.396
66910W        W30854  38.928  16.160   1.377
66911W        W30855  25.530  21.558   2.815
66912W        W30856  22.707  28.991   0.833
66913W        W30857   3.252   6.828   2.328
66914W        W30858  19.600  31.100  11.106
66915W        W30859  37.578  30.519  11.473
66916W        W30860  24.129  36.370  12.580
66917W        W30861  25.140  10.684  10.456
66918W        W30862  15.743  33.988   2.232
66919W        W30863  15.178  16.738  13.328
66920W        W30864   0.919  15.242  10.519
66921W        W30865  10.857   0.900   0.831
66922W        W30866  34.426  26.503   2.252
66923W        W30867  20.689  44.817  10.980
66924W        W30868  40.544  30.554  14.807
66925W        W30869  11.235  42.958   1.320
66926W        W30870  19.742  22.685   0.811
66927W        W30871  43.375   7.183  10.914
66928W        W30872   6.398  12.807   0.966
66929W        W30873  36.510  16.668  13.981
66930W        W30874  41.459  21.151  11.104
66931W        W30875  13.129  41.353   5.096
66932W        W30876  36.429  12.821  14.320
66933W        W30877  16.646  27.063  14.817
66934W        W30878  25.675  35.932  12.496
66935W        W30879  36.047  33.933   0.785
66936W        W30880  33.495  43.476   1.858
66937W        W30881  29.950  35.919   2.408
66938W        W30882   6.400  22.157  14.906
66939W        W30883  25.163   4.774   3.173
66940W        W30884   6.878  32.596   1.721
66941W        W30885  33.026  42.372  12.965
66942W        W30886  28.970   6.246   1.247
66943W        W30887  43.778  23.548  13.021
66944W        W30888  13.788   3.217  14.868
66945W        W30889  11.697  10.184  14.515
66946W        W30890   6.716   3.919   3.339
66947W        W30891  15.253  37.384   3.633
66948W        W30892  41.946  24.059  12.567
66949W        W30893   7.176  29.957  11.406
66950W        W30894   1.473  12.271  14.774
66951W        W30895  22.236  40.343   3.859
66952W        W30896  26.963  24.058  13.027
66953W        W30897  32.443  18.278  14.785
66954W        W30898  27.182   3.239  12.359
66955W        W30899  21.627  36.041   2.891
66956W        W30900  29.979  31.971   4.294
66957W        W30901  16.239  39.835   2.256
66958W        W30902  16.692  31.094  13.344
66959W        W30903  38.821  40.366  11.964
66960W        W30904  15.198  18.715  10.979
66961W        W30905   5.400  32.579  13.950
66962W        W30906  38.447  23.037  11.393
66963W        W30907  17.653  44.486   2.274
66964W        W30908   3.731  17.065   3.326
66965W        W30909  19.592  43.872  14.285
66966W        W30910  21.102  40.403  12.028
66967W        W30911  35.907  37.957   1.249
66968W        W30912  19.086  21.513  11.075
66969W        W30913  20.182   8.797   2.862
66970W        W30914  24.986  11.190   3.295
66971W        W30915  24.718  12.251   3.344
66972W        W30916  24.179   3.945   3.222
66973W        W30917  30.640  11.799  10.955
66974W        W30918  12.299  19.683   2.370
66975W        W30919   0.387  42.393  14.397
66976W        W30920  36.929  14.130  12.560
66977W        W30921  33.988  31.152   0.292
66978W        W30922  19.205  18.716  12.405
66979W        W30923  23.990  12.291  13.028
66980W        W30924   5.350  21.643   4.602
66981W        W30925   3.341  39.501  13.942
66982W        W30926  28.164   1.927  12.037
66983W        W30927   3.363  27.122   3.323
66984W        W30928   3.316  40.346  12.541
66985W        W30929  21.035  25.593  12.561
66986W        W30930  10.852  31.631  10.968
66987W        W30931   5.417  34.068  13.428
66988W        W30932  21.187  18.595   4.140
66989W        W30933  26.509   7.347  10.429
66990W        W30934  34.392  23.099  12.980
66991W        W30935  35.066  17.216  13.851
66992W        W30936   5.892  17.800   3.687
66993W        W30937  42.968  13.782   1.838
66994W        W30938   3.714  44.778  11.525
66995W        W30939  11.837  31.127   3.643
66996W        W30940  11.779   4.944   1.715
66997W        W30941  25.193  36.969  13.979
66998W        W30942  13.180  36.901  14.380
66999W        W30943  35.939  10.328  11.472
67000W        W30944  13.837  43.311   0.785
67001W        W30945  44.400  39.543  12.029
67002W        W30946  36.963  12.181  13.404
67003W        W30947  29.088  30.571   4.160
67004W        W30948  21.716  22.599   5.139
67005W        W30949  28.057  10.694  11.612
67006W        W30950  31.995  37.058  13.374
67007W        W30951   9.282  14.669   9.646
67008W        W30952  14.753  14.165   2.751
67009W        W30953  23.536  16.609   1.371
67010W        W30954  33.882   3.788  11.377
67011W        W30955  25.053  24.553  11.856
67012W        W30956   7.678  31.953   3.796
67013W        W30957  11.297  10.255   0.332
67014W        W30958  31.405   2.842   0.847
67015W        W30959   1.460  39.484  13.981
67016W        W30960   1.814  34.516  12.919
67017W        W30961   9.828   8.284   4.278
67018W        W30962  28.604  24.554   4.226
67019W        W30963  30.952  31.943   4.135
67020W        W30964  24.113  30.422   3.831
67021W        W30965  26.049  26.972  10.444
67022W        W30966   1.426  18.696  14.301
67023W        W30967   1.773  10.159  13.387
67024W        W30968  36.975   6.400   9.621
67025W        W30969  44.754  40.044   3.345
67026W        W30970  43.493  13.803  12.035
67027W        W30971  42.848  40.309  11.524
67028W        W30972  20.032   7.210  11.909
67029W        W30973  37.555  32.562   4.183
67030W        W30974   9.326  26.526   4.338
67031W        W30975  20.189  12.183  14.991
67032W        W30976  35.500  33.519  11.392
67033W        W30977  42.400  17.200   4.777
67034W        W30978  44.418  20.199   0.423
67035W        W30979  12.273  43.799   2.824
67036W        W30980  19.772  12.707   3.258
67037W        W30981  28.650  37.579  14.397
67038W        W30982  31.984  22.557  14.972
67039W        W30983  35.474  16.676  12.573
67040W        W30984   0.762  24.104   0.327
67041W        W30985  40.304  17.306  11.030
67042W        W30986  41.454  28.069  11.446
67043W        W30987  22.598  18.051   4.673
67044W        W30988  23.519  15.702   1.786
67045W        W30989  22.217  43.331   2.870
67046W        W30990  35.012  14.094  12.455
67047W        W30991   7.697  24.609   3.346
67048W        W30992  34.562   7.710  13.048
67049W        W30993  31.006  12.610   3.805
67050W        W30994  10.253  10.810   1.277
67051W        W30995  15.759  12.729   0.368
67052W        W30996  24.545  19.776   1.702
67053W        W30997  32.469  20.064  14.828
67054W        W30998   2.866  37.065   2.745
67055W        W30999  29.641  12.714   2.761
67056W        W31000   4.263  19.640  13.377
67057W        W31001   4.750  11.290  10.136
67058W        W31002  22.041  41.487   3.664
67059W        W31003  26.993  37.551   0.314
67060W        W31004  17.204  23.208  13.912
67061W        W31005  33.563   9.240   3.783
67062W        W31006  44.354  35.545  11.001
67063W        W31007   4.345  36.016  12.490
67064W        W31008  38.563  43.778  12.346
67065W        W31009  44.411   1.750  13.436
67066W        W31010  42.004  20.663  14.824
67067W        W31011  15.638  37.452  14.886
67068W        W31012  44.456  37.454  14.817
67069W        W31013  34.886  26.154   4.690
67070W        W31014  27.149  12.811   0.281
67071W        W31015  34.614  31.903  13.921
67072W        W31016   6.228   8.736  13.815
67073W        W31017   2.913  39.354   4.226
67074W        W31018  26.136  34.497   1.738
67075W        W31019  35.528   8.307  10.971
67076W        W31020  23.027  21.571  11.599
67077W        W31021  27.640   1.331  11.602
67078W        W31022  11.699  35.978   4.759
67079W        W31023   1.829  11.674  11.017
67080W        W31024   3.217   0.397  14.380
67081W        W31025  26.675  44.501  10.462
67082W        W31026   1.857  11.827   2.704
67083W        W31027  24.215  39.473  14.808
67084W        W31028  30.044  19.580   4.350
67085W        W31029  28.132  30.528   0.313
67086W        W31030  39.447   9.242   0.832
67087W        W31031   4.407  36.989   0.410
67088W        W31032  16.585  22.156  10.446
67089W        W31033  12.167  26.078  10.531
67090W        W31034  34.865  24.644  12.380
67091W        W31035  33.995   2.268  12.405
67092W        W31036  31.041   5.235  14.970
67093W        W31037  29.017   1.286   4.262
67094W        W31038  23.059  14.248  14.873
67095W        W31039  25.990  42.326  10.573
67096W        W31040  14.323   6.805  12.563
67097W        W31041  28.515  34.013   0.406
67098W        W31042  11.206  21.127   2.186
67099W        W31043  42.413  17.212  12.360
67100W        W31044   5.234  38.875   2.863
67101W        W31045  34.866  40.000  12.515
67102W        W31046  11.749  42.509   2.236
67103W        W31047   9.864  23.634  13.953
67104W        W31048  44.901  28.485   2.201
67105W        W31049  20.189  31.916   1.828
67106W        W31050  37.879   2.277   1.856
67107W        W31051  24.984  11.731  12.490
67108W        W31052  39.559  29.546  14.908
67109W        W31053  15.671   4.793   4.781
67110W        W31054  35.864   6.796  10.456
67111W        W31055   8.258  32.544  12.858
67112W        W31056   1.943  16.740  11.540
67113W        W31057  22.138  21.062   2.854
67114W        W31058  20.064  23.065  12.375
67115W        W31059  32.011  18.743  11.965
67116W        W31060  29.102  20.593   0.373
67117W        W31061  19.728  19.728  13.510
67118W        W31062  23.999  23.032  11.987
67119W        W31063  27.952  26.492  11.559
67120W        W31064   6.387  13.807  14.817
67121W        W31065   3.884  36.368   4.621
67122W        W31066  42.445  32.966   4.355
67123W        W31067  15.268  28.545   4.800
67124W        W31068  30.094   9.768   4.766
67125W        W31069  41.486  28.454   0.856
67126W        W31070  38.568  29.141   4.182
67127W        W31071  43.788  23.004   3.152
67128W        W31072  26.691  12.205   1.259
67129W        W31073  28.629   3.878  11.059
67130W        W31074  33.424  22.684  14.907
67131W        W31075  27.941   0.841   2.811
67132W        W31076   2.275   1.352   2.716
67133W        W31077  12.745  27.468  14.925
67134W        W31078  24.057   8.401   3.167
67135W        W31079   5.314  19.711  10.451
67136W        W31080  27.522  20.563  14.807
67137W        W31081  12.709  36.353   0.750
67138W        W31082  32.002   2.259  13.889
67139W        W31083  40.877  26.667  14.963
67140W        W31084   7.741  16.083   3.809
67141W        W31085  20.644  17.574  11.582
67142W        W31086  41.456   8.243   4.295
67143W        W31087  31.953  34.927  12.539
67144W        W31088  10.217  24.000  12.541
67145W        W31089  44.336  41.474   1.880
67146W        W31090  29.572  13.744  10.452
67147W        W31091  35.523  25.169  13.439
67148W        W31092  23.988   1.779  11.022
67149W        W31093  21.172  31.514  11.607
67150W        W31094   9.878  23.646   3.831
67151W        W31095  20.544   7.789   4.609
67152W        W31096  29.596  23.182  11.094
67153W        W31097  35.566  28.938   1.267
67154W        W31098  30.511  16.317  10.019
67155W        W31099  20.626  17.646   1.392
67156W        W31100  15.279   2.720   3.698
67157W        W31101  10.205  21.246  10.569
67158W        W31102  35.460  17.567  13.442
67159W        W31103  16.123  40.865   2.777
67160W        W31104   9.736   7.410  14.025
67161W        W31105   5.715  23.524   0.409
67162W        W31106  39.003  33.512   0.909
67163W        W31107  21.668  25.490   3.281
67164W        W31108  12.829  39.427   2.234
67165W        W31109  22.202  38.916   2.715
67166W        W31110  19.581  19.668   4.280
67167W        W31111  37.507  18.584   3.839
67168W        W31112   3.719  22.641   3.823
67169W        W31113   5.309  37.380  10.564
67170W        W31114  11.716  42.920  12.960
67171W        W31115  30.618  22.149   3.169
67172W        W31116  13.782  28.662   2.821
67173W        W31117  39.837  24.158  13.822
67174W        W31118  37.526  17.206  14.275
67175W        W31119  40.405  27.982   2.713
67176W        W31120  16.164  13.699  13.034
67177W        W31121  25.968  13.309  12.376
67178W        W31122  19.535  39.409   2.378
67179W        W31123  10.139  27.082  12.075
67180W        W31124  22.723  13.819  14.412
67181W        W31125  42.836   2.837  13.454
67182W        W31126   2.349  28.084  11.425
67183W        W31127  18.559  28.492  12.968
67184W        W31128  37.020  11.346   3.725
67185W        W31129  11.844   0.395   9.927
67186W        W31130  14.714  34.950  13.372
67187W        W31131  30.015  23.024   0.730
67188W        W31132  42.864  31.509  11.039
67189W        W31133   1.830  25.564  12.514
67190W        W31134  17.215  44.983  14.322
67191W        W31135   7.380  30.632  11.593
67192W        W31136  31.986  26.467  10.931
67193W        W31137  42.288  34.914   4.749
67194W        W31138  19.196  21.103  10.445
67195W        W31139  16.073  41.912  11.028
67196W        W31140  17.233  40.004  11.427
67197W        W31141  23.072  35.603   1.421
67198W        W31142  16.652  17.165   3.291
67199W        W31143  28.671   8.281  11.114
67200W        W31144  37.902  12.719   3.269
67201W        W31145  17.200  33.429   4.154
67202W        W31146  25.676  26.545   4.143
67203W        W31147   5.850  17.567  14.419
67204W        W31148   0.836  35.081  11.440
67205W        W31149   5.802  38.430  12.073
67206W        W31150  12.140  44.334   0.875
67207W        W31151  31.084  18.190   2.311
67208W        W31152  16.752  36.511   2.801
67209W        W31153   8.183  43.935  13.439
67210W        W31154  23.528  34.879  10.553
67211W        W31155  36.385  23.712   4.627
67212W        W31156  14.282  30.521   4.802
67213W        W31157   4.410   4.292   1.444
67214W        W31158  30.938  28.145  11.976
67215W        W31159  37.521  36.399   4.208
67216W        W31160  11.362  35.107  11.124
67217W        W31161  29.040  21.633   1.280
67218W        W31162  14.248  30.499  11.050
67219W        W31163  27.060   0.324   1.884
67220W        W31164  13.351  18.734  13.997
67221W        W31165  24.203  38.475   1.283
67222W        W31166  13.218  28.937   0.874
67223W        W31167  43.904  10.329   3.708
67224W        W31168  38.952  17.214  10.097
67225W        W31169  10.319   3.322  13.544
67226W        W31170   9.877  13.720   0.325
67227W        W31171  12.772  44.310   0.466
67228W        W31172  29.077  39.898  11.522
67229W        W31173   5.388  21.065   3.698
67230W        W31174  33.945  39.560   2.800
67231W        W31175   1.886  27.448   1.799
67232W        W31176  22.014   3.382   4.618
67233W        W31177   6.240   0.834   0.337
67234W        W31178  28.993  30.464  10.568
67235W        W31179  10.863   7.679  14.768
67236W        W31180  32.447  39.364  12.433
67237W        W31181  35.360  10.673   2.874
67238W        W31182  30.143  24.500   2.669
67239W        W31183  42.957  24.549  12.455
67240W        W31184   5.889  20.220  13.902
67241W        W31185  35.010  18.270   3.828
67242W        W31186  21.525  34.377  10.537
67243W        W31187  28.660  21.612  12.454
67244W        W31188   3.298  40.823  10.984
67245W        W31189  26.120  30.500  12.369
67246W        W31190  14.801   7.322  10.561
67247W        W31191   4.832  20.072  10.612
67248W        W31192  12.187  13.324   0.884
67249W        W31193  28.602   7.853   1.234
67250W        W31194  22.683   0.803  10.503
67251W        W31195  13.340  17.189   2.795
67252W        W31196  26.702  38.892  14.356
67253W        W31197   0.844  33.536  11.009
67254W        W31198   4.700  33.996  14.341
67255W        W31199   6.194   5.740  14.855
67256W        W31200   7.209   2.768   1.879
67257W        W31201  13.839   0.833  14.330
67258W        W31202  25.483  29.030  11.412
67259W        W31203  27.637  21.576   4.129
67260W        W31204   8.870  34.411  13.791
67261W        W31205  44.872  22.219   4.777
67262W        W31206  22.201  38.831  13.013
67263W        W31207   4.418  33.104   1.271
67264W        W31208  14.638  34.514   1.311
67265W        W31209   3.768  13.225  13.812
67266W        W31210   1.955  43.433  13.063
67267W        W31211  43.809  17.064   3.727
67268W        W31212  31.949   3.710  10.628
67269W        W31213  34.588  25.626   2.798
67270W        W31214  32.028  18.211   9.963
67271W        W31215   9.830  20.247   1.325
67272W        W31216  42.518  17.677  14.996
67273W        W31217  26.547  40.959  13.948
67274W        W31218  26.511   2.284  11.478
67275W        W31219  26.009  26.208   3.282
67276W        W31220   6.408  27.493   2.787
67277W        W31221  13.106  39.518   3.191
67278W        W31222  11.623  38.364  13.847
67279W        W31223   3.789   7.894   4.744
67280W        W31224  31.915   0.403   3.685
67281W        W31225   0.805   5.215  13.992
67282W        W31226  42.927  29.504  13.996
67283W        W31227  15.209  43.909  11.398
67284W        W31228   8.846  42.816   2.681
67285W        W31229  40.844  10.686   3.300
67286W        W31230  18.732  30.138   0.471
67287W        W31231  38.851  14.216  10.594
67288W        W31232  14.595  34.526  12.958
67289W        W31233  15.737  29.125  13.971
67290W        W31234   4.889  42.830  10.081
67291W        W31235  44.825  30.154  11.449
67292W        W31236   2.923  11.187   0.335
67293W        W31237  28.655   1.451   2.413
67294W        W31238  41.796  20.216  12.485
67295W        W31239  44.466  24.089  14.815
67296W        W31240  22.560   3.436  11.395
67297W        W31241  18.268  25.523  10.047
67298W        W31242  33.384  23.135   4.167
67299W        W31243   4.306   5.372  10.548
67300W        W31244   7.399  15.586   4.687
67301W        W31245  42.847  15.775  13.434
67302W        W31246  26.683   5.229   1.829
67303W        W31247  15.729  20.260   2.344
67304W        W31248  23.171  38.032  11.529
67305W        W31249  37.468  23.050   2.824
67306W        W31250  38.418  36.077  11.879
67307W        W31251  30.018  14.633   2.377
67308W        W31252  23.229  23.128  13.977
67309W        W31253  32.916  10.778   3.194
67310W        W31254   9.843  15.709   3.167
67311W        W31255  31.946  27.535  11.561
67312W        W31256  19.570  31.591  11.089
67313W        W31257  18.120  30.557  12.057
67314W        W31258  36.045  12.277  12.012
67315W        W31259   7.750  32.461  11.014
67316W        W31260  42.902  39.912  13.983
67317W        W31261  40.968  43.307  13.896
67318W        W31262  38.543  34.960  11.605
67319W        W31263  31.499  40.450   4.184
67320W        W31264  16.316  39.432   2.892
67321W        W31265  30.567  30.499   0.905
67322W        W31266  38.381   7.254   3.343
67323W        W31267  36.497  29.072   0.338
67324W        W31268   7.217   8.789  10.514
67325W        W31269   4.217  12.258  14.398
67326W        W31270  31.013   5.799  11.594
67327W        W31271  41.494  35.373  12.452
67328W        W31272  14.338   2.909   0.245
67329W        W31273  40.944  22.642   1.797
67330W        W31274  12.207   7.731   2.229
67331W        W31275  17.135   3.223   2.775
67332W        W31276  44.296   8.843  12.937
67333W        W31277   1.325  41.433  14.844
67334W        W31278   0.841   6.280  11.928
67335W        W31279  13.636  32.489  12.434
67336W        W31280  27.515  16.094   9.627
67337W        W31281  39.373  39.328  13.846
67338W        W31282  25.486  32.524  10.967
67339W        W31283  43.922   4.226   3.680
67340W        W31284  43.361  19.536   0.792
67341W        W31285  27.529  34.909   1.235
67342W        W31286   2.801  25.499   1.407
67343W        W31287  37.912  31.535  12.056
67344W        W31288  16.575  39.491  14.977
67345W        W31289  21.533  35.962   3.750
67346W        W31290  20.553  31.067   1.714
67347W        W31291   2.470   1.316  11.915
67348W        W31292  30.583   6.779   3.182
67349W        W31293  17.728  26.524   3.647
67350W        W31294   8.740   4.786  13.911
67351W        W31295  31.482  32.608  13.493
67352W        W31296  23.991  27.446   3.695
67353W        W31297   0.844   0.446   1.861
67354W        W31298  13.105  36.959  13.818
67355W        W31299  15.711  30.962   0.743
67356W        W31300  15.779  20.246  11.977
67357W        W31301  11.786  35.023  14.966
67358W        W31302  44.410  20.698   0.907
67359W        W31303   0.488  20.084   1.724
67360W        W31304  22.591  13.743   3.847
67361W        W31305  12.212  28.118   1.814
67362W        W31306  29.082  16.224   2.411
67363W        W31307  14.330  27.125   1.329
67364W        W31308  22.077  33.601   4.195
67365W        W31309   7.751   3.429   4.165
67366W        W31310  30.917  41.411  10.481
67367W        W31311  10.319  40.953   5.231
67368W        W31312   3.762  27.491   3.249
67369W        W31313   9.671   6.376   2.326
67370W        W31314  10.728  30.502   4.733
67371W        W31315  22.709  14.598  14.438
67372W        W31316  28.987   8.221   3.351
67373W        W31317   1.404  28.677  13.327
67374W        W31318  36.843  20.571   2.339
67375W        W31319  28.170  30.646   3.202
67376W        W31320  15.796  42.801  13.802
67377W        W31321  10.759  33.069  10.541
67378W        W31322   7.393  42.329  12.016
67379W        W31323  28.621  12.705   0.746
67380W        W31324  16.625  14.339  12.899
67381W        W31325  34.459   2.949  13.958
67382W        W31326  35.884  18.151  12.401
67383W        W31327  11.761  25.682  13.916
67384W        W31328   9.333  19.747  10.629
67385W        W31329   7.361  25.576   1.343
67386W        W31330  11.856  44.923  12.982
67387W        W31331   1.901  33.895  13.917
67388W        W31332  24.991  23.984   2.210
67389W        W31333   5.337  14.746   1.881
67390W        W31334  24.517   3.917  14.779
67391W        W31335  37.533  27.984   4.333
67392W        W31336  39.058  18.135   1.698
67393W        W31337  40.966   6.742  10.608
67394W        W31338  34.491  21.202   1.843
67395W        W31339  10.160   6.197   1.835
67396W        W31340  13.314  39.962   2.267
67397W        W31341   3.832  14.610  10.958
67398W        W31342  21.092   4.246   4.772
67399W        W31343  37.444   9.838  12.916
67400W        W31344  18.204  43.800  14.792
67401W        W31345   1.782  13.615   2.210
67402W        W31346  14.666   0.953   2.213
67403W        W31347   0.795  40.435   0.289
67404W        W31348  29.979  16.235  13.843
67405W        W31349  39.477  31.520  12.823
67406W        W31350  44.809  41.527   2.789
67407W        W31351  12.783  22.601   0.437
67408W        W31352  16.714  36.353  14.992
67409W        W31353  15.310  33.076  11.905
67410W        W31354  26.039  14.686   0.828
67411W        W31355   8.371   5.415   3.790
67412W        W31356  33.385  44.877  14.380
67413W        W31357   3.341  41.978  11.937
67414W        W31358   9.885  27.198   2.356
67415W        W31359  24.678   9.342  12.514
67416W        W31360  27.564  15.198   0.898
67417W        W31361   8.303  39.365  12.530
67418W        W31362  30.071  37.916  13.940
67419W        W31363  34.416  17.126   4.221
67420W        W31364  24.124  44.499  13.807
67421W        W31365  41.526  22.082  12.438
67422W        W31366  38.870  24.138   5.311
67423W        W31367  36.449   6.686   3.211
67424W        W31368   7.378  31.992   1.858
67425W        W31369  31.966   9.283  12.509
67426W        W31370   6.372   2.817  14.425
67427W        W31371   1.944  10.301   4.157
67428W        W31372  11.332  43.392  12.003
67429W        W31373  13.719  38.892  11.108
67430W        W31374  44.338  38.915   0.842
67431W        W31375  15.208   6.234  13.020
67432W        W31376  34.594  12.327   0.400
67433W        W31377  40.946  36.901  11.094
67434W        W31378  23.493  36.979  13.434
67435W        W31379  43.454  29.600  12.412
67436W        W31380   7.302  10.359  10.572
67437W        W31381  14.734  26.633   0.448
67438W        W31382  41.938  44.498   2.305
67439W        W31383  40.797  42.422   0.735
67440W        W31384  36.945   6.263  13.454
67441W        W31385   0.280  42.030   4.698
67442W        W31386  17.777  34.593  13.470
67443W        W31387  44.373  14.282  13.814
67444W        W31388  38.937  11.683  14.496
67445W        W31389   4.758  16.771   2.889
67446W        W31390   3.315  16.287  11.474
67447W        W31391  12.211  22.044  10.501
67448W        W31392  32.393  43.846  11.124
67449W        W31393  40.013  12.846  10.931
67450W        W31394   5.398  27.493  11.554
67451W        W31395  19.252   9.646   4.722
67452W        W31396  42.468  23.525  13.390
67453W        W31397  29.486  36.521  12.568
67454W        W31398  40.378   5.786  13.407
67455W        W31399  29.150  14.117   1.278
67456W        W31400  16.103   5.328  14.474
67457W        W31401  30.580   6.326  11.906
67458W        W31402   1.840   2.340  11.533
67459W        W31403  30.049  31.965  11.514
67460W        W31404   4.895  38.564   1.720
67461W        W31405  20.546  42.510  12.894
67462W        W31406  39.893   0.762  13.979
67463W        W31407  15.183   8.762   3.663
67464W        W31408  33.874  26.076  10.940
67465W        W31409  35.535  42.445  10.613
67466W        W31410  23.043   0.252  12.356
67467W        W31411   3.766  20.556  12.903
67468W        W31412   9.644  23.704  12.894
67469W        W31413  37.354  19.234   4.126
67470W        W31414   7.336   6.768  10.896
67471W        W31415  19.189  32.462  10.441
67472W        W31416  12.822  19.056  10.932
67473W        W31417   3.402  43.350   4.734
67474W        W31418  30.476   9.700  12.023
67475W        W31419   6.412  43.413  13.314
67476W        W31420  26.631  26.991   4.265
67477W        W31421  39.390  26.640   4.133
67478W        W31422  37.848  19.591   1.705
67479W        W31423  25.683   4.298  10.573
67480W        W31424  27.071  34.997   2.767
67481W        W31425   1.269  16.074  10.991
67482W        W31426  20.526  20.603   3.724
67483W        W31427  24.614  43.896  11.972
67484W        W31428  24.148   7.892   4.600
67485W        W31429  34.933  24.990  14.412
67486W        W31430  12.131  33.480  13.960
67487W        W31431  16.254  38.874  12.053
67488W        W31432  44.880  40.872  13.535
67489W        W31433  35.957  11.299  13.041
67490W        W31434  41.515  18.575   3.319
67491W        W31435  22.563  27.618   2.287
67492W        W31436   8.360  19.572  12.937
67493W        W31437   2.918  23.022   4.348
67494W        W31438   8.297  33.625  10.622
67495W        W31439  23.171   0.785  13.429
67496W        W31440  25.691  25.528  12.086
67497W        W31441  37.391  38.890   1.295
67498W        W31442   0.937  39.969   0.773
67499W        W31443  13.300  16.799  13.545
67500W        W31444   9.761  40.467   2.837
67501W        W31445  19.127   3.770   0.768
67502W        W31446  31.593  28.972  10.431
67503W        W31447  21.149  32.042   1.715
67504W        W31448   3.428   1.814   0.794
67505W        W31449  38.065   6.253  11.112
67506W        W31450  43.794  14.116  10.569
67507W        W31451   5.737  32.048  11.405
67508W        W31452  44.454  26.520  14.813
67509W        W31453   5.369  43.926   3.271
67510W        W31454   0.874   6.800   0.830
67511W        W31455  10.142  29.061  11.586
67512W        W31456  10.851  43.410   0.948
67513W        W31457  24.033  27.963   0.330
67514W        W31458  12.339  39.540  13.995
67515W        W31459  12.357   2.903  13.860
67516W        W31460   5.724   9.345   3.286
67517W        W31461   1.740  42.442   1.887
67518W        W31462   7.702  19.237  12.353
67519W        W31463  10.668   5.384   4.620
67520W        W31464  25.505   8.832   3.385
67521W        W31465  23.612  22.123  10.603
67522W        W31466   5.365  26.043   1.728
67523W        W31467  23.046  16.805  14.954
67524W        W31468  29.018  30.458   1.328
67525W        W31469   9.817  15.239  14.825
67526W        W31470  11.128  36.356  12.441
67527W        W31471  10.147  25.499  14.326
67528W        W31472   7.805  37.988  10.980
67529W        W31473  34.451  37.524   4.219
67530W        W31474  40.375  43.282   3.314
67531W        W31475  30.500  28.059  13.987
67532W        W31476   3.743  18.682  10.567
67533W        W31477  11.256  44.838   3.684
67534W        W31478  21.549  31.556   4.276
67535W        W31479  23.728  41.022   3.178
67536W        W31480  21.726  27.967   1.908
67537W        W31481   7.723  37.401  12.426
67538W        W31482   1.951  28.596   0.766
67539W        W31483  33.507  35.561  12.981
67540W        W31484   3.381   4.829   3.682
67541W        W31485  13.757  17.204  11.442
67542W        W31486  40.843  44.768   4.708
67543W        W31487  33.390   9.886   1.315
67544W        W31488   1.451   4.710   1.753
67545W        W31489  27.993  17.227  11.120
67546W        W31490  28.496  21.208   5.140
67547W        W31491  12.129   4.300   4.626
67548W        W31492  40.303  26.513   0.250
67549W        W31493  16.084   5.194   4.315
67550W        W31494   3.927  34.429  11.608
67551W        W31495  17.762  31.987  14.326
67552W        W31496   6.804  12.252   0.348
67553W        W31497  30.138   8.169   4.272
67554W        W31498  26.498  35.085   1.897
67555W        W31499  23.731   0.255   2.821
67556W        W31500  33.087  23.552   1.899
67557W        W31501  20.605  18.619  14.491
67558W        W31502   2.239  32.490  13.026
67559W        W31503   5.234  18.131   1.709
67560W        W31504  14.268  12.767  11.104
67561W        W31505  42.892  15.223  12.036
67562W        W31506   3.219  15.609  12.053
67563W        W31507  13.271  35.094   0.481
67564W        W31508  44.372  24.678   3.807
67565W        W31509  35.597  35.993   3.814
67566W        W31510  34.941  13.737   3.311
67567W        W31511  20.737  44.913  12.873
67568W        W31512   7.219  13.722   3.801
67569W        W31513  38.555  36.539  13.906
67570W        W31514  23.667  29.051  14.945
67571W        W31515   3.886  16.187  12.944
67572W        W31516  24.630   0.472  12.050
67573W        W31517  36.846   7.719   1.928
67574W        W31518  44.458  29.645   1.738
67575W        W31519   5.272  16.292   2.237
67576W        W31520  24.568  14.263  11.553
67577W        W31521   3.787  18.280   2.279
67578W        W31522  14.664  35.880   3.650
67579W        W31523  27.965  26.051   1.721
67580W        W31524  11.350  25.596   3.236
67581W        W31525   2.392  32.950  12.069
67582W        W31526  14.232  36.474   2.757
67583W        W31527  24.617  22.119  11.567
67584W        W31528  24.639  32.593  12.026
67585W        W31529   2.392  41.524   5.192
67586W        W31530   8.789  22.592  11.944
67587W        W31531  31.068   0.338   0.901
67588W        W31532  11.260  11.228  11.405
67589W        W31533  19.680  16.742   2.282
67590W        W31534  18.602   7.200   3.199
67591W        W31535  25.127  34.404   4.336
67592W        W31536  44.272  37.891   0.246
67593W        W31537  40.438   5.344   3.696
67594W        W31538  21.042   1.929  10.529
67595W        W31539  29.961  16.635  14.785
67596W        W31540   2.416  18.217   2.404
67597W        W31541  23.559  24.034   2.335
67598W        W31542  23.206  41.006  14.850
67599W        W31543   1.797  12.696  13.042
67600W        W31544  28.104  36.552   0.295
67601W        W31545  37.479   3.786   3.820
67602W        W31546   7.389  31.611   1.227
67603W        W31547  34.446  16.292   3.658
67604W        W31548   3.264   0.387  10.575
67605W        W31549  23.711  22.569   0.864
67606W        W31550  35.063  44.943  11.580
67607W        W31551   1.858  37.831   0.948
67608W        W31552  10.755  44.892  11.580
67609W        W31553  39.357  39.870  12.858
67610W        W31554  24.108  16.072   0.356
67611W        W31555  23.548   8.255   1.335
67612W        W31556   1.278   3.806   0.778
67613W        W31557  42.901  38.464  11.446
67614W        W31558   5.290  17.769  11.516
67615W        W31559  26.596  16.724   4.821
67616W        W31560  32.098  44.315  12.376
67617W        W31561  16.190  24.195  12.931
67618W        W31562  27.688  10.653  14.480
67619W        W31563  16.266  15.731   4.790
67620W        W31564  15.204  37.854  10.428
67621W        W31565  28.556  25.701  11.910
67622W        W31566  38.346  34.431   4.650
67623W        W31567  25.215  36.473   1.447
67624W        W31568  12.279  33.597  10.452
67625W        W31569  35.500  39.409  11.064
67626W        W31570  39.551  20.035  13.877
67627W        W31571  42.988  17.567  11.018
67628W        W31572  41.333   4.436  14.812
67629W        W31573  33.022   3.252   4.123
67630W        W31574  17.125  40.833   4.602
67631W        W31575  14.188  41.329  10.485
67632W        W31576   6.351  31.528   1.716
67633W        W31577  25.587  34.091   0.257
67634W        W31578  16.309  13.661  10.933
67635W        W31579   1.302  39.005   0.462
67636W        W31580  31.905  31.585   3.250
67637W        W31581  21.030  38.354  13.367
67638W        W31582   5.754  17.171  14.348
67639W        W31583  44.390  34.581   2.395
67640W        W31584  15.725  29.942  10.512
67641W        W31585  38.831  12.309   1.326
67642W        W31586   2.916  15.660   2.812
67643W        W31587  29.974  28.456  13.962
67644W        W31588   7.870   4.357  12.016
67645W        W31589  37.937   6.373   3.379
67646W        W31590   1.853   3.824  10.969
67647W        W31591  15.715  28.660  13.857
67648W        W31592   6.742  10.801   1.871
67649W        W31593  38.413  40.965  10.935
67650W        W31594   4.810  10.287   5.275
67651W        W31595  16.681  11.665  12.533
67652W        W31596   3.733   5.838  11.561
67653W        W31597  13.254   5.730   3.695
67654W        W31598  13.793  26.580   2.673
67655W        W31599  21.148  22.642  11.035
67656W        W31600  43.336  32.430   4.696
67657W        W31601   8.728  35.987   4.309
67658W        W31602   9.676   0.800   4.699
67659W        W31603  31.641   2.463  10.632
67660W        W31604  21.052   3.443  10.553
67661W        W31605  17.568  38.344   0.802
67662W        W31606  19.535  24.053   3.339
67663W        W31607  31.442   1.779  12.873
67664W        W31608  24.114  28.560  13.920
67665W        W31609  40.425   1.433   1.218
67666W        W31610  30.111  30.968   3.347
67667W        W31611  44.500  26.048   4.340
67668W        W31612  16.710   1.746  13.444
67669W        W31613  17.202  12.800   0.882
67670W        W31614  15.274  27.669  10.609
67671W        W31615  29.661  37.399  12.994
67672W        W31616  21.581   1.823  12.851
67673W        W31617  38.469  32.554  12.512
67674W        W31618  10.280  27.071  14.027
67675W        W31619  31.641  20.058   1.715
67676W        W31620  25.583  20.088   3.741
67677W        W31621   3.736  36.451   0.861
67678W        W31622  35.864   2.375   1.230
67679W        W31623  38.012   8.682  14.386
67680W        W31624  42.829  37.008   3.820
67681W        W31625  13.264  13.604  14.013
67682W        W31626   8.698  33.455   1.212
67683W        W31627  40.369  31.611   0.353
67684W        W31628  33.601   6.243   4.317
67685W        W31629  39.829   8.875   0.801
67686W        W31630  15.274   3.380  10.902
67687W        W31631  27.045   2.744  13.509
67688W        W31632  33.559  29.003   4.642
67689W        W31633  31.553   2.873  11.861
67690W        W31634  29.648  43.972   0.865
67691W        W31635   8.243  16.677   3.755
67692W        W31636   9.874  22.176  14.455
67693W        W31637  42.422  36.852  11.608
67694W        W31638   5.826  17.764   9.446
67695W        W31639  20.116  41.877   4.700
67696W        W31640  14.191  16.240   4.319
67697W        W31641  38.400  41.978   2.899
67698W        W31642  22.074   1.434  13.837
67699W        W31643  18.628  19.066  11.870
67700W        W31644  14.592  24.169   0.810
67701W        W31645  44.416  29.992   4.785
67702W        W31646  22.063  32.102   4.632
67703W        W31647   7.756  42.933  14.290
67704W        W31648  23.178  36.905   1.363
67705W        W31649  26.066  13.674  14.408
67706W        W31650   7.235  28.648  11.082
67707W        W31651   8.679  30.470   1.899
67708W        W31652   0.975  12.217  10.450
67709W        W31653  36.893  10.343   2.716
67710W        W31654  33.125  13.711   4.156
67711W        W31655  19.085  37.015   3.252
67712W        W31656  31.502  10.720   4.286
67713W        W31657  34.505  15.631   3.783
67714W        W31658  27.117   1.826  11.076
67715W        W31659  12.182  28.088   0.463
67716W        W31660  23.526  29.167   0.453
67717W        W31661  13.319  42.442  12.494
67718W        W31662   1.281  31.907   0.296
67719W        W31663  19.625   4.900  13.901
67720W        W31664  27.140  37.435   2.346
67721W        W31665   8.388  28.941  14.486
67722W        W31666  11.640  22.067  12.083
67723W        W31667  35.009  32.444  12.409
67724W        W31668  35.992  34.469  10.450
67725W        W31669  40.934  40.416   4.636
67726W        W31670  27.591  33.409   0.319
67727W        W31671  15.240  21.590   0.942
67728W        W31672  11.742  30.423  10.529
67729W        W31673  32.078  14.194   0.871
67730W        W31674   7.287  17.063  10.997
67731W        W31675   4.296  43.291  12.025
67732W        W31676  42.438  28.478  12.851
67733W        W31677  31.581  29.009  13.487
67734W        W31678  29.659  25.190   1.768
67735W        W31679  35.896  43.879  11.458
67736W        W31680  25.558  42.821  11.463
67737W        W31681  38.842  10.179   5.222
67738W        W31682  18.161  30.589   0.729
67739W        W31683  12.343  15.773   4.251
67740W        W31684  24.671  11.190   0.947
67741W        W31685  29.044   7.801  10.558
67742W        W31686  16.093  38.066   4.124
67743W        W31687   0.897  10.833  13.975
67744W        W31688  40.987  10.181  11.507
67745W        W31689  36.490  43.774  12.339
67746W        W31690  35.048   2.865  11.933
67747W        W31691  31.121   2.720  14.903
67748W        W31692  17.226  34.463   3.264
67749W        W31693   0.967   3.268  10.125
67750W        W31694  24.680   7.889   1.710
67751W        W31695   0.445   6.869  14.868
67752W        W31696  11.777   0.299   5.311
67753W        W31697  30.622  11.217  12.058
67754W        W31698   5.264  23.161   2.185
67755W        W31699  28.614   2.247   2.728
67756W        W31700   0.775  12.263   1.820
67757W        W31701  18.707   8.829  12.064
67758W        W31702  23.147  28.448  14.511
67759W        W31703  13.341  17.300  14.384
67760W        W31704   1.346   9.338   4.808
67761W        W31705   1.415  23.576  11.999
67762W        W31706  25.065   7.284  10.018
67763W        W31707  40.944   4.707   0.730
67764W        W31708  31.617   3.281  14.335
67765W        W31709  44.775  35.900   4.179
67766W        W31710  34.480  24.130  12.045
67767W        W31711   2.250  27.183   4.656
67768W        W31712  43.852   5.371   3.761
67769W        W31713  26.023  18.618  12.052
67770W        W31714   2.911  30.028  12.883
67771W        W31715  14.259  41.304   4.632
67772W        W31716   1.847  28.592   1.234
67773W        W31717  14.231   1.826   5.649
67774W        W31718  21.582  27.561  14.892
67775W        W31719   5.339  15.578  10.566
67776W        W31720   3.805  32.135   4.820
67777W        W31721  16.204   0.802   0.316
67778W        W31722  35.436  38.423  12.076
67779W        W31723  14.227  40.838   0.260
67780W        W31724   3.724  36.898  13.476
67781W        W31725  29.150  22.686   0.801
67782W        W31726  20.654  37.946   2.254
67783W        W31727   8.721  23.579  12.361
67784W        W31728   9.312  16.810   2.821
67785W        W31729  43.921  21.749   3.197
67786W        W31730  22.510   1.243  12.004
67787W        W31731  30.119  17.733  11.479
67788W        W31732  24.709   1.465   0.940
67789W        W31733  37.869  24.562  11.388
67790W        W31734  21.626   9.648  13.318
67791W        W31735  15.679   1.804   3.747
67792W        W31736  44.905   6.410   1.316
67793W        W31737  13.762  23.674   1.897
67794W        W31738   5.257  44.973   4.644
67795W        W31739   0.483  12.819  11.403
67796W        W31740   3.305  11.714   1.861
67797W        W31741  13.749  28.530   4.734
67798W        W31742  35.506  44.853   1.916
67799W        W31743  31.958  15.761  14.327
67800W        W31744   7.337  32.573   3.331
67801W        W31745  40.547  44.944  12.341
67802W        W31746  24.506  39.528  13.992
67803W        W31747  37.856  26.488  12.869
67804W        W31748  20.620  19.235  12.846
67805W        W31749  44.272  43.306   3.659
67806W        W31750   2.406  28.483  12.390
67807W        W31751   7.278  26.592   1.755
67808W        W31752  36.371  19.214  13.018
67809W        W31753  26.624  19.546   1.775
67810W        W31754  39.012  12.232  12.901
67811W        W31755  37.847  35.053   2.344
67812W        W31756  30.914  30.546   4.809
67813W        W31757  19.176  18.095  12.084
67814W        W31758  30.013  27.163   3.166
67815W        W31759   6.761  11.299   0.959
67816W        W31760  18.296  16.254   0.752
67817W        W31761  31.110  35.583  14.413
67818W        W31762  27.507   8.676   2.864
67819W        W31763  36.381   9.720  11.029
67820W        W31764  43.794  18.107  13.415
67821W        W31765  33.480  13.729   3.264
67822W        W31766  41.004  15.188   4.270
67823W        W31767  12.142  23.593  11.612
67824W        W31768   7.351  21.750   0.860
67825W        W31769  21.123  12.128   0.879
67826W        W31770   7.886   1.239   2.664
67827W        W31771  40.388  23.585  13.935
67828W        W31772  20.746  41.964   0.350
67829W        W31773  13.610  34.583   1.305
67830W        W31774  27.453   9.354   0.423
67831W        W31775  33.412  40.802  10.931
67832W        W31776  32.111  23.501  11.038
67833W        W31777  42.865  11.302   2.413
67834W        W31778  13.254  13.660  12.532
67835W        W31779  43.490  14.298   4.175
67836W        W31780   4.386   8.761  11.110
67837W        W31781   2.945  22.664  12.462
67838W        W31782  20.174  29.049  13.517
67839W        W31783  41.859  25.497  14.382
67840W        W31784  34.887  18.741   2.203
67841W        W31785   3.416  18.248   1.222
67842W        W31786   2.880   1.843  14.493
67843W        W31787  22.581  39.810   1.904
67844W        W31788  43.277  13.807  11.019
67845W        W31789  41.975  23.537   1.340
67846W        W31790  11.844  39.418  12.843
67847W        W31791   7.872  15.688  13.042
67848W        W31792  26.083  33.982  10.551
67849W        W31793  33.035   2.920  11.981
67850W        W31794  15.185  31.429   9.925
67851W        W31795  14.747  15.661  14.781
67852W        W31796   5.269  26.103   4.647
67853W        W31797   4.321  24.663  10.508
67854W        W31798  28.174  32.093   4.226
67855W        W31799   3.856   5.806  13.027
67856W        W31800  35.951   8.740  11.974
67857W        W31801  32.066   6.394  12.002
67858W        W31802  11.223   7.717   0.824
67859W        W31803  38.563  24.038  14.293
67860W        W31804   6.788  29.665   4.211
67861W        W31805  41.446  29.125   0.288
67862W        W31806  19.239  17.162  13.017
67863W        W31807   5.880  24.002  14.985
67864W        W31808  25.124  35.978   1.375
67865W        W31809   7.868   8.342   4.753
67866W        W31810  12.216  32.087   5.201
67867W        W31811   3.419  24.082   1.737
67868W        W31812  32.040  26.496   2.224
67869W        W31813  10.335   8.204   5.253
67870W        W31814   5.785   0.354   0.323
67871W        W31815  25.544  44.797   3.168
67872W        W31816  32.509   8.806   5.086
67873W        W31817   8.798  10.655  14.967
67874W        W31818  21.691  36.493   3.760
67875W        W31819  44.867   4.772  13.465
67876W        W31820  26.690  40.829   2.267
67877W        W31821  18.717  23.562  10.002
67878W        W31822  20.146  16.759  11.968
67879W        W31823   1.313   4.883   0.879
67880W        W31824  19.549   5.857   1.758
67881W        W31825  23.057  44.285   1.901
67882W        W31826   0.972   5.266   2.759
67883W        W31827  28.468   7.783  10.907
67884W        W31828  11.674  33.507  14.944
67885W        W31829   9.288  24.158  12.923
67886W        W31830  26.113  24.515  12.834
67887W        W31831  30.019  36.475  14.890
67888W        W31832  40.349  33.504  13.478
67889W        W31833  41.530  16.310  14.026
67890W        W31834  19.147  40.022  14.997
67891W        W31835   7.815   9.693   2.697
67892W        W31836  44.910  30.966   4.165
67893W        W31837  30.085  22.187   0.348
67894W        W31838   8.168  16.104   1.429
67895W        W31839  39.010   0.877  11.062
67896W        W31840  14.144  21.519  13.384
67897W        W31841  37.004  17.158   0.283
67898W        W31842   4.903  38.835   0.415
67899W        W31843  30.115  11.843  11.040
67900W        W31844  37.048  41.860   3.175
67901W        W31845   9.714  18.699   1.410
67902W        W31846  25.082  13.275   4.328
67903W        W31847  35.951  42.436  14.974
67904W        W31848  38.549   6.237  12.084
67905W        W31849  27.677  40.923  12.984
67906W        W31850  26.632  37.991   0.885
67907W        W31851  22.548  42.493  11.521
67908W        W31852   6.710  37.429   1.811
67909W        W31853  37.978  30.479  12.921
67910W        W31854  25.076   3.853  11.876
67911W        W31855   6.362  34.878  11.902
67912W        W31856   5.852  38.870   1.858
67913W        W31857  22.656  16.136  13.478
67914W        W31858  38.362  15.670   3.779
67915W        W31859  24.661  29.005  10.929
67916W        W31860  37.402  22.228  10.509
67917W        W31861  33.966  32.097  14.908
67918W        W31862  36.516  20.702  14.313
67919W        W31863  44.900  39.853   1.243
67920W        W31864  37.473  13.327  10.560
67921W        W31865   6.246  42.786   2.207
67922W        W31866  27.035  18.658   3.795
67923W        W31867   9.393  23.555  10.916
67924W        W31868   8.248  31.999  11.386
67925W        W31869  30.601   1.884  11.923
67926W        W31870  19.612  36.538  14.367
67927W        W31871  44.300  34.389  11.470
67928W        W31872   2.440   4.334   1.832
67929W        W31873  37.901  29.984  12.506
67930W        W31874  36.959  10.156  13.030
67931W        W31875   7.378  36.447  10.890
67932W        W31876  38.948  38.023  10.404
67933W        W31877  44.788   2.835   3.322
67934W        W31878   3.837  14.608  14.828
67935W        W31879  18.605  40.818  14.011
67936W        W31880  34.567  25.037   3.835
67937W        W31881  28.527   2.870   4.824
67938W        W31882  28.082  33.876  12.381
67939W        W31883  23.643  25.161   4.682
67940W        W31884  44.466  23.051  14.001
67941W        W31885  32.500  19.557  12.411
67942W        W31886   4.439   7.751  11.106
67943W        W31887  25.624   6.388  12.083
67944W        W31888  10.719  11.639   2.396
67945W        W31889  24.174  28.101   5.120
67946W        W31890   4.715  20.591  13.050
67947W        W31891  22.723  23.670   3.177
67948W        W31892  26.966   7.193   4.829
67949W        W31893  26.993   1.784   4.748
67950W        W31894  21.108   9.648   1.308
67951W        W31895  25.981  22.143  12.499
67952W        W31896   5.302  43.275  13.051
67953W        W31897  18.209  11.257   3.721
67954W        W31898   4.248  40.336   2.366
67955W        W31899  39.548   0.826   2.864
67956W        W31900  28.679  37.576   3.339
67957W        W31901  36.940   8.786   4.184
67958W        W31902   3.770  26.589   0.876
67959W        W31903  26.206  14.218   3.205
67960W        W31904  25.500  42.443  12.956
67961W        W31905  34.931  26.190  12.443
67962W        W31906   2.230  30.988  11.005
67963W        W31907   4.893   5.822  10.612
67964W        W31908  30.575  38.876  13.847
67965W        W31909  24.497  44.489   2.767
67966W        W31910  43.462  30.989   0.394
67967W        W31911  43.842  32.620   4.645
67968W        W31912  40.018  14.773  12.545
67969W        W31913   6.335  13.179  13.461
67970W        W31914  15.632   2.241   2.851
67971W        W31915  26.116  20.731  12.947
67972W        W31916  15.146  20.654   0.371
67973W        W31917  23.512  22.022   1.332
67974W        W31918  18.098  38.398  14.284
67975W        W31919   6.787  31.989  13.357
67976W        W31920  21.150   7.188  14.380
67977W        W31921   7.737  25.011  14.913
67978W        W31922  35.905  33.454   0.904
67979W        W31923  27.982  31.538   2.206
67980W        W31924  35.098  35.879  14.317
67981W        W31925  20.711   4.729   1.841
67982W        W31926  25.043  19.769   1.720
67983W        W31927  24.497  21.214   3.641
67984W        W31928  44.311  44.754   0.757
67985W        W31929  44.945   2.366  14.390
67986W        W31930  25.624  30.457   3.736
67987W        W31931  28.039   3.712   1.760
67988W        W31932  21.101  23.991   5.727
67989W        W31933  25.028  36.930  12.899
67990W        W31934  10.858   4.419  13.414
67991W        W31935   7.723  33.429  11.073
67992W        W31936  40.462  20.136   2.390
67993W        W31937   0.257  39.395  12.358
67994W        W31938  20.617   0.338  12.849
67995W        W31939  38.981  22.212  12.952
67996W        W31940  29.117   4.249  12.342
67997W        W31941  16.625  34.865   2.707
67998W        W31942  31.589  38.548  12.420
67999W        W31943  10.373  17.680  12.490
68000W        W31944   3.343  11.866   3.795
68001W        W31945   1.323   2.320  11.421
68002W        W31946  42.864  21.250  12.357
68003W        W31947  19.664  28.018   3.713
68004W        W31948  36.486  28.945  10.641
68005W        W31949  29.107   8.849  14.957
68006W        W31950  40.875  38.567  10.592
68007W        W31951  18.060  34.482   2.696
68008W        W31952  13.229  20.199  13.434
68009W        W31953  41.798  44.503  14.495
68010W        W31954  38.910  22.157  13.459
68011W        W31955  41.346  14.826   4.289
68012W        W31956  23.658  35.591  11.911
68013W        W31957  33.121   0.946   4.150
68014W        W31958  24.121  29.994  13.515
68015W        W31959  22.037  10.663   1.750
68016W        W31960  13.658  39.066   3.844
68017W        W31961   1.283  14.593  11.949
68018W        W31962  41.429  30.976  13.495
68019W        W31963  10.154  22.191  10.461
68020W        W31964  41.823  28.514   4.669
68021W        W31965  36.894   6.266  12.930
68022W        W31966  42.775  40.378   1.753
68023W        W31967  21.702   3.780   0.832
68024W        W31968  37.565  14.671  14.321
68025W        W31969  29.090  29.047  11.940
68026W        W31970  30.463  40.311   4.726
68027W        W31971  30.927   8.263  10.937
68028W        W31972  40.818  15.319  11.379
68029W        W31973  37.838  14.209  10.628
68030W        W31974  22.658  20.035  14.809
68031W        W31975  21.175  40.903   0.963
68032W        W31976  21.751  28.633  12.384
68033W        W31977  37.396  12.235   3.776
68034W        W31978  40.872  19.640  12.521
68035W        W31979   3.720  26.523   4.237
68036W        W31980  24.191  26.698   2.686
68037W        W31981  43.989  18.738  12.375
68038W        W31982  43.869  33.423   1.787
68039W        W31983  18.242   2.765  11.518
68040W        W31984  32.509   8.746  12.355
68041W        W31985  33.501  43.283   0.827
68042W        W31986  34.582  31.950   1.345
68043W        W31987  44.410   3.743  10.896
68044W        W31988  17.593  13.694   3.233
68045W        W31989  14.206  39.896  11.976
68046W        W31990  37.908   8.828  14.768
68047W        W31991  31.929  19.137  14.381
68048W        W31992  27.986  12.183   4.807
68049W        W31993  30.650  16.688  12.837
68050W        W31994  32.562  29.989   2.206
68051W        W31995   7.890  23.192  14.767
68052W        W31996  32.576  36.426  14.409
68053W        W31997  10.200  14.752   0.352
68054W        W31998   6.262   4.283   0.274
68055W        W31999  33.048  16.092   3.344
68056W        W32000  36.085  44.841  11.479
68057W        W32001  10.735  10.833  13.007
68058W        W32002   7.289   2.416   4.701
68059W        W32003  17.271  20.673  14.397
68060W        W32004  25.984   6.292   4.788
68061W        W32005  38.326  15.789  11.109
68062W        W32006  30.106  24.140   3.159
68063W        W32007  22.172   6.368   3.630
68064W        W32008   2.321  28.994  12.362
68065W        W32009   2.398  35.451  11.416
68066W        W32010   1.334  43.970   1.822
68067W        W32011  44.288  18.275   3.847
68068W        W32012  33.439  21.104   4.130
68069W        W32013   8.206  32.118  11.876
68070W        W32014  24.088  28.056   3.225
68071W        W32015  14.678  37.010  12.355
68072W        W32016  21.543  36.069  14.287
68073W        W32017  23.013  35.498   0.851
68074W        W32018   7.288  21.684   0.471
68075W        W32019   0.402   3.434  12.506
68076W        W32020  38.436  37.924  14.775
68077W        W32021  29.053  44.776   1.343
68078W        W32022   6.399  33.117  12.935
68079W        W32023  19.102  21.667  10.623
68080W        W32024  21.732  44.348   3.345
68081W        W32025   7.722  24.521   2.190
68082W        W32026  40.540  13.725  13.497
68083W        W32027  44.865   8.194  14.819
68084W        W32028  44.450   8.336  10.462
68085W        W32029  25.470  14.798  12.921
68086W        W32030  22.048   6.245   3.182
68087W        W32031  21.037   3.952   3.682
68088W        W32032   6.267  19.556   2.815
68089W        W32033  38.402  19.661   4.156
68090W        W32034  14.637   7.322  13.411
68091W        W32035  39.930  35.952   4.757
68092W        W32036  11.312  20.027   0.899
68093W        W32037  43.489  38.054  13.334
68094W        W32038  43.016  33.960  14.844
68095W        W32039  14.606  22.057   0.264
68096W        W32040  31.934  28.147  13.883
68097W        W32041  13.616  25.604  12.988
68098W        W32042  14.682  25.976  12.853
68099W        W32043  41.437  31.412   0.884
68100W        W32044  10.291   9.835  11.905
68101W        W32045  43.283  14.798  11.555
68102W        W32046  35.986   4.389   2.342
68103W        W32047  24.492  36.458   1.743
68104W        W32048  12.733  23.984  13.307
68105W        W32049   6.218  18.699  13.463
68106W        W32050  17.089  27.475  11.409
68107W        W32051  14.819   2.472   3.152
68108W        W32052  37.926  31.077  14.424
68109W        W32053   0.986  13.333  14.489
68110W        W32054   1.251  36.433  10.960
68111W        W32055  14.098   2.455  14.326
68112W        W32056  43.383  41.962  12.483
68113W        W32057  21.232  14.712   4.829
68114W        W32058   5.340  27.635   3.258
68115W        W32059   5.247  19.580   1.432
68116W        W32060  31.969  20.625  14.023
68117W        W32061   9.740   8.240  10.505
68118W        W32062  32.562   6.186   0.918
68119W        W32063   5.804  38.433   2.334
68120W        W32064   3.445  40.004  13.373
68121W        W32065   8.270  23.168  10.474
68122W        W32066   7.752  44.317  14.940
68123W        W32067  11.764  34.380   1.337
68124W        W32068  20.606  13.151   0.369
68125W        W32069  38.569  21.661  11.553
68126W        W32070  30.106  34.951  11.088
68127W        W32071  18.233  29.080  11.937
68128W        W32072  18.205  41.518   1.845
68129W        W32073  36.067  14.099   1.722
68130W        W32074  33.016  41.310   1.800
68131W        W32075  37.057  36.008  13.933
68132W        W32076  34.524  44.367   1.766
68133W        W32077   8.808  12.348  10.467
68134W        W32078   1.367  35.518  14.488
68135W        W32079  24.605  29.141   1.304
68136W        W32080  16.699   5.778   1.210
68137W        W32081  18.185   9.206   1.842
68138W        W32082   8.674  39.899  11.490
68139W        W32083   0.917   9.377   4.687
68140W        W32084   4.269  18.786  14.894
68141W        W32085  30.600  21.125  10.448
68142W        W32086  41.799  21.591   1.397
68143W        W32087  15.661  44.822  10.915
68144W        W32088  37.477  14.604  12.951
68145W        W32089  12.857   3.249  12.380
68146W        W32090  21.519  43.288   1.400
68147W        W32091  43.820  24.169   1.423
68148W        W32092   4.350  21.079   3.690
68149W        W32093  25.969  11.154   4.774
68150W        W32094  13.135  18.143  12.877
68151W        W32095  25.634  27.075   1.241
68152W        W32096  34.401  35.443  12.381
68153W        W32097  21.552  25.532  14.279
68154W        W32098  44.401  18.716   2.681
68155W        W32099  11.338  24.567  10.584
68156W        W32100  21.634  28.964  12.978
68157W        W32101  15.156   1.307   4.769
68158W        W32102  30.963   6.723   2.841
68159W        W32103  21.561  27.618   3.832
68160W        W32104  43.419   6.789   0.344
68161W        W32105  25.548  23.142  12.539
68162W        W32106  20.528  35.101  13.017
68163W        W32107  32.541  16.622  10.625
68164W        W32108  38.060  44.761   3.681
68165W        W32109   7.846  30.526  13.344
68166W        W32110   7.383  33.056   0.957
68167W        W32111   5.846  44.914  11.104
68168W        W32112  10.140  33.609   2.754
68169W        W32113  32.438  32.119   3.337
68170W        W32114  34.387   1.455   2.343
68171W        W32115  26.525  30.067  14.432
68172W        W32116   6.389  32.537   4.774
68173W        W32117   3.776  29.057   3.368
68174W        W32118  21.257   2.841   3.782
68175W        W32119   1.897   6.681   0.300
68176W        W32120  42.029  34.088  10.425
68177W        W32121  26.089  21.574   3.232
68178W        W32122  16.107  39.546   4.208
68179W        W32123  21.535  31.423  14.955
68180W        W32124  16.277  23.592  10.906
68181W        W32125  22.197  22.148   3.365
68182W        W32126  12.714  13.323   4.809
68183W        W32127   7.370   9.396   5.302
68184W        W32128  21.723  34.036  13.794
68185W        W32129  11.186   4.864   3.231
68186W        W32130  16.143  36.028   4.148
68187W        W32131  36.852  30.110  14.383
68188W        W32132  35.487  21.187  10.413
68189W        W32133  14.199  24.004   2.859
68190W        W32134  21.241   7.257   2.763
68191W        W32135  17.586  25.585  12.876
68192W        W32136  22.204   1.428   1.422
68193W        W32137  39.994  26.569   1.806
68194W        W32138  43.779  29.590   4.821
68195W        W32139  29.960  39.863   4.274
68196W        W32140  34.526  33.924  10.968
68197W        W32141  15.211  38.066  12.507
68198W        W32142  22.066  30.540  11.953
68199W        W32143  16.660   2.911   4.805
68200W        W32144  43.409  37.952   3.354
68201W        W32145  20.107   2.765   3.807
68202W        W32146  18.659   8.375   2.757
68203W        W32147  31.626  37.923   4.791
68204W        W32148   2.324   8.804   1.924
68205W        W32149  31.967  29.970  12.508
68206W        W32150  34.563  35.518   0.921
68207W        W32151   2.242  36.861   4.195
68208W        W32152  27.104  31.912  11.538
68209W        W32153   9.391  37.448  11.122
68210W        W32154  30.428  41.876  11.072
68211W        W32155  15.735  34.907  13.417
68212W        W32156  35.539  37.408  12.958
68213W        W32157   0.254  34.982  14.460
68214W        W32158  12.855  15.579  10.533
68215W        W32159  31.629   5.336  11.381
68216W        W32160  38.853  34.384  12.348
68217W        W32161   5.738  18.236   4.833
68218W        W32162  21.191  25.526   4.673
68219W        W32163  43.766  27.178  12.496
68220W        W32164  34.997  33.902  11.043
68221W        W32165  40.843   7.866   1.295
68222W        W32166  40.403  43.442  14.885
68223W        W32167  44.927  15.626  12.415
68224W        W32168  12.174  12.145   3.216
68225W        W32169   0.377   7.849  11.106
68226W        W32170  31.021  11.865  14.383
68227W        W32171  23.580   7.741  14.415
68228W        W32172  13.774  11.224   0.829
68229W        W32173  24.114   7.226  12.084
68230W        W32174  14.317  13.208   3.350
68231W        W32175  14.620   1.244  14.418
68232W        W32176  37.577  25.143  14.899
68233W        W32177  21.031  26.181  12.846
68234W        W32178  30.979  43.331   3.169
68235W        W32179  41.522  30.591  12.397
68236W        W32180  17.580  38.910  13.343
68237W        W32181  14.234  19.164   3.804
68238W        W32182  37.457  35.547   4.619
68239W        W32183  10.155  33.965  11.434
68240W        W32184   2.951  11.819  14.032
68241W        W32185  17.595  42.521  11.960
68242W        W32186   7.378   5.278   1.421
68243W        W32187   2.455  33.110  14.952
68244W        W32188  25.524  10.716   3.260
68245W        W32189  12.622  16.201   2.358
68246W        W32190  29.146  29.175  12.477
68247W        W32191  29.148  44.275  12.076
68248W        W32192  33.032  17.731   3.304
68249W        W32193  32.416  19.775   9.928
68250W        W32194   5.405  44.297  10.485
68251W        W32195  20.137  17.669  14.832
68252W        W32196  10.309  26.154  14.844
68253W        W32197  11.141  37.891   3.366
68254W        W32198  37.520  29.078   2.179
68255W        W32199  30.488   9.285  14.297
68256W        W32200  38.555  23.600   3.149
68257W        W32201  39.401  43.278  11.977
68258W        W32202  16.271  30.972   2.675
68259W        W32203  33.508   7.822  11.460
68260W        W32204  34.498   8.217   3.330
68261W        W32205  21.574  38.937   1.277
68262W        W32206  33.560  41.370  13.817
68263W        W32207  43.921  19.688   2.313
68264W        W32208  15.193  25.625   1.870
68265W        W32209  10.864   5.787   3.824
68266W        W32210  39.973  21.244   4.280
68267W        W32211   5.703  23.659  14.352
68268W        W32212  26.549  27.047   3.848
68269W        W32213  34.878  12.615  13.517
68270W        W32214  31.498  19.727  14.335
68271W        W32215  13.724  12.644   2.770
68272W        W32216  30.018  36.013   2.851
68273W        W32217  19.093  28.979   4.677
68274W        W32218   7.200  38.056   2.225
68275W        W32219  29.138   3.775  13.798
68276W        W32220  11.864   1.921   0.321
68277W        W32221  29.051  10.365  12.909
68278W        W32222  15.297  29.149  13.399
68279W        W32223  41.442  13.308   2.209
68280W        W32224   1.806  17.762   3.629
68281W        W32225  44.495  29.601  11.948
68282W        W32226  43.916   4.431   4.747
68283W        W32227   3.932  30.024   4.726
68284W        W32228  16.634   3.863  14.345
68285W        W32229  11.704  40.055  12.073
68286W        W32230  29.660  18.738  14.436
68287W        W32231  30.982   7.414  14.444
68288W        W32232  43.388  23.996  13.908
68289W        W32233   2.319   9.170  11.091
68290W        W32234  19.209  25.190  12.840
68291W        W32235  41.371  18.777  10.932
68292W        W32236  28.563  13.198   2.842
68293W        W32237   4.358  22.627  14.338
68294W        W32238  39.034   0.881   1.882
68295W        W32239  26.098  10.745   0.773
68296W        W32240  29.463  26.184   4.308
68297W        W32241  22.229  22.536   2.303
68298W        W32242  37.872  33.444  13.404
68299W        W32243  25.667  41.893  14.448
68300W        W32244  13.251  41.923   0.351
68301W        W32245  22.022  21.049  13.371
68302W        W32246  24.603  27.132  11.521
68303W        W32247  25.528   8.883  14.021
68304W        W32248   8.302  37.892  12.982
68305W        W32249  20.629   5.348  10.561
68306W        W32250  39.038   8.369   4.610
68307W        W32251  33.077  12.127   2.281
68308W        W32252  15.190  31.534   9.654
68309W        W32253  41.327  32.011   5.153
68310W        W32254  10.354  19.652   2.202
68311W        W32255  31.648  32.904  13.841
68312W        W32256   4.449  10.785  14.299
68313W        W32257  23.066   2.875   2.889
68314W        W32258  29.621  40.034  11.605
68315W        W32259  13.123   3.850   1.880
68316W        W32260  42.296  18.568   1.890
68317W        W32261   6.297   8.350   2.800
68318W        W32262  24.154  20.055  11.891
68319W        W32263  10.230   9.386   4.116
68320W        W32264  14.332   5.696  11.989
68321W        W32265   0.891   0.369   4.657
68322W        W32266  28.008   2.794  10.447
68323W        W32267   7.803  23.578   2.216
68324W        W32268  40.321   0.473   3.201
68325W        W32269  16.711  11.175   4.736
68326W        W32270  10.147  42.911   0.271
68327W        W32271  10.633  29.516  13.058
68328W        W32272  32.898   2.267  10.510
68329W        W32273  27.506  38.966   2.418
68330W        W32274  24.190  39.037  13.449
68331W        W32275  18.186  21.261  14.381
68332W        W32276  36.890  36.056  10.910
68333W        W32277   6.332  33.911   3.776
68334W        W32278  34.466  40.954   1.286
68335W        W32279  14.715  10.308  14.809
68336W        W32280  24.214  19.640  12.939
68337W        W32281  42.429  28.957   0.363
68338W        W32282  24.115  37.004  14.783
68339W        W32283  23.631  44.863   1.758
68340W        W32284  19.632   2.899   1.309
68341W        W32285  28.172  38.954   3.862
68342W        W32286  15.214  40.913  11.931
68343W        W32287  11.843  15.669  11.555
68344W        W32288   3.891  33.550   1.752
68345W        W32289  23.094  17.723  11.069
68346W        W32290  44.394  31.447  12.828
68347W        W32291  40.528   0.939   3.641
68348W        W32292  13.334  20.191   1.251
68349W        W32293  35.082  42.508   2.785
68350W        W32294  21.654  28.035  11.902
68351W        W32295  36.973   1.311   4.609
68352W        W32296   6.691  13.269  14.488
68353W        W32297  18.766  42.860  13.060
68354W        W32298  10.290   2.911  11.610
68355W        W32299  40.940  36.097  14.964
68356W        W32300  10.747  35.997   3.186
68357W        W32301  36.497  25.993  11.055
68358W        W32302  18.563   8.254  11.544
68359W        W32303   3.288  18.657  13.996
68360W        W32304  29.132  14.097   4.216
68361W        W32305  26.080  38.018  14.846
68362W        W32306  32.925   5.323  13.374
68363W        W32307  17.692  37.566  11.095
68364W        W32308  18.198  32.570  13.358
68365W        W32309  30.152   2.332  14.336
68366W        W32310  36.932  15.771   0.450
68367W        W32311  12.712  29.439  14.289
68368W        W32312  20.762   3.354  13.498
68369W        W32313  32.952  10.786  13.545
68370W        W32314  30.493   6.889   2.699
68371W        W32315   4.290  18.230   4.746
68372W        W32316  36.900  36.425  14.972
68373W        W32317   6.857  44.841  13.856
68374W        W32318  28.973   8.326   4.734
68375W        W32319  29.140  25.982   4.258
68376W        W32320   4.363  21.243   0.470
68377W        W32321   7.266  25.039  13.001
68378W        W32322  35.854  10.647  13.485
68379W        W32323  11.637  42.354   1.212
68380W        W32324  32.496  42.837   2.890
68381W        W32325   6.891   6.259   1.858
68382W        W32326  34.428  25.216  10.630
68383W        W32327  29.473  16.214   1.223
68384W        W32328  31.457  11.765   4.328
68385W        W32329  19.156  32.635   0.826
68386W        W32330   8.684   4.738  10.490
68387W        W32331  34.407  12.234  10.990
68388W        W32332  37.506  43.841  11.436
68389W        W32333   9.786  24.100  13.902
68390W        W32334   7.205  32.996  11.384
68391W        W32335  23.661  18.726   1.830
68392W        W32336  21.251  30.991   4.747
68393W        W32337  34.424   8.673   1.802
68394W        W32338  10.261  31.540  11.942
68395W        W32339   3.773  12.313   2.690
68396W        W32340  14.594  34.559   0.458
68397W        W32341   2.374  10.205  10.060
68398W        W32342  27.614  44.312   3.808
68399W        W32343  10.694   1.797   4.599
68400W        W32344   8.740   9.667   4.204
68401W        W32345  28.048  39.323   2.390
68402W        W32346  18.051  41.303  13.977
68403W        W32347  22.689  11.282   0.870
68404W        W32348   3.750   8.361  11.553
68405W        W32349  11.700  30.165   5.594
68406W        W32350  38.043  25.612   3.868
68407W        W32351   5.300   2.307  13.961
68408W        W32352  40.875  25.107   3.750
68409W        W32353  44.954  21.111   2.316
68410W        W32354  25.971  40.917   2.688
68411W        W32355  19.664  24.190  12.852
68412W        W32356  13.713   7.912  11.387
68413W        W32357  31.433  14.659   2.363
68414W        W32358  27.528   6.680  11.422
68415W        W32359  10.775  39.035  12.372
68416W        W32360  38.371  24.112   0.302
68417W        W32361   8.733  33.507   1.836
68418W        W32362  22.148   4.310  12.342
68419W        W32363  26.968  39.357   3.193
68420W        W32364  37.416   9.760  14.024
68421W        W32365   5.881  31.578  10.405
68422W        W32366  35.553  40.926   4.600
68423W        W32367  39.978   3.327   1.310
68424W        W32368  39.336  44.931   0.380
68425W        W32369   4.355  35.512   2.774
68426W        W32370  30.536  34.900   1.809
68427W        W32371  13.255  32.036  14.950
68428W        W32372  19.043  35.883  14.768
68429W        W32373  12.290  11.145   3.314
68430W        W32374   2.886  28.112  14.307
68431W        W32375  44.794  36.381  14.305
68432W        W32376  17.210   6.683  13.540
68433W        W32377  43.373  33.946  13.927
68434W        W32378  33.508  31.571   0.263
68435W        W32379  23.177  11.750  13.867
68436W        W32380  18.219   6.413   0.880
68437W        W32381  33.127  38.886  12.962
68438W        W32382  17.764  11.819  11.594
68439W        W32383  14.773  21.575  14.878
68440W        W32384  31.897  18.075   2.691
68441W        W32385  13.188   8.223  12.906
68442W        W32386   4.398  39.443  13.421
68443W        W32387   3.907   3.272  10.980
68444W        W32388  15.159  28.675   1.425
68445W        W32389  14.209  20.186  14.500
68446W        W32390  15.775   8.704   3.296
68447W        W32391  41.345  37.456   1.699
68448W        W32392  20.751  36.863   4.694
68449W        W32393  39.488  30.610  13.449
68450W        W32394  34.922  32.483   1.330
68451W        W32395  38.430  27.585  12.045
68452W        W32396  13.345   1.466   1.245
68453W        W32397  28.555  26.051   0.880
68454W        W32398  22.070  44.404   2.867
68455W        W32399  26.146  26.465  11.079
68456W        W32400  34.120  12.716   1.919
68457W        W32401  39.469  25.470  13.541
68458W        W32402   1.907  31.943   2.900
68459W        W32403  21.614  27.970  10.135
68460W        W32404  32.942  26.540  10.988
68461W        W32405  31.110  28.568   3.308
68462W        W32406  29.167  11.857   4.735
68463W        W32407  17.289   3.738  11.015
68464W        W32408   1.411  36.945   4.613
68465W        W32409   9.221   9.864  10.625
68466W        W32410  35.957   5.729  10.638
68467W        W32411  28.495  27.006   1.327
68468W        W32412  33.402   6.854  13.058
68469W        W32413  13.693  16.255   3.801
68470W        W32414  24.648  11.195   4.180
68471W        W32415  39.907   7.201  14.018
68472W        W32416  19.197  44.439  13.842
68473W        W32417  11.170  42.366   1.822
68474W        W32418  12.842  28.649  11.592
68475W        W32419  39.974   2.319  11.963
68476W        W32420   6.228  17.655  15.000
68477W        W32421  37.480  24.051  13.039
68478W        W32422  19.186  42.990  11.394
68479W        W32423  41.794  35.536   3.766
68480W        W32424  42.790  11.852   2.223
68481W        W32425  20.555   5.824   0.820
68482W        W32426  21.121  17.612   3.174
68483W        W32427  12.155  31.065  14.870
68484W        W32428  11.727  16.248  14.293
68485W        W32429  32.546   5.898   0.839
68486W        W32430  39.409   5.410   4.689
68487W        W32431  44.348  10.831   2.214
68488W        W32432   0.903  44.754  13.877
68489W        W32433  31.425  15.654   3.339
68490W        W32434   9.857  12.819  10.995
68491W        W32435   5.690  12.812   0.312
68492W        W32436   0.859   1.863   3.359
68493W        W32437  12.734  34.113   1.848
68494W        W32438   5.744  27.591   4.770
68495W        W32439   0.783  22.136  14.849
68496W        W32440  15.578   8.838  11.981
68497W        W32441  32.903  41.992   2.774
68498W        W32442  22.025  32.111   3.725
68499W        W32443  21.117  42.447   1.758
68500W        W32444  10.845  41.885   0.937
68501W        W32445   1.343  16.253   2.818
68502W        W32446  43.452  44.888  10.448
68503W        W32447  26.552  13.153  13.498
68504W        W32448  34.514  27.047  12.489
68505W        W32449  14.328  11.737   3.239
68506W        W32450  11.816  29.646  12.419
68507W        W32451   3.342  18.757   1.282
68508W        W32452  16.588  10.300   2.379
68509W        W32453   4.306  26.460  14.907
68510W        W32454  23.094  27.197  12.071
68511W        W32455  25.022  38.363   4.665
68512W        W32456   3.814  13.227  12.437
68513W        W32457  44.319   0.370  11.395
68514W        W32458  41.450  26.090  12.439
68515W        W32459  28.125  18.219   2.346
68516W        W32460  19.047  41.918  13.950
68517W        W32461  16.223  17.269   1.798
68518W        W32462  16.577  13.726  12.986
68519W        W32463  17.105  15.736  12.078
68520W        W32464  33.116  20.681  13.509
68521W        W32465   2.346   5.352   2.359
68522W        W32466   5.374  36.469  12.516
68523W        W32467  44.932  22.669   9.950
68524W        W32468  10.750  26.456   3.169
68525W        W32469   0.870   1.810  12.877
68526W        W32470  31.962  36.058  11.957
68527W        W32471   4.263   7.909  13.016
68528W        W32472  28.030   8.743  10.045
68529W        W32473  17.191  15.128  12.569
68530W        W32474  38.529   2.376  14.787
68531W        W32475  23.550  25.581  13.001
68532W        W32476   4.211   4.719   5.574
68533W        W32477   5.249   4.857  12.933
68534W        W32478  44.372  40.040  11.544
68535W        W32479   7.750  26.665  13.536
68536W        W32480  28.108  31.604   3.849
68537W        W32481  36.963   9.854  14.349
68538W        W32482  33.524   0.387   2.193
68539W        W32483  30.025  29.111  11.448
68540W        W32484  22.235  23.670   1.838
68541W        W32485  42.807  42.465   2.675
68542W        W32486  19.560  26.135  14.474
68543W        W32487  32.109   4.383   0.457
68544W        W32488   4.335   9.335  13.508
68545W        W32489   4.738  20.644   1.246
68546W        W32490  25.059  11.780   1.830
68547W        W32491  37.879   9.816  14.479
68548W        W32492  36.999   0.774  10.920
68549W        W32493  11.684  12.705  12.340
68550W        W32494  12.692  21.154  13.876
68551W        W32495  23.501  44.787  10.974
68552W        W32496  40.404  18.641   2.800
68553W        W32497  35.529   2.305  10.619
68554W        W32498   3.899  31.953   1.855
68555W        W32499  37.041  42.306  12.887
68556W        W32500  13.212   6.400  12.044
68557W        W32501   5.350  12.745  11.119
68558W        W32502   0.856  25.554   3.698
68559W        W32503  21.709  20.229   4.746
68560W        W32504  27.570  41.812  11.462
68561W        W32505   6.888  44.898  14.825
68562W        W32506   0.887  28.008   0.317
68563W        W32507  31.985  29.075   2.857
68564W        W32508  20.165  14.310   0.960
68565W        W32509  25.660  42.422   3.200
68566W        W32510  27.583  35.407   0.918
68567W        W32511  36.397  31.040  13.348
68568W        W32512  42.861  43.282  13.004
68569W        W32513  21.754  39.028   4.335
68570W        W32514  17.151  32.041   3.751
68571W        W32515   5.239  36.001  11.104
68572W        W32516  27.990   6.214   1.918
68573W        W32517  24.578  13.618  13.022
68574W        W32518   8.168  17.695  12.435
68575W        W32519  13.334  32.899   2.199
68576W        W32520  20.032   4.757  13.008
68577W        W32521   8.310  33.069  14.483
68578W        W32522  35.387  42.293  11.422
68579W        W32523  38.371   4.906   0.259
68580W        W32524  23.730   8.292  12.459
68581W        W32525  11.227  33.497   0.288
68582W        W32526  17.094  42.891   1.703
68583W        W32527  21.257  21.636   1.795
68584W        W32528   0.460   3.295  13.433
68585W        W32529   4.212   4.876   4.663
68586W        W32530  42.282  28.116   0.253
68587W        W32531  36.947  39.910  13.869
68588W        W32532  22.527  32.100  10.031
68589W        W32533  16.615  24.026   4.736
68590W        W32534   5.364  30.966   1.213
68591W        W32535  31.416  17.069  12.580
68592W        W32536  22.547   8.325  10.949
68593W        W32537  41.379  29.090  14.860
68594W        W32538   5.735  38.390   4.117
68595W        W32539  37.471  34.082  10.951
68596W        W32540   9.233  39.462  11.031
68597W        W32541  14.288  19.755  13.055
68598W        W32542  11.650  30.530   3.277
68599W        W32543  25.141  28.517  11.943
68600W        W32544  14.776   2.340  12.036
68601W        W32545  10.713  17.651  11.115
68602W        W32546  31.469  43.431  13.829
68603W        W32547  44.845  35.503   0.964
68604W        W32548  11.232  23.614   0.941
68605W        W32549  35.496  30.108  11.887
68606W        W32550  34.086  38.042   3.860
68607W        W32551  26.650  35.531   3.157
68608W        W32552  30.641   4.873  12.352
68609W        W32553   6.390   3.216   1.705
68610W        W32554  31.131  44.792   0.804
68611W        W32555  14.102   2.418  12.025
68612W        W32556  23.222  31.433   1.247
68613W        W32557  40.380  33.084  10.949
68614W        W32558  38.015  35.009  13.485
68615W        W32559  19.577  17.685  10.427
68616W        W32560  13.685  36.856   1.210
68617W        W32561  35.393  16.131  12.409
68618W        W32562  41.029  15.301   3.153
68619W        W32563  33.080  29.513  12.476
68620W        W32564  13.760  38.478   2.884
68621W        W32565  25.585  27.064   3.378
68622W        W32566  24.529  24.551   0.938
68623W        W32567  43.360  16.121  12.883
68624W        W32568  34.515  36.925  14.827
68625W        W32569  38.486  37.430   2.765
68626W        W32570  11.853  45.000   0.812
68627W        W32571  30.907   4.739   2.672
68628W        W32572  33.046  29.430   4.722
68629W        W32573  38.482  16.685  12.048
68630W        W32574   3.792  16.210   4.732
68631W        W32575  42.954  11.741  11.473
68632W        W32576  31.986  18.179  13.828
68633W        W32577  30.083  30.433   0.362
68634W        W32578  12.630   2.409   1.834
68635W        W32579  40.812  19.641   2.254
68636W        W32580  18.747   5.298  11.541
68637W        W32581  13.669  22.661  14.369
68638W        W32582  29.965  44.421   0.390
68639W        W32583  37.015  16.692   4.734
68640W        W32584   7.218  39.836  11.551
68641W        W32585  18.205  18.196   1.776
68642W        W32586  38.979   8.697  12.913
68643W        W32587  35.030  37.832   0.304
68644W        W32588  42.861  43.378   3.301
68645W        W32589   4.422  12.305  13.343
68646W        W32590  12.623  34.022   0.819
68647W        W32591  35.913  16.692  13.020
68648W        W32592  16.107  43.826  14.430
68649W        W32593  35.888  15.155  11.898
68650W        W32594  14.780  23.094  14.838
68651W        W32595  42.421   3.919   1.210
68652W        W32596  36.985  20.557  14.812
68653W        W32597  35.587  32.411   2.265
68654W        W32598  10.190   1.759  12.504
68655W        W32599   5.240  28.967  14.305
68656W        W32600  19.598  35.448   3.192
68657W        W32601  28.623   4.858  10.635
68658W        W32602  11.327  32.426   4.138
68659W        W32603  38.820   1.964  10.944
68660W        W32604  34.581  38.527   0.771
68661W        W32605  19.733   5.403  12.983
68662W        W32606  27.173   5.261   1.903
68663W        W32607  38.547  25.163  12.519
68664W        W32608   0.837  38.837   4.771
68665W        W32609  29.073  29.465  14.374
68666W        W32610  18.560  21.602   1.441
68667W        W32611   8.779  24.664   3.304
68668W        W32612  44.913  27.637   0.815
68669W        W32613   8.882  29.015  12.844
68670W        W32614  38.017  41.974   1.345
68671W        W32615  19.722   3.756   2.815
68672W        W32616  30.939  23.196   0.435
68673W        W32617   3.918  38.921  11.064
68674W        W32618  35.955  41.445  11.041
68675W        W32619  41.336  37.540   3.839
68676W        W32620  12.746  13.328   0.939
68677W        W32621   5.881  14.698   1.703
68678W        W32622   5.304  14.330  12.933
68679W        W32623  16.285   0.937  14.881
68680W        W32624   0.374  43.459   1.424
68681W        W32625  17.215  12.147  11.931
68682W        W32626  44.983  35.995  12.368
68683W        W32627   0.261  24.018  11.426
68684W        W32628  36.505  44.300   4.205
68685W        W32629   0.977  18.074  13.925
68686W        W32630  18.257  19.561  11.501
68687W        W32631  21.575  38.392   2.209
68688W        W32632  32.411  33.000   0.335
68689W        W32633  43.895  14.242  12.966
68690W        W32634   2.288   5.857   4.262
68691W        W32635  20.664  43.414  12.913
68692W        W32636  33.007  42.391  14.881
68693W        W32637   2.382   2.406   1.429
68694W        W32638  10.166  25.023   9.954
68695W        W32639  19.148   3.358  10.479
68696W        W32640  28.060   6.392  14.278
68697W        W32641  32.000   8.712  12.086
68698W        W32642  25.554  43.887  10.956
68699W        W32643   1.354  22.044   4.744
68700W        W32644   8.286  41.502  13.344
68701W        W32645   1.965  11.142  12.068
68702W        W32646   7.320  36.961   0.814
68703W        W32647  30.619  32.623   4.651
68704W        W32648   0.351   9.318  13.330
68705W        W32649  28.608  23.525   1.384
68706W        W32650  11.314  44.890   3.285
68707W        W32651   5.841   7.806   2.693
68708W        W32652  42.879  23.625   4.716
68709W        W32653  39.060  36.451  10.457
68710W        W32654   3.831  13.753  14.341
68711W        W32655   8.171  17.250   0.905
68712W        W32656  40.040  40.838  11.095
68713W        W32657  15.729   8.781   4.664
68714W        W32658   2.795  24.195   4.181
68715W        W32659  44.266  15.666  10.522
68716W        W32660  38.930   6.691  14.858
68717W        W32661   9.243  18.129   4.180
68718W        W32662  30.055  15.112   1.264
68719W        W32663  18.761  25.064  12.418
68720W        W32664   4.387  42.378  12.090
68721W        W32665  16.683  32.495   2.868
68722W        W32666  32.142  21.677  12.924
68723W        W32667  33.517  21.685  12.857
68724W        W32668  18.735  18.206   1.251
68725W        W32669  25.696  10.662  11.052
68726W        W32670  18.257  12.617  14.279
68727W        W32671  40.387  35.553   4.815
68728W        W32672  12.696  20.609   3.193
68729W        W32673  16.608   1.397   0.333
68730W        W32674  26.955  15.270  11.496
68731W        W32675  26.956   6.812  12.881
68732W        W32676  39.815   9.319  11.050
68733W        W32677  18.618  16.767   0.893
68734W        W32678   4.323  44.434   1.257
68735W        W32679  37.500  44.835   3.174
68736W        W32680   5.839  24.190  12.471
68737W        W32681  16.779  11.328  13.791
68738W        W32682   9.277   3.819   4.200
68739W        W32683  43.438  21.141  12.079
68740W        W32684  28.441  40.844   2.786
68741W        W32685  34.886  15.781   1.320
68742W        W32686  25.477  44.484  10.098
68743W        W32687  29.992   1.427  12.920
68744W        W32688  39.453  42.349   1.381
68745W        W32689  28.569  40.919   0.886
68746W        W32690   1.816  27.161  13.515
68747W        W32691  15.661  23.026   2.850
68748W        W32692  37.366  34.066   3.748
68749W        W32693   2.331  44.301  13.863
68750W        W32694  23.217  38.992   1.698
68751W        W32695  26.648  14.221   9.929
68752W        W32696  27.182  19.752  10.548
68753W        W32697  28.573  23.032  14.511
68754W        W32698  38.445   4.852  12.898
68755W        W32699  40.008  16.778   0.254
68756W        W32700   2.884  15.660  14.337
68757W        W32701  17.290  39.545   1.271
68758W        W32702  40.331  36.097  14.023
68759W        W32703  27.494   4.716  11.414
68760W        W32704   4.428  28.537   4.127
68761W        W32705  13.185  37.353  13.344
68762W        W32706  38.955  35.492  12.507
68763W        W32707   9.711   2.722   3.831
68764W        W32708   4.446  31.465   3.163
68765W        W32709  12.292  30.595   0.368
68766W        W32710  38.463  11.224   1.343
68767W        W32711   5.193   8.801   4.798
68768W        W32712   0.248   4.742   2.195
68769W        W32713   8.371  28.945  11.995
68770W        W32714  11.845   8.163  11.025
68771W        W32715  36.491  26.615  13.817
68772W        W32716  37.457   6.383  11.470
68773W        W32717  11.672   0.423   1.341
68774W        W32718  37.563   9.754   3.169
68775W        W32719   1.285  30.071   2.673
68776W        W32720  38.963  29.129   1.408
68777W        W32721   9.384  44.992  13.340
68778W        W32722  14.812  35.066   4.839
68779W        W32723   6.692  28.558  13.335
68780W        W32724   1.762   1.299   3.849
68781W        W32725  18.292  17.123  10.475
68782W        W32726   0.351  19.571   4.190
68783W        W32727  22.153  23.064  11.006
68784W        W32728   7.908  19.042  11.934
68785W        W32729  30.525   8.856   0.406
68786W        W32730  28.987  37.507   1.398
68787W        W32731  19.082  17.648   1.232
68788W        W32732  19.206  24.545   3.247
68789W        W32733  11.866  24.681  14.819
68790W        W32734  29.618  20.643   3.183
68791W        W32735  43.792  44.888   1.802
68792W        W32736  41.910  11.717   2.673
68793W        W32737  36.953  36.514   1.897
68794W        W32738  37.340  37.074  12.500
68795W        W32739   4.230  29.976  11.972
68796W        W32740  32.466  36.503   2.724
68797W        W32741  40.936   2.362   1.780
68798W        W32742   9.688  44.807  13.493
68799W        W32743  31.010   2.382   0.368
68800W        W32744   2.327  27.576   3.857
68801W        W32745  10.302  11.765   1.434
68802W        W32746   3.757  41.029   0.731
68803W        W32747   1.824  31.108   1.873
68804W        W32748  18.677  11.229  12.839
68805W        W32749  20.200   6.835  13.519
68806W        W32750  10.171  43.404  11.586
68807W        W32751  34.409  21.186  10.410
68808W        W32752  41.863  41.480   0.790
68809W        W32753   5.709  22.060   4.611
68810W        W32754  25.565  33.100  10.550
68811W        W32755  29.981  30.126   2.266
68812W        W32756   0.885  43.001  11.859
68813W        W32757  21.737   9.227  14.902
68814W        W32758  35.465  21.208  13.938
68815W        W32759   5.268  39.996   2.276
68816W        W32760  35.920   3.347   4.124
68817W        W32761  14.761  44.488   4.164
68818W        W32762   3.375   9.216  13.821
68819W        W32763  12.144  22.221   1.759
68820W        W32764  18.262  40.324  11.905
68821W        W32765  41.476   0.463   2.843
68822W        W32766  25.712  10.345  10.483
68823W        W32767   5.885  11.636  11.583
68824W        W32768  18.709  12.287   2.666
68825W        W32769  26.476  14.279  12.967
68826W        W32770  26.049  19.724   0.892
68827W        W32771   6.362  11.681   5.094
68828W        W32772  21.745  11.349  13.441
68829W        W32773  27.635   2.260   4.343
68830W        W32774  17.694   6.826  13.453
68831W        W32775   9.379  39.852   2.229
68832W        W32776   4.708  11.690   0.740
68833W        W32777  26.554  15.243   4.600
68834W        W32778  21.592  26.683   3.760
68835W        W32779  37.538  41.391  12.506
68836W        W32780   4.387  21.225  10.425
68837W        W32781  38.364  34.965   3.845
68838W        W32782   9.299  41.969   0.748
68839W        W32783  15.271  26.033  11.389
68840W        W32784  32.615  37.852   1.233
68841W        W32785  42.853   2.359  12.508
68842W        W32786  37.865  21.689   3.812
68843W        W32787  20.231   0.950   2.748
68844W        W32788  10.650  44.889   0.358
68845W        W32789   6.739  15.723   0.328
68846W        W32790   6.350  23.555   2.686
68847W        W32791   5.772   7.416  12.408
68848W        W32792  37.536   5.354  10.043
68849W        W32793   8.314  36.949  11.046
68850W        W32794  40.338  22.567   1.853
68851W        W32795   4.377   5.881  14.502
68852W        W32796  16.725   1.762   4.790
68853W        W32797   2.737  13.169   4.815
68854W        W32798  25.516  13.682  12.966
68855W        W32799   8.771   7.794   0.808
68856W        W32800  14.705  25.132   2.749
68857W        W32801  30.001  43.863  13.881
68858W        W32802  18.695  15.787   3.164
68859W        W32803  24.069  17.214   3.760
68860W        W32804  20.563  40.531   0.450
68861W        W32805  41.299  14.281   2.856
68862W        W32806  16.697  15.807   1.219
68863W        W32807  38.552  23.560  10.416
68864W        W32808   1.417  10.195   4.113
68865W        W32809   3.893  13.160  14.930
68866W        W32810   9.748  20.210  12.960
68867W        W32811   7.187  26.656  11.110
68868W        W32812  33.532  32.963  11.865
68869W        W32813  24.598  27.036   1.442
68870W        W32814  43.017  40.531  14.347
68871W        W32815  29.640   6.245  10.458
68872W        W32816  12.821  43.363   3.201
68873W        W32817  14.830   1.855   0.394
68874W        W32818  34.439   3.815   3.691
68875W        W32819   1.872  14.227  10.899
68876W        W32820   9.288  26.459   5.222
68877W        W32821  27.119  19.208   2.743
68878W        W32822   9.294  42.477  13.487
68879W        W32823  35.531  10.364  14.830
68880W        W32824  12.239   4.942   0.454
68881W        W32825  42.452  44.919  13.886
68882W        W32826  42.448  31.011   4.632
68883W        W32827  12.814  13.741  14.483
68884W        W32828  27.514  19.744   4.232
68885W        W32829   9.809  36.429   4.122
68886W        W32830  31.938  27.675   2.849
68887W        W32831  42.344  12.283   4.197
68888W        W32832  31.489  23.675  14.819
68889W        W32833  44.860   1.873  10.486
68890W        W32834  41.402  14.644  14.971
68891W        W32835   3.731   8.363  13.322
68892W        W32836   8.364   6.789   3.160
68893W        W32837  22.065   1.830   4.673
68894W        W32838  15.776  15.722  12.089
68895W        W32839   6.784  26.589   3.181
68896W        W32840  15.221  11.267   3.314
68897W        W32841  29.926  43.484  13.871
68898W        W32842  21.608  22.655  13.394
68899W        W32843  28.639  42.368   1.874
68900W        W32844  21.594  11.339  11.607
68901W        W32845  14.236  17.792   0.745
68902W        W32846  29.142   6.238  12.854
68903W        W32847  36.982   7.284  14.030
68904W        W32848  28.565  18.751  11.402
68905W        W32849  11.736   7.285   2.403
68906W        W32850  12.202   9.295   4.689
68907W        W32851  20.165  27.477   3.657
68908W        W32852  32.598  21.552  11.055
68909W        W32853  12.708  20.595  11.416
68910W        W32854  39.364  34.030  14.878
68911W        W32855  38.018  44.393  10.414
68912W        W32856   2.818   4.283   3.212
68913W        W32857  36.966  30.413  11.401
68914W        W32858   3.935  34.439  13.958
68915W        W32859  38.901   0.350  13.985
68916W        W32860  12.351   8.175   0.278
68917W        W32861  33.380  41.914   3.329
68918W        W32862  14.115  39.422   4.662
68919W        W32863  27.551  31.620   1.311
68920W        W32864  27.477  22.072   4.800
68921W        W32865  21.535   0.836  12.452
68922W        W32866  10.749  36.862  11.604
68923W        W32867  44.787  12.187   1.366
68924W        W32868  16.263  16.576  10.536
68925W        W32869  11.772  44.282  11.565
68926W        W32870  34.969  34.389   4.220
68927W        W32871  14.693  43.368  10.986
68928W        W32872  25.676   4.450   1.804
68929W        W32873  18.730  32.070   0.457
68930W        W32874   4.939  34.990   1.430
68931W        W32875  28.947  42.433   3.159
68932W        W32876   4.424  44.921  10.636
68933W        W32877  23.170  27.184  14.353
68934W        W32878   3.713  37.929  11.594
68935W        W32879   3.779  41.975   2.418
68936W        W32880  20.628  23.649   5.661
68937W        W32881  40.995  44.981   1.849
68938W        W32882   3.833  10.243   0.813
68939W        W32883  19.585  27.045  13.340
68940W        W32884  42.832  21.170   2.201
68941W        W32885   8.199   6.418  11.382
68942W        W32886  36.426   4.801  11.120
68943W        W32887  32.441  35.024   3.694
68944W        W32888  14.119  24.166   5.301
68945W        W32889  26.998  30.152   0.291
68946W        W32890  15.789  37.483   2.782
68947W        W32891  23.611  28.045   1.807
68948W        W32892   6.335  25.970   0.950
68949W        W32893  10.309  14.732   2.324
68950W        W32894  22.041  14.689  12.835
68951W        W32895  19.237  25.180  13.812
68952W        W32896   8.246  32.114  14.886
68953W        W32897  25.649  41.840  10.126
68954W        W32898  14.705  43.955   4.210
68955W        W32899  36.543   1.808   0.356
68956W        W32900  25.567  13.771  12.079
68957W        W32901  40.963  24.066   0.306
68958W        W32902  42.323  26.636   4.761
68959W        W32903  32.409  38.908   1.278
68960W        W32904  32.030   1.803  14.485
68961W        W32905  24.177  27.527   0.384
68962W        W32906  30.114  19.215   1.891
68963W        W32907  39.326  11.184   2.732
68964W        W32908  37.487  42.431   0.420
68965W        W32909   7.305  33.465  12.035
68966W        W32910  16.705   9.842  14.363
68967W        W32911  17.694   5.923   4.612
68968W        W32912  32.532  16.081   1.278
68969W        W32913  31.475   8.663  10.517
68970W        W32914  38.907  32.392   3.826
68971W        W32915  25.601  23.535  14.379
68972W        W32916  43.941  32.082  13.488
68973W        W32917  35.484  20.587   1.359
68974W        W32918  24.721  12.763  13.379
68975W        W32919  21.034  25.202  11.096
68976W        W32920  33.616   6.831  11.381
68977W        W32921  15.765  21.722   4.258
68978W        W32922   6.304   8.699  13.310
68979W        W32923  10.808   5.863   2.670
68980W        W32924  28.679   3.240  13.907
68981W        W32925  27.560   5.355  11.974
68982W        W32926   8.277  18.066   0.881
68983W        W32927  31.459  32.020   0.261
68984W        W32928  43.972   5.333   2.765
68985W        W32929   9.248  23.087   2.283
68986W        W32930  41.295  34.883  12.916
68987W        W32931  28.602   0.441  13.050
68988W        W32932   0.963  33.493   3.844
68989W        W32933  17.105  33.565  13.426
68990W        W32934   7.733  32.593  14.770
68991W        W32935  13.272  25.071   0.880
68992W        W32936  25.992  30.501  14.473
68993W        W32937  24.074  24.157   0.873
68994W        W32938  20.629  29.633  13.064
68995W        W32939  23.627  19.043  12.848
68996W        W32940  10.269  19.097  11.863
68997W        W32941   4.440  12.281   2.195
68998W        W32942   1.854   5.835  14.968
68999W        W32943  14.609   0.435  12.342
69000W        W32944  36.990  26.134   3.179
69001W        W32945  42.375   8.358   2.268
69002W        W32946  23.034  30.496   2.738
69003W        W32947  41.402  38.861  12.363
69004W        W32948   9.166  10.654   3.217
69005W        W32949  24.597   1.810  11.450
69006W        W32950  44.374   6.765   2.676
69007W        W32951  41.934  14.280  11.544
69008W        W32952  39.822  23.180  12.516
69009W        W32953   6.362  42.973  14.822
69010W        W32954   2.891  13.235   0.774
69011W        W32955  17.218  15.238  14.349
69012W        W32956   8.227  25.645   2.749
69013W        W32957  39.414  38.906   2.416
69014W        W32958  14.140   9.326   1.432
69015W        W32959  25.099   7.821  12.481
69016W        W32960  36.445  13.809   4.347
69017W        W32961  16.753  24.642   2.890
69018W        W32962  27.551  30.951  13.389
69019W        W32963  11.283  41.507   0.255
69020W        W32964  36.554  12.835  12.347
69021W        W32965   1.328  28.027   3.347
69022W        W32966  36.592  24.088   2.866
69023W        W32967  26.184  12.651  12.509
69024W        W32968  35.566   5.821  14.903
69025W        W32969   2.234  34.089  10.967
69026W        W32970  32.620  29.623   0.962
69027W        W32971  10.828   1.934  13.504
69028W        W32972  27.479  44.282  13.855
69029W        W32973  42.319   9.749   0.290
69030W        W32974  14.320  12.841   4.796
69031W        W32975  36.583  31.968   0.245
69032W        W32976  39.936  30.482   0.965
69033W        W32977  31.418  14.620   0.244
69034W        W32978   4.224  14.765  11.096
69035W        W32979  21.633   8.844   3.346
69036W        W32980  39.949   0.462  12.349
69037W        W32981   8.246  41.017  11.086
69038W        W32982  40.003  14.154  10.537
69039W        W32983  37.400  38.837  14.467
69040W        W32984  39.434  38.928   4.351
69041W        W32985   9.202  19.104   1.900
69042W        W32986  27.633  35.436  12.525
69043W        W32987  27.494  15.321  10.971
69044W        W32988  10.669  32.390   4.283
69045W        W32989   6.878  28.557  14.030
69046W        W32990  17.607   0.873  14.485
69047W        W32991   6.898   4.234   4.162
69048W        W32992  21.705   2.434   0.830
69049W        W32993  22.581  43.777   3.813
69050W        W32994  25.571  36.411   0.303
69051W        W32995  34.552  16.151  11.061
69052W        W32996   5.878  43.808  12.470
69053W        W32997   7.208   9.326  12.844
69054W        W32998  18.735  35.931  12.508
69055W        W32999  33.115  22.180  12.472
69056W        W33000   6.276  41.303  12.843
69057W        W33001   7.703  24.990   0.363
69058W        W33002   6.808  31.544   4.276
69059W        W33003  24.492   9.730  11.123
69060W        W33004  41.509   5.430  13.545
69061W        W33005  33.986   7.380   2.676
69062W        W33006   8.400  24.586   3.798
69063W        W33007  11.633  24.217  10.997
69064W        W33008  18.780  23.143   3.830
69065W        W33009  14.205  10.856  14.480
69066W        W33010   5.258   4.822  10.996
69067W        W33011  33.611   9.840   4.735
69068W        W33012  26.681  29.157  13.896
69069W        W33013  21.102   9.319  12.923
69070W        W33014  15.282  19.644  13.529
69071W        W33015  14.615   4.292   4.264
69072W        W33016  21.568  21.587  12.021
69073W        W33017  22.063  44.413  11.570
69074W        W33018  36.547   1.795  14.495
69075W        W33019   9.711  13.231  12.951
69076W        W33020  33.006  12.732  10.406
69077W        W33021  11.639   5.764   3.869
69078W        W33022  12.658  26.640  13.815
69079W        W33023  15.169  20.746  11.469
69080W        W33024  15.656   4.443  13.886
69081W        W33025   8.725  15.272  12.376
69082W        W33026  15.297  13.752   4.663
69083W        W33027  21.090  20.080  10.413
69084W        W33028   3.349  36.530   1.397
69085W        W33029  38.841  15.770   2.796
69086W        W33030  43.454  36.884   1.233
69087W        W33031  43.957  19.750   4.267
69088W        W33032  13.209  12.743  10.625
69089W        W33033  34.914  15.172   2.888
69090W        W33034  24.514  17.611  13.360
69091W        W33035  32.574  10.672   1.283
69092W        W33036  18.764  20.656  11.602
69093W        W33037  20.579  24.052  12.019
69094W        W33038   2.389  21.194  14.856
69095W        W33039  44.911   6.350  11.516
69096W        W33040  22.694  39.487   3.353
69097W        W33041  36.446  30.965   2.187
69098W        W33042  26.648  10.871  14.858
69099W        W33043  17.154  13.839  12.053
69100W        W33044  27.605  38.477   5.222
69101W        W33045  33.029  44.872   4.641
69102W        W33046   7.698  10.840  14.002
69103W        W33047   5.736  31.558  12.066
69104W        W33048   9.867  26.645   2.190
69105W        W33049   6.845  13.273   3.175
69106W        W33050   8.670  19.166  13.902
69107W        W33051  12.248  20.653  14.860
69108W        W33052   4.260  43.793   2.813
69109W        W33053  35.406  33.983   2.241
69110W        W33054  25.613  22.168   3.852
69111W        W33055  20.274  32.959  12.414
69112W        W33056  31.999  14.750   3.199
69113W        W33057  32.024   6.699  14.846
69114W        W33058  14.165  10.841  11.912
69115W        W33059  41.333  17.259  13.855
69116W        W33060   5.234   6.394   1.289
69117W        W33061  30.563  11.179   2.287
69118W        W33062  23.697  43.825  14.511
69119W        W33063  23.514   9.367   0.307
69120W        W33064  17.127   5.270   1.257
69121W        W33065  11.216  40.528   4.665
69122W        W33066  34.929  10.850   1.933
69123W        W33067  19.069   5.810  11.036
69124W        W33068   6.405  39.887   9.962
69125W        W33069  31.969  13.759  11.974
69126W        W33070  31.590  38.552   4.213
69127W        W33071  40.930   6.279   0.926
69128W        W33072  39.485  23.599  13.390
69129W        W33073  19.590  18.245   2.693
69130W        W33074  23.082   1.863   1.223
69131W        W33075  43.336  39.317   4.823
69132W        W33076  43.412   5.800  13.344
69133W        W33077  10.289  10.211   4.747
69134W        W33078  36.429  30.648   3.297
69135W        W33079  30.991  20.124  14.326
69136W        W33080  33.066   1.745   4.251
69137W        W33081  39.835  14.685  10.466
69138W        W33082  44.807  12.719  11.095
69139W        W33083  30.528   8.862   4.739
69140W        W33084  14.192  18.564   4.603
69141W        W33085  28.634  21.111   3.846
69142W        W33086  30.625  40.497   3.800
69143W        W33087  34.042   5.260   1.773
69144W        W33088  38.072  35.471  10.453
69145W        W33089   6.258  15.811  10.911
69146W        W33090  43.820   9.777  10.922
69147W        W33091  42.004  40.547   2.745
69148W        W33092  38.967  26.063  12.862
69149W        W33093   0.941  31.509   3.842
69150W        W33094   2.963  18.688   2.364
69151W        W33095   1.931   3.824   1.865
69152W        W33096  11.796  41.396   4.322
69153W        W33097  29.964  12.331  12.521
69154W        W33098   1.295  11.707   2.224
69155W        W33099  42.895  39.872   0.371
69156W        W33100  24.691  14.705   0.951
69157W        W33101  14.275  27.971   1.393
69158W        W33102  18.623  34.595   0.391
69159W        W33103  33.917  43.347  10.905
69160W        W33104  11.260   9.661   0.250
69161W        W33105   7.317  30.094  13.407
69162W        W33106  38.525  12.258  10.971
69163W        W33107   5.691  32.089  14.506
69164W        W33108  34.983  31.969  14.991
69165W        W33109  44.983   1.253  13.539
69166W        W33110  16.607   8.851   2.668
69167W        W33111  28.653  26.990   0.298
69168W        W33112  32.538  31.538   0.249
69169W        W33113  39.474  39.362  14.404
69170W        W33114  24.027  32.482   2.401
69171W        W33115  34.091  34.897   0.335
69172W        W33116  41.869  20.272   3.317
69173W        W33117  43.297  23.736   0.815
69174W        W33118  39.327  32.564   3.225
69175W        W33119   5.877   6.403   2.369
69176W        W33120   8.860  16.804  13.842
69177W        W33121  40.972   2.790   4.351
69178W        W33122  16.110  39.339   4.831
69179W        W33123  11.840  23.136  13.368
69180W        W33124  14.682  12.325  10.575
69181W        W33125  27.577  18.663   3.704
69182W        W33126   9.773   2.320  12.554
69183W        W33127   9.726  17.208  14.969
69184W        W33128  30.459  19.141   5.281
69185W        W33129  28.161   0.906  10.543
69186W        W33130   0.433  42.432  14.004
69187W        W33131  41.336  41.885  13.044
69188W        W33132  30.939  32.437  12.965
69189W        W33133  43.979  19.561  13.520
69190W        W33134  26.518  18.110   3.347
69191W        W33135  26.698  30.444  13.349
69192W        W33136  19.058   4.245  10.957
69193W        W33137   9.164  33.545  13.855
69194W        W33138   5.218   6.379   4.693
69195W        W33139  11.312   4.763   3.804
69196W        W33140  12.246  29.631   2.861
69197W        W33141  14.673  20.761   0.283
69198W        W33142  23.073  10.711  13.803
69199W        W33143  33.390   5.896   4.769
69200W        W33144   1.886  34.972  12.965
69201W        W33145   9.725   9.750  13.367
69202W        W33146  21.077  27.552  12.993
69203W        W33147  17.759  24.479   0.930
69204W        W33148  37.502   4.831  13.848
69205W        W33149  36.407  12.302   2.768
69206W        W33150  18.100  15.796   2.821
69207W        W33151  22.038  31.936   0.466
69208W        W33152  31.079  28.464  11.906
69209W        W33153  10.236  27.619   0.928
69210W        W33154  30.127  12.851  14.453
69211W        W33155  41.021  38.889   4.747
69212W        W33156  31.046  13.687   4.157
69213W        W33157  24.018  37.866   0.940
69214W        W33158  11.714  36.014   0.301
69215W        W33159  12.783  29.604   4.232
69216W        W33160  15.324  18.249  11.027
69217W        W33161  43.485  18.782  11.481
69218W        W33162  15.308  15.195  11.875
69219W        W33163  37.550  15.278   3.251
69220W        W33164  26.147  36.002   1.292
69221W        W33165   7.245  10.215  11.988
69222W        W33166  28.571  31.433  14.306
69223W        W33167   8.328  26.665  14.505
69224W        W33168   4.801  24.209   0.306
69225W        W33169  37.434  12.825  11.533
69226W        W33170  17.614  23.072   1.213
69227W        W33171  36.383  12.687   2.811
69228W        W33172   4.325   0.460   3.378
69229W        W33173  28.992  27.531   2.874
69230W        W33174  14.721   4.885  13.060
69231W        W33175  44.997  40.493   3.346
69232W        W33176  14.592  18.716  14.299
69233W        W33177  13.790   3.294  10.153
69234W        W33178  37.411  42.888   2.781
69235W        W33179  16.749  29.150  12.960
69236W        W33180   5.692  42.965  12.480
69237W        W33181  40.879  20.532   0.751
69238W        W33182   3.814   5.931   4.331
69239W        W33183  32.921  10.865  10.595
69240W        W33184  19.204  11.194  11.577
69241W        W33185   9.235  34.044  13.802
69242W        W33186  38.852  22.091   0.312
69243W        W33187  34.609  31.946   2.835
69244W        W33188  10.789  40.935   1.262
69245W        W33189  10.357  20.169  11.012
69246W        W33190  22.190   9.709   2.270
69247W        W33191  43.337  41.467   2.211
69248W        W33192  30.977   6.746  11.917
69249W        W33193  18.239  21.241   0.468
69250W        W33194  30.520  33.956   3.666
69251W        W33195  11.667  41.428  13.467
69252W        W33196  11.692   2.436   3.667
69253W        W33197  38.997  26.029  12.090
69254W        W33198  42.296  28.970  11.406
69255W        W33199  39.528   1.411  14.809
69256W        W33200  13.278  43.330  12.559
69257W        W33201  29.136  25.575   1.389
69258W        W33202   4.843  24.537  14.335
69259W        W33203  41.301  13.773  10.490
69260W        W33204  29.046  36.051   0.259
69261W        W33205  38.937  37.431   9.989
69262W        W33206  11.819  44.408  12.975
69263W        W33207  23.617  24.537  13.987
69264W        W33208  29.069  30.967  12.438
69265W        W33209  13.785   4.362   5.614
69266W        W33210   8.811  11.773   5.291
69267W        W33211  39.421  42.369   4.644
69268W        W33212  22.575  12.759  11.456
69269W        W33213  33.073  26.174   3.279
69270W        W33214  14.301  26.030  12.967
69271W        W33215   1.834   4.720  14.327
69272W        W33216  25.637  18.549  11.872
69273W        W33217  15.095  38.000   3.178
69274W        W33218  34.526  19.105   4.202
69275W        W33219  16.165   2.320   1.818
69276W        W33220   1.788  25.109  14.865
69277W        W33221  13.336  41.829  12.970
69278W        W33222  12.198  26.113   1.269
69279W        W33223  41.367   6.825  12.385
69280W        W33224  23.184  10.318   3.686
69281W        W33225  44.850  41.927   4.614
69282W        W33226  36.915  12.642  14.985
69283W        W33227   6.235  29.961   2.188
69284W        W33228  28.145   4.769   1.356
69285W        W33229  18.213  19.692  13.795
69286W        W33230  32.971  38.057  14.345
69287W        W33231   5.300  15.726   4.651
69288W        W33232  35.068  12.767  14.408
69289W        W33233  11.828  21.072   9.941
69290W        W33234  16.314  32.044   3.816
69291W        W33235  16.672  18.687  13.897
69292W        W33236  18.677  42.511   1.241
69293W        W33237  26.576   8.769  13.998
69294W        W33238   9.290  37.437  12.548
69295W        W33239  14.161  31.578  14.026
69296W        W33240  23.669   9.349   4.299
69297W        W33241  39.369  11.757   0.908
69298W        W33242  43.832   0.771  11.106
69299W        W33243  20.225   9.725  12.897
69300W        W33244  29.925  35.444  14.389
69301W        W33245  24.655   3.862  11.582
69302W        W33246   7.376  14.149   1.881
69303W        W33247  15.113  34.055   1.300
69304W        W33248  14.271   5.853   4.605
69305W        W33249  23.546  39.314   3.180
69306W        W33250  25.210  21.604  12.054
69307W        W33251  21.046  33.011  14.459
69308W        W33252  10.815  26.195  13.841
69309W        W33253  43.984  44.472  10.593
69310W        W33254  26.502  35.956  14.873
69311W        W33255  10.197  10.808  10.417
69312W        W33256  19.746  15.612  11.389
69313W        W33257  44.498  15.721   2.834
69314W        W33258  13.147  30.547  12.909
69315W        W33259   0.832  34.865   4.166
69316W        W33260  31.919  16.087  10.906
69317W        W33261  25.540  28.178   0.420
69318W        W33262  13.332  13.679  14.897
69319W        W33263  28.000  25.141   4.622
69320W        W33264   9.691  23.595   2.259
69321W        W33265  30.497  27.153   2.758
69322W        W33266  43.508  25.702  13.840
69323W        W33267   2.883  41.367   3.166
69324W        W33268  41.885  38.519  11.098
69325W        W33269   7.769   5.366   3.736
69326W        W33270  13.642  42.363  11.401
69327W        W33271  39.928   9.315  14.995
69328W        W33272  38.055  23.562  14.291
69329W        W33273  16.800  20.522  13.949
69330W        W33274   7.728  39.468   1.227
69331W        W33275  20.698  13.828  13.544
69332W        W33276  10.312  15.666  11.913
69333W        W33277  13.636  23.005  14.387
69334W        W33278   3.416  14.311  14.900
69335W        W33279  37.881   6.404   1.808
69336W        W33280  24.511  40.863   0.763
69337W        W33281  28.604  18.682   0.289
69338W        W33282  38.862  32.046   3.738
69339W        W33283  38.038  39.014  11.065
69340W        W33284  23.183  28.153  13.420
69341W        W33285  40.390  28.011  12.006
69342W        W33286  31.618  36.020   2.851
69343W        W33287  28.621  43.830   4.708
69344W        W33288  27.456   8.367   1.868
69345W        W33289   4.233  26.689  13.028
69346W        W33290  26.147   0.745  14.996
69347W        W33291  15.183  28.158  11.471
69348W        W33292  20.726  27.445   1.817
69349W        W33293   3.331   9.649   2.777
69350W        W33294  44.999  40.934  10.522
69351W        W33295  22.118  25.630  10.497
69352W        W33296   0.981  38.010   0.875
69353W        W33297  34.020  28.453  13.063
69354W        W33298  23.028   1.427   4.330
69355W        W33299   1.367  42.019  12.393
69356W        W33300   3.765   0.919  12.965
69357W        W33301  37.478  35.367  14.813
69358W        W33302  16.738  15.199   4.804
69359W        W33303  39.492  23.598  14.931
69360W        W33304   3.919   5.267   2.726
69361W        W33305  12.161  33.111   0.361
69362W        W33306  30.945  29.510  11.454
69363W        W33307   9.824  11.798  14.936
69364W        W33308  27.036  33.119  11.908
69365W        W33309  11.186  40.328  14.388
69366W        W33310   8.372  23.728   1.773
69367W        W33311  44.995  36.006  10.889
69368W        W33312  27.492  16.128   2.247
69369W        W33313  32.596  40.460  12.548
69370W        W33314  33.969  12.727  13.982
69371W        W33315   6.738   2.808  11.953
69372W        W33316  42.904  12.615   0.773
69373W        W33317  37.429  27.016   0.262
69374W        W33318  39.000  36.096  12.355
69375W        W33319  15.759  15.791   4.212
69376W        W33320  18.261  29.966   1.407
69377W        W33321   1.967   5.888   0.251
69378W        W33322  25.218  19.109  14.299
69379W        W33323  20.580   3.417  11.915
69380W        W33324  17.745   6.189  14.915
69381W        W33325  17.627  36.347  12.847
69382W        W33326  13.656  15.177   4.341
69383W        W33327   1.471  34.094   4.749
69384W        W33328  38.353  23.612  12.037
69385W        W33329  22.054  17.790   3.224
69386W        W33330  34.922  34.892  14.285
69387W        W33331  14.330  19.068  12.827
69388W        W33332  28.587  34.483  11.513
69389W        W33333  20.638  31.985   1.222
69390W        W33334   5.330  24.582   3.259
69391W        W33335  33.115  16.276  14.395
69392W        W33336  12.848  23.240   0.286
69393W        W33337  43.952  20.687   4.612
69394W        W33338  25.171   7.749  10.455
69395W        W33339  18.091   6.891  14.387
69396W        W33340  16.315  37.049  11.060
69397W        W33341  11.238  11.191  13.040
69398W        W33342  17.103  16.634   3.668
69399W        W33343  26.568  14.636  11.911
69400W        W33344  12.181  24.619  14.967
69401W        W33345  44.841  36.045   0.765
69402W        W33346  23.063  17.095  14.472
69403W        W33347  43.878  23.587   2.864
69404W        W33348  35.860  11.709   3.364
69405W        W33349   2.276  37.070  12.483
69406W        W33350  31.079  36.392  11.014
69407W        W33351   7.329  42.988   2.220
69408W        W33352  20.152  32.133  12.855
69409W        W33353  12.300  23.010   2.389
69410W        W33354  24.977  28.499   0.450
69411W        W33355   7.252  28.523  13.000
69412W        W33356  30.145   8.352   0.323
69413W        W33357  42.856  38.820   2.901
69414W        W33358   8.842  18.754   5.119
69415W        W33359  37.003  19.720  10.929
69416W        W33360  13.737  36.389   2.370
69417W        W33361  23.105  15.742   0.300
69418W        W33362  17.575  39.397   4.219
69419W        W33363  16.179   1.869  14.340
69420W        W33364  44.835   9.766  12.892
69421W        W33365  25.203  23.113   4.714
69422W        W33366   1.953  16.614   0.869
69423W        W33367  24.678  34.396   4.150
69424W        W33368  38.910   6.694   1.877
69425W        W33369  25.643   0.834  12.084
69426W        W33370  28.118  24.686  13.834
69427W        W33371   7.187  10.676  12.370
69428W        W33372  15.192  31.537   3.842
69429W        W33373  26.131  43.507   4.638
69430W        W33374  15.583  26.654   2.798
69431W        W33375  25.597  17.297  13.385
69432W        W33376   6.828  19.076  13.987
69433W        W33377   2.956  37.840   2.269
69434W        W33378   8.253  30.501  11.919
69435W        W33379   0.844  44.753   3.372
69436W        W33380  44.941   5.820  13.415
69437W        W33381  18.692  21.724   9.647
69438W        W33382   1.465  16.654  11.611
69439W        W33383   1.372   6.867  13.884
69440W        W33384  41.462   1.817  14.968
69441W        W33385   5.373  23.602  14.914
69442W        W33386  22.126  38.340   2.299
69443W        W33387  36.406  44.301  10.035
69444W        W33388  37.990  44.310   4.224
69445W        W33389  18.294  35.888  12.975
69446W        W33390   0.974  17.634  10.600
69447W        W33391  31.111  17.242   5.791
69448W        W33392  42.874   4.945   1.233
69449W        W33393  25.127  40.399   2.410
69450W        W33394  44.854  25.487  10.423
69451W        W33395  19.158  30.917   2.227
69452W        W33396  19.237  30.963   1.211
69453W        W33397  37.400  18.157  14.923
69454W        W33398  39.823  40.014  10.934
69455W        W33399  26.145  13.235  14.982
69456W        W33400   5.369   0.802  11.961
69457W        W33401  38.913  43.779   2.359
69458W        W33402  28.146  44.906   3.176
69459W        W33403   3.832  16.579   3.355
69460W        W33404  31.105  27.606   4.158
69461W        W33405  44.850  40.406   0.409
69462W        W33406   7.817  29.523   1.394
69463W        W33407  34.909   2.333   0.473
69464W        W33408   4.301  38.040  11.960
69465W        W33409   3.945  14.644  12.469
69466W        W33410  31.049  18.654   3.796
69467W        W33411   0.863  21.553  11.906
69468W        W33412   7.205  15.672  13.319
69469W        W33413  30.418  32.011  11.400
69470W        W33414  39.025   1.284   1.409
69471W        W33415   6.401   7.349  11.580
69472W        W33416  26.202  28.132  12.564
69473W        W33417  34.534  20.650  12.375
69474W        W33418  30.132   3.423  11.914
69475W        W33419  29.080  29.051   0.870
69476W        W33420  39.054   8.873  11.903
69477W        W33421  38.407  12.812   4.732
69478W        W33422   3.868  23.013  11.991
69479W        W33423   0.970  34.578   2.254
69480W        W33424  17.626   3.854   2.367
69481W        W33425   8.217  24.177  13.062
69482W        W33426  15.760   7.256  14.487
69483W        W33427  34.946   3.854   0.947
69484W        W33428  27.068  30.494   2.823
69485W        W33429  12.730  33.586  13.923
69486W        W33430  33.075  11.647   3.360
69487W        W33431  16.263  37.426  13.326
69488W        W33432  18.173  11.717  10.917
69489W        W33433   6.322  28.502   2.368
69490W        W33434  18.711  32.032  14.932
69491W        W33435  26.541  16.196  11.564
69492W        W33436  37.350  38.939   2.811
69493W        W33437  33.418  21.211   3.327
69494W        W33438  38.460  17.077   4.634
69495W        W33439   1.434  41.382   4.735
69496W        W33440   8.887  42.386  13.916
69497W        W33441  25.633  16.774  13.797
69498W        W33442   8.753   1.789  10.118
69499W        W33443  32.890  13.209   1.337
69500W        W33444   8.254  30.122   0.249
69501W        W33445  14.831   9.184  14.486
69502W        W33446  30.580  27.591  11.373
69503W        W33447   1.969  28.081  10.628
69504W        W33448  15.739  22.217  13.803
69505W        W33449  44.958  31.407  11.120
69506W        W33450  30.929  22.676  10.155
69507W        W33451  28.076  25.559  13.995
69508W        W33452   2.847  41.870   4.294
69509W        W33453  23.176  41.840  12.380
69510W        W33454  11.644  19.613  12.057
69511W        W33455   7.318  22.678  12.878
69512W        W33456  20.726   1.405   1.849
69513W        W33457  33.933  32.903   4.262
69514W        W33458  30.017   1.480   2.230
69515W        W33459  36.463   7.899  11.031
69516W        W33460  15.749  11.726   1.726
69517W        W33461  16.725  10.647  12.012
69518W        W33462  25.630  18.181  10.155
69519W        W33463  20.090  31.598   3.302
69520W        W33464  17.077  15.300  14.801
69521W        W33465  24.681  18.192  10.910
69522W        W33466  18.231  21.685   2.864
69523W        W33467   7.734   0.780  11.386
69524W        W33468   2.756  26.596  12.989
69525W        W33469  11.140  28.445   0.463
69526W        W33470  39.395  26.585  10.500
69527W        W33471   4.926  21.146   3.358
69528W        W33472  12.636  24.634  12.916
69529W        W33473   8.344  32.017  12.391
69530W        W33474  27.052  42.861  12.543
69531W        W33475   9.333  16.747   1.252
69532W        W33476   8.749  43.849   0.322
69533W        W33477  28.125  41.453  13.845
69534W        W33478  11.796  18.236   1.355
69535W        W33479  30.623  44.759  12.403
69536W        W33480  18.113   8.684  13.026
69537W        W33481  10.327  36.078   1.706
69538W        W33482  11.364  23.614   2.414
69539W        W33483  32.635  20.698   4.162
69540W        W33484  14.232  16.759   0.369
69541W        W33485  20.087  11.320   2.358
69542W        W33486  27.669  37.954   1.865
69543W        W33487   1.312   2.815   4.187
69544W        W33488  33.572  10.800  10.578
69545W        W33489   1.847  15.817   1.333
69546W        W33490  36.036  33.519   1.370
69547W        W33491  42.993  39.870   4.825
69548W        W33492  19.229   4.382  14.025
69549W        W33493  16.568  18.596   2.771
69550W        W33494   3.854  35.074   3.370
69551W        W33495  34.989  31.010  11.063
69552W        W33496  34.071  14.278  13.935
69553W        W33497   3.238  17.682  10.922
69554W        W33498  30.033   9.821  13.798
69555W        W33499  14.682   3.939   3.252
69556W        W33500   7.193  16.281   0.912
69557W        W33501  14.718  31.411   2.251
69558W        W33502  13.292  44.379  10.001
69559W        W33503  37.425  33.120   4.817
69560W        W33504  26.202  43.451   4.129
69561W        W33505  41.537  34.530   3.670
69562W        W33506  29.626  13.738  13.863
69563W        W33507  24.539  38.948   3.837
69564W        W33508   2.753  19.042   0.881
69565W        W33509  18.666   4.303  12.987
69566W        W33510  34.034  40.897   4.346
69567W        W33511  26.696   6.727   0.306
69568W        W33512  27.664  21.705   1.831
69569W        W33513  10.710  15.298   0.250
69570W        W33514   5.824   3.746   4.163
69571W        W33515  32.934  15.182  12.945
69572W        W33516  29.638  24.076  12.373
69573W        W33517  37.868   9.684   3.288
69574W        W33518   0.467   6.843   3.302
69575W        W33519  24.044  18.771   0.340
69576W        W33520  38.060   7.708   4.113
69577W        W33521  27.448   9.851  14.868
69578W        W33522  19.083  27.038  13.968
69579W        W33523   4.707  20.272  12.846
69580W        W33524  31.081   4.276  11.563
69581W        W33525  19.215  12.176  11.106
69582W        W33526  17.089  32.509  13.440
69583W        W33527   7.725  32.949  12.933
69584W        W33528  34.087  13.318   3.688
69585W        W33529   8.180   5.201   3.168
69586W        W33530  16.139  21.249  12.003
69587W        W33531  12.179  29.545  12.003
69588W        W33532  43.765  26.649  13.513
69589W        W33533  44.368  35.031  12.035
69590W        W33534   7.728  26.164   4.791
69591W        W33535  24.139  38.052   0.409
69592W        W33536  21.566  10.314  12.027
69593W        W33537   2.892  44.862   1.244
69594W        W33538  38.961  12.356   2.816
69595W        W33539   9.296   7.693  14.810
69596W        W33540  11.260  13.802  14.354
69597W        W33541  14.149   5.905   2.362
69598W        W33542   1.246  19.168   0.362
69599W        W33543  23.606   4.902   1.764
69600W        W33544  40.343   1.844   0.328
69601W        W33545  29.643  27.460  10.589
69602W        W33546  24.580   8.330  13.544
69603W        W33547  31.487   7.893  13.466
69604W        W33548  44.335   3.949  13.806
69605W        W33549  39.051  31.926   0.746
69606W        W33550  21.179  19.165   3.818
69607W        W33551   2.880  24.216   1.725
69608W        W33552  28.982  15.766  10.077
69609W        W33553  24.512  34.572  14.912
69610W        W33554  14.148   0.449   0.395
69611W        W33555  44.503  27.138  14.282
69612W        W33556  33.037  18.656   3.825
69613W        W33557  26.963  28.954  11.603
69614W        W33558  43.877  27.683   2.403
69615W        W33559  12.350   3.764  14.963
69616W        W33560  12.260  22.558  12.451
69617W        W33561  24.486   4.714  11.571
69618W        W33562  43.945  41.976   0.937
69619W        W33563   0.372  27.476   3.281
69620W        W33564   2.361  15.084  10.982
69621W        W33565  38.999   4.267  11.443
69622W        W33566  32.930  13.252   3.295
69623W        W33567  23.521  19.560  12.567
69624W        W33568  39.998  32.056   2.209
69625W        W33569  28.039   6.764   3.867
69626W        W33570  10.783  14.323  10.098
69627W        W33571  43.388   5.815   3.250
69628W        W33572  17.666  14.769  13.496
69629W        W33573  35.999  25.004   1.913
69630W        W33574  26.176  30.628   0.425
69631W        W33575   9.825  42.495   4.203
69632W        W33576   3.947   1.859  10.465
69633W        W33577  18.724   2.259  13.856
69634W        W33578  34.549  27.592   0.428
69635W        W33579  35.041   6.371  10.526
69636W        W33580   3.269   4.438  13.356
69637W        W33581   2.472  33.978  13.370
69638W        W33582  29.669   2.735  11.411
69639W        W33583  14.273  24.989   4.251
69640W        W33584  37.522  28.941  14.464
69641W        W33585  35.072   1.776   1.439
69642W        W33586  19.120  28.597   1.265
69643W        W33587   9.283  35.458   4.830
69644W        W33588   2.964   3.314   1.821
69645W        W33589  13.205  26.142   2.713
69646W        W33590  28.516  38.053   3.191
69647W        W33591  38.346  28.141   2.830
69648W        W33592  11.267   4.321  11.484
69649W        W33593  24.229  22.660   2.787
69650W        W33594   5.903  35.542   4.135
69651W        W33595  24.055  20.045   0.469
69652W        W33596  21.741  39.034  10.483
69653W        W33597  13.195   5.343   0.885
69654W        W33598  17.073   3.372  13.419
69655W        W33599  10.274  40.904   3.856
69656W        W33600   8.312  32.487   2.225
69657W        W33601  21.214   3.901  11.067
69658W        W33602  13.347   7.223   3.253
69659W        W33603  27.685  17.622   0.745
69660W        W33604  41.021  27.069   0.299
69661W        W33605  27.550   9.246   2.787
69662W        W33606   9.662   6.297  12.500
69663W        W33607  15.678   3.868   1.445
69664W        W33608  40.841  39.404  14.028
69665W        W33609  34.096   8.276  13.911
69666W        W33610  19.072  44.764  12.961
69667W        W33611  19.134  41.339   3.217
69668W        W33612  37.964  27.153   4.690
69669W        W33613  11.623   3.434   4.215
69670W        W33614  12.225   6.772  12.887
69671W        W33615  30.629   3.426   2.408
69672W        W33616  41.967  32.538  10.604
69673W        W33617  35.433  35.066   3.284
69674W        W33618  32.058  30.479  12.079
69675W        W33619  33.879  39.921   1.275
69676W        W33620  20.091  11.774   1.398
69677W        W33621  32.420  38.569   0.445
69678W        W33622  38.876  20.184   3.376
69679W        W33623   1.450  32.920   3.738
69680W        W33624  13.763  17.140  14.770
69681W        W33625  31.003  24.690  13.026
69682W        W33626  40.833  16.811   2.814
69683W        W33627  12.669   5.784   3.823
69684W        W33628  24.650  35.023  13.817
69685W        W33629  22.152  35.571  14.973
69686W        W33630  11.737   7.712  12.858
69687W        W33631   3.943  22.524  14.902
69688W        W33632  17.092  27.996   4.777
69689W        W33633  28.012  15.794  11.008
69690W        W33634  31.628  13.664  14.330
69691W        W33635   7.814  26.973  12.391
69692W        W33636  26.991  39.523   3.862
69693W        W33637  30.987  21.177   1.348
69694W        W33638  16.671  39.918   0.424
69695W        W33639  28.508  42.348  11.433
69696W        W33640  43.901  24.003   3.290
69697W        W33641  36.537   8.727   5.240
69698W        W33642  18.737  28.478  14.366
69699W        W33643  16.263  23.578  12.075
69700W        W33644   1.843   1.809   0.450
69701W        W33645  20.138  31.410   0.803
69702W        W33646  15.798  30.447   0.934
69703W        W33647  34.089  24.511   2.770
69704W        W33648  22.118  27.055   2.859
69705W        W33649   4.362  10.694  13.026
69706W        W33650  17.649   1.254  11.516
69707W        W33651  21.201  19.158   0.277
69708W        W33652  31.438  11.193  12.353
69709W        W33653   5.328  29.153   2.856
69710W        W33654  41.860   7.895  10.457
69711W        W33655  16.081   5.767   0.389
69712W        W33656  42.510   7.338  11.929
69713W        W33657  41.038   8.313  12.370
69714W        W33658   1.798  37.443  13.977
69715W        W33659   5.294  40.039  14.308
69716W        W33660  26.970  15.108   3.242
69717W        W33661  25.191  29.967   0.410
69718W        W33662  22.718  10.846   2.405
69719W        W33663  38.552  41.953  14.275
69720W        W33664  11.827  16.766  14.769
69721W        W33665  28.629  21.587   2.803
69722W        W33666  22.177  37.056   4.800
69723W        W33667   2.791   4.902  14.775
69724W        W33668  18.752  29.146  14.978
69725W        W33669  29.992  22.617  11.571
69726W        W33670  14.614  25.122   2.312
69727W        W33671  40.931  23.730   3.345
69728W        W33672  41.817  38.940  13.861
69729W        W33673  27.555  17.613  13.913
69730W        W33674  19.737   9.161   3.662
69731W        W33675  41.357  14.761   0.338
69732W        W33676  12.130   8.658  12.956
69733W        W33677   9.827   5.353  10.629
69734W        W33678  39.316   8.681  13.528
69735W        W33679  18.703  11.170   0.444
69736W        W33680  18.786  16.583   4.332
69737W        W33681   8.204   6.722   2.733
69738W        W33682  34.117  15.683   0.802
69739W        W33683  32.514   1.325   2.278
69740W        W33684  14.784   4.426  11.972
69741W        W33685  41.801  23.126  13.500
69742W        W33686  33.893  41.344   2.242
69743W        W33687   5.873  44.396  14.983
69744W        W33688  34.506  32.065   0.919
69745W        W33689  27.992  43.495  14.797
69746W        W33690  22.526   5.397  12.504
69747W        W33691   7.295   7.262   0.920
69748W        W33692   9.719  13.787  10.542
69749W        W33693   3.242   7.883  11.048
69750W        W33694  39.333   2.907  11.926
69751W        W33695  20.625   4.247   0.794
69752W        W33696   1.750  16.268  10.553
69753W        W33697  31.929  42.817   2.842
69754W        W33698  39.980  27.986  12.052
69755W        W33699  34.493  36.521   1.387
69756W        W33700   2.246  38.431   0.288
69757W        W33701   8.821  26.200  10.991
69758W        W33702  24.987   4.853   4.198
69759W        W33703  24.709  35.038  12.998
69760W        W33704  42.827  39.553   4.181
69761W        W33705  23.061   7.241  13.384
69762W        W33706   2.789  22.218   3.839
69763W        W33707  28.665  31.138   3.150
69764W        W33708  30.165  44.010  10.897
69765W        W33709  42.877   6.798   4.181
69766W        W33710  36.964  16.761   2.815
69767W        W33711  40.025  27.496  13.357
69768W        W33712  31.404  42.877  14.931
69769W        W33713  32.100   1.336  14.915
69770W        W33714   3.396  21.570  13.902
69771W        W33715  26.998   5.244   3.812
69772W        W33716  23.002  27.664   2.238
69773W        W33717  16.091  32.991  14.339
69774W        W33718  43.765  25.675  14.901
69775W        W33719  15.292  35.953  11.526
69776W        W33720  26.082   1.851   4.348
69777W        W33721  30.527   8.251  12.922
69778W        W33722   1.282   0.949  12.418
69779W        W33723   2.938  27.600   3.353
69780W        W33724   8.188   9.168   2.323
69781W        W33725  20.554   9.329   4.643
69782W        W33726  12.671  17.610  10.442
69783W        W33727  12.127  25.474  10.992
69784W        W33728  12.208  29.981  14.417
69785W        W33729  22.628  18.790   0.845
69786W        W33730  25.041  32.082  10.533
69787W        W33731  27.568  12.320  12.931
69788W        W33732  18.260  35.371   4.214
69789W        W33733   3.765  31.415  12.395
69790W        W33734  40.395   9.821   2.751
69791W        W33735  42.410  40.403   2.417
69792W        W33736  41.841  28.161  11.010
69793W        W33737   1.305  15.601  13.814
69794W        W33738  13.667  35.985  14.422
69795W        W33739   6.773  32.621  11.040
69796W        W33740   4.773   0.379  11.016
69797W        W33741  25.199  16.312   1.443
69798W        W33742   2.960  12.323  12.359
69799W        W33743   1.928  11.206   3.809
69800W        W33744  32.119  24.214   1.337
69801W        W33745  13.141  11.836   2.277
69802W        W33746  11.721  17.282   0.866
69803W        W33747   7.758  43.000  10.022
69804W        W33748  13.134   4.872   1.244
69805W        W33749  12.771  28.961   4.114
69806W        W33750  42.848   1.358  11.081
69807W        W33751  29.002  11.135   1.385
69808W        W33752  41.470   8.223   1.387
69809W        W33753   5.255  35.537  10.928
69810W        W33754  17.580  40.877  12.430
69811W        W33755  43.339  26.602  13.490
69812W        W33756  43.497   7.392   4.656
69813W        W33757   6.273  39.025   2.283
69814W        W33758  25.526   8.888  14.831
69815W        W33759  18.632  14.134   3.752
69816W        W33760  27.526  32.000   3.802
69817W        W33761  25.534   2.273   4.169
69818W        W33762  40.867  14.111  12.382
69819W        W33763  34.084  35.076  12.050
69820W        W33764   4.750  19.762  11.544
69821W        W33765  20.047   2.403  10.513
69822W        W33766  22.506   4.383   1.237
69823W        W33767  17.666  37.897   3.741
69824W        W33768  35.862   8.234  14.964
69825W        W33769   2.312  35.998  14.926
69826W        W33770  36.425  39.503   2.317
69827W        W33771   4.863   6.737  10.487
69828W        W33772   8.214  15.083  14.996
69829W        W33773  26.020  33.093   3.168
69830W        W33774  30.161  39.556   0.256
69831W        W33775   9.211  16.599   0.445
69832W        W33776  29.167  32.575   2.360
69833W        W33777  11.292   6.847  12.094
69834W        W33778  29.490  12.250   1.878
69835W        W33779  16.284   1.469  11.980
69836W        W33780  32.004  12.141  11.461
69837W        W33781  44.834   3.846   0.760
69838W        W33782   5.297  25.062   2.885
69839W        W33783  30.125  35.584  11.485
69840W        W33784   1.734  38.859   2.274
69841W        W33785  28.034   4.327   3.375
69842W        W33786  12.779  24.497  13.500
69843W        W33787   4.798  27.453  11.031
69844W        W33788  14.796  38.533   1.921
69845W        W33789  24.022  20.055   3.366
69846W        W33790  12.297  31.026   0.734
69847W        W33791  29.033   9.320  13.024
69848W        W33792  29.567   5.883   2.855
69849W        W33793  25.514  11.315   0.440
69850W        W33794  10.254  23.584   4.224
69851W        W33795  38.434  12.787  11.942
69852W        W33796  37.439  38.484  12.893
69853W        W33797  44.333  11.250   5.318
69854W        W33798   4.292  38.876  11.896
69855W        W33799  28.654  25.502   2.200
69856W        W33800  10.663   0.838  11.375
69857W        W33801   7.699  38.372   3.747
69858W        W33802   7.340  18.236  13.886
69859W        W33803  14.217  41.823   1.345
69860W        W33804  19.631  29.053  12.058
69861W        W33805  42.341  43.340  11.992
69862W        W33806  44.832  44.299   4.201
69863W        W33807  29.092  21.752   0.294
69864W        W33808  33.881  22.514   4.644
69865W        W33809  16.659  20.255  14.958
69866W        W33810  37.073  27.026  12.937
69867W        W33811  41.969   6.212   1.408
69868W        W33812   2.408  40.517  13.429
69869W        W33813  33.050   1.414  13.837
69870W        W33814  21.578  35.552   4.223
69871W        W33815  27.467  28.667  14.871
69872W        W33816  28.143  16.718  13.469
69873W        W33817  34.953   4.758  10.138
69874W        W33818  27.082  29.535  12.999
69875W        W33819  20.271  20.141  14.902
69876W        W33820  42.911  34.418  10.442
69877W        W33821  18.115  19.091  11.077
69878W        W33822   3.379  26.190   1.803
69879W        W33823  28.629  32.476   3.666
69880W        W33824   4.245   8.702  10.522
69881W        W33825  16.752   7.348   4.182
69882W        W33826  25.497  33.420  11.415
69883W        W33827  23.108  28.453   2.689
69884W        W33828  22.129  21.115  14.349
69885W        W33829  43.938  18.656   4.735
69886W        W33830  44.827  25.506  11.478
69887W        W33831  26.140  32.417  11.513
69888W        W33832  21.085   6.890   0.806
69889W        W33833  16.106   1.463   2.369
69890W        W33834   1.913  17.629  11.110
69891W        W33835  43.925   1.843  13.323
69892W        W33836  21.058  26.634   3.173
69893W        W33837  10.752  13.675   4.206
69894W        W33838  44.980  21.170  14.418
69895W        W33839   2.446  39.452  12.016
69896W        W33840  21.625   4.702  12.392
69897W        W33841  38.542  15.124  11.378
69898W        W33842  14.311  23.701  10.636
69899W        W33843   3.949  15.239   3.820
69900W        W33844  25.072  36.391  11.123
69901W        W33845  17.198  30.545  13.389
69902W        W33846  27.111  36.069  10.603
69903W        W33847  25.054  32.098   1.348
69904W        W33848   8.266  21.737   3.669
69905W        W33849  27.083   1.898  12.912
69906W        W33850  36.886  11.741  10.962
69907W        W33851  32.082   2.883  10.477
69908W        W33852  29.154  41.444  13.397
69909W        W33853  27.689  20.639   3.776
69910W        W33854  17.643   9.166   2.282
69911W        W33855  28.561  10.672  14.903
69912W        W33856  43.312  14.124   2.387
69913W        W33857  40.901   2.283   9.637
69914W        W33858  25.030  25.217  12.515
69915W        W33859  26.666  19.253   0.460
69916W        W33860  27.165  22.501   3.363
69917W        W33861   7.731  34.509  12.835
69918W        W33862  12.835   9.745   2.748
69919W        W33863  26.586  11.777  14.464
69920W        W33864  12.642  39.968   3.298
69921W        W33865  42.524  11.750   4.666
69922W        W33866  43.303   3.913   0.799
69923W        W33867   3.908  41.804  13.528
69924W        W33868  38.404  23.715  11.489
69925W        W33869   9.816  36.931  11.476
69926W        W33870  24.660  18.641   0.284
69927W        W33871  32.030  16.072   2.708
69928W        W33872  29.500  37.551   9.986
69929W        W33873  20.631   1.280  12.439
69930W        W33874  22.613   9.277   3.822
69931W        W33875  37.945  33.928  10.983
69932W        W33876  20.254   0.433   3.231
69933W        W33877  13.184   3.951   2.404
69934W        W33878  15.619   1.941   0.470
69935W        W33879   5.800  38.064   1.344
69936W        W33880   3.939   6.219   3.831
69937W        W33881  10.800   9.778  12.518
69938W        W33882  25.044  40.397  11.873
69939W        W33883  19.681  11.359  11.066
69940W        W33884  25.543  10.365   3.360
69941W        W33885  17.071  28.641  13.968
69942W        W33886   7.874   9.776   4.122
69943W        W33887   5.409  35.396  10.488
69944W        W33888  18.627  22.730   4.153
69945W        W33889  13.608  23.557   3.264
69946W        W33890  17.112  15.238  13.013
69947W        W33891  12.669  36.015   0.777
69948W        W33892  10.253   1.244   3.724
69949W        W33893   1.257  21.135   1.755
69950W        W33894  14.204  26.143   4.122
69951W        W33895  21.553  32.984   0.419
69952W        W33896  29.573  22.245   4.628
69953W        W33897  33.599   2.834   1.767
69954W        W33898   0.417  22.665   4.276
69955W        W33899  29.429  23.498   0.815
69956W        W33900  27.090  16.208  10.133
69957W        W33901  33.542  29.081   4.210
69958W        W33902   9.187   3.742  13.380
69959W        W33903  34.938  29.658  14.902
69960W        W33904   6.343  38.471   0.858
69961W        W33905  17.077   9.261  11.433
69962W        W33906  17.647  32.398   5.733
69963W        W33907  17.142  33.049   3.309
69964W        W33908  42.490   3.769  13.861
69965W        W33909  43.797  24.030  12.025
69966W        W33910  33.486   3.866   3.781
69967W        W33911  40.806  24.978   1.435
69968W        W33912   1.861  28.033   2.699
69969W        W33913  17.665   6.225   9.606
69970W        W33914  28.012  19.722  13.982
69971W        W33915   4.880  21.541   2.672
69972W        W33916   3.334  22.038   0.941
69973W        W33917  10.724   1.871  10.073
69974W        W33918  44.399  12.158  10.994
69975W        W33919   4.308  25.534  11.029
69976W        W33920  30.927  21.034   4.268
69977W        W33921  14.734  19.778  12.924
69978W        W33922  40.942  20.658   2.287
69979W        W33923  44.962  14.595  12.966
69980W        W33924  39.362  23.560   3.654
69981W        W33925  33.117  23.588   1.214
69982W        W33926  35.408  14.265  10.405
69983W        W33927   0.966  37.564   0.298
69984W        W33928  12.277  27.530   2.186
69985W        W33929  13.200  44.369   0.352
69986W        W33930  18.095  42.519   3.244
69987W        W33931   8.786  38.570  13.951
69988W        W33932   4.748  11.271  10.966
69989W        W33933  21.547  19.740  14.007
69990W        W33934  16.246  25.979   4.285
69991W        W33935  30.136   6.322   1.772
69992W        W33936  20.614  30.145   2.793
69993W        W33937   5.695  25.625   2.395
69994W        W33938   3.809  29.041   4.330
69995W        W33939  31.426   7.399   0.263
69996W        W33940   4.767  13.802   1.283
69997W        W33941  15.145   1.935  13.455
69998W        W33942  21.683  14.219   2.727
69999W        W33943  34.985  23.147  10.430
70000W        W33944  22.031  26.085   2.257
70001W        W33945  41.330  25.562  13.924
70002W        W33946   4.891  37.850  14.846
70003W        W33947  34.953  14.678   2.364
70004W        W33948  37.525   8.783  14.889
70005W        W33949   8.866  35.413   0.264
70006W        W33950   0.792  17.620  11.953
70007W        W33951  24.582  26.011   2.847
70008W        W33952  36.399  41.304  10.012
70009W        W33953  29.452  28.596  10.583
70010W        W33954  11.260  26.181  12.061
70011W        W33955  24.542  35.390  13.377
70012W        W33956  36.374  23.212   2.382
70013W        W33957  20.692  21.582   3.255
70014W        W33958  16.221  41.453   0.832
70015W        W33959  41.984  20.681   3.242
70016W        W33960  33.557  30.997   3.362
70017W        W33961  26.955  40.528  13.809
70018W        W33962   8.788  41.491  10.645
70019W        W33963  37.499  21.202   1.407
70020W        W33964  18.097  24.480  12.982
70021W        W33965  12.133  28.513   2.884
70022W        W33966   9.737  36.065   3.228
70023W        W33967   7.222  34.104  11.996
70024W        W33968  36.423   1.463  11.045
70025W        W33969  18.613  13.198   2.689
70026W        W33970   8.797   7.807   1.296
70027W        W33971  37.349  40.390   5.203
70028W        W33972  10.877  10.870  14.282
70029W        W33973  23.019  22.045  11.111
70030W        W33974  32.027  20.216  14.303
70031W        W33975  36.007   6.207   4.258
70032W        W33976  27.446  36.911   0.945
70033W        W33977  29.432  34.960  14.836
70034W        W33978  35.501  10.745   4.687
70035W        W33979  40.028  16.809  10.923
70036W        W33980  44.443   3.418   1.334
70037W        W33981   8.713   8.163   4.185
70038W        W33982   4.209  21.238  14.476
70039W        W33983  15.607  23.613  13.488
70040W        W33984  36.546   2.773  11.939
70041W        W33985  36.851   4.744   2.710
70042W        W33986   0.862   2.274  14.290
70043W        W33987  28.633   4.405  14.378
70044W        W33988  18.242   7.272  12.997
70045W        W33989   4.784   2.406   1.800
70046W        W33990  17.788  23.683  12.381
70047W        W33991  20.713  31.120  13.029
70048W        W33992   4.867  30.999   4.753
70049W        W33993  28.147  10.820   2.283
70050W        W33994  15.789  19.185  12.978
70051W        W33995  37.496   6.849  14.765
70052W        W33996  36.892  27.948  13.857
70053W        W33997  24.575  34.467  12.848
70054W        W33998  30.929   5.729  13.916
70055W        W33999  29.444   9.835  11.055
70056W        W34000  13.630  37.966   3.289
70057W        W34001  39.337  27.059   1.335
70058W        W34002  27.568  40.830  13.324
70059W        W34003  36.949  30.553   0.247
70060W        W34004  31.463   8.341   0.305
70061W        W34005  10.823  19.187  11.110
70062W        W34006  43.325  33.953   0.942
70063W        W34007  24.111  29.163   0.251
70064W        W34008  16.271  31.021   5.124
70065W        W34009  31.999  42.402   1.292
70066W        W34010  31.029  23.684  14.894
70067W        W34011  39.313  31.902   1.271
70068W        W34012   3.783   7.765  11.927
70069W        W34013  10.336  44.283  11.074
70070W        W34014   2.233  30.575  11.444
70071W        W34015  41.854  15.237  12.571
70072W        W34016  26.480  35.106   0.837
70073W        W34017  16.144  33.517   1.722
70074W        W34018  44.454  29.941  13.962
70075W        W34019  44.863  38.522  12.962
70076W        W34020  23.675   2.787   0.379
70077W        W34021   8.251  27.942   3.177
70078W        W34022   0.474   8.839   5.143
70079W        W34023   9.308  23.655  11.578
70080W        W34024   0.297  35.038   1.450
70081W        W34025   8.857  13.794  14.482
70082W        W34026  33.897   8.298   0.435
70083W        W34027  33.401  22.103  11.468
70084W        W34028   1.908  19.631   1.247
70085W        W34029  32.505  42.310  10.976
70086W        W34030  35.988  33.102  14.413
70087W        W34031  41.927  29.987   1.310
70088W        W34032  35.451   9.709   1.218
70089W        W34033  25.187   6.889  14.874
70090W        W34034  40.379  26.664  12.513
70091W        W34035  18.294  20.083   2.693
70092W        W34036  26.655  33.397  14.512
70093W        W34037  34.995   8.709   0.338
70094W        W34038  22.664  36.557  12.963
70095W        W34039   5.922   9.772  10.455
70096W        W34040  11.653  22.570   3.811
70097W        W34041  33.999  36.881   1.842
70098W        W34042  17.682  26.550  10.618
70099W        W34043  29.465   8.367  12.417
70100W        W34044  41.339  39.450   4.155
70101W        W34045   6.746  39.435   2.364
70102W        W34046  14.752   1.771   0.874
70103W        W34047  13.168  22.575  11.959
70104W        W34048  13.726  35.403  11.481
70105W        W34049  37.413  11.259   4.118
70106W        W34050  35.979   2.837  10.004
70107W        W34051  26.069  11.811   1.350
70108W        W34052   2.314   7.684  11.446
70109W        W34053   1.468  22.567   4.705
70110W        W34054  22.638  13.155  10.941
70111W        W34055   5.705  23.556   1.731
70112W        W34056  38.034   5.798   1.815
70113W        W34057  35.895   2.734   0.358
70114W        W34058  13.213   5.248   1.278
70115W        W34059  38.570   4.733   0.955
70116W        W34060  29.945  40.357   4.125
70117W        W34061   1.259  32.560   4.683
70118W        W34062  18.732  29.941  13.414
70119W        W34063   4.252  16.607  13.853
70120W        W34064   3.384  24.680  13.924
70121W        W34065  21.611   7.704   2.376
70122W        W34066  31.907  25.198   2.184
70123W        W34067  40.505  32.097   9.949
70124W        W34068  13.113  17.622   3.217
70125W        W34069   1.423  20.269  14.839
70126W        W34070  38.042  12.314  10.422
70127W        W34071  20.240  44.500  10.534
70128W        W34072  19.121  27.986   2.721
70129W        W34073  10.201  36.878   3.698
70130W        W34074  16.279  29.996  14.965
70131W        W34075   7.332  28.939   3.807
70132W        W34076  32.507  43.004  11.931
70133W        W34077  15.728  26.168  10.111
70134W        W34078  12.281  41.922  14.905
70135W        W34079   7.231   9.241  14.448
70136W        W34080   9.250  10.737   2.385
70137W        W34081  36.969   5.808  10.561
70138W        W34082  40.054  43.375   0.247
70139W        W34083  38.427  15.782   1.755
70140W        W34084  18.770   6.286  11.392
70141W        W34085  13.139  10.776  10.920
70142W        W34086  30.424  21.727  11.564
70143W        W34087  23.672   8.785  14.498
70144W        W34088  38.848   9.355   4.222
70145W        W34089   9.822  13.621   0.842
70146W        W34090  37.445  17.069  14.810
70147W        W34091  24.989   5.281   4.750
70148W        W34092  21.246  40.473   4.121
70149W        W34093  29.028  39.537   5.666
70150W        W34094  36.937   6.767  10.630
70151W        W34095   5.273   8.657   2.693
70152W        W34096  15.203   5.422  11.972
70153W        W34097  20.048  16.727   1.351
70154W        W34098  17.668  33.895   5.100
70155W        W34099  39.842   4.872  11.566
70156W        W34100  30.946  38.510   1.752
70157W        W34101  34.079  26.180   1.728
70158W        W34102   9.879   5.206   1.907
70159W        W34103  32.080  22.007   2.208
70160W        W34104  25.212  10.260  14.416
70161W        W34105  19.084  30.160  12.079
70162W        W34106  28.997  18.583   4.241
70163W        W34107  15.296  37.411  10.434
70164W        W34108  41.891  29.086   2.867
70165W        W34109   3.255   6.275  14.825
70166W        W34110  14.800  38.895   1.778
70167W        W34111   9.241  19.083  10.483
70168W        W34112  32.518  32.526  13.452
70169W        W34113  12.242  28.641   3.369
70170W        W34114  37.479   2.759  11.124
70171W        W34115  25.183  43.306   3.155
70172W        W34116  28.929   7.282   0.758
70173W        W34117  44.287  12.343  13.059
70174W        W34118  24.682   9.834   0.306
70175W        W34119  32.885  36.074  11.123
70176W        W34120  27.499  10.787  14.812
70177W        W34121  24.695  38.017  14.510
70178W        W34122  17.177  29.577  11.864
70179W        W34123  39.846   1.433  12.529
70180W        W34124  30.093  31.426  10.581
70181W        W34125  36.459  43.365   4.206
70182W        W34126  43.318   7.677  14.939
70183W        W34127  16.688   3.230   5.128
70184W        W34128   5.867   0.447   2.896
70185W        W34129  24.617  25.040  10.491
70186W        W34130   4.320  35.027   3.755
70187W        W34131  18.753  11.652   5.298
70188W        W34132  27.139  28.014   4.677
70189W        W34133  37.986  41.809  12.546
70190W        W34134  41.392   1.867  14.402
70191W        W34135  28.594  37.021  14.821
70192W        W34136  25.142  11.134   3.870
70193W        W34137  25.494  43.884  11.491
70194W        W34138  32.055   6.363  13.934
70195W        W34139  41.972   2.780  13.546
70196W        W34140   5.716  19.711   3.268
70197W        W34141   0.946  43.495   1.840
70198W        W34142  40.493  41.352   1.429
70199W        W34143  16.148  31.059  14.783
70200W        W34144  32.593  24.007   4.732
70201W        W34145  23.591  31.915   0.792
70202W        W34146   9.713   6.343   2.787
70203W        W34147   0.321  20.152   4.607
70204W        W34148  16.221   8.708   0.741
70205W        W34149  32.531  24.007   4.211
70206W        W34150  10.339  40.964  12.923
70207W        W34151  32.885  31.026   0.868
70208W        W34152  26.602  34.875   2.700
70209W        W34153  13.800  19.254   1.720
70210W        W34154  44.318  29.056  14.898
70211W        W34155  26.973   9.395  14.430
70212W        W34156   9.215  20.167   2.197
70213W        W34157  22.160  31.907  14.898
70214W        W34158  43.993  20.754  13.848
70215W        W34159   2.453  20.685   4.324
70216W        W34160  41.301  32.906  11.879
70217W        W34161   2.808   7.730  11.096
70218W        W34162  22.737  44.000  14.850
70219W        W34163  24.142  25.640   1.333
70220W        W34164  21.557  11.855   3.668
70221W        W34165  21.534  14.600  10.610
70222W        W34166  43.977  32.608  11.392
70223W        W34167  33.488  14.679   3.235
70224W        W34168  32.009   4.304   4.226
70225W        W34169  23.135   2.308  13.530
70226W        W34170   0.779  19.776  12.870
70227W        W34171  15.680   8.358   0.926
70228W        W34172  43.514  29.968   0.387
70229W        W34173  15.738  16.288  12.550
70230W        W34174   4.406  40.837  14.963
70231W        W34175  39.426  33.940   3.828
70232W        W34176  44.762  25.525   3.197
70233W        W34177  35.464   9.351   3.317
70234W        W34178  17.103   6.297   0.926
70235W        W34179  33.879  14.157   0.455
70236W        W34180   3.351   4.716   4.753
70237W        W34181  30.483  12.176   0.930
70238W        W34182  32.114  10.695  10.623
70239W        W34183  16.283  32.074   0.322
70240W        W34184  10.847  13.707  11.601
70241W        W34185  14.172  19.683   4.339
70242W        W34186   2.917  27.129  13.459
70243W        W34187   4.252  18.190  13.444
70244W        W34188  19.162  34.067   3.236
70245W        W34189  36.395   3.423  12.883
70246W        W34190  44.795  29.593  11.070
70247W        W34191  39.491  41.418   1.407
70248W        W34192   8.664  24.035   3.282
70249W        W34193  32.595  41.859  12.850
70250W        W34194  16.584  40.832   2.811
70251W        W34195  22.037  21.044  12.850
70252W        W34196  10.376  39.937  14.341
70253W        W34197  20.074  30.528  13.033
70254W        W34198  20.762  23.637  10.937
70255W        W34199  18.294  36.013  11.443
70256W        W34200  13.278  42.512  11.115
70257W        W34201  11.768  26.647   0.295
70258W        W34202  33.103  40.978   2.381
70259W        W34203  25.588  42.514   0.409
70260W        W34204  25.528   0.250  13.458
70261W        W34205  35.598  22.094  14.499
70262W        W34206  37.411  36.533   2.879
70263W        W34207   2.320  29.586  13.507
70264W        W34208  13.656  18.718   1.304
70265W        W34209   4.448  43.503   0.354
70266W        W34210  29.464  40.513   0.272
70267W        W34211   7.759  14.328  11.540
70268W        W34212  28.069   5.280   2.786
70269W        W34213  29.993   3.769   1.823
70270W        W34214   5.919  29.040  13.376
70271W        W34215  39.397  12.146  11.374
70272W        W34216  12.691  32.014  11.865
70273W        W34217  15.809  43.355   3.754
70274W        W34218   6.246  36.014   5.179
70275W        W34219  40.445   7.777  14.303
70276W        W34220  25.112  10.736  12.340
70277W        W34221  38.364  23.149  12.415
70278W        W34222  38.048  12.812  14.340
70279W        W34223  18.564  41.815   1.357
70280W        W34224  23.646  20.629   4.828
70281W        W34225   5.768  22.098   1.833
70282W        W34226  32.581  16.782  11.896
70283W        W34227  12.853  24.615  11.926
70284W        W34228  34.892  23.495  13.326
70285W        W34229   9.683   2.798  11.582
70286W        W34230  29.529  31.099   1.228
70287W        W34231  20.649  39.529  11.968
70288W        W34232  18.586  32.889   2.404
70289W        W34233  18.767   7.810   1.800
70290W        W34234  15.801  23.670   4.288
70291W        W34235  18.066  38.940   0.333
70292W        W34236  37.943  36.407  13.877
70293W        W34237  21.109  15.681   0.864
70294W        W34238   9.274  18.722  10.950
70295W        W34239  12.682   3.353   3.733
70296W        W34240  29.593  27.055   3.820
70297W        W34241  24.493  36.355  13.542
70298W        W34242  21.169  37.469   5.196
70299W        W34243  34.551  25.143   0.924
70300W        W34244  12.669  28.631   0.380
70301W        W34245  18.720  29.465  10.549
70302W        W34246  12.737   6.270   0.252
70303W        W34247  19.282  22.233  13.465
70304W        W34248  22.010   0.460   3.307
70305W        W34249  25.078   0.470   0.421
70306W        W34250  11.792   6.895  11.380
70307W        W34251  41.412  28.475  13.005
70308W        W34252  14.631   3.247  14.853
70309W        W34253  18.636   9.370   2.302
70310W        W34254   8.788  38.960  11.455
70311W        W34255  10.156  14.206   1.712
70312W        W34256  14.618  38.899  14.783
70313W        W34257  19.556  38.465  14.293
70314W        W34258  44.897  42.846   4.237
70315W        W34259  37.053  20.073   4.636
70316W        W34260  31.025   2.362   3.766
70317W        W34261  17.622  26.090  11.469
70318W        W34262  16.569  27.172   0.252
70319W        W34263  12.294  44.281  12.391
70320W        W34264  25.100  42.310   4.765
70321W        W34265  29.130  37.967   3.202
70322W        W34266  27.604  13.110   1.757
70323W        W34267   1.476   1.939   2.856
70324W        W34268   7.897  28.507   0.741
70325W        W34269  39.349  17.087  11.962
70326W        W34270   5.335  25.061  13.956
70327W        W34271  30.013  32.100  12.493
70328W        W34272  30.145  25.147   3.699
70329W        W34273  39.911   7.902   3.232
70330W        W34274  38.562  11.752   3.855
70331W        W34275  38.388  32.413   0.373
70332W        W34276   6.844  36.856  11.494
70333W        W34277  13.642  17.249   3.673
70334W        W34278  13.651  35.539   3.665
70335W        W34279   1.437  24.712   4.766
70336W        W34280  40.009  20.224  13.323
70337W        W34281   6.406  34.447  13.509
70338W        W34282  39.408  21.113  11.990
70339W        W34283   7.306  30.025   1.419
70340W        W34284  19.600   3.951  14.328
70341W        W34285  10.659   7.329   1.259
70342W        W34286  14.806  44.780  11.984
70343W        W34287  15.317  42.308   0.841
70344W        W34288  29.036  16.185   0.833
70345W        W34289   3.238  29.466   0.314
70346W        W34290  34.405   6.849   2.279
70347W        W34291   9.238  17.707   5.309
70348W        W34292   6.206  28.988  13.830
70349W        W34293  11.163  16.569   1.724
70350W        W34294  33.399  15.754   4.652
70351W        W34295   1.743   3.353  14.851
70352W        W34296  37.888  39.531   3.730
70353W        W34297  20.212   7.219   0.751
70354W        W34298  25.041  10.857   2.416
70355W        W34299  23.156  26.512   3.836
70356W        W34300  13.129  32.433   5.313
70357W        W34301   7.294  21.547   4.292
70358W        W34302   0.420   5.390   0.317
70359W        W34303  20.540  33.534  12.487
70360W        W34304  29.586  35.501  12.934
70361W        W34305  35.892  19.195  10.421
70362W        W34306   4.427   5.888   3.765
70363W        W34307  38.458  36.554  10.441
70364W        W34308  33.096  29.125   3.168
70365W        W34309  27.483  11.653   3.840
70366W        W34310  10.697  14.223  12.420
70367W        W34311  15.169  33.000  13.902
70368W        W34312  25.532   7.670  11.922
70369W        W34313  11.316  21.073  13.977
70370W        W34314  26.168  10.692   1.326
70371W        W34315  43.366  21.209   1.419
70372W        W34316  34.373  10.811   3.281
70373W        W34317   6.187   4.771  10.091
70374W        W34318  16.286   7.776   0.435
70375W        W34319  35.952   1.799  11.397
70376W        W34320  27.673  13.701   3.699
70377W        W34321  34.036  42.308  11.548
70378W        W34322  23.016  39.025  14.375
70379W        W34323   7.699  12.612  13.799
70380W        W34324  16.681   1.409   3.685
70381W        W34325   9.836  28.158  10.575
70382W        W34326  23.721  22.022  13.805
70383W        W34327   5.227  18.129  14.801
70384W        W34328   7.388  38.421   1.215
70385W        W34329   2.325  41.475  11.506
70386W        W34330  28.142   4.927   0.302
70387W        W34331  20.231  44.932  12.481
70388W        W34332  21.063  31.971  14.772
70389W        W34333  35.922  17.150  12.034
70390W        W34334  20.066  21.630  13.947
70391W        W34335  34.885  19.265  14.353
70392W        W34336  31.967  22.532   3.789
70393W        W34337   4.352   6.307   4.209
70394W        W34338  39.934   2.838  14.464
70395W        W34339   8.665   2.406   1.378
70396W        W34340  39.517  42.894  12.501
70397W        W34341  44.401  16.707  11.029
70398W        W34342  37.930   8.261   0.756
70399W        W34343  38.995  12.698  12.861
70400W        W34344  30.621  17.772  14.842
70401W        W34345  24.229  35.924  11.534
70402W        W34346  15.105  18.675   2.255
70403W        W34347  13.105  30.544   5.313
70404W        W34348  42.789  41.958   0.399
70405W        W34349  19.579  17.654  11.524
70406W        W34350  18.759   4.428   1.919
70407W        W34351   6.269  44.974   1.924
70408W        W34352  17.242  31.547   2.370
70409W        W34353  18.197  14.281   4.232
70410W        W34354   1.783  39.357   3.306
70411W        W34355  26.690  23.523  11.011
70412W        W34356   7.174  36.053   4.802
70413W        W34357  41.462   5.351  14.805
70414W        W34358  35.947   2.331   3.294
70415W        W34359  21.528  35.947   0.764
70416W        W34360  44.799  37.476   1.362
70417W        W34361  30.575  30.594  12.007
70418W        W34362  21.227   1.476   3.233
70419W        W34363  41.526  36.563   3.305
70420W        W34364  42.371   5.245  13.341
70421W        W34365  30.925  10.678   3.678
70422W        W34366  32.567   1.248  14.901
70423W        W34367  23.654  26.477   4.628
70424W        W34368  28.485   2.294   4.292
70425W        W34369  33.105  31.154  12.899
70426W        W34370   5.341  11.253   1.779
70427W        W34371  41.367  15.641   4.823
70428W        W34372  20.709  30.941  11.415
70429W        W34373  42.978  38.017   0.403
70430W        W34374  22.251   4.888   3.808
70431W        W34375  44.919  33.952   1.725
70432W        W34376  32.994  14.763   4.263
70433W        W34377   5.689  13.677  12.580
70434W        W34378  30.139  12.693   2.806
70435W        W34379   7.881  20.676  14.972
70436W        W34380  11.660  35.063   1.763
70437W        W34381  40.417  18.180  13.031
70438W        W34382  27.071  33.975  10.420
70439W        W34383  23.013  17.124   0.794
70440W        W34384  14.334  22.206  11.079
70441W        W34385  17.625  33.456  13.043
70442W        W34386  25.504   9.317   1.277
70443W        W34387  10.343   6.293   3.244
70444W        W34388   2.300  10.876  13.534
70445W        W34389  19.633  23.221  13.006
70446W        W34390  30.050  35.386  13.927
70447W        W34391  42.026  13.750  14.973
70448W        W34392  19.218  25.064  13.494
70449W        W34393   0.347  26.548  12.344
70450W        W34394  14.712  37.912   3.648
70451W        W34395  43.865  18.790   4.284
70452W        W34396  14.270  22.609   5.223
70453W        W34397   2.827  17.704   4.765
70454W        W34398  37.050  36.848  12.943
70455W        W34399  39.818  38.989   2.686
70456W        W34400   1.430  25.493   3.245
70457W        W34401  37.392   9.850  13.488
70458W        W34402  30.607  43.929   2.675
70459W        W34403   5.852  36.567  14.364
70460W        W34404  22.524   3.296   4.123
70461W        W34405  30.418  33.418   3.841
70462W        W34406  19.153  17.693   3.789
70463W        W34407  30.991  11.291   4.695
70464W        W34408  36.357  24.591  10.633
70465W        W34409  38.520  26.160  12.439
70466W        W34410  17.561   0.770  14.023
70467W        W34411  40.819   2.857  13.877
70468W        W34412  32.049  39.358   0.256
70469W        W34413   0.375   0.852   3.342
70470W        W34414  32.551  27.539  13.379
70471W        W34415  41.005  13.121  12.345
70472W        W34416   9.687  37.038   4.164
70473W        W34417   1.436  18.088  13.011
70474W        W34418  32.048  31.151  12.389
70475W        W34419  14.274  37.906  14.483
70476W        W34420  17.182   2.310   1.416
70477W        W34421   0.483  24.102   1.422
70478W        W34422   9.314  21.574   3.810
70479W        W34423  13.610  25.664  11.083
70480W        W34424  36.878   5.709   2.779
70481W        W34425  15.180  32.535   0.764
70482W        W34426   3.269   0.331  11.431
70483W        W34427  14.654  42.354   0.833
70484W        W34428  16.617  41.930  12.962
70485W        W34429  24.669  21.247  11.079
70486W        W34430   3.779   5.252   4.804
70487W        W34431  28.619  11.644  14.504
70488W        W34432  10.712  44.867   2.179
70489W        W34433   0.372  17.615   2.795
70490W        W34434  39.019  18.093  11.544
70491W        W34435  40.417  35.564  14.854
70492W        W34436  10.665  37.978  13.454
70493W        W34437   5.892  44.877  12.502
70494W        W34438  26.461  42.383   4.657
70495W        W34439  26.536  12.275  14.845
70496W        W34440   6.421  21.730   1.300
70497W        W34441  36.089  40.928   2.299
70498W        W34442  28.650  40.409  14.402
70499W        W34443  27.959   9.829   0.278
70500W        W34444  13.674  38.368   2.305
70501W        W34445   8.399  20.139   4.353
70502W        W34446  33.997  16.105   0.435
70503W        W34447   3.742  32.003  12.411
70504W        W34448  27.046  11.274  13.497
70505W        W34449   2.366  19.104   2.853
70506W        W34450   8.239  40.341  14.289
70507W        W34451  40.363   0.273   2.278
70508W        W34452  13.784   9.688  13.850
70509W        W34453  13.633  26.481   1.864
70510W        W34454  34.386  23.515  12.578
70511W        W34455  41.416  10.270   4.335
70512W        W34456  23.128   6.741  13.475
70513W        W34457  34.977  29.030   3.187
70514W        W34458  37.073  15.732   3.166
70515W        W34459  11.798  40.807   4.748
70516W        W34460   1.967  31.135   2.376
70517W        W34461   0.758  36.473   4.191
70518W        W34462  32.941  17.297  14.372
70519W        W34463   5.787  35.030  14.008
70520W        W34464  24.633  26.162   4.223
70521W        W34465  21.177  16.277  14.917
70522W        W34466  22.245  12.850  14.798
70523W        W34467   8.203   7.862  14.337
70524W        W34468  34.418   2.341  14.006
70525W        W34469  12.156   9.257   4.310
70526W        W34470  23.152  28.559   3.662
70527W        W34471   8.693  40.030   1.274
70528W        W34472  22.079  23.729  10.957
70529W        W34473  43.863  24.014   3.739
70530W        W34474  40.451   5.428   2.742
70531W        W34475  32.043  41.899   4.174
70532W        W34476  17.091  27.137  12.992
70533W        W34477  34.404  44.939   4.795
70534W        W34478  32.039   1.824   1.873
70535W        W34479  11.758   6.717  11.076
70536W        W34480  14.280   9.254  10.974
70537W        W34481  14.217  33.507  12.083
70538W        W34482   0.351  42.813   4.197
70539W        W34483  10.155  25.018  13.467
70540W        W34484  36.354   9.271  11.018
70541W        W34485  44.339  40.046   2.757
70542W        W34486  33.880  18.104   1.330
70543W        W34487   2.348  11.160   4.684
70544W        W34488  24.665  15.273  10.503
70545W        W34489  28.118   3.222  12.440
70546W        W34490  12.714   5.362  11.524
70547W        W34491   7.819   5.894   3.635
70548W        W34492  27.583  37.984  11.909
70549W        W34493   2.845  11.141   4.152
70550W        W34494  36.031  34.033   3.680
70551W        W34495  16.304   0.326  12.387
70552W        W34496  36.874  21.159  12.933
70553W        W34497  33.580  34.898  13.338
70554W        W34498  28.065   2.357  10.471
70555W        W34499   6.680  27.991  13.944
70556W        W34500  43.009   9.809  14.290
70557W        W34501  19.063  27.569  12.567
70558W        W34502   0.417  19.688  12.024
70559W        W34503  15.244  22.169  12.536
70560W        W34504  23.048  31.931   2.850
70561W        W34505  40.981  14.717   0.368
70562W        W34506  30.582   4.872   1.695
70563W        W34507  10.306  39.377   1.379
70564W        W34508  44.401   3.327  14.421
70565W        W34509  25.711  32.598  12.034
70566W        W34510  18.086  16.808  12.928
70567W        W34511  16.778  32.001  13.021
70568W        W34512  20.651  18.622  12.000
70569W        W34513  12.254   1.817  13.986
70570W        W34514   6.726  18.655  11.503
70571W        W34515  34.975  22.742   3.170
70572W        W34516   0.287  22.600   2.855
70573W        W34517   6.770  22.206  13.829
70574W        W34518  24.026  17.224   4.766
70575W        W34519  13.281  17.684  11.405
70576W        W34520  38.455  21.103   1.805
70577W        W34521   7.257   2.844   4.171
70578W        W34522  38.553  30.077  10.909
70579W        W34523  21.513  36.481   2.664
70580W        W34524  27.564  38.988   3.253
70581W        W34525  19.710  38.844  14.019
70582W        W34526   0.274  39.341   0.863
70583W        W34527  17.225  43.277  11.124
70584W        W34528  35.910  16.272  14.005
70585W        W34529  21.249   1.758   1.380
70586W        W34530  29.082   4.781  10.450
70587W        W34531   8.344  33.605  11.589
70588W        W34532  11.266  28.119   3.814
70589W        W34533   4.373  23.030  10.625
70590W        W34534  16.743  28.641   4.828
70591W        W34535  14.740   3.461  11.059
70592W        W34536  23.676  31.541  11.052
70593W        W34537  16.167   8.824  14.497
70594W        W34538  36.373  35.869   1.810
70595W        W34539  32.582   8.679  14.360
70596W        W34540  28.652  39.369  10.505
70597W        W34541   2.355  26.533  10.112
70598W        W34542  12.657  29.567   2.709
70599W        W34543  36.859  44.445   0.473
70600W        W34544  17.733  20.602   4.805
70601W        W34545  32.534  11.675  14.463
70602W        W34546  16.813   3.882  13.345
70603W        W34547  42.777  44.995  12.916
70604W        W34548  20.205  10.672   2.686
70605W        W34549  41.309  19.113   1.222
70606W        W34550  36.568  25.116   4.764
70607W        W34551  19.719  24.119   2.273
70608W        W34552   6.703  32.019   2.744
70609W        W34553  38.422  42.468  10.636
70610W        W34554  32.490  39.950  13.842
70611W        W34555  40.030  14.334  14.964
70612W        W34556   3.302  44.292  13.431
70613W        W34557  38.526   2.410   0.783
70614W        W34558  19.733  33.950  11.040
70615W        W34559  42.338  38.987  14.982
70616W        W34560  13.669  37.547  13.329
70617W        W34561  35.025  19.590   3.782
70618W        W34562  38.555   3.430  13.962
70619W        W34563  11.148  25.970  13.035
70620W        W34564  43.336  30.625  14.492
70621W        W34565   8.665  42.356  12.448
70622W        W34566  32.060  41.408  12.828
70623W        W34567  31.563  16.151   4.629
70624W        W34568  41.003  18.576  12.915
70625W        W34569   7.863  21.129  10.539
70626W        W34570  36.379  33.094  14.464
70627W        W34571   4.926  41.357  10.941
70628W        W34572  29.474  25.038  13.836
70629W        W34573   7.281   3.252  11.374
70630W        W34574  42.915   2.905  12.541
70631W        W34575   0.262   5.232  11.105
70632W        W34576   0.301   7.797  13.439
70633W        W34577  25.572  23.040  12.919
70634W        W34578   2.966  19.552   4.299
70635W        W34579  30.451   9.392   3.851
70636W        W34580  16.149  44.319  12.067
70637W        W34581  38.897  16.737  14.419
70638W        W34582  43.310  41.389  14.968
70639W        W34583  32.034  24.031   5.097
70640W        W34584  36.471  28.628  12.384
70641W        W34585  16.276  21.108  13.960
70642W        W34586  18.640  24.666  14.861
70643W        W34587   7.786  26.637  14.419
70644W        W34588  18.784  24.218  12.995
70645W        W34589  30.977  19.078  12.039
70646W        W34590  26.080  38.350  12.073
70647W        W34591  44.840   6.189  13.027
70648W        W34592  31.625  39.908   0.828
70649W        W34593  44.003  15.272  12.580
70650W        W34594  38.978   5.867   5.270
70651W        W34595  36.979  13.689   4.663
70652W        W34596  39.462  19.173  11.049
70653W        W34597  44.764  40.351  12.377
70654W        W34598  24.573   7.201   3.749
70655W        W34599  38.962  21.060   1.277
70656W        W34600  28.126  24.099   0.317
70657W        W34601  19.637  32.446  12.912
70658W        W34602  21.560  20.751   1.818
70659W        W34603   0.383  28.658  11.098
70660W        W34604   3.392  18.088   3.812
70661W        W34605  33.534  20.251   1.787
70662W        W34606  42.904   5.916  13.041
70663W        W34607  36.491  30.653  13.874
70664W        W34608  38.912  18.671  14.950
70665W        W34609  30.563   7.215   4.323
70666W        W34610  41.380   9.248   0.866
70667W        W34611  21.653  17.742  12.914
70668W        W34612  33.094  38.075  12.410
70669W        W34613  36.494   1.884   1.245
70670W        W34614   7.354  19.107  14.415
70671W        W34615  20.252  30.010   0.464
70672W        W34616  23.999   7.701  10.405
70673W        W34617   3.739  16.755  14.467
70674W        W34618  26.521  13.653  14.928
70675W        W34619  14.157  22.534   2.194
70676W        W34620  17.206  27.539   0.421
70677W        W34621  33.907  23.224  11.980
70678W        W34622  21.713   2.925   3.152
70679W        W34623  39.860  32.008   2.726
70680W        W34624  29.995  22.734   4.605
70681W        W34625  36.389  28.526   1.280
70682W        W34626  32.996  15.156   2.774
70683W        W34627  17.643  24.648   0.303
70684W        W34628  23.030   3.732  11.970
70685W        W34629  32.393  15.731  14.346
70686W        W34630   5.855  28.154  10.507
70687W        W34631  13.757  10.319   4.770
70688W        W34632  38.839  27.161   0.870
70689W        W34633  12.803   5.895   3.386
70690W        W34634   2.772   8.380  10.524
70691W        W34635  26.135  34.524  14.503
70692W        W34636  29.031  41.963   3.273
70693W        W34637  27.141  40.526   4.318
70694W        W34638  19.061  25.713   3.755
70695W        W34639  38.824  32.473  12.503
70696W        W34640   4.258  19.067   0.835
70697W        W34641  24.524   4.790  13.434
70698W        W34642  21.075  43.409   1.891
70699W        W34643  15.794  35.949  14.900
70700W        W34644  14.313   2.947  10.610
70701W        W34645  33.507   2.824   0.429
70702W        W34646   4.273   9.880   0.740
70703W        W34647  22.554  43.981   2.826
70704W        W34648  17.613  12.797  10.562
70705W        W34649  12.356  24.714   0.286
70706W        W34650  23.202  25.645   1.212
70707W        W34651  18.616  38.068  11.086
70708W        W34652  40.313  16.080   1.286
70709W        W34653  15.751   8.789   5.799
70710W        W34654  11.247  36.453   2.839
70711W        W34655  43.378  44.388  14.955
70712W        W34656  12.250  31.011   2.380
70713W        W34657  39.028  25.713   0.790
70714W        W34658  37.373  41.849  12.021
70715W        W34659  37.415  42.335   9.956
70716W        W34660  38.865   9.712  14.954
70717W        W34661  20.598  18.639  11.560
70718W        W34662  10.719   2.842  14.861
70719W        W34663  31.071   1.936  11.888
70720W        W34664   9.164  23.649   2.834
70721W        W34665  36.570  20.167  11.565
70722W        W34666  24.228   8.192   0.341
70723W        W34667  30.136  41.929   0.467
70724W        W34668  39.042   7.865  11.084
70725W        W34669  14.190  40.010  14.953
70726W        W34670   8.281  37.558  10.950
70727W        W34671  37.070  24.222   2.309
70728W        W34672  18.124  35.538   0.414
70729W        W34673  42.927  28.537  11.091
70730W        W34674  40.953  34.580   1.828
70731W        W34675  22.653   1.248  11.384
70732W        W34676  26.608  14.337  14.430
70733W        W34677  12.316  36.914  10.956
70734W        W34678  32.464  26.692  13.793
70735W        W34679  12.668  26.650  12.470
70736W        W34680  10.657  14.248   4.788
70737W        W34681  34.048  17.205  11.077
70738W        W34682   9.287  40.523  11.433
70739W        W34683   7.890  10.372  11.984
70740W        W34684  35.078   7.862  11.529
70741W        W34685  17.139   5.271   0.893
70742W        W34686  36.412   1.295  14.788
70743W        W34687   0.743  13.841   2.302
70744W        W34688  39.319  16.119  12.447
70745W        W34689  18.660   8.315  14.342
70746W        W34690  26.115   1.282  12.993
70747W        W34691   6.222  10.731  12.947
70748W        W34692   7.852  26.465   3.655
70749W        W34693   9.272  20.573   0.358
70750W        W34694  43.469   3.234   2.324
70751W        W34695  44.335  38.444  13.876
70752W        W34696  37.438  31.420  11.916
70753W        W34697   7.340  30.061  12.938
70754W        W34698  40.468  25.490  10.927
70755W        W34699  11.306   2.442   3.810
70756W        W34700  22.146   1.856  13.478
70757W        W34701  25.139  22.161  13.817
70758W        W34702  29.049  33.419  13.382
70759W        W34703  39.838   4.425   3.713
70760W        W34704  19.547  36.849   4.271
70761W        W34705  25.170  20.209   4.835
70762W        W34706   5.827  22.056  14.832
70763W        W34707   3.354  15.742   3.281
70764W        W34708  38.446  41.836   0.371
70765W        W34709  12.691  25.090  13.801
70766W        W34710  11.332  26.032  14.865
70767W        W34711  23.131  31.148  14.352
70768W        W34712  30.425   7.171   3.192
70769W        W34713   3.351  20.720   3.314
70770W        W34714  32.091   5.371  14.391
70771W        W34715  40.519   8.371   1.868
70772W        W34716  22.584   4.288  13.396
70773W        W34717  20.078  35.454  13.854
70774W        W34718  35.012  30.991   4.640
70775W        W34719  36.514  37.862   2.179
70776W        W34720   9.883   1.346  13.906
70777W        W34721   1.305  31.492   3.294
70778W        W34722   5.233  40.541  13.012
70779W        W34723   3.342  33.563  10.968
70780W        W34724  20.229  26.520  10.140
70781W        W34725   8.724   7.903   3.348
70782W        W34726  18.698  17.164   9.948
70783W        W34727  17.759  26.586  12.553
70784W        W34728  14.661  18.276   2.833
70785W        W34729   5.437   4.406   2.182
70786W        W34730  29.983  18.057   1.894
70787W        W34731   0.927  26.123  11.409
70788W        W34732  39.466  14.802  13.458
70789W        W34733  43.823   5.230   4.779
70790W        W34734  15.150  40.883   1.412
70791W        W34735   7.863  23.221  12.380
70792W        W34736  25.681  33.406   1.927
70793W        W34737  15.579  23.208  14.342
70794W        W34738  44.879  34.378  12.924
70795W        W34739   9.364  12.782   3.684
70796W        W34740  43.906  44.872  12.079
70797W        W34741  18.731  44.273   4.161
70798W        W34742   7.272  36.500  14.434
70799W        W34743   2.731   7.828   5.271
70800W        W34744  37.056  29.439  14.898
70801W        W34745  22.503   1.742  10.642
70802W        W34746  25.512  35.410  14.857
70803W        W34747  18.115  26.154  12.503
70804W        W34748  36.365  44.427  11.594
70805W        W34749  26.117  22.121   2.815
70806W        W34750  23.163  38.488   4.664
70807W        W34751  42.991  35.945   4.768
70808W        W34752   6.379   5.807  11.930
70809W        W34753   4.778  27.663   2.699
70810W        W34754  13.248  12.668   4.145
70811W        W34755   9.788  26.195   0.918
70812W        W34756  38.899  17.138   0.752
70813W        W34757  14.290  43.371   0.935
70814W        W34758  22.571  42.283  11.083
70815W        W34759  35.004   2.298  14.975
70816W        W34760   2.296  14.734   2.203
70817W        W34761  35.919  21.071   4.131
70818W        W34762  40.544   4.804   3.681
70819W        W34763   6.250  31.464  11.373
70820W        W34764   4.875  37.982   4.330
70821W        W34765  26.204  19.600  10.421
70822W        W34766  12.210  38.436  13.015
70823W        W34767  24.565  34.597   4.728
70824W        W34768  20.566  33.513  13.313
70825W        W34769   1.825  19.285   4.772
70826W        W34770  24.574  39.978   3.837
70827W        W34771   7.754   7.382   1.346
70828W        W34772  15.805  10.375  14.771
70829W        W34773   0.488  13.211  11.937
70830W        W34774  34.505  13.146   3.731
70831W        W34775  39.536  41.026  11.519
70832W        W34776  43.019  10.822   2.738
70833W        W34777  41.889  25.070  11.064
70834W        W34778  20.636  21.688  12.387
70835W        W34779  21.513  20.188  14.923
70836W        W34780   2.867   6.292   3.716
70837W        W34781  34.572  30.032   2.239
70838W        W34782  12.817  37.082  13.493
70839W        W34783  24.127  27.136   1.409
70840W        W34784  13.800  16.078   2.728
70841W        W34785  18.201  16.193   3.854
70842W        W34786   3.321  41.470   3.318
70843W        W34787  33.395  19.615  12.948
70844W        W34788  43.342  17.205  14.476
70845W        W34789  17.142   9.278   2.308
70846W        W34790   2.295  24.127  14.975
70847W        W34791  20.059  27.979   0.273
70848W        W34792   2.467  11.289   2.293
70849W        W34793  17.668  22.099   0.782
70850W        W34794   7.890  33.890   0.349
70851W        W34795  30.146  11.690   4.302
70852W        W34796  27.527  36.948   2.684
70853W        W34797  11.658  39.952   1.902
70854W        W34798  32.436  41.476   0.767
70855W        W34799  44.754  31.989  12.932
70856W        W34800   0.779   3.328  10.920
70857W        W34801  10.692  12.614  12.024
70858W        W34802  32.061  27.008   1.758
70859W        W34803  27.061   5.763  10.509
70860W        W34804  12.782   6.739  10.606
70861W        W34805  32.398  11.174   0.312
70862W        W34806   0.939   6.260   3.353
70863W        W34807  32.538  18.110  12.493
70864W        W34808  13.349  11.624  13.950
70865W        W34809  40.320  34.411   1.757
70866W        W34810  12.780  16.622  14.885
70867W        W34811   1.261  36.081   2.320
70868W        W34812  12.116  32.575  13.816
70869W        W34813   5.797  17.173   1.795
70870W        W34814  22.716  18.623   3.264
70871W        W34815  18.573   5.879  11.374
70872W        W34816  30.916  42.396   2.741
70873W        W34817  15.579  22.196   0.297
70874W        W34818  40.959  33.887   3.689
70875W        W34819  20.577  38.530  14.918
70876W        W34820  17.125  20.208  13.890
70877W        W34821  14.677  35.560   0.250
70878W        W34822  37.516  26.091  11.870
70879W        W34823  41.846  10.648   3.650
70880W        W34824  33.578  21.612   0.246
70881W        W34825  35.505   8.397  14.968
70882W        W34826   5.697   1.843  11.406
70883W        W34827  40.311  40.872   2.319
70884W        W34828   2.424  36.953  13.028
70885W        W34829  18.727  43.291  12.549
70886W        W34830  34.948   4.288  14.429
70887W        W34831  36.052  17.079  10.599
70888W        W34832  44.285  39.872   2.224
70889W        W34833  24.712  40.502  14.936
70890W        W34834  40.936  23.137   1.292
70891W        W34835  15.195   2.437  11.957
70892W        W34836  25.580  43.285   3.636
70893W        W34837  30.120  31.448  12.515
70894W        W34838  25.472  23.210   2.861
70895W        W34839  27.600   9.352  12.915
70896W        W34840   5.925  13.232  12.369
70897W        W34841  14.719  37.992   4.811
70898W        W34842  36.855  33.525   3.657
70899W        W34843  11.354  24.998   3.187
70900W        W34844  38.864  30.059   0.776
70901W        W34845  35.911  15.209  10.565
70902W        W34846  20.652   8.230  13.391
70903W        W34847  12.732  36.573   1.379
70904W        W34848  18.612  17.249  14.412
70905W        W34849  16.768  41.518  12.914
70906W        W34850  14.337  12.193   0.367
70907W        W34851  33.000  21.667   4.774
70908W        W34852  19.186   7.294   0.774
70909W        W34853  11.256  32.896   4.349
70910W        W34854  20.711  41.510   4.166
70911W        W34855  20.546   0.818   2.726
70912W        W34856  29.565  38.910   0.268
70913W        W34857   3.443  11.204  10.894
70914W        W34858  19.735   6.703  11.878
70915W        W34859  27.499  35.070  14.415
70916W        W34860  21.627   9.303  12.439
70917W        W34861   8.895  17.078   3.800
70918W        W34862   1.899  25.482   0.253
70919W        W34863  34.555  30.989   3.219
70920W        W34864   3.760  19.584  12.506
70921W        W34865  10.193  34.614  11.596
70922W        W34866  33.944   7.812  13.364
70923W        W34867  42.828  12.725   4.806
70924W        W34868  19.654  36.370   2.320
70925W        W34869  28.171  33.905  14.506
70926W        W34870  39.993  27.043  13.892
70927W        W34871   3.388  36.466  10.974
70928W        W34872  17.115  11.834  13.315
70929W        W34873   6.352  43.884  14.856
70930W        W34874  34.416  30.135  14.914
70931W        W34875   9.312  42.991   4.705
70932W        W34876  11.227  21.153   1.705
70933W        W34877  41.993  34.002  12.977
70934W        W34878  44.376  13.679   5.197
70935W        W34879  21.674  38.523   4.187
70936W        W34880  12.629   4.279   0.333
70937W        W34881  18.659  17.278  13.526
70938W        W34882   4.920   2.370  13.522
70939W        W34883   5.902  11.209  12.365
70940W        W34884   2.946  29.138  10.644
70941W        W34885   6.258   6.275   3.691
70942W        W34886  26.646   2.865   3.365
70943W        W34887   5.210  37.576   0.290
70944W        W34888  10.172   3.306   4.199
70945W        W34889  27.541  30.577   1.411
70946W        W34890  22.502  22.017  14.802
70947W        W34891  22.062  12.142   1.824
70948W        W34892  36.922   5.316  11.023
70949W        W34893  43.779  17.748  11.866
70950W        W34894  38.512  44.873  12.025
70951W        W34895  25.691  14.633   0.954
70952W        W34896  16.768  19.664  10.618
70953W        W34897  11.816  19.138  13.422
70954W        W34898   6.263  19.236  13.326
70955W        W34899  37.946  44.789  14.377
70956W        W34900  15.705   2.937   9.621
70957W        W34901  44.331  43.324  12.541
70958W        W34902   3.796  12.252  11.420
70959W        W34903  26.643  15.316   0.727
70960W        W34904   7.364  28.099  14.005
70961W        W34905  44.942  18.553   4.637
70962W        W34906  40.525  32.098  13.533
70963W        W34907  29.624  24.625  14.302
70964W        W34908  38.444   7.826   1.848
70965W        W34909  38.041   2.791  11.869
70966W        W34910  13.216  41.984   3.193
70967W        W34911   1.309  18.613   2.284
70968W        W34912  27.595  26.988   0.795
70969W        W34913  13.617  39.039  13.312
70970W        W34914  13.742  16.136   0.876
70971W        W34915  37.473  41.954   1.723
70972W        W34916  44.836  28.085   0.410
70973W        W34917   7.170  17.218   1.292
70974W        W34918  17.766  24.573  11.061
70975W        W34919   5.204  34.927  10.446
70976W        W34920  20.031  39.375  12.893
70977W        W34921  32.518  25.969   1.738
70978W        W34922  21.106   9.390   3.382
70979W        W34923  12.681  28.513  11.067
70980W        W34924  41.520   0.332   4.794
70981W        W34925  27.126  31.978   1.370
70982W        W34926  43.385  40.870  14.504
70983W        W34927  18.277  14.744   1.850
70984W        W34928  12.239   1.335  11.863
70985W        W34929  19.226  39.016  14.884
70986W        W34930  44.433   8.323  11.050
70987W        W34931  39.980  29.654  10.577
70988W        W34932  33.956   7.286  13.975
70989W        W34933  35.379  41.376   1.797
70990W        W34934   1.278   4.433  11.024
70991W        W34935   5.893  41.427   2.827
70992W        W34936   6.347  25.498  11.060
70993W        W34937  29.061   0.382  11.061
70994W        W34938   7.358  38.514   4.132
70995W        W34939   2.744  34.966  10.408
70996W        W34940  44.299  18.171   2.233
70997W        W34941  35.031  40.053  11.021
70998W        W34942  22.705  11.228  13.886
70999W        W34943   8.690  11.828   3.801
71000W        W34944   2.961  12.308   1.700
71001W        W34945  17.669  38.451   2.886
71002W        W34946  35.446  33.946  11.097
71003W        W34947  28.497  33.490  10.519
71004W        W34948  43.778  10.165   0.245
71005W        W34949  17.588  19.185   2.273
71006W        W34950  35.391  15.327  13.989
71007W        W34951  19.163   7.806   3.257
71008W        W34952  32.973   5.303  11.456
71009W        W34953   4.213  10.799   0.826
71010W        W34954  20.047  20.576   0.868
71011W        W34955  10.327  16.286   0.481
71012W        W34956  29.546   0.316   0.474
71013W        W34957  43.274  26.183  14.318
71014W        W34958  34.937  11.360  13.367
71015W        W34959  33.617  23.695  14.285
71016W        W34960  31.599  12.186  11.886
71017W        W34961   0.300  15.326   0.445
71018W        W34962  11.836  26.018   4.285
71019W        W34963  23.183  11.172  14.506
71020W        W34964   0.958  11.671  10.945
71021W        W34965  21.567  25.534  10.596
71022W        W34966  15.315  16.171   2.380
71023W        W34967  42.495  12.297   0.794
71024W        W34968  15.089  34.603  14.335
71025W        W34969  40.515   2.766  13.866
71026W        W34970   4.224  43.889  12.466
71027W        W34971   5.738   6.742   1.390
71028W        W34972  32.889   2.867  13.992
71029W        W34973  25.974  18.642   5.123
71030W        W34974  11.224  30.640  13.308
71031W        W34975  35.575  37.901  10.900
71032W        W34976  15.606  17.201  11.495
71033W        W34977   7.810  31.898   0.342
71034W        W34978  30.070  33.563  12.449
71035W        W34979  38.074  22.690  12.470
71036W        W34980  39.395  31.521  14.321
71037W        W34981  29.437  13.312  11.927
71038W        W34982  35.448  34.945  12.347
71039W        W34983  26.070   4.930   4.196
71040W        W34984  12.144  30.563   0.865
71041W        W34985  41.807  20.585   3.798
71042W        W34986   0.286  33.070   3.648
71043W        W34987  16.674  33.031   3.764
71044W        W34988   3.744  16.194  11.573
71045W        W34989  25.203  38.417  10.421
71046W        W34990  39.021  42.323  12.010
71047W        W34991   3.760  33.439   3.681
71048W        W34992  18.232  24.115  12.882
71049W        W34993  16.575  15.193  13.885
71050W        W34994  22.013  37.558   2.766
71051W        W34995  32.564  41.005   0.328
71052W        W34996  21.613  40.825   2.672
71053W        W34997  16.778  44.398  14.476
71054W        W34998   5.724  10.685   3.857
71055W        W34999  12.688  37.965   1.833
71056W        W35000  14.211   3.868   1.892
71057W        W35001  16.729   4.270  11.936
71058W        W35002  26.464  39.424  14.923
71059W        W35003   2.266  36.480   0.900
71060W        W35004  22.632  27.125   3.759
71061W        W35005  29.595  43.963   2.196
71062W        W35006   1.968  20.254  11.468
71063W        W35007  16.263  37.889  12.899
71064W        W35008  42.336  18.601  12.355
71065W        W35009  16.159   2.368   1.315
71066W        W35010  29.175  14.610  11.418
71067W        W35011  42.488  24.588   2.812
71068W        W35012   1.310  40.469   3.722
71069W        W35013   5.855  34.998  12.435
71070W        W35014  39.050  10.160  12.011
71071W        W35015  10.267  10.229   3.279
71072W        W35016   6.225  13.640  12.455
71073W        W35017  28.111  27.070  12.982
71074W        W35018  42.801  16.718   3.702
71075W        W35019  43.487  28.595  11.519
71076W        W35020   3.824  29.095  10.933
71077W        W35021  36.098   6.722   4.186
71078W        W35022   6.729   3.394   5.264
71079W        W35023  35.923  29.005   4.755
71080W        W35024  44.373  23.588   4.692
71081W        W35025   7.892  12.680  14.435
71082W        W35026  17.801  23.540  12.883
71083W        W35027  21.259   4.383  14.830
71084W        W35028  38.560  33.983   3.306
71085W        W35029  24.050  16.724  11.075
71086W        W35030  38.036   7.370   4.651
71087W        W35031  19.080  21.102   2.868
71088W        W35032  32.106   4.700  10.581
71089W        W35033  27.113  23.641   2.361
71090W        W35034  35.395   6.246  14.008
71091W        W35035   4.905  19.154   0.856
71092W        W35036  30.927   4.401   1.885
71093W        W35037   6.889  18.069  10.067
71094W        W35038  11.364  36.936  13.478
71095W        W35039   8.886  27.663  14.954
71096W        W35040  10.862  22.679   0.824
71097W        W35041  32.992  22.551  14.457
71098W        W35042  37.356  40.424  11.076
71099W        W35043  43.916  40.020  12.452
71100W        W35044   9.759  27.088  12.355
71101W        W35045  10.360  36.014   4.237
71102W        W35046  36.358  27.157   2.748
71103W        W35047  11.791  34.904  13.437
71104W        W35048  32.895  24.143  11.905
71105W        W35049  15.664   3.755   1.912
71106W        W35050  10.673  31.071   1.903
71107W        W35051  40.471  36.498  10.902
71108W        W35052  38.040  39.434  13.422
71109W        W35053  20.739  15.794  10.915
71110W        W35054  41.838  34.508  13.888
71111W        W35055  31.491  23.047  11.881
71112W        W35056  16.142  15.812   3.213
71113W        W35057  29.497   1.746  14.812
71114W        W35058  13.841   5.389  14.833
71115W        W35059   8.268  15.694  14.897
71116W        W35060  21.220   9.394  13.338
71117W        W35061  16.806   2.939  11.951
71118W        W35062  34.578  23.697  11.471
71119W        W35063  28.491  34.118  14.944
71120W        W35064   3.801  28.014  12.387
71121W        W35065  29.151   8.781  13.845
71122W        W35066  10.138  40.409  10.588
71123W        W35067  26.099   5.394   4.272
71124W        W35068  11.650   5.244  12.461
71125W        W35069   8.288  25.098  14.851
71126W        W35070  20.196  10.287  10.950
71127W        W35071   6.354   1.749  13.978
71128W        W35072   0.393  39.437   2.371
71129W        W35073  39.929   2.771  11.097
71130W        W35074  12.749  25.183  10.460
71131W        W35075  32.619  29.511  12.895
71132W        W35076   8.684   2.868  14.808
71133W        W35077  27.185  16.204  14.485
71134W        W35078  42.982   4.842   3.243
71135W        W35079   1.832  21.105   2.336
71136W        W35080   2.750   4.936   2.276
71137W        W35081   1.753  27.637  13.981
71138W        W35082   7.887   0.384   1.444
71139W        W35083  12.332  10.174  11.972
71140W        W35084  21.704  36.075  14.867
71141W        W35085  19.104  40.929  10.558
71142W        W35086  21.667  39.964   1.877
71143W        W35087  22.226  31.426  13.403
71144W        W35088  33.070  16.709  12.501
71145W        W35089   0.969  23.106   3.838
71146W        W35090  40.973  16.199  13.801
71147W        W35091  13.738  13.717  14.833
71148W        W35092  33.436  35.104   0.817
71149W        W35093  19.559  29.119   3.719
71150W        W35094  10.262  41.949   2.233
71151W        W35095  31.008  18.582   3.182
71152W        W35096   4.352   1.885   0.890
71153W        W35097  14.301  33.051   0.252
71154W        W35098   9.220  44.332  11.491
71155W        W35099  41.968   3.739  14.406
71156W        W35100   1.895  37.579   1.912
71157W        W35101  33.574  33.903  13.329
71158W        W35102  37.548  29.033  10.895
71159W        W35103  38.436   8.673   1.862
71160W        W35104  21.193  21.177  13.796
71161W        W35105  10.876   1.965   4.121
71162W        W35106   8.788  31.590  12.910
71163W        W35107   5.256  31.608  13.035
71164W        W35108  16.139  35.402   1.911
71165W        W35109  14.644  24.988  14.466
71166W        W35110   5.843  14.275  14.976
71167W        W35111  12.214  10.156   1.328
71168W        W35112  28.608  28.165  14.864
71169W        W35113  10.200  42.490  14.460
71170W        W35114  10.737  44.375  11.998
71171W        W35115  12.647  37.067   0.430
71172W        W35116  42.832  10.179  11.869
71173W        W35117  12.809  25.213   2.834
71174W        W35118  16.699   2.904   4.157
71175W        W35119  17.119  23.604  10.960
71176W        W35120  15.703  19.074  10.552
71177W        W35121  40.053  32.061   3.836
71178W        W35122   4.733  30.018  11.889
71179W        W35123  16.776  40.964   0.934
71180W        W35124  22.731  21.520  13.457
71181W        W35125  28.029  21.263   1.430
71182W        W35126  33.394  31.576  12.355
71183W        W35127   1.354  38.030  12.926
71184W        W35128   7.670   7.895   0.889
71185W        W35129  44.794   7.680  12.396
71186W        W35130   3.874  22.080  10.534
71187W        W35131  22.102  10.232   3.806
71188W        W35132  28.986  43.843   4.671
71189W        W35133   3.778  24.060   2.230
71190W        W35134  40.387  35.104  14.917
71191W        W35135  21.689  23.723   5.802
71192W        W35136  12.659  26.529   3.186
71193W        W35137  42.031  14.175  13.836
71194W        W35138  42.979  27.609  12.541
71195W        W35139  44.960  40.438   4.662
71196W        W35140  39.348  10.789   4.763
71197W        W35141   2.353  34.598  11.952
71198W        W35142  18.764  18.647   1.796
71199W        W35143  21.726  35.537  14.939
71200W        W35144  17.290  20.695   1.772
71201W        W35145  43.434   1.442   1.921
71202W        W35146  42.020   4.881   4.763
71203W        W35147  35.563  12.791  12.849
71204W        W35148  38.365  30.592   3.338
71205W        W35149  20.187  32.966  11.425
71206W        W35150  42.292  13.107  14.806
71207W        W35151  17.724  35.561  14.019
71208W        W35152  17.692  12.749   2.670
71209W        W35153  23.992  37.564   0.246
71210W        W35154  29.599  42.329  12.369
71211W        W35155   3.302  35.888   1.792
71212W        W35156  16.718  29.995  12.924
71213W        W35157  39.036  14.602  13.504
71214W        W35158  13.822  23.554  13.906
71215W        W35159  26.497  33.115  13.498
71216W        W35160  38.867  33.992  13.813
71217W        W35161  26.104  13.628  14.808
71218W        W35162   0.377  22.033  13.913
71219W        W35163  35.489  39.929  13.342
71220W        W35164   4.788  24.174   3.646
71221W        W35165  13.686  11.631   0.729
71222W        W35166  32.502  40.362  11.967
71223W        W35167  25.537  14.265  14.455
71224W        W35168  11.670  14.639   1.235
71225W        W35169  13.663  44.402  14.896
71226W        W35170  43.897  27.607   1.760
71227W        W35171  25.613  10.314   1.278
71228W        W35172  42.846  20.712  10.611
71229W        W35173   2.820  11.740   0.269
71230W        W35174  37.013  16.739   1.243
71231W        W35175  11.670  40.857   1.401
71232W        W35176  14.295  11.823   5.310
71233W        W35177  36.913  24.145  14.403
71234W        W35178  18.693  36.911   0.920
71235W        W35179  14.623  17.080  12.996
71236W        W35180  29.084  25.584  14.911
71237W        W35181  14.162  33.942   0.430
71238W        W35182  30.504  33.999   1.341
71239W        W35183  40.405  10.311   0.768
71240W        W35184  20.613   6.901  11.031
71241W        W35185   6.408  27.997  10.605
71242W        W35186  30.164  34.524  11.483
71243W        W35187   2.939  25.577  14.886
71244W        W35188  37.414  13.146   4.692
71245W        W35189  36.852   6.764   0.456
71246W        W35190  32.071  35.589   0.394
71247W        W35191  24.056  38.523  14.926
71248W        W35192   3.247  28.492  13.994
71249W        W35193  39.356  30.477   4.631
71250W        W35194  11.168   7.682   4.119
71251W        W35195  15.645  26.694  10.985
71252W        W35196  27.476  19.154   2.299
71253W        W35197  16.097  15.718  12.502
71254W        W35198  23.522  36.072  12.452
71255W        W35199  11.129  22.042  12.073
71256W        W35200  35.488  41.456  11.391
71257W        W35201  31.137  13.729   2.899
71258W        W35202  43.975  44.293  10.065
71259W        W35203  22.743  12.814  12.480
71260W        W35204  30.123  31.499   3.698
71261W        W35205  35.591  29.096  11.599
71262W        W35206  34.393  22.153   0.913
71263W        W35207  15.322   3.835   9.558
71264W        W35208  41.443   4.763  10.150
71265W        W35209  12.650  21.039  13.429
71266W        W35210  17.784   8.160  10.605
71267W        W35211  39.455  36.002  12.492
71268W        W35212  26.966  20.121  11.522
71269W        W35213  38.936   5.213   2.307
71270W        W35214  31.589  44.440   1.255
71271W        W35215   0.924  11.835  13.342
71272W        W35216   9.746  28.539   3.306
71273W        W35217  18.276  31.501   3.194
71274W        W35218  21.147   6.844  13.007
71275W        W35219  42.371   1.390  10.927
71276W        W35220  38.518   2.319   3.171
71277W        W35221  30.955  38.037   2.684
71278W        W35222  24.140  22.521   0.436
71279W        W35223   4.362   9.206  12.485
71280W        W35224   9.868  31.614  11.532
71281W        W35225  26.659  27.550  13.529
71282W        W35226  10.754   1.415   3.330
71283W        W35227  39.458   9.240   1.892
71284W        W35228  42.865  20.596   3.283
71285W        W35229  11.337  26.614   0.389
71286W        W35230  11.190  29.527  14.807
71287W        W35231  42.348   5.934  11.516
71288W        W35232  44.261  40.011  13.910
71289W        W35233  19.602  17.066  11.123
71290W        W35234   1.931  14.772  12.524
71291W        W35235  13.664  42.982  13.474
71292W        W35236   6.229   9.228  10.570
71293W        W35237  39.355  14.617   3.800
71294W        W35238   6.425   8.733   1.930
71295W        W35239  32.131  42.501   2.282
71296W        W35240  19.151  42.913  13.913
71297W        W35241   0.429   4.396  14.855
71298W        W35242  22.717   5.777   9.938
71299W        W35243   6.326   5.751   3.770
71300W        W35244  39.065  23.077   3.152
71301W        W35245  38.408  14.168   2.188
71302W        W35246  14.249   4.395   4.829
71303W        W35247  44.996  41.981  14.500
71304W        W35248  37.041  23.170  13.353
71305W        W35249  30.945  17.086  14.019
71306W        W35250  27.033  43.983  14.960
71307W        W35251  14.650  13.294   0.772
71308W        W35252  30.476  30.951   2.897
71309W        W35253  22.747  24.080  12.997
71310W        W35254   2.438   6.366   0.940
71311W        W35255   2.745  35.580  11.921
71312W        W35256   8.176  41.519   0.267
71313W        W35257  42.003   2.439  14.874
71314W        W35258  26.464  25.544  14.407
71315W        W35259  26.152  12.346   0.734
71316W        W35260   1.464  14.659  11.519
71317W        W35261  16.807  13.307   0.862
71318W        W35262  15.248  19.265  14.985
71319W        W35263  15.307  27.114  13.411
71320W        W35264  28.449   6.184   1.754
71321W        W35265  19.713  43.926   0.951
71322W        W35266  27.077  19.677  12.909
71323W        W35267  24.009  28.605   3.268
71324W        W35268   2.818   3.936   3.709
71325W        W35269   1.796  15.301   4.326
71326W        W35270  18.148   0.345  12.896
71327W        W35271  21.683   9.304   0.837
71328W        W35272  28.082  21.672  11.954
71329W        W35273   5.689  34.383   3.736
71330W        W35274  22.179   2.904  13.394
71331W        W35275  27.487  29.626   0.304
71332W        W35276  36.026  27.542  11.611
71333W        W35277  36.864  20.220  13.508
71334W        W35278  36.869  31.418  11.868
71335W        W35279  17.243  17.262   2.668
71336W        W35280  32.496   7.351  10.933
71337W        W35281  44.979   7.719   0.294
71338W        W35282  10.875   4.311  11.580
71339W        W35283  23.649   9.788  12.984
71340W        W35284  32.418   7.750  12.515
71341W        W35285  10.146  42.919  12.439
71342W        W35286  32.999   0.304  11.056
71343W        W35287  23.129  24.198   4.114
71344W        W35288  39.523   8.325   4.134
71345W        W35289  22.725   1.807   0.257
71346W        W35290  28.482  37.052  12.434
71347W        W35291  13.196   5.399   3.805
71348W        W35292  12.731  35.008  12.878
71349W        W35293  36.407  38.887  12.049
71350W        W35294  21.681  12.752   3.340
71351W        W35295  35.104   4.316   0.389
71352W        W35296   5.236  41.342  12.357
71353W        W35297  17.198  40.460  12.559
71354W        W35298  32.479  31.403   1.276
71355W        W35299   2.753   2.267   0.476
71356W        W35300  15.274  14.216  12.365
71357W        W35301  37.388  37.875  13.488
71358W        W35302  29.589  36.914   4.315
71359W        W35303  22.574  14.771   0.451
71360W        W35304  29.004  24.024   4.176
71361W        W35305  34.546  11.252  13.388
71362W        W35306  25.021  21.756  10.434
71363W        W35307   5.881  39.910  13.528
71364W        W35308  30.552   8.181   0.308
71365W        W35309  11.678  11.766   2.689
71366W        W35310  31.450  36.507  11.091
71367W        W35311   3.742  28.634  12.922
71368W        W35312  21.562   8.657   2.718
71369W        W35313  38.933   3.280   1.920
71370W        W35314  36.519  16.317   0.372
71371W        W35315  43.389  28.663   0.919
71372W        W35316  33.541  33.493  13.382
71373W        W35317   5.429  27.000   1.245
71374W        W35318   3.353  28.483   0.935
71375W        W35319   5.846  16.126   4.148
71376W        W35320  18.654  11.755   2.890
71377W        W35321  34.090  10.283  10.568
71378W        W35322  22.080  40.411   4.708
71379W        W35323  21.078  40.344  12.954
71380W        W35324  29.576  38.519   0.871
71381W        W35325  38.379  33.127   2.792
71382W        W35326   9.721  11.775   3.220
71383W        W35327   8.351  35.024   0.907
71384W        W35328  34.588  41.950  13.380
71385W        W35329  18.101  17.178  12.340
71386W        W35330  13.332  19.056   3.251
71387W        W35331  11.696  19.264   0.318
71388W        W35332  37.834  16.788   0.926
71389W        W35333  30.143  24.027  14.944
71390W        W35334  27.520  37.522   2.844
71391W        W35335  26.043   2.272  12.379
71392W        W35336   9.196   3.855   1.356
71393W        W35337  30.421   6.687   1.215
71394W        W35338  32.436  18.157   0.480
71395W        W35339  38.850  23.637   3.767
71396W        W35340   6.189   5.202   0.464
71397W        W35341  43.008   7.820   0.281
71398W        W35342  11.224  33.451  14.997
71399W        W35343  12.285   1.832  13.472
71400W        W35344  19.161   5.818  11.936
71401W        W35345  31.500  22.011   2.187
71402W        W35346  14.643  38.537  11.527
71403W        W35347  22.126  18.751   0.302
71404W        W35348  13.200  37.894  13.310
71405W        W35349  30.000  22.599   2.675
71406W        W35350  17.656  20.162   4.645
71407W        W35351  30.567   1.824   1.932
71408W        W35352  23.547  27.153  11.008
71409W        W35353   0.341  19.105   0.858
71410W        W35354  33.459   1.314   0.942
71411W        W35355  26.169  27.968  14.378
71412W        W35356  39.501  19.163  10.496
71413W        W35357  40.822   9.199   4.282
71414W        W35358  34.572  33.958  13.895
71415W        W35359  11.856  33.605   4.191
71416W        W35360  24.710  43.316  11.019
71417W        W35361  23.537  20.642  12.005
71418W        W35362  28.567  10.873  10.609
71419W        W35363  28.944  25.635  13.964
71420W        W35364  31.111  15.786   1.792
71421W        W35365  28.507   2.296   4.763
71422W        W35366  39.052  10.872   4.672
71423W        W35367  37.502  42.920  12.886
71424W        W35368  22.062  40.498  14.827
71425W        W35369  43.337  13.235   2.854
71426W        W35370  15.589  25.135  14.789
71427W        W35371  14.105   2.823  13.375
71428W        W35372   5.418  26.088  11.000
71429W        W35373   7.178   6.922   0.842
71430W        W35374   2.785  43.972   1.733
71431W        W35375  25.038  30.071   4.602
71432W        W35376  28.629  26.989   2.783
71433W        W35377  10.164  27.147  11.092
71434W        W35378  23.560  29.027   1.263
71435W        W35379  11.156  14.330  10.576
71436W        W35380   3.745  43.480   3.685
71437W        W35381   9.840  40.870   3.211
71438W        W35382  10.248  41.787  11.928
71439W        W35383  24.206  20.078  14.012
71440W        W35384   5.894  20.610   2.181
71441W        W35385  13.250  12.738   4.774
71442W        W35386  22.598  35.995  11.007
71443W        W35387  20.230  31.419   2.791
71444W        W35388   4.380  25.127   4.797
71445W        W35389  27.507  42.008  14.769
71446W        W35390  13.711  31.586  13.447
71447W        W35391  24.179   4.891  14.841
71448W        W35392  42.336  30.563   0.464
71449W        W35393  37.512  15.255   4.293
71450W        W35394  39.876  33.026   2.268
71451W        W35395  23.222  37.515   1.713
71452W        W35396   3.895  35.387   4.738
71453W        W35397  31.023  21.145   4.751
71454W        W35398  20.122  26.525  11.972
71455W        W35399  16.630  37.935   4.262
71456W        W35400  25.980  16.085  11.423
71457W        W35401  26.521   0.772   1.337
71458W        W35402  28.644   8.871  14.504
71459W        W35403  44.810   1.250  14.494
71460W        W35404  39.896  11.656  14.996
71461W        W35405  15.705  17.238   2.678
71462W        W35406  10.203  19.130  10.583
71463W        W35407  38.839  29.664   1.327
71464W        W35408   8.268  39.417  11.084
71465W        W35409   8.675   8.809   4.254
71466W        W35410  44.806  20.148  12.967
71467W        W35411  25.486   5.926   4.616
71468W        W35412  43.302   2.733  11.986
71469W        W35413  18.697  28.567   4.646
71470W        W35414  34.996  40.475   0.388
71471W        W35415  34.452   3.930   1.707
71472W        W35416  32.606  34.559   1.436
71473W        W35417   8.273  15.325  10.981
71474W        W35418  36.553  13.154  12.411
71475W        W35419  35.512  21.023   1.901
71476W        W35420  34.447  16.573  13.822
71477W        W35421  38.839  29.113   2.729
71478W        W35422   8.887  19.161   0.441
71479W        W35423  41.297  15.757   0.900
71480W        W35424  32.607  24.598   4.800
71481W        W35425  22.609  28.084  13.064
71482W        W35426   3.419  37.573   5.218
71483W        W35427  15.107  39.484   4.827
71484W        W35428  29.932  42.903  13.328
71485W        W35429   1.266  29.057   4.702
71486W        W35430  37.505   0.402  11.529
71487W        W35431  35.364  34.070  11.548
71488W        W35432  12.617  43.916  13.954
71489W        W35433  29.497   6.375  13.480
71490W        W35434  22.600  44.386   3.869
71491W        W35435  37.832  27.158  14.936
71492W        W35436  19.045  39.940   0.738
71493W        W35437  41.988  12.778  10.639
71494W        W35438   9.740  22.108  13.387
71495W        W35439  37.351  25.517  10.460
71496W        W35440  37.399  23.594  10.968
71497W        W35441  19.191  15.735   0.473
71498W        W35442   3.750  18.615  13.450
71499W        W35443  17.578  28.650  13.507
71500W        W35444  22.540  33.625  13.990
71501W        W35445  24.598   1.298  12.519
71502W        W35446   4.305   7.340  11.589
71503W        W35447  43.848  20.622  13.528
71504W        W35448  11.777  16.170   0.882
71505W        W35449  17.307  14.218  11.578
71506W        W35450   9.846  43.983   4.836
71507W        W35451   6.199  16.682  14.277
71508W        W35452  11.778  19.093  14.845
71509W        W35453   1.483  26.175  11.526
71510W        W35454   2.797  34.393  10.447
71511W        W35455  29.941  21.555   2.262
71512W        W35456  39.396  19.257   2.707
71513W        W35457  44.959  24.208   4.669
71514W        W35458  20.697  24.501  11.935
71515W        W35459  43.839   4.354  14.776
71516W        W35460  36.038  43.292  11.539
71517W        W35461   5.254   7.677  14.926
71518W        W35462   5.370  10.644   2.393
71519W        W35463  11.758  35.854   2.274
71520W        W35464   7.692  25.107  11.385
71521W        W35465  38.875  11.693  10.574
71522W        W35466  14.098  13.145  14.906
71523W        W35467  33.009  12.802  11.942
71524W        W35468  43.937   3.919   3.324
71525W        W35469  19.052  41.486  12.377
71526W        W35470  31.503   8.780  14.906
71527W        W35471   9.298  25.082   3.281
71528W        W35472   0.973  14.620  14.809
71529W        W35473  18.238   5.393  14.454
71530W        W35474  13.607   2.844  14.825
71531W        W35475  17.116  12.842  10.469
71532W        W35476  13.245  40.954  12.440
71533W        W35477  17.764   6.805  11.870
71534W        W35478  29.540  33.955  11.434
71535W        W35479  39.827  35.901   2.809
71536W        W35480   2.809  14.714   1.776
71537W        W35481   2.959   2.720  13.311
71538W        W35482  41.844   5.355   2.392
71539W        W35483  19.621   1.356  11.115
71540W        W35484  36.849  10.153  14.902
71541W        W35485   9.812  17.701   3.647
71542W        W35486  32.607  10.360   2.865
71543W        W35487  35.918  30.652  14.929
71544W        W35488  23.089   7.243   2.746
71545W        W35489  30.088  41.430   3.275
71546W        W35490   8.322  31.608   4.766
71547W        W35491  15.173  14.130   0.326
71548W        W35492  18.097  25.140  13.442
71549W        W35493  37.056   5.294  14.828
71550W        W35494  41.513   8.744  11.956
71551W        W35495  32.073  15.106  11.554
71552W        W35496   2.746  15.663   0.473
71553W        W35497   1.322  21.124   3.668
71554W        W35498  33.959  23.129   3.317
71555W        W35499   6.297  24.481  10.903
71556W        W35500  28.176  39.409  12.064
71557W        W35501  17.584  33.420  11.107
71558W        W35502  40.993  24.154  13.510
71559W        W35503  44.495  39.379   3.761
71560W        W35504  17.584  15.171  13.856
71561W        W35505  26.088  38.483  12.442
71562W        W35506  27.998  19.259  10.968
71563W        W35507  18.078  25.026   1.436
71564W        W35508  18.273  24.518  11.520
71565W        W35509  17.566  25.678   2.733
71566W        W35510  40.486  21.206   4.269
71567W        W35511  24.165   6.372   2.205
71568W        W35512  22.239  36.067  14.387
71569W        W35513  31.407  28.532   1.364
71570W        W35514  40.969  20.640   1.363
71571W        W35515  21.574   1.409  11.420
71572W        W35516   2.378  43.956  13.441
71573W        W35517  30.417  22.221   0.827
71574W        W35518  26.183  12.674  10.951
71575W        W35519   3.940  34.559   3.356
71576W        W35520  29.431  17.636  10.972
71577W        W35521  18.283  12.766   4.802
71578W        W35522  43.822  27.125   2.228
71579W        W35523   8.880  23.619   0.470
71580W        W35524  41.037   5.915  13.949
71581W        W35525   4.414  40.913   4.663
71582W        W35526  39.925  34.897   0.897
71583W        W35527   9.326  23.670   4.610
71584W        W35528  37.052  22.598   4.351
71585W        W35529   5.272   2.830  14.006
71586W        W35530  44.994  10.640   2.786
71587W        W35531  19.644  14.119   2.865
71588W        W35532   8.791  32.594   0.923
71589W        W35533  20.591  13.139   0.845
71590W        W35534  24.013  12.693   2.287
71591W        W35535  13.660  30.908   3.713
71592W        W35536  11.294   1.357   5.705
71593W        W35537  37.058  35.901   4.201
71594W        W35538  23.618   7.259  14.330
71595W        W35539  28.082  39.978   3.172
71596W        W35540  31.063   3.222   4.816
71597W        W35541  26.631  24.501   1.305
71598W        W35542  21.558   7.349  13.051
71599W        W35543  37.582  26.605  12.935
71600W        W35544  39.956  12.352  13.360
71601W        W35545  29.974  33.945  10.592
71602W        W35546  40.971  15.745  14.283
71603W        W35547  40.834  26.061  11.376
71604W        W35548  29.618  38.824   4.638
71605W        W35549  16.751   7.272   1.311
71606W        W35550  11.223  24.069   4.696
71607W        W35551  14.728  28.148   2.721
71608W        W35552  19.569  24.641   5.222
71609W        W35553  11.637  33.506  13.342
71610W        W35554  37.896   9.343   2.808
71611W        W35555  11.223  24.228   0.755
71612W        W35556  43.833  22.716  12.414
71613W        W35557  25.496  43.812   2.258
71614W        W35558  26.543  43.898  13.855
71615W        W35559   1.911  41.453  14.313
71616W        W35560  39.518  28.086  12.348
71617W        W35561  11.731  39.859   3.671
71618W        W35562   1.253  27.139  12.397
71619W        W35563   8.787  26.183   1.707
71620W        W35564   2.234  16.131  11.941
71621W        W35565  11.183  18.606  12.352
71622W        W35566   8.891  40.812  14.005
71623W        W35567   7.183  12.209  11.033
71624W        W35568  26.546  36.582  10.579
71625W        W35569  24.559  15.224  14.285
71626W        W35570  27.128  30.603   4.637
71627W        W35571  16.656   6.709  12.855
71628W        W35572  13.684  29.023   2.884
71629W        W35573  19.656   4.879   0.438
71630W        W35574  41.306  35.479  14.410
71631W        W35575   3.311   9.784   0.954
71632W        W35576  38.366   0.792   4.810
71633W        W35577  17.072  29.541  10.421
71634W        W35578  30.149  38.071   4.815
71635W        W35579  43.944  13.835   4.117
71636W        W35580  43.953  24.134   0.394
71637W        W35581  28.956  19.102   9.938
71638W        W35582  20.206  41.528  14.949
71639W        W35583  40.545   2.406  11.569
71640W        W35584   8.199   3.290   1.328
71641W        W35585  27.666  19.264   0.402
71642W        W35586  43.511  42.306  14.998
71643W        W35587  14.268  15.166  11.931
71644W        W35588  17.692   6.247  12.407
71645W        W35589  42.988  15.819  13.047
71646W        W35590  30.995  36.357  12.384
71647W        W35591   3.443   5.251  10.642
71648W        W35592  40.303  30.461   0.446
71649W        W35593  38.919   5.327  14.024
71650W        W35594  40.533  41.949  12.882
71651W        W35595  41.940  29.552  13.869
71652W        W35596  31.118  14.777   2.782
71653W        W35597  31.151  30.588  14.299
71654W        W35598   2.821  12.757  13.049
71655W        W35599  11.144  29.633  12.009
71656W        W35600  37.456  15.692  10.516
71657W        W35601  19.542  26.999  10.507
71658W        W35602  26.676  34.515  14.281
71659W        W35603  20.082  13.761   2.818
71660W        W35604  18.058   5.886  13.358
71661W        W35605  15.173  31.402  14.982
71662W        W35606  33.459  18.232  14.477
71663W        W35607  19.583  17.290  13.501
71664W        W35608  20.220  11.208   3.869
71665W        W35609  20.167  23.502  13.008
71666W        W35610   7.778  43.313  12.024
71667W        W35611  31.639  43.340  11.931
71668W        W35612  37.393  11.644   2.792
71669W        W35613  32.977  41.479  11.589
71670W        W35614  27.654  35.370   3.730
71671W        W35615  34.462  40.927  12.535
71672W        W35616   1.940  44.407  13.950
71673W        W35617  36.417  27.624  12.579
71674W        W35618  37.580  34.548  11.875
71675W        W35619  31.561  25.520  11.593
71676W        W35620  20.613  34.505  10.909
71677W        W35621  38.881  13.770   4.120
71678W        W35622   5.198  26.997  10.999
71679W        W35623  25.055  18.576   1.434
71680W        W35624   7.233   0.961  14.275
71681W        W35625  44.829  42.378  12.838
71682W        W35626  13.604  30.655  12.900
71683W        W35627  41.908  43.441   4.349
71684W        W35628   7.370  35.436  11.883
71685W        W35629  12.811  21.551  11.995
71686W        W35630  39.338  24.589   3.282
71687W        W35631  17.792  43.386   4.187
71688W        W35632  10.304  17.777   3.699
71689W        W35633  44.461  10.185  11.476
71690W        W35634  14.612  26.569   4.652
71691W        W35635  27.474  44.792  10.418
71692W        W35636  18.256  36.862   4.682
71693W        W35637  16.307   0.289   5.312
71694W        W35638  25.670  32.468   4.247
71695W        W35639  25.544  24.637  14.819
71696W        W35640  42.437   0.331  14.902
71697W        W35641  17.198   3.869  14.295
71698W        W35642  10.157   1.825   3.303
71699W        W35643  13.117  26.665   1.831
71700W        W35644  16.126   3.845   3.265
71701W        W35645  23.696  13.236  14.381
71702W        W35646  21.095  42.855   3.708
71703W        W35647  10.854  15.185  14.928
71704W        W35648  14.144  32.033  12.399
71705W        W35649  44.893  43.444   4.751
71706W        W35650  29.654  10.269  14.402
71707W        W35651  18.660  14.783  10.928
71708W        W35652   7.216  30.107   3.345
71709W        W35653  20.134   9.257   3.851
71710W        W35654  15.753  22.647  14.318
71711W        W35655  22.610  12.853  12.021
71712W        W35656  21.653  21.521  11.375
71713W        W35657  16.137  13.223  10.566
71714W        W35658   0.803  32.123   4.149
71715W        W35659  14.816  14.689   2.310
71716W        W35660  16.087   4.378  11.430
71717W        W35661   1.918  23.586  14.427
71718W        W35662  30.427  30.529  13.473
71719W        W35663  13.240  11.365  11.508
71720W        W35664  27.983  32.079  10.012
71721W        W35665   5.401   2.380   0.362
71722W        W35666  28.628  11.224  13.500
71723W        W35667  26.069   3.806   3.852
71724W        W35668  37.335  26.574  13.332
71725W        W35669  26.189  24.095   2.684
71726W        W35670  25.151   9.835   2.707
71727W        W35671  38.821  33.530   2.868
71728W        W35672  19.236  36.926  14.029
71729W        W35673  37.040  19.223  13.484
71730W        W35674  16.737  14.745   1.738
71731W        W35675  17.800  21.712   9.596
71732W        W35676  34.104  43.958  13.868
71733W        W35677  18.120  44.925   0.277
71734W        W35678  19.069  29.642   4.292
71735W        W35679  15.134   3.722  12.960
71736W        W35680  44.292  11.721   4.238
71737W        W35681  42.312   7.203  10.975
71738W        W35682  11.847   3.432  12.436
71739W        W35683  44.440  23.544   4.181
71740W        W35684  19.220  32.944   3.688
71741W        W35685  11.730  13.328   2.668
71742W        W35686   2.266  24.069  12.893
71743W        W35687  27.600   3.322  14.882
71744W        W35688  44.476  17.249  11.444
71745W        W35689  21.255  40.307  14.775
71746W        W35690   3.442  32.921  13.421
71747W        W35691  31.585  40.470  12.969
71748W        W35692  39.049   9.744  14.309
71749W        W35693  14.114  12.820  11.882
71750W        W35694  33.109  13.779   2.329
71751W        W35695  21.583  30.639  14.761
71752W        W35696   7.755  10.685  14.938
71753W        W35697  27.570   1.832   3.216
71754W        W35698  34.390   9.256  10.591
71755W        W35699  12.784   9.699  12.024
71756W        W35700   5.911  25.189   0.807
71757W        W35701  34.481  15.307   4.829
71758W        W35702   9.261  16.706  12.531
71759W        W35703  16.196   9.671   1.301
71760W        W35704  18.762  25.509  12.973
71761W        W35705  19.737  17.703   1.792
71762W        W35706   6.869  17.786   2.846
71763W        W35707  36.077   0.967  11.441
71764W        W35708   3.836  20.186   2.189
71765W        W35709   2.334   1.894  13.017
71766W        W35710  25.529  23.704   3.819
71767W        W35711  14.601   8.174   2.246
71768W        W35712  12.691  24.666  11.542
71769W        W35713  12.148  10.336   2.287
71770W        W35714  22.170  37.080   2.824
71771W        W35715   1.419  22.699   4.251
71772W        W35716   1.953  25.050  12.093
71773W        W35717  12.310  10.839  12.516
71774W        W35718  34.446  10.632   2.881
71775W        W35719   9.189  39.927  10.625
71776W        W35720  11.790   0.897  14.026
71777W        W35721  35.438  23.242   0.949
71778W        W35722  15.305   2.881  11.925
71779W        W35723  29.526  33.017  14.765
71780W        W35724  35.010   9.796   4.169
71781W        W35725  42.803  28.667   3.158
71782W        W35726  20.091  28.602   2.241
71783W        W35727  24.483   2.745   1.273
71784W        W35728   3.238  30.055  10.969
71785W        W35729  10.687  18.268  12.438
71786W        W35730  23.680  28.944   1.785
71787W        W35731  33.625  26.599  12.882
71788W        W35732  16.586   6.910  10.420
71789W        W35733   0.481  16.718  10.986
71790W        W35734  38.889  25.179   4.615
71791W        W35735  36.947  30.925  12.939
71792W        W35736  35.414  29.078   4.333
71793W        W35737  33.582  17.100   1.840
71794W        W35738   8.771   5.283   4.251
71795W        W35739  20.538  37.403   2.866
71796W        W35740  42.002  11.764  10.952
71797W        W35741  12.646  43.840  13.410
71798W        W35742  31.096  25.528  11.870
71799W        W35743   8.709  19.706   4.814
71800W        W35744  44.471   5.399   3.236
71801W        W35745   4.699  39.524   2.817
71802W        W35746  23.198  14.623  12.480
71803W        W35747   4.414  17.063   0.475
71804W        W35748  37.033  19.647  13.998
71805W        W35749  34.098  21.081   3.783
71806W        W35750  31.036  30.445  11.021
71807W        W35751   1.309  17.174   4.202
71808W        W35752   2.954  36.478   3.752
71809W        W35753  30.623  40.376  11.485
71810W        W35754  20.248  10.306  11.431
71811W        W35755   1.754  37.018   4.263
71812W        W35756  39.400   3.846  13.060
71813W        W35757  28.153  12.663   3.155
71814W        W35758  43.339  39.422   1.900
71815W        W35759  16.089  14.607   3.285
71816W        W35760  41.032  36.843   4.125
71817W        W35761  18.248   4.418   2.269
71818W        W35762  35.018  25.680  11.008
71819W        W35763  15.115   8.189  13.021
71820W        W35764  30.097  38.425  14.947
71821W        W35765  18.614   4.264   3.812
71822W        W35766  39.838  25.972   2.209
71823W        W35767  42.914  32.552   3.303
71824W        W35768  15.160  26.647  14.379
71825W        W35769   9.393  25.204  12.027
71826W        W35770   0.430  14.667  13.459
71827W        W35771   4.920  30.511   3.822
71828W        W35772  10.647  41.454  14.906
71829W        W35773  40.923  38.949  11.931
71830W        W35774  37.952  25.473   4.272
71831W        W35775  15.674  19.704  12.390
71832W        W35776  19.587  27.059  14.807
71833W        W35777  12.701   6.772   2.281
71834W        W35778  31.049  25.992   3.178
71835W        W35779  19.656  44.276   1.905
71836W        W35780   6.872  12.169  12.444
71837W        W35781  41.478  32.612   3.631
71838W        W35782  17.637  40.910  13.030
71839W        W35783   2.340  24.660  11.463
71840W        W35784  44.865  41.458   1.897
71841W        W35785  44.344  13.214   0.321
71842W        W35786  27.967  19.705  11.453
71843W        W35787   2.867   1.307  15.000
71844W        W35788   1.753  34.992  12.028
71845W        W35789   4.422  20.217  14.286
71846W        W35790  11.844  32.464   0.385
71847W        W35791  29.662   4.846   5.131
71848W        W35792  28.553  41.489   0.882
71849W        W35793  42.796  17.726  14.779
71850W        W35794  32.463  13.812   1.219
71851W        W35795  41.529  10.787   4.127
71852W        W35796  21.511  12.761  13.949
71853W        W35797   5.750  22.204  11.568
71854W        W35798  44.867  32.137  11.020
71855W        W35799   5.735   8.389   4.250
71856W        W35800  35.952   0.761   0.335
71857W        W35801  39.822  37.439  10.589
71858W        W35802  21.520  44.938   3.366
71859W        W35803  42.788  11.764  14.498
71860W        W35804   8.721  24.198   1.780
71861W        W35805  42.516  27.456  13.313
71862W        W35806   6.870  10.161  14.801
71863W        W35807  27.053  32.462   4.331
71864W        W35808  28.164  31.514  10.459
71865W        W35809  40.509  17.165  10.015
71866W        W35810  28.952   8.679  10.076
71867W        W35811   6.835   9.348  10.614
71868W        W35812  23.621  28.103  12.946
71869W        W35813  26.993  29.979  13.929
71870W        W35814   1.409  23.625  12.340
71871W        W35815  11.345   5.428  14.301
71872W        W35816  12.354  18.561  13.322
71873W        W35817  43.424  20.543   2.861
71874W        W35818  28.577  26.697   4.327
71875W        W35819  37.401  40.849  14.883
71876W        W35820  15.142  14.659   4.621
71877W        W35821  19.605  14.730  14.839
71878W        W35822   3.367  40.025  12.090
71879W        W35823  38.499  44.959  13.913
71880W        W35824  13.236  40.032   3.752
71881W        W35825  32.993  25.013  12.869
71882W        W35826  25.160  20.160  13.369
71883W        W35827   1.960   6.761   2.197
71884W        W35828  29.963  38.858   3.866
71885W        W35829  17.204  32.595  13.046
71886W        W35830  16.736  36.543  11.419
71887W        W35831  20.142  36.987   2.241
71888W        W35832  14.620   8.315  14.842
71889W        W35833  26.609  37.539  11.522
71890W        W35834  20.696  11.707  11.873
71891W        W35835   3.787  21.191   1.932
71892W        W35836   5.737  41.390   3.665
71893W        W35837  22.712  38.072   4.289
71894W        W35838  38.841  27.539  13.494
71895W        W35839  37.006  24.695   4.148
71896W        W35840  37.992   0.803  10.945
71897W        W35841  34.417  35.404  10.521
71898W        W35842  18.229  35.548  13.004
71899W        W35843  37.054  19.182  10.602
71900W        W35844   0.855  19.226  10.501
71901W        W35845  16.167  17.289  14.021
71902W        W35846  33.408   5.862  10.940
71903W        W35847  10.238   6.784  13.887
71904W        W35848  22.243   6.766   1.369
71905W        W35849  41.352  24.535   3.151
71906W        W35850  21.045  12.727  13.952
71907W        W35851  33.445  17.284  11.387
71908W        W35852  12.611   4.929  10.404
71909W        W35853  12.687  24.123   3.815
71910W        W35854  42.290  22.596  13.420
71911W        W35855   0.819  29.025   2.684
71912W        W35856  36.059   5.435  13.399
71913W        W35857  27.570   6.676  13.807
71914W        W35858   1.960  43.018   1.311
71915W        W35859  32.887   5.841   2.681
71916W        W35860  36.469   4.890  12.565
71917W        W35861  32.398  21.148  14.761
71918W        W35862  11.161  35.001   4.759
71919W        W35863  26.688  30.586   4.344
71920W        W35864  36.475  22.247   3.235
71921W        W35865  29.620  11.858  10.573
71922W        W35866  16.716  36.563   0.308
71923W        W35867  30.553  15.163   3.231
71924W        W35868  33.986  26.096   4.635
71925W        W35869  41.800  23.709   4.214
71926W        W35870  43.307  25.087  14.295
71927W        W35871  38.342   0.449   1.244
71928W        W35872  14.229  18.170  12.090
71929W        W35873  21.243  16.228   1.384
71930W        W35874   5.385  20.194  13.010
71931W        W35875  13.140  17.185   0.843
71932W        W35876   3.754   5.267  10.636
71933W        W35877  11.821  44.005   1.696
71934W        W35878   3.455  15.739   0.851
71935W        W35879   8.890   5.873   0.727
71936W        W35880  34.584  15.169  11.928
71937W        W35881   7.851  44.853   2.783
71938W        W35882  32.956  13.335   1.789
71939W        W35883   0.795  29.995   2.287
71940W        W35884   2.816  43.458  14.800
71941W        W35885  10.243   4.941  12.489
71942W        W35886   6.901   9.862   2.328
71943W        W35887  15.202  44.504  13.910
71944W        W35888   8.801  25.578  14.364
71945W        W35889  29.986  16.145   2.729
71946W        W35890  39.981  36.428   0.340
71947W        W35891  36.404  39.808   3.796
71948W        W35892  12.679   6.701   4.773
71949W        W35893  38.015   6.249  14.941
71950W        W35894   3.886  34.930   2.819
71951W        W35895  19.261   4.760   0.829
71952W        W35896  13.251  43.334  11.027
71953W        W35897  22.715  35.385   0.411
71954W        W35898  30.913  13.727  12.925
71955W        W35899  27.525  16.242  10.919
71956W        W35900  15.642  10.288   4.690
71957W        W35901  28.652  30.604   1.390
71958W        W35902  31.135  38.507  11.016
71959W        W35903  14.683  12.761   4.149
71960W        W35904  18.123   0.918  11.483
71961W        W35905   9.273  41.333  12.853
71962W        W35906  38.430   5.255   1.320
71963W        W35907  10.875  13.712   0.318
71964W        W35908  43.497  28.971  11.977
71965W        W35909  15.709  14.797   3.220
71966W        W35910   3.446  35.903  11.947
71967W        W35911   9.885  13.249   4.195
71968W        W35912  31.424  15.118  13.526
71969W        W35913  27.563  25.976  13.320
71970W        W35914  42.006  16.667  13.849
71971W        W35915  11.715  33.958  13.872
71972W        W35916  28.137  41.790   4.703
71973W        W35917  15.314   8.242   9.636
71974W        W35918  39.018  17.067   1.451
71975W        W35919  25.117  33.108   0.410
71976W        W35920  11.216  42.873  14.885
71977W        W35921  13.631   1.967   3.816
71978W        W35922  17.141   9.670  14.909
71979W        W35923  32.459  25.661  11.506
71980W        W35924  10.858  34.466   4.294
71981W        W35925  26.041  13.195   3.673
71982W        W35926  37.041  10.713  14.460
71983W        W35927   7.388  26.068   4.730
71984W        W35928  13.137  37.434  11.451
71985W        W35929  37.970  10.349   4.657
71986W        W35930  17.216  22.630   3.259
71987W        W35931  21.669   2.773   4.763
71988W        W35932  25.100  39.385  13.369
71989W        W35933  36.990  32.446   3.818
71990W        W35934  25.186  19.628   1.445
71991W        W35935  44.430   1.781  11.449
71992W        W35936  40.046   6.420  13.834
71993W        W35937  26.503  42.407  12.951
71994W        W35938  43.974  22.708   4.730
71995W        W35939  26.090  20.757   3.194
71996W        W35940  15.092  23.016  11.607
71997W        W35941  41.808  34.451   1.225
71998W        W35942  24.228  40.438   1.796
71999W        W35943  43.317  21.692   0.851
72000W        W35944  15.762  15.295  14.378
72001W        W35945  39.393  22.199  12.835
72002W        W35946  14.164   7.386   4.620
72003W        W35947  13.638  11.666   3.732
72004W        W35948   9.759  20.075  14.839
72005W        W35949  23.536  27.546  13.960
72006W        W35950  21.229  41.499   1.853
72007W        W35951   6.203  39.359  13.858
72008W        W35952  38.530   3.889  13.357
72009W        W35953  14.666  16.716   3.807
72010W        W35954   8.704  27.472  11.550
72011W        W35955  26.076   2.737   3.367
72012W        W35956  29.047  28.939   4.822
72013W        W35957   7.218  21.043   1.735
72014W        W35958  27.193  10.808   1.865
72015W        W35959  37.059  40.997   3.357
72016W        W35960  38.523  19.534   0.359
72017W        W35961  43.799   5.925  13.027
72018W        W35962  32.103  12.815   3.767
72019W        W35963  39.374  34.950  12.018
72020W        W35964  17.745   8.857   3.796
72021W        W35965  20.177  30.561  13.806
72022W        W35966   0.431   8.849  12.878
72023W        W35967  12.707  17.643   1.285
72024W        W35968  28.997  42.281  12.994
72025W        W35969  11.258  17.144  13.970
72026W        W35970   0.443  30.480   3.640
72027W        W35971  34.575  39.966   4.308
72028W        W35972  40.805  38.932  13.394
72029W        W35973  21.679  34.567   0.859
72030W        W35974  24.202  16.627   4.678
72031W        W35975  12.780  19.048   1.402
72032W        W35976   5.325  12.135  10.422
72033W        W35977   4.784  16.586   2.330
72034W        W35978  42.332   1.744  13.425
72035W        W35979  26.581  22.726  11.395
72036W        W35980   1.940   8.201   0.930
72037W        W35981  31.906   4.378  10.442
72038W        W35982   3.710   6.414   4.798
72039W        W35983  36.994  28.048   3.313
72040W        W35984  41.793  29.103  10.601
72041W        W35985   0.814  40.831  12.012
72042W        W35986  44.956   1.267   3.697
72043W        W35987  27.019  38.410   2.807
72044W        W35988  29.045  29.642  10.577
72045W        W35989  31.950   9.366  12.022
72046W        W35990  20.586  28.158   4.355
72047W        W35991   0.260  18.177  10.994
72048W        W35992  33.609   6.245   1.392
72049W        W35993   7.374  14.239   9.978
72050W        W35994   9.861   1.858  10.518
72051W        W35995  34.035  40.424  13.498
72052W        W35996  35.497  40.818   0.382
72053W        W35997   5.310  23.156  14.812
72054W        W35998  34.026  19.649  10.539
72055W        W35999   7.880  12.830   3.743
72056W        W36000  31.106  30.081   2.778
72057W        W36001   2.750   3.786   3.176
72058W        W36002  25.177  39.548  12.087
72059W        W36003   3.316  38.559   1.220
72060W        W36004  21.076   5.785  13.974
72061W        W36005  44.478  11.340   0.739
72062W        W36006  29.552   8.265   2.292
72063W        W36007  38.893  28.616   3.673
72064W        W36008  11.760  30.057   9.601
72065W        W36009  11.702  43.449   2.731
72066W        W36010  42.299  26.495   4.196
72067W        W36011  23.574   7.868   2.764
72068W        W36012   2.288  35.470  12.017
72069W        W36013  39.862  43.918  11.889
72070W        W36014   9.738   6.348  14.851
72071W        W36015  14.656  44.950  11.065
72072W        W36016  32.113  28.645   0.256
72073W        W36017   8.887   3.390  10.952
72074W        W36018  19.641  12.743  11.890
72075W        W36019   9.311  36.372   4.635
72076W        W36020  17.127  18.544  10.523
72077W        W36021   0.405  12.828  12.472
72078W        W36022  40.978  14.777  11.514
72079W        W36023   2.335  27.535  14.453
72080W        W36024  15.767  26.637   2.184
72081W        W36025  28.022  33.534   1.735
72082W        W36026   4.799  12.222  12.052
72083W        W36027   7.334  20.191   1.235
72084W        W36028  32.470   8.168   1.928
72085W        W36029  14.613  24.983  12.514
72086W        W36030  34.865  23.636   3.209
72087W        W36031  42.301  18.206  12.990
72088W        W36032   6.321  37.462   2.259
72089W        W36033  10.719  37.049  14.475
72090W        W36034  10.354  42.331   4.616
72091W        W36035  31.979  23.162   3.825
72092W        W36036  17.064   9.193  13.988
72093W        W36037   9.883  16.097  13.062
72094W        W36038   1.341  41.842   1.346
72095W        W36039  41.415  40.544  14.462
72096W        W36040  37.362   6.695  12.428
72097W        W36041  21.633  24.014   4.678
72098W        W36042   6.780  19.115   0.434
72099W        W36043  32.535  39.536   2.847
72100W        W36044  28.574   9.279  13.927
72101W        W36045   5.352   6.281  13.877
72102W        W36046   5.276  11.179   3.807
72103W        W36047  22.053   9.793  13.342
72104W        W36048   5.883  33.107   1.323
72105W        W36049  18.691   0.846   5.215
72106W        W36050  13.181  27.962   0.427
72107W        W36051   1.795  43.453  12.019
72108W        W36052  26.575  13.678   3.334
72109W        W36053   5.707  13.832   0.727
72110W        W36054  33.924  23.003   4.184
72111W        W36055   2.949  20.739  12.430
72112W        W36056  38.999  40.824   1.307
72113W        W36057  44.449  39.478   4.705
72114W        W36058   6.833  36.868   1.213
72115W        W36059   8.754  42.425  10.931
72116W        W36060  17.223  19.162   2.253
72117W        W36061  44.270  31.580   0.263
72118W        W36062   6.794  12.211   4.314
72119W        W36063  30.573  36.087  14.477
72120W        W36064  26.989  20.059   3.745
72121W        W36065  33.498   8.389  12.453
72122W        W36066  36.489  15.130   2.800
72123W        W36067   5.761  32.570   2.891
72124W        W36068  15.656  17.652   3.682
72125W        W36069  35.042  22.643   0.286
72126W        W36070  10.874  14.169  13.396
72127W        W36071   3.411  17.665   3.813
72128W        W36072  25.206   4.343  10.899
72129W        W36073  23.199  42.447  13.531
72130W        W36074  22.204  33.440  14.435
72131W        W36075  20.229  35.075  10.405
72132W        W36076  19.765  26.074   3.239
72133W        W36077  20.073  39.376   0.856
72134W        W36078  44.856  13.635  13.392
72135W        W36079  25.656   2.815  12.876
72136W        W36080  29.595  38.956  13.976
72137W        W36081  19.575  37.921   0.733
72138W        W36082  28.085  19.679   5.147
72139W        W36083  33.580  31.897   1.754
72140W        W36084   0.312  34.949  10.990
72141W        W36085  33.495  22.736   1.724
72142W        W36086   7.727  27.629  13.855
72143W        W36087  26.523   9.685   4.673
72144W        W36088  21.526  36.028   2.382
72145W        W36089   9.217   4.873   4.137
72146W        W36090   1.898   6.907  14.430
72147W        W36091  33.065   7.857   1.736
72148W        W36092   8.303  23.497   0.964
72149W        W36093  39.428  43.913   1.310
72150W        W36094  37.910   7.875  13.325
72151W        W36095  35.364  28.477   0.731
72152W        W36096   0.905  31.527  12.064
72153W        W36097  44.850  11.676  12.929
72154W        W36098  24.645  24.682  11.023
72155W        W36099  12.275  42.393  12.847
72156W        W36100  31.919  21.236  11.494
72157W        W36101  31.120  42.374   2.306
72158W        W36102  33.495  33.561   2.271
72159W        W36103  39.007  30.468   3.641
72160W        W36104  16.614  37.531  12.408
72161W        W36105  43.967  22.179   3.366
72162W        W36106   1.343  17.138   3.788
72163W        W36107  22.211  25.998  12.555
72164W        W36108  30.059  22.104   2.413
72165W        W36109  32.114  12.629   2.187
72166W        W36110  25.474   2.318   4.710
72167W        W36111  22.239  29.155   3.831
72168W        W36112   2.872   4.258  11.384
72169W        W36113  32.989  34.427   4.337
72170W        W36114  17.207  14.204  11.946
72171W        W36115  26.703   1.862   4.626
72172W        W36116  40.993  43.351  10.522
72173W        W36117  18.138  12.773  12.007
72174W        W36118  10.756   2.293  13.392
72175W        W36119  35.602  36.845  14.975
72176W        W36120  22.736  44.339   5.097
72177W        W36121  38.911   0.972  11.528
72178W        W36122  41.445  40.318   4.331
72179W        W36123  34.049  24.672  10.643
72180W        W36124  29.950   9.767  13.429
72181W        W36125   6.892  20.229  14.494
72182W        W36126  40.534  35.893   1.841
72183W        W36127  38.045   7.902  10.985
72184W        W36128   9.689  44.340   4.617
72185W        W36129   8.690  25.057  12.383
72186W        W36130  42.026  44.882   3.691
72187W        W36131   0.493  13.189   4.774
72188W        W36132  38.885  16.170   0.910
72189W        W36133  24.632  20.751   3.723
72190W        W36134  37.551   8.399  12.461
72191W        W36135  41.480  39.927   4.729
72192W        W36136   2.849  24.714  10.555
72193W        W36137  27.510   0.304  14.805
72194W        W36138  38.547  40.959   3.270
72195W        W36139  39.486  17.284  14.974
72196W        W36140  22.714  34.977   2.400
72197W        W36141   6.851   4.220  10.421
72198W        W36142  34.598  33.463   4.598
72199W        W36143  41.027  38.974  14.889
72200W        W36144  21.674   9.805   4.317
72201W        W36145  37.386  38.929   4.123
72202W        W36146   6.776   7.267  12.077
72203W        W36147  35.937   3.889  12.494
72204W        W36148  25.677   2.872   0.782
72205W        W36149  11.768  13.299   4.158
72206W        W36150  23.183   8.828   3.298
72207W        W36151  35.603  11.296   4.642
72208W        W36152  22.616  29.550  11.572
72209W        W36153  20.077  15.637   1.277
72210W        W36154  17.578  41.317  11.117
72211W        W36155  36.912  38.916  11.961
72212W        W36156  21.186  38.418  12.363
72213W        W36157  24.208  10.878  13.373
72214W        W36158  16.109  17.746   3.867
72215W        W36159  24.668   0.774   4.171
72216W        W36160  43.286   1.894   5.131
72217W        W36161  22.097   6.678  12.529
72218W        W36162  15.284  37.065   0.258
72219W        W36163  19.059  29.991  10.598
72220W        W36164   7.818  37.500   9.925
72221W        W36165  29.109  29.465   1.324
72222W        W36166  17.755   5.365   1.356
72223W        W36167  17.188  22.151   2.700
72224W        W36168   0.797  12.298   2.365
72225W        W36169  20.686  26.953  12.395
72226W        W36170  16.583  41.450  10.636
72227W        W36171  25.105  11.218   1.392
72228W        W36172  24.632  34.066  11.575
72229W        W36173   2.234  18.252  11.044
72230W        W36174  42.494   6.836   0.452
72231W        W36175  41.983  26.543  10.891
72232W        W36176   9.747  43.965  14.817
72233W        W36177  12.836   3.239  11.904
72234W        W36178  14.793  21.709  13.435
72235W        W36179  22.231  35.007   1.904
72236W        W36180  36.008  19.642  11.546
72237W        W36181   1.914  39.977  12.383
72238W        W36182   9.658  43.778  10.621
72239W        W36183  34.440  44.785   1.808
72240W        W36184  34.460  29.567  12.026
72241W        W36185  40.332   6.679   2.883
72242W        W36186  13.753  32.539   1.394
72243W        W36187  27.018  36.456  10.631
72244W        W36188   4.430  21.240  13.947
72245W        W36189  43.809  13.263   0.852
72246W        W36190  42.012  37.494  13.886
72247W        W36191   3.243  10.296   5.157
72248W        W36192  23.509  38.851  13.455
72249W        W36193   7.286   0.891  13.470
72250W        W36194   8.812  13.189  11.558
72251W        W36195  17.757  36.886   1.924
72252W        W36196   3.270  42.979   1.231
72253W        W36197  41.333  16.185  14.896
72254W        W36198   9.841  39.916   0.882
72255W        W36199  10.694   4.212   2.799
72256W        W36200  43.490   4.362  11.024
72257W        W36201  17.194  15.742   4.139
72258W        W36202  31.961  16.159  13.919
72259W        W36203   7.353  31.041  12.084
72260W        W36204  33.887  41.823   4.745
72261W        W36205  37.967  34.991   4.191
72262W        W36206   3.351  39.332  11.041
72263W        W36207  35.965  14.706  11.992
72264W        W36208  12.254  29.142  11.901
72265W        W36209  13.267  15.257  12.440
72266W        W36210  34.481  10.805   1.421
72267W        W36211  12.312  13.349   1.210
72268W        W36212   4.362  35.506   0.282
72269W        W36213  28.514  16.181  12.077
72270W        W36214  41.491  17.801   1.770
72271W        W36215  29.011  11.298   2.361
72272W        W36216   0.883  14.148   4.832
72273W        W36217   5.317  16.614   1.832
72274W        W36218  34.411  39.861  14.988
72275W        W36219  33.502   0.292  12.360
72276W        W36220  12.302  29.574   1.874
72277W        W36221   6.362  11.147   1.401
72278W        W36222   5.737  28.052  14.493
72279W        W36223  12.130   1.408   3.335
72280W        W36224  43.776  14.778  11.591
72281W        W36225  37.567  26.151  14.338
72282W        W36226  20.692  14.226  11.454
72283W        W36227  30.650   6.766  11.519
72284W        W36228  32.419  41.427  12.028
72285W        W36229  23.146  30.944   4.776
72286W        W36230  21.687  24.581  11.458
72287W        W36231  23.679   5.744  14.343
72288W        W36232  18.747   7.181   0.277
72289W        W36233   1.756   8.807  14.820
72290W        W36234  25.517  36.584   2.667
72291W        W36235  29.522  23.081   0.422
72292W        W36236  10.801  28.510   5.801
72293W        W36237  21.086   1.871   3.856
72294W        W36238  42.029  17.124   1.806
72295W        W36239  23.547   9.879   2.403
72296W        W36240  10.220  29.999   3.810
72297W        W36241   3.437  11.269  14.909
72298W        W36242  28.617  36.900  10.943
72299W        W36243  28.093  14.173   3.674
72300W        W36244  33.416  10.183  13.520
72301W        W36245   3.257  38.043   1.827
72302W        W36246   7.228  12.662   4.125
72303W        W36247  26.074  27.512   3.711
72304W        W36248  12.215  26.517  12.411
72305W        W36249  30.929   3.761  11.588
72306W        W36250   2.805  25.710  14.424
72307W        W36251  23.066  10.686   4.606
72308W        W36252   2.259  26.576  13.884
72309W        W36253  20.176  34.915  13.984
72310W        W36254   7.851   0.905  10.137
72311W        W36255  22.667  16.732   9.972
72312W        W36256  39.962  13.237   4.167
72313W        W36257  15.702  33.605  11.379
72314W        W36258   4.280  43.874   0.373
72315W        W36259   1.861  26.488   4.734
72316W        W36260  28.060  22.113  11.515
72317W        W36261  30.426  30.443  10.491
72318W        W36262  43.831  10.338  10.973
72319W        W36263  34.914  11.187  10.128
72320W        W36264  40.817   7.757   0.932
72321W        W36265  33.890  17.725   2.340
72322W        W36266  36.857  21.206   2.801
72323W        W36267  42.321  29.036   3.350
72324W        W36268  24.083   1.759   5.142
72325W        W36269  17.162   6.908   9.926
72326W        W36270  27.684  18.780  12.092
72327W        W36271  31.433  35.497   1.266
72328W        W36272  40.846  25.610  12.566
72329W        W36273  39.970  17.558   3.704
72330W        W36274  38.531  44.840   3.706
72331W        W36275   2.334  22.207  11.996
72332W        W36276  39.982  16.184  11.587
72333W        W36277  44.854  12.630  11.424
72334W        W36278  15.601  30.999  11.444
72335W        W36279  38.064   1.891   3.818
72336W        W36280  44.410  23.577   0.898
72337W        W36281  28.969  20.267   3.304
72338W        W36282  25.509  13.777   2.806
72339W        W36283   2.937  16.300  11.918
72340W        W36284  18.072   3.830   4.129
72341W        W36285   9.252  42.987  13.348
72342W        W36286  41.477  23.538   0.444
72343W        W36287  40.365   8.266   2.826
72344W        W36288   1.890  40.327  11.424
72345W        W36289  18.093  11.643  11.454
72346W        W36290  29.965  26.480   2.316
72347W        W36291  14.701  24.124  12.527
72348W        W36292  38.519   9.351  13.043
72349W        W36293  23.101  10.714   0.727
72350W        W36294  22.141  19.225  13.458
72351W        W36295  43.274  22.514   2.759
72352W        W36296  43.509  19.756   5.125
72353W        W36297  29.965  32.614   0.749
72354W        W36298  34.934   3.237   1.299
72355W        W36299  38.033  13.649   2.281
72356W        W36300   2.834  33.400   0.302
72357W        W36301  21.087  18.171   4.350
72358W        W36302  12.651  18.699   2.206
72359W        W36303  27.088  33.383  11.509
72360W        W36304  12.230  40.045   1.271
72361W        W36305  44.836  10.277  12.554
72362W        W36306  42.844  38.421  14.907
72363W        W36307  44.267  28.567   1.426
72364W        W36308  12.710  35.517   0.798
72365W        W36309  33.923  40.913   4.736
72366W        W36310  24.994  17.734   0.868
72367W        W36311  12.711   3.274  13.356
72368W        W36312  37.502  35.014  14.025
72369W        W36313  32.444   2.324   2.188
72370W        W36314   7.309  19.598  11.958
72371W        W36315  33.539  29.976   4.116
72372W        W36316   7.730  31.511  14.948
72373W        W36317  32.931   4.332   2.812
72374W        W36318  25.035  43.303  11.930
72375W        W36319  34.398   0.260  14.307
72376W        W36320  43.964   0.957  14.464
72377W        W36321   0.810   8.198   0.811
72378W        W36322  13.221  23.599   1.378
72379W        W36323  15.205  10.852   4.808
72380W        W36324  22.623  16.248   4.681
72381W        W36325   0.808  30.589   4.339
72382W        W36326  32.890  12.691  14.435
72383W        W36327  42.347   1.947   0.805
72384W        W36328  23.633  41.880  11.578
72385W        W36329  31.115   6.316   1.919
72386W        W36330   0.468  35.560  13.434
72387W        W36331  19.225  15.584  13.530
72388W        W36332  29.438  35.462   1.359
72389W        W36333  15.777  31.005   5.169
72390W        W36334  24.142  22.653   3.254
72391W        W36335  35.054  27.667   1.821
72392W        W36336   7.674   4.318   0.865
72393W        W36337  21.029  22.131   3.719
72394W        W36338   1.414  32.906  11.482
72395W        W36339  26.131  25.510  13.360
72396W        W36340  25.487   1.328   4.171
72397W        W36341  36.949  39.418  11.390
72398W        W36342  43.895  41.982  11.067
72399W        W36343  32.036  26.620  14.775
72400W        W36344  20.117   5.801  14.916
72401W        W36345  28.958  32.941   1.434
72402W        W36346  25.989   7.389   1.752
72403W        W36347  28.140  28.180  10.091
72404W        W36348  36.361  28.590  14.443
72405W        W36349  44.433   1.475  13.315
72406W        W36350  10.221  30.000   5.759
72407W        W36351  16.654  13.202  12.514
72408W        W36352  31.965  28.032   3.175
72409W        W36353  26.990   6.744   0.275
72410W        W36354   4.914  30.009   0.900
72411W        W36355  42.010  10.656  12.568
72412W        W36356   1.289  17.218  12.978
72413W        W36357   0.755   9.290   0.804
72414W        W36358  39.318  24.494   3.819
72415W        W36359  36.446   1.351  11.454
72416W        W36360  42.440  29.598  13.007
72417W        W36361  13.240  19.710  10.445
72418W        W36362   4.897   9.260  14.445
72419W        W36363  32.894  35.092  14.502
72420W        W36364  26.645  11.737  11.992
72421W        W36365  11.694  20.545   4.225
72422W        W36366  26.471  17.128  10.950
72423W        W36367  12.643   8.679   2.254
72424W        W36368  14.143  30.962  13.953
72425W        W36369  15.815  17.579   1.875
72426W        W36370  27.449  20.652   1.814
72427W        W36371  32.086  12.340   1.831
72428W        W36372  21.155  43.964   0.837
72429W        W36373   0.774  39.515  14.985
72430W        W36374  31.969  26.193   4.818
72431W        W36375   2.756  10.771  12.949
72432W        W36376   5.397   5.865   0.822
72433W        W36377   4.287   8.228   4.307
72434W        W36378  25.115  13.271   3.249
72435W        W36379  11.754  31.457  11.996
72436W        W36380  11.701  14.297  10.958
72437W        W36381  24.677  39.327  14.511
72438W        W36382  13.617  37.834  14.945
72439W        W36383  28.982  33.405   0.738
72440W        W36384   7.824  12.163  11.565
72441W        W36385   1.978  31.142  13.899
72442W        W36386  17.784  31.937  12.489
72443W        W36387  14.618  25.692   0.783
72444W        W36388   5.890   6.811  12.434
72445W        W36389  42.025  33.980   2.304
72446W        W36390  10.762  13.333   4.772
72447W        W36391  20.715  32.919   0.254
72448W        W36392  37.528  27.096  14.812
72449W        W36393   4.700   6.850   1.894
72450W        W36394   8.778  29.951   5.572
72451W        W36395  18.770  27.619  11.570
72452W        W36396  37.571  37.459  13.911
72453W        W36397   2.835  35.445   3.334
72454W        W36398  40.981  13.207  12.850
72455W        W36399  19.094  34.878  14.797
72456W        W36400   2.286  31.132  12.979
72457W        W36401  19.585  20.151  14.386
72458W        W36402  19.272   6.749  13.442
72459W        W36403  20.132  19.736   3.635
72460W        W36404  16.116  16.153   1.263
72461W        W36405   5.236  34.990  11.058
72462W        W36406  16.106   0.441  11.064
72463W        W36407  17.686  34.526   3.717
72464W        W36408  22.563   3.267  14.493
72465W        W36409  34.974   4.895   5.084
72466W        W36410   5.867   3.831   3.371
72467W        W36411  22.232  20.053   2.805
72468W        W36412  20.711  17.572   4.621
72469W        W36413  12.208  30.153   9.943
72470W        W36414  24.014  29.961  12.498
72471W        W36415  26.531  25.596   3.674
72472W        W36416  43.354  29.149  14.886
72473W        W36417  38.924  37.849  14.969
72474W        W36418   8.282   3.265  12.921
72475W        W36419  20.703  32.044  13.871
72476W        W36420  24.679  37.352  12.887
72477W        W36421  34.565  14.300  10.553
72478W        W36422  23.635   7.816  13.892
72479W        W36423  19.676   1.399   0.299
72480W        W36424  16.284  21.239   3.231
72481W        W36425  13.181  10.671   3.295
72482W        W36426   9.860  21.055   4.190
72483W        W36427  10.213  26.092   2.299
72484W        W36428  16.297  44.834  11.411
72485W        W36429   7.881  17.736  10.999
72486W        W36430  29.146  39.466  14.949
72487W        W36431  13.284   9.877  14.765
72488W        W36432  26.701   0.280   5.219
72489W        W36433  32.974  16.149   4.137
72490W        W36434  38.038  41.961   0.386
72491W        W36435  16.642  36.047   2.832
72492W        W36436  17.627  23.147  14.955
72493W        W36437  43.335  28.598  11.875
72494W        W36438   1.267   1.256  12.018
72495W        W36439   1.927   2.859  11.058
72496W        W36440   6.715  33.407  10.969
72497W        W36441   0.320   2.921  11.863
72498W        W36442  16.812  29.944  13.471
72499W        W36443   0.924  20.139   3.195
72500W        W36444  12.215  34.068   4.176
72501W        W36445   3.379  17.750  13.417
72502W        W36446  26.116  44.847  12.473
72503W        W36447   1.277  40.973   1.265
72504W        W36448   5.837   7.415   3.304
72505W        W36449   1.974  29.970   3.722
72506W        W36450  38.019  32.418  12.999
72507W        W36451  28.670   2.940   2.868
72508W        W36452  20.591  18.738  12.540
72509W        W36453  24.519   3.260   1.753
72510W        W36454  19.106  19.130   3.698
72511W        W36455  10.299  30.577   4.661
72512W        W36456   0.358  39.474  14.975
72513W        W36457  21.582  33.922   1.430
72514W        W36458  21.150  19.750  10.406
72515W        W36459  20.713  17.620  10.529
72516W        W36460   5.267  17.281  12.455
72517W        W36461  12.144  40.376   4.661
72518W        W36462  34.530  38.862   2.877
72519W        W36463  33.101   7.374   1.904
72520W        W36464  44.495  29.594  12.515
72521W        W36465  28.090  35.019   2.803
72522W        W36466  10.806  29.456  13.514
72523W        W36467  24.211  18.728   1.921
72524W        W36468   8.163  32.406  14.804
72525W        W36469  35.910   0.945   3.798
72526W        W36470  29.941  16.246   2.386
72527W        W36471   5.850  14.803  11.586
72528W        W36472   7.827  36.968  13.409
72529W        W36473  13.309  14.664   3.203
72530W        W36474  30.416  42.490  13.888
72531W        W36475  39.471  16.767   4.127
72532W        W36476  40.355  11.221  14.293
72533W        W36477  27.952   2.866   4.191
72534W        W36478   3.777   9.323   0.300
72535W        W36479  11.240   0.826  14.928
72536W        W36480  18.710  17.584   0.477
72537W        W36481   9.284  25.173  11.545
72538W        W36482  19.666  27.948  12.063
72539W        W36483  39.486  42.854  11.038
72540W        W36484  40.481  39.895  12.565
72541W        W36485  23.525   3.902  11.982
72542W        W36486  34.497  24.096  10.432
72543W        W36487  11.277   0.406   5.235
72544W        W36488  20.707  23.616   1.322
72545W        W36489  14.152  16.709  14.968
72546W        W36490  31.522  44.473  14.019
72547W        W36491  19.658  44.287   5.173
72548W        W36492  24.525  26.103   3.840
72549W        W36493  41.388  13.338  11.120
72550W        W36494  19.062  36.060  11.876
72551W        W36495  43.825   8.761   4.608
72552W        W36496  33.625   8.318   3.865
72553W        W36497   6.868  23.239  13.464
72554W        W36498  11.706  29.601  10.110
72555W        W36499  32.046  37.369  13.355
72556W        W36500   7.271   1.319  12.996
72557W        W36501  11.708  34.425   4.130
72558W        W36502  24.562   3.307   4.345
72559W        W36503   9.703  21.536  14.974
72560W        W36504  27.616  25.140   3.228
72561W        W36505  22.592   3.881   2.282
72562W        W36506  21.068  22.591   2.794
72563W        W36507  16.647  13.818  14.919
72564W        W36508  30.978  21.254   0.436
72565W        W36509  13.239  41.934  14.887
72566W        W36510  36.442  19.225  11.372
72567W        W36511  20.098  32.920   4.331
72568W        W36512   2.282   2.771   1.927
72569W        W36513  40.005  42.825   3.848
72570W        W36514   0.811  26.490   3.374
72571W        W36515   0.970  32.022  13.966
72572W        W36516  39.890  37.945  11.890
72573W        W36517  29.538  37.933   4.283
72574W        W36518  23.112  38.036   2.849
72575W        W36519  31.145  31.948   3.229
72576W        W36520  33.476  26.540  13.502
72577W        W36521  11.716  13.259  11.923
72578W        W36522   8.391   2.947  10.640
72579W        W36523  23.706  21.673   0.286
72580W        W36524  24.594  28.482  11.946
72581W        W36525  44.306  35.036  14.021
72582W        W36526   3.406  30.129  13.474
72583W        W36527   4.800   2.836   0.282
72584W        W36528  37.374  36.442  14.853
72585W        W36529   7.344  11.286   0.441
72586W        W36530  43.927  28.447   1.729
72587W        W36531   9.344  15.710  10.925
72588W        W36532  33.597  27.051  12.876
72589W        W36533  23.196  27.088   1.749
72590W        W36534   0.448  38.496  11.499
72591W        W36535  26.665  41.905   0.390
72592W        W36536  12.240  17.674   0.762
72593W        W36537  30.071  16.713   4.768
72594W        W36538  21.678   6.387   4.631
72595W        W36539   9.831  38.419   2.691
72596W        W36540  40.402  28.932  12.861
72597W        W36541  15.694  21.667   3.716
72598W        W36542  37.537  32.917  12.383
72599W        W36543   0.784  35.486  12.347
72600W        W36544   2.412  18.620  10.575
72601W        W36545  22.657  14.231  12.884
72602W        W36546  41.973  29.134  11.407
72603W        W36547  16.171   2.290  11.555
72604W        W36548  40.869  34.427   0.772
72605W        W36549  44.294  22.739   3.231
72606W        W36550  34.108  34.924   3.307
72607W        W36551  39.509  18.634  10.452
72608W        W36552  20.044  27.063   0.760
72609W        W36553  31.021   9.648   3.145
72610W        W36554   6.783  19.616   1.451
72611W        W36555  40.952  43.801  12.049
72612W        W36556  20.164  15.089   2.704
72613W        W36557  19.621  36.352  11.492
72614W        W36558  11.704   6.350  14.948
72615W        W36559  11.641  21.686   2.696
72616W        W36560  13.261  23.209   2.836
72617W        W36561   0.776  27.465   2.302
72618W        W36562  21.693  19.671   4.716
72619W        W36563  40.929  34.550   0.471
72620W        W36564  21.745  29.441  11.453
72621W        W36565  23.135  12.670   4.220
72622W        W36566  24.519  37.516   2.847
72623W        W36567  44.461  40.892  12.578
72624W        W36568  32.525   6.334   3.298
72625W        W36569   1.288  16.591  10.626
72626W        W36570  22.126  29.557   3.666
72627W        W36571  24.137  41.947   2.311
72628W        W36572  25.620   2.278  12.353
72629W        W36573  43.857   3.841   0.919
72630W        W36574  12.132   7.188  13.883
72631W        W36575  43.500   7.710   3.637
72632W        W36576  30.031  37.080   0.270
72633W        W36577  17.778  36.398   0.271
72634W        W36578  31.485  18.287   3.722
72635W        W36579  12.297  29.646  14.859
72636W        W36580  38.895  42.826   4.196
72637W        W36581  17.286  42.820  14.781
72638W        W36582   6.717  36.054  11.431
72639W        W36583   9.870  11.260  13.339
72640W        W36584  31.634  25.030  11.503
72641W        W36585  30.571  35.931  13.468
72642W        W36586  12.840  15.806  10.003
72643W        W36587   8.727  17.143   1.904
72644W        W36588  40.966  18.574   4.214
72645W        W36589  23.600  37.848  13.888
72646W        W36590  12.846   4.417   4.640
72647W        W36591  14.141  39.841  10.974
72648W        W36592  20.748  35.041   1.898
72649W        W36593  28.157   3.915   0.291
72650W        W36594   9.261  39.330  13.009
72651W        W36595  15.225   9.856  10.557
72652W        W36596  28.104  31.643  12.873
72653W        W36597  33.057   5.257   0.432
72654W        W36598  28.998  16.148   1.733
72655W        W36599   7.715  38.998  13.496
72656W        W36600   5.412  42.464   4.254
72657W        W36601  27.033  35.039   4.281
72658W        W36602  25.046  37.361   3.780
72659W        W36603   7.870   6.765  11.978
72660W        W36604  21.636  39.852   4.607
72661W        W36605   4.293  18.612   4.760
72662W        W36606  15.185  30.468   2.282
72663W        W36607  24.228   8.872   3.154
72664W        W36608  43.373   2.954  10.418
72665W        W36609  12.734  34.939  13.349
72666W        W36610  38.476  39.032   0.299
72667W        W36611  18.778  36.956  14.496
72668W        W36612   9.814  40.374  13.417
72669W        W36613  25.521   0.869   3.243
72670W        W36614  43.793  31.953  12.946
72671W        W36615  42.302  23.622   2.309
72672W        W36616  19.694  37.871   3.640
72673W        W36617   0.953  28.452  13.878
72674W        W36618   7.901  26.560  12.369
72675W        W36619  23.502  43.298   1.915
72676W        W36620  40.803   8.864   2.825
72677W        W36621   6.776  24.605  13.500
72678W        W36622   5.361  16.645   4.769
72679W        W36623  33.469  30.986   2.694
72680W        W36624  29.941   9.165  11.034
72681W        W36625  43.921  32.521  10.518
72682W        W36626  26.658   0.466   4.775
72683W        W36627  33.966   7.759  13.907
72684W        W36628  44.489   6.291  14.032
72685W        W36629  35.077  14.107  10.601
72686W        W36630   6.253  34.913  13.323
72687W        W36631  24.157   0.791   4.660
72688W        W36632  40.449  18.078  14.841
72689W        W36633  38.463  37.047   4.740
72690W        W36634  43.921  34.560   4.276
72691W        W36635  29.052  16.227  10.431
72692W        W36636  43.915   2.916  13.401
72693W        W36637  35.878  37.971  13.444
72694W        W36638  12.354  37.038   2.401
72695W        W36639   5.850  29.012  10.987
72696W        W36640  42.801  20.700   0.763
72697W        W36641  23.227   1.395   3.173
72698W        W36642  44.313  32.569   3.261
72699W        W36643  14.143  15.808  13.389
72700W        W36644  10.852  25.047   1.392
72701W        W36645  10.227  28.973   4.338
72702W        W36646  35.004   3.318  12.866
72703W        W36647  40.350  13.676   1.767
72704W        W36648  27.579  23.522  13.801
72705W        W36649  35.364  10.195   4.137
72706W        W36650   9.200   6.392  11.443
72707W        W36651  38.943  13.142   1.705
72708W        W36652  42.785  41.003   0.737
72709W        W36653   9.271  27.135  12.901
72710W        W36654  25.604  33.952  13.396
72711W        W36655  32.426  10.375   3.847
72712W        W36656  20.233  11.778  12.544
72713W        W36657  19.726   2.767  14.450
72714W        W36658  10.332  12.242  12.461
72715W        W36659  33.620  17.285   2.366
72716W        W36660  14.178  24.222   0.427
72717W        W36661  17.659  36.439  13.849
72718W        W36662  40.897  23.561  13.395
72719W        W36663  30.413  20.244   4.211
72720W        W36664  18.687  30.637  10.567
72721W        W36665  31.545  26.681   4.640
72722W        W36666   8.718  10.672  13.441
72723W        W36667  40.449  16.781   1.341
72724W        W36668  13.232  28.528  11.427
72725W        W36669   6.266  34.002  10.445
72726W        W36670  12.232   8.833  14.873
72727W        W36671  12.218   6.199   3.228
72728W        W36672   5.406  19.689   2.794
72729W        W36673  24.163  17.227   5.087
72730W        W36674  23.559  14.732  13.917
72731W        W36675  12.326  21.712   2.253
72732W        W36676   3.842  43.285   4.136
72733W        W36677  33.999  37.414  12.942
72734W        W36678  17.186  22.681  13.496
72735W        W36679  32.487   0.938   3.257
72736W        W36680  14.590  38.400  12.355
72737W        W36681  44.956  27.606  10.447
72738W        W36682  33.100  37.436  11.944
72739W        W36683  21.077  38.075  13.449
72740W        W36684  40.823   5.889  12.039
72741W        W36685  22.062  36.925   0.842
72742W        W36686  34.467  39.545  13.013
72743W        W36687  10.179  31.611  11.122
72744W        W36688  33.966  12.670  11.453
72745W        W36689  17.563  25.056   2.674
72746W        W36690  19.687  40.332  10.499
72747W        W36691  17.102  17.285  14.967
72748W        W36692  44.806  19.672   1.270
72749W        W36693  11.200  34.007  11.590
72750W        W36694  14.283  14.629  13.011
72751W        W36695  23.590   7.699   0.427
72752W        W36696   7.298  36.076  11.592
72753W        W36697  44.854  19.778   1.866
72754W        W36698   0.883  10.634   4.180
72755W        W36699  24.028  39.934  10.485
72756W        W36700  11.698  14.115   4.758
72757W        W36701  28.518   7.730   3.819
72758W        W36702  15.199  10.651  10.502
72759W        W36703   7.388  11.174   3.361
72760W        W36704   1.803   4.771  13.443
72761W        W36705   7.823   7.840  10.954
72762W        W36706   3.379  25.101   4.230
72763W        W36707  24.629   7.255   0.742
72764W        W36708   3.804  38.488  13.898
72765W        W36709  28.592  35.887   4.656
72766W        W36710  33.880  15.773   3.241
72767W        W36711  26.966  40.013   4.204
72768W        W36712  16.257  14.658   1.368
72769W        W36713   5.267  11.338  12.048
72770W        W36714  20.098  33.116   1.343
72771W        W36715  21.724  22.556   3.255
72772W        W36716   3.854  42.953  12.554
72773W        W36717  35.015  12.261  14.812
72774W        W36718  30.982  14.805   0.324
72775W        W36719  16.805   5.312   0.800
72776W        W36720  11.667   8.738  13.986
72777W        W36721  19.069  32.578  13.489
72778W        W36722  26.179  24.657   0.809
72779W        W36723  41.016  40.542  10.508
72780W        W36724  39.926   8.864  13.464
72781W        W36725  16.302   5.434  13.862
72782W        W36726  33.048  18.255  11.031
72783W        W36727  26.566   6.286  11.515
72784W        W36728   9.266  43.443   1.279
72785W        W36729  38.043   7.375   3.339
72786W        W36730   1.448   8.378   4.267
72787W        W36731  20.178  43.795   3.704
72788W        W36732   9.153  11.364  13.936
72789W        W36733  40.484  16.801   2.826
72790W        W36734  11.242  44.296   3.689
72791W        W36735   2.924  30.578   2.783
72792W        W36736  22.584  30.447  14.799
72793W        W36737  10.146  27.051   3.631
72794W        W36738  35.094  30.162  14.980
72795W        W36739  10.804  40.953  11.922
72796W        W36740   7.373  13.114   4.755
72797W        W36741  27.033  27.551  12.026
72798W        W36742  19.089  38.498  12.872
72799W        W36743  44.469  37.866   4.344
72800W        W36744   3.743  32.051   1.341
72801W        W36745  19.560  11.783   1.425
72802W        W36746  32.635   5.908   2.269
72803W        W36747  23.576  17.128   2.293
72804W        W36748  35.923  10.232   2.812
72805W        W36749   8.741   8.369  13.790
72806W        W36750  12.759   2.234  10.581
72807W        W36751  43.352  30.538   2.832
72808W        W36752   2.899  26.497   0.336
72809W        W36753  27.959  31.519   1.406
72810W        W36754  24.058   3.335  13.043
72811W        W36755  30.491  36.439   2.245
72812W        W36756  33.943  25.037  12.497
72813W        W36757  21.561  33.405   0.470
72814W        W36758  17.080  35.572   1.766
72815W        W36759  29.484   4.428  12.947
72816W        W36760  36.096  21.060  14.277
72817W        W36761  16.666  21.121  13.039
72818W        W36762  23.990  17.774   4.714
72819W        W36763  41.907  42.350  11.945
72820W        W36764  39.326  12.120  14.509
72821W        W36765  35.398  19.226   4.694
72822W        W36766  33.054  10.363  10.985
72823W        W36767  20.665  23.126   4.292
72824W        W36768   0.850  37.576  13.814
72825W        W36769  12.720  14.600  11.095
72826W        W36770  18.678  31.636  11.088
72827W        W36771  37.860  41.886   2.357
72828W        W36772  28.457  32.406   1.877
72829W        W36773  20.546  35.365   3.649
72830W        W36774  12.826  29.076  13.049
72831W        W36775   1.770  32.577  11.477
72832W        W36776  13.291   2.292  13.544
72833W        W36777  44.475  11.765   2.815
72834W        W36778   7.230   9.726   3.250
72835W        W36779  23.684   3.721   4.268
72836W        W36780  38.850  43.370  13.434
72837W        W36781  22.510   5.720   2.714
72838W        W36782  23.143   0.902   0.417
72839W        W36783   0.960  26.173   1.413
72840W        W36784  22.224  30.967   0.349
72841W        W36785  34.100  24.141   0.814
72842W        W36786  10.248  18.189   3.674
72843W        W36787  38.541  33.110   4.213
72844W        W36788  29.078  42.418  13.957
72845W        W36789  12.849  14.610  12.832
72846W        W36790  41.369   5.361  11.606
72847W        W36791  35.491  37.915  13.513
72848W        W36792  18.069  11.222   0.740
72849W        W36793  17.726   0.353  14.457
72850W        W36794  27.955  26.487  13.841
72851W        W36795  34.879  41.336   9.927
72852W        W36796  15.651  33.425  13.444
72853W        W36797  21.024  23.688   5.215
72854W        W36798  18.624  10.163   2.391
72855W        W36799  33.484  36.470  11.453
72856W        W36800   1.443  24.999  14.920
72857W        W36801  30.567  24.077  11.526
72858W        W36802   4.262  42.354  13.543
72859W        W36803  36.087  36.447   0.746
72860W        W36804  38.972  43.400  11.388
72861W        W36805  30.041   9.710   1.769
72862W        W36806  42.445  25.510  12.444
72863W        W36807  32.605  18.162   1.425
72864W        W36808   9.344  31.073  10.020
72865W        W36809  30.987   7.406   3.750
72866W        W36810  30.516   9.239  11.104
72867W        W36811  17.656  31.969   4.785
72868W        W36812   7.848  17.680   2.896
72869W        W36813  32.500   7.797   1.712
72870W        W36814  37.578  36.999   0.268
72871W        W36815  12.705   0.837   0.327
72872W        W36816   9.256  35.492  14.918
72873W        W36817  34.425   2.256  14.763
72874W        W36818  22.029  24.179   2.199
72875W        W36819   4.296  19.774   0.397
72876W        W36820  29.428  25.585   1.834
72877W        W36821  35.562  10.693   0.358
72878W        W36822   8.775  41.861  11.912
72879W        W36823  43.321  27.530   3.652
72880W        W36824   8.694  17.704  10.597
72881W        W36825  28.931  43.801  13.354
72882W        W36826  42.343  22.144  13.339
72883W        W36827  32.142  12.685  13.357
72884W        W36828   1.246   1.910   3.863
72885W        W36829  26.055  29.920   4.143
72886W        W36830  15.809  14.143  13.341
72887W        W36831  12.172  24.050   4.184
72888W        W36832  38.528  16.247   3.350
72889W        W36833  33.599  33.104   3.330
72890W        W36834  32.129  43.839  12.075
72891W        W36835  41.024  14.120   1.712
72892W        W36836  31.129  20.743  12.086
72893W        W36837  31.576  22.688  11.051
72894W        W36838  30.093  44.877   2.666
72895W        W36839   8.204  33.410   1.723
72896W        W36840  22.515  38.948  10.130
72897W        W36841   4.698  36.398  10.588
72898W        W36842  39.964  21.205   1.318
72899W        W36843  16.647   6.323   1.356
72900W        W36844  35.391   9.663   2.334
72901W        W36845  25.138  11.276   1.919
72902W        W36846  12.845  32.589   2.698
72903W        W36847  11.344  14.681  14.344
72904W        W36848   6.420  24.048   2.308
72905W        W36849  24.083   2.727  12.085
72906W        W36850  38.401  39.459   0.937
72907W        W36851  31.613   5.372  10.546
72908W        W36852  17.084  17.746  10.415
72909W        W36853  34.963   5.364   2.238
72910W        W36854  18.272  33.086  14.922
72911W        W36855   4.251  27.495   0.463
72912W        W36856  41.960  29.519  12.481
72913W        W36857  15.160   7.230  11.058
72914W        W36858  16.276  28.465   3.835
72915W        W36859  34.374  44.283  13.906
72916W        W36860  15.225  24.199   2.786
72917W        W36861  34.956   9.683   1.433
72918W        W36862  35.921  19.057   3.228
72919W        W36863  40.457  25.645  14.440
72920W        W36864   9.198  26.654  14.974
72921W        W36865   2.863  30.073   0.481
72922W        W36866   3.854  24.985   3.723
72923W        W36867  35.911   6.282  14.836
72924W        W36868  32.527  40.377   2.703
72925W        W36869  34.872  29.498  13.008
72926W        W36870   5.766  25.681  14.917
72927W        W36871  24.029   4.423   1.250
72928W        W36872  12.159   5.218   1.432
72929W        W36873  10.651  14.636  10.906
72930W        W36874  40.025  21.048  11.082
72931W        W36875  29.107   2.946   0.741
72932W        W36876  35.497   1.882   0.297
72933W        W36877  17.609  22.543  11.977
72934W        W36878  23.570  44.862  14.309
72935W        W36879  25.970  32.582   4.691
72936W        W36880  13.686  18.125   0.911
72937W        W36881  37.531  34.430  11.096
72938W        W36882  21.590  21.147   5.277
72939W        W36883  16.135  24.681   3.212
72940W        W36884  14.704  35.993  12.570
72941W        W36885  35.479  44.478  10.976
72942W        W36886   0.870  16.311  13.954
72943W        W36887  14.822  23.532   1.789
72944W        W36888  28.561  37.912  10.036
72945W        W36889  43.981   1.269  12.440
72946W        W36890  28.026   2.242  11.088
72947W        W36891  13.753   1.474   0.294
72948W        W36892  20.216   7.864   4.250
72949W        W36893  24.136  43.934  14.826
72950W        W36894   8.788  21.649   3.692
72951W        W36895  31.403  35.588  10.475
72952W        W36896  15.198   7.798  13.949
72953W        W36897  18.177  10.383   0.928
72954W        W36898  17.795   5.218  12.852
72955W        W36899  33.538   3.262   0.310
72956W        W36900  30.473  11.834   3.258
72957W        W36901  21.639  21.122  12.497
72958W        W36902  23.991  31.637   1.327
72959W        W36903  43.300  40.833   2.204
72960W        W36904  32.935  19.101  14.383
72961W        W36905  25.998  15.806  12.472
72962W        W36906  39.347  29.027   1.782
72963W        W36907  23.110  19.690  13.391
72964W        W36908  32.508  19.562   4.812
72965W        W36909  44.978  13.748  12.343
72966W        W36910  11.685  34.109   0.884
72967W        W36911  41.358  37.968   0.425
72968W        W36912   7.875  23.160  11.474
72969W        W36913  37.343  24.210   1.879
72970W        W36914  26.090   5.209  12.462
72971W        W36915  38.462  19.062   4.174
72972W        W36916  40.410  41.360   1.873
72973W        W36917  14.285  15.151  12.521
72974W        W36918  22.092  16.710  12.038
72975W        W36919  15.702   6.249  11.415
72976W        W36920  29.601  21.048   3.252
72977W        W36921  39.377  11.789   3.809
72978W        W36922  22.055  13.120  14.295
72979W        W36923  43.386  33.410   0.818
72980W        W36924  34.892  11.808   4.825
72981W        W36925  20.170  39.519  14.505
72982W        W36926  31.479  23.496   2.776
72983W        W36927   9.874  27.567  10.078
72984W        W36928  32.593   4.879  11.490
72985W        W36929  44.292  21.696  14.369
72986W        W36930  37.416  42.882   4.801
72987W        W36931   9.677  21.739   4.167
72988W        W36932  44.905  35.541  10.904
72989W        W36933  10.180  35.885   2.855
72990W        W36934  41.000  10.313   0.957
72991W        W36935  10.203  34.965  10.935
72992W        W36936  41.409  25.651  14.477
72993W        W36937  29.596  22.677   1.268
72994W        W36938  28.467   8.356  12.473
72995W        W36939  25.176  31.469   4.833
72996W        W36940  14.099  12.639   0.915
72997W        W36941  35.471  30.485  12.882
72998W        W36942  44.394  17.070   5.248
72999W        W36943  16.611  40.411   3.328
73000W        W36944  16.152  11.360   1.935
73001W        W36945  42.343  39.836  13.061
73002W        W36946   7.413  13.176  14.971
73003W        W36947  28.949  23.063  13.954
73004W        W36948  11.311   1.849   2.279
73005W        W36949   8.782  35.457  12.341
73006W        W36950  19.044  35.871  11.409
73007W        W36951  24.524  41.339  10.458
73008W        W36952  35.918  31.416   3.263
73009W        W36953   5.862  16.295  14.454
73010W        W36954  18.757  17.766  12.045
73011W        W36955  20.172  44.441  13.429
73012W        W36956  19.735  39.968   0.292
73013W        W36957  10.342  39.992  11.975
73014W        W36958  16.169  12.323  14.503
73015W        W36959  32.100  41.497  11.003
73016W        W36960   0.748   9.246   3.274
73017W        W36961  28.612  37.446  14.837
73018W        W36962  10.736  33.001   0.340
73019W        W36963  28.507   3.952   1.821
73020W        W36964  21.584  12.270   4.817
73021W        W36965  36.491  43.483   4.605
73022W        W36966  33.588  31.907   5.183
73023W        W36967   1.744  25.668  14.371
73024W        W36968  23.214  41.854   3.782
73025W        W36969  26.105   9.680  14.408
73026W        W36970  29.437  29.554  12.372
73027W        W36971  38.330  39.392   2.785
73028W        W36972  44.463  13.694   3.213
73029W        W36973  21.571   6.209   1.772
73030W        W36974  20.136  12.630  13.872
73031W        W36975  18.238  44.356   2.858
73032W        W36976   0.318   4.361   4.248
73033W        W36977  32.977  14.163  10.439
73034W        W36978  34.532  15.182  10.501
73035W        W36979   0.263   1.766  11.521
73036W        W36980  18.745  23.506  12.370
73037W        W36981  36.924  30.146   4.835
73038W        W36982  37.472  33.062   2.258
73039W        W36983  12.787  42.986  12.965
73040W        W36984  19.269  24.990  12.560
73041W        W36985  14.318  40.316   1.379
73042W        W36986  42.413  27.519   2.803
73043W        W36987  27.585  27.565   2.296
73044W        W36988  25.204  39.877   1.263
73045W        W36989  17.141  18.092   2.309
73046W        W36990  33.488  11.630  11.078
73047W        W36991  30.478  19.268   0.339
73048W        W36992  22.654  33.040  11.576
73049W        W36993  37.927   0.446  14.861
73050W        W36994  14.728   0.773   1.762
73051W        W36995   6.850  33.484   4.808
73052W        W36996  32.979   5.260  13.864
73053W        W36997  15.743  37.083  11.955
73054W        W36998  42.927  13.757   0.246
73055W        W36999  28.015  38.928   9.437
73056W        W37000  42.998  40.481   1.271
73057W        W37001  29.631  39.348   5.254
73058W        W37002  32.569  28.082  10.451
73059W        W37003   5.726   5.694  14.804
73060W        W37004  41.010  18.205  11.411
73061W        W37005  41.932  18.220  10.160
73062W        W37006   2.226  41.363   1.834
73063W        W37007  28.500  12.687  11.859
73064W        W37008  28.034  44.281   0.879
73065W        W37009  29.662  44.449   3.804
73066W        W37010   5.781  19.108   2.204
73067W        W37011   3.845  30.145  14.868
73068W        W37012  18.602  20.636   4.767
73069W        W37013  14.196   5.823  14.868
73070W        W37014  17.186  39.419  11.948
73071W        W37015  16.187  27.007   4.612
73072W        W37016  12.266   2.375  13.048
73073W        W37017   5.794   1.424  14.002
73074W        W37018  41.922  41.841  13.527
73075W        W37019  15.247  29.115  12.953
73076W        W37020  40.038  17.557  13.414
73077W        W37021  41.876  29.949  12.827
73078W        W37022  32.616  13.335  12.574
73079W        W37023  32.056   8.364  12.538
73080W        W37024  32.613  43.889  12.982
73081W        W37025   8.878  44.363   2.692
73082W        W37026  41.327   6.712   2.275
73083W        W37027  14.631  30.058  13.461
73084W        W37028   2.769  39.550   2.682
73085W        W37029  21.628  23.497   1.842
73086W        W37030  19.170  15.255   2.776
73087W        W37031  28.466  42.290   4.609
73088W        W37032  27.092  33.514  12.373
73089W        W37033  10.179  12.639  10.037
73090W        W37034  35.383  43.877   3.802
73091W        W37035   1.858  41.802  14.001
73092W        W37036  14.796  31.455  12.406
73093W        W37037  37.338  34.079  12.377
73094W        W37038  44.859  29.038   2.779
73095W        W37039  29.549  35.065   2.361
73096W        W37040  17.196  23.690   0.277
73097W        W37041  20.248   7.802   4.697
73098W        W37042  13.834  31.576  12.571
73099W        W37043  36.863  19.065  11.395
73100W        W37044  43.952  36.404  13.414
73101W        W37045  14.171  12.769  10.094
73102W        W37046  11.803   1.395  12.915
73103W        W37047  27.135  11.676   3.328
73104W        W37048   0.343  31.587   3.318
73105W        W37049  35.383  22.242  13.051
73106W        W37050  41.535  25.568  10.592
73107W        W37051  18.721  42.795   2.814
73108W        W37052  12.362  42.029   4.133
73109W        W37053   9.789  24.654   2.285
73110W        W37054  27.101  10.675  12.961
73111W        W37055  35.379  31.919  11.007
73112W        W37056  11.205  17.135   4.676
73113W        W37057  25.662  30.926   2.408
73114W        W37058   5.720  24.170   0.822
73115W        W37059  21.591  16.689  10.635
73116W        W37060   2.964  19.098  12.068
73117W        W37061  42.898  25.075  14.290
73118W        W37062  13.322   2.928   3.706
73119W        W37063  29.931   3.325   4.183
73120W        W37064  34.394   3.457  13.321
73121W        W37065   9.253  35.358   3.818
73122W        W37066  25.963  39.884   5.653
73123W        W37067  30.005  38.465   2.230
73124W        W37068  28.524  39.514   0.245
73125W        W37069  22.533  18.064   2.319
73126W        W37070  44.982   8.171   1.881
73127W        W37071  27.531  21.719   2.296
73128W        W37072   8.821   4.721   3.710
73129W        W37073  37.355  33.408   4.180
73130W        W37074   6.909  10.744   2.313
73131W        W37075  17.689  22.241   4.645
73132W        W37076  15.627  33.599   0.800
73133W        W37077   9.365  17.306   3.803
73134W        W37078  10.269  12.305   1.914
73135W        W37079  18.069  26.120   2.258
73136W        W37080  24.987  26.484  12.503
73137W        W37081  13.297  33.925   9.552
73138W        W37082  31.052   9.776   4.240
73139W        W37083  40.834  14.718  13.437
73140W        W37084   3.871  18.055   2.883
73141W        W37085  25.640  40.469   1.796
73142W        W37086  37.374  31.460  14.373
73143W        W37087   4.362  33.960   2.223
73144W        W37088   8.815  19.753   2.203
73145W        W37089   0.315  38.007  13.453
73146W        W37090   5.395  38.509  11.428
73147W        W37091  30.996  19.662   1.861
73148W        W37092  16.309   0.442  14.991
73149W        W37093  11.809   0.782  13.471
73150W        W37094   1.371   0.479   3.816
73151W        W37095  18.223  15.183  14.322
73152W        W37096  20.237  21.181  13.797
73153W        W37097   6.795  41.479  14.924
73154W        W37098  27.952  22.511   0.406
73155W        W37099  42.802   0.460  12.028
73156W        W37100  15.238  30.996   2.822
73157W        W37101   5.383  22.518   1.916
73158W        W37102  14.103   5.234   2.701
73159W        W37103  34.001  25.073  14.510
73160W        W37104   3.304  34.411  12.905
73161W        W37105  13.819  10.634   1.407
73162W        W37106   4.266  31.532  11.418
73163W        W37107  17.648  36.882   2.233
73164W        W37108  16.298  44.465  10.506
73165W        W37109   2.748  38.535   1.779
73166W        W37110  38.924  30.640   3.206
73167W        W37111  11.143   2.880   2.239
73168W        W37112  41.032   4.839   1.738
73169W        W37113  35.086  15.099  14.901
73170W        W37114  39.887  38.558   3.187
73171W        W37115  38.055   1.949   1.896
73172W        W37116   0.987  14.654  13.427
73173W        W37117  22.250  11.257  14.859
73174W        W37118  42.935  13.783  12.018
73175W        W37119  35.567  15.183  13.512
73176W        W37120  22.037  13.256  13.805
73177W        W37121  16.273   9.757   2.791
73178W        W37122  24.221   6.717  10.924
73179W        W37123  13.332  15.733   0.921
73180W        W37124  11.802   5.227  12.848
73181W        W37125  18.249  29.923   3.766
73182W        W37126   5.699  44.362  12.932
73183W        W37127   6.757  22.075  11.022
73184W        W37128  43.293   1.908  13.335
73185W        W37129  30.656   0.916   2.688
73186W        W37130  14.114  22.228  10.019
73187W        W37131   6.398  40.860   1.292
73188W        W37132  21.036  22.222   0.344
73189W        W37133   5.395  22.659   2.873
73190W        W37134  38.860  16.742   0.347
73191W        W37135  10.177  23.538   1.866
73192W        W37136  11.753  16.603   0.443
73193W        W37137  36.960   5.720  12.985
73194W        W37138  41.390  32.133  13.316
73195W        W37139   0.847  28.120   9.979
73196W        W37140  24.535  43.941   1.401
73197W        W37141  11.292  44.488  12.458
73198W        W37142  16.283  21.145  11.038
73199W        W37143  23.233  15.711  14.383
73200W        W37144  32.110  13.340   3.809
73201W        W37145  38.414  18.582   2.896
73202W        W37146  26.511  14.271   0.906
73203W        W37147   8.364  21.572   4.635
73204W        W37148   7.704  27.991  13.343
73205W        W37149  23.534  44.430   2.187
73206W        W37150  28.064  30.496  14.929
73207W        W37151  16.149  41.983   2.241
73208W        W37152  36.576  43.970  14.346
73209W        W37153   3.818  12.627   4.131
73210W        W37154  35.048  21.645  11.474
73211W        W37155  10.239  27.564  12.376
73212W        W37156  16.752  39.823   0.803
73213W        W37157  33.987  11.670  14.503
73214W        W37158  21.194   6.348  11.915
73215W        W37159  31.915  35.595  11.601
73216W        W37160  30.021   3.816  11.949
73217W        W37161  32.513  31.541   0.772
73218W        W37162   5.248   9.766  12.854
73219W        W37163  33.453  20.677   3.307
73220W        W37164   7.782  25.102   1.835
73221W        W37165   2.390  37.843  11.984
73222W        W37166  13.208  37.087   3.385
73223W        W37167  37.533  36.431   0.277
73224W        W37168  29.559  10.682   1.808
73225W        W37169  35.857  15.584   3.326
73226W        W37170  22.621  18.136  13.055
73227W        W37171  42.308  41.972  14.437
73228W        W37172  39.025   3.239   2.316
73229W        W37173  11.781  38.968  12.875
73230W        W37174  12.830  10.700  12.545
73231W        W37175  16.577  21.046  14.026
73232W        W37176  37.031   1.855  14.298
73233W        W37177  28.637   2.774  14.866
73234W        W37178  27.966  23.081  14.331
73235W        W37179   5.755  27.646  14.771
73236W        W37180  12.775   0.916  13.311
73237W        W37181  19.270  10.682   0.866
73238W        W37182  15.181  36.971   3.706
73239W        W37183  41.480  42.816  10.527
73240W        W37184   8.782  20.234   5.091
73241W        W37185  27.641  38.915  13.359
73242W        W37186  29.581   4.445  12.544
73243W        W37187   9.343   4.332   1.766
73244W        W37188  34.374  13.845  13.540
73245W        W37189  12.232  23.091  11.447
73246W        W37190  24.188  15.787  14.986
73247W        W37191  35.899  40.864  12.571
73248W        W37192  18.754  30.937  14.347
73249W        W37193  34.500   0.434  11.067
73250W        W37194  28.182   3.920  11.530
73251W        W37195  28.157  38.538   3.685
73252W        W37196  11.288  21.231   3.758
73253W        W37197  33.057  30.478   4.649
73254W        W37198   4.862  15.770   2.789
73255W        W37199  14.610  25.148  11.966
73256W        W37200  10.164   9.372  11.045
73257W        W37201  22.681   3.928  11.495
73258W        W37202  23.570   2.228   4.825
73259W        W37203  33.978  32.958   1.883
73260W        W37204   6.826  34.958   2.900
73261W        W37205  37.572  28.558   2.781
73262W        W37206  14.291  28.173  14.846
73263W        W37207  10.193   4.354   0.798
73264W        W37208  17.197  32.556  11.441
73265W        W37209  26.679  33.108  12.572
73266W        W37210   2.285  29.098  12.983
73267W        W37211  19.544  30.064  13.524
73268W        W37212  26.957  26.024   2.723
73269W        W37213  10.833  25.991   3.778
73270W        W37214  32.435  25.155  11.011
73271W        W37215   0.398  31.644  12.468
73272W        W37216  17.590  10.791   4.704
73273W        W37217  18.232  25.510  14.375
73274W        W37218  27.634  40.882   2.748
73275W        W37219   9.759   9.681   2.252
73276W        W37220  43.816  36.475   4.670
73277W        W37221  35.869  17.629  13.977
73278W        W37222  33.578   3.223  14.355
73279W        W37223  21.129  16.272  14.435
73280W        W37224   0.801   1.286  14.852
73281W        W37225  22.031  37.452   5.114
73282W        W37226  34.006  43.876   0.763
73283W        W37227  28.146   3.810   4.736
73284W        W37228   1.922   0.296  11.992
73285W        W37229  14.748  37.945   0.820
73286W        W37230  10.324   5.400  12.042
73287W        W37231  19.113  16.719   0.472
73288W        W37232  27.121   2.337  10.929
73289W        W37233  22.581  25.136   0.807
73290W        W37234  14.642  37.345   2.880
73291W        W37235  29.989   5.329  14.801
73292W        W37236  29.554  25.029  11.405
73293W        W37237  12.844  38.042   3.216
73294W        W37238  20.142  31.986   0.743
73295W        W37239   4.862   9.690   2.381
73296W        W37240   1.928  33.513   3.382
73297W        W37241  10.368   4.445   0.255
73298W        W37242  37.423  36.010   1.719
73299W        W37243  29.540  23.660  10.125
73300W        W37244  32.910   0.254  12.037
73301W        W37245  40.501  44.416   2.290
73302W        W37246  32.014  41.454   0.850
73303W        W37247   0.494  23.495  11.996
73304W        W37248  42.881  40.478  11.096
73305W        W37249  28.532  35.970   2.180
73306W        W37250  44.933  31.637   2.860
73307W        W37251  30.077  19.637   1.381
73308W        W37252  18.739  33.555  11.925
73309W        W37253   6.714   8.697   4.794
73310W        W37254   4.443  31.972   2.406
73311W        W37255  21.736  29.137  14.344
73312W        W37256  16.076  12.714  13.956
73313W        W37257   0.423  28.628  13.426
73314W        W37258  39.372   2.299   4.131
73315W        W37259  16.098   6.751   3.804
73316W        W37260   4.898  41.475  14.351
73317W        W37261  41.338  15.298  13.822
73318W        W37262  21.751   5.382  14.332
73319W        W37263  25.995   1.904  13.937
73320W        W37264  27.146  34.502  10.412
73321W        W37265   0.902  27.454   4.225
73322W        W37266   7.861  23.643   3.196
73323W        W37267   3.791  32.081  13.496
73324W        W37268   3.397  13.224   1.770
73325W        W37269  30.144  18.619  12.472
73326W        W37270  16.798  16.143  14.830
73327W        W37271  40.918  36.410   1.892
73328W        W37272  41.492  25.176   0.358
73329W        W37273  11.669  33.459  12.002
73330W        W37274  41.941   6.847  13.998
73331W        W37275  25.691  24.583  12.560
73332W        W37276  34.474  24.108   4.178
73333W        W37277  13.745   8.801  14.935
73334W        W37278  27.511  10.155  10.460
73335W        W37279  34.487  18.774  13.432
73336W        W37280  41.395  27.555  12.027
73337W        W37281  17.741  34.904  14.337
73338W        W37282  21.123  16.810   0.831
73339W        W37283  10.155   0.465  14.827
73340W        W37284   1.440  22.232  12.529
73341W        W37285  34.025  25.489   3.816
73342W        W37286  14.616  41.004  14.914
73343W        W37287  18.700  42.862  11.993
73344W        W37288  30.553  31.609   1.322
73345W        W37289  26.206  32.435   1.721
73346W        W37290  23.133  36.490   3.655
73347W        W37291  31.483  42.005  13.980
73348W        W37292  12.212   7.780  10.476
73349W        W37293  36.430  38.972   0.270
73350W        W37294  17.565  22.164   1.906
73351W        W37295  34.048  40.808  14.280
73352W        W37296  22.103  30.592  14.837
73353W        W37297  26.467   3.768  13.482
73354W        W37298  26.600  24.515  14.427
73355W        W37299  44.810  12.274   2.802
73356W        W37300  16.255  14.654  13.544
73357W        W37301  11.813  35.366   3.157
73358W        W37302   5.261  44.870   1.434
73359W        W37303  41.506  44.938  13.918
73360W        W37304  20.525  43.845   3.251
73361W        W37305  26.141  19.674   2.395
73362W        W37306  16.154  35.109   3.290
73363W        W37307  35.441  12.267   2.763
73364W        W37308  13.155  35.049   2.378
73365W        W37309  15.616   4.433   1.444
73366W        W37310  44.909  29.927  14.881
73367W        W37311  40.411  12.355   4.789
73368W        W37312   6.372   4.876   0.785
73369W        W37313  29.605  31.614   4.819
73370W        W37314   2.825  29.165   3.220
73371W        W37315  13.628  21.572  12.532
73372W        W37316  38.499  35.539   2.842
73373W        W37317  12.263  19.774  13.487
73374W        W37318   8.323  11.686  11.064
73375W        W37319  17.176  42.439  14.022
73376W        W37320  25.142  25.154  14.459
73377W        W37321  36.936  36.591   4.599
73378W        W37322   1.762   3.732   3.203
73379W        W37323   7.904  21.056  10.953
73380W        W37324  12.625  23.584  10.550
73381W        W37325  24.612  42.418  12.849
73382W        W37326  40.321  22.126  11.598
73383W        W37327  32.580  25.576   0.955
73384W        W37328   6.423  21.166  10.506
73385W        W37329  37.025  13.661   0.253
73386W        W37330  38.473  13.767   1.739
73387W        W37331  34.886   6.712  14.361
73388W        W37332  30.458  32.055   0.250
73389W        W37333  34.880  15.738  10.967
73390W        W37334  25.696  39.323   0.857
73391W        W37335  41.983  11.651   5.114
73392W        W37336  22.105   5.731   2.847
73393W        W37337   5.340  28.051   9.943
73394W        W37338  37.854  14.240  10.957
73395W        W37339  29.430  28.579  12.483
73396W        W37340   2.336  44.424  12.887
73397W        W37341  41.502  28.953  14.313
73398W        W37342  20.711   5.283  12.561
73399W        W37343  21.634   0.487  10.420
73400W        W37344  37.580   4.909  14.333
73401W        W37345  42.989   2.251  13.515
73402W        W37346   4.871   2.290  12.097
73403W        W37347  32.396   6.385  14.333
73404W        W37348  25.533  34.989   1.231
73405W        W37349  19.055  17.673  13.340
73406W        W37350   9.187  10.324  14.983
73407W        W37351   7.306  18.654   5.213
73408W        W37352  29.919  28.460   0.944
73409W        W37353  32.421  36.421  12.978
73410W        W37354  21.202  33.499  10.637
73411W        W37355   9.337  38.442  13.049
73412W        W37356  35.866  11.713  10.561
73413W        W37357   3.867  35.059   0.822
73414W        W37358  15.712  22.628   1.245
73415W        W37359   1.456  18.670   0.892
73416W        W37360  21.563  17.658  11.058
73417W        W37361  23.097  21.078  12.996
73418W        W37362  18.555  11.210  12.061
73419W        W37363  21.228  42.877  10.428
73420W        W37364  16.625  22.043  14.414
73421W        W37365  36.426  36.959  14.892
73422W        W37366   1.944   6.702   0.963
73423W        W37367  37.521  38.403   4.171
73424W        W37368  35.412  26.177  10.495
73425W        W37369  13.611  29.528   4.189
73426W        W37370  33.934  17.583   1.256
73427W        W37371  41.367  32.465   4.287
73428W        W37372  20.690  25.207  12.842
73429W        W37373  29.122   7.243  12.556
73430W        W37374  31.039  30.459  12.429
73431W        W37375   9.659  31.104   9.490
73432W        W37376  25.061  44.010  13.833
73433W        W37377   9.294  17.779   0.824
73434W        W37378   3.448   2.383  12.364
73435W        W37379  28.076  43.302   1.381
73436W        W37380  13.140  14.824  13.446
73437W        W37381  30.467  37.409   0.413
73438W        W37382  19.771  33.528  13.989
73439W        W37383   2.392   0.808   0.926
73440W        W37384  11.805  15.676   4.675
73441W        W37385  21.754   4.820   2.315
73442W        W37386  42.525  24.480   0.441
73443W        W37387  18.612  42.882   1.882
73444W        W37388  24.700  16.648  12.455
73445W        W37389  43.289  39.874  12.398
73446W        W37390  18.692  14.333  11.865
73447W        W37391  29.452   8.829   4.690
73448W        W37392  40.398  26.569  11.412
73449W        W37393  14.608  26.075  13.425
73450W        W37394   9.229  12.249   4.651
73451W        W37395   1.420  34.944   3.720
73452W        W37396  26.060  29.598  11.017
73453W        W37397   8.864  12.203  14.443
73454W        W37398  14.741  39.421   2.874
73455W        W37399  27.952  12.198   3.208
73456W        W37400  21.104  29.954  11.465
73457W        W37401   6.806  14.811  10.960
73458W        W37402   6.786  32.393  11.899
73459W        W37403  14.295  32.532  13.831
73460W        W37404  43.372  17.071  10.945
73461W        W37405  27.128  40.494  12.066
73462W        W37406   4.774  31.622   0.957
73463W        W37407  33.450   2.307   0.325
73464W        W37408   6.801  25.006  13.367
73465W        W37409   8.767  44.260   1.371
73466W        W37410  30.019   6.340   0.395
73467W        W37411  36.858   3.753  10.423
73468W        W37412  22.244  33.485  11.073
73469W        W37413  32.074  20.077   3.309
73470W        W37414  23.074  15.672   2.891
73471W        W37415   8.171  25.169  10.412
73472W        W37416   8.267   9.844  14.952
73473W        W37417  40.879  19.564  13.488
73474W        W37418  36.552   3.770  12.471
73475W        W37419  11.255   0.268  13.837
73476W        W37420  18.296   2.922   0.946
73477W        W37421  20.088  28.093   4.661
73478W        W37422  17.723  10.223  11.572
73479W        W37423  35.897   9.166  11.610
73480W        W37424  34.406   4.386  10.972
73481W        W37425  34.469  23.643   3.276
73482W        W37426  16.185  27.027   1.751
73483W        W37427   9.219   2.900  14.279
73484W        W37428  33.601   2.354  11.485
73485W        W37429  42.015  18.635  14.925
73486W        W37430  20.653  37.083  12.901
73487W        W37431  30.945   6.249   1.322
73488W        W37432  40.350  32.459  12.865
73489W        W37433   8.724   7.391  14.443
73490W        W37434   6.249  16.581   2.198
73491W        W37435  20.170  13.230  11.912
73492W        W37436  24.031  11.732   9.972
73493W        W37437  22.113  31.080  11.037
73494W        W37438   9.358  44.490   1.359
73495W        W37439   0.269  33.114   2.380
73496W        W37440   9.820  28.676   1.339
73497W        W37441  19.770  32.415   3.149
73498W        W37442  14.235  43.906  12.034
73499W        W37443  16.727  18.594   4.782
73500W        W37444  22.020  23.139  11.546
73501W        W37445  34.116  25.614  13.041
73502W        W37446  27.020   3.430  11.447
73503W        W37447  38.984  28.150  14.456
73504W        W37448  23.076  29.134  13.539
73505W        W37449  36.915  24.699   3.338
73506W        W37450  22.702   0.302  10.117
73507W        W37451  42.289   2.282   3.651
73508W        W37452  33.548  15.104   2.295
73509W        W37453  24.136   9.732   0.810
73510W        W37454  11.754  11.663  13.328
73511W        W37455  20.123  38.860  14.320
73512W        W37456  26.574  42.366   4.259
73513W        W37457   3.797  30.488  14.932
73514W        W37458  31.457  32.911  12.439
73515W        W37459  19.738  12.747  13.363
73516W        W37460   6.354  42.372  11.465
73517W        W37461   1.338  32.395   1.834
73518W        W37462  20.568  19.677  14.433
73519W        W37463  23.529  41.025  12.091
73520W        W37464  32.013   4.923   0.432
73521W        W37465  18.216  18.075  13.848
73522W        W37466  11.155  13.314   2.314
73523W        W37467  23.701   7.250   1.835
73524W        W37468  19.727  38.327  11.938
73525W        W37469  19.267  19.720   3.808
73526W        W37470   7.201  25.625   1.928
73527W        W37471  26.990  24.618   0.424
73528W        W37472  41.511  11.646  14.809
73529W        W37473  38.458  32.026   2.881
73530W        W37474  26.566   9.274   4.787
73531W        W37475  21.048   5.788   1.391
73532W        W37476  31.572  40.890  10.935
73533W        W37477   9.788  25.042  10.635
73534W        W37478   0.445  33.908   2.778
73535W        W37479   5.366  12.295   3.254
73536W        W37480  15.108  30.427   4.837
73537W        W37481  20.646  19.560  13.419
73538W        W37482  15.285  41.294   0.310
73539W        W37483  28.634  25.161   0.347
73540W        W37484  41.822  31.095  13.388
73541W        W37485  22.140  35.550  12.846
73542W        W37486  32.113   4.768  11.566
73543W        W37487  39.962  35.465  12.490
73544W        W37488   2.931   6.742  10.588
73545W        W37489  22.016  36.864  12.436
73546W        W37490  16.073  10.767  14.898
73547W        W37491  30.621  31.914  11.914
73548W        W37492   9.230  43.861  12.823
73549W        W37493  37.579  23.506   4.762
73550W        W37494  24.181  35.932   2.419
73551W        W37495   5.251  31.138   0.441
73552W        W37496  11.191   7.358   3.728
73553W        W37497  38.035   0.342   1.830
73554W        W37498  33.969  10.679  13.038
73555W        W37499  14.224  36.434   0.432
73556W        W37500   5.275  11.837  13.872
73557W        W37501  36.544  12.234  14.881
73558W        W37502  34.375   0.887  14.955
73559W        W37503  31.526  38.037   3.750
73560W        W37504  30.597  26.996  13.443
73561W        W37505  13.693  41.376   3.150
73562W        W37506  34.120  26.196  10.574
73563W        W37507   6.233  40.857  11.575
73564W        W37508  10.360  29.017   1.769
73565W        W37509  33.548   6.865   5.267
73566W        W37510  19.735  10.707  12.433
73567W        W37511  23.041   0.847  11.412
73568W        W37512  35.984  12.683  11.579
73569W        W37513  16.314  14.191  12.885
73570W        W37514   2.756  21.569   3.629
73571W        W37515  23.018  17.776   0.279
73572W        W37516   6.685  34.562   0.876
73573W        W37517  37.884  34.885   0.894
73574W        W37518  13.729  18.116  10.404
73575W        W37519   3.355  39.400   2.727
73576W        W37520   3.881  26.645  13.919
73577W        W37521  44.770   4.763   0.889
73578W        W37522   1.830  27.574  13.328
73579W        W37523  44.769  36.362  12.079
73580W        W37524  14.607  15.713  13.940
73581W        W37525  18.627  11.780  10.924
73582W        W37526  43.854  10.206   1.705
73583W        W37527   4.896   8.322   2.207
73584W        W37528  16.575  29.160   3.851
73585W        W37529  12.624  42.294  13.061
73586W        W37530  31.486  24.001   4.322
73587W        W37531  21.598  26.079   0.946
73588W        W37532  35.916  23.064  11.065
73589W        W37533  36.393  12.619   4.750
73590W        W37534   4.429  13.748  14.293
73591W        W37535  40.318  43.475   4.221
73592W        W37536  12.852  16.073   3.666
73593W        W37537   5.860  19.682  11.007
73594W        W37538  31.140  29.070   1.793
73595W        W37539  14.126  27.516  10.924
73596W        W37540   7.674  38.362   1.302
73597W        W37541   0.486   1.740  10.477
73598W        W37542  25.651  32.052   2.719
73599W        W37543  24.582  25.214   4.306
73600W        W37544  40.470  11.764  13.544
73601W        W37545  30.116  38.857   1.704
73602W        W37546   4.283  30.144   3.709
73603W        W37547  19.753   9.201  12.862
73604W        W37548   8.892  36.045   3.860
73605W        W37549  18.760  37.494  12.926
73606W        W37550  31.494  25.704   4.781
73607W        W37551  32.061  22.719  13.999
73608W        W37552  28.149  10.299  10.427
73609W        W37553  26.039  21.592  14.327
73610W        W37554   7.877   9.180  13.054
73611W        W37555   9.183   5.721   4.132
73612W        W37556  36.999  22.507   3.151
73613W        W37557  17.251  33.445   3.383
73614W        W37558   6.696  38.549  13.372
73615W        W37559  36.589   5.410   4.793
73616W        W37560  31.409  40.857   1.213
73617W        W37561   3.453  21.245  10.967
73618W        W37562   9.674  18.550  10.994
73619W        W37563   3.424  25.499   2.738
73620W        W37564  30.015  20.114   0.805
73621W        W37565   7.892  21.559   4.775
73622W        W37566  19.762  40.546   3.768
73623W        W37567  40.876  18.550  10.969
73624W        W37568  33.433   5.771   1.807
73625W        W37569  17.171  14.724   4.678
73626W        W37570  15.642  12.806   9.972
73627W        W37571  11.827  13.271  13.344
73628W        W37572  38.040   1.386  11.924
73629W        W37573  19.266  21.696   2.414
73630W        W37574  25.120  13.204   4.769
73631W        W37575   9.681  21.257  11.487
73632W        W37576   3.237  31.037   2.342
73633W        W37577   1.354  32.577  14.865
73634W        W37578   2.935  11.137  12.433
73635W        W37579  43.400  26.012   1.816
73636W        W37580   1.932  15.585  11.541
73637W        W37581  22.137   6.911   3.356
73638W        W37582  22.711  15.727   9.925
73639W        W37583  15.651  17.625  14.388
73640W        W37584  26.965  18.620  11.063
73641W        W37585  33.404  24.024  11.377
73642W        W37586  13.341   2.305  11.874
73643W        W37587  20.714  32.570   1.876
73644W        W37588  41.532  41.787   0.317
73645W        W37589  39.064  40.304  10.575
73646W        W37590   0.779  10.811  10.588
73647W        W37591   9.239   0.742   2.846
73648W        W37592  14.109  13.240  12.445
73649W        W37593  21.209  43.444  12.446
73650W        W37594  16.211  21.056   2.257
73651W        W37595  23.676  36.389   2.727
73652W        W37596  30.940  16.631   5.747
73653W        W37597   9.745  32.467   9.929
73654W        W37598  41.912  28.092  12.910
73655W        W37599  18.118  38.341   4.730
73656W        W37600   2.884  21.742   2.376
73657W        W37601  15.310  26.485   1.283
73658W        W37602  43.451  24.539  13.917
73659W        W37603   7.840   9.304   1.212
73660W        W37604  18.283   7.875   2.863
73661W        W37605  37.920  37.010   0.273
73662W        W37606   8.669  31.411  14.974
73663W        W37607   8.339   7.319  14.876
73664W        W37608  34.497  30.131   2.853
73665W        W37609  38.970  11.291   0.262
73666W        W37610  41.508  11.630  11.950
73667W        W37611  32.922  31.501  12.460
73668W        W37612  38.542  27.062  11.464
73669W        W37613  42.003  28.944  13.056
73670W        W37614   3.440  24.696  12.389
73671W        W37615  38.555  23.230   3.261
73672W        W37616  24.700   1.275   2.798
73673W        W37617  23.662  14.198   3.683
73674W        W37618  20.141   5.241   3.727
73675W        W37619   9.282   0.902  12.924
73676W        W37620  34.961   3.932   3.630
73677W        W37621   2.867  12.304   0.887
73678W        W37622  43.997   8.279  12.567
73679W        W37623  36.986  11.184   4.767
73680W        W37624  28.503  19.161  13.008
73681W        W37625  30.424  43.799  11.990
73682W        W37626   8.204  39.486  12.865
73683W        W37627   6.823  34.993  11.470
73684W        W37628   3.872  35.472   2.220
73685W        W37629  29.948  41.796   4.837
73686W        W37630  32.481  30.025  11.397
73687W        W37631  13.649  18.228   1.717
73688W        W37632   4.283   3.402  13.534
73689W        W37633  38.903  28.958  12.859
73690W        W37634   1.319  39.452  14.768
73691W        W37635  25.049  20.732   0.798
73692W        W37636   3.269  38.963  14.338
73693W        W37637  21.539  36.018   1.316
73694W        W37638  40.844  10.206  12.906
73695W        W37639   7.253   1.332   1.768
73696W        W37640  42.356  43.405  13.006
73697W        W37641   4.885  43.444   2.740
73698W        W37642  11.630  36.943  13.461
73699W        W37643  40.015  32.905  13.529
73700W        W37644   2.947  23.718   1.363
73701W        W37645  30.006  19.147  13.497
73702W        W37646  37.987  37.358   0.344
73703W        W37647  18.067   2.443   0.730
73704W        W37648  17.772  28.468   4.251
73705W        W37649  15.773  27.574  10.516
73706W        W37650  16.633  22.251   0.944
73707W        W37651  28.553  44.896  10.938
73708W        W37652  36.001   9.698   3.796
73709W        W37653   5.220   7.376  13.548
73710W        W37654   9.769  26.967   4.176
73711W        W37655  15.748  17.594  11.445
73712W        W37656  23.631  37.475  13.436
73713W        W37657  21.035   5.408   4.708
73714W        W37658  18.704  33.514   4.715
73715W        W37659   3.856  31.564   4.307
73716W        W37660  30.969  36.031   2.264
73717W        W37661   1.854  31.419   4.680
73718W        W37662  11.814  21.665  10.897
73719W        W37663  31.038  13.246   4.165
73720W        W37664  30.053  12.350  14.993
73721W        W37665  25.089  31.015  12.872
73722W        W37666   2.443  31.123  10.480
73723W        W37667  30.040  15.647   2.317
73724W        W37668  20.696  43.355  13.342
73725W        W37669  22.191   1.313   2.663
73726W        W37670  40.420  13.138  14.813
73727W        W37671  26.563  40.423  11.508
73728W        W37672   2.938   0.288  11.422
73729W        W37673   7.198  42.866   2.821
73730W        W37674  36.914  11.810  12.034
73731W        W37675  42.327   1.245   1.780
73732W        W37676  36.448  44.882   2.380
73733W        W37677  23.128  10.844   3.327
73734W        W37678  26.674  16.750  11.048
73735W        W37679  24.533  11.784   3.808
73736W        W37680  36.928  40.371   1.903
73737W        W37681   0.292   2.322  11.599
73738W        W37682  21.113   0.883   4.682
73739W        W37683  16.238  10.725  13.382
73740W        W37684   6.739  17.194  12.386
73741W        W37685  11.332  28.646   3.705
73742W        W37686  41.452   2.962  13.508
73743W        W37687  28.644  24.224   3.757
73744W        W37688  26.175  12.836  14.975
73745W        W37689  20.189  24.546  11.995
73746W        W37690  33.476  27.127   2.363
73747W        W37691  26.692   1.936  13.459
73748W        W37692   3.953   4.265   0.320
73749W        W37693  12.289  42.954  14.433
73750W        W37694  25.192  24.119   0.244
73751W        W37695  13.270  27.616  14.355
73752W        W37696  36.458  30.111   3.367
73753W        W37697  11.842  36.366  13.866
73754W        W37698  28.009  39.867   0.303
73755W        W37699   4.747  42.863  11.029
73756W        W37700   8.747  10.185  12.464
73757W        W37701  31.126  19.261   0.855
73758W        W37702  19.695  20.174  14.873
73759W        W37703  26.003  10.357  14.288
73760W        W37704  38.562  42.401   2.379
73761W        W37705  13.740   5.208   2.258
73762W        W37706  19.154  43.987  14.489
73763W        W37707  22.690  25.206  14.943
73764W        W37708   0.375  42.859   1.769
73765W        W37709  12.851  37.042  12.572
73766W        W37710   5.790  25.705   1.301
73767W        W37711  11.671  18.239  14.849
73768W        W37712  32.992  22.096   3.867
73769W        W37713  38.052  16.760  12.904
73770W        W37714  25.536  19.270  11.042
73771W        W37715  38.337  36.064   0.898
73772W        W37716   2.441  44.840   1.869
73773W        W37717   4.231  23.615  13.449
73774W        W37718  18.109  29.009   0.393
73775W        W37719   9.769  32.466   5.776
73776W        W37720  28.042  25.986  10.895
73777W        W37721  19.279   6.746  11.900
73778W        W37722  22.113  40.047  11.606
73779W        W37723  16.132  32.452  13.934
73780W        W37724   0.917  39.982  11.099
73781W        W37725  19.743  41.431  11.447
73782W        W37726  28.032  11.196   4.654
73783W        W37727   6.732   0.377   0.860
73784W        W37728  22.186  24.664   4.325
73785W        W37729  37.489  10.699   3.815
73786W        W37730  29.980   5.888   1.716
73787W        W37731  24.124   5.434   3.693
73788W        W37732  29.435  20.204   4.751
73789W        W37733  26.566  30.554  10.424
73790W        W37734  35.528   6.748   1.738
73791W        W37735  33.403  17.580   2.739
73792W        W37736  37.344  36.394   5.293
73793W        W37737  43.886  13.742   1.267
73794W        W37738  23.207  42.466  11.879
73795W        W37739   2.457  27.667  14.798
73796W        W37740  11.247  41.416  14.787
73797W        W37741  44.983  30.442  14.873
73798W        W37742  43.419  27.172  12.960
73799W        W37743  11.158   8.200  13.025
73800W        W37744  13.151  33.047   5.593
73801W        W37745  44.764  22.634  12.458
73802W        W37746   8.305  12.174  13.944
73803W        W37747  31.010  36.003   4.831
73804W        W37748  43.308  14.817  11.003
73805W        W37749  13.817  41.885  13.438
73806W        W37750  35.957  25.980   1.230
73807W        W37751  35.974  18.079  12.054
73808W        W37752  23.068  19.132  14.989
73809W        W37753  23.656  28.655   0.800
73810W        W37754  28.101   1.410  14.323
73811W        W37755  29.524   3.712  11.991
73812W        W37756  15.793  32.513  12.949
73813W        W37757   6.416  31.438  12.869
73814W        W37758  20.263  28.496   3.220
73815W        W37759  37.364  20.545  11.897
73816W        W37760  29.157   6.348   3.345
73817W        W37761  41.791  27.684   0.398
73818W        W37762  33.382  38.389  10.644
73819W        W37763   5.250  25.010   2.356
73820W        W37764   7.754   2.320  13.375
73821W        W37765   8.383  11.202   0.330
73822W        W37766  41.455   7.410   1.906
73823W        W37767  12.704   6.279  11.501
73824W        W37768  17.599  38.073  10.457
73825W        W37769  23.670  42.396   1.389
73826W        W37770   4.770  28.461   2.390
73827W        W37771  23.675  10.843  11.479
73828W        W37772   7.706  42.295  13.808
73829W        W37773   4.215  44.416   4.642
73830W        W37774   9.351  41.363   5.287
73831W        W37775  17.136  35.473   3.843
73832W        W37776  30.426  39.815  13.380
73833W        W37777  42.447   5.309   4.242
73834W        W37778  24.110  29.502   3.765
73835W        W37779  10.288  24.574   3.853
73836W        W37780  11.646  38.829   0.902
73837W        W37781  37.084  33.949   3.839
73838W        W37782   0.754   1.792   3.669
73839W        W37783  19.780  41.990  13.935
73840W        W37784  36.372  18.107  14.857
73841W        W37785  15.164  10.261  11.606
73842W        W37786  42.504  26.137   0.936
73843W        W37787   6.196  36.513   2.707
73844W        W37788   2.352   3.297  11.103
73845W        W37789  18.771  25.039   4.174
73846W        W37790  20.762   1.259  10.410
73847W        W37791   4.711  36.865  12.823
73848W        W37792  13.113   7.288   9.959
73849W        W37793  11.696  20.738   4.625
73850W        W37794  12.152  10.194  13.796
73851W        W37795  41.888  27.125  10.933
73852W        W37796   5.426  27.151   3.253
73853W        W37797   0.805  38.418  10.407
73854W        W37798   0.843   5.770   0.255
73855W        W37799  36.508   4.318  13.869
73856W        W37800  26.075  38.007  12.880
73857W        W37801   2.261  21.716  11.545
73858W        W37802  42.377  19.090   1.707
73859W        W37803  44.477  27.074  13.406
73860W        W37804  36.418   9.150   1.908
73861W        W37805   5.353  41.316  11.925
73862W        W37806  17.641  25.470  14.463
73863W        W37807  42.898  30.435  13.529
73864W        W37808  39.556  25.207   0.953
73865W        W37809  25.714  31.431  12.460
73866W        W37810   1.307  43.870  11.955
73867W        W37811  29.569   0.936   4.604
73868W        W37812  44.755   9.310  10.503
73869W        W37813   2.769  38.459   1.280
73870W        W37814  11.768   6.212  10.595
73871W        W37815   3.310  21.132   3.790
73872W        W37816  40.339  39.847   4.316
73873W        W37817   4.883  30.561   4.311
73874W        W37818  33.902  25.656   2.792
73875W        W37819  43.858  22.734  11.013
73876W        W37820  38.456   6.306   2.271
73877W        W37821  26.087   1.421  10.406
73878W        W37822  26.173   8.309   3.235
73879W        W37823   4.905  26.108  10.450
73880W        W37824  20.125  33.603   0.265
73881W        W37825   1.370   1.480   0.748
73882W        W37826   8.703   8.878  10.068
73883W        W37827  32.436  10.374   1.811
73884W        W37828   6.772   4.845  10.595
73885W        W37829   3.803  44.422  13.847
73886W        W37830   8.381  30.483  13.495
73887W        W37831  27.458  40.452  12.905
73888W        W37832  16.718  36.980  12.942
73889W        W37833  30.126   4.797  13.873
73890W        W37834  34.942  18.146   4.338
73891W        W37835  40.866  31.526  13.815
73892W        W37836  26.954  13.830   2.336
73893W        W37837  33.595  28.065  10.888
73894W        W37838  29.991  10.676  14.818
73895W        W37839  35.006  40.892   0.813
73896W        W37840  38.970  18.572   4.328
73897W        W37841  41.031  27.448   2.220
73898W        W37842  30.039  14.653   4.811
73899W        W37843  24.130   4.243   4.763
73900W        W37844  26.477  21.117  12.968
73901W        W37845  15.323   0.421   5.266
73902W        W37846   8.783  27.172  10.018
73903W        W37847  18.197  41.881  10.904
73904W        W37848  13.691  29.065  10.535
73905W        W37849  35.034  36.573  13.897
73906W        W37850  36.082   7.763   4.323
73907W        W37851   6.922  35.032   2.354
73908W        W37852  29.940  10.759  11.113
73909W        W37853   4.927  28.028   0.764
73910W        W37854  39.031   7.681  13.346
73911W        W37855  11.670  31.147   1.919
73912W        W37856  37.069   6.364  11.604
73913W        W37857  39.474  26.969   4.648
73914W        W37858   8.755  27.624  13.421
73915W        W37859  39.981  26.200   2.806
73916W        W37860  23.581  21.576   4.772
73917W        W37861  37.454  13.674   1.714
73918W        W37862  10.235   8.775   0.470
73919W        W37863  12.630   9.234  12.406
73920W        W37864  32.142  18.621  12.962
73921W        W37865  44.882  30.987  10.523
73922W        W37866  37.940  17.720   2.354
73923W        W37867  25.534  30.103   0.885
73924W        W37868  29.458  18.136   1.868
73925W        W37869  35.108  44.972   4.172
73926W        W37870  21.072  27.948  12.476
73927W        W37871  34.610  26.022  11.866
73928W        W37872  42.414   5.853  14.971
73929W        W37873   3.399  30.476  11.908
73930W        W37874  44.350  30.631  14.995
73931W        W37875  41.880  32.944   0.291
73932W        W37876   8.686  30.162   1.857
73933W        W37877  43.896   9.174   0.822
73934W        W37878  16.690  38.451   3.147
73935W        W37879  41.026  43.896  13.894
73936W        W37880  12.756   6.785   1.289
73937W        W37881  35.532  28.171  13.840
73938W        W37882  27.994   6.384   4.245
73939W        W37883  34.429  21.084  11.436
73940W        W37884   2.275  16.266   1.380
73941W        W37885   3.947  40.403  14.030
73942W        W37886   7.910  16.193   3.376
73943W        W37887  30.120  14.228  14.790
73944W        W37888   5.328  33.402   4.185
73945W        W37889  25.119  23.238   0.326
73946W        W37890  16.720   3.735   1.813
73947W        W37891  33.510  38.507   4.350
73948W        W37892  35.876   3.804   4.346
73949W        W37893   9.838  18.076   1.823
73950W        W37894  21.637   7.806   3.229
73951W        W37895  24.527  44.386  12.467
73952W        W37896  38.468   8.705   0.379
73953W        W37897  25.522  32.965   1.894
73954W        W37898  36.947   1.934   5.101
73955W        W37899  26.464  33.992   3.247
73956W        W37900  21.758  41.894  11.556
73957W        W37901  18.051  25.049  11.103
73958W        W37902   7.263  13.337   0.385
73959W        W37903  36.525  30.012  12.445
73960W        W37904  23.039  39.055  11.942
73961W        W37905   1.335  11.288   3.307
73962W        W37906  28.456  21.020  13.385
73963W        W37907  11.731  30.577  12.365
73964W        W37908   9.353  42.310   2.739
73965W        W37909  11.245  17.716   5.110
73966W        W37910  21.249  22.537  14.284
73967W        W37911  37.564   9.163  14.514
73968W        W37912  36.428  22.638  10.641
73969W        W37913  23.138  15.623   0.807
73970W        W37914  32.513  12.806   2.301
73971W        W37915  18.202  38.463  12.368
73972W        W37916   3.393   8.258   4.672
73973W        W37917  30.084  10.271  13.510
73974W        W37918  12.669  21.252   1.809
73975W        W37919  15.743  33.087  10.496
73976W        W37920  40.413  11.328  13.531
73977W        W37921  37.858  40.495   3.329
73978W        W37922   8.240  18.294  14.336
73979W        W37923  25.664  13.764  14.445
73980W        W37924  18.757  43.926   4.194
73981W        W37925  39.349  41.420   4.326
73982W        W37926  22.041  14.281   4.749
73983W        W37927  19.236  20.078   2.779
73984W        W37928  11.345  14.760  10.494
73985W        W37929  35.097  30.484  14.854
73986W        W37930  16.164  22.500   3.308
73987W        W37931  26.087  34.410  13.403
73988W        W37932   7.259   6.690   2.717
73989W        W37933  38.457  31.137  14.979
73990W        W37934  25.164  13.116  10.450
73991W        W37935  13.604  33.032  12.530
73992W        W37936  38.829  25.601   3.252
73993W        W37937   4.220  41.307  12.037
73994W        W37938  39.525  15.727  10.941
73995W        W37939  25.496  13.217  13.411
73996W        W37940  30.479  41.968  13.994
73997W        W37941  39.927  21.073  11.878
73998W        W37942  44.505  18.114  14.003
73999W        W37943  28.952  14.680   2.310
74000W        W37944  32.894  10.711   1.862
74001W        W37945  42.372  41.033   1.376
74002W        W37946  25.471  44.915   0.891
74003W        W37947  36.527   5.217  10.919
74004W        W37948  22.577  19.580  14.787
74005W        W37949   3.235  24.649  11.528
74006W        W37950  11.661   1.277   1.754
74007W        W37951  23.033  12.238  11.571
74008W        W37952  17.709  17.656   2.195
74009W        W37953  13.134  40.381  14.501
74010W        W37954  17.177  26.616  12.384
74011W        W37955   2.457  26.187   0.308
74012W        W37956   4.355   8.326   1.230
74013W        W37957   0.924  18.602   5.185
74014W        W37958  31.931  21.213   4.834
74015W        W37959  10.223  23.049   0.415
74016W        W37960  25.553   1.976  14.372
74017W        W37961   3.888   3.225  13.858
74018W        W37962  35.420  35.950   3.235
74019W        W37963   7.225  21.137  10.593
74020W        W37964   6.309  39.413  14.928
74021W        W37965  41.520  12.786  13.467
74022W        W37966  28.589  23.117  10.590
74023W        W37967  18.164   0.892   0.923
74024W        W37968  40.549  23.204   0.927
74025W        W37969  28.949  26.191  11.585
74026W        W37970  24.120   6.225  10.032
74027W        W37971  31.000  25.660   3.748
74028W        W37972  13.646   4.928   1.854
74029W        W37973  16.139   3.419   1.805
74030W        W37974   7.264  33.577   3.363
74031W        W37975   5.368  34.947   2.401
74032W        W37976  23.082  13.689  13.895
74033W        W37977  38.834  24.067  14.450
74034W        W37978  29.954  14.204  12.828
74035W        W37979  10.243  23.182   3.382
74036W        W37980  41.356   4.773   0.871
74037W        W37981  14.738  40.873   3.271
74038W        W37982  15.776  30.930  11.880
74039W        W37983  10.370  40.502  14.868
74040W        W37984  15.616  18.247   2.298
74041W        W37985   5.351  40.807  12.994
74042W        W37986  19.238  43.480   2.295
74043W        W37987   2.937  30.928   4.673
74044W        W37988  18.606  12.613  11.477
74045W        W37989  34.079  20.691   2.200
74046W        W37990   5.902  17.761  11.388
74047W        W37991  23.219  31.916  11.548
74048W        W37992   4.934  29.131   0.811
74049W        W37993   6.248  39.515  13.055
74050W        W37994  36.373  19.621  11.458
74051W        W37995  26.464  41.793   2.340
74052W        W37996  36.891  16.271   2.868
74053W        W37997  42.802  18.665   5.209
74054W        W37998  35.574  27.956   4.648
74055W        W37999  42.345  39.036  10.588
74056W        W38000  37.568   2.947  12.933
74057W        W38001  17.623  11.221   0.877
74058W        W38002  13.786  33.916  14.919
74059W        W38003  21.226   1.891  14.025
74060W        W38004   7.194  15.647   1.293
74061W        W38005  19.176   1.382   2.801
74062W        W38006  11.267  28.153  11.972
74063W        W38007   7.836  32.068  11.432
74064W        W38008  20.144  21.595   9.987
74065W        W38009  29.524  11.217   4.291
74066W        W38010   8.266  25.135   0.257
74067W        W38011  17.250  23.205  11.103
74068W        W38012   4.746   3.373   5.110
74069W        W38013  21.552  37.033   1.334
74070W        W38014  39.558  36.589  10.602
74071W        W38015   3.948  39.052  11.587
74072W        W38016  35.078  33.067  14.902
74073W        W38017  43.421  30.540   4.629
74074W        W38018  10.152   9.333   4.699
74075W        W38019  31.433   2.257  10.928
74076W        W38020  32.941  13.600   1.929
74077W        W38021  42.014  16.081   2.378
74078W        W38022  41.812  32.886   2.218
74079W        W38023   8.882  12.263   2.210
74080W        W38024   7.769   6.332   2.863
74081W        W38025  39.835  16.268   0.254
74082W        W38026  32.911  35.550  12.963
74083W        W38027  19.112  25.045  10.423
74084W        W38028  18.591  36.880   3.725
74085W        W38029  41.990   1.766  11.563
74086W        W38030  25.014  16.764   0.864
74087W        W38031  27.639  23.197  11.423
74088W        W38032  40.842  28.598  13.033
74089W        W38033   6.369  40.884  14.457
74090W        W38034  35.512  37.347   1.442
74091W        W38035  23.123  37.511   3.172
74092W        W38036   1.480  13.308   2.785
74093W        W38037  43.299   1.419   1.234
74094W        W38038  26.678  11.738  12.982
74095W        W38039  21.024  24.529  11.550
74096W        W38040  11.348  20.223   2.270
74097W        W38041  26.539  36.035   9.920
74098W        W38042  22.561  43.892  11.440
74099W        W38043   0.788   9.837   2.668
74100W        W38044  24.540  39.998   1.779
74101W        W38045   7.751  22.245  11.009
74102W        W38046  25.988   4.353  13.020
74103W        W38047  36.540  25.074  10.602
74104W        W38048  10.870   7.891  12.569
74105W        W38049   4.724  26.578   1.798
74106W        W38050  17.658  35.433  14.362
74107W        W38051  10.182  42.393   2.888
74108W        W38052   2.944  12.333   3.152
74109W        W38053  29.637  40.983  14.297
74110W        W38054  39.544  13.141  12.980
74111W        W38055   7.858  43.902   2.807
74112W        W38056  38.365   9.795  10.899
74113W        W38057  41.300  23.493   1.238
74114W        W38058   4.278  20.555  10.979
74115W        W38059  31.443  39.413   4.742
74116W        W38060   3.230  28.971  10.897
74117W        W38061   9.757  43.465  14.971
74118W        W38062  18.657  40.483   4.771
74119W        W38063  42.924  10.306   1.890
74120W        W38064  21.230  18.291  10.644
74121W        W38065  39.033  44.784   4.720
74122W        W38066   0.432  27.089  13.888
74123W        W38067   2.726   0.406   3.670
74124W        W38068  18.625  34.571  11.532
74125W        W38069  32.076  22.619  12.014
74126W        W38070  36.961  31.121   2.352
74127W        W38071  33.053   2.423   0.912
74128W        W38072  10.674  43.017  10.916
74129W        W38073  10.860  31.013   0.333
74130W        W38074   5.285   1.853  11.980
74131W        W38075   4.273  26.001  12.845
74132W        W38076   1.327  38.896  14.852
74133W        W38077   3.930  20.752  10.597
74134W        W38078   8.355  26.504  10.952
74135W        W38079  20.028   7.760  12.410
74136W        W38080  27.074  42.781   1.911
74137W        W38081  21.020  41.910   0.805
74138W        W38082  33.461  29.941   2.240
74139W        W38083  16.573  40.036   1.813
74140W        W38084  31.647  42.501   0.726
74141W        W38085  27.572  43.006   0.305
74142W        W38086  24.702  24.667  13.990
74143W        W38087  41.833  22.673   4.320
74144W        W38088  34.592  30.613  14.393
74145W        W38089  17.656  16.255  14.287
74146W        W38090  35.980  25.103   2.219
74147W        W38091  31.092  32.581   1.923
74148W        W38092  42.824  35.853   4.137
74149W        W38093  20.094  40.942   2.325
74150W        W38094  30.505  20.707   2.694
74151W        W38095  25.632  23.066   3.251
74152W        W38096  15.706   5.266   2.343
74153W        W38097  12.154  20.709   3.663
74154W        W38098  20.265  29.513   1.261
74155W        W38099   7.905   8.234   3.856
74156W        W38100  26.183  35.522   2.272
74157W        W38101  22.603  11.862   3.652
74158W        W38102   4.406  38.922  12.513
74159W        W38103  25.173  10.160   3.820
74160W        W38104  24.691  29.174   4.704
74161W        W38105  30.983   1.397  13.360
74162W        W38106  22.505  18.613   2.783
74163W        W38107  43.512  24.212  13.355
74164W        W38108  38.895  39.816  14.779
74165W        W38109  23.106  39.481   0.863
74166W        W38110  25.069  22.570  12.934
74167W        W38111  35.993  24.616   3.718
74168W        W38112  37.965  40.445  14.994
74169W        W38113  10.258  18.545  12.441
74170W        W38114   6.761   2.936  13.397
74171W        W38115  39.545   9.856  11.375
74172W        W38116  32.056   4.267  14.841
74173W        W38117  27.562  39.034  10.955
74174W        W38118  27.460   6.227   1.878
74175W        W38119  29.009   5.831   2.232
74176W        W38120  33.947  11.856  11.468
74177W        W38121  39.057  30.919  13.443
74178W        W38122   8.176  22.638  13.544
74179W        W38123  31.942   5.882   2.888
74180W        W38124  29.630  41.445  13.919
74181W        W38125  19.674  13.759   0.469
74182W        W38126  43.769  28.117  12.002
74183W        W38127  16.746  29.145   3.361
74184W        W38128  26.684  15.226  10.925
74185W        W38129  21.597  15.819  14.827
74186W        W38130  21.057  16.746   3.777
74187W        W38131  30.017   4.891  11.129
74188W        W38132  11.690   5.745  13.055
74189W        W38133  25.486  19.043  11.397
74190W        W38134  26.987  22.240   2.782
74191W        W38135  43.360   4.331   0.793
74192W        W38136   1.461  34.454  10.940
74193W        W38137  34.389  11.800  14.809
74194W        W38138  10.236  26.536  14.803
74195W        W38139  26.164  36.062  14.452
74196W        W38140  18.251  24.027   1.437
74197W        W38141  18.160   6.308  11.946
74198W        W38142  21.584  24.546   0.277
74199W        W38143  25.216  44.398   1.843
74200W        W38144  40.902  32.420   1.396
74201W        W38145  22.675  24.024   0.859
74202W        W38146  20.768  11.159  14.437
74203W        W38147  26.010   8.177  13.511
74204W        W38148   3.861  36.567   3.681
74205W        W38149  12.188  25.054   1.723
74206W        W38150  26.522  39.856  12.075
74207W        W38151  24.523  36.898   1.244
74208W        W38152   0.889  27.076  13.532
74209W        W38153  42.479  24.163   0.844
74210W        W38154  26.676   1.412   0.274
74211W        W38155  39.429  38.906   3.636
74212W        W38156  18.201  13.145  10.467
74213W        W38157  22.056   8.254   0.912
74214W        W38158  22.007  32.543  12.041
74215W        W38159  42.824  44.779  12.497
74216W        W38160   1.292  25.631   1.412
74217W        W38161  18.275  38.503  13.918
74218W        W38162  17.135  42.023   1.761
74219W        W38163  39.464   6.182   0.456
74220W        W38164  27.185  31.965   3.822
74221W        W38165  24.582  15.613  12.073
74222W        W38166  44.331  43.999  13.390
74223W        W38167  20.571  21.248  13.022
74224W        W38168  11.727  36.048  14.991
74225W        W38169  17.769  17.675   1.389
74226W        W38170  39.370  35.109  14.338
74227W        W38171  32.106  19.220  12.946
74228W        W38172  32.011  41.926  11.062
74229W        W38173   6.360  20.167  11.868
74230W        W38174  12.232  41.516  10.456
74231W        W38175  42.807  41.452  11.466
74232W        W38176  34.560  13.774   0.854
74233W        W38177   6.427   1.322  14.306
74234W        W38178  41.887  10.298   1.781
74235W        W38179  27.518  12.691   4.735
74236W        W38180  31.007  30.564   9.962
74237W        W38181  19.548  41.485   1.440
74238W        W38182  29.035  30.013  14.982
74239W        W38183  35.964  43.867  10.632
74240W        W38184  14.829   8.754  12.532
74241W        W38185  15.116  40.396  14.896
74242W        W38186   7.749   0.947  13.314
74243W        W38187  21.528  26.468  11.061
74244W        W38188   2.871  26.023  11.521
74245W        W38189  40.351  42.431  11.855
74246W        W38190  19.679  19.121   3.746
74247W        W38191   2.440  27.196  11.079
74248W        W38192   7.390  29.993   9.985
74249W        W38193  20.667   8.787   1.439
74250W        W38194  38.503  14.616   0.439
74251W        W38195   6.298  39.828   4.649
74252W        W38196  16.666  31.998   4.681
74253W        W38197  34.492  29.613  10.594
74254W        W38198  10.650   3.335  12.038
74255W        W38199  39.382  12.122  13.327
74256W        W38200  20.634   0.794   3.245
74257W        W38201  33.078  10.698  10.995
74258W        W38202   9.645  18.265  12.036
74259W        W38203  34.875  29.031   1.256
74260W        W38204  11.697  43.888   0.385
74261W        W38205  14.227   7.401  14.776
74262W        W38206  26.629   8.834  14.968
74263W        W38207  25.648  35.452   4.170
74264W        W38208   8.240   3.281  14.316
74265W        W38209  10.800  33.424  13.986
74266W        W38210  20.623  16.662   3.693
74267W        W38211  34.488  13.824   2.263
74268W        W38212   5.270   9.286   0.353
74269W        W38213  41.970  22.680   3.705
74270W        W38214  43.512   2.386   2.843
74271W        W38215   7.204  22.118  14.768
74272W        W38216  31.965  34.043  14.833
74273W        W38217  42.788  28.655  10.631
74274W        W38218  44.891  13.747  10.509
74275W        W38219  24.107   6.738   4.788
74276W        W38220   7.380  24.498   4.208
74277W        W38221   1.904  31.036   4.251
74278W        W38222   9.349  26.652  11.022
74279W        W38223  33.122  16.764  12.967
74280W        W38224  31.148  44.771  14.432
74281W        W38225  26.520  18.657   2.298
74282W        W38226  15.182  35.968   1.872
74283W        W38227  28.002  21.068   4.193
74284W        W38228   0.280   4.817  11.501
74285W        W38229  20.761  29.153  11.383
74286W        W38230   4.728  41.410  10.128
74287W        W38231  19.588   7.760   2.373
74288W        W38232  15.165  16.777  14.947
74289W        W38233  28.590   9.217   3.642
74290W        W38234   2.413  42.300   4.808
74291W        W38235  43.453  11.828   0.738
74292W        W38236   5.933  40.382   2.773
74293W        W38237  20.094   6.218   0.340
74294W        W38238  23.145   1.817   2.390
74295W        W38239  19.196  10.875   9.658
74296W        W38240  19.539  18.598   0.901
74297W        W38241  33.112  36.851   1.829
74298W        W38242  34.948  15.765   1.776
74299W        W38243  21.217  32.899  13.916
74300W        W38244  19.566  16.617   3.660
74301W        W38245  29.024  23.029  10.934
74302W        W38246  11.768  11.705   0.741
74303W        W38247  42.019   4.236   2.730
74304W        W38248  40.392  42.974  14.445
74305W        W38249  29.558  27.988  11.880
74306W        W38250  11.211   3.281   3.181
74307W        W38251   7.386   0.902  14.799
74308W        W38252  23.628  29.639  11.011
74309W        W38253  28.527  35.413   1.231
74310W        W38254  33.917  16.299   2.186
74311W        W38255  20.055  40.908   1.865
74312W        W38256  23.171  32.603  11.961
74313W        W38257  42.845  35.596  13.954
74314W        W38258  11.163  36.493   3.664
74315W        W38259  39.557  13.325  14.277
74316W        W38260   2.922  14.329  12.084
74317W        W38261  25.488  39.038  11.540
74318W        W38262  31.632  22.146   3.705
74319W        W38263  38.050  28.532  11.372
74320W        W38264  27.012  15.741  13.036
74321W        W38265   2.790  30.565   0.318
74322W        W38266   5.874  15.689  14.880
74323W        W38267  15.224  31.565  10.930
74324W        W38268  40.010  24.088   3.663
74325W        W38269  19.542  26.671   5.093
74326W        W38270  28.127  19.653   2.675
74327W        W38271   6.226  21.709   2.900
74328W        W38272  11.208  28.015   2.858
74329W        W38273  36.425  21.702  14.800
74330W        W38274  34.978  25.568   0.813
74331W        W38275  25.694  31.996   1.747
74332W        W38276  36.434  29.174  11.409
74333W        W38277  19.674  26.652   0.812
74334W        W38278   4.870   4.848   2.387
74335W        W38279   5.302  19.749  10.935
74336W        W38280  15.670   3.905  13.526
74337W        W38281  28.456  26.974  12.403
74338W        W38282  34.413  44.872  10.929
74339W        W38283  26.556   4.303  11.998
74340W        W38284  14.716   5.690  13.947
74341W        W38285  30.067  14.796  13.812
74342W        W38286  35.558  42.313   4.274
74343W        W38287  34.566  36.861   2.818
74344W        W38288  24.079  37.083  13.809
74345W        W38289  41.326   6.922  10.631
74346W        W38290  19.217   5.699   1.807
74347W        W38291   7.837  12.801  12.442
74348W        W38292  29.976   5.195  11.428
74349W        W38293  42.779   0.348   0.792
74350W        W38294  18.715  16.106   3.353
74351W        W38295  18.288  27.973  11.871
74352W        W38296  21.569  13.651   1.380
74353W        W38297  29.935  29.443  11.401
74354W        W38298   6.851  22.176   2.678
74355W        W38299  19.207  22.657  11.568
74356W        W38300  14.831  42.811   5.216
74357W        W38301  40.549  26.467   3.828
74358W        W38302  32.113   7.394   4.770
74359W        W38303  15.148  43.344   1.812
74360W        W38304  13.148   7.825   1.252
74361W        W38305  37.446  40.461  14.948
74362W        W38306  17.086   3.910   4.124
74363W        W38307  20.748  15.299   4.625
74364W        W38308   3.848  32.552   0.908
74365W        W38309  42.312  21.212   2.251
74366W        W38310  22.543  21.647   1.799
74367W        W38311  38.355  41.936  12.531
74368W        W38312   4.347  24.602  13.339
74369W        W38313   5.231   9.331  11.483
74370W        W38314   5.215  32.572   0.246
74371W        W38315  14.755   9.275   9.580
74372W        W38316  42.492  34.513  12.899
74373W        W38317  36.033   0.358  14.856
74374W        W38318   6.900  23.490   0.770
74375W        W38319  31.489  43.302   1.866
74376W        W38320  40.496  33.024  13.939
74377W        W38321  21.101  34.897  10.466
74378W        W38322  16.725  44.775  10.988
74379W        W38323  16.778  26.487  14.822
74380W        W38324  15.640  38.842  10.020
74381W        W38325  29.451   5.353   3.703
74382W        W38326  28.023  24.118  11.995
74383W        W38327  29.168  32.410  10.616
74384W        W38328  32.439  35.021  10.630
74385W        W38329  14.645  42.324   1.351
74386W        W38330  39.388  22.112   3.309
74387W        W38331   7.410  44.362  11.405
74388W        W38332   3.724  26.065  10.906
74389W        W38333   3.435  24.979   4.792
74390W        W38334  17.682  44.787   0.802
74391W        W38335  31.613  39.994  10.630
74392W        W38336  41.954   7.305  13.320
74393W        W38337  35.883  19.601   4.789
74394W        W38338  37.963  14.796  14.834
74395W        W38339  43.926  32.945  11.515
74396W        W38340  28.944  22.182   2.736
74397W        W38341  28.946  25.570   2.249
74398W        W38342  22.700  33.578   2.901
74399W        W38343   4.811   6.268  12.079
74400W        W38344   8.874  38.432  10.575
74401W        W38345  17.599  26.576  14.381
74402W        W38346   5.315   8.187   4.705
74403W        W38347   8.182   4.203   3.820
74404W        W38348  42.328  40.432  14.939
74405W        W38349   6.756  26.130   4.174
74406W        W38350  31.132  31.481  13.958
74407W        W38351  33.947  32.886  11.522
74408W        W38352  24.999   0.414  12.890
74409W        W38353  39.944  34.514   1.872
74410W        W38354   6.199  33.583   5.118
74411W        W38355  40.920  33.433  14.474
74412W        W38356  16.301  31.550  11.116
74413W        W38357  13.833  26.697  13.527
74414W        W38358  18.057  20.094   0.871
74415W        W38359  32.056  15.227  11.069
74416W        W38360  13.834  26.554  10.645
74417W        W38361  38.030  21.604  13.801
74418W        W38362  17.569  37.354  11.929
74419W        W38363  33.592  21.088  14.369
74420W        W38364   0.360   6.717   2.762
74421W        W38365   6.687  14.750   1.436
74422W        W38366  11.761  29.095  13.063
74423W        W38367  28.092  38.831   1.892
74424W        W38368  36.999  18.615  11.594
74425W        W38369  39.997   1.819  11.398
74426W        W38370  12.636  21.723   4.239
74427W        W38371  41.820  10.701  10.905
74428W        W38372  35.011  38.562   1.886
74429W        W38373  37.568  28.960   2.826
74430W        W38374  25.482  16.149   0.445
74431W        W38375  16.104   9.168   0.794
74432W        W38376  38.487   7.228   2.236
74433W        W38377  27.682  40.442  14.504
74434W        W38378  40.874  39.019   2.770
74435W        W38379  43.489  31.497   0.255
74436W        W38380  12.276  35.447  14.386
74437W        W38381  32.106  21.685  11.932
74438W        W38382  31.899   2.232   2.885
74439W        W38383   0.751  13.614  12.465
74440W        W38384  41.413   1.909  12.048
74441W        W38385   2.364  37.455   1.722
74442W        W38386  23.192  10.704  14.315
74443W        W38387  21.261   3.808   4.317
74444W        W38388   3.284  12.200   0.402
74445W        W38389  18.185  32.885   3.235
74446W        W38390  34.089  16.198   0.745
74447W        W38391   1.799  11.238  11.414
74448W        W38392  22.118  27.101  11.941
74449W        W38393  25.494  19.269   0.950
74450W        W38394  18.138  33.008  10.430
74451W        W38395  15.596  13.708   4.338
74452W        W38396  41.397  33.070   4.714
74453W        W38397  42.946  12.168   0.482
74454W        W38398  10.701  13.820  10.511
74455W        W38399  44.943  32.091   1.914
74456W        W38400  26.116  15.193  14.023
74457W        W38401   5.804  21.606  11.039
74458W        W38402  34.935  15.713   5.310
74459W        W38403   2.967  29.095   0.280
74460W        W38404  21.104  28.179   0.830
74461W        W38405  25.044  34.029  12.988
74462W        W38406  20.654  17.198  13.492
74463W        W38407  27.150  32.133  14.990
74464W        W38408  19.664  43.471   4.654
74465W        W38409  14.721  24.192   2.385
74466W        W38410  37.052  34.556  14.914
74467W        W38411   8.170  31.117  12.570
74468W        W38412  21.583  20.064   0.309
74469W        W38413  17.675  31.595   4.312
74470W        W38414  44.765  19.138   1.331
74471W        W38415   5.244  14.665  13.378
74472W        W38416  16.610  25.127   2.706
74473W        W38417   5.874   1.829  13.377
74474W        W38418  23.489   5.214   3.787
74475W        W38419  42.841  17.156   4.729
74476W        W38420  27.583  14.796   5.145
74477W        W38421  32.035  12.252  14.435
74478W        W38422  15.279   2.261  10.460
74479W        W38423   0.309  16.178   4.609
74480W        W38424  35.389  42.313   3.176
74481W        W38425   6.295  36.491  10.598
74482W        W38426  39.386  34.467  12.347
74483W        W38427   5.719  26.634  14.021
74484W        W38428  35.576  32.047  10.502
74485W        W38429  41.933  32.479   3.799
74486W        W38430   2.231  14.685  12.823
74487W        W38431  22.543  15.305  10.457
74488W        W38432   9.257  19.240  13.904
74489W        W38433   8.689  29.950  13.860
74490W        W38434  28.176  14.604   5.134
74491W        W38435   0.407   4.229   1.706
74492W        W38436  28.673  44.273   0.771
74493W        W38437  26.606   3.808  14.867
74494W        W38438  16.107  25.154  10.585
74495W        W38439   6.721  28.543  12.426
74496W        W38440   3.369   4.806   1.299
74497W        W38441  39.540  12.136   4.250
74498W        W38442  17.169  23.710   3.293
74499W        W38443  21.100   7.353   2.299
74500W        W38444  28.617   2.343  14.387
74501W        W38445  28.083   9.714   1.817
74502W        W38446  37.066   6.212   1.807
74503W        W38447  10.199  11.326  14.962
74504W        W38448  24.149  21.534  14.850
74505W        W38449  23.617  43.004   4.795
74506W        W38450  27.138  29.172  14.343
74507W        W38451  36.469  44.828  14.461
74508W        W38452  19.739   4.245  14.334
74509W        W38453   6.844  28.083  12.914
74510W        W38454  44.479  33.959   2.749
74511W        W38455  18.219  33.961   4.768
74512W        W38456   7.234  37.872  11.516
74513W        W38457  34.502  17.718   1.804
74514W        W38458   5.344  27.182  13.791
74515W        W38459  33.439   5.795  14.856
74516W        W38460  37.419  13.758  13.981
74517W        W38461  11.809  40.314  10.563
74518W        W38462  17.780   5.304   3.283
74519W        W38463  10.358  41.838   0.769
74520W        W38464   6.226  32.434   3.785
74521W        W38465   0.772  40.355   3.811
74522W        W38466  31.578  42.844   1.712
74523W        W38467  44.440  43.849  12.071
74524W        W38468  27.123  25.073   0.913
74525W        W38469  18.571  34.945  13.852
74526W        W38470  37.997  33.884   0.425
74527W        W38471  33.552  10.290  11.580
74528W        W38472   3.834  42.991  14.495
74529W        W38473  15.293  40.480  14.030
74530W        W38474  19.148  26.608   1.278
74531W        W38475  25.474  24.132  11.018
74532W        W38476   2.940   9.744   2.340
74533W        W38477   5.276  39.008   1.822
74534W        W38478   9.265  30.531  13.541
74535W        W38479  36.088  12.742   1.884
74536W        W38480  21.046  41.977  12.534
74537W        W38481  40.817   7.305   1.893
74538W        W38482   2.855  40.903   4.824
74539W        W38483   9.318  24.585  14.485
74540W        W38484  21.058  39.852  10.551
74541W        W38485  15.727  14.754  14.501
74542W        W38486   6.276  10.747   0.263
74543W        W38487  44.957  19.110  14.799
74544W        W38488   1.847   5.912  11.398
74545W        W38489   4.352  15.152   3.763
74546W        W38490  39.828  10.838   4.213
74547W        W38491  22.185  39.856   4.245
74548W        W38492  26.621  17.627  14.987
74549W        W38493  30.506  18.168   4.265
74550W        W38494  20.714  21.216  12.339
74551W        W38495  30.587  43.810   0.818
74552W        W38496  35.854  30.041   1.747
74553W        W38497   3.221  37.831   2.854
74554W        W38498   4.846   6.402  10.022
74555W        W38499  37.072   0.771   2.335
74556W        W38500  41.939  20.060   2.674
74557W        W38501  25.539   0.787   1.745
74558W        W38502  18.601  29.458   2.838
74559W        W38503   8.717  14.147  11.382
74560W        W38504  16.617  17.788  13.462
74561W        W38505   1.314  23.091  11.064
74562W        W38506  15.761  33.551  14.000
74563W        W38507  13.644  20.159  14.465
74564W        W38508  13.174  25.527  11.428
74565W        W38509  25.195  16.811  11.377
74566W        W38510  31.995  17.079   4.771
74567W        W38511  40.820   2.261  12.358
74568W        W38512   1.754  41.881  12.027
74569W        W38513  32.099  15.757   2.297
74570W        W38514   3.736  18.174  14.448
74571W        W38515  10.769  29.622  14.390
74572W        W38516  23.165   2.834   1.818
74573W        W38517  15.757  23.706  10.137
74574W        W38518   2.791   6.825   0.406
74575W        W38519  19.110  15.817   1.757
74576W        W38520  44.366  13.787  14.278
74577W        W38521  40.797   4.444  11.457
74578W        W38522  12.808   2.907   3.642
74579W        W38523  23.668  23.512  14.448
74580W        W38524  41.821  40.329   0.358
74581W        W38525  23.716  15.281  11.416
74582W        W38526   8.717  32.035   3.804
74583W        W38527  16.197  29.448  11.417
74584W        W38528   1.952  27.131   1.408
74585W        W38529  16.746  39.543  10.975
74586W        W38530  17.724  17.229  12.954
74587W        W38531  16.288   5.912   1.715
74588W        W38532   0.802  31.128  12.086
74589W        W38533  10.160  30.446  13.374
74590W        W38534  22.714  15.619  10.580
74591W        W38535  15.237  28.048  13.334
74592W        W38536  14.652  36.904   3.632
74593W        W38537  17.283  31.963  11.505
74594W        W38538  43.782  41.519   2.371
74595W        W38539  12.667   2.277  12.840
74596W        W38540  24.499   4.383  14.002
74597W        W38541   5.889   7.315   0.429
74598W        W38542  35.913  41.854  10.441
74599W        W38543  25.669   1.460   1.879
74600W        W38544  14.338  10.153  13.816
74601W        W38545   3.335  10.340  11.994
74602W        W38546  33.517  39.967  14.887
74603W        W38547  41.905  43.334  12.407
74604W        W38548  30.040  18.265  11.537
74605W        W38549  35.986  19.268   4.142
74606W        W38550  13.131  38.874  10.421
74607W        W38551  32.570  22.741   4.339
74608W        W38552  39.483  42.358   4.161
74609W        W38553  23.054  25.110   1.339
74610W        W38554  38.830  14.823  14.874
74611W        W38555  32.498   1.762  12.080
74612W        W38556  29.059  35.912   3.309
74613W        W38557  34.473  19.627   4.275
74614W        W38558   4.248  37.345   0.475
74615W        W38559   8.177  41.346  14.859
74616W        W38560  22.222  12.308  11.562
74617W        W38561  22.607  14.754   0.821
74618W        W38562   6.759  14.305   4.811
74619W        W38563  17.067  13.251  12.914
74620W        W38564  16.579  28.476   1.311
74621W        W38565  24.669  42.799  14.492
74622W        W38566   2.950   0.921  14.513
74623W        W38567  30.974  31.128   4.277
74624W        W38568  43.933  30.579   0.779
74625W        W38569  32.929  38.858   4.806
74626W        W38570  27.093   0.361   2.874
74627W        W38571  42.511  40.047   0.245
74628W        W38572  19.606  26.468   1.225
74629W        W38573  17.645   3.247  13.941
74630W        W38574  33.467  24.645  13.841
74631W        W38575   7.840  28.133  10.135
74632W        W38576   1.934  14.132   1.724
74633W        W38577  11.857  17.110  14.926
74634W        W38578  41.855  26.627   3.170
74635W        W38579   2.925  38.071   3.234
74636W        W38580  31.473   7.233   0.789
74637W        W38581   5.262  12.848  12.357
74638W        W38582   9.803  19.150   3.816
74639W        W38583  13.739   6.872  13.484
74640W        W38584  22.716   7.839   0.805
74641W        W38585   9.716  11.863  10.582
74642W        W38586  26.977  27.998  14.026
74643W        W38587  15.655   1.453   0.394
74644W        W38588  21.257  38.397   1.845
74645W        W38589   2.299   1.253  13.489
74646W        W38590   7.714  13.261  12.497
74647W        W38591  16.660  27.987   1.906
74648W        W38592  16.224  38.874   0.393
74649W        W38593  36.993   6.814   5.612
74650W        W38594  17.245   1.848   0.442
74651W        W38595  27.087  30.909  11.484
74652W        W38596   7.174  22.206  13.812
74653W        W38597   0.299  20.635   3.248
74654W        W38598  12.218  34.425   0.910
74655W        W38599  22.215  20.108  12.893
74656W        W38600   9.666   4.838   0.750
74657W        W38601  29.933  24.546   3.852
74658W        W38602  44.756  19.644  10.906
74659W        W38603  29.449  31.647   1.332
74660W        W38604  20.547  13.635  14.791
74661W        W38605  18.598  40.023  13.420
74662W        W38606  40.854   4.339  14.884
74663W        W38607  28.634  29.636   1.931
74664W        W38608  27.536  12.205  13.906
74665W        W38609   3.317  31.486   1.275
74666W        W38610  40.797  26.494  10.986
74667W        W38611   6.807  10.794  12.051
74668W        W38612  27.142  22.047   3.211
74669W        W38613  19.777  37.510   0.402
74670W        W38614   1.396   4.382   3.825
74671W        W38615   2.233  44.787   1.353
74672W        W38616  37.506  24.705  12.553
74673W        W38617  34.456   9.224  11.973
74674W        W38618  38.819  23.014   3.843
74675W        W38619  39.515  23.011  13.525
74676W        W38620   0.427  31.917  13.537
74677W        W38621   1.322   5.772  11.469
74678W        W38622   0.353  29.425   4.686
74679W        W38623  17.178  10.358   1.829
74680W        W38624   6.259  39.877   3.339
74681W        W38625  17.250  29.063  12.414
74682W        W38626  14.244  31.491   4.195
74683W        W38627   1.821  25.112  14.452
74684W        W38628  44.269  44.332  11.909
74685W        W38629  16.708  13.813   0.459
74686W        W38630  40.327   9.216  13.060
74687W        W38631   2.737  44.467   1.254
74688W        W38632  39.013  14.609  14.362
74689W        W38633  18.227   0.777  11.858
74690W        W38634  24.511  25.585   0.869
74691W        W38635  26.596  32.086   2.234
74692W        W38636  15.096  15.230  13.336
74693W        W38637  13.627  42.775  14.016
74694W        W38638  33.540  16.247   3.317
74695W        W38639  20.211  15.684   4.324
74696W        W38640   3.422  23.572  13.486
74697W        W38641  25.085  24.625  12.906
74698W        W38642  42.415  13.643   1.771
74699W        W38643  15.262  38.508   4.651
74700W        W38644  13.753  16.258  14.950
74701W        W38645  30.491   7.809  11.017
74702W        W38646  26.662   0.298  10.509
74703W        W38647  33.063  13.162   3.801
74704W        W38648  38.937   3.748  14.010
74705W        W38649   6.826  44.368   4.124
74706W        W38650  27.066   8.703  10.597
74707W        W38651  33.044  10.320  13.898
74708W        W38652  33.612  20.523  10.494
74709W        W38653  44.323  38.502   0.838
74710W        W38654  41.408  24.591   4.305
74711W        W38655  35.385  43.292  13.024
74712W        W38656  25.702  10.654   2.875
74713W        W38657  43.945  23.167   2.863
74714W        W38658  37.505  26.176  13.807
74715W        W38659  40.416  35.853   2.192
74716W        W38660  19.608  38.460   0.355
74717W        W38661  43.434  27.118   3.786
74718W        W38662   4.794  29.471   2.675
74719W        W38663  11.745   8.289  13.457
74720W        W38664  19.220   8.811   2.239
74721W        W38665  18.271  25.517   3.218
74722W        W38666  30.624  38.552   1.760
74723W        W38667  20.137  11.170  14.468
74724W        W38668  11.238  13.155  11.390
74725W        W38669   7.309  12.798  10.502
74726W        W38670  14.318   9.883   1.254
74727W        W38671   1.968  16.693  13.945
74728W        W38672   9.873  38.997  11.434
74729W        W38673  16.655  16.286   0.747
74730W        W38674   5.923   6.872   3.208
74731W        W38675   1.344  34.461   1.818
74732W        W38676  28.081  21.584  12.906
74733W        W38677  24.067   4.754   2.250
74734W        W38678  20.740  40.917  13.884
74735W        W38679  33.104  29.123   2.341
74736W        W38680  44.878  26.207   0.830
74737W        W38681   0.969  38.945   1.267
74738W        W38682  11.166  24.612  14.789
74739W        W38683  15.188  20.256  14.825
74740W        W38684   3.356  21.244   2.283
74741W        W38685   5.405  25.079  10.556
74742W        W38686  14.676  37.406   1.829
74743W        W38687  16.103  25.677   3.817
74744W        W38688  23.502  11.746   3.371
74745W        W38689  36.001   3.443  11.386
74746W        W38690  41.426  17.787  14.870
74747W        W38691  30.475  28.608   4.639
74748W        W38692   5.257  15.228  13.534
74749W        W38693  37.390  44.849   0.935
74750W        W38694  44.861  20.164  11.589
74751W        W38695   6.281  10.785   4.252
74752W        W38696  41.886  37.564   0.447
74753W        W38697   7.404  28.145  12.015
74754W        W38698  35.550   5.305   1.765
74755W        W38699  14.659  24.542   0.890
74756W        W38700   8.181  31.515   4.264
74757W        W38701  18.254   2.902  13.499
74758W        W38702  24.203   2.779   4.800
74759W        W38703  23.695  26.488  12.876
74760W        W38704  36.426  41.810   0.400
74761W        W38705  15.699  33.883   4.709
74762W        W38706   2.931  41.368   1.420
74763W        W38707  16.785  14.142   1.259
74764W        W38708  35.417  17.643  14.031
74765W        W38709  32.920  28.023  11.509
74766W        W38710  23.712   2.782  14.873
74767W        W38711  32.903  25.102   1.371
74768W        W38712  35.574   6.777  10.991
74769W        W38713  18.179   2.381  11.537
74770W        W38714  38.358  38.848  13.030
74771W        W38715   2.360  40.404  10.611
74772W        W38716  22.663  22.699   3.697
74773W        W38717   6.410  15.601   5.179
74774W        W38718  27.559  11.159  10.586
74775W        W38719  16.256   1.799   2.328
74776W        W38720  10.808  18.685  11.487
74777W        W38721   1.827  21.651   3.832
74778W        W38722  10.818  15.136   3.671
74779W        W38723  13.656  39.501  10.919
74780W        W38724  23.103  28.666  12.973
74781W        W38725  26.682  33.887  12.446
74782W        W38726  15.781   4.749   5.191
74783W        W38727  13.783  31.946   0.397
74784W        W38728   7.856   9.246   2.414
74785W        W38729  43.911  11.637  14.316
74786W        W38730   3.884  14.653  11.890
74787W        W38731  26.050  11.140  10.618
74788W        W38732  18.217  19.075   2.837
74789W        W38733  20.740   8.245   3.687
74790W        W38734  38.960  44.784  11.120
74791W        W38735  44.394   3.950  14.420
74792W        W38736  28.521  41.487   3.787
74793W        W38737   3.325  42.411  10.917
74794W        W38738  43.021  18.674  12.898
74795W        W38739  30.506  35.940  10.634
74796W        W38740  12.134  11.709   0.291
74797W        W38741  11.750   5.393  13.318
74798W        W38742  34.614   7.273   1.727
74799W        W38743   7.823  24.507  14.764
74800W        W38744  20.170  11.340   2.710
74801W        W38745  14.159  37.359   0.775
74802W        W38746   9.234   3.832  12.079
74803W        W38747   7.238   0.342   3.765
74804W        W38748  18.659  30.965  12.498
74805W        W38749  37.858  13.841  14.013
74806W        W38750  28.994   3.873  12.079
74807W        W38751  42.934  14.229  11.415
74808W        W38752   1.268   5.292  12.569
74809W        W38753  42.973  25.133  10.123
74810W        W38754  21.651  31.490   1.805
74811W        W38755  35.415  17.636   4.200
74812W        W38756  18.234  12.129   0.438
74813W        W38757   5.782  24.716  12.547
74814W        W38758  40.460  20.566  13.508
74815W        W38759  40.891  16.801   4.669
74816W        W38760  37.340  19.764   0.879
74817W        W38761  37.942  37.531   2.322
74818W        W38762  33.593  20.145  14.939
74819W        W38763   6.422  19.209  11.870
74820W        W38764  26.050  35.061  13.521
74821W        W38765   6.367  22.672   0.748
74822W        W38766  24.514  35.948   0.266
74823W        W38767  12.751   8.395   1.837
74824W        W38768  32.514  34.090   4.216
74825W        W38769  36.852  19.737   3.312
74826W        W38770  32.988  37.468   0.390
74827W        W38771   4.445  28.502   4.726
74828W        W38772  28.557  14.778   4.225
74829W        W38773   5.318  43.420   4.800
74830W        W38774  32.910  33.033  11.999
74831W        W38775  11.773  38.932  13.820
74832W        W38776  25.134  42.514   3.292
74833W        W38777  21.533   3.736  10.908
74834W        W38778  13.273  29.609  12.995
74835W        W38779   9.702  39.808  10.597
74836W        W38780  14.654  40.382   2.291
74837W        W38781   4.781  40.479  14.379
74838W        W38782  18.720   4.440  13.368
74839W        W38783  31.568  14.097   2.874
74840W        W38784  25.498  38.042  12.461
74841W        W38785   7.688  24.195   2.777
74842W        W38786  15.777  22.238   3.712
74843W        W38787  41.999  41.499   1.434
74844W        W38788  25.964  14.626   4.161
74845W        W38789   7.748   0.961   2.841
74846W        W38790  32.624  25.133   5.220
74847W        W38791  11.279  14.829  13.491
74848W        W38792  36.856  11.372   1.750
74849W        W38793  32.907  24.082   4.160
74850W        W38794  38.523  44.429  12.552
74851W        W38795  26.649  26.183  14.359
74852W        W38796  14.218   5.809  12.889
74853W        W38797  43.479   4.405   3.190
74854W        W38798  11.723  19.541  10.026
74855W        W38799  32.127   1.810   2.282
74856W        W38800  16.283  19.630   4.114
74857W        W38801  15.723  12.732   2.261
74858W        W38802  34.600  38.977  14.302
74859W        W38803  21.749  42.786   3.804
74860W        W38804  33.039   9.762  13.869
74861W        W38805  12.176  28.628  13.878
74862W        W38806   7.256   6.207   3.668
74863W        W38807  14.651  14.589   1.709
74864W        W38808  13.313  11.281  13.443
74865W        W38809  42.318  10.716   4.661
74866W        W38810  28.945  21.192  12.977
74867W        W38811  28.680  43.404  11.953
74868W        W38812  10.676   4.837  11.559
74869W        W38813  20.145  18.163   1.833
74870W        W38814  34.992   8.804  14.441
74871W        W38815   4.842  13.629  12.419
74872W        W38816  38.398  32.066   3.763
74873W        W38817   8.361   3.221  12.059
74874W        W38818  42.818   3.342  12.467
74875W        W38819   1.783  33.025  13.888
74876W        W38820  41.506  37.998   0.938
74877W        W38821  42.948  30.159   3.715
74878W        W38822  28.575  22.515  14.310
74879W        W38823   1.385  25.669  12.398
74880W        W38824  12.191   6.820  11.008
74881W        W38825  27.197  16.631   4.769
74882W        W38826   3.873  19.754  13.485
74883W        W38827  19.704   7.861  10.568
74884W        W38828  16.318  33.564  10.915
74885W        W38829  11.828  37.550  13.368
74886W        W38830  36.473  13.256  11.943
74887W        W38831  29.116   1.919  13.978
74888W        W38832  22.695  42.849   9.942
74889W        W38833   2.393  36.479   1.228
74890W        W38834  17.627   4.937  12.574
74891W        W38835  22.517  14.662   2.376
74892W        W38836  38.959  14.196   2.847
74893W        W38837  41.435  22.712   3.367
74894W        W38838  22.631   5.723   2.248
74895W        W38839  35.399   0.746   1.803
74896W        W38840  29.448  14.215   9.937
74897W        W38841  18.269  18.103   1.388
74898W        W38842  19.613   4.445   3.731
74899W        W38843  33.453  20.170   2.680
74900W        W38844  13.118  22.170  12.408
74901W        W38845  15.652   2.332   4.820
74902W        W38846  27.507   2.734  14.483
74903W        W38847   3.842  34.939  12.528
74904W        W38848  44.923  17.294   0.443
74905W        W38849  37.043  44.780  12.831
74906W        W38850  28.496  33.487   3.669
74907W        W38851  14.692   3.848  11.473
74908W        W38852  40.530  39.481   2.416
74909W        W38853  13.313  26.662  14.803
74910W        W38854   4.942   4.816  14.450
74911W        W38855   4.932  32.407  11.874
74912W        W38856   0.758  44.880   3.692
74913W        W38857  17.298  17.237  14.470
74914W        W38858  43.384   3.343  10.114
74915W        W38859  23.093  44.828   3.840
74916W        W38860  41.408  35.853  12.375
74917W        W38861  33.413  31.924  10.950
74918W        W38862  24.190  22.745  14.817
74919W        W38863   7.413   4.890   0.908
74920W        W38864  25.061  13.677   3.185
74921W        W38865  16.716  11.232   3.656
74922W        W38866  16.143   2.310  10.572
74923W        W38867  13.197  33.395   3.307
74924W        W38868   3.908   5.404   2.219
74925W        W38869  43.939  30.021   1.799
74926W        W38870   4.920  32.529  14.758
74927W        W38871  31.074   3.731  10.405
74928W        W38872  19.542   0.314   4.300
74929W        W38873  10.781   4.331  12.066
74930W        W38874  16.102  16.618  11.583
74931W        W38875  34.534  10.272   4.337
74932W        W38876  36.843  42.359   0.879
74933W        W38877  33.064  37.916  12.022
74934W        W38878  40.456  34.523   9.949
74935W        W38879   5.252  11.624  10.605
74936W        W38880  36.000  28.051   4.744
74937W        W38881  15.316   7.398   0.416
74938W        W38882   7.703  15.169  14.859
74939W        W38883  39.969   4.311  13.975
74940W        W38884  20.527   7.403  12.027
74941W        W38885   1.237   0.970   2.312
74942W        W38886  36.399  40.356  14.855
74943W        W38887  31.062  18.721  12.046
74944W        W38888   2.303  41.900  14.907
74945W        W38889  10.804  17.169   1.818
74946W        W38890  14.117  15.210   4.311
74947W        W38891  20.064   9.705   9.986
74948W        W38892   6.796  39.340   4.195
74949W        W38893   5.688  26.163  12.089
74950W        W38894  17.640   2.750   1.298
74951W        W38895  11.687  28.969  10.584
74952W        W38896   8.195  26.626  13.350
74953W        W38897  28.039  38.555  12.908
74954W        W38898  38.853   9.343  14.870
74955W        W38899  16.246  19.664  10.977
74956W        W38900  25.126  27.550   3.811
74957W        W38901  26.089   1.439   0.308
74958W        W38902   4.350  23.101  11.087
74959W        W38903  25.040  41.408  10.431
74960W        W38904  18.242  18.680  14.761
74961W        W38905  13.624  44.961   0.952
74962W        W38906  34.396  43.817  14.787
74963W        W38907  29.489   2.782  12.876
74964W        W38908   3.718  28.594   4.690
74965W        W38909  42.902   3.734   0.252
74966W        W38910  23.094  38.455  11.015
74967W        W38911  33.118  40.050  10.617
74968W        W38912  11.365  10.167  10.424
74969W        W38913  30.939  10.268   0.960
74970W        W38914  24.501   5.770  13.479
74971W        W38915  39.501  13.234  10.959
74972W        W38916  41.883  22.589   4.763
74973W        W38917  25.020  37.346  12.408
74974W        W38918  35.409  24.676  10.958
74975W        W38919  20.227  35.466   1.694
74976W        W38920  34.429  44.008   4.600
74977W        W38921   8.196  30.925  11.611
74978W        W38922  34.464   3.786  11.434
74979W        W38923  19.257   9.169  10.509
74980W        W38924  39.480  39.549  11.487
74981W        W38925  18.746   6.770  14.773
74982W        W38926  21.568  30.110   4.251
74983W        W38927  40.456  26.050  13.393
74984W        W38928  19.157  14.608  11.936
74985W        W38929  42.306   4.907  10.516
74986W        W38930   4.887  30.123  14.984
74987W        W38931  22.583  24.230  13.461
74988W        W38932  12.800  35.064   2.195
74989W        W38933  17.272   2.434  11.449
74990W        W38934  12.685  13.646   4.324
74991W        W38935  39.913   6.680  11.113
74992W        W38936  14.823  35.370  14.977
74993W        W38937  30.643  20.064  11.095
74994W        W38938   7.685  13.132   0.966
74995W        W38939  11.147  42.426  10.504
74996W        W38940  39.049  10.324   2.309
74997W        W38941   7.670  35.931  12.093
74998W        W38942  21.071  17.773   1.392
74999W        W38943  13.694  43.812   4.249
75000W        W38944  32.506  34.489  12.826
75001W        W38945   6.888  36.028  14.470
75002W        W38946   2.452  32.419  14.828
75003W        W38947  22.659  36.016  11.454
75004W        W38948  12.292   9.260   3.727
75005W        W38949  20.088  34.063   3.323
75006W        W38950  25.541  18.784   1.733
75007W        W38951   1.467  16.291  10.468
75008W        W38952  33.490  35.987   0.795
75009W        W38953   4.245   1.311   1.759
75010W        W38954  11.825  12.806  14.494
75011W        W38955   3.778   8.236   3.669
75012W        W38956   7.912  17.631   1.376
75013W        W38957  13.124  36.354  14.515
75014W        W38958   3.937  18.051  12.928
75015W        W38959   6.856   0.829  13.024
75016W        W38960  26.668  20.035   1.824
75017W        W38961  28.559  32.499  14.342
75018W        W38962  16.785  30.479  11.090
75019W        W38963  26.488  20.080  14.469
75020W        W38964  35.392  29.017   2.273
75021W        W38965  37.562  20.075   0.414
75022W        W38966  24.721  41.922  14.367
75023W        W38967   8.725  21.599  11.859
75024W        W38968  29.018   5.367   2.334
75025W        W38969  34.376  35.525   0.472
75026W        W38970  21.208   6.232   2.740
75027W        W38971  30.128  41.466  11.523
75028W        W38972  22.529  26.566   1.276
75029W        W38973  24.644  39.954  13.809
75030W        W38974   9.849  14.820  11.897
75031W        W38975   1.746  26.576   3.863
75032W        W38976  42.506   2.252   3.157
75033W        W38977  38.890  40.388   2.278
75034W        W38978   2.754  40.015   4.836
75035W        W38979   7.384  25.494   2.385
75036W        W38980  15.256  32.061   0.878
75037W        W38981  11.149  29.942   4.631
75038W        W38982  36.471  31.446  13.353
75039W        W38983  36.919  22.525   2.682
75040W        W38984  25.046  38.033   5.141
75041W        W38985   7.827  20.746  14.317
75042W        W38986   1.398   2.932  14.314
75043W        W38987  26.013  10.212  10.998
75044W        W38988  33.047  27.061   0.949
75045W        W38989  33.452  43.819  11.511
75046W        W38990  14.658  16.765  12.343
75047W        W38991   1.319  26.638  14.838
75048W        W38992   4.801  25.156   1.307
75049W        W38993  39.380  30.476  10.974
75050W        W38994  16.153  26.007   0.777
75051W        W38995  12.755  32.575   5.300
75052W        W38996  32.415  38.468  13.353
75053W        W38997  38.033  28.628  13.976
75054W        W38998  28.550  36.563  10.430
75055W        W38999  14.133  17.136  14.371
75056W        W39000   7.814  12.698   2.769
75057W        W39001  12.123   0.364   0.821
75058W        W39002  29.104  30.471   0.901
75059W        W39003  29.001  33.386  14.421
75060W        W39004   8.321  22.125  13.453
75061W        W39005  20.123   1.336   1.718
75062W        W39006  36.926  42.905   4.294
75063W        W39007   9.644  21.021  14.826
75064W        W39008  20.141  38.919   4.241
75065W        W39009   5.403  17.189   4.680
75066W        W39010  24.025   3.226   3.173
75067W        W39011  11.270  10.773  13.802
75068W        W39012  12.836  38.906  12.031
75069W        W39013   2.258   6.308  13.402
75070W        W39014  20.719  13.238  13.335
75071W        W39015  30.571  30.587  14.906
75072W        W39016  36.050   0.749  12.874
75073W        W39017  25.702  13.233   2.900
75074W        W39018   0.984  39.862  13.416
75075W        W39019   2.867  23.091   4.723
75076W        W39020  20.580  33.083  12.534
75077W        W39021  20.236   9.191  14.356
75078W        W39022  44.293  40.396   2.206
75079W        W39023  26.077  27.162  12.873
75080W        W39024  43.339  27.015   4.154
75081W        W39025  22.222  10.224   2.729
75082W        W39026  11.849  44.417  13.992
75083W        W39027  41.009   8.195  10.633
75084W        W39028   5.775   9.167   0.942
75085W        W39029   8.329   6.185   0.322
75086W        W39030  13.321  24.227  10.476
75087W        W39031  29.556  21.247   0.258
75088W        W39032  26.581  30.628  13.866
75089W        W39033  15.677  25.562   4.767
75090W        W39034  34.908  20.660   2.211
75091W        W39035  14.196   9.199   3.823
75092W        W39036   6.377  13.808   3.834
75093W        W39037  43.846  14.742   1.893
75094W        W39038  32.999  15.094   3.328
75095W        W39039  12.147  16.080   2.811
75096W        W39040   3.341   9.260   3.706
75097W        W39041  30.003  29.032  13.826
75098W        W39042   3.435   4.908  14.023
75099W        W39043  26.551   5.256   3.842
75100W        W39044  44.379  24.627  12.421
75101W        W39045  20.250   0.467  12.934
75102W        W39046   2.381  25.653  11.093
75103W        W39047   9.203  13.661  14.334
75104W        W39048  39.536  23.631  13.913
75105W        W39049   0.432  27.517   1.734
75106W        W39050  37.955  20.654   1.753
75107W        W39051   1.459  10.857   0.480
75108W        W39052   3.239  12.792   4.749
75109W        W39053  21.632  39.913   0.808
75110W        W39054  11.292  32.489   2.853
75111W        W39055  32.468  31.612   2.222
75112W        W39056  11.726  34.455   2.749
75113W        W39057  37.387  18.746  12.055
75114W        W39058   7.849  32.977  12.360
75115W        W39059  13.783  44.816   2.334
75116W        W39060  43.513  20.730   0.821
75117W        W39061  10.319  12.642  11.449
75118W        W39062  11.210  20.569   2.340
75119W        W39063  32.579  39.341   0.777
75120W        W39064  32.591   3.246  14.351
75121W        W39065  31.537  15.789   4.215
75122W        W39066  28.993  19.129  10.422
75123W        W39067  32.515   7.856   0.947
75124W        W39068  28.652  17.765  13.363
75125W        W39069  35.967  10.316   2.267
75126W        W39070  18.726  31.056   4.721
75127W        W39071  41.947  33.561  12.015
75128W        W39072   8.696  31.437  14.385
75129W        W39073  18.560  34.555   0.959
75130W        W39074   8.884  28.635  11.940
75131W        W39075  29.608  34.867   1.897
75132W        W39076   1.820   9.787   0.258
75133W        W39077  43.915   8.776  13.422
75134W        W39078  20.153  30.101   3.198
75135W        W39079   7.186   6.738  10.499
75136W        W39080  40.902   9.878  11.955
75137W        W39081  31.951  21.689   2.286
75138W        W39082  35.944  33.498  10.635
75139W        W39083  21.070  38.993   5.227
75140W        W39084  26.078  14.234  12.535
75141W        W39085  36.482  44.819  10.505
75142W        W39086   0.937  26.500  10.047
75143W        W39087   8.725  15.612  10.892
75144W        W39088  26.168   2.762   4.622
75145W        W39089   9.751  39.981  12.392
75146W        W39090   7.418  23.539   0.809
75147W        W39091   7.677  31.000  12.063
75148W        W39092   6.222  40.344  13.844
75149W        W39093   0.397  13.684   2.215
75150W        W39094  28.010   5.230   3.281
75151W        W39095  19.222  15.147   4.758
75152W        W39096  37.513   6.403  12.567
75153W        W39097   5.708  15.712  12.925
75154W        W39098   4.753  18.762  11.014
75155W        W39099  39.971  28.038   3.688
75156W        W39100  12.758  24.701   1.414
75157W        W39101  16.810  29.539  11.576
75158W        W39102  37.980   8.401   2.357
75159W        W39103  27.973  28.999  14.973
75160W        W39104  26.526   0.928   2.332
75161W        W39105  30.005  30.504  12.029
75162W        W39106  42.417  41.794   2.336
75163W        W39107   2.370   9.742  12.923
75164W        W39108  13.135  29.100  11.888
75165W        W39109  33.092  12.707   0.287
75166W        W39110  27.054   6.373   2.193
75167W        W39111  42.024  14.265   3.720
75168W        W39112  22.622  27.631  14.834
75169W        W39113  10.773   4.212   1.726
75170W        W39114  20.271  27.589   4.291
75171W        W39115  37.889   2.303  10.571
75172W        W39116  11.206  29.030  10.448
75173W        W39117  24.217  36.485   4.824
75174W        W39118   6.384   8.805   3.636
75175W        W39119  36.871  31.496   4.355
75176W        W39120  10.819  28.471  13.955
75177W        W39121  38.429  13.708  12.365
75178W        W39122  30.635  30.999  13.484
75179W        W39123  43.516  41.902  10.945
75180W        W39124  30.973  13.746   3.248
75181W        W39125   2.406  43.970  10.543
75182W        W39126  19.099   2.758  12.067
75183W        W39127  25.153   0.377  11.597
75184W        W39128  39.955  39.352  11.070
75185W        W39129  43.450   0.856   9.939
75186W        W39130  38.341   5.901  13.032
75187W        W39131   9.875  27.063  13.008
75188W        W39132  14.217  12.824  13.883
75189W        W39133   4.752  17.262  12.975
75190W        W39134   8.888  11.801   0.925
75191W        W39135  43.513  29.590  14.951
75192W        W39136  29.942  10.218  10.502
75193W        W39137  13.620  26.098   1.379
75194W        W39138  21.240  21.631   1.391
75195W        W39139  40.997  23.023  12.001
75196W        W39140  38.360  18.761  14.019
75197W        W39141  24.617   1.874   2.835
75198W        W39142  19.776  27.085   1.278
75199W        W39143   0.867  30.652  14.294
75200W        W39144   7.212  23.216  12.859
75201W        W39145  26.638  11.364   0.332
75202W        W39146  12.277  34.526  10.946
75203W        W39147   7.318  25.998   0.781
75204W        W39148  34.892  18.768  12.957
75205W        W39149  33.531  43.461   4.285
75206W        W39150  11.793  15.737   3.328
75207W        W39151  37.519  32.073  14.012
75208W        W39152  43.984  28.127  13.403
75209W        W39153   2.241  30.110  12.957
75210W        W39154   9.743  40.834   0.314
75211W        W39155  31.441   5.787   1.906
75212W        W39156   7.756  12.679  12.050
75213W        W39157  27.946  44.802  11.088
75214W        W39158   2.890   4.329  14.991
75215W        W39159   1.855  12.796  10.550
75216W        W39160  28.175   5.395   0.353
75217W        W39161  32.924  32.096  14.453
75218W        W39162   4.252  29.943  12.881
75219W        W39163  23.628   7.321  12.575
75220W        W39164  28.984  41.835  13.951
75221W        W39165  12.129   1.828  11.997
75222W        W39166  13.649   3.720  14.511
75223W        W39167   5.700  39.994   4.171
75224W        W39168  28.503  18.058  12.028
75225W        W39169  30.423  41.805   2.745
75226W        W39170  11.365  34.873  13.034
75227W        W39171   6.855  31.115  14.840
75228W        W39172   5.284  41.328  11.050
75229W        W39173  10.346  24.089   2.236
75230W        W39174   6.303  42.873  11.610
75231W        W39175  24.069   9.716   0.401
75232W        W39176   4.399  40.809  13.880
75233W        W39177  13.684  12.673  11.018
75234W        W39178  37.564  19.656  11.042
75235W        W39179  14.100  17.291   2.240
75236W        W39180  10.304  39.022   0.375
75237W        W39181  39.999  41.526  12.531
75238W        W39182  12.268  16.245   1.828
75239W        W39183  34.554  40.470   2.796
75240W        W39184  32.888  31.971  13.349
75241W        W39185  24.671  14.830  12.435
75242W        W39186  15.730  40.448  13.365
75243W        W39187  22.166   0.327   2.261
75244W        W39188  13.729   5.400   2.802
75245W        W39189  13.667  34.108   3.198
75246W        W39190  44.411  17.623   3.166
75247W        W39191   6.833  25.025   0.872
75248W        W39192  21.151  19.182  11.939
75249W        W39193  27.136   8.885  12.429
75250W        W39194  23.004  20.582   2.263
75251W        W39195  44.324  13.148  11.462
75252W        W39196   6.200  33.939  12.976
75253W        W39197  36.480  20.042  13.965
75254W        W39198   5.775  34.013  11.077
75255W        W39199  10.843   2.367   1.436
75256W        W39200  36.550   1.273   3.380
75257W        W39201  28.678  20.679  11.117
75258W        W39202  20.574  16.656   4.635
75259W        W39203  43.436   6.189   4.826
75260W        W39204  44.311  26.544   2.739
75261W        W39205   8.333  14.313   0.391
75262W        W39206  17.094  22.679  14.415
75263W        W39207  33.616  25.131   3.769
75264W        W39208  18.674  44.763   3.316
75265W        W39209  19.545  23.226  13.455
75266W        W39210  15.701  32.969  14.018
75267W        W39211   6.908  33.476   1.408
75268W        W39212  43.363  41.823  10.496
75269W        W39213   1.425  30.496   2.852
75270W        W39214  28.066  22.045  10.561
75271W        W39215  43.943   9.659   2.264
75272W        W39216  18.771   2.330   4.650
75273W        W39217   1.366  37.998   3.817
75274W        W39218  42.344  18.243  12.482
75275W        W39219  35.064  29.439  11.014
75276W        W39220  10.759  23.202   2.809
75277W        W39221  32.463   9.776   0.737
75278W        W39222  17.588  14.769  11.072
75279W        W39223  27.450  18.561  12.411
75280W        W39224  37.936   6.737  13.793
75281W        W39225  23.084  30.499  13.006
75282W        W39226  13.607   0.891   1.781
75283W        W39227  10.240   7.868  10.094
75284W        W39228  34.374  44.928  14.379
75285W        W39229  14.831  28.112   4.213
75286W        W39230  11.781  37.385  10.551
75287W        W39231  31.511  10.649   4.670
75288W        W39232  23.165  44.757  11.012
75289W        W39233  10.682   8.195   4.738
75290W        W39234  17.662  34.576  14.461
75291W        W39235  31.590   5.758  11.120
75292W        W39236  23.177  13.627   1.319
75293W        W39237  40.334  13.811   4.659
75294W        W39238   4.924  25.712  10.502
75295W        W39239  38.448  31.066   1.327
75296W        W39240  33.936   7.367   2.190
75297W        W39241   2.854  11.856  13.325
75298W        W39242   7.358  19.647   3.767
75299W        W39243   2.746  40.398   2.231
75300W        W39244  29.551  14.774  13.531
75301W        W39245  44.399  10.733  10.619
75302W        W39246   2.349   7.755   0.258
75303W        W39247  27.515  12.171   4.722
75304W        W39248   5.844  38.479  13.985
75305W        W39249  30.490   6.698  13.375
75306W        W39250   2.296   7.393   4.268
75307W        W39251  38.440   5.229   3.677
75308W        W39252  11.156   5.884   1.868
75309W        W39253  14.156  11.239   2.673
75310W        W39254   8.310   7.238   1.694
75311W        W39255   9.356  28.960   0.401
75312W        W39256  27.957  19.759   3.166
75313W        W39257  13.239  44.786   2.874
75314W        W39258   6.242  32.441   4.321
75315W        W39259  42.790   0.436  11.509
75316W        W39260  15.221  10.315  13.532
75317W        W39261  32.592  25.475   2.775
75318W        W39262  28.674  42.438  12.936
75319W        W39263  34.500  21.039   4.639
75320W        W39264   0.436  19.148   3.311
75321W        W39265  41.935  41.429   4.680
75322W        W39266   2.357  13.626  14.907
75323W        W39267  37.075   4.766   4.626
75324W        W39268  35.881  26.500  12.565
75325W        W39269  36.438   5.797   0.957
75326W        W39270  33.120  38.974  10.541
75327W        W39271  44.288  28.637  13.858
75328W        W39272  33.010  23.654   3.800
75329W        W39273  14.222   9.761  12.426
75330W        W39274  36.905  25.204   0.933
75331W        W39275  24.651  35.015  13.403
75332W        W39276   0.494   2.782   1.783
75333W        W39277  19.102  42.924   0.807
75334W        W39278  36.482  27.654   0.439
75335W        W39279  19.753  27.690   2.867
75336W        W39280  33.071  35.464   3.293
75337W        W39281  29.957  13.653  13.962
75338W        W39282  13.642  16.218  11.385
75339W        W39283  42.401  32.006   3.345
75340W        W39284  44.869   7.310  11.489
75341W        W39285  20.627   5.407   2.389
75342W        W39286   8.383   2.857  12.077
75343W        W39287  39.020  39.558  13.375
75344W        W39288   5.439   7.696  12.505
75345W        W39289  32.973  28.970   4.283
75346W        W39290  20.558  11.710   2.895
75347W        W39291  11.711  14.646  13.050
75348W        W39292   2.892   3.382  14.837
75349W        W39293  19.170  32.576   2.719
75350W        W39294  30.498   0.907   2.297
75351W        W39295  19.536  34.609  10.556
75352W        W39296  19.147  34.051  14.771
75353W        W39297  17.729  24.984  12.403
75354W        W39298  15.270  30.542   0.468
75355W        W39299  28.640   4.205   3.277
75356W        W39300  44.321   0.310  12.987
75357W        W39301  29.981  28.632  10.538
75358W        W39302  33.570  36.092  14.008
75359W        W39303  42.298  10.708  14.376
75360W        W39304   2.449   2.776  14.815
75361W        W39305  34.917  28.973  11.000
75362W        W39306  36.934  30.067   1.244
75363W        W39307  32.409  29.080  12.849
75364W        W39308  33.125  33.409  12.365
75365W        W39309  33.993  23.555   1.424
75366W        W39310  25.116  37.933  11.031
75367W        W39311  19.677  22.142  14.307
75368W        W39312   6.787  33.937  14.393
75369W        W39313  15.722  14.337  14.283
75370W        W39314   9.762  21.593  13.809
75371W        W39315  17.190   6.399   3.849
75372W        W39316  13.693  28.953   3.792
75373W        W39317  44.815  29.636   4.735
75374W        W39318  32.968  29.519  14.834
75375W        W39319  29.560  41.787  14.903
75376W        W39320  24.514   4.408   4.671
75377W        W39321   2.803   2.832   1.447
75378W        W39322  22.577  21.705  11.038
75379W        W39323  12.132  32.446   0.272
75380W        W39324  18.546  19.168   2.264
75381W        W39325   4.793  44.948  14.401
75382W        W39326  37.945  24.566  12.042
75383W        W39327  13.213  32.619   0.372
75384W        W39328  18.125  34.907   4.214
75385W        W39329   0.764  31.921  10.557
75386W        W39330   4.357  17.735   2.301
75387W        W39331  23.622  43.983  14.991
75388W        W39332  38.935  40.813  11.023
75389W        W39333  34.008   2.827  12.946
75390W        W39334  21.095  35.031   2.836
75391W        W39335  15.676  22.239  14.322
75392W        W39336  40.007   5.776  10.612
75393W        W39337  31.500  22.710   3.212
75394W        W39338  35.453  39.402  13.442
75395W        W39339  19.668  16.317  12.939
75396W        W39340   8.849  43.788  14.000
75397W        W39341  42.953  30.994  12.535
75398W        W39342   9.332  42.379   0.250
75399W        W39343  21.686  33.065  14.008
75400W        W39344  17.626   7.889   4.610
75401W        W39345   3.432  20.106   5.093
75402W        W39346  31.004  40.353  10.159
75403W        W39347  42.984  31.112  13.438
75404W        W39348  33.462   8.746  11.897
75405W        W39349  33.002  33.626  11.603
75406W        W39350  31.426  21.742   3.768
75407W        W39351  33.517  35.867   2.862
75408W        W39352   0.842  12.224  13.009
75409W        W39353  27.503  21.141   1.317
75410W        W39354  17.268  16.613  14.420
75411W        W39355  36.538   5.740   1.894
75412W        W39356  12.226   4.369  14.319
75413W        W39357  12.776  34.011  14.013
75414W        W39358  43.436  26.494   3.370
75415W        W39359  32.997  14.233   4.114
75416W        W39360  42.005   0.282  11.996
75417W        W39361  11.316  29.006  12.365
75418W        W39362  17.743   7.751   3.271
75419W        W39363   7.742  16.251   1.812
75420W        W39364  18.105  31.412  11.496
75421W        W39365  24.623  13.136   4.758
75422W        W39366  36.033  42.842   4.176
75423W        W39367   7.276   7.188  14.292
75424W        W39368  41.026  11.751   2.302
75425W        W39369  13.654  25.479   4.288
75426W        W39370   0.893  18.283  14.903
75427W        W39371  28.095  18.093   4.117
75428W        W39372  25.121  10.868  14.865
75429W        W39373  44.455  32.899  13.877
75430W        W39374  26.558  22.605   2.285
75431W        W39375  28.467  39.881  11.963
75432W        W39376  33.512  15.586   2.213
75433W        W39377  10.850  21.737   2.748
75434W        W39378   5.310  24.527  12.554
75435W        W39379  28.552  39.340  13.363
75436W        W39380  11.770  42.910   1.849
75437W        W39381   6.791  24.215  10.991
75438W        W39382   5.788  38.071  12.572
75439W        W39383  21.101  30.511  14.833
75440W        W39384  11.736  26.095   2.897
75441W        W39385  22.627   4.909   5.296
75442W        W39386  25.978   8.268   0.905
75443W        W39387   1.892  32.595   1.391
75444W        W39388  38.039  34.962   1.696
75445W        W39389  11.303  41.332  10.493
75446W        W39390  29.965  39.422  14.443
75447W        W39391  36.418  40.408   4.230
75448W        W39392  34.407   0.888  13.534
75449W        W39393  20.099  39.055   2.206
75450W        W39394  44.899  10.142  11.550
75451W        W39395  37.354  44.949  14.332
75452W        W39396  21.136  11.760  12.471
75453W        W39397  37.522  11.766  10.585
75454W        W39398  14.196  44.928  12.939
75455W        W39399  24.039  25.636   2.228
75456W        W39400  22.050  19.770  11.530
75457W        W39401  42.494   2.376  14.880
75458W        W39402  20.158  16.578   2.355
75459W        W39403  33.956   3.378   3.695
75460W        W39404  30.068  15.189  12.075
75461W        W39405  44.335  36.909  10.467
75462W        W39406  35.589   4.399   0.473
75463W        W39407  43.015  43.390   0.384
75464W        W39408  23.107   5.911  14.314
75465W        W39409   4.761  41.428   0.838
75466W        W39410  30.022  20.253  13.459
75467W        W39411  10.328  26.012  13.380
75468W        W39412  37.034  18.180  14.822
75469W        W39413  40.884   8.314   4.714
75470W        W39414  44.283  29.936  14.815
75471W        W39415   4.740  19.604  12.878
75472W        W39416  14.774   7.249   3.774
75473W        W39417   3.770  18.112  10.457
75474W        W39418  20.164   6.893   2.734
75475W        W39419   6.697  14.826  14.504
75476W        W39420   2.441  43.471   3.765
75477W        W39421  12.332  31.933   1.825
75478W        W39422  44.959   7.859   3.304
75479W        W39423  19.139  41.440  11.510
75480W        W39424   1.899  23.998   2.822
75481W        W39425  15.609  24.635   3.867
75482W        W39426   6.186  38.041  14.000
75483W        W39427  23.583  41.817  14.294
75484W        W39428  11.835  26.173  11.612
75485W        W39429   8.206   0.984   1.864
75486W        W39430   9.151  15.161   3.862
75487W        W39431  28.175  22.660   2.362
75488W        W39432  33.447  30.991   1.734
75489W        W39433   1.814  21.677   1.703
75490W        W39434  43.303  40.377  14.931
75491W        W39435   1.386   7.885  12.531
75492W        W39436   9.817  19.546   3.169
75493W        W39437  42.807   0.295  13.867
75494W        W39438  27.634  38.362  11.479
75495W        W39439  21.100   4.901   0.921
75496W        W39440   1.882  29.446  13.351
75497W        W39441  29.987  42.852   1.437
75498W        W39442   5.903  19.086  10.589
75499W        W39443   4.298  10.815   1.739
75500W        W39444  36.404  40.362  11.550
75501W        W39445  44.764  32.554  14.405
75502W        W39446   3.268  19.233   3.664
75503W        W39447  37.387  40.862   1.743
75504W        W39448  22.661   9.704   0.349
75505W        W39449  40.401  15.302  13.466
75506W        W39450  14.132   3.817   0.416
75507W        W39451   1.245  44.411  12.016
75508W        W39452  19.159  24.513   3.681
75509W        W39453  32.438  31.138   3.230
75510W        W39454  42.854  41.471  13.903
75511W        W39455  39.001  23.500   1.316
75512W        W39456  22.109  44.414   0.256
75513W        W39457  24.133   1.974  11.442
75514W        W39458  29.149  44.917   0.328
75515W        W39459  28.997  39.946  14.795
75516W        W39460  36.904  26.024  11.443
75517W        W39461   1.846  35.389   1.705
75518W        W39462  28.172   7.886  13.503
75519W        W39463  17.091  11.203  11.891
75520W        W39464  29.540  24.103  13.817
75521W        W39465  17.250   5.853  13.046
75522W        W39466   4.328   2.306   2.363
75523W        W39467  38.829  40.943  11.867
75524W        W39468  32.609  34.936  13.461
75525W        W39469   6.916  15.797  14.851
75526W        W39470  36.471   4.360  14.356
75527W        W39471  29.132   3.867  10.482
75528W        W39472   0.950  19.059   0.289
75529W        W39473  22.532  27.643   4.635
75530W        W39474  41.786  37.414  13.445
75531W        W39475  35.532  33.392  13.000
75532W        W39476  20.695  19.278   2.206
75533W        W39477   9.858  14.146  13.028
75534W        W39478  19.660   6.913  11.068
75535W        W39479  40.321  10.633   3.206
75536W        W39480  20.112   8.662  10.427
75537W        W39481  23.499   3.891   1.342
75538W        W39482   5.299  11.673   3.829
75539W        W39483  22.154  28.457   3.794
75540W        W39484   6.249   5.431   3.632
75541W        W39485   9.254  24.479  13.889
75542W        W39486  40.457   8.279   1.218
75543W        W39487  36.502  39.965   1.710
75544W        W39488  21.137  31.968  13.999
75545W        W39489  14.783  31.106  11.471
75546W        W39490  22.584  17.274  13.811
75547W        W39491  28.111  17.132  12.361
75548W        W39492  26.064   5.907   2.850
75549W        W39493  14.127  12.168   2.724
75550W        W39494  20.114  43.871   1.397
75551W        W39495  24.490  15.216   3.665
75552W        W39496  13.656  31.030  11.483
75553W        W39497  36.068  32.573   2.825
75554W        W39498  24.006  39.497  14.323
75555W        W39499  14.719  37.078  13.347
75556W        W39500  39.025  24.707   0.426
75557W        W39501  16.179  38.526   3.203
75558W        W39502  10.785  33.525  12.465
75559W        W39503   1.271   3.322  13.490
75560W        W39504   7.751  22.571  12.532
75561W        W39505  39.506   7.349   5.181
75562W        W39506  32.915  43.499   2.179
75563W        W39507  15.717  23.623   3.854
75564W        W39508  31.526  21.123   0.964
75565W        W39509  30.626   2.437  13.963
75566W        W39510  42.513  13.651  12.418
75567W        W39511  31.539  35.971  14.862
75568W        W39512  19.764  17.098  12.573
75569W        W39513   6.413   2.307   0.892
75570W        W39514  19.134   2.839  12.867
75571W        W39515  30.495  41.901  11.931
75572W        W39516  21.036  18.586   0.318
75573W        W39517  38.976   8.179  14.297
75574W        W39518  14.690  27.616  14.488
75575W        W39519   4.428   3.323   0.275
75576W        W39520  16.689  20.748   4.670
75577W        W39521  23.204  40.001  10.992
75578W        W39522  37.516  31.896  12.853
75579W        W39523   6.757   8.689  11.886
75580W        W39524   3.935  37.440   2.726
75581W        W39525  42.354   5.848   0.843
75582W        W39526   7.387  38.398  11.949
75583W        W39527  10.737  15.581   4.648
75584W        W39528  33.451  11.666   4.148
75585W        W39529  17.275  14.656   1.302
75586W        W39530   5.230  12.218  13.064
75587W        W39531   5.835   7.735  10.456
75588W        W39532   1.845  27.630  10.499
75589W        W39533   7.832  36.375  12.559
75590W        W39534  40.360  40.447  11.397
75591W        W39535  38.440  11.242  14.765
75592W        W39536  26.496   8.223  13.378
75593W        W39537   8.790  11.761   1.449
75594W        W39538  22.209  44.817   1.752
75595W        W39539  39.825  25.535   1.730
75596W        W39540  31.579  41.835   4.198
75597W        W39541  19.638  40.976   2.353
75598W        W39542  23.545  25.130  12.433
75599W        W39543  15.642  39.869   1.815
75600W        W39544   0.361  28.447  10.592
75601W        W39545  18.243  36.870  11.099
75602W        W39546  35.047  42.323   2.232
75603W        W39547  33.420  33.495   1.343
75604W        W39548   3.953  12.328   2.416
75605W        W39549  27.058  20.608   3.293
75606W        W39550  20.666   4.943  13.062
75607W        W39551  41.977  21.749   3.828
75608W        W39552  23.629  43.802   3.173
75609W        W39553  11.334  25.684   1.251
75610W        W39554  32.954  25.702   0.920
75611W        W39555   5.229  26.675  12.397
75612W        W39556  26.578  28.030  10.915
75613W        W39557  43.516  42.507   1.712
75614W        W39558   3.404  31.105   1.333
75615W        W39559  34.545  37.498  10.473
75616W        W39560   3.409   1.747  10.106
75617W        W39561  20.545   0.773  14.031
75618W        W39562  29.129   0.784   1.224
75619W        W39563  31.459  31.902   1.258
75620W        W39564  30.037  22.144  11.117
75621W        W39565   3.244   6.814  13.432
75622W        W39566  32.135  44.853  10.907
75623W        W39567   1.416  26.054   2.897
75624W        W39568  23.005  33.483  13.054
75625W        W39569  38.496  18.585   1.769
75626W        W39570  28.529  19.223   4.191
75627W        W39571  18.565  42.308  13.525
75628W        W39572   9.278  42.810  10.922
75629W        W39573  23.597   5.926   2.384
75630W        W39574  36.902  12.348  12.052
75631W        W39575  41.873   1.406  14.774
75632W        W39576  29.924  44.408   2.330
75633W        W39577   6.188  19.614   0.889
75634W        W39578  36.019  12.702   3.635
75635W        W39579   7.758  33.490   4.747
75636W        W39580  12.760  15.772   4.188
75637W        W39581   8.735  14.812  14.021
75638W        W39582  28.939  31.100   1.757
75639W        W39583  28.118   5.743  11.599
75640W        W39584   5.799   0.820   3.214
75641W        W39585  32.405   1.900   0.444
75642W        W39586  29.051   6.227  13.447
75643W        W39587   2.799  35.952   2.816
75644W        W39588  17.598  38.479  12.915
75645W        W39589  30.544  19.618  12.829
75646W        W39590  36.420  38.341   2.843
75647W        W39591  44.325  18.109   4.634
75648W        W39592  14.177  35.601  13.416
75649W        W39593  22.031  15.711   4.693
75650W        W39594  34.060  24.061   1.308
75651W        W39595  32.914  14.829  12.954
75652W        W39596  20.741   9.317   5.574
75653W        W39597  33.466  20.099  12.367
75654W        W39598  19.774   4.873  11.115
75655W        W39599  21.552   8.357  10.538
75656W        W39600  21.048  25.088  14.279
75657W        W39601  20.209  17.277   4.617
75658W        W39602  14.716  21.734   3.266
75659W        W39603  28.113  28.181  13.839
75660W        W39604  18.629  22.059   5.598
75661W        W39605  13.224  20.202   2.179
75662W        W39606   0.805  21.110   3.363
75663W        W39607  14.182  26.145   0.742
75664W        W39608  11.132   1.841   1.911
75665W        W39609  42.792   5.251   2.181
75666W        W39610   3.378  18.183   0.444
75667W        W39611  40.038  31.517  13.930
75668W        W39612  35.992   1.917  13.385
75669W        W39613  18.256  25.001   3.153
75670W        W39614  31.116  11.796  13.946
75671W        W39615  18.209  40.395  10.967
75672W        W39616   9.347  18.176  12.827
75673W        W39617   4.746  44.858  13.028
75674W        W39618  39.459  38.848  12.983
75675W        W39619  31.896  18.636   4.312
75676W        W39620  39.461   7.802   0.796
75677W        W39621  23.509  40.049   0.431
75678W        W39622  41.827  22.250  13.361
75679W        W39623  22.066  19.711   1.724
75680W        W39624  32.505  18.261  11.938
75681W        W39625  35.596  36.576  11.480
75682W        W39626  41.474  31.488  12.058
75683W        W39627  43.464  29.118   0.397
75684W        W39628  27.505  37.016   2.323
75685W        W39629  32.038  39.022   3.789
75686W        W39630  21.689  17.561  12.436
75687W        W39631  27.027  37.014   4.347
75688W        W39632   1.467   0.419  12.364
75689W        W39633  27.020  19.245  11.572
75690W        W39634  39.884  15.188   2.377
75691W        W39635   5.834   1.859   3.755
75692W        W39636  28.985  17.572  11.920
75693W        W39637   4.354   3.251  11.068
75694W        W39638  12.731  42.288   2.894
75695W        W39639  12.711  14.711   4.227
75696W        W39640  22.017  33.611  14.825
75697W        W39641  32.986  40.509   3.679
75698W        W39642  22.068  16.579  12.560
75699W        W39643  24.106   4.896  11.094
75700W        W39644   7.415  15.633  11.889
75701W        W39645  41.348  29.166   3.868
75702W        W39646   1.455  26.685   0.334
75703W        W39647  31.040  31.459   0.761
75704W        W39648  22.575   0.905   0.405
75705W        W39649  30.958  17.663   9.991
75706W        W39650  29.138   0.769   3.187
75707W        W39651  21.035   1.744  13.521
75708W        W39652  36.579  14.727  12.096
75709W        W39653  24.599  26.545   3.159
75710W        W39654   3.935  35.489  12.922
75711W        W39655  12.275  24.194   0.886
75712W        W39656  39.042  35.934  14.359
75713W        W39657  43.779  32.606   4.168
75714W        W39658  18.685  30.466   2.189
75715W        W39659  33.420  30.582  10.988
75716W        W39660  40.482  32.116   0.281
75717W        W39661   3.222  18.214  12.095
75718W        W39662  39.039  21.640   4.150
75719W        W39663  16.605   3.400  11.524
75720W        W39664   1.381  34.393  12.508
75721W        W39665  33.516  18.177  12.479
75722W        W39666  39.320  11.345  13.387
75723W        W39667  17.107  44.954   2.283
75724W        W39668  14.680  32.401  13.913
75725W        W39669   7.899   4.861  12.499
75726W        W39670   3.938  21.126  12.864
75727W        W39671  37.999   0.425   3.654
75728W        W39672  36.959  42.805   1.441
75729W        W39673  13.742  17.649   2.371
75730W        W39674  10.219  38.475  10.992
75731W        W39675  10.377   7.327  14.900
75732W        W39676  29.113  29.566   3.384
75733W        W39677  44.390   3.726  12.470
75734W        W39678  15.207   8.297   0.740
75735W        W39679   5.934  12.256   3.634
75736W        W39680  23.696   9.190  13.438
75737W        W39681  10.841  22.551  10.573
75738W        W39682  21.232  38.561  14.776
75739W        W39683  42.934  21.042  12.054
75740W        W39684  40.944  25.498   0.897
75741W        W39685  38.494  22.592   2.307
75742W        W39686  17.760   4.285   0.453
75743W        W39687  11.852   6.324  13.430
75744W        W39688  42.285  36.411   0.423
75745W        W39689  15.149   8.762  10.956
75746W        W39690  22.645  35.974  10.487
75747W        W39691  27.067   0.921  11.505
75748W        W39692  13.163  21.590  11.985
75749W        W39693  22.183  11.326   1.734
75750W        W39694  11.843  37.009  11.874
75751W        W39695  36.044  27.582  11.050
75752W        W39696  19.620  34.887  14.453
75753W        W39697  35.094   9.876  12.448
75754W        W39698  38.342  20.028  14.474
75755W        W39699   5.873   2.862   3.256
75756W        W39700  26.586  36.532   4.808
75757W        W39701   5.920  34.443  10.547
75758W        W39702   9.867  30.423  12.093
75759W        W39703   4.895  32.102   9.970
75760W        W39704  34.411  39.869   1.414
75761W        W39705  33.486  30.496   0.374
75762W        W39706  29.453  29.087  13.510
75763W        W39707  38.011  43.457   2.368
75764W        W39708  24.549  33.614  11.046
75765W        W39709  26.611  43.895   4.206
75766W        W39710  41.926  15.670  10.449
75767W        W39711  29.490  41.908   0.251
75768W        W39712   2.282  41.030   4.817
75769W        W39713  28.959   1.772   4.730
75770W        W39714  38.029  22.088   0.869
75771W        W39715   0.948  14.678  10.938
75772W        W39716  23.637  41.453  11.579
75773W        W39717  12.174  29.029   3.719
75774W        W39718  30.428  15.164  13.823
75775W        W39719  10.875   2.455  12.469
75776W        W39720  34.489  44.368   0.440
75777W        W39721  21.701  39.417  10.920
75778W        W39722  32.519  39.916  11.461
75779W        W39723  14.108  15.710  11.969
75780W        W39724   3.885   7.343   0.785
75781W        W39725  42.349  31.489   3.306
75782W        W39726  28.587  30.473   4.828
75783W        W39727   7.197   3.381  10.557
75784W        W39728  41.470  31.626  13.840
75785W        W39729   4.913  41.818  12.083
75786W        W39730   8.306   5.284  11.520
75787W        W39731  35.479  13.808   0.744
75788W        W39732   1.284   0.364   0.464
75789W        W39733  22.121  13.739   0.801
75790W        W39734  24.650  20.085  14.776
75791W        W39735  35.052   4.210   1.710
75792W        W39736  42.322   7.709   0.808
75793W        W39737  39.961  34.043  11.053
75794W        W39738  37.499  44.416  14.388
75795W        W39739  44.955  10.325  10.124
75796W        W39740  10.878  15.302  12.925
75797W        W39741  29.454  34.876  11.949
75798W        W39742  17.614  24.042   3.341
75799W        W39743  24.150  10.870  11.496
75800W        W39744  33.565  30.606   2.340
75801W        W39745  40.895  16.797  13.844
75802W        W39746  44.360  35.040   0.293
75803W        W39747  13.637  22.112  13.876
75804W        W39748  11.833  21.135  11.868
75805W        W39749   0.307  42.810  11.100
75806W        W39750  31.476  13.822   0.789
75807W        W39751  30.537  41.842  12.438
75808W        W39752  25.595  35.476  11.111
75809W        W39753  15.289  38.570   3.676
75810W        W39754   7.766   6.348  11.438
75811W        W39755  32.481  43.926   4.817
75812W        W39756  23.693  23.090  12.834
75813W        W39757   3.761  29.456  14.989
75814W        W39758  36.505  42.969   3.287
75815W        W39759  30.551   1.390   1.313
75816W        W39760   8.671  26.533  12.342
75817W        W39761   0.892  14.785   3.344
75818W        W39762  22.192  10.288   3.310
75819W        W39763  19.543  23.059   4.283
75820W        W39764   8.757  33.559   5.295
75821W        W39765   3.289  42.826  13.948
75822W        W39766  17.784  10.670  11.438
75823W        W39767  30.925  33.086   3.382
75824W        W39768  27.457  34.551  10.623
75825W        W39769   5.245  44.405   3.766
75826W        W39770  41.876   1.882  10.089
75827W        W39771  14.117  13.332  12.021
75828W        W39772  12.185  27.645   4.673
75829W        W39773   2.460  14.698   0.758
75830W        W39774  21.079  16.615   1.322
75831W        W39775  10.269  12.218   0.831
75832W        W39776  23.115  40.984   0.339
75833W        W39777   2.764  10.330  12.552
75834W        W39778   7.390  28.543   9.936
75835W        W39779  35.444  14.688   3.210
75836W        W39780  21.558  27.599   2.666
75837W        W39781  39.051  17.191  11.957
75838W        W39782  40.445  12.693  10.124
75839W        W39783  38.359  38.570  14.506
75840W        W39784   8.835  32.418   1.764
75841W        W39785  16.102  11.856  14.372
75842W        W39786  22.159  27.508   0.347
75843W        W39787  28.646  40.032   1.318
75844W        W39788  27.196  39.410  12.917
75845W        W39789  27.995  44.386   5.205
75846W        W39790  21.602  42.821   0.414
75847W        W39791  14.195   8.167  14.761
75848W        W39792  25.697   7.676  11.067
75849W        W39793  22.216  31.576  14.870
75850W        W39794  31.975  39.505   2.308
75851W        W39795   0.791  27.105   4.804
75852W        W39796  13.318   9.394  14.867
75853W        W39797  25.487   0.869  10.502
75854W        W39798  15.622  19.188  12.434
75855W        W39799   5.691  16.114   5.804
75856W        W39800  31.987  39.978   0.920
75857W        W39801  16.209  21.661   4.794
75858W        W39802  37.961  41.320  14.989
75859W        W39803  16.197  20.756   0.771
75860W        W39804  19.605  15.269  11.611
75861W        W39805   9.759  44.821  11.890
75862W        W39806  12.252  30.017  12.466
75863W        W39807  32.045  24.100  14.957
75864W        W39808  40.435  14.321  11.956
75865W        W39809  22.542  34.024  11.013
75866W        W39810  20.206  18.247   2.681
75867W        W39811  34.431  42.928   1.387
75868W        W39812   3.447  26.552  10.630
75869W        W39813  30.028  36.971  13.987
75870W        W39814  35.014  30.052  10.936
75871W        W39815  21.604  23.115   4.825
75872W        W39816  38.488  44.461   2.696
75873W        W39817  33.609  38.565   4.635
75874W        W39818  39.486  39.505   2.257
75875W        W39819  31.110  27.111  12.078
75876W        W39820  13.841  44.346   3.366
75877W        W39821   1.360  30.037   1.807
75878W        W39822  43.291  11.231  12.095
75879W        W39823  19.668  37.862  10.471
75880W        W39824  25.565  28.475  13.036
75881W        W39825   4.930  11.858   3.319
75882W        W39826   3.278  26.094  11.394
75883W        W39827  10.305  13.170  13.959
75884W        W39828   7.882  21.094   2.334
75885W        W39829  13.251  28.061   1.260
75886W        W39830   1.733  30.522   1.713
75887W        W39831  11.136  12.670  10.500
75888W        W39832  28.566   5.798  10.986
75889W        W39833  28.066  24.641   2.884
75890W        W39834  13.217  15.192   3.859
75891W        W39835  12.160  43.430   0.730
75892W        W39836  42.408   2.751   4.183
75893W        W39837  26.183   8.868   2.712
75894W        W39838   1.356  35.028   1.708
75895W        W39839  28.154  36.005  13.489
75896W        W39840  42.301   9.269  14.289
75897W        W39841  39.465  20.602   2.791
75898W        W39842   2.412  34.483  10.126
75899W        W39843  23.037   2.952  11.866
75900W        W39844  25.555  29.080  10.452
75901W        W39845   7.829  14.198  13.376
75902W        W39846   7.815  37.964  11.974
75903W        W39847  10.355  29.138  10.964
75904W        W39848  39.864   6.265  12.449
75905W        W39849  41.896  34.430   3.195
75906W        W39850  38.352   4.269   1.358
75907W        W39851   4.778  34.465   3.311
75908W        W39852  22.167  25.574  14.325
75909W        W39853  44.370  41.491  13.007
75910W        W39854  44.943  37.540  14.856
75911W        W39855  25.027  10.873  11.997
75912W        W39856  20.670  11.704  14.383
75913W        W39857   3.446  23.219   4.335
75914W        W39858  10.344   8.340  10.948
75915W        W39859  13.320  40.406  13.429
75916W        W39860  27.540  37.925   0.862
75917W        W39861  15.673   2.278   1.882
75918W        W39862   9.393  32.119  14.363
75919W        W39863  22.577   6.340  14.334
75920W        W39864   3.770  39.393   1.378
75921W        W39865  20.245  17.585  12.990
75922W        W39866  11.216  24.206  11.586
75923W        W39867  38.554  28.934  11.927
75924W        W39868  42.888  36.529   5.269
75925W        W39869  28.461   8.735   2.323
75926W        W39870  16.779  22.635  14.763
75927W        W39871  40.453  44.299   4.330
75928W        W39872  26.193  31.934  12.011
75929W        W39873  16.230  12.325  14.983
75930W        W39874  39.933  29.025  10.957
75931W        W39875  30.437   3.955   1.844
75932W        W39876  17.268  26.016  10.429
75933W        W39877  42.339   6.344   2.390
75934W        W39878  36.502  26.201   1.250
75935W        W39879  27.625  26.043  11.418
75936W        W39880  11.845   5.388   1.871
75937W        W39881  30.941  29.606  12.877
75938W        W39882  35.060  24.220   2.378
75939W        W39883  19.194   6.363   9.990
75940W        W39884  22.532  37.074   0.828
75941W        W39885   5.377  28.998   2.221
75942W        W39886  20.643  30.500   1.892
75943W        W39887  43.948  27.135   2.866
75944W        W39888  23.191  14.809   2.714
75945W        W39889   4.217  44.407   4.259
75946W        W39890  35.056  30.994  12.046
75947W        W39891  34.587  13.135   4.232
75948W        W39892  29.134  27.636   4.639
75949W        W39893   6.896  17.264  10.405
75950W        W39894   2.965  14.661  11.103
75951W        W39895   8.712  43.358   3.302
75952W        W39896  43.425  40.414   3.674
75953W        W39897  11.232   8.239  11.590
75954W        W39898  43.016  16.679  13.319
75955W        W39899  22.047  34.982  12.830
75956W        W39900  27.525  18.208   2.837
75957W        W39901  27.052  22.624  12.955
75958W        W39902  30.546   0.431  12.899
75959W        W39903   5.878  14.129  10.425
75960W        W39904  22.605   4.899   0.246
75961W        W39905  25.560   4.829   4.639
75962W        W39906  16.230  16.574  13.805
75963W        W39907   9.820   3.789   0.792
75964W        W39908  38.870  39.048   2.288
75965W        W39909  42.881  43.276  13.440
75966W        W39910  11.700  27.577  13.319
75967W        W39911  26.566  14.713   4.154
75968W        W39912  36.895  17.662   3.307
75969W        W39913  32.411  14.793  13.534
75970W        W39914  20.150   6.904  10.638
75971W        W39915  19.585  17.239  14.858
75972W        W39916   2.273  25.040   5.284
75973W        W39917  24.197  24.631   2.682
75974W        W39918  17.723  21.031   3.714
75975W        W39919   5.269  27.111  14.898
75976W        W39920   8.770  18.077   1.752
75977W        W39921  20.750  30.600   3.185
75978W        W39922  28.963  39.903   4.231
75979W        W39923  40.860  22.035  10.903
75980W        W39924   6.357  30.552  13.060
75981W        W39925  26.208  25.593  10.430
75982W        W39926  27.582  43.273   3.355
75983W        W39927   4.716  34.495  13.937
75984W        W39928  42.396  19.220   1.286
75985W        W39929  24.102  42.844   2.790
75986W        W39930  19.089  24.018   3.709
75987W        W39931  11.854  26.076   0.393
75988W        W39932  42.300  34.474   2.671
75989W        W39933  34.548  31.910  11.956
75990W        W39934  13.752  41.537   1.294
75991W        W39935  13.784  27.484  13.355
75992W        W39936   9.698  14.749  11.496
75993W        W39937  15.095  26.105   1.803
75994W        W39938  25.147  12.157  12.380
75995W        W39939   4.370  22.687   4.825
75996W        W39940  14.595  10.648   1.376
75997W        W39941  33.990  33.435   2.779
75998W        W39942  24.532  40.372   4.254
75999W        W39943  37.864  13.330   2.819
76000W        W39944  43.477  13.619   0.294
76001W        W39945  18.633  19.546   5.156
76002W        W39946  27.178  38.342   2.311
76003W        W39947  13.666   1.738   1.227
76004W        W39948  42.508  14.209  13.395
76005W        W39949  22.595  40.854   3.204
76006W        W39950   9.220  15.720  11.406
76007W        W39951  29.666  36.899   1.393
76008W        W39952  41.799   7.813   0.782
76009W        W39953  37.503  13.300   4.279
76010W        W39954  12.175   1.816   3.843
76011W        W39955  25.513  44.444  14.454
76012W        W39956  40.819  30.972  14.836
76013W        W39957  12.738   4.816   4.619
76014W        W39958   5.885  36.873   4.826
76015W        W39959  37.492  43.362   5.309
76016W        W39960  43.411  44.430  10.446
76017W        W39961  24.522  19.682   1.241
76018W        W39962  25.585  10.864  11.437
76019W        W39963   1.844  32.928  10.983
76020W        W39964  10.779  20.051  13.057
76021W        W39965  36.411  37.389   2.820
76022W        W39966  19.083  26.019  12.004
76023W        W39967   5.690  34.497   4.131
76024W        W39968  29.030   8.362  10.585
76025W        W39969  34.387  15.728  10.502
76026W        W39970  10.876  15.146   3.245
76027W        W39971   5.867  13.212  11.507
76028W        W39972   7.374   1.783   0.794
76029W        W39973  39.912  22.081  11.505
76030W        W39974  43.477  44.263   1.777
76031W        W39975  42.379  36.098   4.237
76032W        W39976  36.552  37.901   3.835
76033W        W39977   7.811   6.699   3.186
76034W        W39978  27.469  25.096  11.883
76035W        W39979  41.311  28.465  13.485
76036W        W39980   4.411  23.537   1.763
76037W        W39981  29.163  41.883   0.270
76038W        W39982  33.126  14.688  13.926
76039W        W39983   2.288  19.096  11.062
76040W        W39984   4.943  21.071  12.476
76041W        W39985  44.838   3.937  11.548
76042W        W39986  22.529  36.991   1.817
76043W        W39987   5.868  38.325  14.283
76044W        W39988   4.880   7.277   3.839
76045W        W39989  12.623  14.240  10.496
76046W        W39990  17.100  14.101  12.832
76047W        W39991   0.273  33.569  11.908
76048W        W39992  23.631   0.835  14.333
76049W        W39993  15.662   1.747   9.935
76050W        W39994  18.747  26.176   5.099
76051W        W39995  36.539  40.898   0.441
76052W        W39996  28.992  22.149   2.203
76053W        W39997  28.660   5.913   0.839
76054W        W39998   5.726  33.118   0.736
76055W        W39999   1.854  23.133   2.672
76056W        W40000  11.701  30.004  12.068
76057W        W40001  29.547  40.304   1.346
76058W        W40002  37.487  31.527  13.541
76059W        W40003  37.570  11.664   2.259
76060W        W40004   1.951  29.048   2.891
76061W        W40005  31.505  42.911   4.309
76062W        W40006  24.141   5.693  12.909
76063W        W40007   8.816   9.688  12.852
76064W        W40008  24.010   4.853  14.401
76065W        W40009  39.928  39.323   3.370
76066W        W40010  38.428  27.194   4.745
76067W        W40011  27.078   2.881   1.895
76068W        W40012  17.580   6.853  14.008
76069W        W40013   7.387  22.540   4.826
76070W        W40014  12.651  34.536   0.468
76071W        W40015  14.270  18.745   1.234
76072W        W40016   5.879  37.867  11.612
76073W        W40017  19.777  15.224  12.400
76074W        W40018  16.124  43.822   2.356
76075W        W40019   5.764   7.716   0.339
76076W        W40020  17.152  38.361  11.123
76077W        W40021  11.348  28.959   0.926
76078W        W40022  32.035   7.674  14.868
76079W        W40023  17.624  39.970  14.394
76080W        W40024  14.098  35.455   0.830
76081W        W40025  27.127  34.437  11.122
76082W        W40026   6.803  31.479   1.302
76083W        W40027  19.141  19.089   0.335
76084W        W40028  41.888  38.863   4.354
76085W        W40029  15.763  40.948  13.361
76086W        W40030  18.218  26.692   3.283
76087W        W40031  22.580  10.804   0.477
76088W        W40032  38.957   4.912   1.403
76089W        W40033  18.246  40.948   4.704
76090W        W40034  27.605  11.239  14.373
76091W        W40035  26.556   7.846   1.391
76092W        W40036  28.092  13.193  14.303
76093W        W40037   7.356  21.216  11.586
76094W        W40038  31.907  35.024   2.821
76095W        W40039  12.706  36.515  14.969
76096W        W40040  24.621   2.835  10.590
76097W        W40041  22.556  20.239   3.771
76098W        W40042  33.961  16.092  10.596
76099W        W40043  43.332  40.303  10.617
76100W        W40044   8.887  23.985  12.396
76101W        W40045   0.793  43.981  11.027
76102W        W40046  37.082  40.048  10.497
76103W        W40047   1.322   2.768  12.342
76104W        W40048  23.597  43.983   2.347
76105W        W40049  14.120  28.993  13.933
76106W        W40050  42.308  14.284  12.566
76107W        W40051   8.195  42.017  13.950
76108W        W40052  20.260  37.865  13.061
76109W        W40053  36.940  37.580   1.824
76110W        W40054  28.624  29.116  10.454
76111W        W40055  36.354   2.954   3.641
76112W        W40056   3.460  36.906   2.858
76113W        W40057  43.463   9.296  13.826
76114W        W40058   9.179   1.895  13.816
76115W        W40059  27.061  35.435   2.757
76116W        W40060  19.543   5.315  13.528
76117W        W40061  29.957  34.942  11.935
76118W        W40062  32.072  24.085  14.509
76119W        W40063   6.822   3.720   1.908
76120W        W40064  10.853  22.065   1.306
76121W        W40065  31.617  36.932   1.730
76122W        W40066   3.899  38.559   4.148
76123W        W40067  24.603  26.036   1.279
76124W        W40068  13.328  15.645  14.828
76125W        W40069  38.526   1.304   3.844
76126W        W40070  41.858  34.416  12.475
76127W        W40071  32.557  13.236  14.458
76128W        W40072  39.510  27.514  14.393
76129W        W40073  23.713  33.937   1.904
76130W        W40074  14.166  29.453   4.806
76131W        W40075   3.309  10.646  10.975
76132W        W40076  26.102  19.618  14.298
76133W        W40077  24.599  25.611   1.284
76134W        W40078  40.029  37.374   3.773
76135W        W40079  33.563   7.755   0.765
76136W        W40080  27.984  20.766  13.532
76137W        W40081  36.890   1.952  10.959
76138W        W40082  21.195  38.072   4.146
76139W        W40083  13.251  36.541  14.849
76140W        W40084  14.622   0.767  14.937
76141W        W40085  23.505  35.874  12.083
76142W        W40086  38.071   7.267   0.932
76143W        W40087  25.084  24.503  13.487
76144W        W40088   5.901  19.698  10.546
76145W        W40089  23.033  22.214  14.833
76146W        W40090   9.285  25.526  12.351
76147W        W40091  12.237  23.532   0.738
76148W        W40092  33.995  38.910   1.248
76149W        W40093  22.248  41.906  13.409
76150W        W40094  21.518  15.690   1.801
76151W        W40095   9.186  16.072  14.507
76152W        W40096  18.087  19.602  10.501
76153W        W40097  31.095  27.633   2.682
76154W        W40098   7.869  28.011   5.271
76155W        W40099  41.298   3.879   1.739
76156W        W40100   5.331  37.431  12.444
76157W        W40101   8.192  16.110  12.877
76158W        W40102  24.617  11.810   3.366
76159W        W40103  13.699  19.637  13.496
76160W        W40104  44.416  12.618   3.287
76161W        W40105  22.745  24.521  14.475
76162W        W40106  44.970  10.764  11.948
76163W        W40107   0.896  22.646  12.905
76164W        W40108  26.611  39.479   5.118
76165W        W40109   7.203   0.440   2.246
76166W        W40110  42.987  44.494  12.089
76167W        W40111  42.418  19.750   4.191
76168W        W40112  31.572  13.304  14.841
76169W        W40113   9.388  21.207   4.250
76170W        W40114  33.530  39.808   2.884
76171W        W40115  24.030  18.702   2.252
76172W        W40116  36.377  44.851   2.678
76173W        W40117  12.136  14.624  13.833
76174W        W40118  24.547  32.401  13.528
76175W        W40119   7.396  32.589   3.734
76176W        W40120  33.010  31.560  13.864
76177W        W40121  15.698   4.234  12.904
76178W        W40122  32.455  12.234   3.759
76179W        W40123  32.444  38.565  10.513
76180W        W40124   6.852  30.007   0.335
76181W        W40125   7.685  39.019   0.924
76182W        W40126  40.512  39.333   4.732
76183W        W40127  37.921  27.968   4.308
76184W        W40128  28.638   2.783  12.460
76185W        W40129  17.220  40.894   1.914
76186W        W40130   6.878  21.218   0.342
76187W        W40131  37.908  41.526  11.584
76188W        W40132   8.713   5.439  14.429
76189W        W40133   6.757  19.163   2.410
76190W        W40134  20.672  37.858  14.362
76191W        W40135  28.487  44.495  13.399
76192W        W40136  37.026  12.829   1.838
76193W        W40137  14.729  10.175  10.454
76194W        W40138  24.590  22.617  11.954
76195W        W40139  25.154   0.355   3.757
76196W        W40140  31.488  25.098   2.304
76197W        W40141  15.151  30.629  13.870
76198W        W40142  38.053  33.523   3.335
76199W        W40143  23.497   0.457  13.313
76200W        W40144  43.813  11.134  10.442
76201W        W40145   2.794  16.700  12.460
76202W        W40146   1.359   7.758  11.475
76203W        W40147  31.590   0.375  13.867
76204W        W40148  43.872   7.375  11.488
76205W        W40149  25.684  29.596  11.542
76206W        W40150  36.391  23.642  11.886
76207W        W40151  34.116  11.364  14.947
76208W        W40152  24.522  14.148   2.408
76209W        W40153  29.166  11.627  14.852
76210W        W40154   0.314  21.149   4.308
76211W        W40155  30.565   9.889  14.925
76212W        W40156  18.094  31.970  13.416
76213W        W40157  15.112   7.753   9.465
76214W        W40158  33.115  14.685   4.602
76215W        W40159  24.042   9.836  14.484
76216W        W40160  12.635  27.035  11.090
76217W        W40161  12.355  44.766  13.446
76218W        W40162  15.709  39.964  11.890
76219W        W40163  11.825  44.789   0.363
76220W        W40164  28.498  24.538   4.602
76221W        W40165  13.629   8.374   2.746
76222W        W40166  42.799  38.013  12.053
76223W        W40167  35.432  43.487  12.047
76224W        W40168  36.491   7.390   4.625
76225W        W40169  37.514  27.167  11.545
76226W        W40170  42.894  39.942  14.484
76227W        W40171  37.480  14.800  10.613
76228W        W40172  26.507  13.686   4.253
76229W        W40173   9.746  16.157   0.360
76230W        W40174  19.559  34.453  14.496
76231W        W40175  42.901  31.060   0.300
76232W        W40176  44.979  34.003  14.454
76233W        W40177   5.437  23.672   4.726
76234W        W40178  28.444  12.798   2.375
76235W        W40179  14.605   4.404  13.983
76236W        W40180  39.060  17.271   5.251
76237W        W40181  33.393  17.584  13.033
76238W        W40182  32.913  39.826  12.016
76239W        W40183  15.585  18.120  12.547
76240W        W40184  18.580  40.334  12.410
76241W        W40185  22.696  25.107  10.145
76242W        W40186   6.888   6.417   3.790
76243W        W40187  40.855   7.754   4.155
76244W        W40188  37.069  29.040   1.720
76245W        W40189   7.808   7.267  14.455
76246W        W40190   5.745  38.551   2.736
76247W        W40191  43.997  11.743  13.327
76248W        W40192  30.974  32.532   3.850
76249W        W40193   4.216  19.707  11.029
76250W        W40194  15.645  40.471   1.361
76251W        W40195  16.191  24.217  11.078
76252W        W40196   3.794   6.851  14.861
76253W        W40197  36.557  24.985  11.572
76254W        W40198  29.432   1.272  12.479
76255W        W40199  23.164   6.779   0.887
76256W        W40200  33.008  33.516   0.409
76257W        W40201  11.157   5.846  14.352
76258W        W40202  37.518  21.263   3.836
76259W        W40203  38.343  40.039  13.333
76260W        W40204  35.043  15.133  13.809
76261W        W40205  37.873  43.948   4.320
76262W        W40206  17.606  13.713  11.976
76263W        W40207  14.337  32.002  10.892
76264W        W40208  22.243  15.640  11.528
76265W        W40209  17.605   8.737  12.954
76266W        W40210  30.939  25.031  13.957
76267W        W40211  36.453  37.010  10.983
76268W        W40212  34.426  11.860  10.584
76269W        W40213  16.163  15.754  10.892
76270W        W40214  32.044  27.057   1.383
76271W        W40215  38.022  16.275  11.079
76272W        W40216  39.355  38.395  11.064
76273W        W40217  32.096  30.927  10.972
76274W        W40218  37.403  20.642   1.895
76275W        W40219   9.240  37.532  10.412
76276W        W40220  33.581   1.899   4.679
76277W        W40221  27.547  40.549  13.460
76278W        W40222  35.481  22.552  10.589
76279W        W40223  26.152  12.195  11.421
76280W        W40224   3.291  28.670   0.423
76281W        W40225  30.591  30.982  12.352
76282W        W40226  40.408  37.415   5.309
76283W        W40227  33.997  28.111   3.758
76284W        W40228   6.255  43.302  10.105
76285W        W40229   7.689  11.301   2.822
76286W        W40230   4.711  21.238   3.715
76287W        W40231   9.295   6.792  11.916
76288W        W40232  40.825   6.286  11.893
76289W        W40233  34.471  33.986  14.805
76290W        W40234   8.282   4.751  14.456
76291W        W40235  12.847   3.808   4.184
76292W        W40236  30.924  29.115  11.002
76293W        W40237  34.614   1.827   4.824
76294W        W40238  25.533  26.618   3.847
76295W        W40239  36.846  31.088   4.169
76296W        W40240  24.192   2.811   2.331
76297W        W40241  21.147  33.071   2.820
76298W        W40242  35.979  37.914  13.996
76299W        W40243  12.748  12.727  14.904
76300W        W40244  32.907  35.977   0.357
76301W        W40245  33.898  44.827   1.735
76302W        W40246  36.453  33.626  13.541
76303W        W40247  40.474   9.268   2.889
76304W        W40248  32.921  28.058  11.984
76305W        W40249  23.492  16.176   0.468
76306W        W40250  11.853  21.593  10.606
76307W        W40251  21.091   6.782  11.039
76308W        W40252   1.763  38.863   2.843
76309W        W40253   5.262  38.824   4.118
76310W        W40254  27.612  27.494   4.183
76311W        W40255  18.641  22.169   1.751
76312W        W40256  26.610  28.487   0.407
76313W        W40257   6.699  33.045   1.363
76314W        W40258  15.717  30.589   4.304
76315W        W40259   0.318  19.736  14.286
76316W        W40260  38.072  27.550  13.484
76317W        W40261  41.359  30.082  10.534
76318W        W40262  21.555  22.140   1.266
76319W        W40263   4.300  27.691   4.713
76320W        W40264   3.819  21.708   2.707
76321W        W40265  38.486   9.244  14.437
76322W        W40266  37.408  40.381  13.394
76323W        W40267  36.937  41.030   1.425
76324W        W40268   0.319  19.780   2.828
76325W        W40269  20.671  40.807  13.004
76326W        W40270  19.223  18.557  11.382
76327W        W40271   6.192   1.936  11.568
76328W        W40272   8.755  24.194   0.830
76329W        W40273  34.436  20.212   0.382
76330W        W40274  11.274  25.657   2.281
76331W        W40275  39.498   5.743   2.397
76332W        W40276  25.208  15.675  12.858
76333W        W40277  38.460  17.623   4.124
76334W        W40278  19.158  38.026  13.369
76335W        W40279  31.144   1.237   0.916
76336W        W40280   6.182  14.735  13.857
76337W        W40281   3.406  15.150  14.493
76338W        W40282  40.524  22.563   0.283
76339W        W40283  22.595  39.978   4.268
76340W        W40284  12.138  41.416   1.256
76341W        W40285  29.042  43.404  12.369
76342W        W40286  21.118  40.525   2.325
76343W        W40287  29.071  42.018   5.781
76344W        W40288  33.021  14.743  12.077
76345W        W40289  31.536   0.783  13.315
76346W        W40290  31.969  41.437  13.814
76347W        W40291  11.698  12.235   2.262
76348W        W40292  15.201  38.545  11.492
76349W        W40293  17.255  43.507   1.912
76350W        W40294  17.197  18.155   2.867
76351W        W40295  23.224   0.916  11.127
76352W        W40296  21.636  23.726  13.850
76353W        W40297   3.827  11.227  13.428
76354W        W40298  37.887  13.174  11.912
76355W        W40299   3.935  33.899   1.822
76356W        W40300   2.388  18.563  11.999
76357W        W40301  13.292  12.756  10.099
76358W        W40302  43.922  10.826  13.355
76359W        W40303  16.597  41.478   2.207
76360W        W40304   2.408  31.111  13.797
76361W        W40305   6.396   9.704   0.367
76362W        W40306  32.519  40.919   1.828
76363W        W40307  18.127  20.591   3.734
76364W        W40308  11.167  41.022  13.869
76365W        W40309  27.047   1.312  10.557
76366W        W40310  39.915  30.110   0.448
76367W        W40311  34.065  17.121  10.592
76368W        W40312  36.519  32.062   9.932
76369W        W40313  18.561   2.896   2.887
76370W        W40314  22.180  42.915   3.662
76371W        W40315  13.167  26.060  11.501
76372W        W40316   5.749  17.669   1.855
76373W        W40317   6.729  22.027   0.396
76374W        W40318  28.067  24.100  13.401
76375W        W40319  21.078  21.182   1.703
76376W        W40320  39.435  28.439   0.773
76377W        W40321   6.203  11.739  14.868
76378W        W40322  27.134  25.665  12.928
76379W        W40323  35.963   6.690   2.207
76380W        W40324  14.329  18.095  14.483
76381W        W40325  37.386   0.480   0.769
76382W        W40326  23.598  42.397   4.762
76383W        W40327   3.869  10.333  12.341
76384W        W40328  35.859  20.142  14.347
76385W        W40329  44.306  37.892   3.828
76386W        W40330  24.516  41.385  11.608
76387W        W40331  44.885   7.680   1.347
76388W        W40332  29.091   2.395   3.274
76389W        W40333  24.520  32.523   3.726
76390W        W40334  21.608  25.212   1.405
76391W        W40335  40.473  20.132  13.004
76392W        W40336  14.757  27.130  14.870
76393W        W40337  29.515  35.580  12.058
76394W        W40338   2.360  31.420  12.542
76395W        W40339   8.327   0.758  10.903
76396W        W40340   8.777   2.359   2.202
76397W        W40341  22.509  11.139  13.025
76398W        W40342  28.007  41.849  13.837
76399W        W40343  42.808   7.846   0.883
76400W        W40344   3.316  32.075  10.023
76401W        W40345   9.249  38.856  12.896
76402W        W40346  22.720   3.333  11.082
76403W        W40347   0.982  40.992  14.977
76404W        W40348  17.128  31.913   2.766
76405W        W40349  41.305  11.373  12.500
76406W        W40350  21.056  28.528   4.636
76407W        W40351   5.296  10.718   1.710
76408W        W40352  26.123   6.890  11.480
76409W        W40353  12.787   4.254   1.816
76410W        W40354  44.285  27.124   4.239
76411W        W40355   7.178  12.153   0.917
76412W        W40356  12.322   8.854   2.892
76413W        W40357  38.556  16.240   4.640
76414W        W40358  38.919  23.183   2.692
76415W        W40359  17.622  40.923   1.848
76416W        W40360  14.329  32.080   2.857
76417W        W40361  27.567  30.547   2.279
76418W        W40362  18.654  28.159   1.760
76419W        W40363   6.893   8.779   1.235
76420W        W40364  44.872  12.767  13.440
76421W        W40365  14.832  43.960  13.850
76422W        W40366   4.397  35.892   0.326
76423W        W40367   0.380  40.309   3.335
76424W        W40368  24.026  37.358   5.306
76425W        W40369  10.356  28.569  10.959
76426W        W40370  24.535  17.647   4.151
76427W        W40371  14.289  35.904   4.145
76428W        W40372   2.235   7.387  10.619
76429W        W40373  43.975   8.887   3.209
76430W        W40374   8.803  20.068   4.194
76431W        W40375  11.342  44.443   1.356
76432W        W40376   2.230  19.593   4.125
76433W        W40377  33.914   3.406  13.346
76434W        W40378  42.792  32.529  13.402
76435W        W40379  13.632  41.387  13.927
76436W        W40380  34.422  33.516  14.772
76437W        W40381  30.549  17.232   1.796
76438W        W40382  35.473  28.457  13.885
76439W        W40383  21.160  42.798   4.349
76440W        W40384  37.936  33.952   4.354
76441W        W40385  24.568   9.219  14.407
76442W        W40386  26.686  34.981  14.951
76443W        W40387  31.057  21.127  10.554
76444W        W40388  36.511  40.912  14.504
76445W        W40389  43.444   9.266  11.070
76446W        W40390  18.086  24.716  14.980
76447W        W40391  28.517  31.103  11.597
76448W        W40392  44.974  22.563   1.930
76449W        W40393  12.152  36.482   3.328
76450W        W40394  37.337  23.172  10.926
76451W        W40395  16.183  21.688  12.022
76452W        W40396  41.518  21.045   4.284
76453W        W40397   8.667  13.829   5.273
76454W        W40398  37.029  23.495  14.884
76455W        W40399   2.264  41.931  11.101
76456W        W40400  33.925   5.803   1.217
76457W        W40401  41.512  31.030   3.308
76458W        W40402   3.807   4.421   4.794
76459W        W40403  15.288  35.065  10.464
76460W        W40404  30.453  31.897   4.205
76461W        W40405  10.756   2.878   2.770
76462W        W40406  30.460  26.019   0.304
76463W        W40407  28.175  28.002  12.420
76464W        W40408  43.430  39.528  14.017
76465W        W40409   7.313  39.403   4.622
76466W        W40410  35.931  20.151  10.593
76467W        W40411   6.314  18.200   1.369
76468W        W40412  32.618  37.525  13.823
76469W        W40413  18.181  39.519   0.464
76470W        W40414  10.194  44.276   1.287
76471W        W40415  21.070  22.606   0.953
76472W        W40416  11.727  18.711   3.745
76473W        W40417  10.261   4.449   3.798
76474W        W40418  10.367   2.228   3.833
76475W        W40419  33.599  31.105   2.235
76476W        W40420  39.849  22.614  12.935
76477W        W40421  28.599  23.003  11.876
76478W        W40422  25.611  37.458  11.501
76479W        W40423  19.272  17.657  14.293
76480W        W40424  43.879   2.736   0.283
76481W        W40425  32.959  25.545  11.542
76482W        W40426  23.998   2.471   4.707
76483W        W40427  22.189  32.105   4.154
76484W        W40428   8.329  35.572  12.866
76485W        W40429  33.441  22.222  13.360
76486W        W40430  28.984   9.760   3.176
76487W        W40431  38.995  24.494   3.723
76488W        W40432  44.884  41.033   4.180
76489W        W40433  10.241  35.589   9.984
76490W        W40434   6.428  24.005  11.401
76491W        W40435  27.010  29.626   0.360
76492W        W40436   1.387   1.759   0.365
76493W        W40437  21.548  42.354  14.396
76494W        W40438  20.721  39.880   1.320
76495W        W40439   8.185  34.991  12.576
76496W        W40440  31.578  30.558  11.443
76497W        W40441   1.736  14.273  13.532
76498W        W40442  34.114  31.641  12.846
76499W        W40443  39.432  27.152   1.929
76500W        W40444  13.317  23.197   0.423
76501W        W40445   3.869   7.800  12.889
76502W        W40446  10.696  29.918   4.167
76503W        W40447  32.069  15.607   4.618
76504W        W40448  15.228  27.001   4.309
76505W        W40449  32.905  42.992  13.006
76506W        W40450  30.065   6.398  10.545
76507W        W40451   2.286  19.234  10.478
76508W        W40452  35.557  34.885  14.840
76509W        W40453  34.903  23.667   5.147
76510W        W40454  14.810  30.059  12.528
76511W        W40455  44.836  20.258  10.533
76512W        W40456  42.299  12.645   2.189
76513W        W40457  11.705  43.456  11.956
76514W        W40458  10.265  27.164  10.556
76515W        W40459   0.933  44.941   1.805
76516W        W40460  27.056  39.347  12.039
76517W        W40461  34.030  28.565   0.468
76518W        W40462  37.367   0.950  13.942
76519W        W40463  20.571  43.500  14.849
76520W        W40464  23.142  44.843  10.596
76521W        W40465  37.524   7.805  10.406
76522W        W40466  34.982  34.008  13.365
76523W        W40467  24.592  19.159   1.887
76524W        W40468  12.643  30.997   2.862
76525W        W40469   6.334   6.912  11.915
76526W        W40470  44.845  24.518   2.346
76527W        W40471   2.324  29.460   5.086
76528W        W40472   3.923  33.095   2.719
76529W        W40473  16.633  13.819   2.758
76530W        W40474  21.075  14.255  13.347
76531W        W40475  32.399  17.120  11.606
76532W        W40476  18.592  32.103  11.917
76533W        W40477  18.657   9.690  10.485
76534W        W40478   9.674  30.100  13.319
76535W        W40479  28.451  42.829  13.495
76536W        W40480  44.334  42.936  13.816
76537W        W40481  17.572  38.973  12.469
76538W        W40482  19.048  34.466   3.166
76539W        W40483  25.168  29.535   2.833
76540W        W40484   1.817  12.726   1.778
76541W        W40485  29.926  41.832  12.483
76542W        W40486  20.052   1.771   3.649
76543W        W40487  30.922  24.998  10.588
76544W        W40488  24.062  21.547  14.475
76545W        W40489   7.239  25.604   0.828
76546W        W40490  19.208  44.465  11.462
76547W        W40491   7.321  39.446  11.494
76548W        W40492  21.709   6.207  14.948
76549W        W40493   2.754  33.915   4.263
76550W        W40494  14.139  40.999   4.815
76551W        W40495  21.736  18.235   0.278
76552W        W40496  24.600  36.969   3.645
76553W        W40497  44.864   8.696  10.537
76554W        W40498  44.764  27.184  12.082
76555W        W40499  36.848  17.654   1.740
76556W        W40500  40.481  25.625  14.907
76557W        W40501  22.665  19.758   1.407
76558W        W40502  34.093   6.376  12.001
76559W        W40503   2.942  24.038  14.339
76560W        W40504  26.657  15.148  13.932
76561W        W40505  28.670  24.479  11.892
76562W        W40506  44.296  30.485  12.052
76563W        W40507  29.661  14.337  12.877
76564W        W40508  18.721  35.491  14.318
76565W        W40509  20.248  43.300  14.407
76566W        W40510  34.973   7.200   0.345
76567W        W40511  33.434   6.183   2.696
76568W        W40512  30.136  38.989   1.332
76569W        W40513  44.816   0.333  11.884
76570W        W40514  27.463  38.400   4.638
76571W        W40515  34.571   4.750  12.089
76572W        W40516  35.527  41.316  13.320
76573W        W40517  23.041  13.204   4.715
76574W        W40518   5.360  39.994  10.566
76575W        W40519  30.624  19.090  13.045
76576W        W40520  37.518  19.208  11.567
76577W        W40521  33.955  23.650   1.737
76578W        W40522  24.508   4.244   3.790
76579W        W40523   6.811  36.380   0.377
76580W        W40524  14.718  33.572  14.977
76581W        W40525  21.227  26.561   2.303
76582W        W40526   7.321   1.299  11.030
76583W        W40527  26.994  14.114  13.975
76584W        W40528  43.369  10.148  13.457
76585W        W40529  31.476  24.524  12.342
76586W        W40530  28.056  44.367  13.817
76587W        W40531  36.963  27.596  10.915
76588W        W40532  12.769  33.081  10.982
76589W        W40533   1.792  35.923   0.794
76590W        W40534  26.529  39.371  12.961
76591W        W40535  15.697   8.788  11.387
76592W        W40536  31.102   0.771   4.144
76593W        W40537  31.968  32.024  11.920
76594W        W40538   5.863  14.256  13.477
76595W        W40539  24.120  20.575  14.768
76596W        W40540  24.490  18.102   1.886
76597W        W40541  36.460  10.338   4.189
76598W        W40542  22.230  12.277  11.884
76599W        W40543  10.146  28.610   3.186
76600W        W40544  26.589  15.580   4.719
76601W        W40545  43.801  19.061   0.933
76602W        W40546  42.370   4.265   2.288
76603W        W40547  36.516  37.904   4.641
76604W        W40548  14.691  13.678  14.449
76605W        W40549  33.589  33.451  11.449
76606W        W40550  22.014  23.142   2.858
76607W        W40551   5.731   4.846  14.322
76608W        W40552   7.371  42.443   2.718
76609W        W40553  32.409  21.043  13.945
76610W        W40554  28.642   0.293   0.446
76611W        W40555  29.131  37.360   0.380
76612W        W40556  28.077  42.843   1.775
76613W        W40557  32.124  34.566   0.376
76614W        W40558  32.414  28.049   2.688
76615W        W40559  19.778  40.312  11.871
76616W        W40560  32.920  12.120  12.510
76617W        W40561  27.182  44.470   2.828
76618W        W40562   4.857  29.094  10.028
76619W        W40563  17.145   9.811  11.535
76620W        W40564  31.979  42.846  14.787
76621W        W40565  38.502   8.179   3.270
76622W        W40566  28.130  26.503  10.596
76623W        W40567  12.265  16.221  11.011
76624W        W40568   9.801  27.690   1.709
76625W        W40569   4.845  15.742   3.677
76626W        W40570   2.267  23.130   1.895
76627W        W40571   5.852   4.832   1.282
76628W        W40572  24.487   5.886  14.982
76629W        W40573  27.640  43.976  14.423
76630W        W40574  27.534  35.481   4.669
76631W        W40575  38.540  36.029   1.404
76632W        W40576  42.321  35.044  10.596
76633W        W40577  41.989  41.484  12.997
76634W        W40578  30.027  16.696  13.957
76635W        W40579   0.476  35.470  10.503
76636W        W40580  17.096  10.143   2.408
76637W        W40581  34.975  35.495  11.032
76638W        W40582  33.400  39.323  10.583
76639W        W40583  27.989  41.845  10.460
76640W        W40584  43.459  31.629  14.276
76641W        W40585  41.436  33.542   5.149
76642W        W40586  33.075   4.894  10.122
76643W        W40587  43.870  36.400  12.406
76644W        W40588  41.380   3.232  14.411
76645W        W40589  40.837  22.636   3.184
76646W        W40590   7.212  24.705   3.823
76647W        W40591  17.781  33.489   0.290
76648W        W40592  28.055  10.149  13.312
76649W        W40593   9.198  24.020   4.832
76650W        W40594  21.233   0.769  14.374
76651W        W40595  41.011  29.519  14.413
76652W        W40596  25.977  18.648  11.422
76653W        W40597  39.037  13.667  12.833
76654W        W40598  39.863  36.375  13.800
76655W        W40599  41.327  31.493  14.797
76656W        W40600   0.273  42.029   2.258
76657W        W40601  26.546  20.572  14.878
76658W        W40602  42.298  34.550   0.789
76659W        W40603   0.816  11.669  12.967
76660W        W40604  22.133  40.461   2.775
76661W        W40605  10.230  13.751   2.695
76662W        W40606  37.388   5.917   1.727
76663W        W40607  10.687  39.895   0.781
76664W        W40608   8.731  16.680  11.126
76665W        W40609   3.870  39.485  10.538
76666W        W40610  11.690  24.001  11.441
76667W        W40611  35.502   0.333  14.850
76668W        W40612  22.243   4.356   4.288
76669W        W40613   5.689   7.186  14.900
76670W        W40614  12.243   7.399   2.719
76671W        W40615   6.307  13.819   1.269
76672W        W40616   4.926  28.059   3.363
76673W        W40617  34.067  11.206   1.328
76674W        W40618  38.022  39.033  12.535
76675W        W40619  42.986   9.183   0.822
76676W        W40620  32.531   2.826  12.024
76677W        W40621  20.081   6.237   1.764
76678W        W40622  29.470  15.311  11.918
76679W        W40623  31.148  36.858  12.508
76680W        W40624  17.256  16.280   4.228
76681W        W40625  18.165  27.603   4.612
76682W        W40626  35.033  23.645   3.783
76683W        W40627   1.476  29.543   4.838
76684W        W40628  41.475  13.831   0.274
76685W        W40629  19.537  40.478   4.785
76686W        W40630  14.791  20.760  10.993
76687W        W40631  13.281   7.240  14.864
76688W        W40632  41.449  26.650  11.390
76689W        W40633  39.502  18.564   1.291
76690W        W40634  27.636  26.664  12.503
76691W        W40635  25.565  24.601  13.996
76692W        W40636   7.850  22.636  14.782
76693W        W40637  21.147  32.537   3.685
76694W        W40638  41.830  23.696  12.951
76695W        W40639  21.641  18.274  14.289
76696W        W40640  35.068   3.332   2.827
76697W        W40641  18.785  12.325   3.296
76698W        W40642   5.719  16.612   0.298
76699W        W40643   6.424   4.942  14.846
76700W        W40644  32.100   7.718   1.756
76701W        W40645   3.913   2.464   2.824
76702W        W40646  40.386   2.352   4.688
76703W        W40647  17.145  21.068  10.097
76704W        W40648  37.475  31.976  11.521
76705W        W40649  17.147  20.083   2.209
76706W        W40650  28.469   1.891  14.012
76707W        W40651  37.378  19.214  13.059
76708W        W40652  13.337  33.884  12.443
76709W        W40653  35.595  14.612   4.658
76710W        W40654  16.623   2.275   0.288
76711W        W40655  26.125  41.316   3.810
76712W        W40656  44.899  39.986   0.830
76713W        W40657  22.116  44.262  11.859
76714W        W40658  40.944  17.152   3.871
76715W        W40659  41.375  16.691   4.290
76716W        W40660   9.284  25.154   2.294
76717W        W40661  17.118  22.639   2.247
76718W        W40662  37.511  18.141   3.753
76719W        W40663   1.456  44.926  10.590
76720W        W40664   1.788   3.273   1.793
76721W        W40665  39.997  33.067   4.790
76722W        W40666  28.127  12.671  13.382
76723W        W40667  17.283   3.267  10.502
76724W        W40668  30.007  44.819   0.774
76725W        W40669  15.714  34.546   0.885
76726W        W40670  12.257  36.880  11.420
76727W        W40671  27.146  28.180   2.351
76728W        W40672  11.733  33.582   1.735
76729W        W40673  20.575  34.611  14.984
76730W        W40674  30.414  11.285   3.193
76731W        W40675   6.235  14.699   3.187
76732W        W40676  32.119  44.365   3.301
76733W        W40677   7.255  32.103   1.254
76734W        W40678  37.986   4.821   3.866
76735W        W40679  34.112  22.661  13.344
76736W        W40680  19.225  21.049  10.925
76737W        W40681   2.730  28.596  13.973
76738W        W40682  14.174  21.251   5.116
76739W        W40683   8.829  14.130   0.436
76740W        W40684  29.111   2.850   4.339
76741W        W40685  42.802  21.530  14.432
76742W        W40686  11.230  24.012  14.310
76743W        W40687  41.522   2.724   4.308
76744W        W40688  30.043  17.601  12.446
76745W        W40689  21.599   8.161  12.359
76746W        W40690  14.280  21.062  13.359
76747W        W40691  12.818  18.646  11.470
76748W        W40692   0.899  31.567   0.909
76749W        W40693  20.582   4.289  12.522
76750W        W40694  21.177   1.353   2.885
76751W        W40695  38.036  29.157   0.245
76752W        W40696   4.879   5.343  10.419
76753W        W40697  23.588   6.791   4.331
76754W        W40698  35.102   5.296   1.915
76755W        W40699   1.950  43.786  13.329
76756W        W40700   8.287  27.613   2.856
76757W        W40701  25.060  33.492   0.857
76758W        W40702  44.330  28.113  11.610
76759W        W40703  28.989  10.874   0.471
76760W        W40704   5.241  22.070   1.350
76761W        W40705  10.781  33.386   3.330
76762W        W40706   1.954  36.942  12.524
76763W        W40707  34.482   2.407   4.838
76764W        W40708  27.474   5.379   2.225
76765W        W40709  16.791   4.414   3.169
76766W        W40710   3.274  22.513  12.084
76767W        W40711  35.377  32.025   4.174
76768W        W40712  19.609  15.140  14.834
76769W        W40713  42.480   6.351  11.101
76770W        W40714  19.250  38.919   3.289
76771W        W40715  20.710   4.239   2.329
76772W        W40716  13.268  20.206   3.291
76773W        W40717  21.129  38.881   3.269
76774W        W40718  27.081  12.267   1.284
76775W        W40719  29.431  17.214   2.808
76776W        W40720  25.185   0.889   0.943
76777W        W40721  25.192  42.855  12.843
76778W        W40722   8.700   3.869  13.952
76779W        W40723  36.536  26.458   3.843
76780W        W40724  19.106  32.914   3.208
76781W        W40725  14.137   5.424   4.330
76782W        W40726  37.485  21.754  11.011
76783W        W40727  35.917  19.052  12.403
76784W        W40728  29.638  33.396  12.438
76785W        W40729  20.615  31.499   3.330
76786W        W40730  20.067  19.594   4.832
76787W        W40731  10.325   3.757  11.458
76788W        W40732  41.507  35.516  10.533
76789W        W40733  31.590   1.385   1.771
76790W        W40734   1.860  36.079   2.372
76791W        W40735  37.400  11.347  13.415
76792W        W40736  19.217  25.053   5.277
76793W        W40737  42.029  16.134   1.762
76794W        W40738  43.501   1.402  12.957
76795W        W40739   8.775  44.989   3.837
76796W        W40740   1.749   5.350  10.904
76797W        W40741  40.902  16.231  14.332
76798W        W40742  41.325  18.747   2.849
76799W        W40743  34.424  20.230  14.818
76800W        W40744   3.285  21.683   2.281
76801W        W40745  32.923   3.909   3.348
76802W        W40746   9.378  12.837  12.387
76803W        W40747   2.760  31.148  14.459
76804W        W40748  25.568   8.170  10.618
76805W        W40749  41.412  12.333  13.537
76806W        W40750   1.812  27.120   1.820
76807W        W40751  13.755  28.075   1.935
76808W        W40752  19.573  29.143  12.940
76809W        W40753  38.494   7.692  13.023
76810W        W40754  41.971  36.892   2.291
76811W        W40755   9.668  30.039   0.255
76812W        W40756   9.888  40.429  11.574
76813W        W40757  30.126  33.577   0.381
76814W        W40758  27.675   3.786   2.327
76815W        W40759  33.982  16.254   3.371
76816W        W40760   2.316   7.818  11.988
76817W        W40761   1.243  37.088  11.387
76818W        W40762  42.520   2.238   0.417
76819W        W40763  31.068  21.210  12.868
76820W        W40764  38.890  32.007   4.261
76821W        W40765  21.576  28.580  10.935
76822W        W40766   1.283   0.816   0.812
76823W        W40767  24.566   0.761  14.473
76824W        W40768  30.545  20.651   3.157
76825W        W40769  36.982  25.600   2.734
76826W        W40770  41.538  10.152  12.369
76827W        W40771  30.971  28.075  14.887
76828W        W40772  11.268  26.556   4.736
76829W        W40773  13.700  13.764  13.511
76830W        W40774   0.462  34.518  13.810
76831W        W40775   5.407  42.904   1.801
76832W        W40776   2.325  21.096   0.425
76833W        W40777  26.549   8.705   0.960
76834W        W40778  41.972  24.166   0.786
76835W        W40779  24.007  12.132   1.820
76836W        W40780  36.915  10.198  14.339
76837W        W40781   6.764  32.897  13.827
76838W        W40782   8.356  41.373  14.379
76839W        W40783  10.690  23.131  14.860
76840W        W40784  11.246  22.744   3.163
76841W        W40785   8.807  34.891  13.978
76842W        W40786  21.648  15.635  14.382
76843W        W40787  23.621  39.048  12.041
76844W        W40788  28.160  17.731  11.981
76845W        W40789  44.812  26.463   2.704
76846W        W40790  34.883  12.723   1.735
76847W        W40791  26.050  39.865   2.814
76848W        W40792  20.041  12.276   0.835
76849W        W40793  28.557  30.149  14.295
76850W        W40794  32.955  35.418  11.949
76851W        W40795  21.113  41.471  13.368
76852W        W40796  38.941   1.893  13.975
76853W        W40797  24.605  21.131   4.693
76854W        W40798   8.362  14.680  14.853
76855W        W40799  44.855  26.473  13.027
76856W        W40800   9.173   4.383  13.462
76857W        W40801  26.526   5.363  11.977
76858W        W40802  21.576  17.741  13.442
76859W        W40803   7.361   9.881  14.288
76860W        W40804  38.445   1.237  10.054
76861W        W40805  40.336  43.377  13.989
76862W        W40806  18.544  19.572  12.445
76863W        W40807  29.490  42.828  11.524
76864W        W40808  36.526  20.675   4.775
76865W        W40809  36.494  16.658   0.931
76866W        W40810   8.377  42.905   1.931
76867W        W40811  27.678  37.403   0.281
76868W        W40812  13.661  12.638  14.456
76869W        W40813  42.890  31.126  11.500
76870W        W40814  33.411  25.560  12.016
76871W        W40815   4.825   1.963  13.499
76872W        W40816  29.619   9.299   4.620
76873W        W40817   7.202   4.242  12.083
76874W        W40818  24.485  14.192   0.854
76875W        W40819  35.950  18.575  14.321
76876W        W40820  42.857   6.694   3.193
76877W        W40821   3.813  12.361   0.859
76878W        W40822  21.677  11.350   2.899
76879W        W40823  31.584   1.796   1.348
76880W        W40824  26.082   2.372  14.832
76881W        W40825  14.717  23.494  13.361
76882W        W40826  27.587  25.967   1.827
76883W        W40827   6.728  22.614   2.381
76884W        W40828  38.874  41.520   2.284
76885W        W40829  29.098  26.989  14.833
76886W        W40830  20.088  29.101   1.828
76887W        W40831  36.081  31.434  14.513
76888W        W40832   7.314  26.082  12.871
76889W        W40833  18.087  39.043  13.883
76890W        W40834  12.137  29.474   4.792
76891W        W40835  29.098  10.758   3.223
76892W        W40836  20.571  11.222   1.256
76893W        W40837   5.793  35.030  14.434
76894W        W40838  10.204  12.780   4.607
76895W        W40839  19.562  12.344   4.184
76896W        W40840   9.236   1.478   0.437
76897W        W40841   1.238  17.188  11.510
76898W        W40842  22.531  10.280   2.267
76899W        W40843  15.158  32.050  13.330
76900W        W40844  26.986  22.668  13.836
76901W        W40845  20.268  11.227   0.388
76902W        W40846  24.120  12.256  12.444
76903W        W40847  26.017  10.656   2.800
76904W        W40848  28.041   3.338   0.805
76905W        W40849  15.099   8.799   5.571
76906W        W40850  44.772   2.374  11.057
76907W        W40851   1.961   4.898  13.027
76908W        W40852  43.440  38.968   3.829
76909W        W40853  39.508  25.587   1.276
76910W        W40854   0.817  25.087   9.965
76911W        W40855  25.589  42.451  10.490
76912W        W40856  21.607   7.242   3.792
76913W        W40857  35.064  36.541  12.914
76914W        W40858  42.352  30.094   4.298
76915W        W40859  22.535   5.809  13.349
76916W        W40860  21.594  14.782  12.868
76917W        W40861  34.610  29.631   4.132
76918W        W40862  25.552  40.443   5.312
76919W        W40863  25.008  30.915   0.784
76920W        W40864  39.462  18.603   4.605
76921W        W40865  30.499  12.639  12.934
76922W        W40866   8.869  28.174   1.322
76923W        W40867   4.359  15.216  13.850
76924W        W40868  35.966  15.591   0.754
76925W        W40869  36.538  17.683  11.015
76926W        W40870   4.754  42.499   2.817
76927W        W40871   0.412  42.925   0.815
76928W        W40872  23.566   3.410   0.340
76929W        W40873  36.095  11.720  12.913
76930W        W40874   1.378  35.371   4.196
76931W        W40875  39.513   9.865  13.309
76932W        W40876  42.391  21.263  14.372
76933W        W40877  43.783  11.722  10.967
76934W        W40878   4.339  35.532   3.157
76935W        W40879  13.245  35.461  14.788
76936W        W40880  44.324  42.030   2.899
76937W        W40881   0.352  13.343  12.548
76938W        W40882  34.528  15.262  13.999
76939W        W40883   7.301  31.043  13.333
76940W        W40884  30.997  28.998  12.841
76941W        W40885   6.407  23.681  12.904
76942W        W40886   2.767  39.426   3.769
76943W        W40887  24.230  36.844   4.149
76944W        W40888  25.087  36.999   0.382
76945W        W40889  36.064  20.694  13.450
76946W        W40890  21.720  28.015   1.279
76947W        W40891  15.802  29.046   1.874
76948W        W40892  23.069  20.238   4.758
76949W        W40893  33.023  19.614  14.282
76950W        W40894  40.364  40.451  13.444
76951W        W40895  40.449   1.903  10.078
76952W        W40896  17.123  20.142  12.425
76953W        W40897  41.953  40.507   4.190
76954W        W40898  20.041  44.320   2.195
76955W        W40899   9.272  22.226   3.700
76956W        W40900  15.679  22.204  12.026
76957W        W40901  32.041   6.676   0.928
76958W        W40902  26.989  23.160   2.406
76959W        W40903  36.864  41.465  12.983
76960W        W40904  14.729  12.729  14.343
76961W        W40905   4.885  36.879  11.578
76962W        W40906   7.808  13.751  14.399
76963W        W40907  22.537  34.554   0.780
76964W        W40908  22.674  31.580  10.606
76965W        W40909  22.551  28.171   0.966
76966W        W40910  41.863  27.073  12.904
76967W        W40911   5.725  21.077  14.031
76968W        W40912  34.410  11.195   2.246
76969W        W40913  41.010   4.243   9.659
76970W        W40914  18.562  27.180   4.248
76971W        W40915  28.964  38.828   2.334
76972W        W40916  40.519  32.619   1.311
76973W        W40917   1.860  38.545  14.945
76974W        W40918  42.876  33.108  12.088
76975W        W40919  14.269  30.490  12.854
76976W        W40920  43.359   1.329   2.310
76977W        W40921  15.803  10.733   0.945
76978W        W40922  14.135  32.932  12.488
76979W        W40923  30.064  14.763  13.407
76980W        W40924   6.390  44.395  14.469
76981W        W40925  17.063   8.865  11.043
76982W        W40926   0.911  15.692   5.139
76983W        W40927  25.680   5.329  14.394
76984W        W40928  32.412  12.785  14.466
76985W        W40929   8.404   5.710  12.514
76986W        W40930  42.515   5.261  12.978
76987W        W40931  14.813   7.835  12.538
76988W        W40932  24.531  31.537  13.339
76989W        W40933  44.927  32.121   2.186
76990W        W40934  30.599  34.476   4.160
76991W        W40935   6.231  37.072  11.112
76992W        W40936  44.345  28.647   3.734
76993W        W40937  26.580  22.707   3.297
76994W        W40938  44.802  43.418   0.397
76995W        W40939   9.716  16.280   2.245
76996W        W40940  40.428   6.907  12.042
76997W        W40941  28.043  32.507   3.851
76998W        W40942  30.639  11.824   5.272
76999W        W40943  29.497  24.517   1.419
77000W        W40944  41.342   5.689  11.467
77001W        W40945  15.658  34.900  12.014
77002W        W40946  27.597  39.004  12.871
77003W        W40947  12.243  21.659  14.448
77004W        W40948  39.554   8.268   1.764
77005W        W40949  42.023  34.979  14.957
77006W        W40950  26.205  20.571   2.901
77007W        W40951   1.333  17.652  14.511
77008W        W40952  44.002  21.626   4.663
77009W        W40953  27.968  40.341   4.259
77010W        W40954  16.776   4.382  14.781
77011W        W40955  21.035   2.892   0.830
77012W        W40956  11.331  29.964   2.260
77013W        W40957  36.857  28.068  12.043
77014W        W40958  44.963  17.230  11.943
77015W        W40959  43.409  38.900  11.044
77016W        W40960   8.782  24.121  11.373
77017W        W40961  18.594   4.299  13.886
77018W        W40962  15.253  20.703  13.942
77019W        W40963  40.862   5.932   0.850
77020W        W40964  30.103  20.205   3.844
77021W        W40965  29.053   6.815   3.674
77022W        W40966  38.410  22.557  14.900
77023W        W40967   3.246   1.932   3.274
77024W        W40968  38.472  40.841  11.490
77025W        W40969  13.676  33.622  13.475
77026W        W40970  21.566   7.175  13.879
77027W        W40971  42.504  27.046   0.894
77028W        W40972  41.840  18.156   0.435
77029W        W40973  23.726  43.834  11.058
77030W        W40974  36.842   0.473  12.836
77031W        W40975  13.231  26.087   4.287
77032W        W40976   9.249  26.036  11.915
77033W        W40977  28.621  28.994  12.567
77034W        W40978  17.708  39.489   2.374
77035W        W40979  39.383   7.843  12.896
77036W        W40980  43.944   8.815   1.245
77037W        W40981  29.467  21.539  11.986
77038W        W40982  44.400   4.828   2.325
77039W        W40983  14.317  34.061   1.262
77040W        W40984   8.211   9.848   4.728
77041W        W40985  22.558  20.251   2.234
77042W        W40986  22.674  23.514  12.442
77043W        W40987  36.495   4.730   1.316
77044W        W40988  20.539  27.068  11.015
77045W        W40989  30.147   5.825  11.510
77046W        W40990  34.057  26.558   0.272
77047W        W40991  21.181   8.821  11.095
77048W        W40992  20.051  42.924  10.062
77049W        W40993  37.357   5.860  11.418
77050W        W40994  20.161  36.039   3.660
77051W        W40995  39.442   1.371   1.738
77052W        W40996  20.564  23.189   2.350
77053W        W40997  14.649  37.026  10.953
77054W        W40998  26.457  16.780  14.514
77055W        W40999  25.197  37.863  13.387
77056W        W41000  21.153  39.526   3.249
77057W        W41001  35.073   7.366   3.244
77058W        W41002  39.835  38.406  13.977
77059W        W41003  35.891   8.654  10.471
77060W        W41004  21.714  12.250   1.372
77061W        W41005  37.485  40.416   3.795
77062W        W41006  29.933  28.069   0.262
77063W        W41007  35.878  31.023  13.899
77064W        W41008  12.308  26.602   2.193
77065W        W41009  37.014   7.230  14.309
77066W        W41010  12.119  29.123   2.419
77067W        W41011   3.288  33.907   3.753
77068W        W41012  33.900  21.656  12.387
77069W        W41013  32.051  35.540  12.996
77070W        W41014   1.426  26.093   4.266
77071W        W41015  22.727  39.550  12.959
77072W        W41016  39.048  38.544   0.751
77073W        W41017  21.518   3.805  13.392
77074W        W41018  42.397  42.444   4.166
77075W        W41019   2.283  12.202  13.339
77076W        W41020  42.029  35.853  13.983
77077W        W41021  37.017  21.077   3.364
77078W        W41022  32.480  27.544   1.860
77079W        W41023  35.043  29.022   0.922
77080W        W41024   4.324   2.854  11.042
77081W        W41025  33.977  38.871   2.197
77082W        W41026  42.004  33.405  13.414
77083W        W41027   1.349  11.340  11.944
77084W        W41028  17.066  39.967   3.200
77085W        W41029   6.185  11.624   9.975
77086W        W41030  17.787  24.633  14.963
77087W        W41031  42.334   9.307   3.823
77088W        W41032  29.041  42.894   3.369
77089W        W41033  10.334  11.654   3.248
77090W        W41034  29.517  28.624  12.022
77091W        W41035  19.250   2.452  12.373
77092W        W41036  34.966   0.483  10.547
77093W        W41037  10.724  28.134  13.861
77094W        W41038  15.793  34.373   3.188
77095W        W41039  21.537  34.943   1.738
77096W        W41040  33.977  29.601   1.347
77097W        W41041  15.301  21.652   4.157
77098W        W41042  37.965  22.660  14.872
77099W        W41043  25.127   3.909   2.886
77100W        W41044  43.443  41.380   3.798
77101W        W41045  33.421  33.043   2.786
77102W        W41046  20.566  39.867  13.949
77103W        W41047  16.124  23.607   1.429
77104W        W41048  23.548  35.395  11.573
77105W        W41049  12.810  40.805   1.235
77106W        W41050  31.617  27.056  14.814
77107W        W41051  33.397  15.126  11.102
77108W        W41052  43.823  28.170   2.186
77109W        W41053   9.167  34.879  14.382
77110W        W41054  32.392  25.013   1.920
77111W        W41055  10.229  23.550   2.218
77112W        W41056   5.826  32.003  13.868
77113W        W41057  29.953  26.473  13.526
77114W        W41058  31.004  33.965  14.822
77115W        W41059   7.808   0.767   0.851
77116W        W41060  41.822  37.852   2.291
77117W        W41061  10.868  11.310   2.180
77118W        W41062   5.700  15.109   0.246
77119W        W41063  24.038  39.021   5.089
77120W        W41064   6.399  20.602   3.685
77121W        W41065  41.394  35.486  11.019
77122W        W41066  43.877  16.764   1.313
77123W        W41067  15.328  33.962  11.020
77124W        W41068  27.489  33.479  13.921
77125W        W41069  10.203  17.165  11.544
77126W        W41070  33.995  18.175   2.681
77127W        W41071  41.450   9.357  12.465
77128W        W41072   6.773  30.655   4.333
77129W        W41073  31.970  42.400  10.575
77130W        W41074   6.353  29.069  14.982
77131W        W41075  38.935  15.164   2.203
77132W        W41076  35.597   0.470  12.857
77133W        W41077  29.142   2.815  14.368
77134W        W41078  37.416   8.371  13.458
77135W        W41079  27.555  13.139  11.429
77136W        W41080  23.638  11.264   4.183
77137W        W41081  43.380  35.439  14.902
77138W        W41082  29.550  10.264   1.263
77139W        W41083  12.720  35.441  14.474
77140W        W41084  37.478  11.256  14.005
77141W        W41085  20.173  22.707  10.051
77142W        W41086   0.973  32.010  12.823
77143W        W41087  37.356  44.349   0.729
77144W        W41088  17.567   8.265  12.498
77145W        W41089  31.530   4.434   2.327
77146W        W41090   4.890   6.694   1.369
77147W        W41091   1.237  39.448  14.468
77148W        W41092  42.906   2.844   2.301
77149W        W41093  31.468  14.125   1.327
77150W        W41094  19.216  34.056  12.090
77151W        W41095   2.280  12.766  12.492
77152W        W41096  29.075  37.572  14.436
77153W        W41097  34.407  18.151   4.675
77154W        W41098   8.288  26.482  10.506
77155W        W41099  33.564  22.505  13.944
77156W        W41100  18.727  36.455  12.503
77157W        W41101  41.859   0.328   4.726
77158W        W41102   0.918  34.116  13.013
77159W        W41103  13.845  33.416  13.796
77160W        W41104   0.846   1.346   4.324
77161W        W41105  20.118   7.811  10.083
77162W        W41106  27.034  32.597  13.828
77163W        W41107  11.127   9.645  10.594
77164W        W41108  27.615  41.985   1.781
77165W        W41109   9.263   2.400   1.412
77166W        W41110  10.687  33.610   1.831
77167W        W41111  36.919   9.889  13.849
77168W        W41112  32.495   9.854  11.487
77169W        W41113  20.556  36.538  12.469
77170W        W41114   2.877   9.832   0.939
77171W        W41115  35.998  31.036   1.311
77172W        W41116  29.106  13.250   3.783
77173W        W41117  23.119   1.805  11.937
77174W        W41118  20.585  24.722  14.950
77175W        W41119  25.704  35.495  13.339
77176W        W41120  18.250  23.116  14.430
77177W        W41121  21.592   0.763   0.933
77178W        W41122  10.156  42.351   0.391
77179W        W41123  38.889   6.235  14.774
77180W        W41124  10.163  39.878  12.490
77181W        W41125  33.885   5.917  14.013
77182W        W41126  35.361  29.067   3.715
77183W        W41127  20.580  18.196   4.781
77184W        W41128  25.113   9.184  14.292
77185W        W41129  34.580  36.847   3.813
77186W        W41130  31.592  37.085   4.143
77187W        W41131  17.194  34.563  13.971
77188W        W41132  32.049   8.670   3.339
77189W        W41133  13.775  14.325  14.030
77190W        W41134  15.249   1.766   3.790
77191W        W41135  34.437   7.714   0.386
77192W        W41136  33.989  23.160   0.906
77193W        W41137  35.072  33.614   1.824
77194W        W41138  42.900   0.810  11.033
77195W        W41139  11.230  40.039  10.418
77196W        W41140   6.338   0.437   2.200
77197W        W41141  40.311  10.857   1.816
77198W        W41142  18.590  43.870  11.010
77199W        W41143  39.559  35.596  11.952
77200W        W41144  12.184   0.793  13.838
77201W        W41145   0.322  34.006  12.431
77202W        W41146  38.463  15.711   0.422
77203W        W41147  22.183  34.110   1.761
77204W        W41148  18.090  20.746   2.416
77205W        W41149  28.044  43.292   2.341
77206W        W41150  12.170   6.381   4.239
77207W        W41151   6.839  43.953  11.899
77208W        W41152   0.803  18.632   3.816
77209W        W41153  38.352  33.905  13.896
77210W        W41154   5.405  26.462   2.822
77211W        W41155  33.501  23.581   3.159
77212W        W41156   9.311   2.940   2.687
77213W        W41157  23.500  40.483  12.441
77214W        W41158  33.915  44.784   0.769
77215W        W41159  32.123  39.429  11.930
77216W        W41160   7.396  21.678   3.215
77217W        W41161  28.625  30.911   3.693
77218W        W41162  26.111  28.053  13.934
77219W        W41163  30.630  25.499   0.359
77220W        W41164  28.951  37.538  10.154
77221W        W41165  35.058   6.799   3.333
77222W        W41166  18.240  13.208   4.767
77223W        W41167  23.146  40.326  11.611
77224W        W41168   9.867   9.337   4.122
77225W        W41169  17.073  44.758  10.133
77226W        W41170  10.164  37.338  10.515
77227W        W41171   5.789  17.733  13.454
77228W        W41172  29.125  13.692  10.470
77229W        W41173  11.855  40.534   2.275
77230W        W41174  20.173  43.493  12.988
77231W        W41175  13.822  30.950   3.176
77232W        W41176  28.088  23.600   2.253
77233W        W41177   7.899  18.752   2.362
77234W        W41178  27.117  31.589   3.255
77235W        W41179  17.587  14.176   4.234
77236W        W41180  25.164   2.286  11.529
77237W        W41181  19.559  30.141   0.392
77238W        W41182  36.977  10.245   1.252
77239W        W41183  40.346   6.302  14.835
77240W        W41184  18.220  12.718   3.292
77241W        W41185  21.735  37.364  12.953
77242W        W41186  15.578   3.328   4.823
77243W        W41187  10.654  14.308  11.105
77244W        W41188  44.459  36.925   4.192
77245W        W41189  38.382  41.457   0.939
77246W        W41190  42.913  44.981   0.850
77247W        W41191   0.953  42.502   3.647
77248W        W41192  20.225   9.288  11.532
77249W        W41193  32.131  33.906  10.426
77250W        W41194  16.184  16.684   0.330
77251W        W41195  40.836  19.058  14.440
77252W        W41196   9.825  25.154   0.271
77253W        W41197  17.083  44.442  14.824
77254W        W41198   5.741  39.859  12.070
77255W        W41199  27.190  20.723  11.003
77256W        W41200  40.414  20.249  13.811
77257W        W41201  29.464  35.080   9.954
77258W        W41202  14.290  31.101  11.491
77259W        W41203  31.912  27.949  12.365
77260W        W41204  19.206  37.567   3.333
77261W        W41205  37.980  31.125  13.411
77262W        W41206  14.278  12.199  12.339
77263W        W41207  42.000  27.514   4.802
77264W        W41208  38.044   8.237  12.493
77265W        W41209  13.702  40.471  11.446
77266W        W41210   8.313  18.774  12.481
77267W        W41211  35.885  10.267  13.858
77268W        W41212  26.020  40.387  11.019
77269W        W41213  23.614   8.897  13.816
77270W        W41214  38.064  14.248   3.175
77271W        W41215  44.282  25.119   4.242
77272W        W41216   5.261  34.969  12.869
77273W        W41217  35.025  44.465  13.325
77274W        W41218  12.792  14.672   2.700
77275W        W41219  41.881  15.692   4.680
77276W        W41220  11.256  35.097   2.260
77277W        W41221   8.760   7.250  10.116
77278W        W41222  10.661  13.255  11.477
77279W        W41223  38.054  24.203  10.407
77280W        W41224  36.030  32.044  14.438
77281W        W41225   2.862   9.710   1.333
77282W        W41226  26.115  22.037  13.422
77283W        W41227  13.656  35.553  12.480
77284W        W41228  39.413  44.384   3.360
77285W        W41229  36.589  12.672  11.487
77286W        W41230  14.669  18.267   1.762
77287W        W41231  12.228  30.132   2.836
77288W        W41232  19.272  44.898   4.783
77289W        W41233   9.389  41.893   2.241
77290W        W41234  27.969  12.618  10.042
77291W        W41235  11.215  39.843   0.910
77292W        W41236  11.161   2.749   3.234
77293W        W41237  12.817  26.549  12.024
77294W        W41238  18.082  22.035  12.576
77295W        W41239   3.262   6.770  11.992
77296W        W41240  44.362   7.670   0.917
77297W        W41241   3.750  16.247  12.019
77298W        W41242  34.992  12.809  11.503
77299W        W41243  23.022  37.346  13.425
77300W        W41244  36.012  17.576  12.405
77301W        W41245  37.958  17.576  12.002
77302W        W41246  19.610   9.176   2.844
77303W        W41247  44.780  14.132   2.775
77304W        W41248   8.378  11.270  11.014
77305W        W41249  19.677  22.153   4.829
77306W        W41250   4.929  21.029   4.801
77307W        W41251  26.008   5.783  14.816
77308W        W41252  19.094  35.941  10.501
77309W        W41253  30.603  15.597  13.359
77310W        W41254  37.489  18.609  13.429
77311W        W41255  35.604   5.842  11.887
77312W        W41256  21.023  43.313  11.597
77313W        W41257  20.205  10.806   1.365
77314W        W41258  38.339  38.334   2.853
77315W        W41259  23.602   0.317  10.622
77316W        W41260  12.229  19.734   2.708
77317W        W41261   3.441  27.466  10.110
77318W        W41262  39.518  24.655   0.753
77319W        W41263  33.934  12.151   4.183
77320W        W41264  17.598  27.951   4.618
77321W        W41265  22.573  34.979   0.280
77322W        W41266  29.517  21.089   1.763
77323W        W41267  19.733  39.032   1.445
77324W        W41268   6.724   9.754  11.423
77325W        W41269   1.906  23.096  12.972
77326W        W41270  29.570  44.459  10.507
77327W        W41271  14.610  35.363   2.383
77328W        W41272  34.417   2.273   4.138
77329W        W41273  41.991  24.590  10.923
77330W        W41274  43.508  43.837  11.397
77331W        W41275  18.279   7.297  13.504
77332W        W41276  32.421  43.335   0.308
77333W        W41277   6.769  19.154  12.947
77334W        W41278  39.869   0.468  11.506
77335W        W41279  40.368   2.328   2.275
77336W        W41280  24.669   1.976  12.046
77337W        W41281  24.631  16.573  12.056
77338W        W41282  28.166  30.515   4.617
77339W        W41283  34.561  20.192   3.320
77340W        W41284  40.531  26.689   4.335
77341W        W41285  29.004  25.149  13.408
77342W        W41286  43.969  34.419  11.592
77343W        W41287   4.324  19.212   3.358
77344W        W41288  31.032  37.470  13.393
77345W        W41289  34.026  35.492   1.322
77346W        W41290  33.912  20.139  11.085
77347W        W41291  42.419   9.778  13.459
77348W        W41292  21.192  34.453   3.243
77349W        W41293  15.113   6.186  10.948
77350W        W41294  17.162  28.981   1.365
77351W        W41295  38.877  11.368   0.808
77352W        W41296   1.939  18.559   0.360
77353W        W41297  24.581  41.341  12.076
77354W        W41298  37.441   5.754  13.330
77355W        W41299  17.120  12.726   0.401
77356W        W41300  20.146  12.151  11.462
77357W        W41301   7.701  35.898  10.585
77358W        W41302  36.420  25.669   4.322
77359W        W41303   4.931  26.998  11.999
77360W        W41304  24.125  41.844   0.809
77361W        W41305  14.184   2.955   1.276
77362W        W41306  16.636  24.023   4.162
77363W        W41307  36.886   2.256  12.894
77364W        W41308   6.199   1.953   4.811
77365W        W41309  26.148   8.815   0.339
77366W        W41310  18.292  43.407   4.685
77367W        W41311   2.756  34.582   0.459
77368W        W41312  17.087  13.292   4.829
77369W        W41313  22.086  38.332  13.807
77370W        W41314   3.378  14.205   0.261
77371W        W41315  29.471   7.405   4.178
77372W        W41316  28.934   0.478   4.156
77373W        W41317  26.627  18.262   3.706
77374W        W41318  12.775  35.602   3.641
77375W        W41319   1.341  11.761  13.902
77376W        W41320  34.072   2.333   3.808
77377W        W41321  27.641  24.067   4.686
77378W        W41322   0.959  32.466   0.342
77379W        W41323   7.880   4.368  10.596
77380W        W41324  39.003  22.176  12.489
77381W        W41325  22.195  13.182  10.926
77382W        W41326  14.208  44.286   1.430
77383W        W41327  33.039  38.965  14.807
77384W        W41328  15.616   7.325  14.816
77385W        W41329  39.863   2.914  11.931
77386W        W41330  35.855  30.998  14.282
77387W        W41331  43.409  10.289   5.235
77388W        W41332   0.317  40.914  13.860
77389W        W41333  27.115  26.490  13.966
77390W        W41334  31.045   5.806  11.958
77391W        W41335  19.604  10.178  14.498
77392W        W41336   5.804   0.264   0.945
77393W        W41337  26.046   0.827  13.543
77394W        W41338  44.356  29.988   1.845
77395W        W41339  12.146  38.523   0.924
77396W        W41340   0.856  35.942  14.905
77397W        W41341   6.259  26.624  13.815
77398W        W41342   6.425   1.893  12.383
77399W        W41343  35.031  13.790   0.264
77400W        W41344  13.188  18.768  14.307
77401W        W41345  41.535  39.817   1.715
77402W        W41346  18.722  28.074   3.341
77403W        W41347  44.861   4.741  10.983
77404W        W41348   0.767  16.603  13.449
77405W        W41349  35.436  44.869  14.352
77406W        W41350   3.891  31.584  12.976
77407W        W41351   1.922  36.007  12.570
77408W        W41352  38.970  41.326  12.954
77409W        W41353  33.527  42.970  11.540
77410W        W41354   9.672  16.279   1.787
77411W        W41355  12.789  40.478   4.719
77412W        W41356  17.173  12.276  12.576
77413W        W41357   4.943  24.678   2.870
77414W        W41358   6.790  17.240   4.821
77415W        W41359  15.204   0.891   5.687
77416W        W41360  42.418  42.782   4.684
77417W        W41361   1.767  29.161  14.479
77418W        W41362   1.830  26.583   1.739
77419W        W41363  34.550  26.072   1.404
77420W        W41364   7.694   3.375  11.899
77421W        W41365  21.731  15.292   1.850
77422W        W41366  40.004   6.905  11.922
77423W        W41367  44.320   1.819   0.277
77424W        W41368  27.116  21.046   0.787
77425W        W41369   5.867  15.599  12.443
77426W        W41370  17.246   6.411   5.260
77427W        W41371  35.904   9.303   1.311
77428W        W41372   6.243   8.390  12.420
77429W        W41373  38.848  10.710  10.505
77430W        W41374  13.627  15.607   0.836
77431W        W41375  14.760  21.705   4.601
77432W        W41376  19.611  17.684  13.540
77433W        W41377   8.888  17.788  13.475
77434W        W41378  42.514  25.664   3.276
77435W        W41379  29.449  33.529   5.163
77436W        W41380   7.685   8.814  10.550
77437W        W41381  14.762  27.681   3.642
77438W        W41382  20.587  14.803   2.721
77439W        W41383  37.436  14.790  14.874
77440W        W41384  17.062  41.813  11.967
77441W        W41385  40.452   3.287  11.952
77442W        W41386  35.091  31.551   2.334
77443W        W41387   9.304  26.002   1.843
77444W        W41388  10.373  44.473  10.543
77445W        W41389  25.528  21.108  13.988
77446W        W41390  16.696  27.108   4.644
77447W        W41391  16.781   4.716  11.991
77448W        W41392   1.411  28.143  13.324
77449W        W41393  28.186   1.790   1.431
77450W        W41394  23.207  35.501   1.881
77451W        W41395  44.930  40.033   2.406
77452W        W41396  36.005  37.381  13.793
77453W        W41397  32.489   4.339  10.907
77454W        W41398  29.584  20.203  14.372
77455W        W41399  20.758  17.084   3.341
77456W        W41400   8.255  23.193   3.733
77457W        W41401  35.092  18.215  11.091
77458W        W41402  24.580  10.158   4.806
77459W        W41403   7.695  31.930  13.818
77460W        W41404  42.916  29.670   3.671
77461W        W41405  27.194  26.013   0.835
77462W        W41406   0.429  34.017  10.529
77463W        W41407  22.031  12.851   2.715
77464W        W41408   4.716   1.794   2.819
77465W        W41409  18.588  23.000   0.911
77466W        W41410  44.955  13.169   3.861
77467W        W41411   3.869  28.484  12.446
77468W        W41412  21.028  34.089   2.804
77469W        W41413  44.935  38.537   2.674
77470W        W41414  32.571  30.942   2.385
77471W        W41415   6.289  12.333  14.835
77472W        W41416  33.472   7.291   4.789
77473W        W41417  34.503  40.865  14.369
77474W        W41418  44.842  34.425  13.803
77475W        W41419   2.239  19.281  14.325
77476W        W41420  32.468  23.225  14.950
77477W        W41421  34.418  20.272   2.267
77478W        W41422  44.454  43.975  11.080
77479W        W41423  33.092  41.822  14.439
77480W        W41424   6.267  41.926   1.907
77481W        W41425  23.001  14.818  12.891
77482W        W41426  25.508   9.209   3.252
77483W        W41427  27.568  39.323   1.708
77484W        W41428  32.967  25.152   2.241
77485W        W41429  12.855  28.597  10.584
77486W        W41430  10.809  19.186   2.893
77487W        W41431  25.080  13.658  12.492
77488W        W41432   9.260   0.477   2.182
77489W        W41433  40.906  37.574   5.135
77490W        W41434   5.421  14.673  11.048
77491W        W41435  33.083  21.526   1.263
77492W        W41436  20.106  10.148   0.943
77493W        W41437  17.709  44.421  10.517
77494W        W41438  25.627  22.162   4.812
77495W        W41439  25.611  43.293   0.408
77496W        W41440  24.216  17.139   3.221
77497W        W41441  31.427  34.544  14.027
77498W        W41442  14.229  38.958  13.463
77499W        W41443  27.117  39.966   0.280
77500W        W41444  15.676   5.712  10.126
77501W        W41445   9.297  40.370   3.690
77502W        W41446  32.023  12.691  13.949
77503W        W41447  31.944  20.570   1.439
77504W        W41448   8.834  27.999  14.801
77505W        W41449  30.621  35.959   2.322
77506W        W41450  32.124  34.040  12.471
77507W        W41451   1.324  15.094  12.067
77508W        W41452  17.597  29.491  13.992
77509W        W41453   8.791   9.658  12.521
77510W        W41454  41.920  20.134  14.918
77511W        W41455  35.911  37.080  14.492
77512W        W41456   6.213  43.308  10.446
77513W        W41457  14.711  15.703   1.762
77514W        W41458  37.449  27.647   4.785
77515W        W41459  30.617  38.961   0.353
77516W        W41460  25.481  35.390  11.459
77517W        W41461  27.456  42.964  13.959
77518W        W41462  21.591  42.430  11.992
77519W        W41463   3.389  44.296   5.298
77520W        W41464   1.286  22.141   3.202
77521W        W41465  22.543  35.986  12.974
77522W        W41466  35.493  22.206  10.579
77523W        W41467  32.489  26.567  10.143
77524W        W41468  25.520  11.798  10.960
77525W        W41469  30.063  36.581  11.027
77526W        W41470  15.316  33.398  13.532
77527W        W41471  14.673  44.417  11.567
77528W        W41472  36.075   4.851  10.482
77529W        W41473  39.527  15.265  10.578
77530W        W41474  15.669  13.164  14.958
77531W        W41475  36.887  34.112   0.370
77532W        W41476  14.650   9.696  10.527
77533W        W41477  39.364   2.323  13.016
77534W        W41478  44.355  28.558  10.917
77535W        W41479  12.646   8.738  14.296
77536W        W41480   2.333  19.053   3.657
77537W        W41481  11.355   6.906   2.780
77538W        W41482  35.476  35.905  14.395
77539W        W41483  19.253   7.197  14.310
77540W        W41484   7.209  36.524   3.276
77541W        W41485  37.379  18.631  10.525
77542W        W41486  17.283  41.907  14.804
77543W        W41487   4.400   2.389  11.465
77544W        W41488  40.983  13.170   3.355
77545W        W41489  31.465  42.513   1.816
77546W        W41490  36.062  37.051   3.655
77547W        W41491  31.578  41.317  14.446
77548W        W41492  26.962  14.294  11.537
77549W        W41493  38.432  23.663   0.436
77550W        W41494  41.880  38.871  10.030
77551W        W41495  15.648   7.319  11.954
77552W        W41496  15.692  24.543   5.672
77553W        W41497  43.901  18.679  12.848
77554W        W41498  26.186   0.967   4.751
77555W        W41499  21.753  32.616  10.422
77556W        W41500  33.071  30.448   3.818
77557W        W41501  31.550  28.458  10.581
77558W        W41502  13.186  42.976  12.988
77559W        W41503  29.052  23.139  14.905
77560W        W41504  31.034   8.854  13.814
77561W        W41505  31.530   5.719  11.561
77562W        W41506  21.559  37.416   1.882
77563W        W41507  12.658  37.489   0.245
77564W        W41508  42.954  32.906  11.027
77565W        W41509  12.699  34.055  10.606
77566W        W41510  37.919  28.479  12.831
77567W        W41511  40.384  13.600  12.418
77568W        W41512  12.260  36.995   0.798
77569W        W41513   8.192  40.514   1.837
77570W        W41514  36.400  33.969  13.817
77571W        W41515   8.878  28.148   1.696
77572W        W41516  25.182  21.741   4.766
77573W        W41517  20.119  13.780   0.401
77574W        W41518  40.405  21.540   1.372
77575W        W41519  26.034  43.950   4.681
77576W        W41520   2.328   0.764  10.435
77577W        W41521  18.662  36.465   1.261
77578W        W41522   2.239   4.243   5.307
77579W        W41523  20.697   1.394   4.322
77580W        W41524  27.523  25.166  10.908
77581W        W41525  37.946  25.975   3.663
77582W        W41526  17.223  25.108  11.580
77583W        W41527  37.041  41.836   1.742
77584W        W41528  29.596  26.504   2.187
77585W        W41529  28.651  17.745   5.087
77586W        W41530  43.793  29.551   2.672
77587W        W41531   4.862  38.331  11.607
77588W        W41532  43.960   7.405   4.823
77589W        W41533  27.525  39.367  13.876
77590W        W41534   5.427  33.013   3.371
77591W        W41535  19.234  18.072   0.247
77592W        W41536   2.361   8.821   1.241
77593W        W41537  23.628  18.169  14.864
77594W        W41538   8.353   7.839  12.900
77595W        W41539  30.116   7.363   1.430
77596W        W41540   1.356  39.860   4.250
77597W        W41541  32.556  33.569   9.945
77598W        W41542  24.708  10.140  11.029
77599W        W41543  35.023  19.697  10.112
77600W        W41544  15.164  27.147   1.706
77601W        W41545  41.420  36.406   2.840
77602W        W41546  14.773  15.282  14.942
77603W        W41547   8.852   1.864   0.262
77604W        W41548  14.751   2.828   1.270
77605W        W41549   4.700  38.008  13.859
77606W        W41550  26.098   9.299  13.959
77607W        W41551   9.674   1.869   4.836
77608W        W41552   0.286  13.138   4.194
77609W        W41553  40.999  13.634   2.397
77610W        W41554  27.472  17.723  13.023
77611W        W41555   7.774  41.868  12.943
77612W        W41556   8.336   9.660  11.099
77613W        W41557  14.641   5.223   2.832
77614W        W41558   9.179  27.183  14.432
77615W        W41559  20.687  35.978  14.449
77616W        W41560  14.692  16.753  10.995
77617W        W41561  16.651  19.571   1.842
77618W        W41562   7.336  14.654  10.491
77619W        W41563  31.634   2.398  12.415
77620W        W41564  18.269  34.901  10.504
77621W        W41565  34.032  29.476  12.914
77622W        W41566  36.559  18.648   1.290
77623W        W41567  30.602  19.569   1.763
77624W        W41568   5.375  35.936  12.054
77625W        W41569   0.883   5.728  10.989
77626W        W41570  16.610   0.375   3.236
77627W        W41571  15.610   9.191  12.577
77628W        W41572   9.204   3.728   4.723
77629W        W41573  37.934  28.072  13.371
77630W        W41574  19.632  13.845   3.302
77631W        W41575  13.280   0.822  12.847
77632W        W41576  23.595  39.926   2.777
77633W        W41577  33.951  12.816   4.312
77634W        W41578  28.623  22.113   3.224
77635W        W41579  43.418  24.184   4.176
77636W        W41580  42.031  22.723  12.960
77637W        W41581   1.745   4.922   4.720
77638W        W41582  41.825  29.175   4.154
77639W        W41583  31.039   8.825   2.180
77640W        W41584  38.559   1.750  12.429
77641W        W41585  25.064   5.238  14.338
77642W        W41586  37.843   5.429  11.432
77643W        W41587  44.470   3.307   4.733
77644W        W41588  38.475   6.872  11.072
77645W        W41589  43.457  39.030  14.377
77646W        W41590  39.398  35.558   0.437
77647W        W41591  29.470  15.692   4.167
77648W        W41592  28.666  35.943   1.356
77649W        W41593  32.400  24.649   2.821
77650W        W41594  35.069  18.765   2.715
77651W        W41595  19.088  20.628   0.275
77652W        W41596  36.405  36.453   0.946
77653W        W41597  32.450  36.949  11.609
77654W        W41598  23.160  22.229   3.793
77655W        W41599  43.006   3.891  14.938
77656W        W41600  17.608  20.106  10.902
77657W        W41601  39.911  44.327  13.327
77658W        W41602   0.865  20.256   2.711
77659W        W41603  11.752   9.811  13.042
77660W        W41604  44.492  31.577   1.448
77661W        W41605  14.705  12.179   4.649
77662W        W41606  23.609   6.912  10.904
77663W        W41607   5.397  31.092  12.017
77664W        W41608  39.810  24.630   3.858
77665W        W41609   2.387  34.611  13.855
77666W        W41610  31.043   9.260  14.010
77667W        W41611  38.023  41.374   2.696
77668W        W41612  19.280  28.955   2.341
77669W        W41613  36.081  39.969  14.406
77670W        W41614  10.842  11.365   1.223
77671W        W41615  19.147  17.573   2.745
77672W        W41616   3.257  19.231  14.427
77673W        W41617  10.374  27.033  14.292
77674W        W41618  43.455  27.998   1.443
77675W        W41619  41.528  43.945  14.010
77676W        W41620  24.144  39.412  12.422
77677W        W41621   4.717   6.704   3.365
77678W        W41622  22.209   0.355  13.791
77679W        W41623  16.804   5.396  13.317
77680W        W41624  41.851   6.235  11.105
77681W        W41625  37.088  13.213   0.869
77682W        W41626  10.302   9.338  13.453
77683W        W41627  24.161  37.379   2.822
77684W        W41628   5.399  20.035  11.865
77685W        W41629  18.579  28.570  14.031
77686W        W41630  43.359  38.842   4.616
77687W        W41631  13.232   2.271   4.287
77688W        W41632   4.333  22.624   0.262
77689W        W41633  30.658   7.396  13.828
77690W        W41634  42.525   7.207   3.784
77691W        W41635  30.538  40.904   4.253
77692W        W41636  35.373  17.621   3.641
77693W        W41637  43.481  38.969   4.147
77694W        W41638  33.490  19.153  13.041
77695W        W41639  39.505  25.036   2.353
77696W        W41640  10.715  17.097  11.501
77697W        W41641  41.800  37.424  10.151
77698W        W41642  41.875  17.631   3.254
77699W        W41643  31.586   9.179  14.466
77700W        W41644  22.207  15.606   4.312
77701W        W41645  38.838  36.547  11.943
77702W        W41646  25.584  19.133  13.830
77703W        W41647  26.152   6.918   3.359
77704W        W41648  11.746   9.714  10.902
77705W        W41649  26.052   0.424  14.913
77706W        W41650  24.513  41.369   3.700
77707W        W41651   3.817  44.358  11.462
77708W        W41652  39.872  38.527  14.502
77709W        W41653  12.625  13.139  11.498
77710W        W41654  13.825  31.645   2.727
77711W        W41655   8.262  16.643   1.918
77712W        W41656  37.538   5.829  12.034
77713W        W41657  17.695  21.226   0.759
77714W        W41658  16.174   0.339   4.190
77715W        W41659  36.352  34.081  13.517
77716W        W41660   3.899  29.097  14.330
77717W        W41661  39.839   9.818   4.771
77718W        W41662  22.213  15.244  13.317
77719W        W41663  38.010  16.193   2.791
77720W        W41664  39.317  14.787   0.936
77721W        W41665  13.678  36.366   4.725
77722W        W41666  11.271  17.098   9.964
77723W        W41667   9.865  10.254   2.897
77724W        W41668  37.360  18.783   1.269
77725W        W41669   7.812  12.137   3.753
77726W        W41670  17.162   3.879   3.233
77727W        W41671  38.545  10.138  11.454
77728W        W41672  44.920   7.732   1.827
77729W        W41673  43.430  39.995   2.315
77730W        W41674  10.194  31.948  11.118
77731W        W41675  27.510  21.105  10.414
77732W        W41676   5.258  14.192  11.893
77733W        W41677   6.272  31.561  12.484
77734W        W41678  33.422  38.544   1.901
77735W        W41679  42.839   4.732  11.496
77736W        W41680   5.430  37.839   1.870
77737W        W41681  24.981  42.513  12.358
77738W        W41682  31.027   7.231  12.010
77739W        W41683   9.768  22.244  14.920
77740W        W41684  43.425  21.741   1.327
77741W        W41685  17.171  30.944   1.230
77742W        W41686  44.858  18.279  13.937
77743W        W41687  38.944   7.210  12.090
77744W        W41688  20.612  26.153   4.177
77745W        W41689  25.477   5.696   0.862
77746W        W41690  24.558  25.963  12.046
77747W        W41691  36.070  22.519  14.839
77748W        W41692   8.659  27.635  10.547
77749W        W41693  27.618   7.886  13.370
77750W        W41694  36.573  20.662   0.450
77751W        W41695  12.234  38.010  14.956
77752W        W41696   8.756  11.801  11.598
77753W        W41697  27.026  11.328  10.589
77754W        W41698  29.560   9.750   0.375
77755W        W41699   1.883  35.604   0.731
77756W        W41700  35.504  17.582   1.873
77757W        W41701  28.136   0.890   4.629
77758W        W41702  40.859   7.338  11.912
77759W        W41703  22.192   9.197  14.788
77760W        W41704  41.878  12.719   4.794
77761W        W41705  31.090  23.995   1.874
77762W        W41706  37.479  13.344  11.472
77763W        W41707  39.532  22.138  12.440
77764W        W41708  35.602  40.426   1.695
77765W        W41709   0.834   7.274  10.445
77766W        W41710  32.988  18.227   2.805
77767W        W41711  32.032  37.966  14.925
77768W        W41712  15.729  31.983   5.310
77769W        W41713  41.024  30.932  12.963
77770W        W41714  23.568  37.487   4.209
77771W        W41715  38.444   3.717   0.923
77772W        W41716   4.901   0.946   4.716
77773W        W41717  31.539  31.539  11.032
77774W        W41718   6.763   7.908   3.215
77775W        W41719  44.911   8.388  11.936
77776W        W41720  34.477   7.737   3.225
77777W        W41721   0.798  16.294   0.799
77778W        W41722   9.881  24.590   0.478
77779W        W41723  31.051   7.896  12.386
77780W        W41724  29.120  40.049  12.551
77781W        W41725  23.700  33.408   2.416
77782W        W41726  35.050   0.984   1.323
77783W        W41727  12.223  42.501  11.577
77784W        W41728  12.236   7.291   2.199
77785W        W41729   9.737  30.996   5.096
77786W        W41730  38.068   5.377  14.901
77787W        W41731   5.860  41.937   2.305
77788W        W41732   5.287  41.801   1.381
77789W        W41733   8.372   1.958   4.169
77790W        W41734  31.496   0.801   3.361
77791W        W41735  40.425  34.022  13.905
77792W        W41736  44.818  38.987  11.405
77793W        W41737  27.039  41.980   4.756
77794W        W41738  30.090  18.768  13.341
77795W        W41739  32.574   6.810   1.810
77796W        W41740  25.528  37.562   1.312
77797W        W41741  10.158  21.606  14.781
77798W        W41742  34.935  21.703  12.917
77799W        W41743   4.774   7.287  12.521
77800W        W41744   5.259   0.804  11.083
77801W        W41745  26.555  23.222   1.331
77802W        W41746  20.722   5.687  12.898
77803W        W41747  24.648  17.647   1.255
77804W        W41748   2.780  26.980  14.957
77805W        W41749   1.389  37.999   0.386
77806W        W41750  16.199  22.504  10.074
77807W        W41751  20.178  15.290  10.970
77808W        W41752  21.632  19.132   1.327
77809W        W41753  35.498  13.818  12.046
77810W        W41754  29.116  43.498  14.315
77811W        W41755   9.762  26.971  14.387
77812W        W41756  43.478  13.769   3.370
77813W        W41757  28.936  17.733  11.028
77814W        W41758   9.160  15.592   4.642
77815W        W41759  21.058  15.133   3.863
77816W        W41760  26.100  24.178  13.506
77817W        W41761   2.883  12.802   0.826
77818W        W41762  27.165  33.547   2.869
77819W        W41763   1.800   9.765   1.237
77820W        W41764  22.064  37.470   3.258
77821W        W41765   9.794  31.473  14.874
77822W        W41766   5.827  20.661  12.029
77823W        W41767  32.098  21.025   2.331
77824W        W41768   7.734  25.562   0.347
77825W        W41769   6.256  29.558  14.434
77826W        W41770  21.163  37.352   0.364
77827W        W41771  15.311  27.145  14.982
77828W        W41772   4.264   2.865  12.360
77829W        W41773  40.957  13.334  11.522
77830W        W41774  37.020  41.936   3.784
77831W        W41775   1.279  40.457  14.330
77832W        W41776  36.475  37.067  11.995
77833W        W41777   0.263  23.064  12.886
77834W        W41778  30.006  33.036   4.797
77835W        W41779  12.351   0.922   3.299
77836W        W41780  27.967  22.699  13.385
77837W        W41781   5.263  22.073  14.388
77838W        W41782  27.108  31.901   1.884
77839W        W41783  31.151  32.458   4.272
77840W        W41784  32.513   7.292  12.550
77841W        W41785   2.309   2.926   3.300
77842W        W41786  27.175  41.037   3.760
77843W        W41787   5.914  44.786   1.703
77844W        W41788  27.588   5.730  12.863
77845W        W41789  30.123   8.361  12.939
77846W        W41790  24.614  18.152  10.533
77847W        W41791   7.706  25.180  10.410
77848W        W41792  27.049  41.417   4.823
77849W        W41793  23.022  24.711  11.611
77850W        W41794  32.573   6.814  11.887
77851W        W41795   9.387   9.739   2.783
77852W        W41796  11.621  34.905   0.446
77853W        W41797   6.361  19.259   1.324
77854W        W41798   2.242   9.832   4.319
77855W        W41799   3.330  38.436   4.334
77856W        W41800   6.403   4.387  13.010
77857W        W41801   8.888  29.031  11.409
77858W        W41802  22.102  33.530   3.769
77859W        W41803  26.542  18.106   2.853
77860W        W41804  34.886  24.520   1.733
77861W        W41805  34.069  14.664   2.194
77862W        W41806  26.657  30.474   1.301
77863W        W41807  14.806  20.708  14.484
77864W        W41808  44.454  19.547   4.813
77865W        W41809  36.892   1.794   4.280
77866W        W41810  19.721  40.319  14.968
77867W        W41811   0.771   9.674  12.551
77868W        W41812  16.577  31.003   1.297
77869W        W41813   6.756  16.689   3.679
77870W        W41814  40.956  40.027  11.577
77871W        W41815  37.050  15.196  14.406
77872W        W41816  34.932  15.208   1.908
77873W        W41817   6.187   7.706   0.433
77874W        W41818  33.898   6.204   3.234
77875W        W41819   3.883  31.602  13.988
77876W        W41820  23.098  34.458   3.830
77877W        W41821  33.428  29.667   2.897
77878W        W41822   9.318  24.516  10.627
77879W        W41823  25.067  36.558   0.735
77880W        W41824  31.481  20.601  13.328
77881W        W41825   3.266  20.202   2.185
77882W        W41826  24.072  22.537   0.809
77883W        W41827  25.990  41.527   2.305
77884W        W41828  14.141  30.948   0.372
77885W        W41829  42.353  16.797   2.206
77886W        W41830  17.694  33.063  11.982
77887W        W41831  22.120  36.088   4.633
77888W        W41832   3.293   3.806  10.482
77889W        W41833  22.665  24.108  10.540
77890W        W41834  38.393  20.547  12.463
77891W        W41835  28.945  18.149  13.480
77892W        W41836  25.195  44.259   1.379
77893W        W41837  29.991  26.186   0.752
77894W        W41838  15.726  11.177   2.407
77895W        W41839  36.439  16.667   1.313
77896W        W41840  34.103  28.150   3.327
77897W        W41841  27.614  32.392  14.385
77898W        W41842  35.880  39.471  13.471
77899W        W41843  20.676  24.725   2.416
77900W        W41844  41.423  16.727  14.980
77901W        W41845  29.510  41.359   4.174
77902W        W41846  31.992  38.567   2.209
77903W        W41847  24.638  29.059   4.129
77904W        W41848  31.618  35.546  12.065
77905W        W41849  43.358  12.137   1.913
77906W        W41850  16.087  25.206   4.699
77907W        W41851  20.666  18.675   2.269
77908W        W41852  42.893  24.037  13.011
77909W        W41853  21.651   3.863   1.437
77910W        W41854   4.701  16.088  10.457
77911W        W41855  36.902  30.928   4.794
77912W        W41856  12.722  39.510  12.938
77913W        W41857  28.131  20.169  13.375
77914W        W41858  41.017  13.177  14.480
77915W        W41859  21.187  35.974   0.767
77916W        W41860  15.147  30.990  10.911
77917W        W41861  22.611  42.979   1.767
77918W        W41862  44.284   8.247  13.487
77919W        W41863  37.505   8.800  12.340
77920W        W41864  18.054  39.472   2.755
77921W        W41865  38.352  28.001  10.429
77922W        W41866  41.500  44.915   0.273
77923W        W41867  11.329  15.697  10.445
77924W        W41868  18.566  34.920  10.502
77925W        W41869  14.113   4.339  13.026
77926W        W41870  14.274  42.369  13.928
77927W        W41871  34.963  44.838  10.925
77928W        W41872  22.141   5.411   3.363
77929W        W41873  16.779  18.240  13.464
77930W        W41874  34.523  41.946   0.946
77931W        W41875  31.051  18.616  12.506
77932W        W41876  14.702  40.446   4.702
77933W        W41877  16.712  17.082  14.934
77934W        W41878  34.561  42.818   4.129
77935W        W41879  13.715  44.890  13.950
77936W        W41880  29.993  29.937   1.246
77937W        W41881   8.160  43.279   3.325
77938W        W41882  16.772  31.070   2.297
77939W        W41883  15.811  40.048   1.361
77940W        W41884  30.927   6.860   1.790
77941W        W41885  16.787  18.163   4.637
77942W        W41886  25.654  38.540   2.731
77943W        W41887  30.922   0.918  10.967
77944W        W41888  11.706  18.218   3.657
77945W        W41889  41.460  36.878  13.540
77946W        W41890  39.853   4.414  11.995
77947W        W41891  18.294  44.776   3.833
77948W        W41892  36.911  41.379   0.303
77949W        W41893  24.073   7.283   1.213
77950W        W41894  26.629  12.627  11.477
77951W        W41895  11.324  44.411  10.446
77952W        W41896  24.141   6.412  13.519
77953W        W41897   6.912  40.510   4.256
77954W        W41898  23.700  23.095   3.299
77955W        W41899  44.991  38.034  12.364
77956W        W41900  23.226  40.371   3.158
77957W        W41901  12.631   1.479  12.060
77958W        W41902  29.129  13.835  13.813
77959W        W41903  25.699  36.976   2.199
77960W        W41904  36.552  13.208  10.547
77961W        W41905  21.585  19.752   2.223
77962W        W41906  23.181   2.227   2.285
77963W        W41907  10.830   0.902  13.802
77964W        W41908  34.983  43.916   3.657
77965W        W41909   8.393   5.708  14.500
77966W        W41910  41.400  29.987   1.743
77967W        W41911  12.821  29.927   4.177
77968W        W41912   5.272  18.580   9.924
77969W        W41913  15.677  20.641  14.956
77970W        W41914  33.492   1.923   5.241
77971W        W41915  10.228  34.434  13.849
77972W        W41916  38.458  31.406   1.304
77973W        W41917   4.738   5.395  14.329
77974W        W41918   9.863  43.434   0.875
77975W        W41919  22.183  42.927   1.849
77976W        W41920   9.160  22.647   1.384
77977W        W41921  11.149  35.584   3.765
77978W        W41922  12.171  32.016  12.556
77979W        W41923  27.515   3.793  13.460
77980W        W41924  40.422  30.513   1.832
77981W        W41925  36.060  23.012  12.910
77982W        W41926  15.624  26.048  14.461
77983W        W41927  33.588  23.641   0.924
77984W        W41928  25.992   3.354  12.365
77985W        W41929  23.029  29.604  10.599
77986W        W41930  18.240  21.618   0.848
77987W        W41931  14.764  41.001  11.566
77988W        W41932   8.382  38.376   1.902
77989W        W41933   6.746   5.814  12.848
77990W        W41934   8.261  33.499  14.855
77991W        W41935  42.027  33.583  10.061
77992W        W41936  10.187  44.963  11.504
77993W        W41937  34.885  29.585   3.161
77994W        W41938  19.574  35.514  12.429
77995W        W41939  26.527   4.904  11.452
77996W        W41940  23.063  12.821  11.044
77997W        W41941  23.210  42.953  13.436
77998W        W41942  33.445  14.196   9.934
77999W        W41943  15.644   1.782   9.643
78000W        W41944  26.644  18.242  13.492
78001W        W41945  12.312  26.583   9.993
78002W        W41946  12.280   8.778  10.640
78003W        W41947  20.266  20.218  14.435
78004W        W41948   9.324  24.105  12.057
78005W        W41949   4.372  37.920  14.015
78006W        W41950   5.221   3.341  14.428
78007W        W41951  32.634  32.985  14.338
78008W        W41952  10.353   3.386  11.392
78009W        W41953  37.409  22.744   4.623
78010W        W41954  13.105  20.081  13.996
78011W        W41955   4.300  39.524  13.820
78012W        W41956  24.661  21.073  11.499
78013W        W41957  22.239  31.094   4.117
78014W        W41958  36.432   2.448   0.258
78015W        W41959  41.882  24.230   3.354
78016W        W41960  28.611  22.998  11.080
78017W        W41961  13.734  29.655   3.146
78018W        W41962  29.170  35.067   0.417
78019W        W41963  27.103  16.090  14.908
78020W        W41964  37.013  32.025  11.541
78021W        W41965  44.462  42.031   1.800
78022W        W41966  31.589  15.721   0.955
78023W        W41967  36.964  31.010  11.490
78024W        W41968  19.173  20.239  11.524
78025W        W41969  23.645  34.925   1.794
78026W        W41970   4.431   6.858   2.720
78027W        W41971  40.917  27.097   1.292
78028W        W41972  33.599  25.217  13.506
78029W        W41973  14.209  17.183  10.906
78030W        W41974  38.898   8.266   2.220
78031W        W41975  28.949   8.747  13.372
78032W        W41976  11.826  33.924  12.834
78033W        W41977  29.156   5.232   1.372
78034W        W41978  32.626   3.756   2.408
78035W        W41979  26.580   5.399   1.383
78036W        W41980  17.713  32.499  12.492
78037W        W41981  40.303  41.362  12.910
78038W        W41982   1.781  10.720   0.349
78039W        W41983  13.673  38.376   3.686
78040W        W41984  39.358  36.486  14.452
78041W        W41985  29.582   5.810   3.717
78042W        W41986  38.951   2.845   5.314
78043W        W41987  21.157  36.408   3.767
78044W        W41988   2.911   2.462  12.020
78045W        W41989  43.371  15.207  11.587
78046W        W41990  28.009  37.434   4.607
78047W        W41991  37.370  22.515   3.232
78048W        W41992  11.743  38.471  10.511
78049W        W41993  24.119  13.280  11.460
78050W        W41994  24.204   0.973   1.862
78051W        W41995  24.089   1.451  13.790
78052W        W41996  40.336  26.569  14.918
78053W        W41997   1.910   0.797   1.233
78054W        W41998  23.673  19.613   0.745
78055W        W41999  29.494  22.190  10.037
78056W        W42000  13.707   1.750  12.849
78057W        W42001  36.045  28.087   2.204
78058W        W42002   7.199   2.317  13.308
78059W        W42003  23.648   1.917   0.292
78060W        W42004  35.966  26.012   3.196
78061W        W42005  17.764  29.654  12.944
78062W        W42006   2.822   1.857  11.933
78063W        W42007   5.764  31.953  12.502
78064W        W42008  11.153  13.223   3.673
78065W        W42009  37.909  10.369   2.829
78066W        W42010  36.364  26.109  12.410
78067W        W42011  15.578  43.016  10.917
78068W        W42012   3.773  38.325  11.066
78069W        W42013  29.665  36.561   1.388
78070W        W42014   2.306  13.264  14.854
78071W        W42015  16.589  37.918   0.746
78072W        W42016  26.652  44.290   2.323
78073W        W42017  18.654  10.667  12.363
78074W        W42018  19.110  33.443   4.740
78075W        W42019  36.435  32.102  11.093
78076W        W42020   8.369  18.150  12.935
78077W        W42021  24.165  37.860   4.212
78078W        W42022   5.826  31.936   1.321
78079W        W42023   2.414  33.447   4.736
78080W        W42024   9.247   6.764  14.924
78081W        W42025  30.018  11.323  13.998
78082W        W42026  37.578  37.977   1.752
78083W        W42027  26.010  38.825   3.807
78084W        W42028   7.205   5.406   4.715
78085W        W42029  32.018  35.899   2.395
78086W        W42030  32.025   9.262  13.019
78087W        W42031  12.231   2.962   4.249
78088W        W42032  27.534  39.401  14.871
78089W        W42033  27.038  20.168  14.481
78090W        W42034  35.593  15.218  12.880
78091W        W42035  30.116  28.063   2.696
78092W        W42036  37.453  16.621   3.715
78093W        W42037  30.540  38.371   4.257
78094W        W42038   4.300  21.581   2.212
78095W        W42039  40.419   9.779   0.838
78096W        W42040  12.359   8.764   1.920
78097W        W42041  33.109  19.737  10.578
78098W        W42042  35.982  39.473  11.497
78099W        W42043  24.144   9.755  10.592
78100W        W42044  30.611  42.913   0.278
78101W        W42045  15.181  19.251   3.826
78102W        W42046  22.078   3.426   0.845
78103W        W42047  18.657  33.052   3.359
78104W        W42048  26.993  25.089  11.463
78105W        W42049  22.725  38.861  13.043
78106W        W42050  15.636  18.626   3.287
78107W        W42051   6.319  13.334  12.420
78108W        W42052  40.531  42.962   1.801
78109W        W42053   7.847   2.760   4.830
78110W        W42054  41.809  25.160   3.175
78111W        W42055   0.481  40.888   3.816
78112W        W42056  37.571  11.163  12.546
78113W        W42057  32.451  11.805   4.794
78114W        W42058  20.180  24.563   2.728
78115W        W42059   0.288  42.986  10.465
78116W        W42060  40.513  12.176  11.506
78117W        W42061  34.378  11.184   4.263
78118W        W42062  29.524  39.035  11.076
78119W        W42063  22.712  12.734  14.973
78120W        W42064  35.588  29.074  13.046
78121W        W42065  24.617  41.005  11.858
78122W        W42066   6.828   0.270  14.975
78123W        W42067  18.782  41.370  13.043
78124W        W42068  19.266  14.250  10.595
78125W        W42069  27.685  23.990  13.968
78126W        W42070  21.222   4.334  11.880
78127W        W42071  24.498  20.670  14.389
78128W        W42072  41.802  30.087  13.336
78129W        W42073   4.908   6.886   4.185
78130W        W42074   6.270  13.804  13.019
78131W        W42075  25.007  30.952   1.720
78132W        W42076  43.865  42.441  10.909
78133W        W42077  39.446   5.387   5.208
78134W        W42078  25.473   9.712   4.833
78135W        W42079  19.129  35.571   3.366
78136W        W42080  22.712  36.934   0.341
78137W        W42081  24.034  10.141  13.961
78138W        W42082   3.745   7.894   1.249
78139W        W42083  43.478  18.275  14.433
78140W        W42084   7.814  40.869   0.426
78141W        W42085  41.862   8.692   4.150
78142W        W42086   3.225  37.472  13.439
78143W        W42087   9.742  24.596  13.833
78144W        W42088  19.235   0.288   0.790
78145W        W42089  40.496  42.801   1.320
78146W        W42090   0.472  12.191   2.257
78147W        W42091   7.413   0.311   1.411
78148W        W42092   8.660   3.306  14.414
78149W        W42093  14.673  30.925   3.719
78150W        W42094  28.496  22.132  13.548
78151W        W42095  25.646  18.143   2.729
78152W        W42096  15.142  30.070   4.764
78153W        W42097  20.105  35.358  10.471
78154W        W42098   6.689  37.007  13.491
78155W        W42099  32.940  15.613   1.883
78156W        W42100  39.825  18.220   1.363
78157W        W42101   6.820  41.453   2.772
78158W        W42102  23.076  34.376  12.939
78159W        W42103   0.407  30.135  13.014
78160W        W42104  44.500  13.667  12.941
78161W        W42105   8.397  36.942   4.210
78162W        W42106   9.774  21.047   2.805
78163W        W42107  34.976  19.067   4.670
78164W        W42108  18.159  12.688  12.414
78165W        W42109  20.051  33.887  14.959
78166W        W42110   3.879  23.007   0.945
78167W        W42111  43.277  34.891   3.271
78168W        W42112  22.221  41.356  12.459
78169W        W42113  34.374   2.960  11.006
78170W        W42114  18.260   4.393  12.507
78171W        W42115  34.085   6.185  14.910
78172W        W42116  25.645  29.632  14.318
78173W        W42117  44.283  29.614  14.972
78174W        W42118  11.339  34.445   4.811
78175W        W42119  12.170  16.239   3.841
78176W        W42120  10.765  22.521   3.682
78177W        W42121   1.737   0.975  13.867
78178W        W42122   5.825  20.122   4.633
78179W        W42123   4.750  16.671   4.159
78180W        W42124  39.398  40.964  12.035
78181W        W42125  22.037  13.345   1.289
78182W        W42126  34.528   6.357   1.696
78183W        W42127  37.888  15.153   4.343
78184W        W42128  14.286   6.332   4.222
78185W        W42129  26.505  22.051  14.763
78186W        W42130  11.184  11.769  12.886
78187W        W42131  11.304  31.081  13.952
78188W        W42132  14.304  21.712  14.418
78189W        W42133  20.748  19.266   4.712
78190W        W42134  14.619  37.853  13.957
78191W        W42135  35.104  22.528   9.924
78192W        W42136  43.425  26.061   4.759
78193W        W42137  28.579   1.800   3.240
78194W        W42138  44.420   1.737  10.513
78195W        W42139  43.418  26.615   1.216
78196W        W42140  18.618   1.862   0.342
78197W        W42141  20.561  40.947   1.932
78198W        W42142   4.807  26.517  14.501
78199W        W42143  42.444  14.230   1.283
78200W        W42144  17.749  38.963  13.809
78201W        W42145  22.652  22.047   0.820
78202W        W42146  16.746  36.445  10.531
78203W        W42147   6.356  38.524   2.903
78204W        W42148  20.524   4.873   2.671
78205W        W42149  12.283   2.361   0.875
78206W        W42150  25.708  35.482  12.520
78207W        W42151  24.713  30.545  14.024
78208W        W42152   3.374  23.210  14.834
78209W        W42153  15.621  43.914   0.868
78210W        W42154  20.636  39.974  13.535
78211W        W42155  28.647   1.243   4.666
78212W        W42156  26.565  16.259  10.156
78213W        W42157   8.173  26.100   0.804
78214W        W42158   1.779  42.410  12.002
78215W        W42159  33.929  19.049   0.837
78216W        W42160  21.111  26.054  11.584
78217W        W42161  31.625  14.250  14.843
78218W        W42162   0.757   8.328   3.385
78219W        W42163  37.554  19.596   2.729
78220W        W42164  26.033  32.583  14.501
78221W        W42165  14.761  34.490  11.932
78222W        W42166  37.420  28.636   1.918
78223W        W42167  42.370  43.412   2.888
78224W        W42168  13.179   1.919  12.901
78225W        W42169  35.013  18.277   1.370
78226W        W42170  18.682  11.849   0.772
78227W        W42171  41.040  21.112  13.346
78228W        W42172  39.555   3.769   2.349
78229W        W42173  26.678  18.209  14.421
78230W        W42174  27.643  14.751   4.616
78231W        W42175  24.055  20.654  14.436
78232W        W42176  31.973  31.618  11.975
78233W        W42177  40.821   6.681   4.703
78234W        W42178  15.812   0.362   5.623
78235W        W42179  30.057  12.322   0.365
78236W        W42180   4.761  39.881   3.694
78237W        W42181   2.742  39.968   3.155
78238W        W42182  31.554  14.269  14.497
78239W        W42183  25.706  42.847   2.696
78240W        W42184  22.172  28.600   1.696
78241W        W42185  19.265  39.502   4.810
78242W        W42186  27.954  43.411   3.815
78243W        W42187  21.083   3.368  13.362
78244W        W42188  35.524  22.191   2.278
78245W        W42189  25.063  12.332   2.217
78246W        W42190  22.042  30.557  11.112
78247W        W42191  39.512  28.477  13.417
78248W        W42192  37.001  37.880  11.479
78249W        W42193  17.732   4.752   1.329
78250W        W42194  36.404  14.323  10.142
78251W        W42195   9.183  14.728   2.770
78252W        W42196  11.635  32.904   3.213
78253W        W42197  37.978  16.655   1.763
78254W        W42198  37.408  34.098   2.897
78255W        W42199  43.946  18.756  10.959
78256W        W42200  30.529   4.295   1.322
78257W        W42201  21.117  36.875  10.977
78258W        W42202  30.592  39.040  12.987
78259W        W42203   6.712  42.396   0.446
78260W        W42204  25.634  20.617  11.007
78261W        W42205  42.458  34.421  10.900
78262W        W42206  37.371  20.230  13.466
78263W        W42207  28.069  26.593   5.271
78264W        W42208  17.215   9.364   0.825
78265W        W42209  12.652  11.332  12.378
78266W        W42210  27.037  37.372   3.289
78267W        W42211  34.484  29.084  12.068
78268W        W42212   9.288   6.336  13.339
78269W        W42213  13.798  37.942  14.414
78270W        W42214  14.616   2.235   1.836
78271W        W42215   5.707  14.806   4.276
78272W        W42216  18.075  12.151  14.345
78273W        W42217  10.816  20.586  11.919
78274W        W42218  26.036   1.444  12.434
78275W        W42219  15.249  24.698  14.485
78276W        W42220  25.476  30.505  13.027
78277W        W42221   7.399  30.073  12.438
78278W        W42222  24.708   0.455  10.972
78279W        W42223  35.939  42.319   4.115
78280W        W42224  23.997   0.981  14.784
78281W        W42225   4.340  31.038   0.253
78282W        W42226   0.828  40.919  13.455
78283W        W42227  25.055   7.729  13.809
78284W        W42228  30.937  41.427   9.626
78285W        W42229  28.085  40.984  13.867
78286W        W42230   4.743  24.597  11.377
78287W        W42231  22.026  30.014   4.603
78288W        W42232  35.588  42.523  12.995
78289W        W42233  15.672  41.480   3.248
78290W        W42234  41.479  13.195  14.324
78291W        W42235  30.141  23.632  10.475
78292W        W42236  25.556  22.681   4.744
78293W        W42237  19.613   1.333   3.689
78294W        W42238  23.107  14.629  14.986
78295W        W42239  16.594  13.699   1.238
78296W        W42240  16.580  36.888   1.427
78297W        W42241   9.305   9.176   2.805
78298W        W42242  32.427  27.139   3.245
78299W        W42243  17.759   8.898  11.967
78300W        W42244  35.363   8.395  10.527
78301W        W42245   9.651  24.073   2.899
78302W        W42246   1.832   2.343  13.482
78303W        W42247   5.365  28.969   3.359
78304W        W42248   8.336  42.289  12.084
78305W        W42249  29.110  26.172   0.823
78306W        W42250  20.142  44.440  14.954
78307W        W42251   8.314  20.213  11.532
78308W        W42252   1.843  29.447   4.185
78309W        W42253  28.452  17.096   0.930
78310W        W42254  14.283   2.396   4.684
78311W        W42255  36.502  42.302  14.811
78312W        W42256  28.466  15.739   4.180
78313W        W42257   5.811  10.855  12.953
78314W        W42258  20.207  25.007  14.974
78315W        W42259  17.563   2.411  12.077
78316W        W42260  36.961  12.116  14.488
78317W        W42261  16.273  14.136   3.691
78318W        W42262  29.138  29.159   3.806
78319W        W42263  36.941  10.823  14.858
78320W        W42264   0.857  28.472   1.256
78321W        W42265  25.149  32.112  14.471
78322W        W42266   4.800   9.682  10.504
78323W        W42267  10.305   7.388  11.544
78324W        W42268  13.802   2.749   4.320
78325W        W42269  29.440  33.624  10.908
78326W        W42270  28.647  19.777  11.535
78327W        W42271  32.005   7.213   1.786
78328W        W42272   0.813  19.537  13.417
78329W        W42273   0.911  30.009  12.523
78330W        W42274  43.510  12.797  12.388
78331W        W42275  11.829  21.701   1.302
78332W        W42276  23.664  38.330   1.282
78333W        W42277  32.465  41.902   2.869
78334W        W42278  35.884  20.091  12.874
78335W        W42279  16.279  38.968   4.672
78336W        W42280  20.601  14.315   3.199
78337W        W42281  23.591  12.278   1.813
78338W        W42282  34.010  11.196   3.279
78339W        W42283   7.197   5.253  13.380
78340W        W42284  39.549  41.812  13.880
78341W        W42285  22.247  20.613   4.168
78342W        W42286  14.693   1.955  12.908
78343W        W42287  25.095   5.405  10.531
78344W        W42288   8.876  38.549   0.426
78345W        W42289  21.026   3.341  11.023
78346W        W42290  24.223  35.375  13.413
78347W        W42291  18.056  14.615   1.392
78348W        W42292  15.295  36.936  11.525
78349W        W42293  19.208  10.328  14.515
78350W        W42294  37.377  10.357  12.910
78351W        W42295   6.824  30.150   2.670
78352W        W42296  21.046  24.690  13.501
78353W        W42297  40.351   7.885  13.309
78354W        W42298  37.581  36.842  12.835
78355W        W42299  21.226  19.230  13.475
78356W        W42300  33.408  31.106  12.087
78357W        W42301  35.508  17.796  11.509
78358W        W42302  26.051  11.334  14.459
78359W        W42303  23.104  20.723   1.265
78360W        W42304  15.731  43.894  13.944
78361W        W42305  26.094  40.922   0.250
78362W        W42306  34.378  28.995  10.982
78363W        W42307  43.319  31.153  14.474
78364W        W42308  37.846  31.939  10.588
78365W        W42309  17.112  11.838   2.388
78366W        W42310  15.152   7.891  14.288
78367W        W42311   0.743  34.939   3.257
78368W        W42312  28.050  10.724  11.064
78369W        W42313   8.665   4.732  13.452
78370W        W42314   1.886  37.493  10.500
78371W        W42315  21.116  44.842  13.980
78372W        W42316  32.459  35.990  14.852
78373W        W42317   0.772  27.477  12.891
78374W        W42318   5.823  20.713   0.380
78375W        W42319  23.198  35.561   4.352
78376W        W42320  25.182  19.284   2.206
78377W        W42321  25.965  19.140   2.859
78378W        W42322  18.243  31.449   0.319
78379W        W42323  37.391  13.779   4.661
78380W        W42324  42.881  43.896   0.837
78381W        W42325   5.345   7.706  11.399
78382W        W42326  40.995  44.324   3.193
78383W        W42327   3.386  22.106   2.818
78384W        W42328   4.811   5.790  12.452
78385W        W42329  34.070  25.534  12.093
78386W        W42330   5.924   1.411   1.735
78387W        W42331   2.468   4.884   3.322
78388W        W42332  13.214  33.594   1.427
78389W        W42333  42.893  35.402  11.501
78390W        W42334  26.554  33.419  11.562
78391W        W42335  35.399  24.616  14.906
78392W        W42336  15.239  24.215   3.257
78393W        W42337  42.448  33.882   4.630
78394W        W42338   7.805  41.038  12.947
78395W        W42339  23.155  13.653  12.484
78396W        W42340  15.751  39.922  11.417
78397W        W42341  29.004  33.076   0.400
78398W        W42342  37.892  43.310   4.656
78399W        W42343   5.351  29.110   3.856
78400W        W42344   2.311  42.993   1.845
78401W        W42345  14.232  11.814   1.705
78402W        W42346  11.783  18.296   4.714
78403W        W42347  29.478  33.451   0.370
78404W        W42348   3.404   5.383   3.748
78405W        W42349  15.138  28.182   3.864
78406W        W42350  27.038  21.639  11.546
78407W        W42351  36.543  24.576  12.999
78408W        W42352   4.357  16.094  11.393
78409W        W42353   7.187  31.026   3.223
78410W        W42354   9.672  42.336   2.747
78411W        W42355  17.104  20.215  11.528
78412W        W42356  16.210  27.056  10.414
78413W        W42357  18.592   6.397  12.384
78414W        W42358  14.627  41.500   5.169
78415W        W42359  18.662  11.342  10.624
78416W        W42360  39.954  13.285  14.302
78417W        W42361   5.798  30.023   1.705
78418W        W42362   0.272   2.818  13.044
78419W        W42363  19.169  33.127   4.624
78420W        W42364  35.557   4.213  14.914
78421W        W42365  19.110  16.300   0.883
78422W        W42366  28.537  26.619  14.475
78423W        W42367   4.304  16.658   3.704
78424W        W42368  19.088   9.731   3.358
78425W        W42369  20.558  24.593   2.704
78426W        W42370  16.643  10.195  12.569
78427W        W42371   4.231  11.221   3.850
78428W        W42372  33.000   1.779   1.333
78429W        W42373  29.503   9.276  13.331
78430W        W42374  35.560  28.031  14.793
78431W        W42375  18.265  42.302   0.472
78432W        W42376  40.340   2.738  12.047
78433W        W42377  31.406  14.248  12.466
78434W        W42378  10.742  11.853   1.219
78435W        W42379  33.395  23.703  14.851
78436W        W42380  13.268  22.594  10.084
78437W        W42381  14.645  40.838  11.014
78438W        W42382  42.779  12.288  10.997
78439W        W42383  14.237   8.772  13.530
78440W        W42384  25.650   5.687   3.808
78441W        W42385  42.030  12.157  13.958
78442W        W42386  26.066  23.208   0.950
78443W        W42387  14.732   5.196  13.367
78444W        W42388  18.142  27.482  14.776
78445W        W42389  36.421   5.749  14.305
78446W        W42390  24.006  10.661   4.120
78447W        W42391  23.493  34.883  14.771
78448W        W42392  17.586  17.290  12.369
78449W        W42393  22.724  13.677  10.125
78450W        W42394   2.925  29.660   1.446
78451W        W42395  11.288  28.119  11.077
78452W        W42396  18.749  42.450   2.774
78453W        W42397  23.638  12.783   3.764
78454W        W42398  38.957  33.397  12.037
78455W        W42399  10.263  13.223  14.888
78456W        W42400  42.457  36.901   1.261
78457W        W42401  32.459  27.655   2.250
78458W        W42402   1.736  10.667   3.678
78459W        W42403  11.294  32.911  10.444
78460W        W42404  24.704  25.101   1.699
78461W        W42405  35.474   2.406  14.001
78462W        W42406  22.163  30.554   0.784
78463W        W42407  27.978  33.073  10.959
78464W        W42408  44.887   7.682  13.457
78465W        W42409   5.691  18.050  12.073
78466W        W42410  14.638   1.821  13.382
78467W        W42411  27.067   2.293  13.007
78468W        W42412  32.401  31.081  12.933
78469W        W42413  30.061   1.361   1.337
78470W        W42414  29.521  33.912   4.614
78471W        W42415  22.646  31.131   2.265
78472W        W42416  36.058  11.803   1.808
78473W        W42417  25.547  26.183  11.099
78474W        W42418  42.929  16.599   1.810
78475W        W42419   9.186   9.239   4.762
78476W        W42420   8.703  23.995  13.019
78477W        W42421  32.535  42.859   0.727
78478W        W42422  36.012  12.248  12.452
78479W        W42423  40.808  42.949   4.719
78480W        W42424  30.979  31.406  14.882
78481W        W42425   5.736  23.078  14.975
78482W        W42426   1.457  39.973   2.246
78483W        W42427  33.922  42.380  12.458
78484W        W42428  15.203  22.083  11.079
78485W        W42429  40.408  21.150   4.723
78486W        W42430   2.412  32.524  13.490
78487W        W42431  19.680   1.905   1.800
78488W        W42432  33.408  26.029   0.932
78489W        W42433   5.198   9.234  14.491
78490W        W42434  33.584  32.040   1.322
78491W        W42435  21.214  34.394   1.868
78492W        W42436  17.119  31.466  13.927
78493W        W42437  23.576   1.750  14.317
78494W        W42438  17.206  38.007   0.908
78495W        W42439  27.513  23.191   1.427
78496W        W42440  18.105  12.277  10.524
78497W        W42441  42.389  41.295   0.836
78498W        W42442  13.700  21.172   4.304
78499W        W42443  38.916   7.344   2.727
78500W        W42444  10.361  38.532  10.090
78501W        W42445  36.461   8.314   1.927
78502W        W42446  33.008  42.004  13.324
78503W        W42447  30.918  26.468  12.079
78504W        W42448  28.516  14.288   4.675
78505W        W42449  41.819  14.722  14.878
78506W        W42450  22.032  35.032   2.823
78507W        W42451   7.300  41.537   1.275
78508W        W42452  35.887  12.729  13.890
78509W        W42453  17.130  15.280   0.941
78510W        W42454  25.219   8.674   1.874
78511W        W42455  16.765  30.582   3.742
78512W        W42456  27.082  21.622   1.801
78513W        W42457   9.870  36.014   3.722
78514W        W42458  37.843  43.945   3.360
78515W        W42459   8.198  11.324   2.205
78516W        W42460  37.435  24.568   1.293
78517W        W42461  32.126  34.509  11.926
78518W        W42462  12.222   8.306   4.147
78519W        W42463  21.044  18.164   2.674
78520W        W42464  11.178  32.018   1.934
78521W        W42465  40.953  27.001  13.435
78522W        W42466  24.479  32.995  11.380
78523W        W42467  13.136   3.244   4.297
78524W        W42468  18.710  44.911  12.380
78525W        W42469  13.342  37.047  12.457
78526W        W42470  14.183  42.779   0.403
78527W        W42471  23.521  38.973  12.382
78528W        W42472   8.282  32.535   2.881
78529W        W42473  27.486   2.853  13.962
78530W        W42474  34.463  41.419   4.335
78531W        W42475  10.355  38.848   1.760
78532W        W42476  26.525  23.529   3.211
78533W        W42477  19.187  25.627   0.384
78534W        W42478   5.901  43.796  13.943
78535W        W42479  30.588  40.419   9.579
78536W        W42480  22.653   8.779  12.889
78537W        W42481   2.362   7.786  14.314
78538W        W42482   3.817  17.177   2.673
78539W        W42483  28.938  43.459   0.474
78540W        W42484  40.887  14.707  13.867
78541W        W42485  29.509  41.383  11.003
78542W        W42486  15.640  18.688   0.834
78543W        W42487  19.695  18.206   3.222
78544W        W42488  29.564  16.161  14.326
78545W        W42489  14.638  30.965  14.816
78546W        W42490  38.485  43.302   2.354
78547W        W42491  34.076  22.089  11.983
78548W        W42492   0.901   0.338   4.218
78549W        W42493   9.797  25.522   4.701
78550W        W42494  21.245   7.687  12.937
78551W        W42495  14.765  25.646   2.891
78552W        W42496  24.641  30.587   1.755
78553W        W42497  31.974  25.037  13.040
78554W        W42498  29.564  11.758   9.935
78555W        W42499  18.599  28.955   1.785
78556W        W42500   5.926   1.286   3.720
78557W        W42501  35.943  39.421  14.291
78558W        W42502  11.276  39.399   0.846
78559W        W42503  16.153   0.944  14.402
78560W        W42504  36.990  15.709  13.806
78561W        W42505  13.339  39.893   0.898
78562W        W42506  30.456  36.892   3.155
78563W        W42507   0.918  10.152  10.007
78564W        W42508  10.675  39.825  10.576
78565W        W42509  13.173  32.086  12.919
78566W        W42510  23.011  24.986  13.516
78567W        W42511  33.944   9.743   0.252
78568W        W42512  42.294  28.538  10.618
78569W        W42513   5.338  29.144  11.411
78570W        W42514  14.708   7.882  13.913
78571W        W42515  28.001  28.977   5.095
78572W        W42516   8.337  27.978   3.758
78573W        W42517  19.694  11.370  11.389
78574W        W42518  41.859   7.753   3.664
78575W        W42519   1.975  23.564   2.731
78576W        W42520  20.560  32.499  11.007
78577W        W42521  41.359  36.092  10.891
78578W        W42522  36.535  32.942   1.935
78579W        W42523  23.057  26.150  14.870
78580W        W42524  13.607   5.310  10.890
78581W        W42525  28.946  31.000   2.258
78582W        W42526  22.528   3.333  10.160
78583W        W42527  33.385  30.642  12.545
78584W        W42528  14.834   4.717   0.311
78585W        W42529  43.422  40.842  12.439
78586W        W42530  35.454   3.816   3.870
78587W        W42531  30.160  19.765   1.722
78588W        W42532  12.202  22.621  11.046
78589W        W42533  18.640  37.849  12.992
78590W        W42534  36.387  30.996   2.827
78591W        W42535  27.486  40.461   1.802
78592W        W42536   0.896  38.449  12.991
78593W        W42537  20.065  38.022  13.848
78594W        W42538  26.114  19.146   0.849
78595W        W42539  18.725  22.243   2.891
78596W        W42540  16.705  35.368   3.369
78597W        W42541   2.934  22.057  10.546
78598W        W42542   4.400   1.423   0.851
78599W        W42543   9.823  18.709   2.736
78600W        W42544  30.930   5.341  14.306
78601W        W42545  18.548  34.999   0.756
78602W        W42546  25.022  22.718   4.644
78603W        W42547  31.504  18.284   3.377
78604W        W42548  11.302  40.531  12.511
78605W        W42549  21.714  10.705   3.280
78606W        W42550   3.951  34.082   4.280
78607W        W42551  16.649  24.489   4.758
78608W        W42552  43.338  26.459  12.570
78609W        W42553  13.695  40.951  13.391
78610W        W42554   9.882  36.040  11.032
78611W        W42555   1.382   4.317   0.276
78612W        W42556  39.013  19.269  11.980
78613W        W42557  22.251  12.777  10.639
78614W        W42558  23.624   5.884   4.299
78615W        W42559   4.308  44.791  14.029
78616W        W42560  15.686   1.305  10.607
78617W        W42561  37.072  21.607  12.963
78618W        W42562  25.521   8.868  11.987
78619W        W42563  16.093  39.521  10.473
78620W        W42564  24.066   4.381   4.202
78621W        W42565  44.497  11.254   0.307
78622W        W42566  42.896  10.854   2.220
78623W        W42567  18.682  22.534  11.956
78624W        W42568  12.636  30.963   4.719
78625W        W42569  24.568   5.439  12.935
78626W        W42570  26.157  12.752  11.956
78627W        W42571  39.557   3.419   3.715
78628W        W42572  28.020  24.535   0.888
78629W        W42573  16.305   9.231  14.010
78630W        W42574  35.546  25.136  14.288
78631W        W42575  20.029  42.295   0.790
78632W        W42576  10.210  44.500   3.662
78633W        W42577  35.448  39.839  12.968
78634W        W42578  19.177  38.821   0.930
78635W        W42579  16.760   2.849  13.413
78636W        W42580  21.067  23.583  10.098
78637W        W42581  33.950  36.088   1.743
78638W        W42582   9.679  44.415   1.723
78639W        W42583  40.410   0.746   9.994
78640W        W42584  33.124  18.779  12.976
78641W        W42585  44.320  29.494  13.333
78642W        W42586   5.299  44.841  13.402
78643W        W42587  32.466   4.411   3.309
78644W        W42588  40.476  40.423  10.523
78645W        W42589  22.246   6.383  11.865
78646W        W42590  11.138  27.533  13.805
78647W        W42591  17.665  40.379   2.341
78648W        W42592  44.938   0.901  12.992
78649W        W42593  36.398  25.508  13.053
78650W        W42594  31.431   4.337   2.869
78651W        W42595   6.216  12.761   2.701
78652W        W42596   5.927  29.513   4.280
78653W        W42597  43.879  30.128   4.275
78654W        W42598  16.808  42.366   1.237
78655W        W42599  18.276  23.065   3.870
78656W        W42600  29.055  34.462  12.552
78657W        W42601   2.440  23.097  12.939
78658W        W42602  13.253  35.592   2.321
78659W        W42603  39.960  25.488  10.998
78660W        W42604   9.232  26.136  13.020
78661W        W42605  10.804   9.355  11.072
78662W        W42606  19.653   9.350   2.371
78663W        W42607  29.424  12.219   3.170
78664W        W42608  18.191  12.722   1.245
78665W        W42609  14.770   7.785   4.746
78666W        W42610  41.372   0.311  13.517
78667W        W42611   9.792  43.326   1.435
78668W        W42612  29.469  25.085   9.928
78669W        W42613  15.786   6.810   2.805
78670W        W42614  33.950   8.307  14.314
78671W        W42615  35.864   5.718  11.974
78672W        W42616  29.668  34.035   0.746
78673W        W42617  28.092  31.149  13.040
78674W        W42618  29.610  41.819  11.023
78675W        W42619  13.649  36.586  11.529
78676W        W42620  11.777  30.959   4.316
78677W        W42621  21.168  32.444   4.679
78678W        W42622  42.854  19.575  13.978
78679W        W42623  43.919  25.040  14.966
78680W        W42624   3.295  19.589   1.331
78681W        W42625  43.418   6.682   4.639
78682W        W42626   8.664  43.428  12.907
78683W        W42627  42.832   9.796  11.394
78684W        W42628  39.057  24.494   3.235
78685W        W42629   6.769  35.023   4.658
78686W        W42630  34.923   4.793   2.841
78687W        W42631  29.530   5.737   0.367
78688W        W42632  44.447   2.860   2.797
78689W        W42633  27.118  33.997   0.734
78690W        W42634  31.098  36.068   0.827
78691W        W42635  44.473  27.951   3.771
78692W        W42636  28.183  24.163   4.701
78693W        W42637  33.120  36.088   3.251
78694W        W42638   1.877  16.155   1.211
78695W        W42639  23.518   6.191   0.737
78696W        W42640   1.911  17.713   4.174
78697W        W42641  35.958   4.925   4.258
78698W        W42642   2.263   2.380   0.840
78699W        W42643   1.256  20.172  11.960
78700W        W42644  10.852  32.474  13.325
78701W        W42645  24.500  41.520  13.490
78702W        W42646  22.226   0.487  13.440
78703W        W42647  25.529  27.046   1.872
78704W        W42648  28.944  39.843   1.920
78705W        W42649  41.937  33.609  11.553
78706W        W42650   0.862   3.460   2.873
78707W        W42651   6.235  33.418  10.966
78708W        W42652  27.197  25.184  11.044
78709W        W42653  24.039   5.742  12.418
78710W        W42654  25.656  22.213   2.305
78711W        W42655  38.993  19.163   3.273
78712W        W42656  22.738  25.480  12.990
78713W        W42657  35.566  38.028  12.924
78714W        W42658  29.969   2.785  11.878
78715W        W42659   4.361  42.847   3.816
78716W        W42660  37.439   8.699  11.957
78717W        W42661  10.370  25.197  14.793
78718W        W42662  33.504  34.953  14.465
78719W        W42663  35.475  29.939  12.932
78720W        W42664  37.067  32.917   2.783
78721W        W42665  18.602   2.251   0.433
78722W        W42666   3.409  37.992   0.407
78723W        W42667  42.852  35.408   4.184
78724W        W42668   6.840  30.044   9.550
78725W        W42669  40.873  26.597   2.895
78726W        W42670   3.889  21.691  14.478
78727W        W42671  13.600  19.142   3.335
78728W        W42672  10.671  36.385   3.210
78729W        W42673  43.924   4.926   1.325
78730W        W42674  36.512   1.341   0.794
78731W        W42675   5.704   1.326  13.414
78732W        W42676  11.752  14.826  10.641
78733W        W42677  44.300  20.629  14.438
78734W        W42678  34.433   4.344   0.729
78735W        W42679  31.450  31.481  12.842
78736W        W42680  13.276  23.208  12.546
78737W        W42681  37.881  41.027   3.870
78738W        W42682  29.056  17.149   2.826
78739W        W42683  44.344   3.339  14.954
78740W        W42684  27.158  26.623  12.996
78741W        W42685  38.824  44.349  12.051
78742W        W42686   4.256   4.277   5.318
78743W        W42687   9.808  15.142   3.797
78744W        W42688   7.762  41.537  11.503
78745W        W42689  16.155   8.777  14.966
78746W        W42690  22.545   5.205   4.634
78747W        W42691  25.543   4.758  14.515
78748W        W42692   7.795   1.835   0.291
78749W        W42693   0.896  29.004  14.806
78750W        W42694   1.389  35.454   3.284
78751W        W42695  18.220  13.695   4.615
78752W        W42696  12.787  13.111  13.400
78753W        W42697  22.573  32.606   4.202
78754W        W42698  32.895  37.025  14.814
78755W        W42699  39.981  40.464  12.041
78756W        W42700  33.952  22.213   0.918
78757W        W42701   4.924  28.111   4.648
78758W        W42702  30.546  44.888   4.333
78759W        W42703   0.900  19.094   4.651
78760W        W42704   5.377  33.475   3.269
78761W        W42705  19.198  36.413  11.533
78762W        W42706  16.259  28.049  10.619
78763W        W42707  30.562  37.016   1.822
78764W        W42708  13.810   6.677   3.306
78765W        W42709  41.419  44.470  13.377
78766W        W42710  23.682  29.639   1.895
78767W        W42711  32.120  18.171  14.906
78768W        W42712   3.446   0.816   2.673
78769W        W42713  10.868   1.343   0.839
78770W        W42714  12.802   3.950   5.287
78771W        W42715   1.802  28.496  13.417
78772W        W42716  17.258  17.676   0.878
78773W        W42717   4.745  27.073  10.564
78774W        W42718   1.776  33.521   4.194
78775W        W42719  29.656   7.369  14.413
78776W        W42720  28.053  24.540   3.769
78777W        W42721  42.837  43.906   0.327
78778W        W42722  36.545   4.228  12.495
78779W        W42723  41.327  24.979  13.872
78780W        W42724   1.308  36.454  14.861
78781W        W42725  18.577  20.136   3.381
78782W        W42726  14.746  12.172  14.492
78783W        W42727   2.262  36.901   3.651
78784W        W42728   0.273  42.501   0.383
78785W        W42729   2.753  38.902   3.386
78786W        W42730   5.749  12.777  14.928
78787W        W42731  30.004   2.389  14.867
78788W        W42732  19.605  30.005   0.760
78789W        W42733  23.204  30.583  13.320
78790W        W42734  29.001   4.371  10.461
78791W        W42735  29.153  33.511   2.245
78792W        W42736  16.127  42.978   1.810
78793W        W42737  41.530  19.184   3.256
78794W        W42738  30.002   4.255   3.750
78795W        W42739  35.100  16.778  11.059
78796W        W42740  21.663  40.865  13.330
78797W        W42741  40.357   3.735  12.013
78798W        W42742  35.935  27.982  13.331
78799W        W42743  28.009  29.927  11.952
78800W        W42744   9.379  15.141   5.299
78801W        W42745   9.868  28.641   1.837
78802W        W42746  32.063  32.395   4.626
78803W        W42747   1.912  44.415  12.063
78804W        W42748  37.359  39.448   1.714
78805W        W42749   4.363  30.493   1.285
78806W        W42750  13.647  28.936  12.552
78807W        W42751  18.220  30.938   2.185
78808W        W42752  12.850  10.691   4.689
78809W        W42753   6.427  38.050   0.414
78810W        W42754   7.873   1.422  12.394
78811W        W42755   9.781  19.557   4.180
78812W        W42756  43.298  32.073  14.010
78813W        W42757  32.956  18.784  11.550
78814W        W42758  32.570  17.208   3.267
78815W        W42759  23.990  10.162   0.397
78816W        W42760  37.388   6.811   1.780
78817W        W42761   4.317  38.400  11.380
78818W        W42762   9.741  32.446  10.556
78819W        W42763  35.100  10.310  10.953
78820W        W42764   0.899   7.355   3.349
78821W        W42765  41.033  27.056   2.303
78822W        W42766  37.380   9.775  11.396
78823W        W42767  27.188  27.057   3.668
78824W        W42768  18.056  15.772   3.207
78825W        W42769  26.189  10.806  12.055
78826W        W42770  18.691  38.857  10.920
78827W        W42771  10.696   0.255  10.056
78828W        W42772  37.834  29.665   1.369
78829W        W42773  44.907  32.923   3.695
78830W        W42774  20.694   2.731   4.604
78831W        W42775   6.749  28.067  10.965
78832W        W42776  44.375  11.259   1.745
78833W        W42777  44.869   7.779  14.890
78834W        W42778  21.134  18.620  11.590
78835W        W42779  39.940   7.261   1.225
78836W        W42780   3.723  22.113  11.956
78837W        W42781  17.147  44.499  12.030
78838W        W42782   5.310  31.002  11.544
78839W        W42783  30.942   2.451   2.800
78840W        W42784  19.152  18.290   4.156
78841W        W42785   0.401  18.280   3.221
78842W        W42786  15.820   9.649   1.432
78843W        W42787   8.668  19.262  12.841
78844W        W42788  41.536  21.698  13.952
78845W        W42789  29.067  21.206   2.187
78846W        W42790  34.024  40.977  10.589
78847W        W42791  16.097  24.182  12.513
78848W        W42792  23.003  44.327  11.040
78849W        W42793   6.311  15.191   4.113
78850W        W42794  34.945  37.850  10.964
78851W        W42795  17.275  26.094  14.315
78852W        W42796  21.700  40.838   1.765
78853W        W42797   9.335   8.734   0.477
78854W        W42798  28.120   7.882  13.992
78855W        W42799  39.471   4.210  12.567
78856W        W42800  17.130  42.808   2.856
78857W        W42801  27.550  33.510   3.654
78858W        W42802  39.960   5.324  12.053
78859W        W42803  19.696  43.302  13.487
78860W        W42804  27.643  27.474  13.345
78861W        W42805  34.010  41.852  11.407
78862W        W42806  40.987   7.730   3.258
78863W        W42807  18.139  38.007   4.149
78864W        W42808  27.467  16.748  14.771
78865W        W42809   0.347  34.866  10.597
78866W        W42810  18.613   2.793  13.037
78867W        W42811   9.274   3.376  13.379
78868W        W42812  23.043   4.313   2.826
78869W        W42813  17.208   3.346  11.066
78870W        W42814  14.628  23.238  14.452
78871W        W42815  37.459  31.478  14.943
78872W        W42816  19.763  26.018   4.598
78873W        W42817  16.577  17.178   1.415
78874W        W42818  32.128  22.097   3.663
78875W        W42819  36.453   2.301   0.739
78876W        W42820  27.611  14.168  14.463
78877W        W42821  32.494  27.036  12.458
78878W        W42822  14.613  40.437  13.895
78879W        W42823   0.341  25.556  14.022
78880W        W42824  33.623   4.707   2.341
78881W        W42825  23.593  19.544   3.276
78882W        W42826  37.884  42.844  14.352
78883W        W42827  29.583  17.146   0.804
78884W        W42828   8.225  19.711   1.417
78885W        W42829  14.652  38.453  11.123
78886W        W42830  20.137  35.578  11.016
78887W        W42831  30.654  15.691   2.689
78888W        W42832  19.586   3.283   2.401
78889W        W42833  14.735  12.762   0.757
78890W        W42834  21.049  12.181  13.515
78891W        W42835  42.843  25.477  12.503
78892W        W42836  18.138   8.838  13.465
78893W        W42837   9.210  29.589   0.300
78894W        W42838   9.247  30.616   3.324
78895W        W42839  22.147  41.993   1.718
78896W        W42840  32.036   4.919  14.409
78897W        W42841  36.888   3.808   9.592
78898W        W42842   3.433  25.102  13.492
78899W        W42843  36.555   2.253   2.317
78900W        W42844  15.240  34.507  12.004
78901W        W42845  41.523  44.917   0.753
78902W        W42846  32.104   7.788   1.267
78903W        W42847  34.502  17.281   3.384
78904W        W42848  14.107  12.682   2.860
78905W        W42849   3.875  43.982   0.922
78906W        W42850  13.271   0.433   0.772
78907W        W42851   9.838  34.579  10.573
78908W        W42852  25.618  30.097   0.461
78909W        W42853  10.164  24.702   0.466
78910W        W42854   7.291  25.089  13.972
78911W        W42855  27.603   8.315   2.832
78912W        W42856  10.341   2.293  11.554
78913W        W42857  21.723  13.129  13.400
78914W        W42858  34.869  31.620   0.431
78915W        W42859   4.745  43.972  10.417
78916W        W42860  33.988   0.350  13.050
78917W        W42861  18.279  40.330   2.213
78918W        W42862  44.011   0.271  10.909
78919W        W42863   9.789  28.503  10.897
78920W        W42864  36.041  13.641  11.532
78921W        W42865  25.575  30.971  10.537
78922W        W42866  17.786  32.947   3.832
78923W        W42867  26.040  30.954  12.559
78924W        W42868  31.992  34.079   2.381
78925W        W42869  23.699  29.999   4.607
78926W        W42870  16.659  17.744   0.477
78927W        W42871  27.159  21.217   1.935
78928W        W42872  26.545  37.851   2.671
78929W        W42873   0.403  26.678   0.472
78930W        W42874  31.015   0.480   2.713
78931W        W42875  15.247   1.268   3.275
78932W        W42876  19.272  35.057  12.085
78933W        W42877  32.974  30.131  10.404
78934W        W42878  10.304  22.622   1.449
78935W        W42879  34.422  10.251   1.767
78936W        W42880  41.863  25.597  12.476
78937W        W42881  32.463   6.789  14.510
78938W        W42882  43.435   4.836   1.411
78939W        W42883  39.370   2.887  10.091
78940W        W42884   0.811  13.747   3.160
78941W        W42885  21.655  28.530   3.745
78942W        W42886  12.755  12.128   4.290
78943W        W42887  15.149  28.553   3.193
78944W        W42888  16.106  22.089   3.658
78945W        W42889  20.631  25.680  12.055
78946W        W42890  13.259   7.396   4.301
78947W        W42891  31.959  33.039   4.304
78948W        W42892  15.766  39.466   2.732
78949W        W42893   4.886  27.194  14.474
78950W        W42894  40.415   2.809  12.874
78951W        W42895  25.554  33.957   1.747
78952W        W42896  18.556  20.635  12.512
78953W        W42897   9.645  27.135  14.903
78954W        W42898   2.871   4.248   2.298
78955W        W42899  13.202  16.700   1.879
78956W        W42900  28.103  14.635   1.841
78957W        W42901   9.382  18.100   2.833
78958W        W42902  21.635  28.584  13.364
78959W        W42903  13.350  16.723  11.598
78960W        W42904   5.429  17.741   3.789
78961W        W42905   9.214  26.496   3.868
78962W        W42906  27.090   5.760   1.804
78963W        W42907  19.090  42.386   1.317
78964W        W42908  24.155  20.618  13.524
78965W        W42909  24.575   9.812  10.447
78966W        W42910  23.100  16.136  12.970
78967W        W42911  19.538   9.735  12.030
78968W        W42912  15.318  12.243   4.813
78969W        W42913  26.493  27.984  14.005
78970W        W42914  10.267  32.481   4.272
78971W        W42915  41.895  43.983  12.426
78972W        W42916   3.241  26.668   4.283
78973W        W42917  41.961  29.531   3.244
78974W        W42918  43.312   5.845   4.752
78975W        W42919   7.326   2.394  10.485
78976W        W42920  37.492  44.411   2.246
78977W        W42921   0.961  20.585   0.393
78978W        W42922   7.266   4.287   1.339
78979W        W42923  22.674  44.332   1.296
78980W        W42924  42.459  30.070   2.774
78981W        W42925   8.742  21.536   3.214
78982W        W42926  41.467  34.092   0.355
78983W        W42927   0.481  30.087  14.784
78984W        W42928  42.358  35.521   0.313
78985W        W42929  33.945  10.337   3.782
78986W        W42930   4.917  42.015  10.538
78987W        W42931  21.611   4.881  13.328
78988W        W42932  29.997  28.149   4.735
78989W        W42933  28.175   1.764   4.344
78990W        W42934  34.439   9.729  10.961
78991W        W42935  27.182  11.781  12.092
78992W        W42936  30.537   8.814   4.242
78993W        W42937  31.580  11.230   2.716
78994W        W42938   0.430  37.081   4.319
78995W        W42939  22.035  41.905  10.556
78996W        W42940  33.468  30.970  11.500
78997W        W42941  27.139   7.413  12.540
78998W        W42942  29.611  17.771   1.315
78999W        W42943  20.753   7.211  10.088
79000W        W42944  44.499  15.771   4.147
79001W        W42945  33.547  19.238   4.797
79002W        W42946   5.403  39.446   3.255
79003W        W42947  35.050   0.833  10.079
79004W        W42948  44.915  43.899  13.992
79005W        W42949  41.903  13.624  10.530
79006W        W42950  43.889   3.272   3.849
79007W        W42951  29.609  32.524  11.962
79008W        W42952  16.687  38.962   4.150
79009W        W42953  21.068  35.370  12.861
79010W        W42954  44.321  27.582   0.302
79011W        W42955   8.186  37.012   2.688
79012W        W42956  31.008  18.092  11.007
79013W        W42957  26.071  26.008   2.405
79014W        W42958  21.638   8.788  11.510
79015W        W42959  20.091  39.911  13.033
79016W        W42960  43.885  14.144  13.329
79017W        W42961  14.253  27.147  12.062
79018W        W42962  37.041  22.196   2.198
79019W        W42963   3.834  31.148  11.491
79020W        W42964  38.334   0.774   4.174
79021W        W42965  22.150  15.812  11.984
79022W        W42966  40.405  19.644   0.368
79023W        W42967  38.850  28.988   4.155
79024W        W42968  26.540   4.253   4.711
79025W        W42969  24.567  35.419   0.309
79026W        W42970   9.228  27.659  14.457
79027W        W42971  20.763   1.466   1.323
79028W        W42972  24.687  16.116   3.789
79029W        W42973   4.421  30.562  11.923
79030W        W42974  31.644  24.536   2.307
79031W        W42975  42.393  32.491  12.089
79032W        W42976   1.864  29.928   3.208
79033W        W42977   3.716   3.311   4.211
79034W        W42978  24.049  29.150   3.708
79035W        W42979  15.145   2.342   4.141
79036W        W42980  27.610  10.214   3.679
79037W        W42981  39.503  14.789  14.407
79038W        W42982  11.302  16.600   2.204
79039W        W42983  36.469  36.542  14.397
79040W        W42984  30.587  17.300  12.490
79041W        W42985   5.739   5.865  13.450
79042W        W42986  14.333  26.984  11.410
79043W        W42987  22.713  43.964  10.988
79044W        W42988  32.609  35.466  11.562
79045W        W42989  33.033  10.253   1.873
79046W        W42990  41.416  13.690  14.914
79047W        W42991  12.742  36.029  12.939
79048W        W42992  29.563  18.183  14.844
79049W        W42993  40.549  14.315   4.240
79050W        W42994  33.037  28.156  12.887
79051W        W42995  16.807  12.736  10.591
79052W        W42996  24.162  44.868   0.860
79053W        W42997   5.314  38.063   4.658
79054W        W42998  34.568  27.091   0.309
79055W        W42999  41.929  41.964  11.873
79056W        W43000  23.052  34.538   0.325
79057W        W43001  15.774  35.437   2.411
79058W        W43002  10.139  11.362   3.806
79059W        W43003  27.514  35.077  10.508
79060W        W43004   5.816   9.749  14.816
79061W        W43005  44.804  18.751   1.263
79062W        W43006  24.664  31.085  11.965
79063W        W43007  39.451  36.549   4.282
79064W        W43008   4.868  39.879  10.466
79065W        W43009  30.923  29.011  14.900
79066W        W43010  38.840  31.140   0.958
79067W        W43011   6.807  29.002  13.902
79068W        W43012  26.160  23.142   3.861
79069W        W43013   4.713  31.922  10.971
79070W        W43014  27.165  13.201   0.393
79071W        W43015  27.539  26.956  10.626
79072W        W43016   9.664  10.867   4.623
79073W        W43017   5.266  18.671   0.315
79074W        W43018   8.844  35.079   0.865
79075W        W43019  23.120  36.866  13.894
79076W        W43020  20.130   9.363  11.010
79077W        W43021  20.102   6.333   2.784
79078W        W43022  26.516  15.215   3.661
79079W        W43023  11.641  21.249  11.479
79080W        W43024  38.049   5.311  12.076
79081W        W43025  27.196  42.495   4.695
79082W        W43026  11.328  31.636  14.956
79083W        W43027   4.255   2.298  13.367
79084W        W43028  43.427  16.099  13.457
79085W        W43029   2.413  12.124   4.124
79086W        W43030  22.581  34.962  12.833
79087W        W43031  20.180  10.321   2.372
79088W        W43032  22.121  42.842  10.585
79089W        W43033  26.141  44.929  11.902
79090W        W43034  32.090  27.145   0.807
79091W        W43035  28.129  29.101  11.540
79092W        W43036  32.448  38.487   1.784
79093W        W43037  27.573  12.812   0.446
79094W        W43038  10.651  42.875   4.296
79095W        W43039  13.744  42.845   3.168
79096W        W43040  13.804  44.418  12.378
79097W        W43041  22.552  41.006   9.973
79098W        W43042  39.024  36.925   3.194
79099W        W43043  15.581  17.227  12.900
79100W        W43044  27.676  36.844  12.534
79101W        W43045  39.384   6.739  12.450
79102W        W43046   6.698  19.707   4.728
79103W        W43047  32.468   5.894  13.420
79104W        W43048  32.967  33.513   0.727
79105W        W43049  21.667  16.572  11.061
79106W        W43050  26.522  14.673   2.390
79107W        W43051  25.102  22.008   0.360
79108W        W43052  31.525   9.725   1.791
79109W        W43053  28.483  40.357   3.748
79110W        W43054  12.825  22.566   4.814
79111W        W43055   4.218  16.077  12.936
79112W        W43056   2.826  11.763   1.754
79113W        W43057  39.355  38.558  14.324
79114W        W43058  10.701  23.156  10.628
79115W        W43059  40.403  17.278  11.402
79116W        W43060  23.715  14.285  13.333
79117W        W43061   1.293  33.994   1.738
79118W        W43062  37.006  42.998  12.077
79119W        W43063   6.782  41.993   0.935
79120W        W43064  32.002  42.869   0.470
79121W        W43065  20.721  41.410  13.912
79122W        W43066   3.287  34.603   0.268
79123W        W43067  12.292   6.362   0.731
79124W        W43068  21.586  23.621   1.422
79125W        W43069   2.257   4.206   4.237
79126W        W43070  24.038  22.188  14.405
79127W        W43071   9.358  25.701   2.322
79128W        W43072  17.250  22.096  10.993
79129W        W43073   5.368  20.137   0.736
79130W        W43074  22.642  37.054  13.344
79131W        W43075  23.157  34.876  14.884
79132W        W43076  22.586  26.664  11.046
79133W        W43077  27.020   7.790   4.304
79134W        W43078   1.459  22.699  12.464
79135W        W43079  11.843  39.026  14.278
79136W        W43080  17.107  35.954  14.467
79137W        W43081   9.863   9.344  13.488
79138W        W43082   2.328  25.507  14.942
79139W        W43083   9.282   4.895  12.887
79140W        W43084   9.668  34.593  11.941
79141W        W43085   9.665  10.384  12.452
79142W        W43086  30.458  15.237  14.509
79143W        W43087   4.863   5.195   0.742
79144W        W43088   7.826   4.788   1.441
79145W        W43089  20.100  29.175  13.004
79146W        W43090  34.982  25.136   3.658
79147W        W43091   0.843  12.154   0.257
79148W        W43092  16.807  11.808   3.200
79149W        W43093  11.787  10.186   5.269
79150W        W43094  38.436  28.522   4.250
79151W        W43095   6.420  34.560  11.058
79152W        W43096   8.322  37.986  12.434
79153W        W43097  30.981  30.092   4.610
79154W        W43098  13.129  16.192   1.831
79155W        W43099  33.905  23.732   4.165
79156W        W43100   7.902  30.925   1.350
79157W        W43101  40.974  28.537   3.633
79158W        W43102  30.626   6.416   2.406
79159W        W43103   5.244  43.792  13.859
79160W        W43104  24.228   7.719   0.465
79161W        W43105  26.985   7.184   5.284
79162W        W43106   7.682  22.180   2.224
79163W        W43107  40.845  39.881   1.724
79164W        W43108  28.465   8.709   2.890
79165W        W43109  26.504  20.727  10.907
79166W        W43110   1.379   9.288   1.261
79167W        W43111   9.351  21.657   1.348
79168W        W43112   1.737  11.292   0.471
79169W        W43113  18.087  24.057   3.675
79170W        W43114  38.550  16.690  12.573
79171W        W43115  42.806   2.285  10.465
79172W        W43116  41.342  12.689   1.355
79173W        W43117  25.140  11.851  14.868
79174W        W43118   8.319  10.349  14.026
79175W        W43119  25.639   6.833   2.377
79176W        W43120  10.377  13.651   1.763
79177W        W43121  40.958  38.466   2.756
79178W        W43122  28.939  10.371   3.223
79179W        W43123  33.027  21.753   0.809
79180W        W43124  16.074  14.751  12.410
79181W        W43125  20.096   4.923  14.297
79182W        W43126   6.330  44.458  12.380
79183W        W43127   7.324  39.847   3.738
79184W        W43128  37.562   1.894  10.541
79185W        W43129   6.264  42.784  11.893
79186W        W43130  24.014  31.987  10.484
79187W        W43131  39.390  31.141  12.560
79188W        W43132  25.183  36.480   4.323
79189W        W43133  28.125   1.739  11.606
79190W        W43134   1.336  44.457   1.288
79191W        W43135  30.992   5.286   2.890
79192W        W43136  25.080  40.034   3.839
79193W        W43137  27.022   4.301  11.472
79194W        W43138   3.772   4.757  13.819
79195W        W43139   8.250  20.759  11.869
79196W        W43140  20.055  33.017  11.869
79197W        W43141  12.787  28.175  11.489
79198W        W43142  18.703  10.826   1.901
79199W        W43143  10.337  31.075   2.201
79200W        W43144   9.741  29.978  12.451
79201W        W43145  22.727  23.056   4.257
79202W        W43146  18.101   9.350  12.922
79203W        W43147   8.880  16.588  12.529
79204W        W43148   4.764   2.258   4.344
79205W        W43149  11.231  27.490   0.822
79206W        W43150  17.583  15.722  11.032
79207W        W43151  23.506   0.796  12.901
79208W        W43152   6.377  24.677  13.468
79209W        W43153   2.957  26.575   0.752
79210W        W43154  30.548   4.726   0.873
79211W        W43155  17.678  15.245   4.810
79212W        W43156   1.952  33.548   2.254
79213W        W43157  38.830   9.805  10.536
79214W        W43158  24.076  35.108  11.608
79215W        W43159  32.082  14.244   1.836
79216W        W43160  15.280  19.275  10.950
79217W        W43161  38.843  11.812   3.770
79218W        W43162  44.500  42.474   4.657
79219W        W43163   9.856   6.325  14.449
79220W        W43164  39.830  26.965   3.212
79221W        W43165  16.219   6.421   2.737
79222W        W43166  34.451  33.088   0.482
79223W        W43167  19.085   2.437   4.314
79224W        W43168  38.053  39.478   1.858
79225W        W43169  29.669   8.336  13.413
79226W        W43170  11.133  25.703   2.735
79227W        W43171  33.596   8.733   5.265
79228W        W43172   9.346  41.031   3.292
79229W        W43173   7.750  12.353   0.772
79230W        W43174  33.416  24.153   3.194
79231W        W43175   3.915  18.672   2.766
79232W        W43176   4.723   0.414  12.460
79233W        W43177  26.483   8.837  10.894
79234W        W43178  37.975  12.134  12.032
79235W        W43179  14.622  39.827   1.395
79236W        W43180  15.793  35.486   3.353
79237W        W43181   2.425  31.054   1.835
79238W        W43182  20.215  15.697   0.299
79239W        W43183  31.436   7.224   4.816
79240W        W43184  40.339   1.848   2.715
79241W        W43185  11.847  19.713  11.593
79242W        W43186   2.291  12.746  10.996
79243W        W43187   0.309   8.803   4.265
79244W        W43188   9.730  33.622   2.340
79245W        W43189  37.506  17.192  12.519
79246W        W43190  19.609  33.572  12.021
79247W        W43191  28.946   1.396   0.881
79248W        W43192   6.845   0.865   1.883
79249W        W43193  16.596  11.781   4.813
79250W        W43194  28.550  31.467   0.918
79251W        W43195   2.460  34.110   2.890
79252W        W43196   4.397  25.599   2.299
79253W        W43197  37.524  12.724  13.457
79254W        W43198  35.548   3.736  10.918
79255W        W43199  13.139  16.310   1.229
79256W        W43200  31.119  42.021  10.506
79257W        W43201  25.194  24.588   4.834
79258W        W43202  25.025  34.409  10.557
79259W        W43203  19.169  12.614   0.433
79260W        W43204  10.293  29.964   2.281
79261W        W43205  22.067   2.823  10.546
79262W        W43206  34.107  19.252  13.000
79263W        W43207   8.318  28.665   4.338
79264W        W43208  34.095   9.202  13.045
79265W        W43209   1.252  40.497  13.541
79266W        W43210  20.065  29.545   4.201
79267W        W43211  30.500   0.875  11.566
79268W        W43212  32.109  44.457   2.354
79269W        W43213  30.535   2.404   4.678
79270W        W43214  38.950  32.930  10.917
79271W        W43215  21.676  13.208   1.361
79272W        W43216  11.814   0.847   3.349
79273W        W43217   5.348  31.624   3.160
79274W        W43218  10.852  33.471   0.753
79275W        W43219  42.395  40.954   2.258
79276W        W43220  43.468  34.464   0.772
79277W        W43221  32.467  15.639   3.333
79278W        W43222  25.968  35.423   0.778
79279W        W43223  14.723   6.713  14.932
79280W        W43224  31.515  38.883   2.671
79281W        W43225  35.925   6.886   4.698
79282W        W43226   9.752  26.994  11.601
79283W        W43227  11.241  10.199   2.414
79284W        W43228  28.171   3.426   3.380
79285W        W43229  42.365  33.913  13.003
79286W        W43230  37.548   6.300  10.910
79287W        W43231   0.489  19.245  12.486
79288W        W43232  12.301  26.621   1.802
79289W        W43233  17.244  12.841   4.203
79290W        W43234  30.076  41.846  11.474
79291W        W43235   5.704   9.761  11.424
79292W        W43236  19.687   7.795   5.094
79293W        W43237  42.506  38.325   4.678
79294W        W43238   6.202   0.981  13.452
79295W        W43239  43.840   6.290   3.161
79296W        W43240   0.411   3.876  12.427
79297W        W43241  36.443  25.686  12.395
79298W        W43242  19.257  36.514   4.315
79299W        W43243  18.063  31.037  11.968
79300W        W43244  19.536  17.157  11.993
79301W        W43245  37.830   7.737   1.793
79302W        W43246  39.953  37.990   2.318
79303W        W43247   9.650  39.461  13.502
79304W        W43248   1.970  36.958  14.766
79305W        W43249  39.389  20.261   0.309
79306W        W43250   9.272  19.065   3.352
79307W        W43251  19.659  33.029  10.981
79308W        W43252   7.863  13.805  12.574
79309W        W43253   6.195  36.551   4.823
79310W        W43254   1.365  14.679  14.479
79311W        W43255  12.759  40.459  13.548
79312W        W43256   7.319  38.428   1.828
79313W        W43257  31.537  39.517   9.501
79314W        W43258  32.044  35.916   3.791
79315W        W43259  43.875   2.802  12.097
79316W        W43260  28.972   7.838   0.478
79317W        W43261  41.823  41.372   3.644
79318W        W43262  10.328  15.707   4.303
79319W        W43263   2.938  27.603   0.792
79320W        W43264  13.826   7.410  12.989
79321W        W43265  25.512  27.626  11.915
79322W        W43266  36.036  11.363  11.596
79323W        W43267  12.347  22.569   2.777
79324W        W43268  35.493  15.672  11.981
79325W        W43269  38.873   1.732   5.105
79326W        W43270  28.613  25.088  12.071
79327W        W43271  15.216  23.120   1.441
79328W        W43272  25.605  17.085  10.494
79329W        W43273  18.082  24.628  11.078
79330W        W43274  10.235  18.736   4.249
79331W        W43275  36.591   5.816  12.570
79332W        W43276  36.488  13.786   4.793
79333W        W43277  14.232   1.396   0.907
79334W        W43278  38.925  31.908  11.500
79335W        W43279  25.616  26.984   0.414
79336W        W43280  27.155  26.052  10.515
79337W        W43281   5.390  39.375  13.909
79338W        W43282   3.439  12.710  14.819
79339W        W43283  33.384  41.953  14.417
79340W        W43284  42.502  44.839   4.802
79341W        W43285  26.609  40.901  12.398
79342W        W43286   8.335  34.422   3.361
79343W        W43287  42.429  30.560   4.807
79344W        W43288  19.047  26.065  14.399
79345W        W43289  16.200  24.007  14.450
79346W        W43290  16.169  34.997   9.667
79347W        W43291  31.142  30.578  14.803
79348W        W43292   9.752  26.700  11.869
79349W        W43293  25.101  18.594   2.389
79350W        W43294   9.712  23.120  14.810
79351W        W43295  31.410  31.525   0.846
79352W        W43296  17.782  29.973  13.928
79353W        W43297  14.210  25.620  13.370
79354W        W43298  12.142  32.554  10.532
79355W        W43299   6.313  28.444   4.630
79356W        W43300  19.064  11.148   2.215
79357W        W43301   2.958  40.814  12.399
79358W        W43302  29.438  14.255   2.196
79359W        W43303  30.437  39.007  11.862
79360W        W43304   2.768   4.324  14.352
79361W        W43305  27.562  41.028   3.739
79362W        W43306   3.354  27.972  11.090
79363W        W43307  21.231  40.983   2.191
79364W        W43308  34.068   7.248  11.976
79365W        W43309  24.494  20.718   4.353
79366W        W43310  28.483  18.073   4.640
79367W        W43311   8.383  32.465   0.317
79368W        W43312  43.506   9.337   4.215
79369W        W43313   3.419  31.423  14.918
79370W        W43314   2.338  16.567   0.336
79371W        W43315  31.921  35.472   1.295
79372W        W43316   6.366   6.426  12.868
79373W        W43317  31.989  10.186  11.487
79374W        W43318  33.874  32.582  11.385
79375W        W43319  37.433  36.009   2.850
79376W        W43320  29.994  36.505  12.857
79377W        W43321  30.126   5.427   0.757
79378W        W43322  31.061  32.550   0.877
79379W        W43323  38.528  28.060   4.141
79380W        W43324   7.905  12.152  12.528
79381W        W43325   0.968  27.051  11.856
79382W        W43326  17.723  28.127  11.102
79383W        W43327  37.974  21.608  10.404
79384W        W43328   4.311  34.949   1.358
79385W        W43329  44.333  12.814   1.779
79386W        W43330  26.156  18.601   3.831
79387W        W43331  11.300  21.066   9.971
79388W        W43332   1.744  41.939   4.737
79389W        W43333  43.953   3.245  11.532
79390W        W43334  28.479   0.771   1.285
79391W        W43335   5.765   7.174   4.644
79392W        W43336   5.717   3.454  10.468
79393W        W43337  24.986  33.106   3.236
79394W        W43338  42.282  36.910  12.944
79395W        W43339  15.265  40.828   2.189
79396W        W43340  17.159   8.832   1.816
79397W        W43341  14.148  12.831  11.470
79398W        W43342  23.998  25.478   1.785
79399W        W43343   9.837   3.345  10.589
79400W        W43344  28.645  37.444   4.242
79401W        W43345  42.327  22.115  14.509
79402W        W43346  39.325   2.323   2.697
79403W        W43347  36.061   9.390  12.361
79404W        W43348  13.252  22.220   0.959
79405W        W43349  12.160  37.064  13.817
79406W        W43350   5.860  11.837   3.855
79407W        W43351   1.818  14.150  13.998
79408W        W43352  40.946  33.115   1.331
79409W        W43353  42.501  22.537  14.842
79410W        W43354  15.652  43.352  11.565
79411W        W43355  22.512  43.434   9.968
79412W        W43356  10.808  31.112  10.523
79413W        W43357  18.241  35.467  12.556
79414W        W43358  44.434  35.022  10.428
79415W        W43359   6.321  36.538  11.856
79416W        W43360  28.538  41.875   0.473
79417W        W43361  13.137   8.664   3.340
79418W        W43362  18.677  21.695  14.930
79419W        W43363  20.175  44.958   2.277
79420W        W43364  18.644  35.940  10.085
79421W        W43365  35.402  17.177  12.432
79422W        W43366   6.423  30.480   1.411
79423W        W43367   1.942  30.526   2.848
79424W        W43368   9.722  14.801   3.374
79425W        W43369  40.928   0.899   3.198
79426W        W43370   4.377  13.222  14.027
79427W        W43371  27.645  35.855   1.238
79428W        W43372   2.325  34.938   1.415
79429W        W43373  36.978  26.637  13.016
79430W        W43374   6.685  28.159  14.883
79431W        W43375  33.100  22.733   2.357
79432W        W43376  41.915   7.217  11.461
79433W        W43377   1.294  16.283   0.372
79434W        W43378  32.595  16.685  11.117
79435W        W43379  14.169  18.770   1.915
79436W        W43380   8.723  18.261  14.404
79437W        W43381  12.715  33.085  13.964
79438W        W43382   8.205  13.763  14.961
79439W        W43383  17.246  41.957   3.658
79440W        W43384  44.957  29.920   2.412
79441W        W43385  41.790  31.089  11.879
79442W        W43386   2.927   8.341   9.919
79443W        W43387   1.477  24.026  12.401
79444W        W43388  38.989   2.434   2.390
79445W        W43389   1.941  36.024  12.040
79446W        W43390  32.102  19.087   2.296
79447W        W43391  10.356  34.002   2.405
79448W        W43392  22.142  13.813   3.707
79449W        W43393  13.616   3.375  13.405
79450W        W43394  20.589  38.819  14.764
79451W        W43395  34.419   9.691  14.027
79452W        W43396  27.456  35.862   0.466
79453W        W43397  35.994  41.837  12.516
79454W        W43398  23.074   2.239   3.260
79455W        W43399  12.628  27.116  10.421
79456W        W43400  17.202  16.765   0.263
79457W        W43401  28.966   4.296   0.746
79458W        W43402  24.497  17.080   4.691
79459W        W43403  31.929  41.465  13.494
79460W        W43404  17.730  24.523  14.436
79461W        W43405   6.742  28.015   2.189
79462W        W43406   2.904  36.584   2.202
79463W        W43407  17.619  14.614   3.813
79464W        W43408  21.640  21.516  13.517
79465W        W43409  30.491  16.744   9.538
79466W        W43410  30.938  32.572   3.171
79467W        W43411  19.096  25.998  14.965
79468W        W43412  26.106  34.420   2.301
79469W        W43413  30.918  30.511  11.504
79470W        W43414  24.149   3.440  11.412
79471W        W43415   4.748  43.404   4.776
79472W        W43416  16.656  32.128   1.306
79473W        W43417  27.025   0.981   4.806
79474W        W43418  11.360  15.807  11.470
79475W        W43419   5.329   7.737   2.288
79476W        W43420  23.011  24.061  10.891
79477W        W43421   8.707  43.275  11.502
79478W        W43422  24.064   6.332   4.295
79479W        W43423  38.447  17.265  13.448
79480W        W43424  17.305  42.459   0.962
79481W        W43425   3.251  13.138   2.748
79482W        W43426  35.950  17.219  14.916
79483W        W43427  42.426  22.694  11.126
79484W        W43428  26.489  26.651  14.376
79485W        W43429  24.120  16.698   0.322
79486W        W43430  21.098   6.234   0.261
79487W        W43431  14.716  23.164  11.017
79488W        W43432   7.359   8.875   3.283
79489W        W43433  32.531  17.572   0.771
79490W        W43434  23.675  14.703  14.809
79491W        W43435  27.030  43.948   2.220
79492W        W43436  36.517  39.907   2.670
79493W        W43437  34.045  14.220  11.015
79494W        W43438  39.039  35.858   2.783
79495W        W43439  11.202  42.948  10.944
79496W        W43440  23.152  27.198   4.728
79497W        W43441  21.750  31.035   0.775
79498W        W43442   7.267  30.478   4.229
79499W        W43443  17.736  13.721  13.000
79500W        W43444  44.447  27.120  11.545
79501W        W43445   5.716  16.223  10.073
79502W        W43446  23.108  31.611  13.048
79503W        W43447  37.075  14.733  11.035
79504W        W43448   9.263  32.980  13.921
79505W        W43449  28.667  34.052  13.425
79506W        W43450  19.718   8.247   1.211
79507W        W43451  40.833  29.143  11.002
79508W        W43452  33.115  34.596   3.636
79509W        W43453   4.267   9.379  13.023
79510W        W43454   9.332  34.067  11.099
79511W        W43455   1.390  36.879  12.028
79512W        W43456   2.452   4.764   1.244
79513W        W43457  12.807  41.804  14.967
79514W        W43458  42.416  43.830   4.143
79515W        W43459  27.478  35.944   4.130
79516W        W43460  24.067  10.188   3.371
79517W        W43461  21.094  36.046   4.713
79518W        W43462   3.921  30.972   0.751
79519W        W43463  16.594  28.481   1.869
79520W        W43464  33.992  12.802  14.309
79521W        W43465  26.165  14.827   2.378
79522W        W43466   5.846   9.383  12.956
79523W        W43467  30.459  34.433  10.057
79524W        W43468  31.528  35.453  14.385
79525W        W43469  33.514   4.400  13.925
79526W        W43470   1.328  37.395  14.379
79527W        W43471  40.308  31.954   5.198
79528W        W43472  43.907  34.071  14.933
79529W        W43473  33.054   4.332  11.927
79530W        W43474  39.945  21.054  14.425
79531W        W43475   0.840  18.752  13.337
79532W        W43476  16.227  16.112  14.335
79533W        W43477  17.216  11.323  14.859
79534W        W43478   3.864  31.570   0.298
79535W        W43479  13.691  40.844  12.948
79536W        W43480  43.342  23.698  13.865
79537W        W43481  18.613  38.532   0.902
79538W        W43482  29.161  16.701   0.913
79539W        W43483  43.297   1.237  12.382
79540W        W43484  31.472  37.454  14.819
79541W        W43485  16.746   1.933  11.458
79542W        W43486  24.214  33.955   1.858
79543W        W43487  33.452   6.817   3.256
79544W        W43488  21.653  33.420   0.733
79545W        W43489  20.752  32.991   1.772
79546W        W43490  36.409  27.520   4.652
79547W        W43491  21.653  24.588  10.510
79548W        W43492  28.023  38.554  10.494
79549W        W43493   2.821   1.260   3.293
79550W        W43494   9.222  27.065  11.387
79551W        W43495  32.016  22.043   0.921
79552W        W43496  38.363  40.819  12.543
79553W        W43497  25.014  34.454  14.910
79554W        W43498  32.064  11.737  14.443
79555W        W43499  18.687  43.407  10.545
79556W        W43500  44.789  18.630  12.919
79557W        W43501  34.873  20.646  11.401
79558W        W43502  15.816  29.534  12.438
79559W        W43503  38.546  24.709   0.408
79560W        W43504  16.659  32.532  13.860
79561W        W43505  22.575  10.267   4.192
79562W        W43506   0.926  31.145   2.404
79563W        W43507  33.428  14.330  12.942
79564W        W43508   2.912  44.775   0.419
79565W        W43509   7.223  28.451   4.315
79566W        W43510   8.250   8.282   1.270
79567W        W43511  15.623  41.957  14.373
79568W        W43512   0.902  14.677  11.386
79569W        W43513  26.547  39.832   1.401
79570W        W43514  25.687   6.400  10.489
79571W        W43515   8.325   8.716  11.045
79572W        W43516  30.015  18.268   3.859
79573W        W43517  33.479  27.574  12.947
79574W        W43518   4.860  13.336   1.272
79575W        W43519  41.322   3.400  13.024
79576W        W43520  32.495  13.211   4.336
79577W        W43521  42.826   2.857  10.915
79578W        W43522  23.517  24.146   4.691
79579W        W43523   4.711  32.965   1.906
79580W        W43524   6.370   3.833   3.663
79581W        W43525  22.551  40.331   3.154
79582W        W43526   6.858  20.764   1.754
79583W        W43527  32.064  23.632  13.932
79584W        W43528  42.830  44.798  11.613
79585W        W43529  37.847  29.927  14.800
79586W        W43530  43.281  40.303   4.208
79587W        W43531  37.014   6.835  14.395
79588W        W43532  17.686  34.062   1.274
79589W        W43533  12.346  44.490   3.367
79590W        W43534   7.750   3.749   3.189
79591W        W43535  11.847  43.942   2.330
79592W        W43536   2.323   5.893  12.869
79593W        W43537  41.525   9.211   3.147
79594W        W43538   7.709  22.054   0.852
79595W        W43539   7.818  30.060  13.357
79596W        W43540  12.742  16.651  14.501
79597W        W43541   2.227  23.169   4.133
79598W        W43542  10.329  21.040   3.158
79599W        W43543  26.992  33.577   3.238
79600W        W43544  28.633  43.473   2.191
79601W        W43545  23.197  14.336  13.904
79602W        W43546  30.923  13.110  10.521
79603W        W43547  13.273   5.696   1.751
79604W        W43548  13.262   1.289   3.643
79605W        W43549  37.504  41.459   0.285
79606W        W43550  38.935  32.496   1.815
79607W        W43551  13.167  32.006   1.269
79608W        W43552  41.941  30.052  13.893
79609W        W43553  43.412  17.699   0.420
79610W        W43554  40.330  38.499  10.478
79611W        W43555  37.929   9.321   0.476
79612W        W43556  31.951  11.783  10.973
79613W        W43557  19.768  34.972  14.805
79614W        W43558  30.596  12.247   0.276
79615W        W43559  15.762   3.841   2.749
79616W        W43560   6.365  13.185  10.077
79617W        W43561  39.862  26.621   2.795
79618W        W43562   2.847  13.630  14.445
79619W        W43563  42.830  23.188   0.477
79620W        W43564   7.691   0.817  11.033
79621W        W43565  44.783  32.981  10.957
79622W        W43566   6.797  16.264   5.637
79623W        W43567  38.913  12.622  10.439
79624W        W43568  30.523  39.812  14.867
79625W        W43569  33.982   0.293   3.802
79626W        W43570  22.065  17.756   4.253
79627W        W43571  18.696  16.789  11.988
79628W        W43572  16.649  31.593   3.284
79629W        W43573  10.787  43.803   2.228
79630W        W43574  37.040   7.256   3.340
79631W        W43575  12.778  16.773  10.993
79632W        W43576  23.164  29.050  10.947
79633W        W43577  12.119  31.904  10.567
79634W        W43578  32.947   1.913   3.748
79635W        W43579  27.019  22.145   4.211
79636W        W43580  39.048   9.693   3.862
79637W        W43581  26.619  38.486  13.910
79638W        W43582  12.295  14.161   0.854
79639W        W43583  39.814  41.873  14.453
79640W        W43584  21.124  24.515  14.824
79641W        W43585  28.594   5.705   2.831
79642W        W43586  31.568  33.503   0.942
79643W        W43587  19.195  41.379   3.720
79644W        W43588   4.907  40.828  13.954
79645W        W43589  15.604  43.912  14.388
79646W        W43590  20.754  41.513  13.011
79647W        W43591  19.699  36.589   3.260
79648W        W43592  31.425  12.304   0.466
79649W        W43593  33.609  16.632  14.291
79650W        W43594   0.839  43.307   4.331
79651W        W43595  30.103   4.775  10.542
79652W        W43596  30.124  32.628  13.901
79653W        W43597  16.722   4.735  14.952
79654W        W43598  32.551  34.045   3.334
79655W        W43599  41.818  25.003  13.410
79656W        W43600  38.919  26.568   0.249
79657W        W43601   5.692  21.231   2.841
79658W        W43602   5.295  15.258   4.282
79659W        W43603  18.195   7.393   2.763
79660W        W43604  34.614  33.062  11.018
79661W        W43605  28.956  28.998  13.911
79662W        W43606  42.306  17.763  14.027
79663W        W43607   5.220  17.567   2.184
79664W        W43608  43.957  39.557  14.911
79665W        W43609  26.012  11.145  14.805
79666W        W43610  39.536  10.293  11.858
79667W        W43611  22.101   4.365   3.740
79668W        W43612  34.006  26.965   4.185
79669W        W43613  21.616  31.509   2.846
79670W        W43614  12.627  14.800   4.787
79671W        W43615  40.360  42.450  13.357
79672W        W43616  21.653   4.382   0.939
79673W        W43617  12.307  29.497   3.223
79674W        W43618   6.758  31.431  11.578
79675W        W43619   2.455   5.411  13.017
79676W        W43620   0.917  43.515   4.628
79677W        W43621  22.204   5.235  11.924
79678W        W43622   2.411   1.961   1.808
79679W        W43623   3.812  14.803   4.167
79680W        W43624  14.213  14.600   2.362
79681W        W43625  37.377  22.175   1.829
79682W        W43626   0.864  12.121  11.106
79683W        W43627  26.180  23.010   2.788
79684W        W43628  31.951   8.682  10.561
79685W        W43629  25.194   2.350   0.264
79686W        W43630  22.731  41.317   3.704
79687W        W43631  20.737   9.375  13.448
79688W        W43632  36.445  29.436   1.245
79689W        W43633  32.976  13.207   4.142
79690W        W43634  30.017  25.561   0.821
79691W        W43635  13.322  35.532   3.273
79692W        W43636  16.721  21.753   4.658
79693W        W43637  28.679  24.515   0.423
79694W        W43638  31.493  19.775   4.725
79695W        W43639  20.106   3.301  10.487
79696W        W43640  13.311  21.240  10.893
79697W        W43641  30.529   2.758   1.275
79698W        W43642  16.648  11.632   4.187
79699W        W43643   6.425   7.380  11.064
79700W        W43644   8.715  30.116   2.373
79701W        W43645  33.572  25.139   0.384
79702W        W43646  32.908  11.755  10.559
79703W        W43647  21.521  11.654   3.199
79704W        W43648  37.957  10.742  10.443
79705W        W43649  30.516  17.235  13.538
79706W        W43650  32.466  11.800   0.300
79707W        W43651  39.826  31.136   0.875
79708W        W43652   4.888  15.107  13.981
79709W        W43653  12.292  13.342   1.887
79710W        W43654  14.209   0.432   5.765
79711W        W43655  26.129  22.504   2.228
79712W        W43656  27.611  14.638   5.767
79713W        W43657   0.986   5.393   3.303
79714W        W43658  38.437  30.989   0.726
79715W        W43659  35.573  23.734  12.453
79716W        W43660  10.258  40.884  14.976
79717W        W43661  33.486   9.263  14.946
79718W        W43662  34.523  34.945   1.779
79719W        W43663  35.421  32.018  14.343
79720W        W43664  23.493  11.782   1.448
79721W        W43665  36.084  25.088  11.504
79722W        W43666  30.550  29.109   4.613
79723W        W43667   5.330  40.404  14.423
79724W        W43668  11.345  32.445  13.387
79725W        W43669  20.697  43.916   2.358
79726W        W43670  38.954   7.327   1.295
79727W        W43671  24.193  11.277   3.220
79728W        W43672  33.589  38.961  10.001
79729W        W43673  42.463  23.645  11.604
79730W        W43674   0.844  30.435  13.334
79731W        W43675  10.259  41.536  11.935
79732W        W43676  12.352   3.301   0.925
79733W        W43677  28.471  21.687   3.643
79734W        W43678  17.183  14.276   0.269
79735W        W43679   8.736  12.316  12.411
79736W        W43680  19.585  40.000   0.738
79737W        W43681  12.695  30.420  13.477
79738W        W43682  32.126  31.425   1.806
79739W        W43683  21.706  13.162  11.034
79740W        W43684  35.861  32.894  11.903
79741W        W43685  39.405  39.826  10.638
79742W        W43686   0.305   9.324   0.746
79743W        W43687  17.231  43.443  13.416
79744W        W43688  41.516  12.120   3.160
79745W        W43689  20.665   6.315   0.966
79746W        W43690   2.325  20.132   1.884
79747W        W43691  17.623  32.119   0.477
79748W        W43692  29.436   7.733  14.885
79749W        W43693  32.447  25.208   0.381
79750W        W43694  38.457  10.333  11.029
79751W        W43695  26.126  43.809   0.374
79752W        W43696   1.757  11.658  10.619
79753W        W43697   9.719  10.292  14.475
79754W        W43698  10.870  10.667  11.922
79755W        W43699  11.279  10.814   3.669
79756W        W43700   6.333  37.915   1.862
79757W        W43701  41.003  41.845   2.903
79758W        W43702   9.293  28.446   0.450
79759W        W43703   5.346   1.857  14.794
79760W        W43704  27.138  38.436  14.950
79761W        W43705  37.852   2.846   1.929
79762W        W43706  35.370  44.813   0.761
79763W        W43707  41.882  21.133   2.816
79764W        W43708  16.207  30.077   4.625
79765W        W43709  22.557   5.787   0.378
79766W        W43710  30.056  43.817   4.603
79767W        W43711  11.746  23.615  10.154
79768W        W43712   2.843  35.518   2.841
79769W        W43713  18.699   6.795   2.327
79770W        W43714  11.710  24.982   1.217
79771W        W43715  36.982  34.463  10.577
79772W        W43716  11.371   6.354   4.802
79773W        W43717  39.502   4.827   0.958
79774W        W43718  24.608  37.390   3.378
79775W        W43719  16.154  38.365   2.717
79776W        W43720  26.202   7.714   2.281
79777W        W43721   4.798  28.998  14.340
79778W        W43722  12.341  10.873  12.900
79779W        W43723  37.568  41.886   5.187
79780W        W43724  39.860   1.742  13.840
79781W        W43725  11.698  34.613   3.249
79782W        W43726  16.234  22.709   4.132
79783W        W43727  37.928   1.834   0.459
79784W        W43728   1.373   8.213  14.939
79785W        W43729  14.302  13.178  11.570
79786W        W43730  30.625  14.319   4.678
79787W        W43731   5.904  10.674   3.359
79788W        W43732  39.001  18.241   9.974
79789W        W43733  22.100  44.923  11.527
79790W        W43734  35.957  20.559   2.843
79791W        W43735  10.334  30.647  12.498
79792W        W43736  31.953  38.997   2.296
79793W        W43737  33.080  32.430  12.479
79794W        W43738   8.748   2.342  14.279
79795W        W43739  19.612  30.653  13.872
79796W        W43740  18.149  43.787   2.387
79797W        W43741  10.790   0.957   4.696
79798W        W43742  41.505   5.198  12.937
79799W        W43743  37.893  10.713   2.706
79800W        W43744  44.961   7.370  10.462
79801W        W43745  33.070  31.498   4.196
79802W        W43746  26.601   2.918   0.779
79803W        W43747  36.909  10.663   0.293
79804W        W43748   9.340  25.972   0.731
79805W        W43749  36.584  27.195  14.010
79806W        W43750  37.889   7.263  13.903
79807W        W43751  23.512  27.064   1.212
79808W        W43752   3.226  17.114   3.637
79809W        W43753  14.119   1.974   2.314
79810W        W43754  40.414   9.725   2.305
79811W        W43755  28.542  14.807  10.069
79812W        W43756  31.104  22.704   4.767
79813W        W43757  35.561  34.414   2.253
79814W        W43758   0.414  27.145  11.597
79815W        W43759   2.773  27.523   4.617
79816W        W43760  23.568   3.851  14.002
79817W        W43761  38.990   0.403   4.691
79818W        W43762   6.356  20.546   3.219
79819W        W43763  27.992  12.276  10.522
79820W        W43764   9.217  26.469  10.427
79821W        W43765  16.254  19.063  11.542
79822W        W43766  38.334  38.915  12.005
79823W        W43767  37.956  30.068  11.915
79824W        W43768  17.092  16.577   4.294
79825W        W43769  18.646  23.593   3.712
79826W        W43770   4.944  13.646  13.364
79827W        W43771   6.916  28.511   4.316
79828W        W43772  40.032   9.644  12.444
79829W        W43773  28.030  10.184  11.954
79830W        W43774  15.713  44.789   2.801
79831W        W43775  19.776  17.168  11.489
79832W        W43776  24.111  44.870  14.505
79833W        W43777  10.151  41.367   9.968
79834W        W43778  13.658  41.338   4.761
79835W        W43779  31.919   0.347   1.246
79836W        W43780  42.909  20.243  11.912
79837W        W43781  29.468  43.398  14.784
79838W        W43782  42.832  39.940  12.041
79839W        W43783  14.774  11.811   2.197
79840W        W43784  15.648  36.545  13.526
79841W        W43785  23.228  24.108  11.475
79842W        W43786  28.560  41.849  10.045
79843W        W43787  15.114  27.970  10.456
79844W        W43788  20.053  15.798   2.661
79845W        W43789  10.194  10.328  10.953
79846W        W43790  17.707   3.793   4.139
79847W        W43791  15.630  27.572  14.807
79848W        W43792  14.794  42.388  12.569
79849W        W43793  28.481  38.329  10.430
79850W        W43794  32.461   8.744   0.459
79851W        W43795  24.548  38.366  11.858
79852W        W43796  37.517  14.226   2.694
79853W        W43797  25.574  39.351   0.426
79854W        W43798   7.753  15.650   9.974
79855W        W43799  23.582  30.073   3.800
79856W        W43800  32.461  36.988  14.975
79857W        W43801  11.219  39.951  14.977
79858W        W43802  32.518  33.572  13.463
79859W        W43803  43.966  22.073  14.299
79860W        W43804   7.182  32.082  13.429
79861W        W43805   0.814   9.852   0.350
79862W        W43806   4.878  35.373   4.184
79863W        W43807   5.259  15.329   1.338
79864W        W43808   2.316  34.400   4.226
79865W        W43809   8.795  28.044   2.236
79866W        W43810  13.114   1.330  11.481
79867W        W43811  44.331  25.208  11.474
79868W        W43812   2.812  15.105  13.391
79869W        W43813  40.938   2.810  12.482
79870W        W43814  36.567   0.292   0.818
79871W        W43815  27.014  40.451   0.322
79872W        W43816  30.442  10.740  11.012
79873W        W43817  39.015   7.374  11.425
79874W        W43818   3.856  38.520  12.930
79875W        W43819  43.907  25.468   2.189
79876W        W43820   2.781  32.445   1.414
79877W        W43821  41.406  25.105   1.360
79878W        W43822  44.338   7.742   3.364
79879W        W43823   8.880  39.817   9.991
79880W        W43824  27.987  23.218  11.932
79881W        W43825  31.510  41.888  10.984
79882W        W43826  35.480  26.563  10.589
79883W        W43827   4.348  43.424   2.671
79884W        W43828   7.812  31.148  12.409
79885W        W43829  34.896  42.866   1.864
79886W        W43830  28.613  32.984   1.762
79887W        W43831  37.567   4.708  10.575
79888W        W43832   9.173  11.301   1.301
79889W        W43833   2.881   9.290  13.924
79890W        W43834  27.507  23.154  14.493
79891W        W43835  34.462  43.921  12.869
79892W        W43836  42.282  14.712   4.687
79893W        W43837  37.340  17.163   3.656
79894W        W43838  24.212  18.125  14.817
79895W        W43839   0.853  18.223  12.035
79896W        W43840   0.930   3.735   2.287
79897W        W43841   0.839  19.593  12.021
79898W        W43842  33.474  24.013   1.901
79899W        W43843  27.000  16.602  10.481
79900W        W43844   3.420  44.981   2.281
79901W        W43845  39.028   5.233  11.540
79902W        W43846  21.018  39.039   3.771
79903W        W43847  33.466  23.732  10.022
79904W        W43848   5.866  30.951   1.359
79905W        W43849  41.992  27.499  11.401
79906W        W43850  44.846  33.521   0.291
79907W        W43851  18.219  19.254  10.480
79908W        W43852   1.455  12.736   4.660
79909W        W43853  22.186  34.880  10.465
79910W        W43854  32.109  12.203   4.173
79911W        W43855  31.640   6.678  14.828
79912W        W43856  34.895  31.509   4.326
79913W        W43857  20.241  11.177  12.977
79914W        W43858  23.534  19.241  12.007
79915W        W43859   3.376   2.958  11.912
79916W        W43860  15.724  19.711   3.211
79917W        W43861  42.513  17.756   0.901
79918W        W43862   2.274   5.315  10.044
79919W        W43863  20.522  41.428   1.325
79920W        W43864  16.168  36.968  11.996
79921W        W43865  23.138  32.606  13.418
79922W        W43866  16.747   7.296   2.344
79923W        W43867   3.392  39.886  14.834
79924W        W43868  14.244   0.757  11.017
79925W        W43869  25.968  42.016   5.188
79926W        W43870  42.303  42.821  14.956
79927W        W43871  33.943   1.427  10.470
79928W        W43872  34.885  35.010  13.442
79929W        W43873  26.958  31.473   2.704
79930W        W43874  13.737  28.049  14.822
79931W        W43875  31.974   5.846   4.340
79932W        W43876  29.090  36.916   2.291
79933W        W43877  18.673  28.056  14.816
79934W        W43878  38.056  14.717   2.306
79935W        W43879   3.410  13.270  13.027
79936W        W43880  35.853   2.398   4.811
79937W        W43881  24.650  15.809   0.333
79938W        W43882  20.674   0.354  12.571
79939W        W43883   4.700  25.665  13.505
79940W        W43884  13.703  35.446   4.240
79941W        W43885   4.757  37.993   0.939
79942W        W43886  40.942  44.846   3.669
79943W        W43887  11.273  26.187   1.271
79944W        W43888  39.375  22.139  10.988
79945W        W43889  26.063  40.327  10.442
79946W        W43890  13.842  30.935   0.355
79947W        W43891   1.298  20.146   2.219
79948W        W43892  15.784  32.485   2.827
79949W        W43893  26.968  23.493   0.259
79950W        W43894  17.305   9.771  12.351
79951W        W43895  14.221  20.731  11.460
79952W        W43896   8.348  26.566   4.153
79953W        W43897  42.933  38.069  10.995
79954W        W43898  37.020   8.208  11.603
79955W        W43899  26.596  15.247  12.461
79956W        W43900  39.938  20.171   2.277
79957W        W43901  35.882  36.551   4.710
79958W        W43902  22.672  26.642   3.817
79959W        W43903   3.728  41.815   0.390
79960W        W43904   4.410   6.828   0.871
79961W        W43905  22.635   6.839   0.334
79962W        W43906  42.866   4.223   3.241
79963W        W43907  35.455  38.493   3.833
79964W        W43908  38.831  17.137  13.798
79965W        W43909  42.791  36.881  11.548
79966W        W43910  20.559  15.273  14.291
79967W        W43911  44.800   1.395  13.876
79968W        W43912  28.589  23.227   0.733
79969W        W43913  14.213  20.264  13.005
79970W        W43914   7.211  37.038   0.290
79971W        W43915  31.540   9.759   4.665
79972W        W43916  21.551   4.394   3.793
79973W        W43917  38.568  25.177   1.802
79974W        W43918  23.177  26.126  12.449
79975W        W43919  20.040  28.004  10.085
79976W        W43920   9.658   3.858   3.838
79977W        W43921  27.151  42.290  13.924
79978W        W43922  23.049   8.834   1.864
79979W        W43923  33.411  35.565  10.516
79980W        W43924  32.942  20.054  14.983
79981W        W43925  33.608  34.956  13.861
79982W        W43926  12.224  32.506  12.452
79983W        W43927  15.580  43.977  11.106
79984W        W43928  41.938  40.837  14.778
79985W        W43929  41.858  28.493  11.946
79986W        W43930  10.354  25.647  11.517
79987W        W43931  31.614   7.853  14.424
79988W        W43932  20.550  41.385   0.386
79989W        W43933  36.374  19.043  13.424
79990W        W43934  19.561  20.160  12.409
79991W        W43935  22.150  22.524  14.976
79992W        W43936  23.636  33.508  12.502
79993W        W43937  21.097   6.738  11.571
79994W        W43938  15.776  27.137   3.252
79995W        W43939  16.743  15.614   3.219
79996W        W43940  12.350  15.609   5.182
79997W        W43941  33.989   6.690   0.438
79998W        W43942  15.139   1.766  12.026
79999W        W43943  16.580  13.245   0.269
80000W        W43944  10.700  15.651   2.779
80001W        W43945  24.011  32.045   2.416
80002W        W43946  25.581  21.187   9.947
80003W        W43947  29.946  16.204   3.784
80004W        W43948  40.442   6.220   1.853
80005W        W43949   5.780  17.618   3.186
80006W        W43950  13.231  35.460  13.515
80007W        W43951  29.665   0.406   3.232
80008W        W43952  14.101   1.835  12.035
80009W        W43953  20.682  11.847   1.760
80010W        W43954   5.340   0.470  13.508
80011W        W43955   4.753  22.676  10.554
80012W        W43956  13.301  12.717  11.963
80013W        W43957  27.456  18.079   2.215
80014W        W43958  35.979  17.088   3.855
80015W        W43959  16.602  12.786   4.783
80016W        W43960  33.505  33.508   0.771
80017W        W43961  34.383   7.379  14.443
80018W        W43962  16.301  18.285  12.843
80019W        W43963  11.316  27.195   3.204
80020W        W43964  21.556  12.612   4.783
80021W        W43965   7.329  17.142  14.904
80022W        W43966   6.920  23.626  11.968
80023W        W43967   7.836   2.810  13.902
80024W        W43968  15.223  36.541   0.779
80025W        W43969  43.837   0.286   4.315
80026W        W43970  26.686  12.214   0.927
80027W        W43971  17.573  30.534   3.294
80028W        W43972  13.219  31.512   2.268
80029W        W43973   3.290  40.894  11.464
80030W        W43974  25.699  21.020   3.839
80031W        W43975  13.323   8.400  13.875
80032W        W43976  26.081   3.941   0.941
80033W        W43977  37.061  15.142   1.752
80034W        W43978  23.509  43.865  10.558
80035W        W43979   0.277  23.008   0.422
80036W        W43980  34.902  31.606  14.994
80037W        W43981   9.795  19.579  10.965
80038W        W43982  31.506   6.701   1.354
80039W        W43983  14.749  34.027   3.769
80040W        W43984   5.284   1.970  11.104
80041W        W43985  34.918   8.162  12.943
80042W        W43986  17.080  11.290  10.044
80043W        W43987  17.792   0.307   0.386
80044W        W43988   1.795   6.750   4.260
80045W        W43989  29.165   6.912  11.020
80046W        W43990  29.498  16.256  13.010
80047W        W43991   8.879  26.116  11.885
80048W        W43992  24.578  17.585   0.851
80049W        W43993  29.501  32.448  12.477
80050W        W43994  32.961   9.737   1.820
80051W        W43995  34.949  35.931   3.350
80052W        W43996  16.219  34.922  12.448
80053W        W43997  26.519  16.113   1.696
80054W        W43998  25.545  34.921   0.803
80055W        W43999  43.425  28.623  14.759
80056W        W44000  38.833   0.905   5.140
80057W        W44001  29.652  24.582   2.279
80058W        W44002  29.052   1.880  11.097
80059W        W44003  34.093  31.931  11.089
80060W        W44004  18.671  32.435  11.521
80061W        W44005  39.978  26.498   1.406
80062W        W44006   5.809  35.911  12.483
80063W        W44007  35.056  24.702   4.824
80064W        W44008   0.481  26.168  14.838
80065W        W44009  26.070  23.533   1.330
80066W        W44010  36.871  26.164  14.995
80067W        W44011  23.495  17.750  14.001
80068W        W44012   7.311   0.921   4.297
80069W        W44013  10.649  35.520   1.881
80070W        W44014  11.133  40.446  13.902
80071W        W44015  33.408  23.238  13.845
80072W        W44016  23.662  12.844   4.712
80073W        W44017   2.443  35.966   3.825
80074W        W44018  38.542  24.577  13.958
80075W        W44019   0.463  34.883   1.764
80076W        W44020   7.857  17.618   5.101
80077W        W44021  13.794  26.202   2.850
80078W        W44022  30.430  10.247  14.373
80079W        W44023  39.045  15.672   3.856
80080W        W44024  21.236  19.634  11.973
80081W        W44025   3.286  26.026   3.634
80082W        W44026   2.740   9.165  14.979
80083W        W44027  28.031   6.285  12.356
80084W        W44028  25.197  31.128  13.886
80085W        W44029  16.096  43.280  11.988
80086W        W44030  33.892   5.421  13.064
80087W        W44031  10.854  41.410   3.375
80088W        W44032  17.269   7.822   2.380
80089W        W44033  12.715  28.022   2.680
80090W        W44034   0.881  13.139  11.955
80091W        W44035  16.225   3.369  10.914
80092W        W44036  27.055  37.431  13.931
80093W        W44037  29.480  19.084  14.320
80094W        W44038  33.481  11.839  12.348
80095W        W44039  44.828  11.254  14.983
80096W        W44040   8.387  28.159  11.395
80097W        W44041  11.651  15.274   0.333
80098W        W44042  32.929  23.717   3.168
80099W        W44043  43.802  21.662   3.845
80100W        W44044   4.332  34.396   3.278
80101W        W44045  30.107  38.400  13.941
80102W        W44046  10.326  15.821   0.467
80103W        W44047   5.751  37.993   4.617
80104W        W44048  42.803  18.082  13.394
80105W        W44049  11.157  27.579   5.156
80106W        W44050   7.700  25.963  12.899
80107W        W44051  13.342  37.906  12.493
80108W        W44052  18.577  17.153   3.207
80109W        W44053  35.455  42.973   0.830
80110W        W44054  21.587  20.559   1.276
80111W        W44055  35.103   5.857   0.875
80112W        W44056  34.115   9.271  14.480
80113W        W44057  18.647  24.612  13.817
80114W        W44058  16.090   8.369   0.859
80115W        W44059  30.612   1.457   2.790
80116W        W44060  34.440  41.313  13.926
80117W        W44061   2.376   7.681   2.294
80118W        W44062  37.866  20.671   2.686
80119W        W44063  10.817   9.222  14.373
80120W        W44064  18.145   6.188   3.230
80121W        W44065  37.359  26.089  13.537
80122W        W44066  20.553  30.592   0.907
80123W        W44067  39.491  32.998   0.802
80124W        W44068   5.334  31.625   0.325
80125W        W44069  40.016  13.774  14.502
80126W        W44070  37.890   1.945  14.984
80127W        W44071  35.358  18.135   3.272
80128W        W44072  32.427  19.568  13.325
80129W        W44073   4.815  21.723   2.405
80130W        W44074  20.570  40.371  10.892
80131W        W44075  21.234  43.497   3.632
80132W        W44076  10.761   4.751   3.698
80133W        W44077  36.987   4.291  12.529
80134W        W44078  32.546  17.792  14.400
80135W        W44079  28.160  43.859   2.272
80136W        W44080  39.514   8.250  11.019
80137W        W44081  40.355  25.043  12.004
80138W        W44082  11.643   5.896   2.252
80139W        W44083   7.720  14.779  13.964
80140W        W44084  10.208   9.347   5.157
80141W        W44085   3.872  43.771  14.937
80142W        W44086  43.794  32.513   1.861
80143W        W44087  22.606  35.082   0.782
80144W        W44088  18.182  38.352  12.910
80145W        W44089   6.359  22.143   3.317
80146W        W44090  33.068  43.397   0.859
80147W        W44091  21.563  16.583  14.852
80148W        W44092  30.514   6.684   0.886
80149W        W44093  12.220   5.751   4.730
80150W        W44094   1.414  19.076  11.873
80151W        W44095  31.999  25.676  12.925
80152W        W44096  10.360  12.664   0.450
80153W        W44097   8.672  43.450  13.842
80154W        W44098  42.814  27.141  11.859
80155W        W44099  32.624  40.933  11.055
80156W        W44100   3.368  43.506   2.812
80157W        W44101  32.623  26.123  12.836
80158W        W44102  13.813  14.661   3.835
80159W        W44103  41.010  32.402  12.068
80160W        W44104  25.503  41.836  13.434
80161W        W44105  19.570  40.943   0.942
80162W        W44106  28.636  14.330  14.456
80163W        W44107   0.986  14.275   0.420
80164W        W44108  34.491  30.988  13.460
80165W        W44109   4.732  22.630   1.317
80166W        W44110  40.865   1.329   3.688
80167W        W44111  14.312   5.311   3.834
80168W        W44112  35.088   6.689   2.847
80169W        W44113  38.075  41.798  11.477
80170W        W44114  29.437  10.767  13.521
80171W        W44115  12.168  11.322   4.713
80172W        W44116  37.410  33.383  11.997
80173W        W44117  25.164  32.037  14.001
80174W        W44118   2.362   1.300   1.378
80175W        W44119  16.203   0.753   4.336
80176W        W44120  40.362  31.475  11.126
80177W        W44121  30.552  27.691  11.039
80178W        W44122  44.916   5.440  14.279
80179W        W44123  17.229   1.760  10.426
80180W        W44124  30.629   3.379  13.325
80181W        W44125  17.258  11.650  14.464
80182W        W44126  32.026  43.907  14.316
80183W        W44127  41.472  41.817  12.437
80184W        W44128  25.125  38.377  10.979
80185W        W44129  17.195  21.541  12.852
80186W        W44130   3.424  33.114  12.390
80187W        W44131  44.942  20.748  13.977
80188W        W44132  13.721  18.552  11.094
80189W        W44133   9.191  10.709   2.713
80190W        W44134   0.927  10.295   5.173
80191W        W44135  24.588   4.235   1.396
80192W        W44136  14.628   2.794   0.422
80193W        W44137   4.795   8.710  13.477
80194W        W44138  23.220  21.226   3.383
80195W        W44139   8.697   0.833   0.422
80196W        W44140  36.856  13.165   4.132
80197W        W44141  40.525   2.382  13.519
80198W        W44142  31.929   5.248   0.764
80199W        W44143  17.144  14.729   4.118
80200W        W44144  32.637  33.476  12.913
80201W        W44145  40.496  12.242  11.958
80202W        W44146  31.129   8.169   0.313
80203W        W44147  32.098  31.620  12.919
80204W        W44148  29.999   5.729  11.877
80205W        W44149   0.330  37.453  12.990
80206W        W44150  44.322  23.069  12.974
80207W        W44151  30.977  20.720   2.312
80208W        W44152   4.331   4.300   9.453
80209W        W44153  37.513   9.338  13.907
80210W        W44154  13.681   1.335  12.012
80211W        W44155  35.598  36.451  13.463
80212W        W44156   5.299  30.052  12.549
80213W        W44157   0.402  21.164  12.469
80214W        W44158  10.712  16.790   2.682
80215W        W44159  15.150  26.647   1.696
80216W        W44160  31.633  36.871  13.952
80217W        W44161  24.996   8.828  14.408
80218W        W44162  23.104  35.980  14.496
80219W        W44163  29.961  19.588  13.406
80220W        W44164  40.307  20.074   2.783
80221W        W44165  30.457  30.111  14.313
80222W        W44166   1.748  12.214   0.866
80223W        W44167  31.129  14.719   2.416
80224W        W44168  21.751  33.080   3.345
80225W        W44169  24.524  42.981  14.760
80226W        W44170   0.962  22.232  11.003
80227W        W44171  13.608   4.916   2.889
80228W        W44172   1.967   5.722  14.359
80229W        W44173  11.833  37.437   0.296
80230W        W44174  10.378  20.083   3.365
80231W        W44175  35.047  32.919  13.000
80232W        W44176  13.220  39.421   0.400
80233W        W44177  20.241  20.684   1.909
80234W        W44178  10.830   0.413   3.722
80235W        W44179  27.595  30.976  11.585
80236W        W44180   3.408  37.025  11.579
80237W        W44181  23.134  43.979  13.540
80238W        W44182  17.654   8.256  11.094
80239W        W44183  33.473  11.805  14.471
80240W        W44184   2.897  28.571   1.876
80241W        W44185  19.599  12.196   3.694
80242W        W44186   0.276  21.249   3.219
80243W        W44187  20.563  27.012  13.469
80244W        W44188  39.898  12.247   1.390
80245W        W44189  40.486   2.727   3.359
80246W        W44190  35.040  39.477  14.433
80247W        W44191  24.128  16.566  13.974
80248W        W44192  39.339   5.795  10.408
80249W        W44193  10.180  31.549  10.536
80250W        W44194  41.838   7.796  11.463
80251W        W44195  11.715  13.716  11.424
80252W        W44196  14.098  24.976  14.927
80253W        W44197  37.528  35.410   4.243
80254W        W44198  33.999  14.174  14.800
80255W        W44199  35.580  29.922   2.286
80256W        W44200  11.248  22.690  12.943
80257W        W44201  41.829  35.053  13.897
80258W        W44202   8.849  44.840  11.955
80259W        W44203  39.400  22.008  12.031
80260W        W44204  14.827  22.168   3.854
80261W        W44205  13.335  24.015   0.286
80262W        W44206  26.050  44.765  12.844
80263W        W44207  28.494  23.734   3.316
80264W        W44208  40.992  35.010  14.014
80265W        W44209  25.677  29.574  13.939
80266W        W44210  21.050  26.520   0.792
80267W        W44211  11.786  26.653  14.792
80268W        W44212   5.859  18.678  13.342
80269W        W44213  44.777  38.867   4.327
80270W        W44214  33.976  15.736  11.501
80271W        W44215  20.531   5.417  13.903
80272W        W44216   4.312   7.306  11.972
80273W        W44217  14.245  38.456   3.853
80274W        W44218   6.808  14.325   4.236
80275W        W44219  16.174  14.242   1.825
80276W        W44220  10.358  44.393  13.914
80277W        W44221  26.156   4.285  13.395
80278W        W44222  18.562  14.771   1.331
80279W        W44223  10.261  27.941  12.357
80280W        W44224  34.398  35.372  10.952
80281W        W44225  15.292  11.230  12.088
80282W        W44226   5.796  17.759   0.884
80283W        W44227  22.511  41.935  13.851
80284W        W44228   0.468  38.512  13.801
80285W        W44229  37.849  27.449   4.269
80286W        W44230  28.588  15.788   9.607
80287W        W44231   7.278  28.112  14.967
80288W        W44232  38.030  42.472   3.676
80289W        W44233  43.465  29.531  10.575
80290W        W44234   2.366  17.102   3.825
80291W        W44235   8.746  19.623   0.320
80292W        W44236   4.334  28.591  14.932
80293W        W44237  41.959  32.936  13.901
80294W        W44238  33.906  20.584  12.077
80295W        W44239  17.616  17.697   3.828
80296W        W44240  39.043  34.082   3.853
80297W        W44241  19.187  30.081  11.036
80298W        W44242  23.217  22.058   4.149
80299W        W44243  13.806   1.894   3.274
80300W        W44244   0.833  19.546  10.903
80301W        W44245  24.581  25.504  13.444
80302W        W44246  25.166  38.507  12.480
80303W        W44247  37.529  14.223  10.638
80304W        W44248  21.177  34.042  10.923
80305W        W44249  37.996  33.478   4.157
80306W        W44250   0.871  44.453  12.022
80307W        W44251  36.846  12.681   0.318
80308W        W44252   2.851  18.657  12.893
80309W        W44253  31.459  13.153   2.759
80310W        W44254   0.764  16.634   0.762
80311W        W44255  26.469   9.160   3.285
80312W        W44256  28.588   6.418   0.352
80313W        W44257   3.378  28.480  12.017
80314W        W44258   6.353  31.923   5.207
80315W        W44259  36.880   0.435   0.931
80316W        W44260  32.444  24.598  11.081
80317W        W44261  30.574  44.778   3.821
80318W        W44262  38.382  10.863   0.373
80319W        W44263  20.611  12.655   2.260
80320W        W44264  30.594   0.841   1.354
80321W        W44265  31.046  13.688   2.250
80322W        W44266  18.741   8.764  12.522
80323W        W44267  44.806  44.929   2.234
80324W        W44268  42.865  29.946   0.839
80325W        W44269  22.625  11.710   4.243
80326W        W44270   1.430  11.281   4.605
80327W        W44271  21.685  12.766  11.470
80328W        W44272   3.943   8.842  12.048
80329W        W44273   9.750  42.820   1.292
80330W        W44274  29.073  42.877   0.922
80331W        W44275   5.779   6.686   1.732
80332W        W44276  20.714  31.456   1.707
80333W        W44277  34.443  35.526  13.528
80334W        W44278  13.779  34.945   3.192
80335W        W44279  26.169  24.129   2.308
80336W        W44280  31.066  42.350  12.062
80337W        W44281  14.111  15.620  10.597
80338W        W44282  22.634  13.129  11.944
80339W        W44283   2.287  16.149   0.333
80340W        W44284  22.685  38.330  13.858
80341W        W44285   6.718   3.223   3.723
80342W        W44286  42.933  10.381   2.803
80343W        W44287  28.663  21.690  10.519
80344W        W44288  26.177  21.622  13.405
80345W        W44289   4.301  10.177   2.229
80346W        W44290   9.372  40.891   1.740
80347W        W44291   6.338   9.681   0.844
80348W        W44292  21.249  40.410   0.303
80349W        W44293  19.142  41.859  10.953
80350W        W44294  30.590  35.940   0.862
80351W        W44295  20.579   8.243  14.918
80352W        W44296  35.011  30.917   2.674
80353W        W44297  18.158  39.428  10.478
80354W        W44298  42.313  41.885   0.447
80355W        W44299  12.839  38.564  11.090
80356W        W44300  38.351  31.517   3.342
80357W        W44301  33.396  26.122   2.387
80358W        W44302  33.958   2.878   3.701
80359W        W44303  15.814   7.405  12.870
80360W        W44304   9.392  23.715   4.253
80361W        W44305   1.854   4.280   4.682
80362W        W44306  22.217  43.417  12.556
80363W        W44307  33.086  11.794   2.363
80364W        W44308   5.260  37.074  11.081
80365W        W44309  35.107  24.624  13.916
80366W        W44310  36.921   5.708   1.255
80367W        W44311  35.073  42.830   4.344
80368W        W44312   3.742  31.081   2.878
80369W        W44313  31.521  10.756  13.900
80370W        W44314  27.602   2.303  11.933
80371W        W44315  31.133   8.814   5.096
80372W        W44316  23.690   0.484  13.923
80373W        W44317  43.889  23.051  12.069
80374W        W44318  24.113  11.821   3.867
80375W        W44319   8.892   2.435   0.947
80376W        W44320   0.308  41.447  12.472
80377W        W44321  10.741  37.048  10.641
80378W        W44322   3.742  36.360  14.436
80379W        W44323  18.144  29.512   0.967
80380W        W44324  29.520   8.382  11.551
80381W        W44325  23.038  30.162  11.562
80382W        W44326  15.208  10.342   3.849
80383W        W44327  38.878  13.181   3.282
80384W        W44328   3.873  35.532  14.024
80385W        W44329   8.248  21.611  11.945
80386W        W44330  36.901   2.435  13.456
80387W        W44331  14.689   8.395  11.468
80388W        W44332  28.119  40.011   4.171
80389W        W44333  43.780  13.345   2.848
80390W        W44334  35.032  17.086  10.435
80391W        W44335   9.167  24.083  14.319
80392W        W44336  37.919  17.678  14.796
80393W        W44337   1.749  36.883  11.050
80394W        W44338   4.755  22.746   4.314
80395W        W44339  20.574  21.719  13.875
80396W        W44340  26.055  36.904   4.223
80397W        W44341  12.693   2.859  14.865
80398W        W44342  27.657  16.690   0.262
80399W        W44343  34.094  38.548  12.565
80400W        W44344  20.669  16.271   3.350
80401W        W44345  18.226  19.587  10.888
80402W        W44346  17.242  10.271   0.386
80403W        W44347  29.429  31.090  11.450
80404W        W44348  36.959  30.478   2.685
80405W        W44349  29.654  28.676  11.047
80406W        W44350   7.718   7.222   2.731
80407W        W44351  19.049  34.988  13.404
80408W        W44352   0.829  41.878   1.216
80409W        W44353  23.003   7.738  12.453
80410W        W44354  35.437  44.427   2.890
80411W        W44355  21.101  42.282  12.067
80412W        W44356  19.092  41.376   0.843
80413W        W44357  26.672  17.108   0.268
80414W        W44358  37.955  25.122  13.022
80415W        W44359   3.390  29.502   3.807
80416W        W44360  43.319  22.010   3.328
80417W        W44361  30.922  23.723   1.427
80418W        W44362   9.315   2.267  11.478
80419W        W44363  12.754  35.423   0.399
80420W        W44364  14.327   3.433  12.508
80421W        W44365  15.225  41.318   2.295
80422W        W44366  39.416  32.905  13.972
80423W        W44367  30.933  21.704   1.874
80424W        W44368  29.929  37.388  14.974
80425W        W44369  16.742  38.893  14.972
80426W        W44370  20.262  42.425  13.518
80427W        W44371  29.136  42.355   2.218
80428W        W44372  29.173  41.940  12.433
80429W        W44373  26.207  39.030  11.467
80430W        W44374  30.030  21.652  12.454
80431W        W44375  39.959  39.905   3.827
80432W        W44376  34.486  20.240   4.200
80433W        W44377  26.042  15.589  11.997
80434W        W44378  30.526  21.237  13.309
80435W        W44379  36.866  40.451   4.787
80436W        W44380  41.522  31.971  11.387
80437W        W44381  33.011  36.955  12.968
80438W        W44382   5.701  27.004   1.752
80439W        W44383  14.157  11.139  11.417
80440W        W44384  26.533   2.427  12.402
80441W        W44385   6.782  43.776  12.831
80442W        W44386  13.208  23.570   4.663
80443W        W44387  33.968  20.571  12.893
80444W        W44388  31.614  32.136  11.385
80445W        W44389  22.206  32.546   1.746
80446W        W44390  19.734  13.324  13.498
80447W        W44391  37.055  22.126  10.588
80448W        W44392  30.114  33.930   4.628
80449W        W44393  32.888  25.617   4.613
80450W        W44394  18.722  41.863   1.768
80451W        W44395  41.353   6.720  11.566
80452W        W44396  39.496  44.455  12.394
80453W        W44397  43.365  42.969  11.011
80454W        W44398  37.965  13.792   3.637
80455W        W44399  34.495  44.766  11.457
80456W        W44400  41.454  17.221   0.354
80457W        W44401  32.074  36.086  10.019
80458W        W44402  25.483   9.364   4.269
80459W        W44403  13.725  41.792   1.398
80460W        W44404  12.669  41.463  14.346
80461W        W44405  38.998  29.976  12.080
80462W        W44406  18.114  34.901   1.397
80463W        W44407  12.706   2.894  12.838
80464W        W44408  15.607   6.352  12.435
80465W        W44409   7.785  18.739  13.037
80466W        W44410  10.152   5.430   1.386
80467W        W44411   8.343  10.636  14.968
80468W        W44412  15.697  19.686   2.761
80469W        W44413  19.653  15.236   0.431
80470W        W44414  10.722  16.578  13.943
80471W        W44415  41.362  27.459   3.252
80472W        W44416  38.906   2.753  12.394
80473W        W44417   8.822  35.578   1.357
80474W        W44418  10.175   7.792   3.806
80475W        W44419  15.192  20.540  12.564
80476W        W44420   5.774   5.320   0.278
80477W        W44421  14.194  18.180   3.282
80478W        W44422  30.654  28.931   0.480
80479W        W44423  34.439  37.524   2.817
80480W        W44424  34.991  11.824   0.964
80481W        W44425  37.834  33.411  12.541
80482W        W44426  28.557  42.805  10.532
80483W        W44427  32.911  34.459   0.857
80484W        W44428  20.709  23.721  13.849
80485W        W44429  43.443  32.633  10.891
80486W        W44430  11.198  16.809  10.414
80487W        W44431  39.479  31.091   4.166
80488W        W44432  26.479  38.858  11.598
80489W        W44433  33.076   9.838   0.415
80490W        W44434  11.315  32.021  13.964
80491W        W44435  39.332  42.343  14.308
80492W        W44436  31.464  27.160   1.848
80493W        W44437  22.137  19.541   2.836
80494W        W44438   6.896   3.937  13.064
80495W        W44439  32.603  17.678  14.972
80496W        W44440  35.044  43.995  11.413
80497W        W44441   8.886  27.539   1.795
80498W        W44442  13.797   5.924  14.813
80499W        W44443  17.767   2.862  13.508
80500W        W44444  29.148  34.526   4.771
80501W        W44445   9.864  35.413  11.442
80502W        W44446  29.446   5.899   1.418
80503W        W44447  16.192   4.449   1.213
80504W        W44448   7.213  27.175   0.903
80505W        W44449  13.641  12.234   1.361
80506W        W44450   0.289  41.470  13.471
80507W        W44451  10.856   3.237   3.374
80508W        W44452  42.023  10.838   0.438
80509W        W44453  37.039  29.426   0.913
80510W        W44454  25.475   0.338  11.006
80511W        W44455   1.962  17.244   2.842
80512W        W44456  13.646   0.316  12.008
80513W        W44457  28.665  36.903  13.427
80514W        W44458  25.689  13.324   4.282
80515W        W44459  39.882  33.021  11.596
80516W        W44460  44.343   7.181  11.983
80517W        W44461  42.011   4.240   1.424
80518W        W44462  32.636  20.666   2.327
80519W        W44463  43.884  21.705  14.485
80520W        W44464  34.523  18.662  11.384
80521W        W44465   4.370  25.203   0.818
80522W        W44466   6.345  21.603   2.416
80523W        W44467   6.410  16.121  10.918
80524W        W44468  24.570  34.909   1.730
80525W        W44469  20.169  27.619  12.956
80526W        W44470  31.632  36.867  14.478
80527W        W44471  18.128  20.691   4.338
80528W        W44472   4.297  18.767  11.425
80529W        W44473  27.449  33.102   2.742
80530W        W44474  26.197  28.598   4.759
80531W        W44475  32.415   0.429   4.286
80532W        W44476  16.239  36.554   2.703
80533W        W44477  37.978  16.279   3.817
80534W        W44478  38.453  19.163  11.485
80535W        W44479  20.070  40.466   4.618
80536W        W44480  19.663  16.666  10.544
80537W        W44481  36.027  36.459  10.546
80538W        W44482  19.678   1.908   4.835
80539W        W44483   7.234  35.559  11.068
80540W        W44484  18.281   6.377  13.407
80541W        W44485   1.814  10.825  11.910
80542W        W44486  27.561  27.687   1.413
80543W        W44487  21.039   0.320   2.338
80544W        W44488  22.146  22.021  10.641
80545W        W44489  33.933  12.250   3.668
80546W        W44490  19.105  10.767  14.358
80547W        W44491  44.458   4.207   0.792
80548W        W44492  15.257  42.469  11.603
80549W        W44493   0.248  15.193   2.883
80550W        W44494  41.940  13.155   0.431
80551W        W44495  41.927  38.035   0.856
80552W        W44496  25.031  19.065   1.233
80553W        W44497  13.792  20.226   1.848
80554W        W44498  10.144  18.604   2.240
80555W        W44499  34.410  11.313  12.528
80556W        W44500  35.483   7.342   4.184
80557W        W44501  14.601  42.311  10.937
80558W        W44502  33.986  30.611   1.730
80559W        W44503   4.749  44.290  11.065
80560W        W44504  15.632   2.351  12.446
80561W        W44505   7.318   5.747   4.136
80562W        W44506   3.721  15.809   2.187
80563W        W44507  42.335  43.838   0.419
80564W        W44508   6.772  13.809   0.417
80565W        W44509   5.199  30.593  11.096
80566W        W44510  27.114  30.011   0.902
80567W        W44511  40.363   6.779   2.268
80568W        W44512   7.683  40.934  14.875
80569W        W44513  23.542  30.019  11.980
80570W        W44514  35.017  21.711   2.662
80571W        W44515  41.887  34.381  10.627
80572W        W44516  17.209  35.940   4.162
80573W        W44517  22.108  35.099  14.872
80574W        W44518  24.146  11.755  11.588
80575W        W44519  44.269  28.941  14.403
80576W        W44520  27.638  30.463  11.409
80577W        W44521  43.797  29.565  12.527
80578W        W44522  26.530  38.969   4.135
80579W        W44523  30.941   1.433   4.114
80580W        W44524   8.687  18.728  12.496
80581W        W44525  22.161   9.315  13.422
80582W        W44526   0.869  10.172  13.542
80583W        W44527  14.303  31.493   2.804
80584W        W44528  40.835  18.593  12.430
80585W        W44529  27.158  24.095   2.324
80586W        W44530  17.171  15.765   1.292
80587W        W44531  40.053  34.448  11.418
80588W        W44532  24.628  34.099   2.279
80589W        W44533  43.512  42.474   4.658
80590W        W44534   5.806   3.454  12.059
80591W        W44535   7.383  31.121  14.970
80592W        W44536  39.031  15.818  10.894
80593W        W44537  31.464   0.250   4.134
80594W        W44538  31.563  22.164   3.280
80595W        W44539  20.552  42.314  14.889
80596W        W44540  17.782  39.987   2.681
80597W        W44541   1.382  13.105   0.372
80598W        W44542  42.314   9.654   1.332
80599W        W44543  16.285  31.587   2.326
80600W        W44544  10.800   3.897  14.806
80601W        W44545  32.952  12.297   0.270
80602W        W44546  12.284   0.326   2.313
80603W        W44547  18.704  29.449  12.990
80604W        W44548  27.584  20.167  14.313
80605W        W44549  20.609  37.442   0.798
80606W        W44550   6.825  25.044   4.636
80607W        W44551  39.464  35.058   0.966
80608W        W44552  16.665  21.053   2.304
80609W        W44553  39.003  31.928  10.497
80610W        W44554  11.822   0.924  14.907
80611W        W44555  15.322  25.501  11.578
80612W        W44556  10.683  14.100   0.257
80613W        W44557   3.868  30.920  12.985
80614W        W44558  33.515  21.541  12.457
80615W        W44559  29.967  33.010  10.575
80616W        W44560  35.073  32.010  13.803
80617W        W44561  44.382  32.048   2.682
80618W        W44562  37.395  13.818   4.300
80619W        W44563  27.605  25.653  14.497
80620W        W44564   1.941  22.996   0.914
80621W        W44565  25.622  33.407   4.651
80622W        W44566  36.419   5.279  10.508
80623W        W44567  19.059  13.329  12.084
80624W        W44568  23.651  28.187  10.558
80625W        W44569  41.952  36.844  12.947
80626W        W44570  22.649  23.499   1.363
80627W        W44571  16.670   7.177  12.076
80628W        W44572  18.611   4.791  13.903
80629W        W44573  30.424  28.504  12.505
80630W        W44574  20.078  14.169   1.765
80631W        W44575  27.604  10.751   1.745
80632W        W44576  30.914   2.850  11.442
80633W        W44577  42.428  34.103   3.678
80634W        W44578  32.590  16.643   0.296
80635W        W44579  13.710  21.255  13.953
80636W        W44580  19.260  38.040   0.421
80637W        W44581  27.986  18.589  10.521
80638W        W44582  25.193  25.527  13.509
80639W        W44583  40.488  33.908   2.415
80640W        W44584  11.651  34.077   4.173
80641W        W44585   2.283  40.050  13.326
80642W        W44586  27.652  25.208   4.118
80643W        W44587   4.753  16.273   2.732
80644W        W44588  30.130   7.897   3.816
80645W        W44589  38.008  39.990   4.778
80646W        W44590  33.039   6.734  12.434
80647W        W44591  30.151  23.731  14.365
80648W        W44592  26.108   1.920   1.299
80649W        W44593  26.980  34.372   4.255
80650W        W44594  44.888   0.893   0.875
80651W        W44595  44.410   7.812  11.432
80652W        W44596   9.749  22.245   0.353
80653W        W44597   8.703  34.481  14.421
80654W        W44598  23.660  34.491  14.926
80655W        W44599  27.642   4.735   0.929
80656W        W44600  16.710  37.374  10.953
80657W        W44601  21.733  38.351   3.756
80658W        W44602  40.420  13.691   3.848
80659W        W44603  30.953  14.302   5.124
80660W        W44604  15.665   0.795   1.818
80661W        W44605   3.937  35.040  13.476
80662W        W44606   5.923  20.031   1.303
80663W        W44607  18.648  32.902  12.382
80664W        W44608  20.038  44.432  14.489
80665W        W44609  28.443  38.829   0.774
80666W        W44610  28.533  36.858   0.451
80667W        W44611  23.088  42.364   2.781
80668W        W44612  14.308  24.636  10.919
80669W        W44613  21.714  26.648   1.867
80670W        W44614  31.933  12.850   3.293
80671W        W44615  12.138  37.340   1.859
80672W        W44616  17.719  16.735  11.456
80673W        W44617  15.147  25.709  13.323
80674W        W44618  28.577  30.483  10.933
80675W        W44619   6.789   4.324  12.060
80676W        W44620  27.992  43.927   0.326
80677W        W44621  10.156   9.706   1.824
80678W        W44622   9.688  29.025  14.324
80679W        W44623  10.856  22.048   1.860
80680W        W44624  34.962  10.360  12.433
80681W        W44625   6.245  19.260   0.764
80682W        W44626  24.119  35.465   3.807
80683W        W44627  19.113  35.998   2.893
80684W        W44628  39.843  22.715   2.890
80685W        W44629  15.710  25.034  10.949
80686W        W44630  17.195  44.366   4.250
80687W        W44631  30.963  38.933   2.820
80688W        W44632  18.560  31.505   1.756
80689W        W44633  25.180  32.028   0.425
80690W        W44634  43.384  12.656  10.120
80691W        W44635  18.605   2.240   4.265
80692W        W44636  33.543  22.536   9.946
80693W        W44637  18.619   5.831  12.518
80694W        W44638  24.651  36.455   2.742
80695W        W44639  39.455   6.719  10.007
80696W        W44640  32.908  17.761  10.918
80697W        W44641   5.401   7.298  12.961
80698W        W44642  20.214   4.829  14.876
80699W        W44643  28.623  43.004   2.301
80700W        W44644  12.852   1.797   1.880
80701W        W44645  29.466  25.706   2.382
80702W        W44646   6.182  26.671  12.427
80703W        W44647  40.968  40.483   2.247
80704W        W44648  42.974   5.375  14.350
80705W        W44649  28.177  35.899   2.183
80706W        W44650  10.725  22.071   4.697
80707W        W44651  17.281  27.090  13.373
80708W        W44652  32.919  25.029  11.551
80709W        W44653   2.232  37.928   1.839
80710W        W44654   3.224  17.124  11.096
80711W        W44655  31.113  41.478   2.725
80712W        W44656  31.481  16.675   3.802
80713W        W44657   0.742  22.526   0.382
80714W        W44658  35.057  31.425   2.802
80715W        W44659  32.518  31.627  10.917
80716W        W44660  37.086   9.690   1.761
80717W        W44661  41.303   0.271   1.305
80718W        W44662   5.874  35.564  12.536
80719W        W44663  27.461   2.329  14.790
80720W        W44664  35.990   5.748  14.818
80721W        W44665   8.794  13.139   4.256
80722W        W44666  35.359  40.841  10.504
80723W        W44667   0.854  19.539   5.140
80724W        W44668   8.740  27.139  13.492
80725W        W44669  27.612  11.138  14.871
80726W        W44670  20.752   1.267  13.456
80727W        W44671  17.116  10.830  12.402
80728W        W44672  39.889  22.563   2.233
80729W        W44673  27.545  26.628  10.419
80730W        W44674  16.200  32.141  11.517
80731W        W44675  24.560  17.157   1.754
80732W        W44676  15.695  41.969  14.878
80733W        W44677  29.623  19.576   4.337
80734W        W44678  31.152  26.522   2.846
80735W        W44679   0.960  37.356   5.088
80736W        W44680  26.662  25.669   3.290
80737W        W44681  43.858  19.210   3.232
80738W        W44682  30.093  41.997  14.373
80739W        W44683  25.067  27.942   0.407
80740W        W44684  29.603  16.719  14.297
80741W        W44685  21.545   8.821   2.365
80742W        W44686  37.901  22.704  13.985
80743W        W44687   4.348  41.953  14.829
80744W        W44688  26.549  23.570  14.943
80745W        W44689   5.908  33.068  13.331
80746W        W44690   9.646  42.955  11.460
80747W        W44691  40.407  35.549   2.716
80748W        W44692  12.687   8.231  11.595
80749W        W44693  34.980  32.481   3.662
80750W        W44694  44.847  16.732   4.332
80751W        W44695   8.291  42.334  10.507
80752W        W44696  32.889  39.904  14.428
80753W        W44697   7.241  17.741  13.943
80754W        W44698  25.158  41.788  13.432
80755W        W44699  22.517   8.776  14.808
80756W        W44700  38.867  39.476   2.771
80757W        W44701  41.386  24.533   1.270
80758W        W44702  31.565  22.242   1.436
80759W        W44703  24.666  19.057   0.921
80760W        W44704  26.529   9.378   4.275
80761W        W44705   0.309  40.052   3.639
80762W        W44706   7.314  19.773  12.448
80763W        W44707  18.171  41.294  11.590
80764W        W44708  25.064   1.415  12.015
80765W        W44709  25.641  37.576  13.055
80766W        W44710  32.636  39.048  13.945
80767W        W44711  15.809  40.012   0.405
80768W        W44712  32.113  32.006   4.760
80769W        W44713  42.431   3.273   1.720
80770W        W44714  41.368  17.778   2.205
80771W        W44715  40.881  21.585  14.828
80772W        W44716  34.508  39.875   0.301
80773W        W44717  32.408  15.752  13.893
80774W        W44718  27.079  10.634  14.802
80775W        W44719   6.790   5.726  14.343
80776W        W44720   0.922  18.730   1.446
80777W        W44721  25.548  10.811   0.310
80778W        W44722  32.888   2.297   1.848
80779W        W44723   6.292  38.420  14.886
80780W        W44724  29.162  26.040  12.426
80781W        W44725  28.100  12.722   4.303
80782W        W44726  34.572   4.399  13.824
80783W        W44727  22.624  18.789  11.932
80784W        W44728  29.648  44.916  11.582
80785W        W44729  18.714  32.436   2.309
80786W        W44730  23.164  12.360  12.416
80787W        W44731  21.598  34.033   2.355
80788W        W44732  34.449  44.439  11.521
80789W        W44733   6.396  38.889   4.167
80790W        W44734   2.352  37.412  13.043
80791W        W44735  31.899  32.067  13.353
80792W        W44736  15.200  14.257   0.864
80793W        W44737   2.911  20.247  12.922
80794W        W44738   3.342   8.379  13.539
80795W        W44739  26.478  11.739  14.880
80796W        W44740  23.157  14.219  12.063
80797W        W44741  42.841  23.188  11.375
80798W        W44742  31.456  34.937   3.662
80799W        W44743   4.379  28.992  10.441
80800W        W44744   8.197  24.498   1.377
80801W        W44745  41.307  32.457   4.791
80802W        W44746  13.287  39.389  12.509
80803W        W44747  36.955  39.057   2.400
80804W        W44748  35.047  30.598   3.663
80805W        W44749  31.117  44.906   0.442
80806W        W44750   0.885  40.896   0.291
80807W        W44751  31.485  13.165   4.698
80808W        W44752  39.907  14.798   0.349
80809W        W44753  26.959  15.617   0.330
80810W        W44754  39.900  17.769  10.411
80811W        W44755  28.535   7.197  14.290
80812W        W44756  19.088  18.279   3.236
80813W        W44757  44.334  26.514  11.869
80814W        W44758  29.559  15.580  14.366
80815W        W44759  15.319   6.410   4.218
80816W        W44760  15.276  31.470  13.503
80817W        W44761  43.820  12.647  13.527
80818W        W44762  17.721  26.171  14.345
80819W        W44763  36.910  44.763  11.964
80820W        W44764   7.387  11.624   3.212
80821W        W44765  34.869   6.397   2.340
80822W        W44766  28.988  16.163  13.856
80823W        W44767  12.116   3.448  10.930
80824W        W44768   7.214   3.262   0.299
80825W        W44769  24.610   9.163  12.845
80826W        W44770   6.305  34.383  14.453
80827W        W44771  37.511  31.123  12.044
80828W        W44772  15.629  13.277  13.350
80829W        W44773  39.862  43.305   2.713
80830W        W44774   5.721  16.151  11.031
80831W        W44775  31.484   9.382   3.318
80832W        W44776   2.907  12.832   0.370
80833W        W44777  21.154  17.560   4.611
80834W        W44778  22.582  14.677  13.929
80835W        W44779   4.848  29.491  13.006
80836W        W44780  43.968  41.423  10.547
80837W        W44781  19.592  26.563   4.233
80838W        W44782  28.671   1.423  11.469
80839W        W44783  30.117  32.022  12.846
80840W        W44784   2.262  15.272   0.830
80841W        W44785  25.142   6.256  12.472
80842W        W44786  13.706  24.630  10.505
80843W        W44787  36.868  37.401  12.019
80844W        W44788  41.309  39.846   0.313
80845W        W44789   1.461  43.942  10.999
80846W        W44790  27.104  21.144   2.680
80847W        W44791   9.710   3.268   1.331
80848W        W44792  33.064   3.811  14.855
80849W        W44793   4.772  11.277   2.360
80850W        W44794  17.576  12.272   0.301
80851W        W44795  33.132   2.752   4.146
80852W        W44796  44.935  41.786   3.771
80853W        W44797  44.863  18.571  14.445
80854W        W44798   1.411  40.314  11.506
80855W        W44799   0.912  39.555   2.745
80856W        W44800   5.804  24.189  13.035
80857W        W44801  13.624   3.908  12.878
80858W        W44802  29.122  37.024   4.238
80859W        W44803  20.742  16.702   1.794
80860W        W44804  34.371  17.096   2.807
80861W        W44805   6.866  29.095  10.119
80862W        W44806   1.765  36.937  10.557
80863W        W44807  27.553   8.329   4.342
80864W        W44808  21.200  16.206   1.752
80865W        W44809  41.455  25.006   4.641
80866W        W44810  20.766  24.119  13.527
80867W        W44811  10.730  27.547  14.324
80868W        W44812  16.092  32.451   2.321
80869W        W44813   6.312  30.653   3.236
80870W        W44814   0.372  11.671  14.965
80871W        W44815  26.517  19.102   4.645
80872W        W44816   8.695  15.318   1.253
80873W        W44817   3.287  32.430  12.925
80874W        W44818  40.858  17.303   0.916
80875W        W44819   8.264  31.588  12.342
80876W        W44820  26.476   6.711  14.775
80877W        W44821   0.300  22.726   0.342
80878W        W44822  15.600  39.452   1.310
80879W        W44823  12.319   4.731   3.868
80880W        W44824  32.625  16.282  14.016
80881W        W44825  24.043  20.694   0.372
80882W        W44826  20.180   6.352  11.609
80883W        W44827  29.630   8.180   1.374
80884W        W44828   1.471   0.466  13.315
80885W        W44829  23.490  14.101   2.200
80886W        W44830  23.733  11.701  10.461
80887W        W44831  14.628  11.306  13.933
80888W        W44832  42.883  14.301   4.802
80889W        W44833   3.340   9.699  13.395
80890W        W44834  29.158  11.703   0.753
80891W        W44835  13.224  10.230   2.815
80892W        W44836  23.175  35.548  12.557
80893W        W44837  39.842  12.620  14.823
80894W        W44838   5.861  22.688   4.613
80895W        W44839   7.315  27.045   2.380
80896W        W44840  32.120  28.491   4.805
80897W        W44841  18.573   6.308   3.741
80898W        W44842  41.043  29.486  12.871
80899W        W44843  10.373  35.094   3.651
80900W        W44844  28.095  42.497   0.960
80901W        W44845   9.381  21.170  13.004
80902W        W44846  33.078  20.235   1.719
80903W        W44847  26.101  18.133   3.803
80904W        W44848  37.884  38.471  11.461
80905W        W44849  43.387  19.252   4.754
80906W        W44850  27.675  11.841   0.810
80907W        W44851  21.537  10.384   2.253
80908W        W44852  37.952   1.395  14.283
80909W        W44853  42.450  33.973  11.934
80910W        W44854  20.628  33.914  13.973
80911W        W44855   2.235  30.485   4.226
80912W        W44856  43.875  16.136   3.371
80913W        W44857  36.391   4.259   4.225
80914W        W44858  36.939  44.876  11.580
80915W        W44859   2.803  37.844   0.297
80916W        W44860  32.983  15.607   1.233
80917W        W44861   0.759  42.835  10.085
80918W        W44862  24.023  21.693  13.888
80919W        W44863  34.503  31.627   2.348
80920W        W44864  40.386  25.497   0.967
80921W        W44865  13.702  14.264  10.457
80922W        W44866  15.236   7.312  10.596
80923W        W44867  39.545  37.409  14.967
80924W        W44868   5.876  13.266  11.921
80925W        W44869  30.034  28.659   3.790
80926W        W44870   5.713  24.068  13.379
80927W        W44871  42.431  28.175  13.867
80928W        W44872  41.874  17.581  14.776
80929W        W44873  11.311  21.060   4.243
80930W        W44874  30.028  20.541   0.407
80931W        W44875  42.326  40.452   4.208
80932W        W44876  39.505   3.842   0.427
80933W        W44877   2.820   4.210  13.974
80934W        W44878  44.439   9.160   1.328
80935W        W44879   8.746  22.011  13.042
80936W        W44880  12.703  34.045  12.979
80937W        W44881  44.459   4.936  11.931
80938W        W44882  20.619  33.527   2.353
80939W        W44883  22.083  35.897   1.901
80940W        W44884  26.091  10.674   3.349
80941W        W44885   6.279   5.851   2.839
80942W        W44886  14.099   7.203  10.458
80943W        W44887  25.476   2.455   0.968
80944W        W44888  25.161  25.164   1.718
80945W        W44889  28.057  36.978   2.710
80946W        W44890  36.389  19.589  12.453
80947W        W44891  39.850  27.516   0.451
80948W        W44892  33.945  22.207   3.230
80949W        W44893  14.822  10.688  11.584
80950W        W44894   9.193  30.095  10.461
80951W        W44895  38.025  27.196   0.829
80952W        W44896  10.795  16.293   0.778
80953W        W44897  29.993  32.009   2.192
80954W        W44898  23.030  41.908   2.405
80955W        W44899   2.312  18.054   5.243
80956W        W44900  26.178  37.418   3.147
80957W        W44901  21.563  38.547  12.865
80958W        W44902  23.646  20.210  10.465
80959W        W44903  29.041  13.313  12.555
80960W        W44904  19.642  16.171  10.505
80961W        W44905   1.834   5.905   3.656
80962W        W44906  43.341   6.392   3.650
80963W        W44907  19.539  16.707  10.965
80964W        W44908  24.193  40.977  12.525
80965W        W44909  32.605  22.246   0.935
80966W        W44910  14.266  20.604   2.879
80967W        W44911   1.886  35.899   3.180
80968W        W44912  26.050  19.561   4.597
80969W        W44913  28.448   4.269  13.318
80970W        W44914  24.123  14.285  14.777
80971W        W44915  26.207  31.545  12.496
80972W        W44916  18.104  17.612  10.960
80973W        W44917   8.801  20.663   3.745
80974W        W44918   6.254  26.119   2.831
80975W        W44919   3.275  31.408   4.180
80976W        W44920  43.399   5.884  12.572
80977W        W44921  20.707   5.757  10.959
80978W        W44922  44.389  29.958   1.357
80979W        W44923   6.240  41.929   4.290
80980W        W44924  32.586  23.052   0.799
80981W        W44925  14.155   6.746   2.816
80982W        W44926   4.333  32.514   2.330
80983W        W44927  38.968  11.289  10.594
80984W        W44928  13.796  21.219   1.767
80985W        W44929  42.969  33.049   1.879
80986W        W44930   4.400   6.893   1.331
80987W        W44931   1.854   1.269  11.965
80988W        W44932  34.026  23.512   2.272
80989W        W44933  25.182   2.943  10.946
80990W        W44934  18.294  26.586   2.831
80991W        W44935   2.322   9.694   9.454
80992W        W44936  42.803  15.816   2.281
80993W        W44937  23.996  12.305   3.830
80994W        W44938  27.145   5.811   2.871
80995W        W44939   0.812  10.347   0.429
80996W        W44940  38.551  29.168  11.491
80997W        W44941  18.597  34.464   2.717
80998W        W44942  25.672  28.016  14.910
80999W        W44943  44.373   7.285  12.893
81000W        W44944  35.596   2.809  10.963
81001W        W44945   3.328  44.329   1.419
81002W        W44946  25.667  18.226  14.006
81003W        W44947  19.548  30.054  10.515
81004W        W44948   7.837  26.484  11.539
81005W        W44949   0.889   4.430  14.868
81006W        W44950  30.096  20.746  12.983
81007W        W44951  34.106  44.351   3.350
81008W        W44952  37.412  40.952  13.351
81009W        W44953  28.545   1.355  13.971
81010W        W44954  40.458  11.746  13.998
81011W        W44955  39.409  23.225   2.262
81012W        W44956  25.106  24.016  13.055
81013W        W44957   6.406  14.335  10.567
81014W        W44958  12.265  24.998   4.322
81015W        W44959   9.730  39.821  13.963
81016W        W44960  44.383  42.810   3.347
81017W        W44961  44.754  16.210   0.893
81018W        W44962  26.083  31.629   4.163
81019W        W44963   7.715  29.474  14.438
81020W        W44964  22.249  25.982  11.559
81021W        W44965  13.141  14.752  14.940
81022W        W44966   7.356  18.597   2.276
81023W        W44967  16.212  23.675  13.482
81024W        W44968  41.455  18.668  14.446
81025W        W44969   9.149  27.587   2.406
81026W        W44970  34.958  39.369   4.769
81027W        W44971   4.798   2.261   3.221
81028W        W44972  19.215   9.241   4.201
81029W        W44973  28.080  22.021  13.007
81030W        W44974  22.575  12.259   4.663
81031W        W44975   9.828   2.461   3.740
81032W        W44976  12.322  14.333  12.078
81033W        W44977  36.540  31.962   3.735
81034W        W44978  21.034  29.172   3.372
81035W        W44979  27.091   2.844  12.419
81036W        W44980  18.744  28.653   0.411
81037W        W44981   2.400  44.335  11.405
81038W        W44982  22.525  44.827  12.011
81039W        W44983   3.776   8.271  13.999
81040W        W44984  38.845  39.508  12.894
81041W        W44985   4.365  14.099   0.751
81042W        W44986  24.077  35.933  14.759
81043W        W44987  39.845  13.681  11.526
81044W        W44988  11.185  38.841  13.473
81045W        W44989   1.445  29.102  11.074
81046W        W44990  14.129  22.217   1.878
81047W        W44991  40.548   3.837   2.863
81048W        W44992   7.857   6.262   1.353
81049W        W44993   4.806  10.754   4.601
81050W        W44994  36.013   9.802   4.836
81051W        W44995  33.875   7.210   3.361
81052W        W44996  14.804  32.992  12.924
81053W        W44997   5.807  27.659   1.377
81054W        W44998  15.728  12.763  10.642
81055W        W44999  23.148  34.486   2.885
81056W        W45000   9.849  12.210   4.218
81057W        W45001  40.521  15.782   3.319
81058W        W45002  13.128  21.653   2.325
81059W        W45003  23.519  15.636   0.767
81060W        W45004   0.489  41.033  10.608
81061W        W45005  40.513  32.968   2.317
81062W        W45006   4.916   4.832  12.961
81063W        W45007   1.309  25.661  11.384
81064W        W45008  30.600  36.453   4.818
81065W        W45009  29.104  42.784   4.286
81066W        W45010  19.115   2.317   1.846
81067W        W45011   1.356  20.661   1.904
81068W        W45012  10.184  41.365   2.769
81069W        W45013  12.256  26.546   0.387
81070W        W45014  36.921  33.510   2.233
81071W        W45015  21.185   1.384  13.889
81072W        W45016  39.984  42.287   3.759
81073W        W45017  13.814  21.043  12.057
81074W        W45018  39.357  34.542   3.190
81075W        W45019  19.196   2.823  12.416
81076W        W45020  40.463   6.900  12.954
81077W        W45021  28.092  43.917   4.699
81078W        W45022   0.820   0.370   0.346
81079W        W45023   9.184  23.155   1.705
81080W        W45024  25.963  11.353   3.199
81081W        W45025  35.985   9.889   1.325
81082W        W45026  38.031  14.304   4.772
81083W        W45027  21.572   5.391   3.756
81084W        W45028   2.935  27.646   0.450
81085W        W45029  42.872  36.883   3.176
81086W        W45030  43.959  10.375  12.975
81087W        W45031   0.335  34.900   3.754
81088W        W45032  27.019  38.999  14.384
81089W        W45033  18.278   1.865  12.929
81090W        W45034   9.205  19.122   0.777
81091W        W45035   8.375  10.746  12.926
81092W        W45036  22.162  39.847  14.510
81093W        W45037  43.873  41.944   4.310
81094W        W45038  37.509   6.904   3.803
81095W        W45039   6.846  11.161   1.864
81096W        W45040  38.922  22.695   4.817
81097W        W45041   5.385   2.791   4.222
81098W        W45042  15.285   9.859  12.866
81099W        W45043  35.456   9.704   3.203
81100W        W45044   7.850  24.995   2.721
81101W        W45045  20.255   7.772   1.918
81102W        W45046  31.613   2.905   1.748
81103W        W45047  40.044  30.616  11.495
81104W        W45048  20.029  26.567  10.433
81105W        W45049  44.366  26.617   0.900
81106W        W45050  32.419  18.663  10.453
81107W        W45051  39.991  42.974   1.718
81108W        W45052  44.450  28.516  12.960
81109W        W45053  15.719  16.655  11.870
81110W        W45054  31.498   8.290  12.435
81111W        W45055   8.239  39.055   1.807
81112W        W45056  29.068   0.836  12.953
81113W        W45057  17.278  13.112   3.306
81114W        W45058   1.241  23.532   0.796
81115W        W45059   5.770  30.106  13.477
81116W        W45060  16.183  23.990  13.458
81117W        W45061   8.171  24.178   3.801
81118W        W45062  36.909  22.645  14.452
81119W        W45063  29.554   1.941   5.130
81120W        W45064  35.962  34.435   1.217
81121W        W45065   8.396  42.503  14.409
81122W        W45066  23.554   9.253   4.657
81123W        W45067  31.114   1.462   4.755
81124W        W45068  33.611  15.116  10.515
81125W        W45069   3.955  34.980  13.813
81126W        W45070  38.511  29.659  11.061
81127W        W45071  29.099  42.835  13.853
81128W        W45072  29.110  20.649  13.347
81129W        W45073  44.912  41.849  11.455
81130W        W45074   6.830  22.127  11.460
81131W        W45075   4.729  43.882   3.237
81132W        W45076  23.545  40.307  14.376
81133W        W45077   0.973  20.751   3.228
81134W        W45078  40.861  15.289  13.381
81135W        W45079   2.366   2.771   4.634
81136W        W45080  25.095  42.807   4.325
81137W        W45081  43.828   7.358  12.938
81138W        W45082  42.831  22.189  14.411
81139W        W45083   3.732  16.672  11.479
81140W        W45084  28.012  41.301  12.546
81141W        W45085  30.119  35.596   1.752
81142W        W45086  13.187  27.957  13.889
81143W        W45087  19.057  23.680  12.339
81144W        W45088  43.826   6.864   2.384
81145W        W45089  42.848  39.350   2.734
81146W        W45090  29.592  36.368  10.994
81147W        W45091  40.848  33.516  13.343
81148W        W45092  30.551   4.775   3.315
81149W        W45093  34.432  36.368  13.385
81150W        W45094  21.090   2.775  13.546
81151W        W45095  31.949  43.321   0.791
81152W        W45096  26.116  32.401  12.575
81153W        W45097   1.398  13.770   0.819
81154W        W45098  24.542  36.043  10.467
81155W        W45099  24.106  27.658   4.171
81156W        W45100  32.410   7.250  10.459
81157W        W45101  14.636  18.780   4.167
81158W        W45102  11.280   2.887  14.959
81159W        W45103  14.132  34.027   3.751
81160W        W45104  24.165  44.767   3.716
81161W        W45105  42.009  17.193   3.278
81162W        W45106  41.396  25.029  13.329
81163W        W45107   2.397  22.737  12.951
81164W        W45108  19.148  14.705  11.442
81165W        W45109  39.430  25.553  14.884
81166W        W45110  20.694  24.203   3.168
81167W        W45111  20.538   6.827   1.213
81168W        W45112  13.257  40.463   1.857
81169W        W45113  27.029  34.901   2.366
81170W        W45114   2.273  28.484   3.644
81171W        W45115  17.681   5.392  14.957
81172W        W45116  29.567   2.436   1.322
81173W        W45117  21.246   9.306  14.973
81174W        W45118  10.206   4.703   3.689
81175W        W45119  36.926  20.690   4.126
81176W        W45120  41.987  31.402   4.303
81177W        W45121  16.644  12.758  11.574
81178W        W45122  11.292  44.302   3.198
81179W        W45123  31.616  35.512  11.520
81180W        W45124   8.803  39.830  13.062
81181W        W45125  39.559  18.057  14.304
81182W        W45126  16.243  20.134  10.413
81183W        W45127   8.692  14.781   3.244
81184W        W45128  42.436  10.244  11.901
81185W        W45129  31.488  40.987  13.481
81186W        W45130  29.454  34.558   2.902
81187W        W45131  11.681  25.641  10.455
81188W        W45132  44.409  24.605  10.508
81189W        W45133   9.202  43.782   3.663
81190W        W45134  20.767  35.535  13.965
81191W        W45135  34.081  21.092  10.973
81192W        W45136  33.395  42.929   1.854
81193W        W45137  13.830  42.514  14.879
81194W        W45138  31.981  35.601   2.872
81195W        W45139  23.200  21.215   0.824
81196W        W45140  40.921  34.051  14.418
81197W        W45141  14.316  11.158  13.852
81198W        W45142  16.158  33.603  14.438
81199W        W45143   5.413  11.813  14.449
81200W        W45144  33.089  40.914  10.518
81201W        W45145  43.916   0.452  14.307
81202W        W45146  23.174  24.040   2.265
81203W        W45147  14.798  33.062   3.705
81204W        W45148  29.981  39.831   2.263
81205W        W45149  20.670   8.238   4.721
81206W        W45150   7.341  41.425   0.953
81207W        W45151   6.864   6.208   4.186
81208W        W45152  42.395  16.293   4.217
81209W        W45153  21.156  42.825  13.484
81210W        W45154  16.233  40.478  12.533
81211W        W45155   7.260  14.271   4.830
81212W        W45156   1.317   4.809  11.990
81213W        W45157  44.360  24.226  11.984
81214W        W45158  13.746  27.549   4.275
81215W        W45159   2.900  26.956   4.647
81216W        W45160  24.613   5.379  10.440
81217W        W45161  44.321  44.819  11.096
81218W        W45162  14.659   0.750   3.703
81219W        W45163   5.197   8.347  10.137
81220W        W45164  35.397  11.634   3.679
81221W        W45165  16.656  33.944   0.793
81222W        W45166  37.961   8.720  10.888
81223W        W45167  44.859  32.893   2.220
81224W        W45168   8.161  21.157   0.466
81225W        W45169  20.146  39.019   1.849
81226W        W45170  36.379   3.750  10.494
81227W        W45171   1.889  44.875   0.754
81228W        W45172   3.316  44.962  12.355
81229W        W45173   6.829  27.192   0.756
81230W        W45174  11.726  20.089   0.782
81231W        W45175  39.361  34.615  14.302
81232W        W45176  40.045  40.912   2.182
81233W        W45177  43.359   9.799  11.412
81234W        W45178  35.560  12.660  14.774
81235W        W45179   5.296  34.464  11.983
81236W        W45180  43.978   6.325  12.095
81237W        W45181  30.436  32.590  13.919
81238W        W45182  40.999  31.967  12.855
81239W        W45183  29.518  30.494  11.080
81240W        W45184   6.896  30.657   1.854
81241W        W45185   6.827   3.420   2.701
81242W        W45186  44.281  13.153   2.883
81243W        W45187  26.563  30.912   1.429
81244W        W45188  26.470  33.114   4.598
81245W        W45189  10.211  39.424  13.412
81246W        W45190  40.997   7.313   2.365
81247W        W45191  14.189  26.696  14.513
81248W        W45192  43.014  36.551  10.430
81249W        W45193  25.609  33.453   3.658
81250W        W45194  26.091  10.709  10.570
81251W        W45195   9.815  27.183  13.542
81252W        W45196  15.661  13.229   4.824
81253W        W45197   8.827  27.584  12.532
81254W        W45198  12.723   8.390   3.349
81255W        W45199  21.038  22.047  11.512
81256W        W45200  30.953  20.129   2.333
81257W        W45201  43.476  36.586  12.368
81258W        W45202  28.070  41.443  14.337
81259W        W45203  32.047   9.372   4.762
81260W        W45204   4.384  34.025   3.264
81261W        W45205   7.747  11.345   3.710
81262W        W45206  33.979  20.581  14.016
81263W        W45207  10.848  14.764  14.009
81264W        W45208  28.600  21.588  11.484
81265W        W45209  44.878   4.711  14.960
81266W        W45210  35.903  43.939  12.569
81267W        W45211   4.759  31.415  13.315
81268W        W45212  27.138  19.111  14.281
81269W        W45213  14.704  25.640   1.878
81270W        W45214   3.367  18.626  12.869
81271W        W45215  23.016  19.147   3.192
81272W        W45216  31.998  29.965   2.268
81273W        W45217  23.146  18.201  10.946
81274W        W45218   3.403  43.372   1.900
81275W        W45219   8.793  37.035   3.631
81276W        W45220  27.661  12.274   1.449
81277W        W45221  11.126   9.884  12.901
81278W        W45222   8.168  13.761   5.172
81279W        W45223   6.347  38.331   3.761
81280W        W45224  12.615   0.780  14.003
81281W        W45225  11.253  12.659   3.702
81282W        W45226  28.016  34.054   4.293
81283W        W45227  18.118  19.752   1.444
81284W        W45228   9.803  43.418  12.563
81285W        W45229  16.631  25.668  12.559
81286W        W45230  12.170   2.398  12.563
81287W        W45231  32.400  26.665   2.748
81288W        W45232   2.240  27.576  10.552
81289W        W45233  41.842  18.201  13.527
81290W        W45234   8.334   5.858  12.871
81291W        W45235   5.394   9.232  11.114
81292W        W45236  40.530  13.106  11.058
81293W        W45237  29.921  40.475  12.503
81294W        W45238  37.970  19.231   2.192
81295W        W45239  15.180  13.706  10.569
81296W        W45240  44.453   7.359  13.829
81297W        W45241  33.433   5.199   0.862
81298W        W45242  38.939  25.688  12.564
81299W        W45243  30.006  34.986   3.756
81300W        W45244   9.705  24.591   4.212
81301W        W45245  35.502  44.286   1.787
81302W        W45246  26.483   7.734  13.989
81303W        W45247  40.905  39.544  14.970
81304W        W45248  17.624   1.741   4.316
81305W        W45249  14.737  19.592  10.008
81306W        W45250  13.215  29.536   0.284
81307W        W45251  35.453  44.870  14.886
81308W        W45252  20.553  16.177   1.809
81309W        W45253  32.110   5.298   4.274
81310W        W45254  44.919  13.621   1.426
81311W        W45255  17.248  33.961   4.724
81312W        W45256   8.399   7.675  11.477
81313W        W45257  30.442  11.368  14.844
81314W        W45258   5.236  33.889   1.443
81315W        W45259  26.182  19.577   0.314
81316W        W45260  42.440  36.440   4.767
81317W        W45261  23.172  36.352   0.380
81318W        W45262   6.360  36.924   4.253
81319W        W45263  17.710   3.380   3.287
81320W        W45264  16.087  23.026  12.047
81321W        W45265  31.934  17.163  13.839
81322W        W45266  38.922  29.142  10.503
81323W        W45267  37.342  32.114  15.000
81324W        W45268   2.432  36.532   1.869
81325W        W45269  35.922  36.875  12.478
81326W        W45270  29.171  36.545  12.451
81327W        W45271  25.710  21.630  14.850
81328W        W45272  38.024  16.606  12.005
81329W        W45273   5.826  13.645  12.866
81330W        W45274  13.210  36.021  12.507
81331W        W45275  30.553  43.427  14.435
81332W        W45276   7.265   6.183   0.405
81333W        W45277  30.976  32.101   2.365
81334W        W45278  18.737  17.670   4.659
81335W        W45279   1.437   2.321  13.485
81336W        W45280  15.583  42.800  10.573
81337W        W45281  16.291  39.531   0.869
81338W        W45282  39.409   5.388  13.913
81339W        W45283   4.283   6.249  13.506
81340W        W45284  35.364   6.894  13.817
81341W        W45285  14.153  11.762   4.293
81342W        W45286  40.869   0.914  12.364
81343W        W45287  34.564   0.459  12.552
81344W        W45288  14.830  31.921  13.989
81345W        W45289  36.589   3.227   2.385
81346W        W45290  25.510  18.158  14.974
81347W        W45291  32.975   6.257   2.336
81348W        W45292  15.204  34.443  12.506
81349W        W45293  44.426  32.001  11.112
81350W        W45294  25.209  24.125   4.740
81351W        W45295  34.937   2.961   4.189
81352W        W45296  35.933  29.011   2.295
81353W        W45297   0.844   9.870  13.884
81354W        W45298  13.142  19.278   1.417
81355W        W45299  32.977  21.126  12.975
81356W        W45300  17.069  19.650   3.860
81357W        W45301  14.612  43.359   2.419
81358W        W45302  44.308  28.021   0.855
81359W        W45303  19.205  11.709  14.429
81360W        W45304  34.046  34.868  12.551
81361W        W45305  25.581  31.463   2.752
81362W        W45306   8.263  29.491   1.352
81363W        W45307  30.634   8.353   2.892
81364W        W45308   4.208  32.097   1.749
81365W        W45309  24.003  20.551  11.467
81366W        W45310  13.230  16.192  12.363
81367W        W45311   5.906  28.538  12.936
81368W        W45312  41.900  12.725  11.372
81369W        W45313  12.743  26.669   4.820
81370W        W45314  25.670  13.294   3.185
81371W        W45315  14.591  28.508  12.381
81372W        W45316  32.085  43.356   2.864
81373W        W45317  11.192  18.197  11.934
81374W        W45318  23.086  39.431   2.876
81375W        W45319  13.822  34.599  12.961
81376W        W45320  23.569   7.866   3.677
81377W        W45321  28.508  36.036   4.139
81378W        W45322  30.005  18.214   5.082
81379W        W45323  15.173  35.586   3.832
81380W        W45324  20.035  15.702  12.461
81381W        W45325  18.172  18.720   4.715
81382W        W45326  44.819  22.134   0.853
81383W        W45327  24.494  42.946   0.906
81384W        W45328  34.952  42.902   4.761
81385W        W45329   3.240   6.851   3.760
81386W        W45330  40.331  39.406  10.555
81387W        W45331  30.976  24.514  11.070
81388W        W45332   2.428  35.937   0.366
81389W        W45333  25.503  12.662   3.294
81390W        W45334  39.550  19.619   4.743
81391W        W45335  34.554  18.614   1.735
81392W        W45336  13.671   7.294  12.411
81393W        W45337   6.861   3.865  14.968
81394W        W45338   1.406   5.881   4.181
81395W        W45339  12.262  21.234   3.200
81396W        W45340  43.817  23.157   4.285
81397W        W45341  29.008   2.922   1.855
81398W        W45342  22.129   9.643  13.976
81399W        W45343  33.588  10.762  10.887
81400W        W45344  14.770   8.293   3.201
81401W        W45345  25.183  11.717   3.664
81402W        W45346  40.476  41.404   2.369
81403W        W45347  26.156  10.241   2.260
81404W        W45348   9.654  25.106   4.137
81405W        W45349  14.306  24.558   4.765
81406W        W45350  44.920  35.389  14.920
81407W        W45351  24.189   4.814   1.916
81408W        W45352  42.016  19.749   1.872
81409W        W45353   5.698  21.608  11.974
81410W        W45354  14.312  11.757   2.812
81411W        W45355  39.531   5.225   0.763
81412W        W45356   8.887  29.931  10.993
81413W        W45357  16.098  26.478  12.371
81414W        W45358  37.403  20.274   2.362
81415W        W45359   0.928  25.637  12.888
81416W        W45360  12.798   7.766  11.406
81417W        W45361  25.203  41.025  14.812
81418W        W45362  40.957  23.157   0.377
81419W        W45363   5.400  18.274   2.874
81420W        W45364   8.356   7.731  12.486
81421W        W45365   9.649  24.194  14.323
81422W        W45366  18.717  32.965  14.779
81423W        W45367   8.778  28.057   2.773
81424W        W45368  32.895  10.837   2.718
81425W        W45369  38.941  28.149   4.202
81426W        W45370  17.260  16.725   2.352
81427W        W45371   5.817  28.656   1.292
81428W        W45372   4.815  37.018   1.876
81429W        W45373  13.610  39.478   2.265
81430W        W45374   2.916  37.543  10.576
81431W        W45375  24.635   3.764  10.592
81432W        W45376  11.248  26.121  11.062
81433W        W45377  11.270  18.205  13.012
81434W        W45378   7.710  12.629   1.833
81435W        W45379  44.765  15.296   3.198
81436W        W45380  20.162  39.828   1.826
81437W        W45381  44.790  18.251  11.987
81438W        W45382  30.635   6.199  11.554
81439W        W45383  20.580   4.321  10.977
81440W        W45384  24.144  34.963   0.953
81441W        W45385   9.382  16.263   2.668
81442W        W45386  41.356  39.325   3.661
81443W        W45387  12.171  42.287   0.899
81444W        W45388  28.556   0.399  11.551
81445W        W45389  38.481   5.258  14.817
81446W        W45390  38.981  38.535  14.882
81447W        W45391  40.371   7.710   4.177
81448W        W45392  27.068  42.864  11.882
81449W        W45393  10.206  32.899   4.824
81450W        W45394   7.412  18.263  13.062
81451W        W45395  12.241  37.996  10.415
81452W        W45396  15.275  44.936   1.705
81453W        W45397   1.382  26.975   2.746
81454W        W45398  16.101   7.903   0.835
81455W        W45399  15.303  43.944   0.246
81456W        W45400  25.651  20.641   2.269
81457W        W45401  22.563   8.712   4.839
81458W        W45402   5.857   6.399   1.254
81459W        W45403   2.274  39.024   0.785
81460W        W45404  13.270  17.764  11.005
81461W        W45405  41.855   7.411   0.424
81462W        W45406  10.154  25.525  12.391
81463W        W45407   5.919  10.289   3.275
81464W        W45408   2.720  42.963  12.042
81465W        W45409  25.072  42.928   2.229
81466W        W45410  15.328  28.525  14.292
81467W        W45411  32.132  31.975  10.635
81468W        W45412  38.892  36.061   1.706
81469W        W45413  18.106  11.844   2.234
81470W        W45414  28.163  37.381   2.376
81471W        W45415  20.244  28.182  13.312
81472W        W45416  40.310  34.533  10.464
81473W        W45417  14.824   6.402   2.398
81474W        W45418  40.007  16.792  11.994
81475W        W45419  44.769  44.980  14.991
81476W        W45420   5.815   8.693   0.371
81477W        W45421  16.691   0.406   1.895
81478W        W45422   5.849  36.389   4.686
81479W        W45423  14.738  18.595  14.917
81480W        W45424   3.807  43.514   1.402
81481W        W45425   2.747   0.422   0.842
81482W        W45426   3.247   1.957   4.600
81483W        W45427  10.145  10.876  11.587
81484W        W45428  15.746  21.026  10.150
81485W        W45429   0.906  37.336  11.007
81486W        W45430  37.986  32.563   3.261
81487W        W45431   0.445   1.318  12.528
81488W        W45432  26.644   0.370  11.519
81489W        W45433   4.869  37.545  14.835
81490W        W45434  33.505  25.010   3.164
81491W        W45435   9.780  27.509   4.313
81492W        W45436  29.156  43.292   2.198
81493W        W45437  39.023  16.198  12.479
81494W        W45438  32.006  41.808  11.857
81495W        W45439  25.634   1.811   3.778
81496W        W45440  23.681  22.511  10.527
81497W        W45441  37.076  35.516  11.593
81498W        W45442  44.837  37.933   4.198
81499W        W45443   5.779  20.625   1.213
81500W        W45444  43.796  17.261   1.268
81501W        W45445  24.703   4.856  12.534
81502W        W45446   1.387  20.263  11.088
81503W        W45447  36.040  32.923   1.929
81504W        W45448  26.138  34.596  10.538
81505W        W45449  33.545  26.606   3.647
81506W        W45450  19.750  19.689  14.786
81507W        W45451  36.575   0.745  13.947
81508W        W45452  40.927   5.272  11.891
81509W        W45453  38.445  31.116   3.204
81510W        W45454  14.182  40.032   4.771
81511W        W45455   6.416  44.481   4.671
81512W        W45456  20.637  16.276  13.319
81513W        W45457  18.169  39.865  12.981
81514W        W45458  35.550  32.473  11.503
81515W        W45459  43.433  40.940  13.945
81516W        W45460  32.474   8.194  12.533
81517W        W45461  31.057   6.751  13.841
81518W        W45462  31.491  23.556  13.410
81519W        W45463   2.306   4.827  12.060
81520W        W45464  39.841  42.924  13.516
81521W        W45465  38.063  20.086   3.714
81522W        W45466   4.852  29.990  13.901
81523W        W45467  23.603  39.471   4.125
81524W        W45468  21.101  10.384  10.495
81525W        W45469  31.052  24.996   3.635
81526W        W45470   0.282  28.548   1.368
81527W        W45471  40.881  18.211   3.802
81528W        W45472  37.928  11.255   0.864
81529W        W45473   4.315  16.125  13.462
81530W        W45474  11.796  10.665  13.918
81531W        W45475  23.649  42.331  13.794
81532W        W45476  14.213  29.536  11.870
81533W        W45477   7.343   8.285   1.247
81534W        W45478  44.352  39.911  12.062
81535W        W45479  25.974  11.342   2.873
81536W        W45480  34.876  12.627  14.922
81537W        W45481   1.868  12.787   0.890
81538W        W45482   7.765  33.541  11.895
81539W        W45483   7.706  33.986   3.802
81540W        W45484  41.794  42.953  11.063
81541W        W45485   8.226   4.412   2.205
81542W        W45486  11.824  28.130   3.163
81543W        W45487   4.744  20.614   3.636
81544W        W45488  32.600  37.933   0.370
81545W        W45489  24.180  42.947   5.235
81546W        W45490  32.998   5.927  12.361
81547W        W45491  22.996  22.165  13.315
81548W        W45492   2.966  23.089   0.367
81549W        W45493  17.093  39.359   2.396
81550W        W45494  44.901   8.328  12.457
81551W        W45495   8.354   5.328   0.316
81552W        W45496  42.787   4.932  12.060
81553W        W45497  37.052  14.133  11.478
81554W        W45498   4.380  21.196   0.887
81555W        W45499   0.835  30.130  11.860
81556W        W45500  10.697   6.906   3.347
81557W        W45501  22.168  21.612   1.380
81558W        W45502  44.964   7.779  11.505
81559W        W45503  29.060  44.465  14.352
81560W        W45504  31.974   7.809   2.253
81561W        W45505  34.508  11.757   4.838
81562W        W45506  31.062  26.621  14.984
81563W        W45507  24.116   5.317  10.606
81564W        W45508  36.426  39.939   2.386
81565W        W45509  22.054  34.103  11.410
81566W        W45510  23.148  22.528   0.253
81567W        W45511  41.404   4.811   2.862
81568W        W45512   9.220  31.565  13.988
81569W        W45513  18.776  10.748  13.392
81570W        W45514  12.357  20.697   4.162
81571W        W45515  15.616  43.440   3.235
81572W        W45516   3.218  12.673  10.061
81573W        W45517  11.837  13.737   1.898
81574W        W45518   0.479  41.980   3.353
81575W        W45519  42.410   7.215   0.812
81576W        W45520  29.591  34.437  10.612
81577W        W45521  16.272   7.364   1.434
81578W        W45522  42.776  34.604   4.659
81579W        W45523   2.366  14.592  11.518
81580W        W45524   6.787  43.393   0.853
81581W        W45525  41.816  35.917   1.233
81582W        W45526  24.691   1.907   1.286
81583W        W45527  38.542  33.421  13.852
81584W        W45528  15.647   1.847  12.888
81585W        W45529  25.491  41.926  12.514
81586W        W45530  13.737  20.655  10.505
81587W        W45531  29.502  36.085  10.139
81588W        W45532  38.819  15.822  10.645
81589W        W45533  39.490  19.139   3.377
81590W        W45534  12.283  15.283  12.905
81591W        W45535  15.177  36.369  13.410
81592W        W45536  32.014  37.438  13.885
81593W        W45537  38.356  13.819  13.489
81594W        W45538  16.709   6.886   2.322
81595W        W45539  43.898   3.901   4.607
81596W        W45540  14.148  18.730  14.455
81597W        W45541  39.921   7.365  11.867
81598W        W45542  39.344  33.420   3.272
81599W        W45543  37.078  33.533  12.021
81600W        W45544   2.449  26.097  10.636
81601W        W45545  32.891  26.109  13.057
81602W        W45546  35.000   2.832  14.850
81603W        W45547  28.618  26.570  11.603
81604W        W45548  37.073  35.576  10.981
81605W        W45549   1.862  31.045   2.745
81606W        W45550  22.678  27.036   4.707
81607W        W45551   5.302   3.308   2.708
81608W        W45552  16.141  31.479   4.746
81609W        W45553   9.716  36.881   0.833
81610W        W45554  33.111   6.209  11.073
81611W        W45555   5.316  28.562   3.158
81612W        W45556  26.025  27.455   2.734
81613W        W45557   0.922   7.869  10.627
81614W        W45558  32.633   5.785   1.338
81615W        W45559  43.018  30.502   3.714
81616W        W45560  39.883  28.034  10.470
81617W        W45561  25.079  14.151  13.526
81618W        W45562  25.001  30.093  11.904
81619W        W45563  37.963  27.665  10.539
81620W        W45564  35.400  42.775   3.337
81621W        W45565  34.507  41.823  14.465
81622W        W45566  16.797  19.651   1.360
81623W        W45567   2.901  19.635  12.914
81624W        W45568  18.074   9.175  14.818
81625W        W45569  41.900  33.602   0.870
81626W        W45570  43.976  13.183  12.061
81627W        W45571  44.976  22.167   0.392
81628W        W45572  20.150  33.926   0.761
81629W        W45573  28.570  11.734   1.909
81630W        W45574   2.872   7.850  12.558
81631W        W45575   3.935  14.108  13.877
81632W        W45576   1.433   9.225   3.764
81633W        W45577  26.119  20.192  11.962
81634W        W45578  37.555  40.909   0.771
81635W        W45579   1.310  34.511   1.234
81636W        W45580   9.838  33.904   2.319
81637W        W45581  20.545  44.995   0.387
81638W        W45582  18.071  13.645  11.512
81639W        W45583  34.507  32.134   0.339
81640W        W45584   9.782  35.484   4.722
81641W        W45585  16.145  32.088   3.189
81642W        W45586  28.633  12.625  14.768
81643W        W45587  15.609  36.046   1.923
81644W        W45588   4.381  14.330  12.483
81645W        W45589  24.611  21.683  12.094
81646W        W45590  20.625  24.086   1.828
81647W        W45591  23.549  11.162   3.210
81648W        W45592  29.073  19.221   9.606
81649W        W45593  28.005  41.799   3.360
81650W        W45594  34.590  11.637   3.253
81651W        W45595  15.643  40.965   3.311
81652W        W45596   0.381  10.816   1.758
81653W        W45597  16.690   1.795  11.041
81654W        W45598  34.064   2.795  12.081
81655W        W45599  43.915  21.121   3.330
81656W        W45600  16.794  20.046   2.735
81657W        W45601  21.619   4.911  11.860
81658W        W45602   5.709  19.061   1.778
81659W        W45603  21.212  39.553   0.468
81660W        W45604  37.040  34.061   4.807
81661W        W45605  27.461   0.834  11.598
81662W        W45606   1.369  44.903  12.995
81663W        W45607  17.585  41.946   2.206
81664W        W45608  14.710  17.184  11.395
81665W        W45609  42.843  41.472   2.801
81666W        W45610  40.970  22.700  13.060
81667W        W45611  12.750   0.310  13.063
81668W        W45612   5.865   6.805  13.916
81669W        W45613  15.206  38.366   0.433
81670W        W45614  26.630  15.764   1.810
81671W        W45615  16.808   0.862   2.681
81672W        W45616   7.356  41.416  13.889
81673W        W45617   3.350  19.176   2.342
81674W        W45618  11.760   2.301   0.914
81675W        W45619   4.773   2.423   5.214
81676W        W45620   4.408  15.192   2.419
81677W        W45621  21.069  43.349   1.339
81678W        W45622  19.550  21.169  12.518
81679W        W45623   2.874  35.995   1.280
81680W        W45624  40.978  39.052  12.580
81681W        W45625   5.819  36.437  13.319
81682W        W45626   4.209  16.749  13.013
81683W        W45627  33.606  38.830  13.361
81684W        W45628   4.273  24.155   0.460
81685W        W45629  27.194  31.478  14.905
81686W        W45630  37.034  41.927  12.957
81687W        W45631  33.505   6.188  10.476
81688W        W45632  29.504  34.373  12.895
81689W        W45633  37.340  23.207  13.491
81690W        W45634  38.932   3.882  12.520
81691W        W45635  34.977  38.009   2.731
81692W        W45636  26.603  27.157  12.485
81693W        W45637  31.582  20.271   4.712
81694W        W45638  17.575  21.226   5.260
81695W        W45639   0.762   9.303   4.143
81696W        W45640  16.315  22.055  14.312
81697W        W45641  21.748  29.583  11.859
81698W        W45642  22.538  40.383  11.948
81699W        W45643   8.183  23.622  14.782
81700W        W45644  39.383  14.114  11.864
81701W        W45645   6.305   7.247  10.054
81702W        W45646  32.986  34.407   1.230
81703W        W45647  18.551  18.260   2.879
81704W        W45648  16.647  14.334   1.819
81705W        W45649  25.974  41.417  13.006
81706W        W45650  42.913  36.585   1.286
81707W        W45651   8.670  31.055   5.791
81708W        W45652  14.730  18.051  11.014
81709W        W45653  16.167  12.247   0.280
81710W        W45654   5.275  39.556  11.944
81711W        W45655   0.757  39.508  11.002
81712W        W45656  24.119  42.405  10.953
81713W        W45657   4.407  40.497   2.769
81714W        W45658   6.766  24.191  11.510
81715W        W45659  36.577  31.635   2.405
81716W        W45660   0.289   6.272   9.981
81717W        W45661  20.590  34.990   0.473
81718W        W45662  22.680  34.588  13.896
81719W        W45663   3.372  12.117  10.478
81720W        W45664  42.973  15.318  13.430
81721W        W45665  23.501  40.927   1.353
81722W        W45666  39.462  25.167   4.739
81723W        W45667  11.159   8.296   1.302
81724W        W45668  31.623  37.038  13.327
81725W        W45669   8.762  25.471   4.831
81726W        W45670  25.171  28.083  12.071
81727W        W45671  15.098  15.326  10.940
81728W        W45672  39.887  23.718  12.453
81729W        W45673  43.326   5.320   3.255
81730W        W45674  15.250  21.021  13.865
81731W        W45675  39.355  21.665   3.340
81732W        W45676   5.353  25.667  13.336
81733W        W45677   4.761  36.362   3.229
81734W        W45678   7.672   6.921   2.675
81735W        W45679  13.153  18.702   3.710
81736W        W45680  44.928   7.698  10.061
81737W        W45681  17.679  20.665   1.899
81738W        W45682  33.464   7.722   2.281
81739W        W45683  10.381  36.055  12.862
81740W        W45684  12.789  31.500  13.874
81741W        W45685  16.795   3.918   4.334
81742W        W45686   0.274  23.550  10.482
81743W        W45687  36.008  31.648  11.992
81744W        W45688  32.450  32.487  12.830
81745W        W45689  20.028  12.800   1.828
81746W        W45690  20.634   6.204  13.904
81747W        W45691  35.092  10.714   2.694
81748W        W45692  19.187  28.999  14.482
81749W        W45693  23.045   7.246  11.455
81750W        W45694   5.823  10.175   2.850
81751W        W45695  32.977  37.850   1.845
81752W        W45696   2.394   3.379   1.428
81753W        W45697  29.619  23.520  12.832
81754W        W45698  23.629  28.061  13.391
81755W        W45699   3.904  38.378   1.699
81756W        W45700  20.058  30.559   4.814
81757W        W45701   1.412  10.750  13.835
81758W        W45702  21.631  18.164   4.638
81759W        W45703  32.886  15.249  14.412
81760W        W45704  18.683  13.263  14.495
81761W        W45705  40.331  10.297  10.068
81762W        W45706   4.836   9.755   1.743
81763W        W45707  35.360  13.123   0.483
81764W        W45708  21.582  35.502   3.194
81765W        W45709  43.840  37.360  11.008
81766W        W45710  10.816   9.820   3.800
81767W        W45711  22.560  37.968   2.372
81768W        W45712  26.541  17.181   3.185
81769W        W45713  41.486  35.027  14.981
81770W        W45714  30.134  15.712   3.706
81771W        W45715   9.882  40.816   2.703
81772W        W45716  20.687   4.228   4.171
81773W        W45717  28.510  28.584  10.469
81774W        W45718  43.775  13.139  13.817
81775W        W45719  39.902  10.213  14.945
81776W        W45720  22.619   7.242   4.769
81777W        W45721  41.001  30.561  10.919
81778W        W45722  34.378   9.824  13.421
81779W        W45723  30.156  18.287   0.281
81780W        W45724  11.357  24.597   2.803
81781W        W45725  40.331  29.585   3.725
81782W        W45726  31.071  29.572  11.089
81783W        W45727  42.858  17.153   0.381
81784W        W45728   6.771   9.367  13.414
81785W        W45729  22.156  34.566   4.669
81786W        W45730   0.367  19.549  12.866
81787W        W45731  44.777  32.001   0.304
81788W        W45732  19.570   9.257  10.564
81789W        W45733  14.099  10.242   1.810
81790W        W45734  27.165  26.068  12.457
81791W        W45735  11.275  33.620   2.371
81792W        W45736  14.646  44.889  13.888
81793W        W45737  32.955   4.372   4.664
81794W        W45738  42.310  42.979  13.392
81795W        W45739   2.275   5.212   0.799
81796W        W45740  16.255  41.993  14.817
81797W        W45741  35.449  23.525  11.586
81798W        W45742  32.097   1.481  10.936
81799W        W45743   4.325  22.088  14.797
81800W        W45744   3.926  34.017   3.737
81801W        W45745  18.680  22.026  12.021
81802W        W45746  23.675  34.441   4.665
81803W        W45747  18.233  44.774   1.342
81804W        W45748  14.324  40.369  12.949
81805W        W45749   2.744  29.000   4.755
81806W        W45750   7.788  23.087   1.338
81807W        W45751  33.920  24.077   4.185
81808W        W45752  36.851  27.098   1.709
81809W        W45753  10.853  12.751   1.419
81810W        W45754  44.835  27.999   2.671
81811W        W45755  31.581  31.986  10.464
81812W        W45756  13.224  11.770   0.398
81813W        W45757  43.308  17.573   3.781
81814W        W45758  13.266   9.844  12.977
81815W        W45759  11.305  39.029  10.549
81816W        W45760  33.978  26.487  13.449
81817W        W45761  37.380  32.902  14.816
81818W        W45762  14.764  19.693   0.267
81819W        W45763  41.805  18.063  14.410
81820W        W45764  42.953  38.402  10.533
81821W        W45765  11.844  20.150   1.759
81822W        W45766  16.711  10.346   3.648
81823W        W45767  19.581  21.233  11.002
81824W        W45768  13.646  32.579  14.791
81825W        W45769   5.933  30.995   4.344
81826W        W45770  20.613  12.260  11.922
81827W        W45771  22.029  33.549   4.693
81828W        W45772   5.224  10.751   0.816
81829W        W45773  16.781  25.505  10.957
81830W        W45774  41.508  23.068   4.234
81831W        W45775  22.614   6.219   3.318
81832W        W45776  29.950  13.204   1.883
81833W        W45777  15.145  27.611   0.339
81834W        W45778  33.448  34.416   0.390
81835W        W45779  44.438  29.615   3.770
81836W        W45780  37.985  35.509   3.847
81837W        W45781  33.575   6.880   0.792
81838W        W45782  27.040  26.098  11.514
81839W        W45783   8.378   1.338  13.029
81840W        W45784   3.232   4.244   2.683
81841W        W45785  24.592   1.429  13.054
81842W        W45786  13.692  11.802  11.093
81843W        W45787  28.997  11.759  10.423
81844W        W45788  36.010  34.564   4.830
81845W        W45789  39.838   4.723   0.883
81846W        W45790  18.138  17.674   2.191
81847W        W45791   2.894   5.279  13.966
81848W        W45792  21.746  20.187   1.307
81849W        W45793   8.362  18.134   4.293
81850W        W45794   0.767  21.214  10.410
81851W        W45795   2.437  44.421   1.325
81852W        W45796  40.461  18.568  14.494
81853W        W45797  28.125  43.803   4.244
81854W        W45798  15.648  12.650  12.498
81855W        W45799  28.100   8.784   4.788
81856W        W45800  16.107  29.529   2.287
81857W        W45801  31.406  18.065  14.280
81858W        W45802  28.036  38.980   3.154
81859W        W45803  36.057  11.821  14.371
81860W        W45804  24.627  33.418  13.987
81861W        W45805  31.122  27.985  14.357
81862W        W45806  35.987  14.804  12.555
81863W        W45807   0.836  15.721  11.594
81864W        W45808   8.387  17.701   4.672
81865W        W45809   7.216   1.799  13.920
81866W        W45810  37.406  43.297  12.347
81867W        W45811  29.081  10.793   1.874
81868W        W45812  21.694  11.311  12.912
81869W        W45813   5.415  20.194   4.696
81870W        W45814  33.519   3.260  10.422
81871W        W45815   8.760  40.493  11.580
81872W        W45816  31.024  31.615  13.308
81873W        W45817  19.229  34.888   2.272
81874W        W45818  12.196  10.705   3.263
81875W        W45819  37.467  27.028   1.253
81876W        W45820  33.920  42.501   4.692
81877W        W45821  10.290  31.123   4.270
81878W        W45822  12.284  21.648  10.984
81879W        W45823  20.563   9.294   0.781
81880W        W45824  14.721  15.810  12.928
81881W        W45825  42.944  43.844  13.512
81882W        W45826  27.518   9.696   3.666
81883W        W45827  12.193  33.513  11.075
81884W        W45828   7.707  32.923   0.851
81885W        W45829   6.247  32.615  14.362
81886W        W45830   7.777   9.808   3.681
81887W        W45831  43.273  35.413   0.738
81888W        W45832  14.685  37.406   2.178
81889W        W45833  30.456  39.335   1.217
81890W        W45834  28.983   6.747  11.465
81891W        W45835  44.796  42.372   4.169
81892W        W45836  35.107  15.296   3.262
81893W        W45837  39.958  15.087  12.559
81894W        W45838  19.090  40.961   3.320
81895W        W45839  37.407  19.049   0.324
81896W        W45840  32.895   5.378  14.928
81897W        W45841  23.240  12.154  10.538
81898W        W45842  20.716  40.348  11.951
81899W        W45843  27.641  10.795   4.132
81900W        W45844  33.970  28.463  14.937
81901W        W45845  40.854  22.249   1.710
81902W        W45846  39.482  10.812  14.026
81903W        W45847  24.607  32.601  12.901
81904W        W45848   5.830  37.891   2.315
81905W        W45849  21.164   5.866  10.424
81906W        W45850  29.498  16.089   1.710
81907W        W45851  26.983  33.023   1.433
81908W        W45852  41.405  28.142   3.818
81909W        W45853   3.446  28.443  11.549
81910W        W45854  12.362  40.463  14.309
81911W        W45855  20.544   2.463  10.924
81912W        W45856   7.719   7.279   1.918
81913W        W45857  39.349  15.290   4.201
81914W        W45858  20.582  42.397   3.308
81915W        W45859  22.185  35.584  13.985
81916W        W45860  42.818  23.998   0.791
81917W        W45861  16.779  25.531   5.571
81918W        W45862  37.448  29.566   2.720
81919W        W45863  25.469  16.296   1.217
81920W        W45864   2.375  21.645  12.926
81921W        W45865  24.678   1.874  14.296
81922W        W45866   8.893  42.887   9.983
81923W        W45867   2.248   0.437   4.217
81924W        W45868  18.702  18.210  14.781
81925W        W45869   3.454  44.365  14.426
81926W        W45870  30.452   1.738   3.197
81927W        W45871  17.158  19.648  14.483
81928W        W45872  26.510  30.109  12.072
81929W        W45873  35.035   1.903   3.845
81930W        W45874  29.427  25.650  12.402
81931W        W45875  43.333  34.863   4.321
81932W        W45876  30.584  18.075  13.836
81933W        W45877  15.236  37.039  10.961
81934W        W45878   6.313  21.520   3.257
81935W        W45879   7.313  27.195  11.541
81936W        W45880  36.362  15.211  10.955
81937W        W45881  43.377  16.294   1.322
81938W        W45882  33.057  30.561  14.882
81939W        W45883  17.599  32.498   1.909
81940W        W45884  31.592  28.061  14.459
81941W        W45885  27.479  19.131  12.413
81942W        W45886  16.160   4.391  10.906
81943W        W45887  19.644   3.332   4.245
81944W        W45888  40.034  21.685  11.525
81945W        W45889  39.811  18.686  10.924
81946W        W45890  12.300  36.050   3.332
81947W        W45891   3.735  36.560  13.505
81948W        W45892  12.843  20.146  12.479
81949W        W45893  23.682  34.502  13.809
81950W        W45894  44.414  32.020   3.370
81951W        W45895   5.835  22.131   3.239
81952W        W45896  27.113  29.570  14.510
81953W        W45897  38.032  31.901  12.525
81954W        W45898   9.826  15.695   0.925
81955W        W45899  31.575  25.160  11.988
81956W        W45900  26.065  14.158  14.023
81957W        W45901  32.938   0.745  11.899
81958W        W45902  15.155  18.776  14.026
81959W        W45903  24.227  29.938   0.903
81960W        W45904  43.490  18.681  14.484
81961W        W45905   1.805  36.968   4.817
81962W        W45906  39.973   0.768   0.367
81963W        W45907  40.822   4.861  14.368
81964W        W45908   2.770  41.793  11.015
81965W        W45909  32.101   2.820   4.732
81966W        W45910  16.607  28.935   4.153
81967W        W45911  15.676   6.876  13.952
81968W        W45912  38.512  40.350   2.834
81969W        W45913  35.533  40.851  14.377
81970W        W45914  27.035  15.324   2.247
81971W        W45915   5.719   1.399   4.190
81972W        W45916  16.234  12.624   3.344
81973W        W45917  32.947  44.277  12.050
81974W        W45918  29.600  36.973   3.793
81975W        W45919  41.942  11.763  11.896
81976W        W45920  35.592  16.128   3.789
81977W        W45921  36.054  29.465  13.322
81978W        W45922  29.104  32.518  12.829
81979W        W45923  11.623   8.656   1.261
81980W        W45924  11.219  18.615   1.370
81981W        W45925  12.121  10.195  10.440
81982W        W45926  20.218  31.923  10.489
81983W        W45927  20.038  28.663   4.620
81984W        W45928  11.133   0.868  12.863
81985W        W45929  12.700   0.387  10.889
81986W        W45930  11.713   5.841  13.316
81987W        W45931  19.730   4.761  12.482
81988W        W45932  44.908  19.211  12.092
81989W        W45933  26.624  43.279   4.804
81990W        W45934  40.420  36.878  11.938
81991W        W45935  22.247  19.724   0.754
81992W        W45936   6.676   6.398  13.978
81993W        W45937  19.057  19.229   1.432
81994W        W45938  39.812  12.638   0.424
81995W        W45939   3.402  10.357  12.531
81996W        W45940   8.900   4.400   4.290
81997W        W45941  15.174  10.637   1.225
81998W        W45942  38.471  26.109   2.710
81999W        W45943  16.073  36.929  13.422
82000W        W45944  11.247   3.310   2.205
82001W        W45945  10.704  11.186   3.164
82002W        W45946  34.400   6.732  12.553
82003W        W45947   7.172  39.938   2.795
82004W        W45948  26.517  40.955   4.248
82005W        W45949  21.584  43.943   0.465
82006W        W45950   0.942   4.250   0.335
82007W        W45951   1.956  44.456  10.973
82008W        W45952  10.336   1.858  10.439
82009W        W45953  17.656   0.921   1.852
82010W        W45954  31.931  33.518   2.701
82011W        W45955  19.599   3.412  13.394
82012W        W45956  14.240  36.451  11.013
82013W        W45957  21.114  13.649  11.576
82014W        W45958  37.367   1.328  12.422
82015W        W45959  11.663  26.603   3.290
82016W        W45960  17.306  13.621  13.379
82017W        W45961  40.882   9.792   3.827
82018W        W45962  43.862  42.945  13.060
82019W        W45963  44.851  16.676   4.764
82020W        W45964   3.832  17.151   4.257
82021W        W45965  11.160  39.903  12.090
82022W        W45966  35.492  37.013   3.656
82023W        W45967  20.069  15.685  11.507
82024W        W45968  32.421  16.241  13.378
82025W        W45969  12.247  33.940  12.869
82026W        W45970  41.024  34.474  10.485
82027W        W45971  12.720  10.750   2.351
82028W        W45972  27.975  28.664  14.364
82029W        W45973  17.556  42.798   0.865
82030W        W45974  11.864  26.966   3.840
82031W        W45975  38.857   9.300  11.418
82032W        W45976   5.793  34.486  14.853
82033W        W45977  12.818  17.656  14.802
82034W        W45978  18.105  31.980  13.049
82035W        W45979   5.773  11.278  14.985
82036W        W45980   2.919  44.891   4.612
82037W        W45981  43.970  18.223   1.359
82038W        W45982   6.723  17.088   2.817
82039W        W45983  17.699  33.963  10.944
82040W        W45984  20.121   2.921  10.608
82041W        W45985  38.520   5.426  12.462
82042W        W45986  10.685   3.845  13.040
82043W        W45987   5.882   2.965   4.774
82044W        W45988   9.878   1.811   3.195
82045W        W45989   9.783  29.930  13.013
82046W        W45990  40.980  42.812   5.163
82047W        W45991  21.152  15.586   3.690
82048W        W45992   2.901   3.292  13.049
82049W        W45993  26.621  43.890  11.051
82050W        W45994   1.478  40.983   4.117
82051W        W45995  44.914  29.086  14.321
82052W        W45996  42.866  23.560   2.701
82053W        W45997  28.981   2.813  14.961
82054W        W45998   8.898  12.727  10.986
82055W        W45999  30.940  16.119  14.935
82056W        W46000   1.328  27.142   4.740
82057W        W46001  35.074   2.365   2.371
82058W        W46002  34.978  19.622  13.521
82059W        W46003  19.750   8.292   2.275
82060W        W46004   4.438  41.990   0.735
82061W        W46005  44.453  35.604   4.647
82062W        W46006  43.976  33.580  14.405
82063W        W46007  18.229  27.175  13.350
82064W        W46008   7.729  12.212   4.746
82065W        W46009  32.949   2.769  10.477
82066W        W46010  12.758  27.544   1.723
82067W        W46011   9.773  31.402   0.771
82068W        W46012   8.739  29.550  10.990
82069W        W46013   8.790  28.127   5.137
82070W        W46014  40.050  29.584   1.741
82071W        W46015  40.333  36.518   4.229
82072W        W46016  21.618  25.643  14.839
82073W        W46017  13.206  38.558   1.921
82074W        W46018  34.078   3.354  12.533
82075W        W46019  38.981  34.479  13.967
82076W        W46020  42.014  11.340  10.090
82077W        W46021   1.945  34.921   1.391
82078W        W46022  31.011  20.111   4.241
82079W        W46023  39.337  23.165  12.004
82080W        W46024  32.594  23.200  14.310
82081W        W46025  35.595  12.628   3.194
82082W        W46026  32.007  30.532  14.788
82083W        W46027  17.224  12.658  14.904
82084W        W46028  26.533  34.957   0.421
82085W        W46029  30.638   4.782  14.894
82086W        W46030  10.667  32.947  11.902
82087W        W46031  31.482  13.793  12.522
82088W        W46032  36.068  30.907  12.827
82089W        W46033  33.414   4.935   9.951
82090W        W46034  36.889  41.032  10.549
82091W        W46035   3.387   1.372  10.987
82092W        W46036   4.834  12.295   1.220
82093W        W46037  41.977   4.427   4.766
82094W        W46038  15.096   6.370   0.299
82095W        W46039  33.574  22.080   1.932
82096W        W46040  10.263   5.753  14.956
82097W        W46041  24.990  19.244   3.261
82098W        W46042  39.021   8.706  11.521
82099W        W46043  16.128  20.193  11.863
82100W        W46044  43.338  26.092   0.794
82101W        W46045  13.809  44.911  12.452
82102W        W46046  19.665  25.691   3.637
82103W        W46047   8.233  40.926   1.784
82104W        W46048  21.661  40.960   3.343
82105W        W46049  39.053   0.455   1.432
82106W        W46050  34.865  40.832  14.929
82107W        W46051  38.838  28.493   0.386
82108W        W46052  40.444  40.348   4.170
82109W        W46053  27.614  26.050  12.339
82110W        W46054  44.444   6.293  14.838
82111W        W46055   7.807  27.973  12.424
82112W        W46056  43.306  42.309  11.861
82113W        W46057  27.650   0.988  14.798
82114W        W46058   0.396  22.216   3.323
82115W        W46059  34.484  42.280  11.934
82116W        W46060  16.284   0.263   0.258
82117W        W46061   2.391   3.902  12.387
82118W        W46062  34.605  13.817   0.423
82119W        W46063  23.096  32.521   2.377
82120W        W46064  18.740  24.607  14.327
82121W        W46065  17.742  23.606   2.337
82122W        W46066  41.311  13.782   2.354
82123W        W46067  22.730  38.329  12.946
82124W        W46068  18.118  32.009   1.295
82125W        W46069  14.270  29.660   1.422
82126W        W46070  44.988  17.589   4.334
82127W        W46071  10.244  13.637  12.517
82128W        W46072  34.930   2.739  13.438
82129W        W46073  26.697  25.574  14.934
82130W        W46074   1.483  28.626   0.910
82131W        W46075  20.035  31.906   1.219
82132W        W46076  23.021  20.217   0.817
82133W        W46077  10.816  28.030  14.275
82134W        W46078  28.647  42.424   2.689
82135W        W46079  33.887  32.955  14.351
82136W        W46080  44.387   6.912   0.949
82137W        W46081  10.848  29.506   1.868
82138W        W46082  38.873   2.758  14.874
82139W        W46083  35.548  31.951  11.562
82140W        W46084  29.125  10.220  14.977
82141W        W46085  22.518  16.637   4.720
82142W        W46086  33.602  14.099   4.344
82143W        W46087  24.644   2.464   3.694
82144W        W46088   3.283   6.281  11.595
82145W        W46089  33.471  34.984   4.276
82146W        W46090  44.338   4.808  13.426
82147W        W46091   0.865  30.931   4.169
82148W        W46092   7.701  34.612   3.709
82149W        W46093  15.153  22.072  10.636
82150W        W46094  10.742  37.975   0.289
82151W        W46095  23.581  27.982   0.902
82152W        W46096  10.291  18.710   4.654
82153W        W46097  40.023  39.428  14.907
82154W        W46098   1.843  23.567  10.512
82155W        W46099  19.192   8.292   3.740
82156W        W46100  13.769  12.777   4.659
82157W        W46101   7.343   4.278   2.274
82158W        W46102   9.205  43.952  14.804
82159W        W46103  32.546  27.017  10.563
82160W        W46104   5.426  32.600  14.470
82161W        W46105   3.843  38.371  10.520
82162W        W46106  10.270  11.702   0.778
82163W        W46107   2.469   9.814   2.402
82164W        W46108  39.469  44.411  11.562
82165W        W46109   0.766  30.610   5.087
82166W        W46110  21.671  22.562  12.519
82167W        W46111  19.180  44.336   2.321
82168W        W46112   9.390  39.401  10.475
82169W        W46113   4.445  21.546  14.941
82170W        W46114  42.024  37.932  14.866
82171W        W46115  15.211   7.288   2.823
82172W        W46116  17.697  42.911  12.467
82173W        W46117  27.088  12.161   1.911
82174W        W46118  27.017  13.774  14.023
82175W        W46119  18.738   5.235  12.965
82176W        W46120  44.987  28.635  13.017
82177W        W46121  36.591  43.369  11.431
82178W        W46122  44.934   5.277   3.159
82179W        W46123  23.538   4.750   1.299
82180W        W46124  37.434  34.592  10.022
82181W        W46125  41.440  30.962   0.779
82182W        W46126   3.427  33.908  10.404
82183W        W46127  16.638  10.204  14.815
82184W        W46128  18.601  20.587   0.828
82185W        W46129  33.553  24.514   4.691
82186W        W46130   1.924   3.369   5.287
82187W        W46131   6.412  33.038  14.856
82188W        W46132  11.775  24.714  14.434
82189W        W46133  16.577  10.706   4.190
82190W        W46134  21.094   8.274   0.305
82191W        W46135  34.428   7.692   3.721
82192W        W46136   5.913  21.164  10.934
82193W        W46137   0.444  39.843   1.723
82194W        W46138  41.851  26.080  12.413
82195W        W46139  20.579  41.516   1.927
82196W        W46140  32.065   4.723  13.431
82197W        W46141  34.392  25.065   2.237
82198W        W46142   2.876   9.800   2.741
82199W        W46143  44.783  34.391   3.728
82200W        W46144  38.497   0.960  10.621
82201W        W46145  24.116  34.390   4.217
82202W        W46146  27.588   8.848  11.859
82203W        W46147   8.818   2.901  14.408
82204W        W46148  40.979  39.023   0.325
82205W        W46149  16.207   6.745  10.970
82206W        W46150  27.571  16.232   1.426
82207W        W46151  38.337  15.631  13.822
82208W        W46152  30.996  16.609   4.292
82209W        W46153  17.169  35.080  14.824
82210W        W46154  29.667   5.728   4.679
82211W        W46155  17.108  44.490   0.904
82212W        W46156  44.357   2.744   4.827
82213W        W46157  20.581   8.828   3.268
82214W        W46158   5.824  40.347  10.538
82215W        W46159   9.845   3.905   2.188
82216W        W46160  44.265  36.907  14.958
82217W        W46161  40.028   2.469  14.515
82218W        W46162  22.189  22.191   2.193
82219W        W46163  23.637   5.855  14.928
82220W        W46164   6.747   4.868   0.339
82221W        W46165   8.291  10.317   2.405
82222W        W46166  38.424  40.521  13.397
82223W        W46167  43.479  38.964   0.875
82224W        W46168   9.826  27.586  10.552
82225W        W46169  38.329  25.555   4.139
82226W        W46170  32.556  35.557  12.500
82227W        W46171  17.588  44.841  14.023
82228W        W46172  17.693  22.105   9.617
82229W        W46173   4.322  23.142  12.045
82230W        W46174  17.065   7.760   3.256
82231W        W46175   3.885  12.201  11.115
82232W        W46176   3.805   9.833   0.753
82233W        W46177  18.638  34.956   5.157
82234W        W46178  40.042  33.413  14.761
82235W        W46179  23.492  19.544   4.747
82236W        W46180  26.187  43.987  10.456
82237W        W46181  23.236  44.858  13.919
82238W        W46182   1.358  37.974  12.086
82239W        W46183  31.572   0.388   3.635
82240W        W46184  29.480  41.869  13.395
82241W        W46185  12.175   1.810  12.575
82242W        W46186  14.219   3.390  14.300
82243W        W46187  17.793  40.359  12.409
82244W        W46188  34.542  18.554   2.695
82245W        W46189   6.818  36.484   4.741
82246W        W46190  13.208  16.736  13.900
82247W        W46191  11.344   0.478   2.689
82248W        W46192  41.342  38.930   3.159
82249W        W46193   3.761  38.056  14.976
82250W        W46194  40.537  12.686  10.575
82251W        W46195   6.245   8.325   3.713
82252W        W46196  42.479  11.657  14.509
82253W        W46197  19.628  11.659  14.452
82254W        W46198  41.818   4.219   1.749
82255W        W46199  32.946  43.411  13.812
82256W        W46200   2.301   8.309  12.975
82257W        W46201  28.073   3.795  11.972
82258W        W46202  37.482   3.381  11.390
82259W        W46203  30.650  15.217  12.399
82260W        W46204  10.353  17.662  14.809
82261W        W46205  42.800  22.692   0.738
82262W        W46206   7.185  15.257  12.885
82263W        W46207  28.507  44.288  11.953
82264W        W46208  35.566  43.449   0.346
82265W        W46209  10.272   8.400   4.242
82266W        W46210   7.177  32.474   0.293
82267W        W46211  15.628  22.602  11.563
82268W        W46212  31.006  23.999  11.521
82269W        W46213  21.203  28.986   3.835
82270W        W46214  15.740  26.195  12.542
82271W        W46215   7.759  25.178   4.159
82272W        W46216  19.232  43.330   0.474
82273W        W46217  28.512  14.228  12.863
82274W        W46218   3.773  16.785  14.877
82275W        W46219  24.147  33.528  13.398
82276W        W46220   7.745  20.072   2.737
82277W        W46221   6.312  20.555  13.791
82278W        W46222  22.199  15.146   4.151
82279W        W46223  35.924  38.388   4.707
82280W        W46224  19.728  38.052   0.316
82281W        W46225  25.518  27.547  11.091
82282W        W46226  28.109  19.740   0.470
82283W        W46227  12.642  35.447  14.834
82284W        W46228  15.191  22.006   3.698
82285W        W46229   3.822   2.269  12.538
82286W        W46230   8.728  23.127   2.675
82287W        W46231   7.409  37.339  12.982
82288W        W46232  44.271  21.648   0.483
82289W        W46233  24.699   1.969  12.953
82290W        W46234  42.519  24.618   2.312
82291W        W46235   8.329  19.613   2.399
82292W        W46236  43.944  39.976  14.354
82293W        W46237  39.465  39.828   2.800
82294W        W46238  32.510   8.871   3.656
82295W        W46239  19.223  23.708  11.105
82296W        W46240  15.722  34.917  12.996
82297W        W46241  22.528  41.945  10.497
82298W        W46242  22.198  23.218   4.282
82299W        W46243  39.492   7.332  12.945
82300W        W46244   8.773  42.503  11.548
82301W        W46245  26.044   9.202   1.724
82302W        W46246  29.983  40.316  11.981
82303W        W46247  27.049  30.550   3.795
82304W        W46248   9.355  40.832   4.812
82305W        W46249   6.257   6.185  11.110
82306W        W46250  16.603   0.361  12.035
82307W        W46251  31.048  26.984  13.858
82308W        W46252  14.268  21.056   4.782
82309W        W46253   6.361  15.229   3.784
82310W        W46254  23.719  23.534  10.909
82311W        W46255  40.961  34.939   4.258
82312W        W46256  28.554  15.766   0.356
82313W        W46257  33.390   3.785  12.387
82314W        W46258  10.768   7.301  14.366
82315W        W46259  19.741   7.268  10.451
82316W        W46260  26.650   4.378   2.233
82317W        W46261  20.562   9.273   1.396
82318W        W46262  18.596  16.302   0.460
82319W        W46263  39.551  12.341  12.047
82320W        W46264  42.372  24.016   4.210
82321W        W46265  17.302   5.860   3.322
82322W        W46266  17.613  43.889  13.964
82323W        W46267  12.753   9.297  13.372
82324W        W46268  35.394  21.087   3.369
82325W        W46269  35.380  41.513   4.655
82326W        W46270  20.208  15.185   2.225
82327W        W46271  21.685  22.204  13.939
82328W        W46272   4.408   7.897  10.090
82329W        W46273  19.770  40.456  13.519
82330W        W46274  13.677  35.561  14.298
82331W        W46275  20.253   6.776   4.802
82332W        W46276   3.241  16.731   2.256
82333W        W46277  32.566  34.978   2.319
82334W        W46278   1.369   3.356  10.611
82335W        W46279  28.482   7.724   4.687
82336W        W46280  31.129   2.913   0.417
82337W        W46281  35.581  24.497   0.766
82338W        W46282   0.422  44.421  10.595
82339W        W46283   8.867  36.083   1.371
82340W        W46284   6.910  31.920  13.053
82341W        W46285   2.859   3.449  11.415
82342W        W46286   8.267  44.422  13.458
82343W        W46287  36.908  24.589   3.675
82344W        W46288   1.284  39.484   2.316
82345W        W46289  26.610  22.632  12.947
82346W        W46290  12.618  13.787   0.274
82347W        W46291  36.570  33.020  12.510
82348W        W46292   8.403  35.450   0.242
82349W        W46293   8.255   3.858   1.321
82350W        W46294  16.661  35.364  11.048
82351W        W46295  12.279  44.824   2.311
82352W        W46296  26.462  16.106  14.353
82353W        W46297  43.337  23.066  14.410
82354W        W46298  20.718  22.590  11.409
82355W        W46299  21.626   4.811  10.610
82356W        W46300  13.140  16.281  13.797
82357W        W46301   8.225   6.838   0.465
82358W        W46302  30.996   4.886  14.418
82359W        W46303  22.731  31.426   2.416
82360W        W46304   3.263  10.804   2.364
82361W        W46305  35.470  28.157  12.477
82362W        W46306   9.837  23.051  13.327
82363W        W46307   2.852  33.898  11.372
82364W        W46308  28.534  12.852   4.271
82365W        W46309   7.277   8.191  14.903
82366W        W46310   0.896   7.801  12.493
82367W        W46311   2.798  36.087   4.294
82368W        W46312   0.944   0.311  11.547
82369W        W46313  17.581  30.084  13.307
82370W        W46314  32.086  36.422   0.371
82371W        W46315  40.495   2.409   1.922
82372W        W46316  26.973  21.700   3.261
82373W        W46317  30.538  38.552  13.315
82374W        W46318  11.197   2.263  13.511
82375W        W46319   8.698  15.706   4.270
82376W        W46320  15.679   5.863  12.937
82377W        W46321  22.696  10.668   3.825
82378W        W46322  25.565  22.634  11.059
82379W        W46323  28.594  11.631   1.249
82380W        W46324  21.700  26.203   3.202
82381W        W46325  38.032  27.630  13.896
82382W        W46326  36.983  25.027  10.599
82383W        W46327  35.064  30.558  13.816
82384W        W46328  38.008  25.505   1.438
82385W        W46329  26.492  14.653   3.222
82386W        W46330  19.664  15.098  11.004
82387W        W46331  40.437   0.897   2.290
82388W        W46332  37.402  23.539  13.973
82389W        W46333   0.308   0.344   3.328
82390W        W46334  13.781  23.121  10.607
82391W        W46335  21.228  29.986  12.534
82392W        W46336  43.777  27.526  14.844
82393W        W46337  10.306  36.360  13.888
82394W        W46338  24.001  30.035  14.828
82395W        W46339  34.074   1.795  10.445
82396W        W46340  43.766  15.728   2.663
82397W        W46341   0.364  33.025   1.816
82398W        W46342  27.099  16.256   0.836
82399W        W46343  41.533   9.749  10.531
82400W        W46344  12.189   4.410   4.245
82401W        W46345  23.136   5.395   0.740
82402W        W46346  42.426  43.962   2.808
82403W        W46347  32.499  17.776   4.171
82404W        W46348  10.354  15.222  11.896
82405W        W46349  34.489  41.957   0.475
82406W        W46350  31.015  10.817  13.379
82407W        W46351  33.912   0.894   2.217
82408W        W46352  12.358  43.512  11.958
82409W        W46353  17.178   2.866  12.577
82410W        W46354   9.166  26.650   1.706
82411W        W46355   5.273  44.967   3.271
82412W        W46356  13.329  18.199  13.928
82413W        W46357  37.341  31.902   1.343
82414W        W46358  30.418  14.231  13.916
82415W        W46359   0.748  35.459   0.473
82416W        W46360  18.677  29.461   5.130
82417W        W46361  29.609  26.120  14.293
82418W        W46362  12.311   9.316  11.933
82419W        W46363  16.270  35.093   1.396
82420W        W46364   0.335   3.230   2.766
82421W        W46365  27.974   8.770   4.124
82422W        W46366  36.892  37.082   3.282
82423W        W46367  10.750  27.086  13.871
82424W        W46368  22.596   1.895  11.598
82425W        W46369  23.561  16.809   4.242
82426W        W46370  12.802  44.362   4.237
82427W        W46371  17.171  37.056  13.794
82428W        W46372  11.776  12.169  14.879
82429W        W46373   1.964  22.534  13.496
82430W        W46374  26.582  29.117   2.858
82431W        W46375   5.388  23.984   4.603
82432W        W46376  32.946  26.614   1.853
82433W        W46377  39.945  10.270  11.608
82434W        W46378  17.171  17.706  10.968
82435W        W46379  30.972  42.869  14.955
82436W        W46380  29.095   7.872  11.965
82437W        W46381  33.903  18.699   3.677
82438W        W46382   9.273   0.894  12.510
82439W        W46383  32.397  36.401   3.836
82440W        W46384  30.039  14.677  11.517
82441W        W46385  24.115  11.349   1.264
82442W        W46386  11.841  40.445  12.425
82443W        W46387  40.880  31.607  11.488
82444W        W46388  38.501  22.019  10.957
82445W        W46389   6.895  43.299  11.522
82446W        W46390  18.089  29.627  11.964
82447W        W46391   0.467  30.111  11.431
82448W        W46392  27.114  33.518   4.152
82449W        W46393  39.816  18.201   3.760
82450W        W46394   0.800  12.717  11.858
82451W        W46395   5.273  23.499   3.841
82452W        W46396  35.548  38.890  10.478
82453W        W46397   6.210  41.447  14.494
82454W        W46398   2.414  35.894  12.973
82455W        W46399  22.691  25.075   5.222
82456W        W46400  20.161   8.406   3.226
82457W        W46401  18.136   9.757   4.321
82458W        W46402  44.279  29.599  10.980
82459W        W46403   7.183  13.197   3.307
82460W        W46404   6.830  40.399   3.339
82461W        W46405  19.246  14.706   3.725
82462W        W46406  21.044  34.513   4.148
82463W        W46407  36.872  29.512  13.911
82464W        W46408  37.924  29.443   3.756
82465W        W46409  25.074  33.582   4.700
82466W        W46410  19.572   5.698  12.392
82467W        W46411  32.092  15.107  12.379
82468W        W46412  38.553  18.188  10.640
82469W        W46413  26.490  32.973   1.812
82470W        W46414   5.377   3.851   1.309
82471W        W46415  44.913  26.586   1.210
82472W        W46416  18.187  10.298   2.305
82473W        W46417  24.046  36.040  13.930
82474W        W46418   6.830  25.098   3.228
82475W        W46419  23.233   6.186  10.538
82476W        W46420  35.581  22.519   1.354
82477W        W46421  29.109  25.621  10.907
82478W        W46422   5.731   9.281  14.820
82479W        W46423  20.271  39.922   4.597
82480W        W46424  11.834  40.908   0.447
82481W        W46425  14.284   3.302  13.409
82482W        W46426   4.379  38.503  11.875
82483W        W46427   3.228  27.033  14.422
82484W        W46428   3.332   5.422   0.290
82485W        W46429  36.935  31.591   1.909
82486W        W46430  42.836  33.455   1.227
82487W        W46431  39.424   6.703  11.383
82488W        W46432  19.739  39.881  10.912
82489W        W46433  34.940  35.419   0.318
82490W        W46434  21.145  25.162  11.570
82491W        W46435  22.231   3.262  10.599
82492W        W46436  15.254   3.850   0.749
82493W        W46437  34.535  29.618   4.732
82494W        W46438  30.140  10.285  10.138
82495W        W46439  40.426  12.294   2.739
82496W        W46440  20.120  13.608   1.345
82497W        W46441   8.793  41.353  13.930
82498W        W46442  27.520   8.894   3.349
82499W        W46443  33.104  42.468   2.219
82500W        W46444  43.925  29.076  10.452
82501W        W46445  35.553   7.889   2.200
82502W        W46446  31.640  19.752   2.347
82503W        W46447  21.203  16.194  11.608
82504W        W46448  13.702  42.984   2.310
82505W        W46449  35.091  14.674  10.413
82506W        W46450  32.933  18.748  10.499
82507W        W46451   3.952   7.193   5.758
82508W        W46452  18.068  40.872  10.522
82509W        W46453   8.669  40.364   2.710
82510W        W46454   9.171  20.231   4.698
82511W        W46455  38.411  25.114  14.825
82512W        W46456  44.822   4.356   1.390
82513W        W46457  18.655   5.897  10.098
82514W        W46458  43.470  29.036   1.860
82515W        W46459  39.989   9.265  13.343
82516W        W46460  40.919   7.240  12.503
82517W        W46461  31.574   2.737   4.237
82518W        W46462  16.713  11.366   5.191
82519W        W46463   4.430  34.567   3.656
82520W        W46464  10.382  44.471  12.885
82521W        W46465  18.136  28.017  14.479
82522W        W46466   2.757  29.170  10.907
82523W        W46467  12.143  16.805   4.312
82524W        W46468   5.374  22.146  11.474
82525W        W46469  20.683  28.968   3.848
82526W        W46470  10.708  42.810  13.379
82527W        W46471  33.092  40.352  12.358
82528W        W46472  42.340  29.612   2.682
82529W        W46473   5.233  19.280   1.440
82530W        W46474  38.924  35.511   0.350
82531W        W46475  11.319  31.563  11.022
82532W        W46476  23.720   4.214   1.269
82533W        W46477  36.350  14.685  13.455
82534W        W46478  43.483   0.335  11.899
82535W        W46479  32.624  31.126  12.573
82536W        W46480  21.210  41.305  12.033
82537W        W46481  36.923  43.487   1.356
82538W        W46482  34.547  35.980   1.763
82539W        W46483  40.014  32.595   2.738
82540W        W46484  33.598  40.518  12.454
82541W        W46485  20.653  33.447   1.301
82542W        W46486  39.905  17.113   0.346
82543W        W46487  12.212  24.524   4.303
82544W        W46488  35.373  13.617   1.771
82545W        W46489   7.287  44.388  11.066
82546W        W46490   0.829   6.413  13.061
82547W        W46491   8.772   5.300   3.267
82548W        W46492  13.216  24.570  14.417
82549W        W46493   5.725  32.555  14.773
82550W        W46494  19.567  23.232   3.716
82551W        W46495   1.331  15.083   1.801
82552W        W46496  15.201  17.746  14.392
82553W        W46497  19.203  34.564   2.757
82554W        W46498  32.492  37.514   1.355
82555W        W46499  10.295  27.564  11.873
82556W        W46500  39.421  14.764   4.630
82557W        W46501  22.146  25.071  13.048
82558W        W46502  19.054  39.030   1.420
82559W        W46503   2.826  18.150   0.326
82560W        W46504   9.696   0.802   1.740
82561W        W46505  10.235  38.482  14.456
82562W        W46506  30.632   6.733  10.561
82563W        W46507  33.016  36.857   2.782
82564W        W46508  44.839  30.918   1.810
82565W        W46509  24.120  19.766   1.911
82566W        W46510   2.250   2.920   0.794
82567W        W46511  38.334  33.479  13.046
82568W        W46512  44.497   0.262   9.990
82569W        W46513  10.679   7.247   4.246
82570W        W46514  11.660  40.864   4.288
82571W        W46515  15.582  11.721  12.405
82572W        W46516  37.373  26.047   2.316
82573W        W46517  30.454  24.974  14.887
82574W        W46518  36.090  12.320   3.735
82575W        W46519  11.139  11.268   4.615
82576W        W46520  38.870  33.925  13.026
82577W        W46521  37.465  29.458   0.794
82578W        W46522  12.690  31.961  10.089
82579W        W46523   2.821  42.288   2.246
82580W        W46524   1.305  15.135  10.899
82581W        W46525  24.152  19.227   2.374
82582W        W46526  23.989  12.232   1.253
82583W        W46527  41.471  39.438  12.491
82584W        W46528   2.767   1.944  10.578
82585W        W46529  44.791   0.270   0.857
82586W        W46530  26.978  22.198  11.403
82587W        W46531  40.848  42.934  14.924
82588W        W46532  12.733  13.745  12.472
82589W        W46533   2.751  40.331  11.092
82590W        W46534  19.559  32.013   0.813
82591W        W46535  23.206  30.455   2.403
82592W        W46536  44.292  24.573  10.004
82593W        W46537  31.093   8.856  11.596
82594W        W46538  15.281  38.854   0.832
82595W        W46539  41.328  27.146  12.981
82596W        W46540  31.425  26.478   2.747
82597W        W46541  16.184  43.895  10.487
82598W        W46542  44.355  30.982   2.408
82599W        W46543  31.092   5.740   2.674
82600W        W46544  30.989   3.918  14.485
82601W        W46545  33.908  28.441  11.568
82602W        W46546   5.268  36.555  11.475
82603W        W46547   7.897  20.628   0.377
82604W        W46548  28.653  32.917   2.855
82605W        W46549  37.917   7.777   2.196
82606W        W46550  44.772   2.862  10.941
82607W        W46551  14.246  39.380   1.374
82608W        W46552  43.313  18.115   4.798
82609W        W46553   0.892  24.696  12.466
82610W        W46554  29.531  40.943   5.568
82611W        W46555  30.524  13.637   1.907
82612W        W46556  26.162  43.435  13.318
82613W        W46557   6.254  33.966  10.951
82614W        W46558  42.397  22.246  14.008
82615W        W46559   8.696  34.576  12.544
82616W        W46560  23.534  40.373   4.119
82617W        W46561  14.617   6.204   0.430
82618W        W46562   1.756   1.865  12.469
82619W        W46563  23.226   7.699  10.489
82620W        W46564  10.645  31.070   1.278
82621W        W46565  19.185   0.915   4.771
82622W        W46566   4.248  28.021  10.958
82623W        W46567  19.163  15.729  14.514
82624W        W46568  37.543  14.734  11.574
82625W        W46569  22.057  17.151   0.817
82626W        W46570  44.982  33.604  11.499
82627W        W46571  44.796  43.932  14.377
82628W        W46572   7.807  40.827   1.404
82629W        W46573  41.812  30.560  11.929
82630W        W46574  30.118  11.758  12.363
82631W        W46575  13.311   4.932  11.985
82632W        W46576  23.030  21.601   2.844
82633W        W46577  26.105  29.979   3.636
82634W        W46578  31.082   7.722  13.329
82635W        W46579  28.109  27.631  11.938
82636W        W46580  38.001  25.684  13.895
82637W        W46581  41.998  32.954  12.013
82638W        W46582  22.250  25.180  14.797
82639W        W46583  44.910  34.583   0.807
82640W        W46584   5.710   3.330  14.359
82641W        W46585  20.251  18.642  14.355
82642W        W46586   7.341  20.208  12.481
82643W        W46587   4.439   7.669  14.276
82644W        W46588  14.246   1.917   0.466
82645W        W46589  27.017  17.142   2.317
82646W        W46590   4.225  19.550  13.942
82647W        W46591  39.515  26.168  13.006
82648W        W46592  30.641  32.543  11.002
82649W        W46593  24.974  39.548  10.494
82650W        W46594  17.165  10.761  13.513
82651W        W46595  34.023   7.827  12.366
82652W        W46596  44.992  37.013  12.033
82653W        W46597   7.790  27.530  14.409
82654W        W46598  28.181  40.492   3.314
82655W        W46599  10.227  31.483   1.808
82656W        W46600  28.057  39.533   4.650
82657W        W46601  16.199  39.979  11.029
82658W        W46602  17.174  41.892   4.171
82659W        W46603  37.847  15.163   4.749
82660W        W46604  11.320  44.452   0.467
82661W        W46605  35.924   3.879  14.870
82662W        W46606  22.995  44.452  12.376
82663W        W46607  34.494  26.072  14.862
82664W        W46608  38.355  23.182  14.375
82665W        W46609  27.665  11.686  14.836
82666W        W46610   3.773  37.854   4.704
82667W        W46611  18.139  42.009  11.988
82668W        W46612  33.499  19.267   1.769
82669W        W46613  19.760  19.608   3.840
82670W        W46614  20.675   4.710   4.816
82671W        W46615   1.776   3.835  12.525
82672W        W46616  36.045  19.590  14.811
82673W        W46617  27.017  41.884   4.241
82674W        W46618  16.715  36.465   3.671
82675W        W46619  40.479  20.729   3.658
82676W        W46620  44.364  37.566   0.790
82677W        W46621  17.602  35.901  13.958
82678W        W46622   2.377  23.612   2.229
82679W        W46623  27.448   1.781  13.844
82680W        W46624  37.381   4.759  13.459
82681W        W46625  30.159  16.763   3.306
82682W        W46626  15.672  11.368   3.214
82683W        W46627  39.314  22.631   1.916
82684W        W46628  17.731   4.294   3.686
82685W        W46629  31.951   6.283  10.539
82686W        W46630  35.879   2.457   3.852
82687W        W46631  35.099  34.873   0.812
82688W        W46632  38.409   8.758  14.910
82689W        W46633   6.245  18.712  11.410
82690W        W46634  22.521   3.778  11.061
82691W        W46635   1.345   9.770   2.304
82692W        W46636  44.326  34.884   3.766
82693W        W46637  19.197  34.433  10.443
82694W        W46638  17.572  17.229   0.812
82695W        W46639   6.804  41.826  14.320
82696W        W46640  23.500  30.150  14.857
82697W        W46641  34.414  15.277  14.314
82698W        W46642  24.539  23.046  12.023
82699W        W46643  12.620   1.384  14.405
82700W        W46644  17.620   1.334   2.716
82701W        W46645  25.157  13.830  13.827
82702W        W46646   0.941  23.622   3.248
82703W        W46647  21.183  34.382   4.823
82704W        W46648  29.550   3.326   4.623
82705W        W46649  27.125  36.352   1.920
82706W        W46650  18.214  32.467  14.782
82707W        W46651  27.478  22.147   2.899
82708W        W46652   2.471   6.732   2.372
82709W        W46653   4.363  25.482  12.440
82710W        W46654  12.726  40.473   0.888
82711W        W46655  10.284  35.927   2.415
82712W        W46656  44.385   1.380   2.233
82713W        W46657   7.236  16.712   3.252
82714W        W46658  30.565  15.141   1.320
82715W        W46659  20.529  39.881   2.227
82716W        W46660   8.161  34.991   1.368
82717W        W46661  43.395  25.694  12.474
82718W        W46662  42.367  39.916  14.946
82719W        W46663  21.687  14.169  12.985
82720W        W46664   4.361  15.706   1.316
82721W        W46665  11.131  33.541  11.471
82722W        W46666  40.819   3.896   0.793
82723W        W46667  36.385  17.716  14.424
82724W        W46668  13.163  15.729   2.857
82725W        W46669   2.950  14.330  14.327
82726W        W46670  29.143  16.724   4.301
82727W        W46671  13.708   1.834   1.697
82728W        W46672  14.719  26.988   4.634
82729W        W46673   9.746  44.836  12.531
82730W        W46674  41.041   2.801  10.121
82731W        W46675   7.721  42.891   5.161
82732W        W46676  32.010  35.082  14.018
82733W        W46677  43.969   7.332  13.395
82734W        W46678  23.167  23.995   3.786
82735W        W46679  35.359  34.936   0.373
82736W        W46680  31.515  23.018   1.328
82737W        W46681  38.978  26.478   5.282
82738W        W46682   7.313  41.945   2.293
82739W        W46683  40.039   9.726  13.515
82740W        W46684   3.408  20.752  14.383
82741W        W46685  26.171  19.697  11.037
82742W        W46686  36.374  10.258   0.317
82743W        W46687  11.315   0.743   0.852
82744W        W46688  27.106  23.232  12.451
82745W        W46689  38.824  41.417   2.758
82746W        W46690  30.933   3.301  10.087
82747W        W46691   0.904   4.881  10.434
82748W        W46692  43.932  30.588  14.298
82749W        W46693  22.642  15.643   4.327
82750W        W46694  13.329  40.360  14.895
82751W        W46695  19.578  12.714  14.460
82752W        W46696  33.476  32.049   3.870
82753W        W46697   6.326  23.111   1.890
82754W        W46698  17.723  16.714  14.297
82755W        W46699  43.490  29.138   4.142
82756W        W46700   7.901   2.905   0.910
82757W        W46701  43.901   1.297   4.266
82758W        W46702  14.733  19.704  10.408
82759W        W46703   0.493  14.315   0.445
82760W        W46704   6.367   5.306   0.957
82761W        W46705  37.909  31.986  12.837
82762W        W46706  30.439  37.556  11.099
82763W        W46707  15.728  31.936  13.364
82764W        W46708  22.728  15.276  13.929
82765W        W46709  24.479   6.303   4.341
82766W        W46710   4.926  29.491  10.440
82767W        W46711  29.063   0.282  14.424
82768W        W46712   6.878  37.498  12.021
82769W        W46713   4.349  30.979  13.846
82770W        W46714  38.855   3.424   9.576
82771W        W46715  41.005   9.303   4.609
82772W        W46716  28.150  25.011  12.348
82773W        W46717  40.882  11.343  13.907
82774W        W46718  14.130  18.713  12.930
82775W        W46719  36.593  38.484  13.839
82776W        W46720  12.354   1.898   1.854
82777W        W46721   3.265  25.667  11.567
82778W        W46722  15.225   5.244   0.962
82779W        W46723  28.153  15.683  11.989
82780W        W46724  24.195  38.968  12.074
82781W        W46725  39.863  20.534  13.391
82782W        W46726  13.636  38.911  11.504
82783W        W46727  41.843  22.243   2.281
82784W        W46728   7.386  12.352  12.387
82785W        W46729  35.537  27.134  14.897
82786W        W46730  43.858  35.486   0.862
82787W        W46731  10.672  27.633   3.159
82788W        W46732  27.471  17.278  13.521
82789W        W46733  26.142  35.993   3.721
82790W        W46734   7.223  26.158   3.255
82791W        W46735   6.189   5.348   1.929
82792W        W46736   3.351  19.768  10.454
82793W        W46737  20.054  22.713   3.203
82794W        W46738  23.073  12.218  12.973
82795W        W46739  28.635   7.808   1.844
82796W        W46740  22.693   5.209  14.860
82797W        W46741  20.226  35.430   1.379
82798W        W46742  36.351  38.004   0.949
82799W        W46743  13.200  43.350  13.008
82800W        W46744  17.761  29.981   3.312
82801W        W46745   8.750  16.150  11.611
82802W        W46746  15.678  26.041  10.499
82803W        W46747  24.049  29.171   5.204
82804W        W46748  31.431  35.926  12.826
82805W        W46749  24.015  24.096   2.832
82806W        W46750  35.429   3.896   2.256
82807W        W46751  39.896  37.364  13.360
82808W        W46752  13.263   7.784   4.608
82809W        W46753  22.093  24.596   2.313
82810W        W46754  40.306   1.770  10.579
82811W        W46755  33.556   5.432  11.486
82812W        W46756  19.703  23.088  12.349
82813W        W46757   0.877  26.683   0.769
82814W        W46758   2.817  31.495  13.443
82815W        W46759  28.019  39.422   1.810
82816W        W46760   9.747   6.763  12.847
82817W        W46761  28.482  31.910   2.776
82818W        W46762  29.510  30.118  13.348
82819W        W46763  17.561  22.240  10.958
82820W        W46764  39.401  36.356   2.896
82821W        W46765  19.131  39.353  11.604
82822W        W46766   7.679  27.549  11.026
82823W        W46767   1.284   5.429  10.134
82824W        W46768  34.044  27.535   3.380
82825W        W46769  20.536  26.095   0.792
82826W        W46770  10.713  20.727   4.799
82827W        W46771  12.235  41.972  13.518
82828W        W46772  18.584  42.509   3.267
82829W        W46773  42.993  12.729   0.348
82830W        W46774  34.107  21.070  10.056
82831W        W46775  31.502  42.375  13.490
82832W        W46776  39.987   2.734   1.787
82833W        W46777  26.041  27.467  10.426
82834W        W46778  31.146  43.431  10.949
82835W        W46779   7.699   7.749   4.320
82836W        W46780  36.568  19.557   0.323
82837W        W46781  36.019  31.041  14.805
82838W        W46782   4.763  29.645  12.551
82839W        W46783   0.437  42.379   4.687
82840W        W46784  36.051   4.315   1.438
82841W        W46785  37.395  18.105  12.913
82842W        W46786   5.699  39.369   4.298
82843W        W46787   6.388  11.349  11.403
82844W        W46788  28.577  31.073   4.729
82845W        W46789  13.273  28.161  10.644
82846W        W46790   0.267  14.138   3.797
82847W        W46791  16.709  27.453  10.566
82848W        W46792  35.379   9.649  14.396
82849W        W46793  13.600  35.523   3.316
82850W        W46794  18.598  44.413   9.978
82851W        W46795  16.643  23.721   4.161
82852W        W46796  17.599  17.086   1.809
82853W        W46797   6.270   6.906  14.459
82854W        W46798  16.694   0.936  13.847
82855W        W46799  19.571   6.810  14.797
82856W        W46800  27.011  13.126   3.676
82857W        W46801   0.490  44.782  14.002
82858W        W46802  32.093  23.088   1.867
82859W        W46803  35.596   7.838   4.707
82860W        W46804  15.677   9.395   5.242
82861W        W46805  44.790   6.781  12.413
82862W        W46806  31.140  23.715   0.766
82863W        W46807  38.390  21.113  12.954
82864W        W46808  20.253  15.126   4.286
82865W        W46809  23.987  24.070   1.870
82866W        W46810  40.917   8.177   4.162
82867W        W46811  12.819   7.401  14.342
82868W        W46812  21.610  13.651   0.933
82869W        W46813   9.300  44.424  14.838
82870W        W46814  14.112  20.706   4.326
82871W        W46815  25.554  20.701  12.541
82872W        W46816  17.794  26.703   3.227
82873W        W46817  17.130  35.488  11.517
82874W        W46818   0.389  31.570   2.870
82875W        W46819  15.793  11.760   0.379
82876W        W46820  41.524  34.506  13.028
82877W        W46821  32.448   7.791   4.173
82878W        W46822   9.273  41.388  13.511
82879W        W46823   0.303  34.542   0.275
82880W        W46824  26.665  30.946  14.365
82881W        W46825  24.605   9.767   2.316
82882W        W46826  19.533  34.069  12.091
82883W        W46827  23.018  29.080  12.835
82884W        W46828  38.924  21.522  13.043
82885W        W46829  10.637  13.326  14.965
82886W        W46830  32.958   1.801  14.777
82887W        W46831   7.849  36.087   4.178
82888W        W46832  19.721   6.259   2.195
82889W        W46833  11.673  43.320  13.010
82890W        W46834  10.659   4.353  13.916
82891W        W46835  32.062   9.160  11.462
82892W        W46836  10.313   0.431  12.881
82893W        W46837  26.198   3.235   0.967
82894W        W46838   8.792  38.541  11.112
82895W        W46839  24.109   9.356   4.838
82896W        W46840  17.582  23.213   3.846
82897W        W46841  19.131  30.559   2.396
82898W        W46842  38.429  44.898   2.206
82899W        W46843  29.174  20.140   2.747
82900W        W46844  39.027  28.483  12.014
82901W        W46845  23.170  23.121  11.536
82902W        W46846  40.491  15.706   0.908
82903W        W46847  20.199  19.749  14.858
82904W        W46848  28.523   6.840   0.462
82905W        W46849  42.355  15.611  12.871
82906W        W46850  31.065  27.108  13.523
82907W        W46851   9.346  11.827  13.512
82908W        W46852  17.167  28.680  12.461
82909W        W46853  12.172   9.849  10.428
82910W        W46854   1.343  15.663  11.465
82911W        W46855   3.950  38.333  13.368
82912W        W46856  32.402   1.881  10.903
82913W        W46857  23.712  20.259   1.706
82914W        W46858  16.190  18.581  14.508
82915W        W46859  14.733  21.527   2.776
82916W        W46860  27.005  32.124   4.615
82917W        W46861  14.615  24.175  12.026
82918W        W46862  42.996   3.336  13.821
82919W        W46863   9.261  26.191  13.904
82920W        W46864  12.717  34.983  12.013
82921W        W46865  26.204  17.238   4.190
82922W        W46866   3.768  42.887  13.894
82923W        W46867  40.920  40.836   3.174
82924W        W46868  17.273  15.737  13.964
82925W        W46869  37.384  26.178   1.816
82926W        W46870  36.503   8.657  14.005
82927W        W46871   1.745  19.684  14.442
82928W        W46872  10.348  23.618  12.561
82929W        W46873  13.769  13.783   2.891
82930W        W46874   8.818  10.302   4.161
82931W        W46875  19.106   1.459  11.462
82932W        W46876  26.635   9.654  12.528
82933W        W46877  25.983   5.403  13.993
82934W        W46878  23.628  16.292   1.272
82935W        W46879   1.957  31.130  11.890
82936W        W46880  35.894   7.750  11.076
82937W        W46881   5.347  20.179   4.338
82938W        W46882  22.559  32.926  13.896
82939W        W46883   8.683  15.790   0.893
82940W        W46884  42.857  38.481  12.847
82941W        W46885  24.165  42.846  12.920
82942W        W46886  17.064  25.549  14.365
82943W        W46887  24.631  10.260  11.486
82944W        W46888   0.951  30.090  14.006
82945W        W46889   2.952  29.476   2.194
82946W        W46890  36.500   7.170  11.371
82947W        W46891   9.363   8.253  13.914
82948W        W46892  30.001  26.522   1.761
82949W        W46893  41.897   8.248  12.034
82950W        W46894  14.297  36.349  11.994
82951W        W46895  26.512   9.731  10.554
82952W        W46896   9.836  21.591  13.446
82953W        W46897   6.232  25.205   5.309
82954W        W46898  22.214   8.898  14.858
82955W        W46899  18.640   3.878  11.566
82956W        W46900   6.859   1.458   0.901
82957W        W46901  35.076  19.756   4.777
82958W        W46902  29.603  19.734   2.850
82959W        W46903  32.979  38.978  11.558
82960W        W46904   5.330  11.652   1.450
82961W        W46905  27.049   3.830  12.857
82962W        W46906  24.061   3.820   4.320
82963W        W46907  14.141  31.030  14.455
82964W        W46908  25.480  23.663  13.362
82965W        W46909   6.691  29.498  13.453
82966W        W46910  30.018  21.720  14.423
82967W        W46911  28.643  12.646  11.129
82968W        W46912  39.864  34.561   0.431
82969W        W46913  35.425  27.623  12.070
82970W        W46914  41.791  44.010  14.938
82971W        W46915  20.195   3.873  12.347
82972W        W46916  37.574  24.478   0.925
82973W        W46917  17.080  37.866  14.400
82974W        W46918  40.422   4.759  14.946
82975W        W46919  44.965  28.435   4.199
82976W        W46920  19.679  24.974  10.548
82977W        W46921  32.989  38.965   3.835
82978W        W46922  27.475  27.568  12.079
82979W        W46923   1.747  35.483   3.331
82980W        W46924   8.834  40.970  11.108
82981W        W46925  14.665  14.270  13.410
82982W        W46926  35.468  22.117  13.414
82983W        W46927  42.525  42.391   0.261
82984W        W46928  27.967  13.121   2.899
82985W        W46929  14.702  37.045  14.834
82986W        W46930  36.427  40.440   4.678
82987W        W46931   9.696  34.405   0.904
82988W        W46932  34.910   2.382  12.567
82989W        W46933  44.382  10.725  13.533
82990W        W46934  30.070  40.039  13.435
82991W        W46935   2.384  41.312   3.738
82992W        W46936   6.225  34.107   1.224
82993W        W46937  32.393  20.647  11.100
82994W        W46938  39.021   3.943   1.748
82995W        W46939  36.036  43.441   2.231
82996W        W46940  33.012  21.605  14.354
82997W        W46941  25.179  13.306   2.737
82998W        W46942  44.422   9.710  10.405
82999W        W46943  10.377  28.558  12.551
83000W        W46944   9.877  27.037   5.666
83001W        W46945  24.557   6.920  11.926
83002W        W46946  39.832  20.249  12.841
83003W        W46947   9.219  10.143   0.291
83004W        W46948  35.528  12.318   4.733
83005W        W46949  38.973  38.876  13.820
83006W        W46950  18.562  42.288   1.900
83007W        W46951  34.046  25.155   2.886
83008W        W46952  10.695  13.607   3.860
83009W        W46953   7.352   6.822  12.020
83010W        W46954   3.851  14.630   2.197
83011W        W46955  38.490  41.293   2.902
83012W        W46956  22.141  37.490   1.706
83013W        W46957  14.696  42.302   4.717
83014W        W46958  43.395  32.937  14.423
83015W        W46959  25.712   9.713   3.166
83016W        W46960   6.811  40.800   1.449
83017W        W46961  21.245  38.065  14.949
83018W        W46962   6.738  36.928   4.270
83019W        W46963   0.829  32.024  14.881
83020W        W46964   9.264   2.438   2.678
83021W        W46965  25.676   3.783  12.366
83022W        W46966   8.766  32.892  10.550
83023W        W46967   6.288  30.099  10.904
83024W        W46968   4.262  44.828  14.796
83025W        W46969   6.784  34.017   1.821
83026W        W46970  15.603   9.802   1.779
83027W        W46971  20.051  41.313   1.231
83028W        W46972  42.981  25.110  12.093
83029W        W46973  17.794  39.902   1.876
83030W        W46974  27.178  15.157  11.973
83031W        W46975   4.798  31.631  11.597
83032W        W46976  12.762  42.302   3.709
83033W        W46977  11.288  28.528   4.747
83034W        W46978   4.445  35.461   1.438
83035W        W46979  30.544  18.738   2.809
83036W        W46980  40.359  30.139   4.655
83037W        W46981  15.657  38.015  14.986
83038W        W46982  15.781  40.543   2.760
83039W        W46983  15.582  19.223   9.960
83040W        W46984  28.032  24.158  11.597
83041W        W46985  16.581  21.131   1.908
83042W        W46986  12.144  41.445   2.717
83043W        W46987  21.557  39.483  10.572
83044W        W46988  29.161  14.601  11.901
83045W        W46989   1.943  22.201   2.694
83046W        W46990  25.652  24.083   4.601
83047W        W46991  36.073  25.475  14.893
83048W        W46992  25.637   2.780  10.536
83049W        W46993   0.387   3.852   1.703
83050W        W46994  37.896  16.674  14.458
83051W        W46995  39.900  16.310  12.057
83052W        W46996  11.815  39.372  14.511
83053W        W46997  27.458  16.667   1.342
83054W        W46998  35.013  41.029  12.088
83055W        W46999  43.920  28.436   3.846
83056W        W47000  35.880  29.515  11.371
83057W        W47001  30.925  26.699   1.333
83058W        W47002  38.568  43.435  10.484
83059W        W47003  37.519  19.592   2.278
83060W        W47004  29.616  31.078  14.285
83061W        W47005  32.922  36.510   3.830
83062W        W47006  15.095  16.713  11.520
83063W        W47007   5.277  24.630   3.739
83064W        W47008  42.497  31.634  14.398
83065W        W47009   3.294  10.153  10.574
83066W        W47010   9.319  33.449   3.249
83067W        W47011  38.354   2.413   1.832
83068W        W47012  13.116   0.250   4.630
83069W        W47013   0.259  18.602   4.239
83070W        W47014   3.428  24.078  14.832
83071W        W47015   2.327   4.294   3.320
83072W        W47016  37.412   8.852   1.447
83073W        W47017  44.944  21.238   3.168
83074W        W47018  22.730   2.362  14.507
83075W        W47019   6.376  26.639  10.973
83076W        W47020  10.692  28.076  13.544
83077W        W47021  38.825  42.934  10.597
83078W        W47022  13.669  36.996  11.014
83079W        W47023  13.335  25.058   3.242
83080W        W47024  21.020  24.482  10.979
83081W        W47025   3.740  13.686   3.268
83082W        W47026  29.051  42.994   5.769
83083W        W47027  38.476  16.314   0.311
83084W        W47028  28.014  44.804  13.975
83085W        W47029  10.202   6.919   4.668
83086W        W47030  32.952  39.898   4.250
83087W        W47031  35.954  25.656   4.607
83088W        W47032  32.997  22.534  11.916
83089W        W47033  39.835  16.734   2.894
83090W        W47034  42.407  21.689   1.426
83091W        W47035   2.808  40.980   1.402
83092W        W47036   5.331  25.038  11.881
83093W        W47037  29.162   2.348   1.400
83094W        W47038  33.597  21.689  14.786
83095W        W47039  33.480  30.150  12.367
83096W        W47040   8.301  28.456   3.802
83097W        W47041  11.259  17.606  12.447
83098W        W47042  32.438  25.527   4.206
83099W        W47043   7.222   9.709   4.300
83100W        W47044   6.691  18.730  12.050
83101W        W47045  43.368  24.624   2.361
83102W        W47046  15.175  33.922   2.790
83103W        W47047   3.710  26.953   1.899
83104W        W47048  14.267  30.634  13.838
83105W        W47049   6.361  44.827   4.621
83106W        W47050   1.735  33.427  11.050
83107W        W47051  43.981  23.055  14.488
83108W        W47052  12.629  32.077   3.715
83109W        W47053   3.752  32.599  13.412
83110W        W47054  38.908  41.313  13.349
83111W        W47055  15.329  44.474  11.094
83112W        W47056  36.433   8.856   0.348
83113W        W47057  29.157  42.351  12.046
83114W        W47058  23.623  16.690  14.486
83115W        W47059  25.709   8.894   3.689
83116W        W47060  12.725  28.144  13.955
83117W        W47061   3.262   9.262   1.809
83118W        W47062   8.860  36.920   2.324
83119W        W47063   0.971  41.979   4.716
83120W        W47064  29.592  33.463  14.768
83121W        W47065  41.971  34.004   1.809
83122W        W47066  11.677   0.842  13.064
83123W        W47067  44.428   1.771  14.827
83124W        W47068   0.480  37.534   4.711
83125W        W47069  24.143  30.626   3.285
83126W        W47070  12.827  24.534   3.688
83127W        W47071  28.960   9.360  11.910
83128W        W47072  12.244  30.059   9.482
83129W        W47073  33.026   0.881  13.806
83130W        W47074  14.180  11.836  12.561
83131W        W47075  28.091  27.595   0.827
83132W        W47076   9.672  37.056   1.351
83133W        W47077  13.185  37.883  12.956
83134W        W47078   4.858   7.806  12.886
83135W        W47079   8.222  23.572   2.419
83136W        W47080  18.740  29.655  12.424
83137W        W47081  15.182   9.152  12.469
83138W        W47082  29.665  16.295  12.467
83139W        W47083  24.171   2.305  13.487
83140W        W47084  27.555   5.821  11.539
83141W        W47085  15.643  41.966  13.957
83142W        W47086  10.693   6.812   2.686
83143W        W47087  11.804  28.973  14.976
83144W        W47088  36.566   4.413   0.418
83145W        W47089  40.987  32.912   3.192
83146W        W47090  35.871  42.926   1.258
83147W        W47091  21.160  40.858  11.375
83148W        W47092  21.244  30.056  14.804
83149W        W47093   6.219   5.240  10.556
83150W        W47094  32.050  27.623  10.564
83151W        W47095  39.993  32.069   4.802
83152W        W47096  31.496  17.748  13.821
83153W        W47097  18.647  24.612   3.747
83154W        W47098   2.802  20.052   2.192
83155W        W47099  35.586  39.935   4.808
83156W        W47100  38.443  19.122   2.662
83157W        W47101   1.855   4.253  12.466
83158W        W47102   6.245  36.480  13.542
83159W        W47103  39.326  35.055  14.919
83160W        W47104  13.108  39.408  11.607
83161W        W47105   0.424  19.127   4.751
83162W        W47106   8.814  42.840   0.841
83163W        W47107  14.138   1.855   3.365
83164W        W47108  31.978  35.485   4.211
83165W        W47109   1.274  27.983   1.930
83166W        W47110   9.798  41.919   4.261
83167W        W47111  32.527   6.355  11.421
83168W        W47112  30.939  27.960   2.709
83169W        W47113   0.249  29.957   4.611
83170W        W47114   9.769  14.172  11.406
83171W        W47115  43.858  30.140   3.150
83172W        W47116  21.185  16.142  13.349
83173W        W47117   7.342  19.610   3.333
83174W        W47118  25.139  40.815  12.474
83175W        W47119  14.752  43.346   1.276
83176W        W47120  40.986   6.280  12.393
83177W        W47121  20.680  44.294  10.476
83178W        W47122  12.813  24.024  10.954
83179W        W47123  32.035  18.196   1.774
83180W        W47124   3.902  39.453   4.801
83181W        W47125  19.204  21.044   3.339
83182W        W47126   4.829  42.305  13.040
83183W        W47127  30.015  15.795  14.919
83184W        W47128   5.857  18.150   1.788
83185W        W47129  26.039  31.956  14.775
83186W        W47130  19.663   8.705  10.997
83187W        W47131   9.191   1.758   1.775
83188W        W47132  21.236   5.823   0.757
83189W        W47133   9.874  31.549   2.215
83190W        W47134  13.641  32.618   1.827
83191W        W47135  42.440   3.305   0.847
83192W        W47136  22.659  35.954   0.425
83193W        W47137  10.728  37.576   1.897
83194W        W47138  39.402  23.161   4.630
83195W        W47139   7.329  35.408   0.882
83196W        W47140   8.759  40.342   0.968
83197W        W47141  36.507  39.416  10.903
83198W        W47142  26.958  42.920   4.836
83199W        W47143  17.629  16.804  11.103
83200W        W47144   0.441  25.552  14.433
83201W        W47145  34.014  40.460  11.562
83202W        W47146   5.353  14.108   0.893
83203W        W47147   4.429  30.512   0.763
83204W        W47148   9.271   1.736   2.739
83205W        W47149  12.249  39.013   4.763
83206W        W47150  28.022  14.257   2.716
83207W        W47151  35.600  20.701   2.715
83208W        W47152  39.979  12.786   0.791
83209W        W47153  42.412  16.237  12.987
83210W        W47154  32.118  31.969  12.947
83211W        W47155  40.856  11.142   3.782
83212W        W47156  44.358  31.130   0.370
83213W        W47157  24.701   2.319   1.379
83214W        W47158  14.274  22.627   4.704
83215W        W47159  17.629  17.107  13.460
83216W        W47160   8.769   4.842  12.093
83217W        W47161  28.674  35.412   2.353
83218W        W47162  44.875   7.182   3.338
83219W        W47163  11.321   0.463  10.536
83220W        W47164  26.618  43.921  13.475
83221W        W47165   8.232  40.390   0.308
83222W        W47166   0.340   9.383  10.444
83223W        W47167  20.665   4.748  14.844
83224W        W47168   5.866  23.642  12.860
83225W        W47169   5.278   8.666  10.431
83226W        W47170  10.859  31.090  14.446
83227W        W47171   5.818  35.946   3.790
83228W        W47172  11.163  44.915  14.420
83229W        W47173  14.771  34.998   0.740
83230W        W47174  14.127  24.594   1.874
83231W        W47175  24.145   2.352   1.228
83232W        W47176   0.276  23.530   3.767
83233W        W47177  27.677  27.979  14.857
83234W        W47178  20.636  43.955  13.479
83235W        W47179  23.705  36.050   0.848
83236W        W47180  28.604  34.463   3.770
83237W        W47181  23.603  26.653  11.409
83238W        W47182  30.601  44.305   4.827
83239W        W47183   3.752   4.740   2.800
83240W        W47184   7.875  25.581   1.276
83241W        W47185  21.192  43.916   4.764
83242W        W47186  32.491  43.773   0.953
83243W        W47187  34.076  19.683   1.448
83244W        W47188  34.038  10.143   1.395
83245W        W47189  10.786  43.442   1.887
83246W        W47190  28.044  17.203   1.847
83247W        W47191  18.197  16.685   4.653
83248W        W47192  30.948  29.993  13.322
83249W        W47193   6.840  23.511   3.387
83250W        W47194  40.023  25.082   1.275
83251W        W47195  11.707  39.410   2.405
83252W        W47196  41.827  42.337   0.310
83253W        W47197  12.259  34.524   4.837
83254W        W47198  14.246  43.876   0.334
83255W        W47199  40.310  19.702  13.899
83256W        W47200  43.287   9.702  13.490
83257W        W47201  43.924  19.281  14.759
83258W        W47202  16.180  31.132   1.868
83259W        W47203  35.077  34.953  13.848
83260W        W47204  13.305   8.316   0.310
83261W        W47205  42.002   2.875  10.152
83262W        W47206  43.339  23.098  14.939
83263W        W47207  17.770  18.599  14.890
83264W        W47208  34.917  30.088  13.421
83265W        W47209   6.727   9.872   2.830
83266W        W47210  36.981   7.776   4.720
83267W        W47211  11.677  23.626   4.792
83268W        W47212  16.153  24.715  12.974
83269W        W47213  10.358  15.171   3.664
83270W        W47214  41.537  33.034   1.451
83271W        W47215  12.648  43.872   4.298
83272W        W47216  38.350  16.175   1.806
83273W        W47217  41.796  28.957   3.744
83274W        W47218  34.119   4.429   2.806
83275W        W47219  31.137  20.207   2.860
83276W        W47220  10.293  32.582   2.186
83277W        W47221  26.516  36.080  12.369
83278W        W47222   2.878  29.008   4.142
83279W        W47223   8.886  26.036  12.837
83280W        W47224  23.165  37.377   0.304
83281W        W47225  35.599  36.875  13.888
83282W        W47226  29.527  18.558   4.742
83283W        W47227  16.143   4.237   0.358
83284W        W47228  12.823  15.149   2.274
83285W        W47229  35.006  43.916   2.858
83286W        W47230  20.617  42.410   3.678
83287W        W47231  29.530  16.629   1.361
83288W        W47232  37.494  26.082  10.563
83289W        W47233   0.955  12.351   4.651
83290W        W47234   5.867  34.113  10.557
83291W        W47235   9.649  36.362   0.938
83292W        W47236  15.315  15.580  13.884
83293W        W47237  39.343  32.482   3.788
83294W        W47238  41.401  13.318  12.093
83295W        W47239   8.849  12.127   2.729
83296W        W47240  18.225  36.455   0.848
83297W        W47241  30.998  18.687   0.301
83298W        W47242   1.783  38.502  14.471
83299W        W47243  22.090   4.358   1.335
83300W        W47244  10.662  33.405  10.416
83301W        W47245  12.230  36.932  14.782
83302W        W47246   2.345  26.647  12.840
83303W        W47247   9.370  31.478  12.343
83304W        W47248  10.202  19.095   5.304
83305W        W47249  13.681  20.124  13.817
83306W        W47250   1.381   6.678   1.361
83307W        W47251  25.200  25.071  12.860
83308W        W47252  22.032  33.937   1.360
83309W        W47253   2.389  24.109   2.804
83310W        W47254   3.758   7.792  10.612
83311W        W47255  42.350   5.244   0.358
83312W        W47256  35.461   7.832  11.029
83313W        W47257  27.970  35.017   1.821
83314W        W47258  16.778  15.697  10.523
83315W        W47259  10.296  43.506   3.866
83316W        W47260   8.336  37.906   2.756
83317W        W47261   8.658   8.654   2.671
83318W        W47262  39.419  38.041   4.807
83319W        W47263  37.578   9.771   2.753
83320W        W47264   3.850  41.461  14.304
83321W        W47265  37.455  44.858  13.432
83322W        W47266  44.464  17.598  10.958
83323W        W47267   4.734  43.357   3.201
83324W        W47268  13.346  42.929   0.784
83325W        W47269  27.111  23.520   1.232
83326W        W47270  35.920  30.569  11.415
83327W        W47271  42.375  15.312  13.847
83328W        W47272  30.924  17.704  10.935
83329W        W47273   8.272  44.398  10.412
83330W        W47274   6.343   0.444   4.742
83331W        W47275   3.371  40.998   1.265
83332W        W47276  40.408   1.787  14.831
83333W        W47277   4.308  26.162   1.323
83334W        W47278  40.515  19.277  11.392
83335W        W47279  32.500   4.270   3.652
83336W        W47280  13.245  22.665   4.138
83337W        W47281   5.757  31.602   0.339
83338W        W47282   9.712  27.463   2.183
83339W        W47283  16.216  18.272  12.079
83340W        W47284  26.584  40.038   9.461
83341W        W47285  30.951  35.489   0.780
83342W        W47286   1.763  32.942  14.354
83343W        W47287  26.659   1.309   4.258
83344W        W47288   1.421  21.572  14.822
83345W        W47289  23.096  20.749   4.241
83346W        W47290  22.528  29.519   4.731
83347W        W47291  43.405  44.776   1.749
83348W        W47292  16.781  31.074   4.230
83349W        W47293   5.249   8.877  13.016
83350W        W47294  18.676  22.008   3.670
83351W        W47295  11.149   5.911   0.356
83352W        W47296  21.185  33.936   3.807
83353W        W47297  12.660   2.822   3.179
83354W        W47298   0.389   7.678   2.190
83355W        W47299  26.490  23.731  11.945
83356W        W47300  25.974  20.547   1.853
83357W        W47301  12.352  22.010   4.620
83358W        W47302  34.911   1.756  10.053
83359W        W47303  17.307  11.232   5.198
83360W        W47304  21.256  19.742   4.280
83361W        W47305  30.656  42.987  11.993
83362W        W47306  16.712  42.863  14.489
83363W        W47307  35.913  17.581   3.805
83364W        W47308  13.814  31.985   3.658
83365W        W47309  20.688   1.921   2.243
83366W        W47310   9.739   0.263   3.774
83367W        W47311  22.501  25.170   3.358
83368W        W47312  16.629   7.896   2.667
83369W        W47313   2.966  32.409   3.312
83370W        W47314  11.801  30.041  14.329
83371W        W47315  31.548  39.352   2.785
83372W        W47316  42.979  26.555   0.419
83373W        W47317  37.967   4.389  13.500
83374W        W47318  24.072  31.619   0.805
83375W        W47319  43.900  11.682  14.824
83376W        W47320  15.751  21.171  12.402
83377W        W47321  32.578  41.955   0.255
83378W        W47322  17.559  33.612   4.833
83379W        W47323  25.475  20.602   2.837
83380W        W47324  26.604  16.133   2.875
83381W        W47325  18.107  33.131   1.319
83382W        W47326   4.932  32.398   0.734
83383W        W47327  10.155  28.034   1.747
83384W        W47328   2.778  15.148  14.403
83385W        W47329  39.490  24.479   4.707
83386W        W47330  33.550  35.893  13.325
83387W        W47331  23.041  28.180  10.421
83388W        W47332  32.030  11.680   3.735
83389W        W47333  40.366  38.447   2.300
83390W        W47334  35.854  24.035   4.743
83391W        W47335  30.028   8.174  13.493
83392W        W47336  25.532  28.570  11.393
83393W        W47337  25.615  26.187   4.166
83394W        W47338  22.528  32.562   0.921
83395W        W47339  10.332   2.741   4.277
83396W        W47340   6.866   5.269   4.278
83397W        W47341  36.503  32.547  14.310
83398W        W47342  16.160  37.039   1.437
83399W        W47343  10.798  23.026   1.905
83400W        W47344   5.357  35.921  12.398
83401W        W47345  43.880  39.968   4.604
83402W        W47346   2.906  23.536   2.400
83403W        W47347  31.456  20.740   2.267
83404W        W47348  14.245  41.359   0.248
83405W        W47349   6.921  21.559  13.310
83406W        W47350  13.348  23.050  11.414
83407W        W47351  34.893  14.667   1.835
83408W        W47352   5.716   8.374  12.851
83409W        W47353  37.987   0.859   1.332
83410W        W47354  30.548  23.114   3.658
83411W        W47355  22.011  39.903  12.941
83412W        W47356  28.982  18.125   1.753
83413W        W47357  38.885  32.142   1.881
83414W        W47358   9.252  22.625  12.511
83415W        W47359   0.448   8.867  11.971
83416W        W47360  36.445   6.708  13.433
83417W        W47361   6.352   9.393   1.251
83418W        W47362   4.425  32.576  13.957
83419W        W47363   1.399  24.704  13.989
83420W        W47364  20.721   1.844  13.397
83421W        W47365  19.152  26.621   3.304
83422W        W47366  29.937   5.233  12.864
83423W        W47367  27.019   5.281   2.687
83424W        W47368  30.062  23.154   4.828
83425W        W47369   3.729  40.976   3.162
83426W        W47370  26.145  10.167   0.264
83427W        W47371   1.924  29.987  14.026
83428W        W47372  44.960  20.550   4.719
83429W        W47373  31.047  29.130  13.370
83430W        W47374   7.704  28.644  13.486
83431W        W47375   9.344  21.110   2.178
83432W        W47376  23.162  18.768   2.844
83433W        W47377  12.614  35.568  12.486
83434W        W47378   4.224  38.449  14.013
83435W        W47379   0.399  10.172   3.251
83436W        W47380  14.803  18.135  14.414
83437W        W47381  31.004  31.526   3.844
83438W        W47382   3.232  44.414  11.520
83439W        W47383  13.741   0.473  10.996
83440W        W47384  18.059  23.176   3.220
83441W        W47385   2.850   2.885  14.428
83442W        W47386  25.004  28.434  12.403
83443W        W47387  27.594   5.422   1.345
83444W        W47388  42.928   0.484   1.898
83445W        W47389  29.623   9.323   0.317
83446W        W47390  32.469  15.216  12.505
83447W        W47391   1.912  40.367   3.361
83448W        W47392  44.757   4.266  10.524
83449W        W47393  16.152  36.974   3.217
83450W        W47394  26.627   3.458  10.474
83451W        W47395   0.319  36.072   0.427
83452W        W47396   5.304  40.520  12.401
83453W        W47397  23.506  21.583  10.426
83454W        W47398   4.808  16.792  12.998
83455W        W47399  28.135   8.870   1.447
83456W        W47400   8.864  25.503  13.883
83457W        W47401  30.055  37.013   2.226
83458W        W47402  14.223  18.569  11.951
83459W        W47403  28.113   5.295   4.678
83460W        W47404  35.896  33.418  13.337
83461W        W47405   1.930  20.053   3.793
83462W        W47406  11.755  10.275   1.260
83463W        W47407  27.510   2.966  11.403
83464W        W47408  28.548  11.647   0.392
83465W        W47409  11.722  12.256   3.685
83466W        W47410  23.993  25.603  11.860
83467W        W47411  19.666  29.669  10.527
83468W        W47412  22.033  33.417   2.696
83469W        W47413  19.159   1.396   3.263
83470W        W47414  19.090  36.474  14.494
83471W        W47415   4.755  12.151   2.838
83472W        W47416  28.001  19.595  14.448
83473W        W47417   4.775  35.091   2.694
83474W        W47418  17.653  34.558   2.673
83475W        W47419  12.254  32.035  13.926
83476W        W47420   4.766  18.211  11.465
83477W        W47421  24.595  12.687  14.021
83478W        W47422   0.410  27.179   1.275
83479W        W47423  43.013  24.597  12.845
83480W        W47424  19.711  33.129   1.715
83481W        W47425  11.248   8.720   1.870
83482W        W47426  30.569   9.786   0.457
83483W        W47427  31.507  31.454   3.292
83484W        W47428  12.165   1.768   1.237
83485W        W47429   2.907  19.284  13.414
83486W        W47430  24.680   0.407   2.801
83487W        W47431  42.361   5.351   4.711
83488W        W47432  31.940  19.259   0.967
83489W        W47433   6.426  43.417   0.441
83490W        W47434  23.665   6.879  13.395
83491W        W47435  25.657  21.058  11.018
83492W        W47436   9.299  41.494   0.467
83493W        W47437  24.037  41.481   2.846
83494W        W47438  27.188  10.379   0.912
83495W        W47439   3.736  24.601   2.306
83496W        W47440  13.278  29.940   0.265
83497W        W47441  22.218  41.979  10.919
83498W        W47442  39.021  44.898   3.188
83499W        W47443   3.225  34.373   2.239
83500W        W47444  40.511  32.583   2.352
83501W        W47445   2.776  32.610   2.825
83502W        W47446  25.535  25.183   1.401
83503W        W47447  34.916   4.379   4.157
83504W        W47448   6.279  24.990  14.917
83505W        W47449  37.508  40.997  14.381
83506W        W47450  32.075   0.849  14.768
83507W        W47451  32.891  40.336  11.079
83508W        W47452  38.942  27.602   2.846
83509W        W47453  15.125   0.926   2.379
83510W        W47454  14.336  39.944  11.483
83511W        W47455  39.856  11.628  14.456
83512W        W47456   1.262  29.589  13.892
83513W        W47457  42.527   1.468   2.271
83514W        W47458   1.290   3.247  14.325
83515W        W47459  37.412  37.403  10.506
83516W        W47460   9.690  18.782  11.931
83517W        W47461  17.692   4.284  13.934
83518W        W47462  37.074  18.272   3.178
83519W        W47463  39.384   5.856  10.146
83520W        W47464  11.163   3.744   9.507
83521W        W47465  30.488  27.015   0.366
83522W        W47466  38.403  16.169   2.228
83523W        W47467  18.187   7.891   1.445
83524W        W47468  24.712  41.902  13.960
83525W        W47469  14.316  34.979   1.798
83526W        W47470  24.222  39.969  11.073
83527W        W47471   4.782  13.749   0.771
83528W        W47472   5.841  22.241  11.038
83529W        W47473  23.618  26.624  13.492
83530W        W47474  28.977   3.713   2.760
83531W        W47475  16.119  11.348   4.734
83532W        W47476  40.052  32.552  11.437
83533W        W47477  18.185  25.709   0.819
83534W        W47478  17.621  21.098   0.483
83535W        W47479   6.687  25.981   0.303
83536W        W47480  32.027  36.562   5.234
83537W        W47481  43.016   0.335  14.477
83538W        W47482  28.989  18.676   3.778
83539W        W47483  36.895   9.300  12.078
83540W        W47484   6.736   2.887  12.560
83541W        W47485  24.228  18.582   2.696
83542W        W47486  14.108   4.269  11.090
83543W        W47487  27.119  35.457   1.447
83544W        W47488  28.569  44.889  10.409
83545W        W47489  40.884  36.851  10.484
83546W        W47490   8.809   5.730  11.971
83547W        W47491  40.379  38.821   0.370
83548W        W47492  24.197  26.981   4.335
83549W        W47493  39.539  42.020   0.948
83550W        W47494  16.250  39.873  11.494
83551W        W47495  29.029  30.489  14.280
83552W        W47496  42.796  40.367   3.375
83553W        W47497   1.302  12.142   3.265
83554W        W47498  24.184  34.482   3.210
83555W        W47499  19.664  38.556   4.683
83556W        W47500  19.087  41.005   2.330
83557W        W47501  34.947   2.817  14.458
83558W        W47502  18.126  16.228  13.356
83559W        W47503  35.403  36.024  13.053
83560W        W47504   7.179  22.091  10.918
83561W        W47505  33.060  26.608  12.380
83562W        W47506   7.395  17.643  14.998
83563W        W47507  43.420  43.290  11.858
83564W        W47508  36.471   5.385   0.813
83565W        W47509  20.114  23.552   2.872
83566W        W47510  28.477  25.095   2.874
83567W        W47511  36.412  26.176   0.333
83568W        W47512  27.491   6.784  12.421
83569W        W47513  25.972  28.946  11.997
83570W        W47514   9.691   5.407  13.899
83571W        W47515  18.689  12.651  10.074
83572W        W47516  23.698  40.839   4.772
83573W        W47517   2.913  31.966   2.354
83574W        W47518  21.721  42.447   1.833
83575W        W47519   9.842  24.611   0.809
83576W        W47520   7.389  32.568  11.569
83577W        W47521  38.887  44.477   0.753
83578W        W47522  21.233  21.651   2.665
83579W        W47523  32.058  33.462   3.261
83580W        W47524   7.232  25.508   4.123
83581W        W47525  10.877  16.578   4.349
83582W        W47526   4.226  35.088   4.346
83583W        W47527  17.797   7.287   9.984
83584W        W47528  17.797  32.525   2.366
83585W        W47529   5.435  32.894  12.427
83586W        W47530  13.769   1.319  14.304
83587W        W47531  28.653  12.148  11.023
83588W        W47532  26.622  25.478   2.835
83589W        W47533  40.440  27.089  10.509
83590W        W47534  17.225  31.521  13.422
83591W        W47535  15.309  13.842  12.430
83592W        W47536   7.284   1.375  11.379
83593W        W47537   2.236  36.004  14.298
83594W        W47538  28.030   7.188   4.748
83595W        W47539  30.140   7.224   1.852
83596W        W47540   9.804   3.952   4.708
83597W        W47541   0.262  33.543  10.974
83598W        W47542  39.484  26.561   2.725
83599W        W47543  40.327  15.110   3.740
83600W        W47544  17.721  29.560  14.851
83601W        W47545  24.016   3.286  14.768
83602W        W47546  37.868  33.925   3.193
83603W        W47547  24.106  21.722  11.120
83604W        W47548  36.038  34.020   3.297
83605W        W47549  30.446  10.820  12.005
83606W        W47550  10.323  26.535   0.280
83607W        W47551  29.112   2.890  11.942
83608W        W47552  13.189  36.492  10.983
83609W        W47553  20.557  22.527  12.487
83610W        W47554  25.470  24.518   4.688
83611W        W47555   5.399  28.173  14.491
83612W        W47556  36.086  26.158  13.999
83613W        W47557   7.367  28.981  14.843
83614W        W47558  38.868   9.278   3.753
83615W        W47559  16.726  31.910  10.585
83616W        W47560  31.976  20.225   2.732
83617W        W47561   2.394  19.689  10.090
83618W        W47562  31.608  33.049   1.720
83619W        W47563   2.814  14.790  12.544
83620W        W47564   3.391   9.688   3.384
83621W        W47565  10.335   3.329  10.059
83622W        W47566  22.172  38.899  12.077
83623W        W47567  15.814   0.472  12.376
83624W        W47568   1.439   0.941   3.310
83625W        W47569  24.089  39.510   4.172
83626W        W47570  19.239  13.700  11.549
83627W        W47571  44.976  41.295   0.338
83628W        W47572   6.766  26.700   3.721
83629W        W47573  17.799   5.210   4.648
83630W        W47574  31.123   1.256   1.895
83631W        W47575  24.504  42.335   4.351
83632W        W47576  44.841  18.199   4.631
83633W        W47577   5.271   8.812  14.432
83634W        W47578  11.867  11.229  14.508
83635W        W47579  36.358  13.214   2.309
83636W        W47580  18.233  14.661   4.330
83637W        W47581  26.488  15.602   4.301
83638W        W47582  36.889   3.309  10.038
83639W        W47583  12.803  15.698   0.744
83640W        W47584  34.990   6.284   2.708
83641W        W47585  21.563   8.714  12.573
83642W        W47586  44.292  38.900   4.201
83643W        W47587  28.559  31.944  12.422
83644W        W47588  11.270  44.926  12.418
83645W        W47589  35.948  24.534  13.059
83646W        W47590  43.792  23.030   0.926
83647W        W47591  22.505  29.090   3.332
83648W        W47592  29.157  26.065  10.992
83649W        W47593  17.078   1.882  10.054
83650W        W47594  37.358  32.410  11.999
83651W        W47595  40.420  24.018  13.824
83652W        W47596  32.580  37.942  10.923
83653W        W47597  33.484  10.172  10.139
83654W        W47598  32.635  43.363   3.346
83655W        W47599  16.576  33.060  13.456
83656W        W47600  25.018  22.738   0.870
83657W        W47601  31.609  21.235   2.407
83658W        W47602  34.562  35.439   2.398
83659W        W47603   4.288   3.274  14.363
83660W        W47604  26.489  35.986  11.448
83661W        W47605  17.197  37.363   3.866
83662W        W47606  42.286  41.474  13.011
83663W        W47607  44.264  27.511  11.107
83664W        W47608   4.767  22.730  12.920
83665W        W47609   6.289  29.961   3.713
83666W        W47610  10.854  25.082  11.376
83667W        W47611  20.207  22.521  13.526
83668W        W47612  11.653  40.824   3.812
83669W        W47613  10.224  44.391   0.269
83670W        W47614  28.057   7.740  11.604
83671W        W47615  41.333  43.388  14.471
83672W        W47616  43.898  30.542  10.939
83673W        W47617  14.777  33.080   3.280
83674W        W47618  12.763   9.802  10.472
83675W        W47619  37.969  39.936  11.417
83676W        W47620  26.193  43.766   4.324
83677W        W47621   4.427   8.382   1.754
83678W        W47622  43.803  33.054  14.919
83679W        W47623  17.239  42.466   2.748
83680W        W47624  36.360  32.462   0.345
83681W        W47625  18.635   0.933  10.419
83682W        W47626   5.270   1.281  12.483
83683W        W47627  22.056  36.557  12.374
83684W        W47628  22.593  12.680  10.537
83685W        W47629  21.681  32.136  11.997
83686W        W47630   4.901  14.143   0.858
83687W        W47631  16.141  16.766  12.560
83688W        W47632  28.471  26.993   4.750
83689W        W47633  20.161  14.288   1.395
83690W        W47634  42.524  27.983  14.407
83691W        W47635  30.619  19.181   3.321
83692W        W47636  10.698  26.692  13.440
83693W        W47637  19.736  43.935  14.897
83694W        W47638  42.335  42.906  11.960
83695W        W47639   0.387   7.171   2.223
83696W        W47640  12.652  21.122  12.847
83697W        W47641  21.565  31.981   2.813
83698W        W47642   3.748   6.182  13.904
83699W        W47643  25.138   6.205  11.572
83700W        W47644  23.165  13.725   2.750
83701W        W47645   1.887   9.353   1.319
83702W        W47646  37.866  11.718  10.459
83703W        W47647  37.011  26.673  12.378
83704W        W47648  34.999  15.749   2.779
83705W        W47649  13.717   2.847   3.671
83706W        W47650   1.915  38.869  13.028
83707W        W47651  28.121   1.259  11.877
83708W        W47652  43.413  35.929   1.934
83709W        W47653   6.899  13.654   4.681
83710W        W47654  17.113  26.086  10.971
83711W        W47655  25.609  39.518  12.440
83712W        W47656  33.015  44.804  11.377
83713W        W47657  10.169  28.439   2.734
83714W        W47658  41.525  35.015  11.538
83715W        W47659  16.602  31.035   3.641
83716W        W47660   5.377  41.818  13.426
83717W        W47661  28.437  29.442   3.343
83718W        W47662  26.694  37.377   0.360
83719W        W47663   7.699  38.017  13.012
83720W        W47664  31.982   3.867   0.960
83721W        W47665  42.797  17.219  13.307
83722W        W47666  31.437  12.837  14.784
83723W        W47667   2.316  27.195  12.967
83724W        W47668   4.783  21.734  12.340
83725W        W47669   3.365  25.647   1.753
83726W        W47670   4.385  15.320  10.911
83727W        W47671  44.467  38.956  10.054
83728W        W47672  19.123   0.890   4.294
83729W        W47673  30.426  13.802   0.277
83730W        W47674  35.456  43.271   3.228
83731W        W47675  23.680  18.748   2.291
83732W        W47676  28.494   4.900  12.067
83733W        W47677  44.764  40.797   0.962
83734W        W47678  11.235   9.273   2.730
83735W        W47679  22.746  18.205   3.214
83736W        W47680  14.771  22.686   2.679
83737W        W47681  11.627   5.347  10.477
83738W        W47682  25.593   7.841   0.455
83739W        W47683  26.588  38.039  12.394
83740W        W47684   1.957  38.424   1.425
83741W        W47685  10.722  38.567   1.258
83742W        W47686  41.786  24.620  10.525
83743W        W47687   6.423  41.030   0.825
83744W        W47688  40.475  42.445  14.362
83745W        W47689  39.950   2.356  10.453
83746W        W47690  10.667  23.016   1.426
83747W        W47691  37.567  17.570   0.424
83748W        W47692   5.750  37.541   0.792
83749W        W47693  20.560  21.245  13.986
83750W        W47694  17.639   3.733   4.659
83751W        W47695  40.367  30.640  12.549
83752W        W47696  14.740  31.511   0.294
83753W        W47697  10.222  31.938   1.354
83754W        W47698  29.101  12.736   4.724
83755W        W47699  13.765  28.042   1.430
83756W        W47700   6.850  19.158  11.008
83757W        W47701  16.727  44.996   2.286
83758W        W47702  35.028  37.580   3.739
83759W        W47703  27.445  36.955   0.457
83760W        W47704  12.705  30.566  10.590
83761W        W47705  31.936  11.355  14.499
83762W        W47706  24.590  38.453   2.207
83763W        W47707   9.277  22.565  14.511
83764W        W47708  37.424   6.805   4.185
83765W        W47709  14.658   8.803  11.967
83766W        W47710  32.544   7.415   3.203
83767W        W47711  28.604   2.445  10.539
83768W        W47712  13.798  29.594   0.750
83769W        W47713  19.689  24.487  13.383
83770W        W47714  31.419  41.999  12.073
83771W        W47715  29.038   4.304   4.692
83772W        W47716  32.620   5.869  10.634
83773W        W47717   2.315  34.428  12.953
83774W        W47718  20.575  13.154  14.339
83775W        W47719  20.535  13.186   3.194
83776W        W47720  34.074  14.796  11.060
83777W        W47721  24.101  32.611  14.411
83778W        W47722   3.945  36.349   2.801
83779W        W47723   2.458  35.886   3.300
83780W        W47724  27.682  39.323  10.987
83781W        W47725  22.065  16.658   0.830
83782W        W47726  35.503  20.275   4.753
83783W        W47727  42.477  12.168  14.488
83784W        W47728  18.762  30.931  11.974
83785W        W47729  19.726  40.931   4.733
83786W        W47730  26.055   4.893  13.466
83787W        W47731  30.478   7.846   3.705
83788W        W47732  40.039  31.120  14.456
83789W        W47733  33.879  34.550  10.893
83790W        W47734  33.467   5.731  10.494
83791W        W47735   3.435   2.412   3.260
83792W        W47736  42.348  34.071   1.719
83793W        W47737  32.070   3.738  12.063
83794W        W47738  37.378   5.815  14.936
83795W        W47739  20.137   5.795  13.007
83796W        W47740   6.249  29.493  12.940
83797W        W47741   0.844  44.357  13.936
83798W        W47742  20.571  34.868   4.202
83799W        W47743  44.817  37.506  11.892
83800W        W47744   4.883   6.678  13.832
83801W        W47745  22.235  42.976  11.895
83802W        W47746  31.033  22.178  11.974
83803W        W47747  25.673  40.507   2.281
83804W        W47748   5.235  30.577   0.288
83805W        W47749  11.723  37.868  13.893
83806W        W47750  44.432   1.245   2.745
83807W        W47751  18.280  23.728   4.275
83808W        W47752   3.454  39.957   4.700
83809W        W47753  14.283  43.859  14.977
83810W        W47754  35.555  37.423  13.457
83811W        W47755  37.380  43.322  13.796
83812W        W47756  32.961  30.053  13.976
83813W        W47757  17.245  14.153  13.325
83814W        W47758   3.266  26.970   2.414
83815W        W47759  17.128   5.273  12.433
83816W        W47760  35.978  28.665  14.026
83817W        W47761  30.145  38.502   1.215
83818W        W47762  19.211  15.609  10.634
83819W        W47763  24.976   9.312  11.592
83820W        W47764  10.839  41.022   3.862
83821W        W47765  30.645   8.813  14.794
83822W        W47766  14.280   4.330  14.949
83823W        W47767  24.201  35.562   0.299
83824W        W47768   6.848   9.668   3.170
83825W        W47769  14.714  25.540  11.546
83826W        W47770   5.861   4.303  13.878
83827W        W47771   8.739   7.189  13.800
83828W        W47772   2.764   2.264  13.445
83829W        W47773  14.224  21.565   0.889
83830W        W47774  23.168  15.134  14.361
83831W        W47775  10.794  31.419   4.255
83832W        W47776  13.179   4.816   2.207
83833W        W47777  37.032  43.793  12.549
83834W        W47778  23.152  29.040   3.656
83835W        W47779  31.932  25.162  10.626
83836W        W47780   3.900   6.891  10.900
83837W        W47781  19.714  29.973   3.265
83838W        W47782  18.208   0.462   2.850
83839W        W47783   0.299  28.083   3.795
83840W        W47784  38.959   4.258   3.294
83841W        W47785  38.857  15.223   9.979
83842W        W47786  43.961  26.509  12.580
83843W        W47787   3.835   0.267   2.822
83844W        W47788  12.801  43.312  13.409
83845W        W47789   3.258  18.619   5.087
83846W        W47790   7.868  11.345  13.485
83847W        W47791  13.830  12.296  13.024
83848W        W47792  40.356  15.164  14.307
83849W        W47793  21.650  14.135   3.243
83850W        W47794  30.611   4.855  13.036
83851W        W47795   8.359   5.839   0.747
83852W        W47796   0.755  27.576  13.520
83853W        W47797   3.873  29.120   3.763
83854W        W47798  13.785   4.413   2.821
83855W        W47799  34.910  18.604  14.336
83856W        W47800  27.032  29.513   0.925
83857W        W47801  11.179  14.691   0.842
83858W        W47802  44.269   9.334  14.276
83859W        W47803  44.879  15.309   1.247
83860W        W47804  23.666  32.435  11.590
83861W        W47805  23.109  24.478   0.964
83862W        W47806  38.425  21.088   3.651
83863W        W47807  40.949  41.468  14.282
83864W        W47808  21.546  42.515  11.052
83865W        W47809   3.752  40.539  14.369
83866W        W47810  12.257  28.484   9.545
83867W        W47811   8.316  38.429  13.863
83868W        W47812   8.214  42.997  10.462
83869W        W47813   6.857  27.057  11.956
83870W        W47814  36.992  21.651   0.294
83871W        W47815  21.540  39.001   3.673
83872W        W47816   1.284  10.791   3.285
83873W        W47817  17.196  42.338   1.307
83874W        W47818   2.912  26.195   2.227
83875W        W47819  19.740  34.986   2.391
83876W        W47820  18.763   5.227  10.426
83877W        W47821   1.360  30.615   4.649
83878W        W47822   8.840  31.503   0.814
83879W        W47823   4.794  12.610  10.049
83880W        W47824  16.293  32.073   4.226
83881W        W47825  32.909  41.858   2.237
83882W        W47826  27.664  16.296  14.845
83883W        W47827   1.776  40.962   2.242
83884W        W47828  22.995   8.240  10.591
83885W        W47829  40.998  31.956   2.417
83886W        W47830  39.947  16.661  10.585
83887W        W47831  24.090  21.102  14.850
83888W        W47832  43.307  20.269   0.736
83889W        W47833  18.145  32.125   2.330
83890W        W47834  33.536  18.620   0.861
83891W        W47835  41.466  31.446  10.525
83892W        W47836  12.300   7.774  12.050
83893W        W47837  26.631   6.709  11.608
83894W        W47838  23.695   6.792  14.909
83895W        W47839  12.335  40.950  12.969
83896W        W47840   6.328  17.181   3.833
83897W        W47841  34.427  15.741  12.053
83898W        W47842   4.231  32.634   0.955
83899W        W47843  41.918  23.658  10.595
83900W        W47844  32.943   6.290   1.906
83901W        W47845  30.963   2.831  11.875
83902W        W47846  23.640  35.446  13.451
83903W        W47847  35.567   2.373   0.903
83904W        W47848  17.789   3.900   3.159
83905W        W47849   3.265  19.171   0.762
83906W        W47850  31.052   3.268   2.814
83907W        W47851   7.902  33.407  12.528
83908W        W47852  14.162  18.650   3.373
83909W        W47853  28.658  12.362   1.435
83910W        W47854  41.339  30.090  11.855
83911W        W47855  18.077  26.691  13.543
83912W        W47856   9.249  30.053  11.042
83913W        W47857   6.716  34.543   1.311
83914W        W47858  23.212  39.996   3.790
83915W        W47859  37.415  44.945   4.663
83916W        W47860   5.409  11.736  13.463
83917W        W47861  36.562  13.104  13.960
83918W        W47862  12.663  44.286   1.332
83919W        W47863  30.651  26.153  13.424
83920W        W47864  39.037  15.714   5.118
83921W        W47865  25.173  34.477   3.233
83922W        W47866  11.275  10.737  10.635
83923W        W47867  28.661  23.535  14.954
83924W        W47868  31.590  17.739   2.843
83925W        W47869  29.540  19.217  11.573
83926W        W47870  39.346  40.956   2.744
83927W        W47871   9.843  26.145  11.386
83928W        W47872  23.087  24.987   3.352
83929W        W47873   6.765  32.933  12.573
83930W        W47874   9.693  25.067  12.881
83931W        W47875   6.865  10.352  11.499
83932W        W47876  33.517  34.459   3.355
83933W        W47877   6.686   7.244  12.865
83934W        W47878  27.505  42.963   1.897
83935W        W47879  26.463  10.239   2.721
83936W        W47880  11.845   0.989   1.754
83937W        W47881  39.504  22.672   3.381
83938W        W47882  11.256  27.632  11.566
83939W        W47883   4.295  15.599  12.031
83940W        W47884  31.970  28.175   4.153
83941W        W47885   6.392  20.073   0.736
83942W        W47886  15.143  32.500  13.511
83943W        W47887   3.806  31.975  11.908
83944W        W47888  12.792  36.546  10.627
83945W        W47889  25.603  38.063  10.510
83946W        W47890  37.446  14.742   3.658
83947W        W47891  44.771  27.555  11.570
83948W        W47892  30.564  42.351  12.967
83949W        W47893  42.825  13.145  12.882
83950W        W47894  35.395  26.093   2.892
83951W        W47895  25.541  34.477  11.076
83952W        W47896  26.493  27.152   1.836
83953W        W47897  34.594  44.382  14.287
83954W        W47898  16.136  27.515   1.266
83955W        W47899   5.365  20.263   1.400
83956W        W47900  11.298   2.752  11.421
83957W        W47901  34.880   3.370  13.839
83958W        W47902  30.098  29.627  13.452
83959W        W47903   6.363  44.350   3.303
83960W        W47904   3.368   5.381  12.916
83961W        W47905  28.977  37.989   2.314
83962W        W47906   7.763  32.988   2.347
83963W        W47907  34.609  13.172   1.359
83964W        W47908  19.568  42.308   0.886
83965W        W47909  43.770  41.966  12.919
83966W        W47910  36.445  22.509   4.311
83967W        W47911  21.656  18.135   4.307
83968W        W47912  26.592   6.208   2.740
83969W        W47913  30.097   1.812  13.910
83970W        W47914  30.650  11.845  10.602
83971W        W47915  35.359  31.061  13.872
83972W        W47916  43.394   4.214   3.860
83973W        W47917  16.618  20.160  13.409
83974W        W47918   2.355  40.365   9.934
83975W        W47919  40.498  41.854   2.816
83976W        W47920  33.002  26.994   4.253
83977W        W47921   2.260  41.363   3.214
83978W        W47922  38.832   8.808  13.399
83979W        W47923  28.155  21.129  11.410
83980W        W47924  11.793  39.529  14.985
83981W        W47925   0.762  42.948  11.415
83982W        W47926  14.331  37.087   0.292
83983W        W47927   5.833  17.250   2.243
83984W        W47928  17.614  27.680   4.712
83985W        W47929  23.698   2.327  10.966
83986W        W47930   1.859  38.948   4.705
83987W        W47931   9.365  24.686   2.246
83988W        W47932  31.409  17.732  13.355
83989W        W47933  40.817  19.096  11.954
83990W        W47934   6.262  29.104   2.244
83991W        W47935   7.277  16.084   2.384
83992W        W47936  25.175  40.815  14.333
83993W        W47937  27.003  40.856  12.576
83994W        W47938  13.291   9.661   4.195
83995W        W47939  16.193   0.402  14.355
83996W        W47940  28.505  39.022  14.328
83997W        W47941   8.804  14.253   5.305
83998W        W47942  15.106  12.307  11.459
83999W        W47943   0.369  13.325   3.785
84000W        W47944  12.695  23.033   2.286
84001W        W47945  36.584  18.125   3.269
84002W        W47946  22.020  39.812   3.299
84003W        W47947  44.953  37.955   1.783
84004W        W47948  39.345   7.366   0.405
84005W        W47949  23.637   9.167   3.744
84006W        W47950  33.385  23.514   1.720
84007W        W47951  42.840  27.612  13.334
84008W        W47952  20.523  25.488   3.732
84009W        W47953  11.260  43.921  10.422
84010W        W47954  30.623  33.079   0.898
84011W        W47955  12.196  43.010   3.145
84012W        W47956  26.208  39.408   5.255
84013W        W47957  18.608  30.921  14.965
84014W        W47958   2.264  31.953  10.131
84015W        W47959  44.824  24.685  14.343
84016W        W47960  24.023  44.424   0.458
84017W        W47961  25.489  32.430  10.523
84018W        W47962  23.586   0.975   2.315
84019W        W47963  21.027  10.828  11.399
84020W        W47964   1.376  34.587  12.029
84021W        W47965  41.875  14.132   2.853
84022W        W47966   7.808  44.993   3.758
84023W        W47967   6.678  19.175  14.813
84024W        W47968  21.542   6.872   0.747
84025W        W47969  18.207  35.902  12.080
84026W        W47970  17.741  44.424   1.860
84027W        W47971   2.274  14.653  13.805
84028W        W47972  11.818   5.395  11.551
84029W        W47973  33.992  19.765   1.723
84030W        W47974  26.010  19.649  13.485
84031W        W47975   2.267  13.745  13.808
84032W        W47976  35.461   3.248   1.885
84033W        W47977  43.297  15.259   3.680
84034W        W47978   6.287  23.528   0.772
84035W        W47979  27.135   1.939   0.827
84036W        W47980  19.541  35.446  11.063
84037W        W47981  26.058  31.634  13.347
84038W        W47982   3.256  18.249   4.802
84039W        W47983  42.007  38.935  12.866
84040W        W47984  13.217  36.559   4.772
84041W        W47985  38.470  10.801   3.753
84042W        W47986  30.955   0.394   4.675
84043W        W47987  27.985  24.219  14.325
84044W        W47988  30.920  23.151   0.849
84045W        W47989  19.721  14.291  14.427
84046W        W47990  14.833  44.357   2.190
84047W        W47991  25.154  36.975  13.489
84048W        W47992  27.948  27.639   2.751
84049W        W47993  29.546  23.620   4.237
84050W        W47994  39.030  15.178  12.493
84051W        W47995  35.371  26.189   1.352
84052W        W47996  27.655  20.162   3.765
84053W        W47997  18.695  26.148   0.468
84054W        W47998  34.400  29.569   2.735
84055W        W47999  16.670   5.754   9.584
84056W        W48000  37.336   8.202   3.327
84057W        W48001  31.535   1.455   3.320
84058W        W48002   5.914  10.760   2.810
84059W        W48003  13.225   2.895   1.406
84060W        W48004  42.919   9.888  13.374
84061W        W48005  12.233  34.597   1.934
84062W        W48006  31.976  24.644   2.883
84063W        W48007  26.194  38.825   1.849
84064W        W48008  20.127  11.149  13.832
84065W        W48009  10.153  36.891  14.890
84066W        W48010   9.282  18.716   1.447
84067W        W48011  11.843  34.081  14.780
84068W        W48012  16.687  33.991   1.757
84069W        W48013  19.607   4.291   4.734
84070W        W48014  29.661  11.850   0.286
84071W        W48015  18.718  28.638   0.913
84072W        W48016  39.458  24.015  12.555
84073W        W48017   3.259  11.334   0.913
84074W        W48018  43.810  32.028  12.072
84075W        W48019  39.319  26.193   2.296
84076W        W48020   1.320  37.516   1.321
84077W        W48021  30.997  26.526  13.965
84078W        W48022  44.900  39.849  10.918
84079W        W48023   6.428   5.438   4.703
84080W        W48024  28.566  18.162  13.957
84081W        W48025  41.491   0.894   4.602
84082W        W48026  19.186   3.305  13.996
84083W        W48027  35.516  14.234   1.300
84084W        W48028   7.818  19.092   0.336
84085W        W48029  36.927   5.278   4.121
84086W        W48030   4.885  41.951   4.670
84087W        W48031  13.187  32.122  14.314
84088W        W48032  42.927   6.390   4.316
84089W        W48033  20.072   5.719  11.591
84090W        W48034  42.947   8.386   0.899
84091W        W48035  24.060  20.061   2.380
84092W        W48036  44.473  15.593   4.694
84093W        W48037  18.564  43.779  14.921
84094W        W48038  20.673  10.183   4.219
84095W        W48039   7.217  40.841  13.465
84096W        W48040  12.621  17.608   1.873
84097W        W48041  44.501  28.442  11.915
84098W        W48042  19.742   6.806   5.116
84099W        W48043  26.676  28.463  11.526
84100W        W48044  44.913  23.583  12.498
84101W        W48045   4.319  30.505   0.466
84102W        W48046  36.529  33.425  13.859
84103W        W48047  38.947  17.256  12.935
84104W        W48048  33.114  30.494  13.834
84105W        W48049   3.395  32.108   4.284
84106W        W48050  37.058   6.197   4.264
84107W        W48051  38.034  28.095   3.327
84108W        W48052  43.495  20.116  13.514
84109W        W48053  31.443  32.425  11.469
84110W        W48054   7.792  26.149  10.540
84111W        W48055  10.178   2.798  11.966
84112W        W48056  36.843  23.189  11.502
84113W        W48057  22.746   2.416  10.614
84114W        W48058  30.971  19.191   4.346
84115W        W48059   9.787  35.870   4.808
84116W        W48060   5.797  11.717   0.472
84117W        W48061   9.194  16.122  10.531
84118W        W48062  29.093  41.323  11.957
84119W        W48063  39.812  43.964  14.853
84120W        W48064   5.275  24.975  13.349
84121W        W48065  36.576  30.656  13.444
84122W        W48066  20.652  23.636  12.561
84123W        W48067   3.795  13.718   3.630
84124W        W48068  24.127  33.120  11.120
84125W        W48069   1.321  19.221   3.737
84126W        W48070  41.918   7.673   3.350
84127W        W48071  12.633  33.544  10.965
84128W        W48072  30.502  39.848  10.118
84129W        W48073  10.672   0.313   4.194
84130W        W48074  36.900  29.482   4.137
84131W        W48075  22.183  33.043   0.823
84132W        W48076   3.868  41.521   1.400
84133W        W48077  28.947  43.376  10.421
84134W        W48078  32.395  12.847  11.382
84135W        W48079  24.716  25.630   0.362
84136W        W48080  25.162  13.810   1.310
84137W        W48081  20.723  16.164  12.434
84138W        W48082  28.526  40.465   0.292
84139W        W48083  33.966   4.431   0.454
84140W        W48084  26.038  20.268   0.454
84141W        W48085   5.777  16.270   4.651
84142W        W48086  36.376  39.904  12.075
84143W        W48087  26.667  40.006  13.397
84144W        W48088  38.453  19.265   1.434
84145W        W48089  33.501  30.925   0.253
84146W        W48090  27.033  13.282  13.347
84147W        W48091  39.514   8.363   2.418
84148W        W48092   1.780   4.409  11.568
84149W        W48093  27.557   7.382   3.172
84150W        W48094   4.848  13.638  14.870
84151W        W48095   4.887   1.403  12.411
84152W        W48096  13.695   3.864   4.675
84153W        W48097  37.064  19.272  10.984
84154W        W48098  43.845   8.291   4.648
84155W        W48099  20.722   0.268   1.396
84156W        W48100  44.497   5.264   2.362
84157W        W48101  41.955  14.340   0.902
84158W        W48102  41.842  25.208  11.863
84159W        W48103  44.411  39.900   1.727
84160W        W48104  39.869  35.441   0.870
84161W        W48105   0.867  44.494  12.535
84162W        W48106  29.017   9.709  14.286
84163W        W48107   6.383  23.058   0.286
84164W        W48108  29.537  20.052   1.412
84165W        W48109  12.135  19.685  14.829
84166W        W48110   8.806  38.398   2.880
84167W        W48111  11.653  26.630   2.861
84168W        W48112  19.207  34.457  14.367
84169W        W48113  36.007  40.398   3.696
84170W        W48114  13.262  33.951   4.718
84171W        W48115  12.339  34.951  14.385
84172W        W48116  22.164  18.739  13.440
84173W        W48117  44.962  20.186   0.948
84174W        W48118  16.314   1.868   3.767
84175W        W48119  42.403  39.919  11.972
84176W        W48120  41.001  17.169  12.393
84177W        W48121   6.321  42.990  10.968
84178W        W48122  13.832  43.336  14.821
84179W        W48123  33.490  32.073  12.344
84180W        W48124  18.155  14.289   0.456
84181W        W48125  20.114  38.464   2.867
84182W        W48126  37.353  24.006  10.623
84183W        W48127   6.404  23.614   1.721
84184W        W48128  34.573  27.093  12.029
84185W        W48129  11.647   4.791   1.436
84186W        W48130  25.607  17.736  12.519
84187W        W48131  11.660  36.368   4.136
84188W        W48132  34.951  18.056  10.516
84189W        W48133  16.130  44.927  10.442
84190W        W48134  18.633  34.092   1.237
84191W        W48135  21.256  22.506   2.248
84192W        W48136   4.450  20.136  13.942
84193W        W48137  11.336  17.262   2.392
84194W        W48138   1.774   2.743  12.893
84195W        W48139  23.548  13.758   0.317
84196W        W48140   9.395  24.108   2.386
84197W        W48141  22.566   9.774   1.259
84198W        W48142  32.091  38.974  12.497
84199W        W48143  36.061  12.225   1.286
84200W        W48144  21.530  16.686   3.680
84201W        W48145  44.851  16.605  14.003
84202W        W48146  33.493  20.701   1.274
84203W        W48147  42.026   7.830  12.961
84204W        W48148  42.931   1.264  12.837
84205W        W48149  26.494  20.554   0.752
84206W        W48150  13.240  29.020   4.808
84207W        W48151  24.224  31.443  11.026
84208W        W48152   5.209   3.938  11.940
84209W        W48153  42.973  37.500   0.963
84210W        W48154   0.391  26.953  10.996
84211W        W48155  35.871   8.273  12.952
84212W        W48156  40.344  25.042  11.399
84213W        W48157  26.085  14.192   2.781
84214W        W48158  34.093  35.393  14.768
84215W        W48159  25.049   0.417   4.609
84216W        W48160  24.607  14.300   0.355
84217W        W48161  40.456   3.855  11.530
84218W        W48162  18.595  30.559  11.466
84219W        W48163  20.214  12.772  13.409
84220W        W48164  26.485  43.270   1.210
84221W        W48165  25.064  14.792  14.516
84222W        W48166   9.356  17.235   1.768
84223W        W48167  20.080   7.902  11.049
84224W        W48168  28.462   3.789   2.755
84225W        W48169   4.410  12.293  11.946
84226W        W48170  33.512  42.844  13.540
84227W        W48171   6.871  30.955  10.974
84228W        W48172  31.569  26.181  11.882
84229W        W48173  37.550   9.886  11.091
84230W        W48174   1.365  23.173   3.220
84231W        W48175  10.685   3.829   1.759
84232W        W48176   0.334  12.278  11.489
84233W        W48177   5.885   8.161  10.596
84234W        W48178  19.171  38.959   2.834
84235W        W48179  43.328  33.613   2.307
84236W        W48180   1.932  20.560  10.525
84237W        W48181  16.264  33.916   1.356
84238W        W48182  44.895  43.952  12.059
84239W        W48183  40.381  19.741   3.821
84240W        W48184  41.942   0.896   3.176
84241W        W48185   1.942  23.578   4.247
84242W        W48186  13.155   2.344   0.313
84243W        W48187  25.099   1.316  12.855
84244W        W48188  18.059  39.364  11.461
84245W        W48189  32.953  21.116   1.321
84246W        W48190  34.514   1.915  11.608
84247W        W48191  32.114  43.351  10.967
84248W        W48192  14.199  33.103  11.093
84249W        W48193  16.259   3.407  12.021
84250W        W48194  18.724  19.639  13.910
84251W        W48195  34.988  15.824  12.836
84252W        W48196  36.926  30.433   0.900
84253W        W48197  37.973  13.251  11.096
84254W        W48198   1.739  10.288  13.835
84255W        W48199  42.823  32.588   0.454
84256W        W48200  22.586   7.227  11.469
84257W        W48201  20.632  22.011  14.835
84258W        W48202   3.412  13.695  14.281
84259W        W48203  38.893  30.076  13.520
84260W        W48204  38.037   8.250   0.317
84261W        W48205  29.014  28.508  13.425
84262W        W48206  13.227  25.083  10.005
84263W        W48207  21.199  31.115   1.781
84264W        W48208  20.069  17.601  11.941
84265W        W48209  25.150   2.877   0.880
84266W        W48210  10.305  18.735   0.920
84267W        W48211  39.531  13.178   3.840
84268W        W48212   1.975  39.348  11.495
84269W        W48213  37.842  42.879  12.080
84270W        W48214  12.121   7.838  14.901
84271W        W48215  38.393   5.818  13.465
84272W        W48216   3.336  24.160  13.321
84273W        W48217  16.730   0.986   4.623
84274W        W48218  27.557  17.217   3.223
84275W        W48219   8.276  42.402   1.781
84276W        W48220  10.662  29.510   2.226
84277W        W48221  36.443   1.418   2.883
84278W        W48222  33.071  22.726   4.704
84279W        W48223  26.126  10.383   4.636
84280W        W48224  39.027   6.230  13.023
84281W        W48225  32.979  24.041  14.803
84282W        W48226  10.316  15.632   3.866
84283W        W48227   0.297  22.552  14.374
84284W        W48228  11.640   6.286   2.182
84285W        W48229  40.923   9.192   3.814
84286W        W48230  31.435  14.162  10.491
84287W        W48231  41.983   5.337  13.402
84288W        W48232  12.716  22.169  12.476
84289W        W48233  34.022  16.306  12.378
84290W        W48234   6.775  20.552   4.317
84291W        W48235  34.489   5.928  14.006
84292W        W48236  16.661   8.342   1.856
84293W        W48237   4.387  24.498   0.835
84294W        W48238  18.073  24.045   5.178
84295W        W48239  23.199  11.639  14.385
84296W        W48240  21.733  25.659   0.312
84297W        W48241   6.731  39.878  13.797
84298W        W48242   8.799  26.492  11.546
84299W        W48243  25.589  22.550  14.989
84300W        W48244   9.351  28.585  12.529
84301W        W48245  34.028  29.587  10.979
84302W        W48246   2.467  29.110   0.758
84303W        W48247  29.930  21.258   0.376
84304W        W48248  35.471   5.907   2.392
84305W        W48249  32.455  12.665  10.418
84306W        W48250  18.709  38.492  14.931
84307W        W48251  25.157  27.502   1.451
84308W        W48252  24.526   9.382   1.923
84309W        W48253   5.847   2.246  12.935
84310W        W48254  23.077  41.819  14.962
84311W        W48255   9.227  13.836  13.354
84312W        W48256  17.766  37.052   4.152
84313W        W48257  24.059  10.662  14.944
84314W        W48258   2.799   8.804   2.338
84315W        W48259  18.092  20.226  13.334
84316W        W48260  25.623  23.019   1.703
84317W        W48261  24.549   1.452   3.706
84318W        W48262  18.217  23.725   2.298
84319W        W48263  34.976  11.244  11.963
84320W        W48264  13.219  24.036   3.272
84321W        W48265  36.408  29.108   2.183
84322W        W48266  38.844  35.013  13.034
84323W        W48267  31.499   9.832  14.774
84324W        W48268  40.970  40.509  12.415
84325W        W48269   3.238  26.457  11.942
84326W        W48270  38.921  16.250  10.568
84327W        W48271  11.622  24.509  12.396
84328W        W48272  23.150  36.956  10.427
84329W        W48273   4.828  33.499  12.074
84330W        W48274  26.468  34.062   3.713
84331W        W48275  24.123   0.902  13.319
84332W        W48276   8.312   3.881   4.121
84333W        W48277   5.799  42.344  11.986
84334W        W48278  42.478  13.127  12.512
84335W        W48279  21.082  34.487  11.079
84336W        W48280   5.205   5.304  12.881
84337W        W48281  17.241   9.390  12.512
84338W        W48282   2.367  23.525   5.218
84339W        W48283  28.019  35.367  12.412
84340W        W48284  14.801  24.131  14.825
84341W        W48285   7.214   8.842   3.645
84342W        W48286  44.912   2.911   2.393
84343W        W48287  36.965  33.986  12.430
84344W        W48288  25.123  27.081  13.915
84345W        W48289   7.172   8.223   2.353
84346W        W48290  15.309  35.529   0.931
84347W        W48291  24.660  23.541  11.608
84348W        W48292  19.738  26.663  13.391
84349W        W48293  17.193   8.885   4.276
84350W        W48294  11.846  25.534  12.995
84351W        W48295  13.333  36.352  12.948
84352W        W48296  10.667  23.118  11.603
84353W        W48297  32.903  20.584   3.788
84354W        W48298  42.324  20.737   2.397
84355W        W48299  13.246   1.377  10.067
84356W        W48300  27.590   9.352  10.984
84357W        W48301  24.637  10.722  10.453
84358W        W48302  11.368  28.580  14.514
84359W        W48303  39.001  21.637   1.303
84360W        W48304  34.990  36.568   0.366
84361W        W48305  12.233  33.931  10.962
84362W        W48306  23.020  29.529  14.023
84363W        W48307  23.105  32.457   1.734
84364W        W48308  30.041  28.590  11.390
84365W        W48309  28.619   7.674  14.976
84366W        W48310  18.222  39.040   3.673
84367W        W48311  13.221  20.741   3.810
84368W        W48312   4.752  24.161   4.140
84369W        W48313  20.074  12.163  12.433
84370W        W48314  34.441  28.560   3.268
84371W        W48315  32.130  16.672   0.849
84372W        W48316  36.991  41.026   0.330
84373W        W48317  21.660  22.729  11.485
84374W        W48318  19.261  40.422  11.871
84375W        W48319  20.160  41.394  13.325
84376W        W48320  19.132  16.668   1.243
84377W        W48321  42.025  13.191   1.323
84378W        W48322  39.996   7.825   4.242
84379W        W48323   7.225  33.027   1.273
84380W        W48324   2.723  44.302  11.410
84381W        W48325  26.643  44.338  12.444
84382W        W48326  27.027  42.407  12.934
84383W        W48327  22.626  26.040   2.745
84384W        W48328  14.812  10.728   2.672
84385W        W48329  14.611   9.784  13.441
84386W        W48330   4.715   8.874  14.902
84387W        W48331  30.964  19.147   2.676
84388W        W48332  38.540  30.099   0.927
84389W        W48333   2.733  20.148  11.382
84390W        W48334  11.626  25.209   9.959
84391W        W48335  27.583  31.096  10.890
84392W        W48336  25.051  12.829  12.567
84393W        W48337  11.305   2.919   4.130
84394W        W48338  12.314  38.866  13.941
84395W        W48339  40.412  10.707   4.272
84396W        W48340  12.124  11.138  10.516
84397W        W48341  21.598   6.365   0.804
84398W        W48342  22.226  11.861   3.152
84399W        W48343  43.819  36.940   1.320
84400W        W48344  31.976   4.235   4.649
84401W        W48345  15.632  23.162  13.963
84402W        W48346   6.355  37.057  14.952
84403W        W48347  11.716  14.803   3.239
84404W        W48348  15.727  25.073  14.352
84405W        W48349  11.689   3.835  10.962
84406W        W48350  19.712  22.736  10.114
84407W        W48351  41.457  24.095  14.815
84408W        W48352  16.709   1.388   0.808
84409W        W48353  38.568  22.710   0.414
84410W        W48354  15.742  23.224   0.924
84411W        W48355  26.170  20.554   2.266
84412W        W48356  40.448  23.114  13.487
84413W        W48357  11.710  28.972   2.257
84414W        W48358   5.927  37.410  14.344
84415W        W48359  39.364  37.337   3.195
84416W        W48360  32.613  19.738  13.047
84417W        W48361  14.738  19.583  14.490
84418W        W48362  36.893  34.894  12.517
84419W        W48363  18.222  21.175  12.933
84420W        W48364  23.550  31.418  10.504
84421W        W48365  23.582  14.698   1.730
84422W        W48366  31.899  24.538  13.864
84423W        W48367   1.753  16.145   3.357
84424W        W48368  25.563  39.909  10.913
84425W        W48369  14.624  34.402  14.276
84426W        W48370  41.382  17.305  12.917
84427W        W48371  37.863  34.933   9.941
84428W        W48372  25.154  17.275   3.252
84429W        W48373  34.863  20.594  11.873
84430W        W48374  11.253  43.991   1.716
84431W        W48375  14.319  18.752  11.406
84432W        W48376   9.345   1.337   4.775
84433W        W48377  23.085  29.458  14.940
84434W        W48378  31.977   9.178   4.320
84435W        W48379  17.241  33.549   0.812
84436W        W48380  18.128   5.932  11.009
84437W        W48381  34.049  10.862  12.075
84438W        W48382  29.153   2.740   1.231
84439W        W48383   9.735  15.712  13.827
84440W        W48384  20.093  18.733  11.076
84441W        W48385  36.978  29.060   3.373
84442W        W48386   9.754  11.863  12.547
84443W        W48387  33.917  32.420  12.066
84444W        W48388   4.413  35.082   2.839
84445W        W48389  38.899  20.644  10.568
84446W        W48390  26.094  21.029   3.145
84447W        W48391  33.102  25.012  13.845
84448W        W48392  19.188   5.258   3.311
84449W        W48393  40.891  29.968   3.669
84450W        W48394  25.503  14.696  11.500
84451W        W48395  39.937   8.222  14.942
84452W        W48396  19.161   0.398  11.125
84453W        W48397  35.466  20.545   4.724
84454W        W48398  10.724  17.139   2.718
84455W        W48399  32.530   9.214  14.897
84456W        W48400  37.877  26.020  11.546
84457W        W48401  40.028  24.523   2.371
84458W        W48402  29.980  12.668   0.260
84459W        W48403  15.821  25.060  10.534
84460W        W48404   7.382  39.976   4.162
84461W        W48405  42.484  32.035  10.529
84462W        W48406  28.655   0.334   4.189
84463W        W48407  33.617  23.003  14.514
84464W        W48408  26.624   2.882   3.737
84465W        W48409   6.862   3.827  10.940
84466W        W48410   4.719  29.649   3.331
84467W        W48411  44.900  34.022   4.131
84468W        W48412   6.250  31.909  10.621
84469W        W48413  14.609  29.472   2.329
84470W        W48414  28.962  16.605  12.050
84471W        W48415  27.945  32.539  12.446
84472W        W48416   3.948  17.613   1.935
84473W        W48417  39.378  33.450   2.858
84474W        W48418  23.059  23.229   1.443
84475W        W48419  15.186  44.370  12.565
84476W        W48420  21.190   1.830   2.737
84477W        W48421  35.544  22.153   3.188
84478W        W48422  23.123  15.104  12.384
84479W        W48423  19.633  34.037   1.859
84480W        W48424  24.725  29.660   4.692
84481W        W48425  23.735  33.440  11.406
84482W        W48426  20.041  40.400   1.388
84483W        W48427  44.412  30.601  10.438
84484W        W48428   3.256  26.036   4.179
84485W        W48429  11.842  15.168   9.438
84486W        W48430  28.517  24.222   4.236
84487W        W48431  19.744  28.651   4.277
84488W        W48432  29.010  28.025   3.703
84489W        W48433   9.723  11.148   1.883
84490W        W48434  37.424  29.037  12.071
84491W        W48435  14.772  15.249  14.377
84492W        W48436  43.964   7.749  14.493
84493W        W48437  38.512  16.785  14.797
84494W        W48438  14.659  28.573   0.323
84495W        W48439  14.164  29.564   2.218
84496W        W48440   2.750  15.680   1.410
84497W        W48441  28.678  32.035  14.800
84498W        W48442  18.072   0.962  14.851
84499W        W48443   8.875  35.427   4.302
84500W        W48444  38.913  11.297   4.323
84501W        W48445  39.336  11.309  12.932
84502W        W48446  14.740  19.257   0.300
84503W        W48447  10.764  25.694  11.433
84504W        W48448  37.030  34.511   0.809
84505W        W48449   9.287   0.871   1.327
84506W        W48450  29.013  14.833  14.421
84507W        W48451  24.606   0.854   2.709
84508W        W48452   6.831  44.811   1.883
84509W        W48453   1.781  13.346   4.735
84510W        W48454  21.101  32.479  13.957
84511W        W48455  19.070   1.287   1.900
84512W        W48456  18.678  27.660  14.917
84513W        W48457  17.210  18.751  14.500
84514W        W48458   0.904   4.348   1.885
84515W        W48459  15.708  28.538  12.837
84516W        W48460  21.706  44.301  10.569
84517W        W48461   9.732  21.261  11.006
84518W        W48462  30.543   3.912  10.970
84519W        W48463  35.438  23.545  10.623
84520W        W48464  33.579   9.864  10.457
84521W        W48465  40.995   8.848  13.518
84522W        W48466   7.880  22.149   4.755
84523W        W48467  42.390  29.591  13.810
84524W        W48468  29.572  40.877  11.924
84525W        W48469   0.805  22.073  11.908
84526W        W48470  29.533  18.587  12.016
84527W        W48471  13.711  41.869  11.564
84528W        W48472  18.565   0.756   0.466
84529W        W48473  43.962  35.417  11.944
84530W        W48474  38.328   1.807  11.527
84531W        W48475   7.802  20.667  13.953
84532W        W48476  43.019   8.222  13.511
84533W        W48477  30.421   3.231   2.854
84534W        W48478   6.185  24.097  11.894
84535W        W48479  15.647  41.939   4.162
84536W        W48480  13.222  36.505   2.857
84537W        W48481  25.016  35.382  11.090
84538W        W48482  39.953  32.628  10.566
84539W        W48483  14.205  28.050  12.447
84540W        W48484  23.709  22.101  14.285
84541W        W48485  38.977   8.674   2.894
84542W        W48486  38.444  11.677   0.276
84543W        W48487  42.289   2.730   0.770
84544W        W48488  39.047  35.925   0.246
84545W        W48489  18.053  27.127  13.962
84546W        W48490  35.928  37.878   2.280
84547W        W48491  29.085   3.342   0.455
84548W        W48492  26.208  29.581  14.306
84549W        W48493  39.472  38.891  14.002
84550W        W48494  15.721  25.544  12.864
84551W        W48495  30.633  40.525   2.251
84552W        W48496  23.986   6.859  13.845
84553W        W48497  42.925  34.512  13.480
84554W        W48498  18.231  43.922  14.343
84555W        W48499  27.591  34.988   4.724
84556W        W48500   6.281  11.733   1.377
84557W        W48501  41.843  34.432   2.240
84558W        W48502  41.035  39.507   3.787
84559W        W48503  28.668  11.661   3.822
84560W        W48504   0.821   3.311   1.423
84561W        W48505   0.916   1.367   1.325
84562W        W48506  12.767  36.422   4.665
84563W        W48507  43.940  27.616  13.529
84564W        W48508  16.310  44.917   4.629
84565W        W48509  37.894  12.656   5.099
84566W        W48510  16.102  14.646  11.408
84567W        W48511  33.550  44.359  12.989
84568W        W48512  29.146  33.067   1.696
84569W        W48513  10.218  16.709  10.531
84570W        W48514  11.325  26.049   0.735
84571W        W48515  36.451   0.801  11.385
84572W        W48516   7.355  39.975  14.820
84573W        W48517  19.751  30.495  14.836
84574W        W48518  37.431  18.684   5.241
84575W        W48519  36.078  31.506  10.995
84576W        W48520   2.246  15.603   9.969
84577W        W48521   1.363  38.550   1.723
84578W        W48522   8.353  11.742   1.908
84579W        W48523  26.518  26.657  10.965
84580W        W48524  23.021  12.128   2.412
84581W        W48525  30.122  43.847   3.768
84582W        W48526  39.419   5.847   3.378
84583W        W48527  28.638  29.173   0.819
84584W        W48528  25.676   2.755  13.922
84585W        W48529  11.846  20.637   3.698
84586W        W48530  31.109   1.889   1.835
84587W        W48531  15.159  25.498  12.831
84588W        W48532  14.255  28.462  13.401
84589W        W48533  14.728  31.468   2.714
84590W        W48534  44.332  43.516   2.393
84591W        W48535  31.978  38.991   5.286
84592W        W48536  27.634   4.235  13.910
84593W        W48537   1.415  26.576   2.747
84594W        W48538  38.053  34.991   3.809
84595W        W48539  23.642  16.134  12.093
84596W        W48540  23.528   1.853   3.228
84597W        W48541  15.605  11.830  11.085
84598W        W48542   0.988  39.389  14.405
84599W        W48543  40.346  39.356   0.361
84600W        W48544  26.607  44.010   1.242
84601W        W48545   0.889  26.493   4.646
84602W        W48546   9.211  44.477   3.744
84603W        W48547   2.426  11.785  13.962
84604W        W48548  21.575   7.331   2.857
84605W        W48549  14.211  44.907  11.491
84606W        W48550  41.919   6.336  10.119
84607W        W48551  21.565  31.933   1.298
84608W        W48552  21.199  36.981   4.778
84609W        W48553  29.926  20.137  13.037
84610W        W48554   0.979  22.073  11.500
84611W        W48555  32.614  13.174   3.364
84612W        W48556  44.939  43.336  13.523
84613W        W48557  13.124  23.523  14.277
84614W        W48558   6.255  25.581  13.022
84615W        W48559  11.736  41.969   4.601
84616W        W48560  23.495  33.464   0.762
84617W        W48561  40.888   8.845   2.344
84618W        W48562  27.455  11.349   4.290
84619W        W48563   5.701  43.322  14.900
84620W        W48564  11.357  34.374  12.460
84621W        W48565  17.256  36.875   3.638
84622W        W48566  13.290  36.488   2.337
84623W        W48567  30.554   5.371   1.347
84624W        W48568   6.710  18.651   2.819
84625W        W48569  30.041   1.308   0.739
84626W        W48570   0.447  43.008   2.250
84627W        W48571  40.905  37.948  11.481
84628W        W48572  39.961  23.006   4.653
84629W        W48573  24.556   1.411   4.254
84630W        W48574  30.060  27.504   3.384
84631W        W48575  10.745   8.771  11.963
84632W        W48576  36.919  40.896   0.877
84633W        W48577  36.551  20.579  10.995
84634W        W48578   5.893  21.130   0.244
84635W        W48579  18.186  16.120  10.488
84636W        W48580  22.674  25.508   4.733
84637W        W48581  18.095  41.403   0.294
84638W        W48582  11.862  35.034   2.209
84639W        W48583  22.062  25.098   0.479
84640W        W48584  16.675  12.202   0.312
84641W        W48585  17.590  37.398   9.926
84642W        W48586   5.422   7.346  14.302
84643W        W48587   5.289  28.623  12.411
84644W        W48588  20.667  12.203  13.339
84645W        W48589   8.231  21.694   3.332
84646W        W48590   9.380  27.680   0.779
84647W        W48591   4.726  42.460  13.882
84648W        W48592  32.989  41.415   4.176
84649W        W48593  34.952  29.554  10.021
84650W        W48594  16.712   3.930  13.925
84651W        W48595   5.265  29.946   4.215
84652W        W48596  34.897  13.147  10.423
84653W        W48597  33.903   3.315   1.730
84654W        W48598  15.083   0.827   4.278
84655W        W48599   6.316  13.718  13.878
84656W        W48600  33.465   8.360  13.365
84657W        W48601  32.036  32.125   0.432
84658W        W48602  28.980   8.746  14.419
84659W        W48603  40.865  10.816  13.933
84660W        W48604  36.060  16.119  10.554
84661W        W48605  33.018  21.627  13.416
84662W        W48606  35.990  36.065  11.410
84663W        W48607   2.760  19.656   0.306
84664W        W48608  17.265  23.002   1.787
84665W        W48609  43.352  29.060  14.382
84666W        W48610  15.173  13.126   0.859
84667W        W48611  40.305  29.109  12.083
84668W        W48612  11.734  10.814  10.959
84669W        W48613  10.673  22.083   3.220
84670W        W48614  16.196  35.488   5.238
84671W        W48615   6.306  34.062   0.734
84672W        W48616  44.282  18.133  14.324
84673W        W48617  31.154   1.818   3.350
84674W        W48618  26.100   0.772   0.766
84675W        W48619  36.865  36.566  12.040
84676W        W48620   3.408   3.432  14.386
84677W        W48621  19.703   6.279   0.947
84678W        W48622  14.751  25.118   4.272
84679W        W48623  44.796  13.153  12.829
84680W        W48624   7.693  15.582  12.441
84681W        W48625  29.521  16.747  12.921
84682W        W48626  11.170  44.891   0.440
84683W        W48627  39.350  16.624  11.096
84684W        W48628   0.799  22.073   0.731
84685W        W48629  38.969  33.396   1.695
84686W        W48630  15.224  41.984  11.385
84687W        W48631   0.783  30.428   3.181
84688W        W48632   9.154  19.677  11.389
84689W        W48633  20.556  35.859   0.252
84690W        W48634   8.205   2.325  11.113
84691W        W48635   2.302  33.601   3.818
84692W        W48636  17.738  29.137   4.729
84693W        W48637  11.624  18.639  12.472
84694W        W48638  27.110  17.098   3.260
84695W        W48639  26.496  41.372  12.895
84696W        W48640  17.768  17.766   4.687
84697W        W48641   1.923  24.725   1.934
84698W        W48642   3.334   0.753  11.374
84699W        W48643  10.142  42.993   0.802
84700W        W48644  31.987  28.097   2.870
84701W        W48645  23.713  26.035   2.399
84702W        W48646  27.184  23.552  14.449
84703W        W48647  17.787  22.104   1.295
84704W        W48648  20.551  44.798   4.229
84705W        W48649  29.582  34.072  13.502
84706W        W48650  15.328  20.723   2.225
84707W        W48651  34.536   5.226  13.474
84708W        W48652  27.593  18.126  12.947
84709W        W48653   6.921  37.952  10.920
84710W        W48654  24.093  20.255  12.544
84711W        W48655  35.919  43.990   2.360
84712W        W48656  15.755  40.946  12.554
84713W        W48657  34.520  22.659  12.049
84714W        W48658   3.816   0.356   3.770
84715W        W48659  43.358  35.386  14.301
84716W        W48660  19.578   7.905   9.969
84717W        W48661   0.985   0.435   0.799
84718W        W48662  11.813  32.943   4.161
84719W        W48663   0.451   2.244  12.564
84720W        W48664  12.620   0.283  14.798
84721W        W48665  33.433   1.320  14.331
84722W        W48666  12.779   4.764  14.429
84723W        W48667  30.586  24.524   0.357
84724W        W48668  29.087  30.455   3.176
84725W        W48669  15.690  23.667  12.037
84726W        W48670  37.037   1.868   0.744
84727W        W48671  31.058  23.231   1.801
84728W        W48672   1.942  35.577   2.675
84729W        W48673  31.423  11.708  14.895
84730W        W48674  23.203  17.193   4.277
84731W        W48675  17.791   9.161   0.399
84732W        W48676  26.625  36.922   2.187
84733W        W48677  36.364  27.666   4.203
84734W        W48678  20.600  31.113  10.456
84735W        W48679  13.141  37.523   0.892
84736W        W48680  42.786  23.021   0.797
84737W        W48681  34.085  27.187   1.773
84738W        W48682  10.673  11.625  13.017
84739W        W48683  42.917   7.909  10.640
84740W        W48684  37.857   8.816  10.601
84741W        W48685  32.060  33.439  12.906
84742W        W48686  20.091   9.831  10.559
84743W        W48687  19.282  41.501   1.706
84744W        W48688   6.734   9.335  11.081
84745W        W48689   1.266  11.155  12.432
84746W        W48690  22.646   6.758  13.499
84747W        W48691  42.944  13.146  11.016
84748W        W48692  42.994   5.415   3.770
84749W        W48693   7.264   9.889   1.303
84750W        W48694   8.703  38.478  14.300
84751W        W48695  14.161  12.257   4.123
84752W        W48696  41.356   9.315  10.480
84753W        W48697  33.619  18.747  13.801
84754W        W48698  21.689  12.149   0.755
84755W        W48699  33.911  39.985  10.963
84756W        W48700  26.678  35.002  13.957
84757W        W48701  34.081  18.597  14.859
84758W        W48702  34.388  16.758  11.507
84759W        W48703   5.418  37.435   4.687
84760W        W48704  34.482   0.478  13.798
84761W        W48705  21.638  23.511   2.184
84762W        W48706  13.141   6.414   3.332
84763W        W48707  36.560   1.854   5.122
84764W        W48708  18.132   2.849   1.719
84765W        W48709  13.210  29.920   2.808
84766W        W48710  27.641   7.675   1.729
84767W        W48711  26.185  32.107  11.447
84768W        W48712   7.222   2.747  14.882
84769W        W48713  38.466   7.175   0.326
84770W        W48714  27.541  15.755   0.774
84771W        W48715  39.840  25.154  13.944
84772W        W48716  16.772  39.951  12.448
84773W        W48717   6.234  35.002  10.541
84774W        W48718   0.466  14.334   0.765
84775W        W48719  13.708  39.982   1.931
84776W        W48720  16.167  22.706  11.912
84777W        W48721  30.002  30.652   1.929
84778W        W48722  23.180  34.524  13.528
84779W        W48723  24.130  31.084   1.895
84780W        W48724  10.845   5.908  10.526
84781W        W48725  33.594   1.362   1.318
84782W        W48726   6.239  16.705   4.707
84783W        W48727  27.465  33.528  11.569
84784W        W48728   7.201  24.024  10.614
84785W        W48729  22.616   0.764  14.303
84786W        W48730  17.072  25.514   0.819
84787W        W48731  27.102  34.613   3.649
84788W        W48732  11.675  15.316   3.688
84789W        W48733   9.225  31.506  11.948
84790W        W48734  17.085  23.174  12.887
84791W        W48735  33.400  40.526  14.843
84792W        W48736  44.917  28.171   1.403
84793W        W48737  15.114   4.732  11.508
84794W        W48738   5.311  18.249  11.125
84795W        W48739  35.359  22.227   1.215
84796W        W48740  16.633   0.318   2.759
84797W        W48741  15.197  40.013   2.683
84798W        W48742   0.930  11.693   1.773
84799W        W48743  33.943  35.446   2.681
84800W        W48744  40.409   3.407  14.319
84801W        W48745  26.676  44.437   3.265
84802W        W48746  19.231   6.185  10.550
84803W        W48747   6.815   3.344  11.580
84804W        W48748  34.571  28.063   4.296
84805W        W48749   5.694  28.623  12.462
84806W        W48750  31.582  34.527   2.194
84807W        W48751   8.299   8.895  11.547
84808W        W48752   1.414   1.454  13.829
84809W        W48753   6.776  42.401   2.287
84810W        W48754  22.123  18.068   2.857
84811W        W48755   8.301  22.664  13.925
84812W        W48756  41.802  37.985  14.449
84813W        W48757  36.950  34.030  13.792
84814W        W48758   0.935  20.215  14.384
84815W        W48759  22.600   7.768   5.256
84816W        W48760  37.002  42.032   2.264
84817W        W48761  36.962  12.187  12.468
84818W        W48762  25.159  38.935   4.705
84819W        W48763  19.638  16.582   0.454
84820W        W48764  21.044   2.334   1.387
84821W        W48765  42.987  19.062   3.205
84822W        W48766  38.002   2.847  10.452
84823W        W48767  25.472  42.447  11.074
84824W        W48768  36.089  37.039   0.473
84825W        W48769  16.199  19.123   3.366
84826W        W48770   7.866  20.230   4.804
84827W        W48771   3.355  43.866  14.371
84828W        W48772   0.856  19.711   0.301
84829W        W48773  15.177   4.708  13.453
84830W        W48774  37.869  15.634  10.453
84831W        W48775   2.932  15.240   2.369
84832W        W48776  35.421  27.006   3.302
84833W        W48777  19.599  25.990   2.391
84834W        W48778  26.601  31.599   4.261
84835W        W48779  44.963   5.433   3.772
84836W        W48780  43.492  25.994   2.796
84837W        W48781  21.220  22.135   5.795
84838W        W48782   4.277  15.722  12.829
84839W        W48783  30.066  19.563   2.247
84840W        W48784  17.612  30.510  10.446
84841W        W48785  22.098  29.099  11.999
84842W        W48786  29.467  21.733  12.553
84843W        W48787  36.447  31.955  10.468
84844W        W48788  13.759  17.770  10.589
84845W        W48789   8.718  24.725  14.410
84846W        W48790  11.355  33.009   3.857
84847W        W48791  38.064   3.806   1.930
84848W        W48792  12.852  34.902  14.968
84849W        W48793  11.305  14.823  13.916
84850W        W48794  22.159  17.661  13.954
84851W        W48795  15.657  17.608  13.544
84852W        W48796   1.752   7.759   1.240
84853W        W48797  15.731  34.877   1.831
84854W        W48798  21.536  30.138   1.267
84855W        W48799  44.008   9.648  14.311
84856W        W48800  29.170  44.908  11.555
84857W        W48801  37.427  20.714  12.353
84858W        W48802  39.056  28.557  14.377
84859W        W48803  38.478   7.266  10.069
84860W        W48804  26.577  17.282   4.229
84861W        W48805  19.534   5.746   4.153
84862W        W48806  27.133  41.834   0.308
84863W        W48807   7.771   3.322   1.818
84864W        W48808  44.316  14.188   2.862
84865W        W48809  15.281  17.078   0.733
84866W        W48810   7.327  28.637   3.742
84867W        W48811  10.270   0.807  10.946
84868W        W48812  36.980  31.504  14.337
84869W        W48813   9.208  35.965  11.894
84870W        W48814  16.177   4.821   1.711
84871W        W48815  23.549  41.352   4.811
84872W        W48816  17.616  44.487   4.711
84873W        W48817  37.566   6.913   0.828
84874W        W48818  28.613  41.844   0.775
84875W        W48819  42.011  30.424  14.320
84876W        W48820  17.304   5.741   4.628
84877W        W48821  12.277   4.826  10.529
84878W        W48822   2.446  29.491   4.231
84879W        W48823  36.349   7.178  10.588
84880W        W48824  42.872   0.883   5.263
84881W        W48825  28.656  42.001   3.747
84882W        W48826   0.979  27.040   1.447
84883W        W48827  17.676  39.847  14.984
84884W        W48828  32.537  38.402   2.242
84885W        W48829  11.361  31.902  14.461
84886W        W48830  35.937  10.349   1.846
84887W        W48831   7.745  34.986  13.393
84888W        W48832  37.551  33.466   4.662
84889W        W48833   3.400   8.733   4.647
84890W        W48834  22.089   8.885  10.949
84891W        W48835   3.888  38.879  14.322
84892W        W48836   7.228  20.571  11.415
84893W        W48837   9.159   1.840  12.974
84894W        W48838  33.070  25.193  12.561
84895W        W48839  11.748  11.300   0.295
84896W        W48840  20.161  41.950  10.416
84897W        W48841  37.935  37.880  11.872
84898W        W48842   8.713  11.265  14.814
84899W        W48843  21.096   9.885   0.919
84900W        W48844  18.683  38.059   1.694
84901W        W48845  13.215  11.807  10.892
84902W        W48846  24.674  26.205  14.892
84903W        W48847  36.858   8.668  10.564
84904W        W48848  34.047  27.053   0.303
84905W        W48849   1.451   2.404  10.436
84906W        W48850  20.257  30.590   3.179
84907W        W48851   3.923  25.659  10.920
84908W        W48852   5.276  14.773  13.894
84909W        W48853  10.252   0.270   4.801
84910W        W48854   9.322  39.468  13.413
84911W        W48855  25.475   1.447  12.869
84912W        W48856  35.578   5.695   0.422
84913W        W48857   6.252  33.616   3.294
84914W        W48858  28.008   4.274   4.614
84915W        W48859  22.046  28.181   0.263
84916W        W48860   6.754  15.159  11.058
84917W        W48861  32.040  25.501  14.018
84918W        W48862  38.821  33.565   2.222
84919W        W48863   3.841  41.002   4.137
84920W        W48864  26.065   7.695  10.542
84921W        W48865  29.030  38.963   2.880
84922W        W48866  33.425  19.577   9.963
84923W        W48867  23.082   1.854  14.428
84924W        W48868  15.237  33.125  11.040
84925W        W48869  30.132  32.987  12.952
84926W        W48870  22.011  31.408   3.705
84927W        W48871  27.594  23.513   1.720
84928W        W48872  34.045  23.181  12.487
84929W        W48873  11.147  29.514   2.809
84930W        W48874  17.282  23.695  14.421
84931W        W48875  27.463   9.314   4.162
84932W        W48876  15.092   9.879   5.241
84933W        W48877  13.304  39.317  14.019
84934W        W48878   3.260   4.230   3.168
84935W        W48879  21.723  15.267   4.340
84936W        W48880  39.030   7.766   3.830
84937W        W48881  43.386  27.654  14.870
84938W        W48882  35.380  24.055  11.443
84939W        W48883  11.746  12.715   4.326
84940W        W48884   6.909  42.910   2.334
84941W        W48885  18.745  22.730  11.552
84942W        W48886   7.330  31.586  13.331
84943W        W48887   2.269   3.872  10.633
84944W        W48888  26.157  13.243  10.455
84945W        W48889  10.688  19.582  11.437
84946W        W48890  12.750  25.538   3.816
84947W        W48891  30.540  23.524  11.571
84948W        W48892  22.043  10.222   0.422
84949W        W48893   0.408  17.565   3.247
84950W        W48894  11.696  14.185   3.181
84951W        W48895  30.609  33.568  10.624
84952W        W48896  43.480  37.518  13.406
84953W        W48897  27.620  35.089   2.351
84954W        W48898  23.648  38.074   2.772
84955W        W48899  41.846  18.692   4.334
84956W        W48900  30.477   6.320  13.868
84957W        W48901  13.837   2.269   2.794
84958W        W48902   4.726  16.129  11.911
84959W        W48903  13.245  18.117  12.085
84960W        W48904  32.943  13.261  10.548
84961W        W48905  40.054   2.433   3.708
84962W        W48906  26.688  22.660   1.830
84963W        W48907  11.277  38.507  14.865
84964W        W48908  30.427  33.434   0.459
84965W        W48909  22.513   1.344   3.753
84966W        W48910  25.562  32.042   1.245
84967W        W48911  33.929  29.486  12.543
84968W        W48912  11.735  28.613   5.184
84969W        W48913  31.644  33.619   1.699
84970W        W48914  33.996  18.251   4.316
84971W        W48915  25.653  43.854   0.414
84972W        W48916  13.715  19.061  10.518
84973W        W48917  33.107  39.328   1.734
84974W        W48918   4.289  42.913   1.273
84975W        W48919  10.711   2.737   1.214
84976W        W48920  43.473   5.720   0.471
84977W        W48921  33.624  18.653  12.558
84978W        W48922  21.688  29.634   4.825
84979W        W48923  29.154  22.608   3.381
84980W        W48924  40.368  44.916  13.849
84981W        W48925  41.466  33.048  13.835
84982W        W48926  17.108  40.870   3.660
84983W        W48927   5.406  10.218  13.388
84984W        W48928  30.460  44.907   1.913
84985W        W48929  33.535   5.795  11.894
84986W        W48930   8.696  28.165   3.148
84987W        W48931  29.114  12.188  14.862
84988W        W48932  14.332  23.643  13.856
84989W        W48933  14.606   4.923  11.457
84990W        W48934  20.595  11.784  11.029
84991W        W48935  34.050  25.184  10.430
84992W        W48936  29.555  36.050  11.115
84993W        W48937  34.046   6.795   0.781
84994W        W48938  39.906  16.258  13.345
84995W        W48939   3.709  37.841   1.887
84996W        W48940  39.316  42.366   0.758
84997W        W48941   1.806  41.429  14.890
84998W        W48942  13.138  44.286  14.996
84999W        W48943  12.271  40.457   1.796
85000W        W48944  24.724   4.798  11.871
85001W        W48945  42.868   4.329  12.034
85002W        W48946  42.902  25.676   4.633
85003W        W48947  44.476  42.316   2.286
85004W        W48948  36.094   6.821   1.215
85005W        W48949   4.343  44.940   2.196
85006W        W48950   7.693  34.029   2.414
85007W        W48951   7.698  41.024  10.933
85008W        W48952  16.095  30.910  12.548
85009W        W48953   3.795  34.427   2.820
85010W        W48954  31.533  29.038   0.939
85011W        W48955   5.697  23.154  12.514
85012W        W48956  24.521  27.154  14.993
85013W        W48957  39.419  18.556   3.265
85014W        W48958  16.627   3.455  13.041
85015W        W48959  33.088  26.995  15.000
85016W        W48960  34.507  10.214  12.055
85017W        W48961  25.021  18.552  12.906
85018W        W48962   7.753  11.866  15.000
85019W        W48963  23.133  38.970   1.444
85020W        W48964  21.236  42.424  11.070
85021W        W48965  27.516   4.362   2.218
85022W        W48966  41.313  32.443   1.852
85023W        W48967  39.417  41.380  13.981
85024W        W48968  36.978  28.940   2.883
85025W        W48969  38.030  43.476   1.824
85026W        W48970   7.724   1.411   2.289
85027W        W48971  28.178  30.514   2.880
85028W        W48972  41.032  18.581   4.732
85029W        W48973  36.089  30.654   1.902
85030W        W48974  17.645  21.231   2.738
85031W        W48975   3.835  44.866   3.259
85032W        W48976   1.936  15.716  11.046
85033W        W48977  37.846  18.072   2.291
85034W        W48978  43.293  35.548   1.442
85035W        W48979  17.701  34.480  11.453
85036W        W48980  32.940  43.929   3.312
85037W        W48981  18.081   1.312  12.092
85038W        W48982  41.911  20.070  13.336
85039W        W48983   5.362   6.903   3.715
85040W        W48984  44.915  13.267  13.355
85041W        W48985  22.201  39.065   3.169
85042W        W48986   4.237  17.252   2.891
85043W        W48987  17.697  24.673   4.629
85044W        W48988  36.918   9.321  13.355
85045W        W48989  31.896  17.778  10.635
85046W        W48990  27.532  22.569  12.039
85047W        W48991  27.956  15.808   2.246
85048W        W48992  11.695  35.973  12.348
85049W        W48993  16.142  37.844  13.382
85050W        W48994  42.465  35.859  14.864
85051W        W48995   4.207  42.937  12.538
85052W        W48996  22.017  20.031   3.675
85053W        W48997   8.283  35.539   2.391
85054W        W48998  16.738  37.551  11.915
85055W        W48999  33.979  37.959  13.863
85056W        W49000  38.456  42.944  14.925
85057W        W49001   6.912  41.342  11.875
85058W        W49002  37.557   9.807  14.986
85059W        W49003  19.753  35.888  10.462
85060W        W49004  11.299  20.231   4.801
85061W        W49005  19.580  10.706  10.969
85062W        W49006  33.541  31.989   0.400
85063W        W49007   2.396  25.203   0.756
85064W        W49008  13.333  14.803   4.614
85065W        W49009  30.650  15.720  12.877
85066W        W49010  11.838  10.295  10.526
85067W        W49011  11.863  23.570  11.411
85068W        W49012  26.635   3.351  14.949
85069W        W49013  15.118  29.427   0.851
85070W        W49014  34.955  43.973  12.081
85071W        W49015  30.947  40.867   2.853
85072W        W49016   3.230   3.716   2.392
85073W        W49017  38.415  34.572   1.923
85074W        W49018  17.072  21.046   2.756
85075W        W49019  30.414  40.986  14.984
85076W        W49020  43.990   1.329   0.469
85077W        W49021   8.696  17.630   5.090
85078W        W49022  33.036   3.862  11.582
85079W        W49023  32.041  12.632  10.120
85080W        W49024  43.827   3.374   3.212
85081W        W49025   0.776  16.123  11.068
85082W        W49026  11.369  24.048   3.215
85083W        W49027  21.547  33.475   3.234
85084W        W49028   6.421   0.299  10.599
85085W        W49029  40.322  11.687   2.812
85086W        W49030  37.064  38.374  12.453
85087W        W49031  25.061  43.476  13.363
85088W        W49032  22.722  38.414   4.754
85089W        W49033   5.697  42.831  14.016
85090W        W49034   9.346  38.570   1.303
85091W        W49035  15.789  22.100  13.403
85092W        W49036  19.258  19.049  10.911
85093W        W49037  17.698  39.333  13.375
85094W        W49038  33.078  22.134   3.288
85095W        W49039  34.033  43.998   4.159
85096W        W49040   2.930  42.955  11.449
85097W        W49041  31.470   0.879  12.053
85098W        W49042   2.942  27.143   3.258
85099W        W49043  31.019  20.611  10.961
85100W        W49044  12.319  43.424  13.049
85101W        W49045  40.443  11.696   3.709
85102W        W49046  33.083  13.770  13.313
85103W        W49047  11.791  24.689  12.088
85104W        W49048  19.222  43.447   3.207
85105W        W49049  23.689  12.138  11.569
85106W        W49050  23.699  26.599  14.779
85107W        W49051   6.683  25.986   2.366
85108W        W49052  21.590   4.333   2.724
85109W        W49053  33.607  15.694  11.941
85110W        W49054  24.590  38.364   0.369
85111W        W49055  39.926  15.706  13.056
85112W        W49056  20.168   8.700   1.810
85113W        W49057   6.746  23.714   0.444
85114W        W49058  33.558  10.160   5.181
85115W        W49059  27.473  18.703   0.965
85116W        W49060  21.261  29.613   1.749
85117W        W49061   0.851  28.557  10.408
85118W        W49062  30.922  23.111  13.866
85119W        W49063   7.862   2.728  10.577
85120W        W49064  39.328  18.621  11.594
85121W        W49065  39.534  40.345  12.851
85122W        W49066   4.814  20.099  14.985
85123W        W49067  27.130  35.483   4.630
85124W        W49068  31.107  34.603  14.897
85125W        W49069  23.528  30.495  14.450
85126W        W49070   8.874  14.653   3.689
85127W        W49071  17.234   7.296   0.377
85128W        W49072  31.080  20.078   0.280
85129W        W49073   6.380  19.642   3.843
85130W        W49074  16.104   7.302   4.778
85131W        W49075   6.806  40.431  10.477
85132W        W49076  13.643  43.799  13.803
85133W        W49077  43.782  26.545   3.695
85134W        W49078  26.670  29.964   0.913
85135W        W49079  30.607  21.026  10.135
85136W        W49080  44.489  19.605   2.802
85137W        W49081  35.993   9.296   5.253
85138W        W49082   9.840  19.045   4.757
85139W        W49083   0.756  23.024  11.375
85140W        W49084   3.814  25.500  13.411
85141W        W49085  13.698  29.145   1.873
85142W        W49086  23.003  13.730   3.824
85143W        W49087  31.073   1.901   4.797
85144W        W49088  42.384  25.976  14.486
85145W        W49089  33.448  43.769  13.792
85146W        W49090   6.770  26.134  11.099
85147W        W49091  20.191  13.690  12.827
85148W        W49092  18.143  25.149   0.964
85149W        W49093  22.084  32.480   0.789
85150W        W49094  16.136  43.787  10.940
85151W        W49095  16.174  38.945  12.474
85152W        W49096  10.813  44.419   3.156
85153W        W49097  21.080  33.613   3.689
85154W        W49098   9.298  32.536  10.888
85155W        W49099  27.953  37.563   1.413
85156W        W49100  23.735  27.086   3.669
85157W        W49101   6.294  33.527  11.395
85158W        W49102  43.367  17.212  12.376
85159W        W49103  35.072   5.929  12.076
85160W        W49104  17.574  32.501  14.968
85161W        W49105   1.761  14.744   3.721
85162W        W49106  32.033  38.894   4.639
85163W        W49107  43.409   1.844   1.698
85164W        W49108  31.546  44.933  11.473
85165W        W49109  42.299   6.796   1.828
85166W        W49110  37.083  29.114   4.748
85167W        W49111   9.779  41.967  10.409
85168W        W49112  31.999  25.142   2.798
85169W        W49113   7.329   9.167   0.797
85170W        W49114   0.310   7.274  10.437
85171W        W49115  24.000  25.572  11.089
85172W        W49116  26.620   9.171  10.580
85173W        W49117  31.500  44.289   0.338
85174W        W49118   0.853  36.035  10.096
85175W        W49119  44.337   5.724   1.265
85176W        W49120  26.490  42.430  11.866
85177W        W49121  21.635  18.161  12.393
85178W        W49122   8.259   1.472   2.777
85179W        W49123  30.098   7.849  12.377
85180W        W49124  42.472   9.864  14.788
85181W        W49125  39.525  20.592  13.495
85182W        W49126   1.941  30.155   0.251
85183W        W49127  44.495   0.877   0.360
85184W        W49128  31.505  17.664   3.371
85185W        W49129  13.298  31.988  13.324
85186W        W49130  32.027  24.156  12.029
85187W        W49131   5.371  32.140  12.048
85188W        W49132   5.695   4.897  14.908
85189W        W49133   8.251  34.500   0.386
85190W        W49134  35.455   4.812   4.247
85191W        W49135   3.787  27.983   1.400
85192W        W49136  36.898   2.836  11.576
85193W        W49137  27.037   2.471  13.393
85194W        W49138  32.943  16.232  11.962
85195W        W49139  25.665  11.214  12.473
85196W        W49140  26.530  44.453  14.003
85197W        W49141  15.756  39.903   4.637
85198W        W49142   4.847  24.650  14.969
85199W        W49143  39.525  21.245   3.229
85200W        W49144  22.658  44.790   3.301
85201W        W49145   1.409  38.858   3.332
85202W        W49146  44.332  33.093   9.928
85203W        W49147  18.162  38.535   1.695
85204W        W49148  15.737  41.459   3.813
85205W        W49149  11.256  18.097   1.888
85206W        W49150   5.309  18.103  10.561
85207W        W49151  35.020  27.143  13.026
85208W        W49152  39.041   3.798   4.163
85209W        W49153  15.106  12.792   4.759
85210W        W49154  13.744  24.168   3.738
85211W        W49155  10.843  41.456   0.308
85212W        W49156   9.287  18.661  10.038
85213W        W49157  42.397   4.735  12.524
85214W        W49158  33.899  35.033   4.712
85215W        W49159  35.417   3.366  10.964
85216W        W49160  36.581  43.961  12.009
85217W        W49161  32.445  13.135  13.524
85218W        W49162   8.186   7.846  14.821
85219W        W49163   4.735   0.767  11.124
85220W        W49164  44.457  25.118  12.411
85221W        W49165  18.257  12.645  13.427
85222W        W49166  33.397  10.139   1.321
85223W        W49167  28.601  30.912   0.811
85224W        W49168  15.266  22.196   0.264
85225W        W49169  41.811  29.653   2.266
85226W        W49170  42.380  11.659   0.868
85227W        W49171   1.808   6.704  14.764
85228W        W49172  31.607  36.559  12.403
85229W        W49173  19.250  12.784   4.179
85230W        W49174   3.908  23.025  11.470
85231W        W49175   3.454  12.196   1.882
85232W        W49176  43.318  33.993  10.614
85233W        W49177   8.821  31.407   1.326
85234W        W49178  32.972  31.586  13.427
85235W        W49179  17.760  28.574   2.317
85236W        W49180  14.610   5.322  14.926
85237W        W49181  23.027  14.728   1.755
85238W        W49182  40.838  25.546   3.855
85239W        W49183  14.702  21.727  12.881
85240W        W49184   1.972  24.004   4.804
85241W        W49185  15.691   6.318   2.179
85242W        W49186  37.049  11.348   1.298
85243W        W49187   6.286  33.445   3.647
85244W        W49188  14.625  19.132   2.241
85245W        W49189  25.026  30.140   0.803
85246W        W49190  24.607  41.467   0.825
85247W        W49191  35.066  39.039  13.899
85248W        W49192  30.141  15.209   3.232
85249W        W49193  18.749  41.843  14.335
85250W        W49194  42.782   1.239   2.895
85251W        W49195   9.217  42.019  14.001
85252W        W49196  10.794  20.064  13.332
85253W        W49197   9.212  22.532  12.826
85254W        W49198  44.883  45.000  11.586
85255W        W49199  10.258  23.491   0.329
85256W        W49200  33.491  37.030   1.323
85257W        W49201   1.889  39.976  11.946
85258W        W49202  18.289  19.147   1.786
85259W        W49203   0.248  34.528  13.513
85260W        W49204  16.248  28.486  12.880
85261W        W49205  44.793  35.034  11.093
85262W        W49206   7.334  18.265   1.864
85263W        W49207  30.583  18.639   4.782
85264W        W49208   8.794   8.313  12.505
85265W        W49209   4.876  26.675  12.420
85266W        W49210  19.557  23.120   0.387
85267W        W49211   8.654  10.163  13.989
85268W        W49212  24.680  36.060   1.228
85269W        W49213  41.487  20.243  12.867
85270W        W49214   0.446  37.922   0.346
85271W        W49215  35.517  28.118  12.852
85272W        W49216  19.284  35.946  13.951
85273W        W49217  33.396   9.802  12.455
85274W        W49218  20.264  43.487  12.460
85275W        W49219  35.073  28.182  13.534
85276W        W49220  27.077  15.584   1.715
85277W        W49221  38.368   2.903   4.826
85278W        W49222  13.262  22.732   0.436
85279W        W49223   1.959  13.158  12.082
85280W        W49224  18.058  34.556  13.020
85281W        W49225  29.670   2.959  10.451
85282W        W49226   1.911  18.097   1.300
85283W        W49227  38.548  10.321  13.978
85284W        W49228  33.440  43.853   0.913
85285W        W49229  19.248   1.853   2.736
85286W        W49230  14.807  21.119  13.896
85287W        W49231  25.160  24.579   2.856
85288W        W49232  20.091  40.507   4.230
85289W        W49233  43.873   5.408   1.773
85290W        W49234   4.329   5.328   2.809
85291W        W49235  18.113  10.774   5.277
85292W        W49236  11.134  40.025   1.766
85293W        W49237  31.548   9.380   2.724
85294W        W49238  22.659  39.957  14.997
85295W        W49239   7.232  10.259  10.997
85296W        W49240  31.592  14.251  13.537
85297W        W49241  13.261  44.906  13.471
85298W        W49242  41.509  16.717  13.347
85299W        W49243  15.705   2.872   1.901
85300W        W49244  44.857   2.802  10.405
85301W        W49245  32.102  20.528   1.882
85302W        W49246   9.288  15.770  12.362
85303W        W49247   4.247  18.212  13.905
85304W        W49248  16.096  18.084  10.446
85305W        W49249  17.156   9.728   2.675
85306W        W49250   4.421   7.263   5.263
85307W        W49251   6.334  31.526   2.293
85308W        W49252  11.661  11.751  11.938
85309W        W49253  18.177  33.519  14.852
85310W        W49254  22.166  35.474   2.208
85311W        W49255  38.462   4.206  11.551
85312W        W49256   3.806  37.849   0.798
85313W        W49257   0.743   9.295  12.493
85314W        W49258  15.708  14.710   4.189
85315W        W49259  34.413  17.788  14.469
85316W        W49260  41.893  15.710  10.975
85317W        W49261  19.062  25.063   0.401
85318W        W49262  39.359   9.831   2.802
85319W        W49263  30.139  44.380  11.447
85320W        W49264  26.076  37.497  13.938
85321W        W49265  32.624  32.398  10.925
85322W        W49266  31.932  34.606   4.179
85323W        W49267  11.713  42.495  13.511
85324W        W49268  30.058  26.004  13.006
85325W        W49269  24.676   7.172   3.169
85326W        W49270  33.127   4.735   4.629
85327W        W49271  24.075  43.374  11.561
85328W        W49272  14.128   2.854   4.123
85329W        W49273  21.647  20.065   0.780
85330W        W49274   6.808  30.097   4.317
85331W        W49275  21.621   3.747   3.736
85332W        W49276   5.355  22.556   3.360
85333W        W49277  17.277  41.882   2.347
85334W        W49278   2.808  41.965   0.314
85335W        W49279  36.476  21.751  11.574
85336W        W49280  26.679  15.614  12.485
85337W        W49281   9.274  30.481   5.142
85338W        W49282  28.533  10.732   0.288
85339W        W49283  40.549  43.882   3.743
85340W        W49284  33.093   6.216   0.471
85341W        W49285  38.838   1.972   2.370
85342W        W49286  10.776  22.643   0.447
85343W        W49287  15.714   2.226   1.336
85344W        W49288   2.334   5.360  11.072
85345W        W49289   2.468  43.871  12.054
85346W        W49290  15.092   2.310  12.346
85347W        W49291  26.082  32.054  12.966
85348W        W49292  43.429   5.286  12.446
85349W        W49293  37.011  27.464  10.472
85350W        W49294   9.886  10.172   2.362
85351W        W49295  25.157   7.335   0.786
85352W        W49296   6.387  40.984   4.727
85353W        W49297   1.873  24.003  11.020
85354W        W49298  41.294  37.455   3.178
85355W        W49299   2.918   3.883   1.312
85356W        W49300   2.405  36.002  11.965
85357W        W49301  36.372  14.300   0.846
85358W        W49302  22.076  35.602   0.321
85359W        W49303   6.389  27.159  11.465
85360W        W49304  16.112   9.740  14.790
85361W        W49305  26.550   7.182   1.376
85362W        W49306  26.663  41.534   1.432
85363W        W49307  14.119   2.234  10.900
85364W        W49308  35.011   7.902  13.364
85365W        W49309  25.513  30.129  11.880
85366W        W49310  25.546  38.455   3.249
85367W        W49311  33.488  15.814   3.708
85368W        W49312  36.382  44.489   0.454
85369W        W49313  32.403  11.140  13.043
85370W        W49314  34.379   6.343  10.960
85371W        W49315  35.965  23.523   1.827
85372W        W49316  21.121   4.295  11.466
85373W        W49317  40.034  39.424   0.439
85374W        W49318   1.909  41.993  10.555
85375W        W49319  21.050  15.138  11.513
85376W        W49320  38.001  21.738   1.363
85377W        W49321  37.401  34.451  11.538
85378W        W49322  36.025  44.489   9.989
85379W        W49323  37.399   0.750  11.400
85380W        W49324   8.690   3.773  11.567
85381W        W49325   6.680  38.356   0.272
85382W        W49326  22.229  42.369   2.257
85383W        W49327  24.171  20.646   1.247
85384W        W49328  30.639  11.769   0.467
85385W        W49329  30.455  10.216   0.899
85386W        W49330  28.611  28.569   1.694
85387W        W49331  38.999   1.250   5.119
85388W        W49332  34.101   8.177  12.416
85389W        W49333   2.915  35.592  12.983
85390W        W49334   8.333   5.412  13.404
85391W        W49335  25.647  17.069   5.124
85392W        W49336  44.445  17.704  11.980
85393W        W49337  21.524  23.194  11.896
85394W        W49338  37.884  37.034  11.516
85395W        W49339   4.347  43.330  11.424
85396W        W49340   0.393   4.834   1.872
85397W        W49341  39.054   9.777   0.267
85398W        W49342  40.384  13.205  11.515
85399W        W49343  44.286  36.489   1.702
85400W        W49344   6.227  42.988   0.316
85401W        W49345  18.614   4.387  11.128
85402W        W49346  15.255  44.848   4.248
85403W        W49347  36.373  12.755   1.281
85404W        W49348  14.691   4.821   1.869
85405W        W49349  25.664   0.898  10.057
85406W        W49350   9.157  14.120  12.396
85407W        W49351  30.153   5.876  13.394
85408W        W49352  28.629  42.355   3.385
85409W        W49353  32.428  26.631  12.856
85410W        W49354  10.165  14.706  13.889
85411W        W49355   9.358  37.375   2.315
85412W        W49356  20.703  14.334  13.798
85413W        W49357  24.988  33.400  10.566
85414W        W49358  24.558  42.871  13.522
85415W        W49359   5.732  25.219  13.487
85416W        W49360  39.540  35.986   3.869
85417W        W49361  42.319   3.826   3.296
85418W        W49362   5.403  31.450  12.432
85419W        W49363  38.908  23.583  14.025
85420W        W49364  24.487  25.033   0.954
85421W        W49365  19.270  30.430   0.778
85422W        W49366  38.986  44.958  13.467
85423W        W49367  32.498   9.824   4.751
85424W        W49368  42.785  13.344   5.169
85425W        W49369   7.857  28.004   2.214
85426W        W49370  11.136   7.248  10.404
85427W        W49371   1.372   7.281   0.752
85428W        W49372  42.931  31.608   4.686
85429W        W49373  28.495  39.530  11.041
85430W        W49374  13.665  36.405  14.903
85431W        W49375  13.832  40.329  11.903
85432W        W49376  35.960   3.792   1.213
85433W        W49377  33.537  20.653  11.566
85434W        W49378  15.174   4.215   0.925
85435W        W49379  38.498  32.920   3.196
85436W        W49380  41.843  36.593   1.309
85437W        W49381  18.654   1.819  11.573
85438W        W49382   3.295  13.841   0.427
85439W        W49383  31.151  42.959   1.741
85440W        W49384   2.772  27.027   1.222
85441W        W49385  21.126   7.284   1.707
85442W        W49386  16.143  25.127   0.889
85443W        W49387  27.142  42.982   3.768
85444W        W49388  13.231  14.166   1.429
85445W        W49389  13.719   4.859  12.387
85446W        W49390  14.158  44.953   2.419
85447W        W49391   3.876  27.052  11.418
85448W        W49392  27.087  27.470   1.695
85449W        W49393  18.075   1.461   4.215
85450W        W49394  39.449   6.856   0.798
85451W        W49395  37.374  24.584   2.264
85452W        W49396  26.670  44.347   0.256
85453W        W49397  35.415  31.016   1.849
85454W        W49398  11.228  37.474  12.546
85455W        W49399  35.967   3.423  10.595
85456W        W49400  36.095  23.105  11.466
85457W        W49401  13.820  24.117   4.815
85458W        W49402   6.312  10.230   4.821
85459W        W49403  30.025  17.111  14.302
85460W        W49404   1.860  37.389   3.723
85461W        W49405  42.499  15.822  12.005
85462W        W49406  25.053  17.186  11.060
85463W        W49407  35.497  27.609  11.401
85464W        W49408  36.847  19.748   2.694
85465W        W49409  26.204   7.281  11.598
85466W        W49410   9.687   4.731   3.642
85467W        W49411  44.985   5.737   4.183
85468W        W49412   1.394  20.255   1.313
85469W        W49413  40.536  36.014  12.990
85470W        W49414  28.181  36.567   3.202
85471W        W49415  20.644   7.856   5.154
85472W        W49416  44.917   8.355   0.272
85473W        W49417  16.754  16.577   2.323
85474W        W49418   2.308   5.416  11.962
85475W        W49419  24.636  39.556  12.456
85476W        W49420  24.690  29.081  10.423
85477W        W49421   4.375  28.462  14.007
85478W        W49422  18.720  43.002  10.035
85479W        W49423  25.576  35.074  11.019
85480W        W49424   7.174   0.405  14.951
85481W        W49425  39.318   7.667  13.935
85482W        W49426  23.586  34.385   4.176
85483W        W49427  15.244  32.559   2.297
85484W        W49428   9.217  14.333  11.946
85485W        W49429  13.753  38.475  10.929
85486W        W49430   3.801  16.218  13.999
85487W        W49431  35.406  40.484   4.637
85488W        W49432  25.490  44.389   3.851
85489W        W49433  21.560  33.034  12.525
85490W        W49434  39.058   7.231   1.699
85491W        W49435  28.632  39.403  12.838
85492W        W49436  40.351  32.916   3.707
85493W        W49437  11.280  33.972   3.779
85494W        W49438  16.756  36.386   1.714
85495W        W49439  17.101  22.224   1.252
85496W        W49440  17.783  38.056   3.317
85497W        W49441  21.559  32.045  12.399
85498W        W49442   5.785  29.954   4.241
85499W        W49443  41.440  19.662   4.341
85500W        W49444  40.526  22.744   2.763
85501W        W49445   4.870  32.444   3.790
85502W        W49446  30.504  16.688   4.765
85503W        W49447  39.970  19.696  13.054
85504W        W49448  40.860  26.060  13.817
85505W        W49449  11.864  41.536  12.448
85506W        W49450  28.098  10.263  13.845
85507W        W49451  33.899  28.647  13.985
85508W        W49452  26.497  26.131   1.217
85509W        W49453  40.402  34.056  11.098
85510W        W49454  13.144  17.690   1.359
85511W        W49455   5.247   6.276   3.833
85512W        W49456  26.141  19.103  12.025
85513W        W49457   1.907  35.379  12.873
85514W        W49458   7.219  40.939  12.826
85515W        W49459  30.941  27.514   1.841
85516W        W49460  40.949  23.093  14.858
85517W        W49461  18.770  13.142   3.330
85518W        W49462  43.332   2.342  11.520
85519W        W49463  35.379  35.078   4.335
85520W        W49464   9.685   5.862  13.515
85521W        W49465  12.300  37.391   4.231
85522W        W49466  39.371  19.058  13.427
85523W        W49467  24.986  23.048  13.414
85524W        W49468  25.990  39.375  10.041
85525W        W49469  29.612   7.218   3.157
85526W        W49470  40.979  35.955  12.023
85527W        W49471  42.461  16.134   2.234
85528W        W49472  17.119  34.878   2.675
85529W        W49473   1.381  10.837  11.410
85530W        W49474  34.867   0.829   5.138
85531W        W49475   8.280  13.809  13.913
85532W        W49476  20.563  41.916   4.747
85533W        W49477  30.917  23.034   2.686
85534W        W49478  40.396  34.899  10.477
85535W        W49479  37.922  37.369   3.827
85536W        W49480  26.089  44.424  13.386
85537W        W49481  28.979  11.129  11.562
85538W        W49482   4.922  28.160  11.507
85539W        W49483   0.358   5.749  12.395
85540W        W49484  17.708  28.653  14.809
85541W        W49485  29.925   9.750  11.417
85542W        W49486  13.692  24.491   0.465
85543W        W49487   7.743  43.789   0.402
85544W        W49488  21.631  36.049  12.398
85545W        W49489  22.687   3.858   0.325
85546W        W49490  44.763   8.780  13.895
85547W        W49491  35.984  38.850  10.956
85548W        W49492   3.894  24.504   1.419
85549W        W49493  25.676  41.320   0.879
85550W        W49494  17.184  18.681  11.019
85551W        W49495  11.212  30.999   0.258
85552W        W49496  30.472  27.182   1.410
85553W        W49497  21.652  21.521  13.055
85554W        W49498  13.337  10.296  12.548
85555W        W49499   1.363   8.879  11.411
85556W        W49500   9.263  26.192   2.280
85557W        W49501   7.696  30.000  14.799
85558W        W49502  20.096  26.096   3.862
85559W        W49503  35.486  15.231   3.709
85560W        W49504  34.887   3.246  14.373
85561W        W49505  37.365  32.446   2.402
85562W        W49506  11.697  17.209   2.821
85563W        W49507  30.083  13.308  12.544
85564W        W49508  33.890   8.707  14.013
85565W        W49509  31.557  24.161  12.576
85566W        W49510  29.492  39.972  10.969
85567W        W49511  14.699  33.591  12.440
85568W        W49512  16.118   7.751  11.402
85569W        W49513   6.197  25.698   1.770
85570W        W49514   1.850   5.698  13.436
85571W        W49515  21.246  14.804  10.615
85572W        W49516  42.836  36.027  14.809
85573W        W49517   1.775   6.221  14.500
85574W        W49518  21.043  39.856  13.327
85575W        W49519  32.472  13.608  11.412
85576W        W49520  22.220   6.240  11.583
85577W        W49521  32.923  25.476  12.375
85578W        W49522  27.145   7.218   0.248
85579W        W49523  24.006  33.449  12.477
85580W        W49524  13.290  32.411   4.214
85581W        W49525  35.878  19.138   1.752
85582W        W49526  26.002  14.746   3.727
85583W        W49527  20.274  21.532   4.142
85584W        W49528  40.886  37.910   0.390
85585W        W49529  29.093  44.282   1.362
85586W        W49530  39.418  38.423   1.741
85587W        W49531  34.382  25.669   4.614
85588W        W49532   8.812  16.587  11.548
85589W        W49533  40.516  32.122   1.325
85590W        W49534  17.759  28.019  10.588
85591W        W49535  26.008  41.814  11.428
85592W        W49536  11.836  24.508   4.621
85593W        W49537  33.586  19.748   2.336
85594W        W49538  12.854   9.717  13.055
85595W        W49539  27.493  31.587  14.880
85596W        W49540   0.875  30.413   2.699
85597W        W49541   8.717  42.454   4.655
85598W        W49542  22.153  29.050  12.445
85599W        W49543  42.471  13.682   2.201
85600W        W49544  10.211   3.409  12.878
85601W        W49545   5.252  19.046  12.542
85602W        W49546  26.200  12.739  10.639
85603W        W49547  24.193   5.304   3.333
85604W        W49548  24.628  27.030   3.837
85605W        W49549  43.913  41.885  12.547
85606W        W49550  21.017  22.173  12.992
85607W        W49551   4.888  17.066  14.397
85608W        W49552  42.965  19.191   2.185
85609W        W49553  16.704  19.096   2.716
85610W        W49554   4.312  35.002   3.250
85611W        W49555   3.397  39.521   1.323
85612W        W49556  31.901  10.382  14.836
85613W        W49557   1.317  15.292   1.442
85614W        W49558  44.849   7.712   3.711
85615W        W49559   4.722   7.725  10.956
85616W        W49560  21.749  36.866   3.654
85617W        W49561   0.824  21.031   4.174
85618W        W49562  33.026  30.514  10.513
85619W        W49563  21.221   8.754   2.830
85620W        W49564  22.532  13.338   1.839
85621W        W49565  35.073  27.647  13.391
85622W        W49566  16.176  25.665  11.879
85623W        W49567   7.280  34.987  13.434
85624W        W49568  35.475   4.231  12.438
85625W        W49569   2.294  20.711   3.329
85626W        W49570  43.465  11.245   4.291
85627W        W49571  23.124  37.001  12.498
85628W        W49572  25.169  30.980   1.372
85629W        W49573  23.200  35.969   0.439
85630W        W49574  43.514  18.177  13.933
85631W        W49575  31.977  38.868   4.302
85632W        W49576  23.517   2.750   2.419
85633W        W49577  27.468  11.695  10.412
85634W        W49578  18.611  10.824  12.962
85635W        W49579  13.723  43.849   4.610
85636W        W49580   3.294  34.935   1.874
85637W        W49581  11.192   6.251   1.445
85638W        W49582  16.281  19.092  12.944
85639W        W49583  32.590  38.843  10.585
85640W        W49584  38.524   9.210   4.597
85641W        W49585  29.644  31.946   4.732
85642W        W49586  17.301  19.756  12.345
85643W        W49587   2.960   8.358  12.472
85644W        W49588  34.419  21.592   1.849
85645W        W49589  28.075  32.070   5.229
85646W        W49590   5.427  36.379   3.262
85647W        W49591  19.753  20.711  11.459
85648W        W49592  40.523  37.833  10.630
85649W        W49593  29.137  44.911   4.306
85650W        W49594  12.293   0.842  14.351
85651W        W49595  18.291   8.821   3.799
85652W        W49596  15.254   8.819   4.677
85653W        W49597  39.472  31.523   2.748
85654W        W49598   7.849  16.792  11.942
85655W        W49599  41.041  12.133   0.908
85656W        W49600   7.234  31.024   4.186
85657W        W49601   0.889  18.709   0.347
85658W        W49602  40.930  15.161   0.922
85659W        W49603  26.054  35.441   4.146
85660W        W49604  44.309  17.300   0.867
85661W        W49605  16.153  16.095  11.946
85662W        W49606   3.303   6.690  14.981
85663W        W49607  14.108  40.437  12.403
85664W        W49608  19.096   1.782   4.329
85665W        W49609  31.122   4.222  11.056
85666W        W49610  35.541  41.869  14.010
85667W        W49611  28.597  12.264  12.069
85668W        W49612  41.029  31.153   3.867
85669W        W49613   9.793  30.614  11.373
85670W        W49614  15.667   4.422   4.193
85671W        W49615  34.400  35.513   3.820
85672W        W49616   8.178   6.331  10.461
85673W        W49617  36.384   8.863  11.925
85674W        W49618  15.749   3.377   3.682
85675W        W49619  22.252  15.670  14.459
85676W        W49620  20.242   3.816  10.978
85677W        W49621  36.086  27.992   1.843
85678W        W49622  35.527  30.124   2.800
85679W        W49623   2.963   1.475  13.436
85680W        W49624  29.989  44.994   1.842
85681W        W49625   8.811  39.447  13.865
85682W        W49626   4.414  40.538  14.443
85683W        W49627  27.198  29.146   5.191
85684W        W49628  28.017  24.548   4.704
85685W        W49629  27.498  16.227  14.483
85686W        W49630  31.923  10.842   1.806
85687W        W49631  39.824   5.231   2.820
85688W        W49632   4.289  28.089   0.857
85689W        W49633   2.299   7.352   0.790
85690W        W49634  15.745  25.699  13.384
85691W        W49635   6.813  40.980  14.006
85692W        W49636  18.647  30.515  10.945
85693W        W49637  17.233  18.621  10.148
85694W        W49638  17.119  12.690   5.180
85695W        W49639  29.025   0.332  13.805
85696W        W49640   2.345  31.988  11.014
85697W        W49641   4.929  40.972  10.518
85698W        W49642  35.375  32.113   0.279
85699W        W49643  44.888  23.663   1.744
85700W        W49644   5.405   0.359  11.864
85701W        W49645   4.789  39.437  11.894
85702W        W49646  39.397  24.685   1.267
85703W        W49647  26.510  30.020   2.843
85704W        W49648  20.615  43.964   2.706
85705W        W49649  12.790  23.032   2.867
85706W        W49650  24.480  32.393   2.308
85707W        W49651  20.607  33.430   2.715
85708W        W49652   8.833  18.276  11.955
85709W        W49653  39.388  19.638   2.883
85710W        W49654  36.494  25.067  13.985
85711W        W49655  40.813  24.586  12.346
85712W        W49656  39.422  16.197   1.825
85713W        W49657  31.597  43.786   2.319
85714W        W49658  37.888   2.325   4.319
85715W        W49659   1.955  42.461   3.260
85716W        W49660  31.433   9.788   4.210
85717W        W49661  28.645  41.463   2.834
85718W        W49662  37.061  29.103   3.702
85719W        W49663  13.295   6.415  10.137
85720W        W49664  36.885  25.495  13.058
85721W        W49665  40.891   8.854   1.393
85722W        W49666   0.889  17.095   0.826
85723W        W49667  17.702  19.160  12.439
85724W        W49668   2.431  24.557   1.211
85725W        W49669  36.459  13.634  11.531
85726W        W49670  42.885  21.630  12.992
85727W        W49671   9.827  40.548   0.478
85728W        W49672  33.027   9.179   2.375
85729W        W49673  20.147  43.380   0.786
85730W        W49674   8.216  15.812  12.453
85731W        W49675  44.916  28.006  10.983
85732W        W49676   7.778  36.545  14.919
85733W        W49677  18.243  23.072  11.475
85734W        W49678  18.605   0.859  13.978
85735W        W49679  42.493  33.064   2.364
85736W        W49680   8.356  14.296   4.262
85737W        W49681  29.426   6.278   1.880
85738W        W49682  24.042  14.732  14.802
85739W        W49683  31.561  14.738  13.360
85740W        W49684  42.984  31.625  13.472
85741W        W49685  14.671  22.615   1.912
85742W        W49686  39.019  14.176  13.948
85743W        W49687   2.912  44.798  11.569
85744W        W49688   1.906  23.196   1.853
85745W        W49689  17.090   0.346   3.678
85746W        W49690  16.259  39.394  14.969
85747W        W49691  12.638  41.914   2.839
85748W        W49692  10.232  23.579  13.813
85749W        W49693  23.583   7.711   4.699
85750W        W49694   2.343   3.767  11.119
85751W        W49695  39.489   6.821   0.272
85752W        W49696  28.108  37.381  10.947
85753W        W49697  15.810  17.254   1.727
85754W        W49698  12.751  41.496  11.102
85755W        W49699  34.924  32.987   4.706
85756W        W49700  43.423   6.917  13.926
85757W        W49701   1.410   1.359   1.798
85758W        W49702  11.635  13.710   0.351
85759W        W49703  44.305  21.748   1.322
85760W        W49704  17.577  21.641   5.232
85761W        W49705  11.301  42.439  13.024
85762W        W49706  38.062  36.372  14.387
85763W        W49707   1.361  19.166   4.803
85764W        W49708  10.233  39.329   0.250
85765W        W49709   5.841  14.821  13.441
85766W        W49710  29.977  14.666   1.851
85767W        W49711  34.997  20.656   1.860
85768W        W49712  25.677  15.115  12.429
85769W        W49713   7.887  39.349   4.735
85770W        W49714   6.897   4.365   0.834
85771W        W49715   0.344  39.376   0.389
85772W        W49716  41.030  37.500   4.769
85773W        W49717   6.861  12.260  14.390
85774W        W49718  16.690  29.517   4.828
85775W        W49719  30.562  10.329  13.381
85776W        W49720  44.346   1.777   1.780
85777W        W49721   2.775   6.405   2.351
85778W        W49722   8.381   2.806  14.920
85779W        W49723  10.796  30.069   1.393
85780W        W49724  38.368  41.322  14.315
85781W        W49725  39.980  13.702   4.275
85782W        W49726  30.412  21.141   2.365
85783W        W49727  35.443  22.021  13.821
85784W        W49728   4.266   0.786  12.868
85785W        W49729  27.527   2.810   3.186
85786W        W49730  10.755   4.917  14.961
85787W        W49731   0.764  29.652  11.999
85788W        W49732  32.992  18.619  11.889
85789W        W49733   8.252  41.795  13.376
85790W        W49734  13.220  28.586   3.171
85791W        W49735   9.827  44.388   1.398
85792W        W49736  38.426   3.737   3.259
85793W        W49737  25.499   2.849  11.113
85794W        W49738  12.360   0.316   4.164
85795W        W49739   4.793  20.220  12.001
85796W        W49740  31.446  29.061   3.338
85797W        W49741  12.179  19.080   0.836
85798W        W49742  32.941  11.146   0.243
85799W        W49743   5.917   5.797  11.562
85800W        W49744   4.869  32.976  12.563
85801W        W49745  19.593  20.054   0.243
85802W        W49746  21.093  32.392   0.774
85803W        W49747  41.387  19.224  12.459
85804W        W49748  28.486  18.172   3.797
85805W        W49749  44.426  34.942   2.734
85806W        W49750  19.128  36.440  11.111
85807W        W49751  42.477  29.943   0.253
85808W        W49752  19.060  32.507   4.689
85809W        W49753  12.139  14.647  10.465
85810W        W49754  22.737  44.265   2.852
85811W        W49755  19.132  26.070  11.051
85812W        W49756  21.172  22.577   1.893
85813W        W49757  30.107  31.533   1.799
85814W        W49758   1.847  32.555   2.334
85815W        W49759  14.653   6.370  13.879
85816W        W49760   8.363  20.643   3.296
85817W        W49761  42.499   6.691  11.040
85818W        W49762  31.087  13.824   0.378
85819W        W49763  29.630  36.091   5.283
85820W        W49764  26.049  23.984  11.900
85821W        W49765  28.952   3.936  13.046
85822W        W49766  15.232  29.496   1.774
85823W        W49767  23.566   1.249   4.149
85824W        W49768  21.021  22.225  12.418
85825W        W49769  11.728  33.059   1.265
85826W        W49770  25.502  11.687   2.291
85827W        W49771  24.566   1.964   3.737
85828W        W49772  39.030  29.144   3.841
85829W        W49773  35.862  29.539   3.383
85830W        W49774  13.350  36.592   0.370
85831W        W49775  12.802   9.699   1.854
85832W        W49776  28.559  18.056   3.349
85833W        W49777  14.597  27.008  12.433
85834W        W49778  32.561   2.467   1.698
85835W        W49779  34.443  39.002  11.382
85836W        W49780  19.747  31.997  14.945
85837W        W49781   5.908  28.521   5.188
85838W        W49782  13.287  34.997  13.465
85839W        W49783  26.134  25.018  12.895
85840W        W49784   5.704  14.327   3.688
85841W        W49785  33.060  38.556  14.968
85842W        W49786  42.373  27.638   0.357
85843W        W49787  42.899  31.572   1.298
85844W        W49788  38.954  32.061   3.206
85845W        W49789   3.367  39.556  10.487
85846W        W49790  19.738   1.339   2.889
85847W        W49791   4.897   7.706  14.393
85848W        W49792  17.139  10.807   0.301
85849W        W49793  27.011   0.892   3.687
85850W        W49794  29.067   8.727   3.840
85851W        W49795  17.095   0.408   2.896
85852W        W49796  32.945  19.708   1.815
85853W        W49797  24.110  32.953  14.843
85854W        W49798  19.692   4.343   1.277
85855W        W49799   9.358  17.591   5.608
85856W        W49800  25.162  36.521   3.719
85857W        W49801  38.433  11.630  10.444
85858W        W49802  14.753   3.952  13.334
85859W        W49803   3.400   4.918  12.342
85860W        W49804   7.796  13.282  13.481
85861W        W49805  32.973  13.233  11.483
85862W        W49806   4.438  42.926  14.954
85863W        W49807  39.316  15.628   1.277
85864W        W49808   9.834  42.336  12.981
85865W        W49809  39.493  18.226   3.682
85866W        W49810  30.014  41.420   5.250
85867W        W49811  17.217  36.373  14.294
85868W        W49812  23.556  19.063   4.239
85869W        W49813  41.035  44.988   0.326
85870W        W49814  43.992  44.302  14.409
85871W        W49815   5.201  11.353   0.442
85872W        W49816  17.094  44.756   1.280
85873W        W49817   8.259  18.728   0.300
85874W        W49818  13.339   8.775   4.789
85875W        W49819  34.429  21.149   4.233
85876W        W49820  30.152  41.976  11.089
85877W        W49821  41.880  11.772  10.538
85878W        W49822  26.635  43.823   2.303
85879W        W49823  24.665  29.524  12.928
85880W        W49824  36.939   6.182   4.792
85881W        W49825  40.897  31.896   2.705
85882W        W49826  25.997  40.808   1.926
85883W        W49827   0.915  33.015   3.693
85884W        W49828  41.031   6.387   3.384
85885W        W49829  33.485   0.911  11.054
85886W        W49830  31.433  31.060   3.149
85887W        W49831  21.738  43.327   3.752
85888W        W49832   6.207  42.469   4.340
85889W        W49833  44.336   0.893  11.997
85890W        W49834  44.887  32.963  12.572
85891W        W49835  23.551  11.246  13.970
85892W        W49836  15.184   4.321  13.955
85893W        W49837   0.922   9.858   0.741
85894W        W49838  36.459  38.018   1.435
85895W        W49839   1.763  14.762  12.905
85896W        W49840   1.789   7.882   1.717
85897W        W49841  33.478  37.078   1.721
85898W        W49842  27.536   4.750   3.734
85899W        W49843  10.648  13.193   3.360
85900W        W49844  39.030  44.936  10.601
85901W        W49845  12.680  24.589   1.740
85902W        W49846  31.583   4.941   3.665
85903W        W49847   7.820  15.168  10.134
85904W        W49848  32.962  17.236  11.945
85905W        W49849  20.607  32.076   4.253
85906W        W49850   7.340   8.782  13.014
85907W        W49851  28.550   9.238  14.418
85908W        W49852  32.095  27.531  10.964
85909W        W49853  39.359  37.392  12.079
85910W        W49854   8.393   7.212   2.393
85911W        W49855  30.465  35.880  12.832
85912W        W49856  17.219  30.594   0.957
85913W        W49857  41.330   3.227   1.746
85914W        W49858   1.743  26.994   0.887
85915W        W49859  13.721  16.654   1.740
85916W        W49860   2.964  14.100  10.616
85917W        W49861  23.139  42.315   1.908
85918W        W49862  44.365  42.401  13.360
85919W        W49863  26.582  21.025  10.563
85920W        W49864  14.705  10.206  13.026
85921W        W49865  36.488  16.751   2.864
85922W        W49866  26.990  36.450   3.847
85923W        W49867  40.360  21.156  11.573
85924W        W49868  11.777  14.128  12.509
85925W        W49869  40.439  14.757  14.498
85926W        W49870  11.296  36.874   1.265
85927W        W49871  42.945   7.693   1.877
85928W        W49872  25.697  35.538   3.327
85929W        W49873   6.885  37.927  12.410
85930W        W49874   8.788  21.033   0.422
85931W        W49875   1.974  10.151   2.244
85932W        W49876  22.218  28.945   2.853
85933W        W49877   3.865  29.945   0.309
85934W        W49878   4.294  42.408  10.921
85935W        W49879  23.532  12.648  12.078
85936W        W49880  33.620   4.207  11.091
85937W        W49881   4.341  23.226   2.713
85938W        W49882  12.279  41.988   3.324
85939W        W49883  28.020  37.917  13.872
85940W        W49884   3.724   8.754   0.880
85941W        W49885  27.479   6.396   2.374
85942W        W49886  11.304  27.010   4.299
85943W        W49887  26.659  30.991   4.119
85944W        W49888   9.352  28.091   5.786
85945W        W49889  39.827  10.642  12.888
85946W        W49890  16.625  38.430   2.778
85947W        W49891  12.751   4.287   2.889
85948W        W49892  36.380  26.654  14.372
85949W        W49893  15.748  42.458   0.285
85950W        W49894  38.516  12.182   4.154
85951W        W49895  37.026  37.039  14.343
85952W        W49896  38.406   9.650   4.617
85953W        W49897  28.088  33.489   0.851
85954W        W49898  34.401  28.614   0.922
85955W        W49899  31.007  19.187  10.904
85956W        W49900  16.574   5.850  11.585
85957W        W49901  35.398  22.187   4.298
85958W        W49902  25.662  34.519  12.999
85959W        W49903  10.273   2.870   1.767
85960W        W49904  31.429  44.914  12.017
85961W        W49905  29.564  32.598  10.905
85962W        W49906  37.571  34.548  13.977
85963W        W49907  19.176  30.036  14.942
85964W        W49908  37.033  37.496  13.385
85965W        W49909  40.413  23.130  10.974
85966W        W49910  22.006   6.250  12.948
85967W        W49911  40.319   9.726  13.952
85968W        W49912   5.220  12.241  11.966
85969W        W49913  12.334   2.767  11.115
85970W        W49914  43.776  13.264  13.026
85971W        W49915  38.335  28.087  11.024
85972W        W49916  28.581  40.017   2.809
85973W        W49917  12.331  22.652   0.820
85974W        W49918   1.736  16.697  11.016
85975W        W49919   9.323  17.192   0.813
85976W        W49920  18.215  35.518   1.932
85977W        W49921  44.832   5.732  13.945
85978W        W49922  37.438  23.624  14.770
85979W        W49923  21.725  33.932   3.239
85980W        W49924  27.158  34.574   1.390
85981W        W49925  12.665   8.188   4.632
85982W        W49926  33.079  11.334   0.803
85983W        W49927  44.419  37.364  14.004
85984W        W49928  41.004   9.187   1.409
85985W        W49929  42.932  25.075   4.627
85986W        W49930  12.195  13.827   1.698
85987W        W49931  31.538  10.833   1.703
85988W        W49932   0.341  15.739   2.368
85989W        W49933  28.551  38.028   5.303
85990W        W49934  14.336  12.627   2.356
85991W        W49935  11.188  18.583  14.951
85992W        W49936  31.144  23.199   4.710
85993W        W49937  21.240  12.850  13.015
85994W        W49938  36.031  34.945  10.436
85995W        W49939  33.570  24.720   1.236
85996W        W49940  37.041  23.540  13.369
85997W        W49941   2.404  12.701   1.917
85998W        W49942  44.832   3.725  11.900
85999W        W49943  37.001   9.354  10.955
86000W        W49944  23.489  22.114  11.924
86001W        W49945  12.353  43.985   9.940
86002W        W49946  21.115  38.863   2.411
86003W        W49947   2.952  17.306  12.013
86004W        W49948  31.032  10.754  11.605
86005W        W49949  19.735  11.174  10.473
86006W        W49950  39.426  23.034  11.057
86007W        W49951  36.964  14.599   3.358
86008W        W49952  12.811  12.123   2.753
86009W        W49953   6.214  44.438   1.780
86010W        W49954  18.664  19.248  14.337
86011W        W49955  37.461  38.361  11.594
86012W        W49956  10.185  38.415  13.970
86013W        W49957  11.813  11.340   4.604
86014W        W49958  34.501   8.251   1.842
86015W        W49959  44.485   7.204   1.372
86016W        W49960  34.075   4.732  12.353
86017W        W49961   4.795  21.705   0.386
86018W        W49962  40.304  27.563  13.447
86019W        W49963  12.771  13.170  12.455
86020W        W49964  17.194  33.940   2.344
86021W        W49965   4.764  29.477  11.951
86022W        W49966  25.050   9.205  13.526
86023W        W49967  40.830  39.406  10.580
86024W        W49968  41.825  24.508   2.840
86025W        W49969  39.360  37.914   1.880
86026W        W49970  36.592  42.916  10.158
86027W        W49971  29.948  40.042   1.410
86028W        W49972  23.101  17.785   0.831
86029W        W49973   1.922  44.344   2.691
86030W        W49974   1.839   4.261  13.882
86031W        W49975  10.318  25.682   1.759
86032W        W49976  43.993  34.535  11.939
86033W        W49977  25.499  22.998  11.473
86034W        W49978  35.374  29.569  14.367
86035W        W49979   9.149  36.438   2.224
86036W        W49980  22.543   8.778   3.629
86037W        W49981  30.105   7.807   1.310
86038W        W49982   6.189   9.334   2.891
86039W        W49983   0.345  25.208   3.155
86040W        W49984  40.346  24.050  10.936
86041W        W49985  29.424  29.627  13.519
86042W        W49986  19.258  20.139  14.277
86043W        W49987  35.934  21.242  14.939
86044W        W49988  11.196  28.117  10.611
86045W        W49989  14.772   5.355   1.339
86046W        W49990  41.316  30.155  14.787
86047W        W49991  30.502  10.305  11.613
86048W        W49992  25.124   2.294  12.828
86049W        W49993  12.204  43.978  12.472
86050W        W49994   7.718   5.262   1.730
86051W        W49995  38.565  28.985   0.271
86052W        W49996  19.585  43.986   3.825
86053W        W49997  18.096  26.155   3.327
86054W        W49998  22.204  18.747  14.881
86055W        W49999  33.053   4.366   0.394
86056W        W50000  12.621  34.907   3.236
86057W        W50001  19.586   9.842   3.752
86058W        W50002  14.178  10.202  12.042
86059W        W50003  40.823  17.581   3.869
86060W        W50004   6.357  15.123   1.404
86061W        W50005  23.648  33.945   1.311
86062W        W50006  21.753  42.345   2.373
86063W        W50007  20.611  27.497   0.743
86064W        W50008   9.777  39.418  10.956
86065W        W50009   7.251  38.559  10.545
86066W        W50010  19.778  41.935  13.060
86067W        W50011   1.243   4.764   2.342
86068W        W50012  32.037  21.683  10.551
86069W        W50013  24.610  43.838   0.330
86070W        W50014  44.784  17.151  10.568
86071W        W50015  36.464  13.822   1.814
86072W        W50016  36.869  37.439   2.721
86073W        W50017   7.903   2.849  12.026
86074W        W50018  33.445  38.476  10.134
86075W        W50019  18.060   3.911  10.968
86076W        W50020  31.612  26.523  13.491
86077W        W50021  10.813  39.398  13.884
86078W        W50022  14.194  30.991  12.851
86079W        W50023  11.190  42.813   1.697
86080W        W50024  42.997   0.334   4.799
86081W        W50025  27.539   8.307   4.760
86082W        W50026  19.779  28.997  14.463
86083W        W50027  37.365  43.318  14.373
86084W        W50028   0.988  38.853   0.309
86085W        W50029   1.799  11.719   0.766
86086W        W50030  30.482  15.282  11.464
86087W        W50031   0.416  32.044  10.547
86088W        W50032  16.798  12.660  14.449
86089W        W50033   4.402  34.385   2.412
86090W        W50034  41.374   3.315  13.516
86091W        W50035  44.468  36.455  14.516
86092W        W50036   5.906  23.171   0.470
86093W        W50037  31.441   3.785  13.055
86094W        W50038  34.379  10.313  11.090
86095W        W50039  12.227  30.524  13.985
86096W        W50040  34.579  14.285   2.743
86097W        W50041  21.597  19.227   4.282
86098W        W50042  35.373   9.690   3.725
86099W        W50043  28.153   6.332   0.324
86100W        W50044  12.257  15.732   0.887
86101W        W50045  37.073  43.847   2.195
86102W        W50046  10.295  20.108  12.858
86103W        W50047   8.677  11.212   2.290
86104W        W50048  10.684  29.164  12.937
86105W        W50049  13.326  20.530   4.286
86106W        W50050   2.892  26.983   2.338
86107W        W50051   1.744   7.175  11.480
86108W        W50052  44.453   4.397  14.804
86109W        W50053  34.605  43.291  11.496
86110W        W50054  15.147  34.433   0.356
86111W        W50055  35.437   7.758  12.486
86112W        W50056  33.124   8.334  11.571
86113W        W50057  41.305   1.474   2.187
86114W        W50058  15.613  32.959  12.464
86115W        W50059  44.324  20.526  10.127
86116W        W50060  37.840  13.704   1.863
86117W        W50061  36.898   1.292   3.282
86118W        W50062  22.211  10.648  10.640
86119W        W50063  13.207  13.792  14.316
86120W        W50064   1.879   0.883  12.543
86121W        W50065  35.040  33.039  12.520
86122W        W50066  30.092  20.233   0.328
86123W        W50067   5.404  29.581   0.259
86124W        W50068  18.740   0.348  14.463
86125W        W50069  24.013  25.593   4.607
86126W        W50070  20.576  31.500  13.896
86127W        W50071  34.388  26.067   3.349
86128W        W50072  30.117  21.717  10.987
86129W        W50073  36.439  12.708  13.006
86130W        W50074  37.439  36.542  11.611
86131W        W50075  10.749  34.914  13.395
86132W        W50076  19.168  16.781   3.346
86133W        W50077   2.845  23.995  11.484
86134W        W50078  32.039  21.163  10.472
86135W        W50079  23.514  41.827  12.840
86136W        W50080  24.161  22.061   0.268
86137W        W50081   3.806  36.986  12.956
86138W        W50082  10.244  15.785   3.266
86139W        W50083  23.232  21.185  10.939
86140W        W50084  40.974  34.404  11.423
86141W        W50085  34.472  36.453  11.450
86142W        W50086   6.775   0.939  12.393
86143W        W50087  15.671  33.512   2.755
86144W        W50088  43.883   0.749  12.936
86145W        W50089  10.340  13.845   0.469
86146W        W50090  44.404   8.250  12.519
86147W        W50091  31.424  21.181   3.197
86148W        W50092   8.239  40.892  11.866
86149W        W50093  44.977  35.513  11.588
86150W        W50094   0.917  18.208   3.691
86151W        W50095   7.405  27.511   2.335
86152W        W50096   1.416   4.231   0.755
86153W        W50097  33.930  31.578  10.509
86154W        W50098  33.884   5.866   0.762
86155W        W50099  10.328   3.345   2.221
86156W        W50100  17.691  23.192  12.971
86157W        W50101  32.931  12.614   1.727
86158W        W50102  32.122  17.152   3.831
86159W        W50103  16.769  12.791  12.961
86160W        W50104  41.356  27.134  13.919
86161W        W50105  23.582  22.039   4.176
86162W        W50106  35.420   5.897   4.209
86163W        W50107  33.876   9.295   3.252
86164W        W50108  35.905   9.247  11.859
86165W        W50109   2.466  11.317   0.876
86166W        W50110  36.061  44.399   0.954
86167W        W50111  29.174   7.674   3.374
86168W        W50112   7.221  19.572  13.504
86169W        W50113  21.194   8.889   4.710
86170W        W50114  34.943  40.549  13.055
86171W        W50115  36.374   5.703   3.859
86172W        W50116  10.194  34.489   0.769
86173W        W50117   1.339  33.546  13.824
86174W        W50118  23.192  10.151  10.535
86175W        W50119  31.990   7.689  12.070
86176W        W50120  38.933  44.317  13.043
86177W        W50121  37.396  39.856  14.787
86178W        W50122  10.829  30.414  13.535
86179W        W50123  16.121  21.677   2.224
86180W        W50124  36.537  30.026   2.282
86181W        W50125  36.855  17.183   1.842
86182W        W50126   1.275  26.541   3.722
86183W        W50127  31.974  32.118   1.790
86184W        W50128  31.526  27.029  12.903
86185W        W50129   9.808  19.696  11.999
86186W        W50130  26.517  42.936   3.827
86187W        W50131   1.436  24.721  10.446
86188W        W50132  17.616   2.432   3.810
86189W        W50133  17.230  18.623  12.928
86190W        W50134   7.763   4.247  13.428
86191W        W50135  11.796  26.193   0.871
86192W        W50136  38.849   0.320  12.986
86193W        W50137  21.580  27.659  13.443
86194W        W50138  25.035   6.889  10.916
86195W        W50139  38.955   7.366  10.535
86196W        W50140  10.812  37.539   2.723
86197W        W50141  36.945  13.325   0.336
86198W        W50142  31.561  44.798  13.012
86199W        W50143   1.867  13.602  12.010
86200W        W50144  40.305  14.607  11.102
86201W        W50145  25.109   4.273  14.373
86202W        W50146  13.781   8.834  12.999
86203W        W50147  13.626  11.183  11.020
86204W        W50148  30.500  19.174  10.500
86205W        W50149  16.187  17.160  14.782
86206W        W50150   6.275  17.148   0.440
86207W        W50151  27.121  32.406  12.473
86208W        W50152  40.448  17.180   3.335
86209W        W50153  14.218  31.500   3.358
86210W        W50154   4.367  44.855  12.349
86211W        W50155  42.898  16.801   0.961
86212W        W50156   8.732  31.055   4.689
86213W        W50157  43.797  36.424   0.731
86214W        W50158  28.109  29.168   3.778
86215W        W50159  42.523  43.016  10.581
86216W        W50160   8.202  24.665   4.620
86217W        W50161  17.791   0.742  10.463
86218W        W50162   2.314  44.937  12.958
86219W        W50163  27.002   3.449   2.224
86220W        W50164  40.406  38.438  13.392
86221W        W50165  34.082  22.534   0.949
86222W        W50166   9.691   8.241  13.821
86223W        W50167  33.602  20.689  14.838
86224W        W50168   3.262  21.114  13.368
86225W        W50169  31.997   4.326  11.934
86226W        W50170  18.123  18.253   3.165
86227W        W50171  11.142  21.544  13.327
86228W        W50172  28.956  42.416  10.984
86229W        W50173  33.928  14.725  13.380
86230W        W50174  11.322  30.569   2.345
86231W        W50175   9.163  28.949   2.212
86232W        W50176   6.841  23.086  14.795
86233W        W50177  27.522  32.973   2.227
86234W        W50178  18.197  23.570  13.499
86235W        W50179   0.446  40.371   0.868
86236W        W50180  40.337   3.384   5.651
86237W        W50181   0.372  38.567  14.802
86238W        W50182  16.600  19.780   2.318
86239W        W50183   7.821  25.133  12.902
86240W        W50184  14.162  14.323  14.885
86241W        W50185  41.301   1.246   0.269
86242W        W50186  21.653  41.497   3.366
86243W        W50187  42.962  29.592  11.612
86244W        W50188  31.511  23.556  13.795
86245W        W50189  35.888  23.206   2.195
86246W        W50190  21.756  27.129  10.927
86247W        W50191  37.862  13.150  13.466
86248W        W50192   5.855   9.335  11.959
86249W        W50193   0.873   1.837   2.274
86250W        W50194  34.403   7.304  11.593
86251W        W50195   3.791  37.535  13.527
86252W        W50196  11.278  20.537   1.264
86253W        W50197  29.035  33.021  10.480
86254W        W50198  44.474  15.634   1.220
86255W        W50199  25.181  20.719  13.533
86256W        W50200  25.626   2.907  12.046
86257W        W50201  33.530  26.062   3.314
86258W        W50202  24.610  29.120   3.634
86259W        W50203  34.412  30.460  11.419
86260W        W50204  29.025  14.291   1.898
86261W        W50205  13.789  24.004   3.253
86262W        W50206  15.807  16.767  10.445
86263W        W50207  26.587  26.701   1.407
86264W        W50208  40.436  31.149   2.334
86265W        W50209  26.004  40.827  11.414
86266W        W50210  30.915  18.144   0.403
86267W        W50211  32.419  19.224   0.386
86268W        W50212   6.183  11.634   0.838
86269W        W50213  14.645  37.357  10.643
86270W        W50214  24.688  36.560  11.039
86271W        W50215   5.813  31.533   4.271
86272W        W50216  40.382   6.762   1.708
86273W        W50217  39.838   2.334   2.867
86274W        W50218  18.172   4.398  13.440
86275W        W50219  13.726  43.365   1.784
86276W        W50220  30.536   6.859   2.211
86277W        W50221   2.352  22.732   4.758
86278W        W50222  24.632  35.989   2.861
86279W        W50223  33.996  21.732  13.819
86280W        W50224   2.795  29.122  13.966
86281W        W50225   7.870  42.989   0.934
86282W        W50226  27.147  25.006   5.293
86283W        W50227  10.698  39.003  14.340
86284W        W50228  20.154  40.891   1.301
86285W        W50229   8.693  38.049  11.579
86286W        W50230  14.234  12.681  12.388
86287W        W50231  34.370  39.389  10.490
86288W        W50232  36.057  15.104  12.983
86289W        W50233  30.515  30.626   3.760
86290W        W50234  26.693  14.634   1.788
86291W        W50235  41.492  19.595   1.726
86292W        W50236  42.417  24.586   3.629
86293W        W50237  11.822  44.289   4.172
86294W        W50238  30.988  10.261   2.872
86295W        W50239  41.854  34.038   1.244
86296W        W50240  36.474   9.393  12.555
86297W        W50241  10.368  11.152  10.526
86298W        W50242  26.177  24.605  14.402
86299W        W50243  44.962  24.564  11.921
86300W        W50244  25.165  37.969  11.567
86301W        W50245  23.123  44.300   1.362
86302W        W50246  23.226  40.464   4.214
86303W        W50247   1.256  35.899  12.074
86304W        W50248   9.666  38.501  10.481
86305W        W50249  35.557  29.126  10.471
86306W        W50250  25.552  38.017   0.332
86307W        W50251  14.633  41.032   4.319
86308W        W50252  21.754  14.669  11.883
86309W        W50253  25.144   8.310   1.877
86310W        W50254  28.095  18.196  11.858
86311W        W50255   4.327   8.198  11.594
86312W        W50256  13.121  16.775   4.751
86313W        W50257  43.379  24.574   3.302
86314W        W50258   2.747  36.053   0.414
86315W        W50259  16.617  22.626  10.455
86316W        W50260  41.977   1.290  12.490
86317W        W50261   8.179  28.161  14.850
86318W        W50262  19.543   2.287   0.759
86319W        W50263  17.679  29.113  11.434
86320W        W50264  39.380  31.596  14.990
86321W        W50265  41.952   1.954   1.413
86322W        W50266  15.254  18.104  10.544
86323W        W50267  30.937  43.513  13.881
86324W        W50268  35.072  26.523   1.881
86325W        W50269  21.046  42.436  14.305
86326W        W50270   4.238  16.568  11.084
86327W        W50271   1.788  39.346   4.644
86328W        W50272  28.142  20.117   0.297
86329W        W50273  30.647  30.524  12.379
86330W        W50274  36.566   3.250  13.924
86331W        W50275  17.692  35.588  13.485
86332W        W50276  33.931  36.543  13.905
86333W        W50277  19.113  15.176   0.828
86334W        W50278  27.536  21.093   4.225
86335W        W50279  43.367   1.939   3.355
86336W        W50280   2.846   2.928   2.723
86337W        W50281  21.221  12.683   5.288
86338W        W50282  28.446  35.415   2.738
86339W        W50283  13.339  41.809  11.578
86340W        W50284  39.926  17.089  14.028
86341W        W50285  32.052  29.472  11.979
86342W        W50286   0.961  10.867   2.869
86343W        W50287  21.030  10.335   4.765
86344W        W50288   3.303  23.155  13.045
86345W        W50289  21.698  40.382  11.868
86346W        W50290  32.391   2.964   4.620
86347W        W50291  15.617  26.667   0.835
86348W        W50292  39.384   9.876  13.925
86349W        W50293  40.939  20.718  11.125
86350W        W50294  42.347   5.835  12.982
86351W        W50295  42.919  34.958   2.768
86352W        W50296   7.680   4.740   3.215
86353W        W50297  44.948  35.439  14.466
86354W        W50298  31.967  44.448   0.866
86355W        W50299   0.472  22.577   0.890
86356W        W50300  12.150  32.943  12.909
86357W        W50301  32.076  14.637  11.976
86358W        W50302  26.615  20.118  14.917
86359W        W50303  27.996  15.639  13.847
86360W        W50304  40.973   8.257   2.890
86361W        W50305  42.478  25.710  14.488
86362W        W50306  32.533   6.183  10.908
86363W        W50307  39.396  37.873   2.747
86364W        W50308  10.699   8.790   4.303
86365W        W50309  22.006   4.802  11.084
86366W        W50310  32.481  42.444   0.832
86367W        W50311   3.332  18.141   1.844
86368W        W50312  34.901  10.265   3.285
86369W        W50313   6.329  31.112  10.429
86370W        W50314   9.705  26.045  10.501
86371W        W50315  40.326  44.781   2.730
86372W        W50316  22.251   8.876   2.890
86373W        W50317  32.130  29.651   2.226
86374W        W50318  23.190  19.261   4.795
86375W        W50319   5.829  26.027  13.334
86376W        W50320  38.947  24.084   3.644
86377W        W50321   0.292  31.588   4.727
86378W        W50322  12.805   5.229   0.777
86379W        W50323   6.363   0.936   4.156
86380W        W50324   1.482  39.877   1.329
86381W        W50325  12.616  27.125  12.540
86382W        W50326  13.609  26.085  14.938
86383W        W50327  33.969  33.578   4.740
86384W        W50328  16.137  33.028  12.879
86385W        W50329   6.747  12.339  11.911
86386W        W50330  16.244  23.179   5.303
86387W        W50331  26.089  21.556   3.786
86388W        W50332   3.823   1.930   5.268
86389W        W50333  38.440  24.567   2.824
86390W        W50334   6.327   8.763   1.346
86391W        W50335  13.280  12.211   0.312
86392W        W50336  31.128  36.353  11.576
86393W        W50337  36.388  11.815  10.562
86394W        W50338   7.204   0.750  12.051
86395W        W50339  30.113  42.487   2.350
86396W        W50340  11.760   5.735   1.933
86397W        W50341  44.335   1.382  14.475
86398W        W50342   0.368  29.492  11.993
86399W        W50343  28.006  28.999   2.396
86400W        W50344  23.116  11.835  11.066
86401W        W50345   0.875  29.032  13.395
86402W        W50346  12.212  12.322  10.953
86403W        W50347   3.344  12.219   4.144
86404W        W50348   0.746  28.961   0.350
86405W        W50349  16.173  21.243   3.718
86406W        W50350   6.820  19.700  14.281
86407W        W50351  43.784  36.856   1.742
86408W        W50352  16.657  13.351  14.971
86409W        W50353  25.534  32.022  13.818
86410W        W50354  42.826  34.890  13.471
86411W        W50355  44.466  34.513  12.531
86412W        W50356  37.471  25.561   4.338
86413W        W50357  34.565  22.199   2.271
86414W        W50358   0.360  43.773  11.557
86415W        W50359  34.111  25.148   1.288
86416W        W50360  22.006  17.790   0.341
86417W        W50361  26.034  10.202   3.635
86418W        W50362  21.677   0.411   1.790
86419W        W50363  11.790  30.006   1.381
86420W        W50364  42.461   5.724   4.124
86421W        W50365   9.297  22.219  12.571
86422W        W50366  24.095  10.223  10.572
86423W        W50367  24.101  23.708   1.712
86424W        W50368  22.739  38.393   1.749
86425W        W50369  34.881  14.781   4.188
86426W        W50370  30.579  35.592  12.385
86427W        W50371  13.115   8.812  14.341
86428W        W50372   6.748  12.344  10.593
86429W        W50373   6.828  13.757   1.714
86430W        W50374  39.900  19.760  11.901
86431W        W50375  21.168  12.685   3.667
86432W        W50376  14.645  27.452  12.560
86433W        W50377  37.935  15.642  13.510
86434W        W50378  13.317   3.340   4.601
86435W        W50379  26.140  17.070  14.967
86436W        W50380  15.256   1.404   5.657
86437W        W50381  11.364  29.012   4.194
86438W        W50382  19.269  36.582  14.959
86439W        W50383  39.964  22.642   4.138
86440W        W50384  23.043  17.290   2.319
86441W        W50385   8.720  20.523  10.508
86442W        W50386   4.331  23.594  12.344
86443W        W50387  11.200   1.942   0.483
86444W        W50388  16.711  26.499   0.836
86445W        W50389  39.884  10.146  13.439
86446W        W50390   2.288  21.683   1.397
86447W        W50391   5.779   8.796  11.022
86448W        W50392  22.552  23.056   0.472
86449W        W50393  41.313  38.541   4.346
86450W        W50394  24.566  36.057  14.938
86451W        W50395  20.109  42.788   5.240
86452W        W50396   7.758  42.322   2.369
86453W        W50397  14.787  32.505   3.288
86454W        W50398  32.422   5.885   4.316
86455W        W50399   1.966   9.341  12.897
86456W        W50400  16.617  33.974   2.206
86457W        W50401   9.808   0.275  12.469
86458W        W50402  10.659  43.369   2.753
86459W        W50403   0.461  13.201   2.787
86460W        W50404  38.850  10.779  12.037
86461W        W50405  25.587  15.613   4.293
86462W        W50406  26.064  15.786  14.319
86463W        W50407  20.660  36.876  14.452
86464W        W50408  43.271  26.601  10.067
86465W        W50409  44.763  31.961   4.119
86466W        W50410  38.020  11.641  10.110
86467W        W50411  17.064  19.551   5.086
86468W        W50412  39.478   1.848  12.909
86469W        W50413  19.588  36.945  13.032
86470W        W50414  30.539  33.516   2.181
86471W        W50415  17.761   9.756   4.758
86472W        W50416  14.236  43.515  14.317
86473W        W50417  17.159  15.251   0.261
86474W        W50418   0.806   1.449  10.457
86475W        W50419   5.823   5.416   3.161
86476W        W50420   3.893  41.383  14.967
86477W        W50421   6.255  32.899   1.292
86478W        W50422  37.858  15.092  13.324
86479W        W50423  34.443  35.056   0.249
86480W        W50424  21.080  40.034   4.833
86481W        W50425  20.187  32.926   3.325
86482W        W50426  27.170  31.066  11.885
86483W        W50427  13.780   5.427  12.421
86484W        W50428  19.058  30.514  14.810
86485W        W50429  13.677  41.512   0.960
86486W        W50430  23.586  27.084   2.795
86487W        W50431   8.225   1.850   0.395
86488W        W50432  42.507  35.060   1.926
86489W        W50433  29.498  44.500   2.306
86490W        W50434  26.122  17.144   0.263
86491W        W50435  33.410  22.560  13.421
86492W        W50436  31.087   8.355  13.926
86493W        W50437  21.576   7.787  11.928
86494W        W50438  30.547  12.721  10.987
86495W        W50439   8.725  44.776  12.933
86496W        W50440  23.540  31.054  13.349
86497W        W50441  34.864  17.281   9.999
86498W        W50442  43.831  31.123   2.387
86499W        W50443  33.451  28.101  12.826
86500W        W50444  12.338  24.516  13.337
86501W        W50445  12.797  32.430   3.222
86502W        W50446  33.091  19.769  13.469
86503W        W50447   2.348   1.825   0.386
86504W        W50448  35.380  13.328  11.928
86505W        W50449  32.442  12.338  13.854
86506W        W50450  26.084  25.068   3.776
86507W        W50451  22.138  30.941  14.397
86508W        W50452   1.435  41.992  11.923
86509W        W50453  40.920   1.903  11.453
86510W        W50454  21.171  10.832  10.495
86511W        W50455  13.727  27.150   2.799
86512W        W50456  35.080   4.920   0.475
86513W        W50457  37.527  35.933   0.248
86514W        W50458  25.673  16.281   1.833
86515W        W50459  22.685  16.672   1.736
86516W        W50460  35.559  38.954   3.275
86517W        W50461  43.420   4.278  13.534
86518W        W50462   8.784  36.011  14.030
86519W        W50463  13.842  26.172  13.413
86520W        W50464   4.900  42.428   3.363
86521W        W50465   9.727  28.089  14.773
86522W        W50466  40.009  44.467  13.004
86523W        W50467  21.093  38.986   1.220
86524W        W50468  44.006  33.490  12.449
86525W        W50469  43.369   3.292   1.310
86526W        W50470   0.892   0.752   1.297
86527W        W50471  33.064  33.537  10.452
86528W        W50472   5.364  19.248  14.398
86529W        W50473  40.887  37.032   1.426
86530W        W50474   9.853   6.795   0.369
86531W        W50475  28.150   5.746  10.988
86532W        W50476  20.541  32.111  10.971
86533W        W50477  18.694  25.540  10.023
86534W        W50478  38.931  28.557   4.821
86535W        W50479   0.872  20.203  11.925
86536W        W50480  44.397  25.142   1.818
86537W        W50481  33.383  22.610   5.197
86538W        W50482  30.503   2.858  14.347
86539W        W50483  17.619  20.177  12.462
86540W        W50484   0.930  17.188  12.918
86541W        W50485  23.189  34.984  10.599
86542W        W50486  21.684   5.719   1.367
86543W        W50487  10.646   9.651   4.174
86544W        W50488  16.185  22.172  12.001
86545W        W50489  38.362  42.518   2.769
86546W        W50490  32.490   2.258   1.332
86547W        W50491  30.429   5.798   3.381
86548W        W50492   4.897   0.406  12.958
86549W        W50493   5.905  19.172  13.418
86550W        W50494  19.124  28.528   2.825
86551W        W50495   0.880   2.361   2.857
86552W        W50496  23.082  15.616   1.855
86553W        W50497   3.799  31.002  13.948
86554W        W50498  10.283  16.626   3.170
86555W        W50499   0.424   7.750   0.808
86556W        W50500  26.561  21.514   4.181
86557W        W50501  31.610  19.652  12.003
86558W        W50502  16.256  40.911   3.702
86559W        W50503  40.014  36.412  14.316
86560W        W50504  21.245  41.351  13.862
86561W        W50505  10.849  31.469  13.389
86562W        W50506   9.392  23.045  13.032
86563W        W50507  43.862   9.260  13.799
86564W        W50508   8.379  11.716  14.375
86565W        W50509  32.622  39.024   3.180
86566W        W50510  26.500  40.323   0.922
86567W        W50511  20.272  34.474  10.573
86568W        W50512  26.091  28.181   3.220
86569W        W50513   8.687   7.825  12.013
86570W        W50514   7.373  33.918   4.249
86571W        W50515  26.204  11.848   0.482
86572W        W50516   0.404   6.797   5.624
86573W        W50517  13.318  31.409   0.421
86574W        W50518  43.445  13.772   2.406
86575W        W50519  35.073  40.870  14.422
86576W        W50520  40.316   3.387   5.133
86577W        W50521  43.389  13.644  10.447
86578W        W50522   0.316  38.840   4.203
86579W        W50523  34.369  16.149  14.515
86580W        W50524   4.739  11.282  10.614
86581W        W50525   8.208   9.153   3.643
86582W        W50526  22.016  44.342   1.288
86583W        W50527  30.132  32.530   3.226
86584W        W50528  14.701  41.930  13.041
86585W        W50529  10.207  32.563   0.929
86586W        W50530  26.572  21.113   0.376
86587W        W50531   9.168   6.785  12.347
86588W        W50532   0.319  39.415   3.796
86589W        W50533  28.116   3.286  11.410
86590W        W50534  39.453  14.828   1.758
86591W        W50535  37.933  25.586  10.969
86592W        W50536   0.944  18.728   2.314
86593W        W50537  20.143   3.842  11.507
86594W        W50538   4.868  27.053  14.890
86595W        W50539  26.643   5.400  12.948
86596W        W50540  39.063  31.442   3.635
86597W        W50541  39.890  16.720  14.859
86598W        W50542   4.250  18.282   0.460
86599W        W50543  43.955  19.213   2.668
86600W        W50544  27.151   7.735   1.418
86601W        W50545   3.769  17.183  11.941
86602W        W50546  37.946  16.649   1.410
86603W        W50547  11.744  12.716   3.707
86604W        W50548  29.098  41.442  13.802
86605W        W50549  23.689   7.897  13.056
86606W        W50550   8.748  36.371   0.287
86607W        W50551  33.073   6.686  13.345
86608W        W50552  12.751  37.349  12.528
86609W        W50553  12.846  20.642   4.314
86610W        W50554  23.634  39.490   3.820
86611W        W50555  33.489  35.100  10.136
86612W        W50556   2.893  26.518  11.088
86613W        W50557  28.493  41.938   3.305
86614W        W50558  32.021  24.496  10.983
86615W        W50559  10.156   6.336  12.024
86616W        W50560   1.431  23.139   3.789
86617W        W50561  41.951  10.833  12.003
86618W        W50562   3.789  11.845   4.334
86619W        W50563  11.127  25.025   4.609
86620W        W50564  20.549   3.229  10.989
86621W        W50565  20.559   0.338  10.413
86622W        W50566  28.954  24.653  11.996
86623W        W50567   6.419  29.568   2.213
86624W        W50568  44.936  33.533   3.825
86625W        W50569  38.528   5.770   1.292
86626W        W50570  27.012  18.281  13.527
86627W        W50571  20.156  30.498   0.453
86628W        W50572  35.508  37.413   4.660
86629W        W50573   7.385  39.891  13.861
86630W        W50574  36.032  20.095   0.735
86631W        W50575   3.310  15.698   1.425
86632W        W50576  32.480  24.106  14.483
86633W        W50577  33.987  32.599  12.550
86634W        W50578   0.316  21.641   1.725
86635W        W50579  21.596   2.827   0.932
86636W        W50580  43.459  10.185  12.990
86637W        W50581  20.136  22.212  14.885
86638W        W50582  24.159  33.914   1.441
86639W        W50583  18.098   6.359  14.842
86640W        W50584  35.369  36.503   2.743
86641W        W50585  14.670   5.374   2.390
86642W        W50586  27.183  33.605   4.693
86643W        W50587  12.666  27.971   4.736
86644W        W50588  17.073   9.356   1.876
86645W        W50589  33.936  37.062   0.314
86646W        W50590  20.123  16.727  14.955
86647W        W50591  23.185  20.047   1.254
86648W        W50592  20.204   6.805   9.467
86649W        W50593  35.918  24.067  12.441
86650W        W50594  16.692  26.961  11.565
86651W        W50595  34.584  34.570   4.743
86652W        W50596  31.635  37.429  13.419
86653W        W50597  37.574  43.811  11.953
86654W        W50598  28.161  15.188  12.991
86655W        W50599  33.420  33.503   0.371
86656W        W50600  15.602   8.338  14.916
86657W        W50601  31.479  25.031   0.852
86658W        W50602   3.225   9.302   3.352
86659W        W50603  14.176  34.115   4.670
86660W        W50604   5.275   0.811  13.873
86661W        W50605   4.794  35.047   0.393
86662W        W50606  37.010  25.638  14.304
86663W        W50607  33.499  42.992  12.552
86664W        W50608  20.737  41.970   3.720
86665W        W50609   5.848   7.811  14.781
86666W        W50610  19.165  11.172   1.925
86667W        W50611  10.747  38.919  14.928
86668W        W50612   7.893  25.093  12.404
86669W        W50613  37.445  11.343   1.830
86670W        W50614   3.847   1.259   4.628
86671W        W50615  38.976  12.751   5.277
86672W        W50616  26.155  28.542  14.771
86673W        W50617  31.406  12.322   0.845
86674W        W50618   6.305  14.311   0.732
86675W        W50619  43.356  40.971  13.346
86676W        W50620  42.777  24.606   1.793
86677W        W50621  29.524  26.695   2.765
86678W        W50622  40.404  36.573  10.423
86679W        W50623  43.284  30.566   2.368
86680W        W50624  22.670  23.630   4.708
86681W        W50625   1.281  28.438  14.396
86682W        W50626   7.410   5.753   4.750
86683W        W50627   1.767   7.398   0.913
86684W        W50628  29.094  24.201  10.415
86685W        W50629   1.834  13.201   3.870
86686W        W50630  34.577  27.139   1.362
86687W        W50631  20.537  28.479  11.934
86688W        W50632   2.777  22.087  10.901
86689W        W50633   5.365   2.951   1.834
86690W        W50634  30.916   0.829  12.445
86691W        W50635   6.897   7.311  12.439
86692W        W50636  20.761   1.805   1.226
86693W        W50637  29.146  41.911  11.541
86694W        W50638  16.621  33.009   2.279
86695W        W50639  14.628   1.902   4.701
86696W        W50640   9.810  36.460   1.829
86697W        W50641  16.578  17.699  10.415
86698W        W50642   2.843  27.944   0.318
86699W        W50643  30.061   9.852  11.982
86700W        W50644  15.161  25.978   1.238
86701W        W50645  36.388  22.548   2.690
86702W        W50646   4.745   2.376   3.667
86703W        W50647  28.452  34.968  13.979
86704W        W50648  35.102   9.285  11.071
86705W        W50649  39.978  37.340   0.839
86706W        W50650  25.636  15.310  10.539
86707W        W50651   9.233  28.005  14.000
86708W        W50652  35.506   6.855   0.302
86709W        W50653  28.648  10.698   4.338
86710W        W50654  37.499  38.979  12.506
86711W        W50655  38.857   6.272  10.937
86712W        W50656  13.723  30.023  13.321
86713W        W50657  31.126  37.530   3.718
86714W        W50658  16.147  18.194   0.398
86715W        W50659  24.488  29.938  11.888
86716W        W50660   8.887  39.532  10.913
86717W        W50661  20.088  19.269  12.867
86718W        W50662  35.457   6.198  14.882
86719W        W50663  16.197   6.199  14.006
86720W        W50664  40.349   5.859  12.889
86721W        W50665   8.348   2.252  12.838
86722W        W50666   2.360  15.174   4.124
86723W        W50667  33.469   2.340   1.815
86724W        W50668  10.179  43.953   4.827
86725W        W50669  22.101   7.228  13.836
86726W        W50670  13.112  42.981  10.519
86727W        W50671  38.982  36.482  10.073
86728W        W50672  44.288   3.796  12.885
86729W        W50673   3.249   0.851  10.629
86730W        W50674  32.554  28.180  13.546
86731W        W50675  26.996  21.717   3.688
86732W        W50676  30.564  42.303   9.611
86733W        W50677   7.236  33.949  12.374
86734W        W50678  29.602  23.127  12.942
86735W        W50679  31.033  30.592  11.927
86736W        W50680  23.985  17.251   2.281
86737W        W50681  34.531  35.028  11.087
86738W        W50682   5.886  29.973  14.407
86739W        W50683  34.110  16.712  14.885
86740W        W50684  13.176  27.016   0.443
86741W        W50685  23.129  25.550   2.669
86742W        W50686  14.305  30.636  12.502
86743W        W50687  39.815  22.587  12.374
86744W        W50688   9.300  12.249   1.888
86745W        W50689  14.149  38.863  12.839
86746W        W50690  34.447  29.100  13.853
86747W        W50691  35.422  25.183   0.282
86748W        W50692  17.281  24.097  12.929
86749W        W50693  13.769  26.174   2.242
86750W        W50694   5.316  30.568   4.750
86751W        W50695  28.486  40.859  11.952
86752W        W50696   1.340   3.841   4.197
86753W        W50697  32.975  21.228   4.215
86754W        W50698  41.384  24.491   0.744
86755W        W50699  16.603  12.770  12.342
86756W        W50700  20.680  40.323  14.408
86757W        W50701  17.576  36.538  12.375
86758W        W50702   5.371  10.327   4.275
86759W        W50703   9.311   0.831   3.858
86760W        W50704  35.357  27.014   2.308
86761W        W50705  30.522   6.247   3.281
86762W        W50706  40.052  39.556   4.647
86763W        W50707  42.997  24.544   0.444
86764W        W50708  37.554  41.511  10.544
86765W        W50709  25.163   6.886   1.246
86766W        W50710   0.834   0.769   4.163
86767W        W50711  42.345  33.394   1.284
86768W        W50712   8.851  15.597   1.367
86769W        W50713  27.096  21.661   0.270
86770W        W50714  18.702  17.677  10.940
86771W        W50715  28.502   5.696   0.371
86772W        W50716   0.802  23.096  14.360
86773W        W50717  12.309  24.625   2.411
86774W        W50718  16.302   7.171  14.432
86775W        W50719   4.788  15.721   4.120
86776W        W50720  19.226   9.859  11.947
86777W        W50721  20.685  16.784  14.425
86778W        W50722  43.972   0.479   1.213
86779W        W50723   9.301  38.849  10.455
86780W        W50724  41.429  15.132  13.495
86781W        W50725  38.978  17.185  14.841
86782W        W50726   0.458  10.171   1.786
86783W        W50727   2.428   7.258  13.537
86784W        W50728   9.314  34.485  12.854
86785W        W50729  18.128  23.585   1.755
86786W        W50730  42.980  30.416   0.942
86787W        W50731  42.823  15.196   0.389
86788W        W50732  30.110   2.447  10.415
86789W        W50733  33.964   6.904  14.385
86790W        W50734  35.087   4.294   3.661
86791W        W50735  44.360  44.417   2.674
86792W        W50736  31.450  22.566   3.857
86793W        W50737  36.527  43.489  14.432
86794W        W50738  35.886  32.042   0.350
86795W        W50739  44.420  43.769  14.391
86796W        W50740   1.882   0.265  13.867
86797W        W50741  18.626  15.248   0.425
86798W        W50742  28.115   6.405   3.327
86799W        W50743   0.379   2.747   2.763
86800W        W50744  18.703   9.790  11.910
86801W        W50745  13.640  12.754  12.085
86802W        W50746  40.493  19.175  10.926
86803W        W50747  17.118  41.831  12.929
86804W        W50748   7.828  39.994  13.831
86805W        W50749  32.467   8.362  11.869
86806W        W50750  12.813  10.743   3.360
86807W        W50751  36.998  28.003   4.146
86808W        W50752  35.078  31.975  12.894
86809W        W50753  22.226  26.590  14.403
86810W        W50754   8.736  16.637   0.948
86811W        W50755  23.641   9.752  10.898
86812W        W50756   6.849  35.999  10.596
86813W        W50757  38.840   4.787  10.069
86814W        W50758  11.713  16.251  13.060
86815W        W50759  14.269   7.832  14.766
86816W        W50760  31.446  30.927  13.335
86817W        W50761  33.462  19.180   1.396
86818W        W50762  24.084  42.884   0.477
86819W        W50763  41.818  25.008  12.959
86820W        W50764  24.218  17.288  12.398
86821W        W50765  13.721   9.862   0.431
86822W        W50766  33.882  30.595   4.326
86823W        W50767  26.478  15.134  13.389
86824W        W50768   3.388  31.135  12.405
86825W        W50769   8.324  29.035   0.298
86826W        W50770  10.854  12.656  13.045
86827W        W50771  13.119   4.856  10.945
86828W        W50772  26.654  41.460   4.664
86829W        W50773  32.005  16.737  12.020
86830W        W50774  34.964  29.172  13.467
86831W        W50775  23.626  31.940   3.194
86832W        W50776  20.085   6.300  12.881
86833W        W50777  39.937  38.920   3.656
86834W        W50778  24.203   0.820   3.289
86835W        W50779  18.189  31.111   1.781
86836W        W50780  11.799   7.701   3.196
86837W        W50781  44.951   3.843   1.901
86838W        W50782  42.778   9.838   2.753
86839W        W50783   8.693  23.208  13.890
86840W        W50784  19.154   9.205   4.673
86841W        W50785  24.005  42.974   3.291
86842W        W50786  27.026  19.594   5.162
86843W        W50787  13.659  35.511   9.545
86844W        W50788  34.117  37.943   1.319
86845W        W50789  41.949   1.941  14.342
86846W        W50790  15.180  34.515   5.319
86847W        W50791  20.549  25.087   1.751
86848W        W50792   1.394  27.008   4.206
86849W        W50793   0.281  31.033   1.903
86850W        W50794  28.571  28.119   0.931
86851W        W50795   1.790  19.739  13.319
86852W        W50796  14.312  20.042   3.199
86853W        W50797  44.291  36.025  14.819
86854W        W50798   7.737  29.096  13.429
86855W        W50799  21.170  15.239   0.941
86856W        W50800  32.625  19.125  11.035
86857W        W50801  13.254   7.797   1.798
86858W        W50802  22.013   8.272  11.549
86859W        W50803   3.265  17.575   1.788
86860W        W50804   0.373  19.107   0.250
86861W        W50805  26.199  15.698  10.525
86862W        W50806   7.886  43.335   2.327
86863W        W50807  14.610   5.806  13.469
86864W        W50808  12.175  44.465   2.776
86865W        W50809  35.005   2.379  13.394
86866W        W50810  10.249   5.237  14.420
86867W        W50811   1.945  36.460   2.405
86868W        W50812  27.092  12.726  12.562
86869W        W50813  15.277  13.228  13.385
86870W        W50814  10.355   9.838  11.574
86871W        W50815  44.869  27.970  13.333
86872W        W50816  41.368   9.755   1.884
86873W        W50817  14.629  41.884  14.869
86874W        W50818   7.904   0.424   1.736
86875W        W50819   4.412  19.143   1.929
86876W        W50820  19.549   7.793   4.728
86877W        W50821  26.526  40.347   2.706
86878W        W50822  36.905   2.327   4.746
86879W        W50823  23.630   2.370   3.857
86880W        W50824  20.700  20.644  11.013
86881W        W50825  41.508  28.059  12.497
86882W        W50826  43.766  35.957  12.936
86883W        W50827  18.587   4.231   4.132
86884W        W50828  43.382  11.741  10.040
86885W        W50829  22.727  38.470   0.882
86886W        W50830  20.664  31.962  11.945
86887W        W50831  10.816  18.089  11.572
86888W        W50832  41.503  41.450  10.604
86889W        W50833   4.396  35.917   3.718
86890W        W50834  42.301  38.067  14.819
86891W        W50835  23.578   3.880   1.735
86892W        W50836   7.733  17.150  10.579
86893W        W50837  34.000  14.289   4.691
86894W        W50838  36.538  35.971   1.360
86895W        W50839  22.709  39.514  14.431
86896W        W50840  20.667  30.618  11.979
86897W        W50841   8.730  13.300  14.892
86898W        W50842  31.988  13.183  10.913
86899W        W50843  14.234  25.059   0.406
86900W        W50844  33.489  35.553  13.476
86901W        W50845  38.990   4.432  10.979
86902W        W50846  21.038  14.795  11.579
86903W        W50847  22.542  18.589  11.001
86904W        W50848  31.611  25.511   1.424
86905W        W50849  25.088   5.271   4.146
86906W        W50850  17.114   3.874   0.814
86907W        W50851  24.523  12.127  10.979
86908W        W50852   8.724  18.697   9.470
86909W        W50853  20.155  40.009  10.434
86910W        W50854  28.483  30.025  13.312
86911W        W50855  44.819  36.931  12.406
86912W        W50856  35.069  10.350   0.418
86913W        W50857  12.343  26.700  11.021
86914W        W50858   5.330  23.522   0.901
86915W        W50859   5.932  33.972   1.858
86916W        W50860  24.482  11.740   2.718
86917W        W50861  22.606  41.397   4.634
86918W        W50862  16.691   6.733   4.624
86919W        W50863  37.933  13.622  10.510
86920W        W50864   4.858  20.214  11.078
86921W        W50865  13.687  22.560  13.964
86922W        W50866  33.457  37.529  13.793
86923W        W50867  17.792  19.046   2.774
86924W        W50868  33.081  33.092  14.309
86925W        W50869  15.179  18.779  11.443
86926W        W50870   1.846   6.427   0.429
86927W        W50871  43.409  29.450  13.537
86928W        W50872  38.537  32.626   0.823
86929W        W50873  38.479   4.378   3.321
86930W        W50874  23.133   8.845  11.018
86931W        W50875  11.347  31.039   1.867
86932W        W50876  28.651  33.112  14.862
86933W        W50877   5.346  19.637  14.477
86934W        W50878  27.552  12.205  12.002
86935W        W50879  38.480  33.903  14.918
86936W        W50880   9.346   4.257   0.900
86937W        W50881   0.882  15.800   1.359
86938W        W50882  27.529   9.352  13.892
86939W        W50883  17.641  11.752  12.387
86940W        W50884   2.374  23.527   0.402
86941W        W50885  23.012  36.969   1.890
86942W        W50886  20.755   7.286   4.736
86943W        W50887  24.062  29.539   1.867
86944W        W50888  28.013   9.232  14.451
86945W        W50889  15.250  15.810   0.783
86946W        W50890  34.523  11.843   2.823
86947W        W50891  17.067   3.884   0.354
86948W        W50892   2.927   1.886   4.672
86949W        W50893  32.047  24.229  11.563
86950W        W50894  31.588  16.640  14.501
86951W        W50895  17.283  25.127   3.184
86952W        W50896  40.969  43.291  12.540
86953W        W50897  10.862  40.987   0.477
86954W        W50898  42.311  44.440  11.595
86955W        W50899  35.600  32.557   1.344
86956W        W50900   6.709  37.429   3.169
86957W        W50901  29.557  19.060   1.732
86958W        W50902  17.694  13.252   0.250
86959W        W50903  16.114  19.747   3.664
86960W        W50904  13.273  33.595  12.483
86961W        W50905  34.552  25.662   3.157
86962W        W50906  20.637  22.200   2.876
86963W        W50907  20.261  34.420  13.955
86964W        W50908  20.120  23.035   1.794
86965W        W50909  15.235   8.692   9.437
86966W        W50910  32.605  12.835  14.907
86967W        W50911  42.459  25.186  10.447
86968W        W50912   3.334  40.911   3.319
86969W        W50913  44.267  26.109   0.775
86970W        W50914   0.355  16.679   1.705
86971W        W50915  12.133  19.251  11.457
86972W        W50916   1.467  10.733   0.802
86973W        W50917  37.528  18.158  11.117
86974W        W50918  44.357  41.467   4.179
86975W        W50919  41.836  42.996   2.895
86976W        W50920  40.480  18.688  11.022
86977W        W50921   2.837   9.322   4.772
86978W        W50922  11.645  35.090  12.938
86979W        W50923  20.749  25.155   2.864
86980W        W50924  22.199  26.638  11.109
86981W        W50925   5.932  25.585  13.928
86982W        W50926  16.742  39.930   4.721
86983W        W50927  14.325  20.086   1.836
86984W        W50928  22.105  41.500   0.415
86985W        W50929   8.677  23.128  11.910
86986W        W50930  22.228  31.592  14.304
86987W        W50931  16.769   3.454  12.568
86988W        W50932  23.993  29.479   1.293
86989W        W50933  34.499  24.589  13.047
86990W        W50934  30.079  36.562  12.093
86991W        W50935  26.025  15.097  12.443
86992W        W50936  18.739  39.365  13.031
86993W        W50937  22.204  42.457   1.425
86994W        W50938  43.375  42.301  13.950
86995W        W50939  38.385  11.720  11.544
86996W        W50940  24.702  16.690  11.441
86997W        W50941  10.695   1.262  11.121
86998W        W50942  40.484   8.804   4.324
86999W        W50943  33.407  12.119   1.255
87000W        W50944   7.769  12.294  13.387
87001W        W50945   4.409  11.229  10.935
87002W        W50946  16.188   1.330  10.986
87003W        W50947  13.266  20.137   4.793
87004W        W50948  37.032   0.281   4.233
87005W        W50949   4.258  22.731   2.749
87006W        W50950  21.252  17.564  10.404
87007W        W50951   2.769  38.401   3.860
87008W        W50952  37.891  32.913   3.866
87009W        W50953  37.971   2.879  14.836
87010W        W50954  36.917   6.313  14.416
87011W        W50955  30.064   6.713   4.307
87012W        W50956   6.851  10.757   2.836
87013W        W50957   3.250  32.015   5.278
87014W        W50958   1.789  36.055  11.502
87015W        W50959  12.676  16.155   4.701
87016W        W50960  28.164   9.732   2.807
87017W        W50961  14.800  24.602  13.377
87018W        W50962  11.724  14.622  14.857
87019W        W50963  32.593  39.986   3.657
87020W        W50964   4.223   6.308  12.475
87021W        W50965  25.219  20.119  14.798
87022W        W50966   0.301  38.994  10.948
87023W        W50967  28.169   0.860  10.125
87024W        W50968   1.246  16.311  12.399
87025W        W50969  26.032   1.314   0.875
87026W        W50970   2.470  37.398  14.332
87027W        W50971  14.124  43.992   3.153
87028W        W50972  33.480  38.828   3.702
87029W        W50973  11.301  43.961   2.777
87030W        W50974  28.054   7.877   1.874
87031W        W50975  39.970  42.921   2.741
87032W        W50976  26.601  33.435   1.439
87033W        W50977   0.823  29.600  11.483
87034W        W50978  32.516   0.751   2.302
87035W        W50979   8.821   9.814   3.217
87036W        W50980   8.255  11.280   0.831
87037W        W50981   4.699   4.450  11.103
87038W        W50982  23.094  23.038   0.953
87039W        W50983  38.931   4.831  13.792
87040W        W50984  21.600  38.984  12.982
87041W        W50985   1.275  15.675  14.816
87042W        W50986  22.998  43.288   3.365
87043W        W50987  44.899   8.746  13.011
87044W        W50988  35.600  38.537   1.362
87045W        W50989   5.893   4.727  10.944
87046W        W50990   8.312  41.406  12.546
87047W        W50991  30.963  11.320   2.701
87048W        W50992  43.372  43.020  11.505
87049W        W50993   8.663  13.644   0.410
87050W        W50994  19.056  27.060  13.356
87051W        W50995   2.406  19.728  12.880
87052W        W50996   4.837   0.413  11.912
87053W        W50997   2.457  13.775   4.135
87054W        W50998  28.547  17.237   1.850
87055W        W50999  42.384  32.437  12.535
87056W        W51000   4.794  44.429  12.966
87057W        W51001  42.380  35.585   4.774
87058W        W51002  42.958  43.797  14.380
87059W        W51003  20.041  20.230   4.187
87060W        W51004  28.607   4.395   1.900
87061W        W51005  30.087  27.187  12.532
87062W        W51006  22.249   6.834   0.920
87063W        W51007  35.058   0.433   0.372
87064W        W51008   3.790  10.720  13.532
87065W        W51009  30.521  16.813  13.358
87066W        W51010   7.409  26.612  10.561
87067W        W51011  25.610  35.468   2.713
87068W        W51012   0.918  27.189   0.918
87069W        W51013  43.911  25.160   3.683
87070W        W51014   5.816  17.796   1.397
87071W        W51015  40.803  37.341   3.165
87072W        W51016  31.108  30.556  13.416
87073W        W51017  38.561  37.061  12.501
87074W        W51018  22.125  32.588  13.010
87075W        W51019   0.935   3.852  14.816
87076W        W51020  31.494   1.939  14.858
87077W        W51021  19.166  18.678  10.506
87078W        W51022  24.044  20.129   1.417
87079W        W51023   0.356  32.996  11.936
87080W        W51024  23.545  42.432  10.983
87081W        W51025  42.971  10.751  11.862
87082W        W51026  32.572  40.982   4.826
87083W        W51027  41.427   3.387   3.670
87084W        W51028  42.949  35.061   4.684
87085W        W51029  29.067   7.831  12.932
87086W        W51030  30.932  40.909   1.301
87087W        W51031   0.928  43.910  13.813
87088W        W51032  25.560   4.328   2.353
87089W        W51033  19.208  10.633   2.726
87090W        W51034   6.758  39.318  12.450
87091W        W51035  28.002  39.852   2.332
87092W        W51036  36.916  32.988  11.412
87093W        W51037  28.000  24.606   4.295
87094W        W51038  22.671  15.811  14.318
87095W        W51039  43.427  22.165  11.411
87096W        W51040  11.749   7.262   0.410
87097W        W51041  17.278  42.981  11.097
87098W        W51042   2.790   8.266   2.682
87099W        W51043  17.802  23.220   2.827
87100W        W51044   7.273  35.471   0.476
87101W        W51045  10.349  20.631  14.381
87102W        W51046  44.921  18.664  12.556
87103W        W51047  36.504  14.638   3.704
87104W        W51048   6.386  32.957  11.931
87105W        W51049  21.610  32.590   3.152
87106W        W51050  36.415   7.370   2.394
87107W        W51051  28.437   9.314   0.394
87108W        W51052   2.336   2.780   2.745
87109W        W51053  30.115  15.128   4.617
87110W        W51054   6.811  30.586  14.382
87111W        W51055  38.039  15.148   0.824
87112W        W51056  36.998  14.340  13.797
87113W        W51057  44.959   4.924   2.794
87114W        W51058  19.077  15.304  13.988
87115W        W51059   4.341  33.478  12.481
87116W        W51060  31.046  44.460   4.612
87117W        W51061   0.912  27.102  12.489
87118W        W51062  22.608   5.932   4.800
87119W        W51063  43.007  25.616   4.135
87120W        W51064   4.715  39.529  13.445
87121W        W51065  18.278  26.003  10.568
87122W        W51066  37.923  28.139  10.003
87123W        W51067  41.463   4.850   3.861
87124W        W51068   0.300  29.596  14.356
87125W        W51069   8.779  43.987  12.873
87126W        W51070   2.740  13.290  12.518
87127W        W51071  22.018  32.002   2.725
87128W        W51072  18.622  15.598   4.695
87129W        W51073  29.110  39.849   2.688
87130W        W51074  19.250  11.740   4.200
87131W        W51075  10.830  27.147   2.342
87132W        W51076  38.838  16.150   3.192
87133W        W51077  14.220   3.281   2.835
87134W        W51078  32.553  33.091   0.912
87135W        W51079  24.674   2.264  14.832
87136W        W51080  33.499  28.620  10.528
87137W        W51081  33.502  39.948   1.719
87138W        W51082   3.895  40.966  11.572
87139W        W51083  14.158  17.734   4.349
87140W        W51084  25.605  23.657  14.827
87141W        W51085   9.203  22.580   4.790
87142W        W51086  18.133  26.563  12.885
87143W        W51087   9.713  29.101  13.400
87144W        W51088  11.802  17.637  11.430
87145W        W51089   3.278  37.384   3.149
87146W        W51090  36.029  16.089  12.397
87147W        W51091  32.490  37.558  11.024
87148W        W51092  19.216   0.800  11.052
87149W        W51093  24.184  13.795   3.719
87150W        W51094  15.822   4.736  12.509
87151W        W51095  29.017   9.252  13.822
87152W        W51096  22.075  35.586  10.923
87153W        W51097  23.503  21.701  11.891
87154W        W51098  29.099  14.228   0.922
87155W        W51099  13.843  22.170   3.213
87156W        W51100   9.298  14.660   1.381
87157W        W51101  13.128   4.834  13.944
87158W        W51102  11.683  24.146   1.895
87159W        W51103  17.277  21.018  13.857
87160W        W51104  36.504   6.903  14.391
87161W        W51105  11.661   9.184   2.792
87162W        W51106   8.848  43.323   1.767
87163W        W51107  23.173  13.296   2.731
87164W        W51108   0.414  34.017   1.450
87165W        W51109   3.792  18.249   1.267
87166W        W51110  21.065  34.559  13.434
87167W        W51111   6.787  40.532   3.657
87168W        W51112  18.131   9.257   2.795
87169W        W51113  36.084   7.782   2.734
87170W        W51114  29.105  26.651  14.912
87171W        W51115  25.076  27.653   3.211
87172W        W51116   1.440  37.520   3.193
87173W        W51117  12.230  25.095   3.355
87174W        W51118  34.477   2.466  11.964
87175W        W51119  12.782  17.081  14.810
87176W        W51120   2.332   4.246   4.735
87177W        W51121   0.786   2.731   4.714
87178W        W51122  22.603  21.613  13.063
87179W        W51123  20.134  32.965   0.874
87180W        W51124  11.852  24.507   3.344
87181W        W51125  11.134  44.850  10.125
87182W        W51126   8.813  11.714   0.441
87183W        W51127  19.096  41.876  13.471
87184W        W51128  17.674   9.781   0.412
87185W        W51129   9.274  39.372  12.533
87186W        W51130  14.333  40.835   2.396
87187W        W51131  40.890  40.971   0.324
87188W        W51132  13.803  28.635   2.359
87189W        W51133  21.560   5.893   0.279
87190W        W51134  44.919  20.693  10.556
87191W        W51135  22.119  32.606   4.133
87192W        W51136  28.581  17.148   3.155
87193W        W51137   1.744  31.999   0.355
87194W        W51138  10.255  27.962   2.662
87195W        W51139  44.889  42.835   3.233
87196W        W51140  44.919   2.898  14.782
87197W        W51141  32.919   0.958   2.269
87198W        W51142   1.805  21.607   4.719
87199W        W51143  15.263   4.874   0.425
87200W        W51144  35.047  18.090   0.445
87201W        W51145  21.170  36.391   2.796
87202W        W51146  28.507   4.814  12.438
87203W        W51147   5.769  18.287   2.832
87204W        W51148  31.081  13.641  11.023
87205W        W51149  34.036  14.132   1.846
87206W        W51150  11.150  19.726   0.945
87207W        W51151   1.259  41.343   2.254
87208W        W51152   9.864  34.513   2.838
87209W        W51153  39.954  24.192  13.453
87210W        W51154  17.244  40.523  11.995
87211W        W51155  15.612  36.498   0.803
87212W        W51156  19.630  12.334  12.534
87213W        W51157   0.314   9.326   1.882
87214W        W51158  18.774  41.964   4.691
87215W        W51159  30.052  12.776  13.384
87216W        W51160  14.835   0.408  14.337
87217W        W51161  10.361  34.065  12.549
87218W        W51162   9.215  18.559  10.514
87219W        W51163  38.325   6.788   0.951
87220W        W51164  23.491  21.577   3.378
87221W        W51165  30.638  16.088  11.913
87222W        W51166  25.626  38.435  11.499
87223W        W51167  13.336   2.862  13.853
87224W        W51168  41.332   8.196  11.951
87225W        W51169  16.615  25.555   5.219
87226W        W51170  12.302   7.774  14.303
87227W        W51171  26.567   3.837  13.931
87228W        W51172  15.116  10.762  12.854
87229W        W51173  26.980   6.798   1.813
87230W        W51174  27.996  15.582  11.391
87231W        W51175  41.031  24.018  10.499
87232W        W51176  38.558   0.299  12.346
87233W        W51177  23.039  11.222  10.989
87234W        W51178   5.330  22.627  12.365
87235W        W51179  32.584  29.566  11.518
87236W        W51180   5.265  19.593  12.900
87237W        W51181  16.631  23.039  13.921
87238W        W51182  28.579  19.617   2.800
87239W        W51183  44.400  39.381   2.739
87240W        W51184  36.465  38.987  11.118
87241W        W51185  31.485  17.266  14.363
87242W        W51186  10.138  36.479  13.372
87243W        W51187  30.155  33.617  10.536
87244W        W51188  27.606  34.425  12.566
87245W        W51189  28.675  11.296   0.802
87246W        W51190  40.959   7.375  13.310
87247W        W51191   3.906   6.679  14.470
87248W        W51192  18.188  14.225  13.465
87249W        W51193  19.634  20.716  10.558
87250W        W51194  20.133  15.821  10.474
87251W        W51195  25.083  19.223   4.160
87252W        W51196  26.157  24.527   1.307
87253W        W51197  17.141   0.275  11.905
87254W        W51198  11.718  17.073  10.413
87255W        W51199  24.489  37.397  11.099
87256W        W51200   0.894  30.117  10.561
87257W        W51201  21.078   5.828  14.832
87258W        W51202  23.027  24.163   1.850
87259W        W51203  38.889  42.998  11.878
87260W        W51204  22.543   3.880   4.246
87261W        W51205  33.423  39.320   1.264
87262W        W51206  36.365  26.498  10.497
87263W        W51207  31.442  38.032  10.489
87264W        W51208   2.327  34.883  14.939
87265W        W51209  41.434  32.120   1.372
87266W        W51210  19.041  17.085  13.899
87267W        W51211  42.842  28.516   1.749
87268W        W51212  35.402  44.269   4.638
87269W        W51213  44.898  23.227  13.009
87270W        W51214  26.597   0.942  11.439
87271W        W51215  13.809  26.533   1.440
87272W        W51216  12.713   4.806  13.489
87273W        W51217  25.613   2.871  14.953
87274W        W51218  12.247  38.392  11.514
87275W        W51219  21.595  10.732   0.339
87276W        W51220  42.389  26.032  11.882
87277W        W51221   5.259  34.474   0.305
87278W        W51222  26.989   8.743  11.400
87279W        W51223  30.081  31.403   1.242
87280W        W51224   7.749  20.234   0.787
87281W        W51225  34.043  44.385  11.611
87282W        W51226  17.137  36.888  13.460
87283W        W51227   3.340  40.847   2.196
87284W        W51228  19.217  14.610   2.259
87285W        W51229  43.882   4.917   0.818
87286W        W51230  36.453  30.465   0.808
87287W        W51231  18.763  26.023   2.737
87288W        W51232  10.152   7.405  13.492
87289W        W51233  19.113  37.875   3.677
87290W        W51234  36.046   5.336   3.145
87291W        W51235  29.490  41.344  14.992
87292W        W51236  28.588   8.669   3.836
87293W        W51237   5.890  24.987  14.894
87294W        W51238  18.717  10.349  12.474
87295W        W51239   5.238  29.965   1.402
87296W        W51240  22.679  12.789  14.435
87297W        W51241  28.575  12.143  10.502
87298W        W51242   0.321   0.890  13.836
87299W        W51243  36.019  10.765  11.390
87300W        W51244  11.634  34.885  12.014
87301W        W51245  34.400  32.441   2.881
87302W        W51246  31.937  32.627   3.771
87303W        W51247  30.160  27.664   2.894
87304W        W51248  16.750  18.154   2.351
87305W        W51249  20.597  26.184  13.314
87306W        W51250   7.212   5.357  14.494
87307W        W51251   1.805   1.971   3.670
87308W        W51252   9.791  20.537   1.729
87309W        W51253  15.308  10.783   3.691
87310W        W51254  40.883  16.748   1.339
87311W        W51255   1.440  19.731   0.815
87312W        W51256  17.154  27.622   2.211
87313W        W51257  16.624  21.514  13.350
87314W        W51258  41.306   0.943   2.748
87315W        W51259   6.839   6.847   1.246
87316W        W51260  36.085   1.380   0.400
87317W        W51261   2.792  43.304  11.879
87318W        W51262   7.324  39.420   3.701
87319W        W51263  31.591   3.761  11.910
87320W        W51264  24.559  38.489  13.057
87321W        W51265  39.403   7.187  11.421
87322W        W51266   7.392  37.997   0.281
87323W        W51267   0.452   6.867   1.390
87324W        W51268   1.294   1.309   2.730
87325W        W51269   7.876  21.024   1.706
87326W        W51270   5.770  17.667   2.317
87327W        W51271   8.343   8.257  11.382
87328W        W51272  34.614  26.008   2.403
87329W        W51273  25.980  31.574   2.305
87330W        W51274  18.774   6.250   2.194
87331W        W51275  33.449   0.751   1.824
87332W        W51276  24.533  13.291  12.402
87333W        W51277  44.922  24.039   3.697
87334W        W51278   6.207  16.188   1.285
87335W        W51279  19.616  33.026   2.407
87336W        W51280  20.179  27.072   3.305
87337W        W51281  30.637  32.420   3.645
87338W        W51282  14.736  18.199   4.171
87339W        W51283  12.229  23.680  10.951
87340W        W51284   4.288   2.316  14.999
87341W        W51285  28.674  43.797   2.827
87342W        W51286   3.272   9.251  14.796
87343W        W51287   8.787   3.239  14.020
87344W        W51288  36.872   4.799   5.144
87345W        W51289  44.361   5.877  13.987
87346W        W51290   9.780  12.182  12.970
87347W        W51291  13.282  37.067  14.849
87348W        W51292   7.245  15.322   0.891
87349W        W51293  17.738  39.062  11.075
87350W        W51294  31.096  39.871  11.103
87351W        W51295   9.168   8.266   0.404
87352W        W51296  33.487   7.710   3.630
87353W        W51297  23.568   5.803   1.324
87354W        W51298   4.251  10.636  10.452
87355W        W51299  30.017  34.041   3.326
87356W        W51300   8.662  15.139  10.949
87357W        W51301  31.608  43.882  13.819
87358W        W51302   3.882  14.259   2.218
87359W        W51303   9.745   5.777   4.722
87360W        W51304  39.969   1.340   1.336
87361W        W51305  21.224  21.067  10.902
87362W        W51306   1.903  42.460   1.313
87363W        W51307  27.047  18.593   2.217
87364W        W51308  12.185   0.936   3.774
87365W        W51309  25.602  35.084  13.391
87366W        W51310  20.247  34.390  11.126
87367W        W51311  13.210  36.483   3.737
87368W        W51312   3.836  29.028   2.266
87369W        W51313  10.712  40.997  10.553
87370W        W51314   7.883  24.134  13.324
87371W        W51315   5.819   5.706   1.836
87372W        W51316  28.097   7.415   3.737
87373W        W51317   7.769  10.856  14.385
87374W        W51318  15.165  41.913   1.880
87375W        W51319   0.337  27.664  13.968
87376W        W51320  35.359  14.817  14.794
87377W        W51321  15.616  21.044   1.817
87378W        W51322  42.503   3.380  10.532
87379W        W51323   8.186  25.107   2.805
87380W        W51324  37.487   8.261  10.436
87381W        W51325   8.213  20.092   4.746
87382W        W51326   2.847   4.406  12.545
87383W        W51327  36.013  34.605   2.776
87384W        W51328  33.051   5.385  10.956
87385W        W51329  20.524  41.458  13.402
87386W        W51330  24.069  13.269   4.177
87387W        W51331  26.618  41.918   0.731
87388W        W51332   0.860  13.618  13.548
87389W        W51333  20.213  34.610   4.154
87390W        W51334  37.991  42.518   0.923
87391W        W51335  13.169   6.919   3.800
87392W        W51336  41.324   3.799   0.283
87393W        W51337   3.351  36.061  10.540
87394W        W51338  10.312  43.986   0.866
87395W        W51339  27.638  42.456   2.288
87396W        W51340  14.646   9.314  13.925
87397W        W51341   8.733  33.386  11.024
87398W        W51342  12.324  40.831   1.289
87399W        W51343  44.913  26.040   3.180
87400W        W51344  10.870  34.962   0.471
87401W        W51345  22.715  39.055  13.522
87402W        W51346  19.210  44.501  11.969
87403W        W51347  29.478  41.425   0.300
87404W        W51348  12.135  14.136  10.912
87405W        W51349  21.125  24.168  10.042
87406W        W51350  27.050  34.510   2.391
87407W        W51351  43.012  34.035   2.321
87408W        W51352   6.224  10.669   1.252
87409W        W51353   2.869  35.478   4.325
87410W        W51354  14.268   8.810   2.849
87411W        W51355  41.975   9.766   2.677
87412W        W51356   6.243  11.802   2.796
87413W        W51357  43.275  16.744  13.899
87414W        W51358  20.529  33.042  13.018
87415W        W51359  36.435   3.824  14.764
87416W        W51360  34.402   8.708   4.786
87417W        W51361   3.350  41.887   1.892
87418W        W51362  20.684  21.751   2.691
87419W        W51363  43.890  24.166  13.877
87420W        W51364  28.608  41.454  12.088
87421W        W51365  11.281  32.019  11.407
87422W        W51366   2.289  28.048   1.400
87423W        W51367  26.012  42.329   4.797
87424W        W51368  17.074  19.252   0.954
87425W        W51369  12.770  15.773   4.690
87426W        W51370  22.202  23.712   0.910
87427W        W51371  29.103   8.784   0.779
87428W        W51372  38.434  17.749  12.384
87429W        W51373  26.155   9.748   1.879
87430W        W51374  38.402  32.950  11.561
87431W        W51375  42.828  44.375   2.355
87432W        W51376   0.742  20.585  12.956
87433W        W51377  36.412  34.008  11.574
87434W        W51378   0.273  10.644  11.554
87435W        W51379  36.359  31.586  14.430
87436W        W51380  44.306  23.722  13.807
87437W        W51381  13.828  39.940   0.807
87438W        W51382  30.085  29.538  11.883
87439W        W51383  29.104  25.677   3.202
87440W        W51384   0.748   8.900   0.482
87441W        W51385  28.970  23.549   2.700
87442W        W51386   5.205  36.446   2.323
87443W        W51387   4.236  13.714   1.766
87444W        W51388   5.220  33.582  11.926
87445W        W51389  17.147  27.476   1.368
87446W        W51390  26.457  21.170   9.945
87447W        W51391  30.530  41.906   4.636
87448W        W51392   4.777  17.572  11.445
87449W        W51393  29.094  32.425  13.801
87450W        W51394  43.874  34.373   0.804
87451W        W51395  34.025  28.092   2.209
87452W        W51396   1.797  40.530   1.311
87453W        W51397  34.390  33.452   1.235
87454W        W51398   0.818  28.623  12.402
87455W        W51399  10.720   1.783  14.991
87456W        W51400  10.328  26.507   2.707
87457W        W51401  23.732  44.311   0.818
87458W        W51402  19.669  35.946  13.445
87459W        W51403  13.347   3.768   0.347
87460W        W51404   4.853  14.204   1.326
87461W        W51405  24.052  35.026   4.701
87462W        W51406  38.412   7.714   0.392
87463W        W51407   2.441  41.869  13.854
87464W        W51408   1.874  44.412  13.328
87465W        W51409  18.158  31.544   2.824
87466W        W51410  12.668  22.535  12.384
87467W        W51411  26.463  28.505  12.958
87468W        W51412   0.765   9.813  13.422
87469W        W51413  19.544   7.377   5.153
87470W        W51414  35.376  19.271   2.680
87471W        W51415  42.938  24.103   4.601
87472W        W51416   0.450   5.203  13.801
87473W        W51417  34.598  23.631   3.716
87474W        W51418   4.259  17.799   2.889
87475W        W51419  23.510  25.102  13.308
87476W        W51420  42.798   8.327  11.028
87477W        W51421  19.589  13.295   0.859
87478W        W51422   1.966  10.844  14.005
87479W        W51423  13.824   7.233  14.852
87480W        W51424  35.098  32.947  10.468
87481W        W51425  24.132  39.002   4.309
87482W        W51426   8.748  30.632   0.726
87483W        W51427  30.459   4.232   3.700
87484W        W51428   5.228  21.600   3.749
87485W        W51429  13.617  19.233  13.548
87486W        W51430  13.273  18.158   3.341
87487W        W51431  24.521  10.294  14.385
87488W        W51432  26.030  30.079  12.886
87489W        W51433  17.584  40.463  14.292
87490W        W51434  23.686  16.757   4.687
87491W        W51435  21.757  22.746  12.092
87492W        W51436   7.341  42.488  11.595
87493W        W51437   9.795  29.049   0.324
87494W        W51438   6.381   0.473   1.213
87495W        W51439  26.976  22.551   4.608
87496W        W51440  35.582  10.733  14.984
87497W        W51441  37.440  23.507   0.313
87498W        W51442  43.379  15.699  14.962
87499W        W51443  29.957   6.387  10.979
87500W        W51444  35.598  40.479  10.941
87501W        W51445  21.640   3.779   0.270
87502W        W51446  28.455  10.651   1.429
87503W        W51447   4.219   8.726  14.456
87504W        W51448  43.493  34.452  10.919
87505W        W51449  33.429  40.034  13.312
87506W        W51450  41.000  20.584   2.748
87507W        W51451   7.334  11.306   0.929
87508W        W51452  23.591   3.359   1.314
87509W        W51453  32.894  41.362  12.065
87510W        W51454  32.912  22.663   1.427
87511W        W51455  20.610  18.567  13.936
87512W        W51456  26.967  41.930  14.760
87513W        W51457   1.906  14.764   0.460
87514W        W51458  31.127  18.775   4.318
87515W        W51459  11.248  25.527   4.716
87516W        W51460  15.194  22.122   2.183
87517W        W51461  43.456  12.827  13.911
87518W        W51462  25.118  42.295  12.915
87519W        W51463  36.997  23.728   2.842
87520W        W51464  14.158  31.480  13.370
87521W        W51465   1.417  33.946   3.842
87522W        W51466  38.011  44.386   2.321
87523W        W51467   2.744  42.514  10.535
87524W        W51468  14.129   0.483  13.811
87525W        W51469  10.351  15.620  14.282
87526W        W51470  27.653  41.043   0.288
87527W        W51471  21.078   0.323  12.041
87528W        W51472  11.739  43.943   2.671
87529W        W51473  44.796   6.901   3.251
87530W        W51474  17.573  39.894   4.336
87531W        W51475   5.838  22.506   0.865
87532W        W51476  20.171  42.499  10.613
87533W        W51477  21.252   4.234   0.245
87534W        W51478  20.581   7.709   3.317
87535W        W51479  38.017  10.759   4.333
87536W        W51480  33.472   6.784   1.343
87537W        W51481  15.112  14.665   1.754
87538W        W51482  37.480  43.383  14.918
87539W        W51483  18.116  29.998   4.120
87540W        W51484  19.759  27.115   0.743
87541W        W51485  16.206  38.504   3.781
87542W        W51486  26.998   3.243  13.438
87543W        W51487   4.791   6.731   5.227
87544W        W51488  29.568  26.991  11.017
87545W        W51489   6.311  44.310   1.344
87546W        W51490  24.145   0.908  11.947
87547W        W51491  28.459  28.466   0.780
87548W        W51492   4.884  35.455   0.465
87549W        W51493  23.614  20.706   0.828
87550W        W51494   7.192  20.270  13.390
87551W        W51495  14.711  44.894   3.194
87552W        W51496   0.350   8.673   3.724
87553W        W51497  11.686   9.740  14.419
87554W        W51498  20.702  23.063   4.772
87555W        W51499  32.011  17.687  12.897
87556W        W51500  14.218  37.495  14.374
87557W        W51501  11.276  17.115  11.957
87558W        W51502  34.376  40.915  11.422
87559W        W51503   3.322  42.386  14.773
87560W        W51504  43.396  17.146  10.459
87561W        W51505   2.389  33.907   3.679
87562W        W51506  15.608  24.011   2.229
87563W        W51507  17.580   1.305   0.275
87564W        W51508  16.145  41.986   3.804
87565W        W51509  27.963  27.534   0.264
87566W        W51510  34.492  36.868   0.786
87567W        W51511  38.555  37.532   0.855
87568W        W51512   9.768   9.361   2.314
87569W        W51513  32.068  29.594   1.724
87570W        W51514  20.266   7.281  14.830
87571W        W51515  29.090  17.733   0.398
87572W        W51516  39.390  34.065  10.888
87573W        W51517  11.242   9.772  13.884
87574W        W51518  23.999  28.600   2.710
87575W        W51519  25.688  21.732  11.609
87576W        W51520   2.275  32.891  11.078
87577W        W51521  25.042  32.474  14.280
87578W        W51522  23.068  28.156   0.946
87579W        W51523  20.606  29.614   4.166
87580W        W51524  19.723   9.735   3.163
87581W        W51525  39.525  21.536   0.381
87582W        W51526  40.323   9.274   1.427
87583W        W51527  11.343  13.791  13.036
87584W        W51528  16.733  31.435  10.568
87585W        W51529  11.301  18.753   0.961
87586W        W51530  15.693  30.607  11.895
87587W        W51531  28.146  14.787   4.257
87588W        W51532  33.607  11.725   0.748
87589W        W51533   3.915   3.729   0.323
87590W        W51534  29.454  12.701  13.339
87591W        W51535  41.307  32.577  11.515
87592W        W51536  44.980  15.134  11.969
87593W        W51537   1.330  32.891  12.534
87594W        W51538  11.134  40.531   1.261
87595W        W51539  21.122  29.424   2.209
87596W        W51540   3.774  18.746   3.704
87597W        W51541  35.481  24.073  12.047
87598W        W51542  26.184  20.254   3.387
87599W        W51543  37.975  12.774  11.545
87600W        W51544  10.845  27.505   0.259
87601W        W51545  37.932  41.482   5.227
87602W        W51546  22.501  15.227   4.639
87603W        W51547  12.769  28.490  12.563
87604W        W51548  39.362  17.685   1.818
87605W        W51549  40.319  28.178   2.357
87606W        W51550  26.951  35.020  14.939
87607W        W51551  15.797  39.963  10.961
87608W        W51552  35.899   7.194   3.379
87609W        W51553  44.966  23.658  10.939
87610W        W51554  34.394  37.025  10.507
87611W        W51555  10.666   5.857   4.679
87612W        W51556  33.490   7.911  10.569
87613W        W51557  22.610   1.917  11.058
87614W        W51558  16.630  23.068   0.765
87615W        W51559  34.933  24.995   0.842
87616W        W51560  22.032   8.362   3.152
87617W        W51561  29.122  25.106  11.913
87618W        W51562   8.335  24.995  10.906
87619W        W51563  15.610   1.278  11.019
87620W        W51564  28.663   4.907   4.240
87621W        W51565  19.553  15.714  12.391
87622W        W51566  12.288  23.583   0.369
87623W        W51567  13.712  19.669  12.425
87624W        W51568  28.017  24.706  12.371
87625W        W51569   3.766  16.173   1.286
87626W        W51570   4.266  41.301   3.375
87627W        W51571   9.886   5.246  12.492
87628W        W51572  25.147  26.703  11.859
87629W        W51573  18.281  21.654   5.585
87630W        W51574  20.204  44.371  13.898
87631W        W51575   0.856   9.735  14.799
87632W        W51576  20.084   0.838  11.022
87633W        W51577   3.245  12.777  11.856
87634W        W51578  33.542  27.090   4.221
87635W        W51579  16.164  25.006   4.156
87636W        W51580   6.906  40.858   3.196
87637W        W51581  43.451  31.994  12.401
87638W        W51582  42.845  43.781  10.464
87639W        W51583  24.087  15.725   1.887
87640W        W51584  17.787  30.562  11.118
87641W        W51585  19.242  16.248   3.709
87642W        W51586  14.713  44.342  11.871
87643W        W51587   4.275   0.391  13.532
87644W        W51588  20.536  38.397  14.005
87645W        W51589   1.786  12.734   0.376
87646W        W51590  15.662  20.213  13.406
87647W        W51591   4.383  43.470   3.207
87648W        W51592  40.874  16.678  14.770
87649W        W51593  31.954   0.852   1.751
87650W        W51594  10.661   5.830  14.323
87651W        W51595   3.357  17.760   4.155
87652W        W51596  39.025   5.835   5.786
87653W        W51597  15.678  13.691  12.914
87654W        W51598  27.689  10.790   0.298
87655W        W51599  27.109  38.917   2.891
87656W        W51600  31.504  34.906   1.420
87657W        W51601  35.932   0.462  11.577
87658W        W51602  28.079  18.725   0.864
87659W        W51603   5.323  19.757   0.416
87660W        W51604  39.545  21.155  11.544
87661W        W51605  10.191  31.039   3.154
87662W        W51606  14.792  31.145   2.798
87663W        W51607  18.182  14.631   3.742
87664W        W51608  32.420  32.896  14.967
87665W        W51609  31.414   1.782   2.258
87666W        W51610   9.823  36.445  14.278
87667W        W51611   5.437  12.810   4.205
87668W        W51612  29.070  30.147  12.852
87669W        W51613  19.580  31.538   3.188
87670W        W51614  42.508  24.083  10.550
87671W        W51615  25.468  16.249  14.293
87672W        W51616  11.725  31.041  12.430
87673W        W51617  34.606  27.571  10.994
87674W        W51618  39.415  11.864   3.271
87675W        W51619   0.470  37.923   1.831
87676W        W51620  13.756  10.202  12.025
87677W        W51621  31.023  15.167   4.720
87678W        W51622  14.117   3.418   4.205
87679W        W51623  11.143  39.023  11.551
87680W        W51624  44.502  26.693  13.979
87681W        W51625   8.333   2.755  14.308
87682W        W51626  25.036  32.025   1.817
87683W        W51627  39.554  31.938   2.736
87684W        W51628  39.980   5.246   0.768
87685W        W51629  33.944   0.981   4.778
87686W        W51630   2.776  37.427   3.262
87687W        W51631  27.681  21.039  11.995
87688W        W51632   5.439  26.513  13.969
87689W        W51633  31.037  25.116  12.517
87690W        W51634  19.606  19.091   1.856
87691W        W51635  29.439   8.654  11.427
87692W        W51636  43.960  40.522   0.810
87693W        W51637  22.740  20.548  13.990
87694W        W51638  19.245  28.020  10.526
87695W        W51639  16.653   5.290  12.579
87696W        W51640  29.448  14.147   4.664
87697W        W51641   0.850  24.512   4.351
87698W        W51642  18.186  37.009  13.851
87699W        W51643  29.536  22.009   1.279
87700W        W51644  29.664  36.528  12.072
87701W        W51645  10.825  24.680  14.975
87702W        W51646   3.382  23.035  11.983
87703W        W51647  31.486  10.311   4.679
87704W        W51648   6.292  36.429  14.973
87705W        W51649  18.586  19.274  11.018
87706W        W51650   3.815   4.392   1.758
87707W        W51651  37.371  10.767   4.728
87708W        W51652  21.142  14.194   2.287
87709W        W51653  28.480  19.692   5.117
87710W        W51654  35.409   6.908  12.843
87711W        W51655  12.157  32.907   3.246
87712W        W51656  34.448   3.944   4.760
87713W        W51657  41.932  20.678  13.976
87714W        W51658   3.926  25.688   1.306
87715W        W51659  36.948  28.115   1.711
87716W        W51660  44.906  38.520  14.887
87717W        W51661  28.138  15.324  14.988
87718W        W51662  19.753  42.936  11.917
87719W        W51663  24.565  41.891   2.845
87720W        W51664  37.859  11.315   4.164
87721W        W51665  11.793  44.910  12.076
87722W        W51666  11.327   2.815   4.615
87723W        W51667  23.168   4.864   0.808
87724W        W51668  12.674  22.077  13.967
87725W        W51669  28.111  20.561  14.910
87726W        W51670  18.196  36.022   2.307
87727W        W51671  41.490  31.004  14.991
87728W        W51672  42.796  37.921   4.826
87729W        W51673  42.847  31.438  11.979
87730W        W51674  32.122  29.556  14.779
87731W        W51675  20.645   7.789   1.216
87732W        W51676  21.170  41.311   0.960
87733W        W51677  10.258  12.273   4.693
87734W        W51678   2.451  15.104   3.332
87735W        W51679   9.695  12.233  11.082
87736W        W51680  36.471  41.489  14.883
87737W        W51681  28.556  19.652  14.484
87738W        W51682  11.809  12.725  12.823
87739W        W51683  39.380  22.188   2.341
87740W        W51684  28.952  24.615   4.290
87741W        W51685  14.177  21.717   3.781
87742W        W51686  19.754  36.061  13.796
87743W        W51687  43.316  11.754  11.543
87744W        W51688  40.799  36.895   3.337
87745W        W51689   0.340   5.248  13.047
87746W        W51690  34.411  10.686   2.288
87747W        W51691  18.209  25.031  14.487
87748W        W51692  27.587  16.171  10.408
87749W        W51693  37.050   2.318  10.490
87750W        W51694  10.225  16.104   3.379
87751W        W51695  34.035  17.118  11.588
87752W        W51696  23.178  33.552  11.065
87753W        W51697   0.941   9.173  13.002
87754W        W51698   5.890  31.011  14.030
87755W        W51699  43.844  23.694  10.483
87756W        W51700  26.036  20.268  12.349
87757W        W51701  10.811  42.831  11.441
87758W        W51702  13.606  42.965   0.838
87759W        W51703  37.856   1.972   4.721
87760W        W51704  35.480  17.662  10.888
87761W        W51705  21.663  37.500   0.465
87762W        W51706  36.465   3.433   4.250
87763W        W51707  43.013  23.533  12.065
87764W        W51708  38.426   6.237  12.870
87765W        W51709  25.700  14.275  10.983
87766W        W51710  18.147  11.666   3.774
87767W        W51711  24.484  24.008  12.031
87768W        W51712  20.562   3.734   3.865
87769W        W51713  25.585  20.213  11.591
87770W        W51714  43.872  27.980  13.041
87771W        W51715  29.562   5.782   0.923
87772W        W51716  15.581  44.416  14.463
87773W        W51717   6.729   1.303  13.452
87774W        W51718  43.384  29.505   3.674
87775W        W51719  15.731  17.285   3.175
87776W        W51720   0.882  32.934  13.923
87777W        W51721  44.777  33.022   1.867
87778W        W51722  33.096  34.407  13.913
87779W        W51723  42.031  19.654  13.020
87780W        W51724  39.050  23.991  11.945
87781W        W51725  43.307   1.972   4.180
87782W        W51726  37.080  26.170   2.341
87783W        W51727  20.049   1.850  12.025
87784W        W51728  25.535  40.891  12.441
87785W        W51729  32.579   1.817  10.411
87786W        W51730  34.475   1.337   4.722
87787W        W51731  40.536   5.276   0.846
87788W        W51732  43.801   9.220   0.406
87789W        W51733  41.007  21.711   1.312
87790W        W51734  35.467  11.225   2.262
87791W        W51735  41.528  44.296   4.189
87792W        W51736  24.199  36.517   2.788
87793W        W51737   2.363  28.999   3.702
87794W        W51738  26.040  29.470   2.262
87795W        W51739  14.296  38.471   0.368
87796W        W51740  39.879  39.957   3.269
87797W        W51741  13.815   1.903  12.579
87798W        W51742  43.902  29.429   0.842
87799W        W51743  24.214  26.654  11.999
87800W        W51744   3.720  11.153  11.026
87801W        W51745  24.994  37.533  14.412
87802W        W51746   5.320  41.814  10.633
87803W        W51747  30.008   5.411   3.789
87804W        W51748  21.155   7.814   0.786
87805W        W51749  29.486  17.578   3.332
87806W        W51750   8.324  27.945  13.004
87807W        W51751  13.726  32.429   3.736
87808W        W51752   0.326  43.479   2.361
87809W        W51753  21.721  11.833  10.981
87810W        W51754  15.746  11.745  14.303
87811W        W51755  17.627  22.138   5.279
87812W        W51756  17.633   2.738   4.123
87813W        W51757  28.130  31.579  14.812
87814W        W51758  20.750  35.576  11.874
87815W        W51759  25.165  41.033  10.501
87816W        W51760   1.321  34.053   0.951
87817W        W51761  28.059  17.625  12.425
87818W        W51762  36.555  16.102  11.599
87819W        W51763  10.667  33.935   4.715
87820W        W51764  29.453  26.552  11.007
87821W        W51765  31.635  37.348   3.223
87822W        W51766  18.179  35.370   3.778
87823W        W51767   0.856  10.230   2.287
87824W        W51768   7.667  33.473   9.929
87825W        W51769  22.158  13.674  13.529
87826W        W51770  21.629  11.761  14.887
87827W        W51771  44.921  19.664   0.785
87828W        W51772  31.626  34.875  11.964
87829W        W51773  33.559   3.857   3.224
87830W        W51774  19.193  40.875  14.850
87831W        W51775  41.392   1.841  11.405
87832W        W51776  15.613  12.314  13.467
87833W        W51777  21.616   2.337  11.948
87834W        W51778  43.328   5.362  13.311
87835W        W51779  12.293  30.516   2.771
87836W        W51780  36.483  43.803  12.850
87837W        W51781  25.092  17.744   1.336
87838W        W51782   8.163  36.379   3.241
87839W        W51783  13.723  18.076  12.011
87840W        W51784  22.668  22.604  14.963
87841W        W51785  18.680   6.331  14.345
87842W        W51786  44.851  24.557  11.446
87843W        W51787  22.250  38.895   0.868
87844W        W51788  16.672  42.471  12.851
87845W        W51789  43.446  32.506   2.752
87846W        W51790  28.624  36.354  11.879
87847W        W51791  31.952  41.977   1.771
87848W        W51792  20.591  21.149   2.258
87849W        W51793   7.199  31.950   4.611
87850W        W51794   7.775  32.922   2.691
87851W        W51795   7.417  27.460   9.929
87852W        W51796  23.017   8.704   4.255
87853W        W51797  40.011  23.677  11.867
87854W        W51798  43.819  34.393   2.729
87855W        W51799  13.610  25.014  11.014
87856W        W51800  22.578   4.389  11.974
87857W        W51801  16.750  34.083  14.014
87858W        W51802  26.182  29.956  14.503
87859W        W51803  10.759  16.266  13.062
87860W        W51804  15.754  18.633   2.840
87861W        W51805   9.186  34.596  11.496
87862W        W51806  16.699  38.881  12.522
87863W        W51807  37.377   2.938  10.606
87864W        W51808   8.169  13.674  13.024
87865W        W51809  18.577  29.135  11.100
87866W        W51810  22.228  25.508   4.179
87867W        W51811  12.664   4.315  12.423
87868W        W51812  36.955   5.752   0.307
87869W        W51813  35.966  43.829   1.392
87870W        W51814  26.051  13.630  13.483
87871W        W51815   7.679   9.889   2.383
87872W        W51816  41.873  13.107   4.304
87873W        W51817  23.646  31.917  12.077
87874W        W51818  20.189  29.148  14.872
87875W        W51819  28.519  29.113   1.914
87876W        W51820  15.718  34.537  13.871
87877W        W51821   8.709  27.517  14.430
87878W        W51822  38.530  23.594  13.903
87879W        W51823   2.404  37.352   2.277
87880W        W51824  19.053  12.146   0.342
87881W        W51825  36.954  14.110   3.736
87882W        W51826  40.015  33.584   4.262
87883W        W51827   0.287  33.451  14.867
87884W        W51828  33.522   9.682   0.349
87885W        W51829  26.473  43.299  12.922
87886W        W51830   5.193  43.348  14.909
87887W        W51831  12.276  15.614   0.419
87888W        W51832  41.891  27.079   4.802
87889W        W51833  42.947  27.520  14.018
87890W        W51834  15.814  12.741  14.973
87891W        W51835  15.302   3.429   3.177
87892W        W51836  36.908  27.658   1.773
87893W        W51837  30.127  21.033   4.707
87894W        W51838  15.695  36.359   3.692
87895W        W51839  21.528  24.999  13.059
87896W        W51840   9.249  44.327  12.908
87897W        W51841   2.326  25.090   3.722
87898W        W51842  13.717  37.550  12.357
87899W        W51843  10.787   6.808   0.324
87900W        W51844   3.307   4.248   0.921
87901W        W51845   5.865   6.301  11.040
87902W        W51846  21.250   3.764   3.157
87903W        W51847   7.847   4.894  10.016
87904W        W51848  27.637  29.540   0.730
87905W        W51849  27.943  11.701  12.981
87906W        W51850  15.739  12.134   3.807
87907W        W51851  38.391   0.807  13.379
87908W        W51852  23.575  28.529   3.788
87909W        W51853  43.447  24.624  14.775
87910W        W51854  17.277  44.926   4.607
87911W        W51855  15.605  39.532  14.470
87912W        W51856  11.718  16.681   2.752
87913W        W51857  29.656  43.934  14.343
87914W        W51858  36.958  10.735   2.340
87915W        W51859  37.907  23.679   1.379
87916W        W51860  33.954  23.651  12.533
87917W        W51861  13.813  29.176   3.282
87918W        W51862   3.297  30.115   3.295
87919W        W51863  31.998  15.775  13.990
87920W        W51864  16.588  12.264  12.859
87921W        W51865  34.528  35.357   1.810
87922W        W51866  17.210  16.771   1.873
87923W        W51867  22.221  12.669   3.227
87924W        W51868  39.815   4.769  13.411
87925W        W51869  34.921  39.368   0.368
87926W        W51870  16.694  32.596  12.434
87927W        W51871  38.939  35.997   4.235
87928W        W51872  38.531  20.234   1.891
87929W        W51873   3.340   5.819   0.466
87930W        W51874  25.192  43.812  14.332
87931W        W51875  38.941   9.671  13.986
87932W        W51876   5.228  20.538   1.805
87933W        W51877  44.844  30.472   1.756
87934W        W51878  22.081  42.445  14.828
87935W        W51879  11.366  29.639  14.359
87936W        W51880  40.308   0.402   0.915
87937W        W51881  20.096  36.577   3.291
87938W        W51882  43.816  39.962   2.869
87939W        W51883  42.841  14.272  14.928
87940W        W51884  20.523  44.924  13.383
87941W        W51885   9.349   2.886  10.463
87942W        W51886  18.228  15.699   4.597
87943W        W51887   4.717  14.187  12.846
87944W        W51888   3.417   0.780  12.863
87945W        W51889  17.738  17.761   2.865
87946W        W51890   3.273  21.751   4.180
87947W        W51891  38.979  18.742  10.413
87948W        W51892  44.431  38.825  11.996
87949W        W51893  35.868  38.395  11.493
87950W        W51894  23.100  43.833  12.008
87951W        W51895  44.900  14.202  12.900
87952W        W51896   4.260  13.346   3.692
87953W        W51897  16.199   0.434   9.555
87954W        W51898  43.426  40.484  14.282
87955W        W51899   7.834  31.574   0.474
87956W        W51900  38.048   2.841  13.475
87957W        W51901   7.354  30.029  13.955
87958W        W51902   6.405  40.332  12.352
87959W        W51903  12.173   0.353  11.108
87960W        W51904   1.825   0.284   1.857
87961W        W51905  12.257  15.115   2.319
87962W        W51906   4.757  24.590   4.137
87963W        W51907  40.473   7.732  14.865
87964W        W51908   9.191  35.041   0.276
87965W        W51909  16.697  16.301   2.267
87966W        W51910  27.026   0.369  14.445
87967W        W51911  32.400  18.709  10.958
87968W        W51912  31.030  28.569  13.362
87969W        W51913  13.114  25.608  14.438
87970W        W51914  26.697  22.564   2.726
87971W        W51915  35.025   7.693   1.245
87972W        W51916  30.649  37.480   2.690
87973W        W51917  26.475  18.159  12.439
87974W        W51918   8.238   8.785   1.387
87975W        W51919  21.679   6.865  14.837
87976W        W51920  13.653  33.482   0.874
87977W        W51921  31.897  44.002   0.915
87978W        W51922  25.517  20.074   2.873
87979W        W51923   9.761   5.899   3.263
87980W        W51924  35.960   5.742   4.324
87981W        W51925   9.317  36.009  11.075
87982W        W51926  36.959  35.857   3.805
87983W        W51927   3.848  14.325  12.864
87984W        W51928  40.373  34.081  12.507
87985W        W51929   2.863  13.645   0.471
87986W        W51930  12.160   2.720  14.426
87987W        W51931  29.471  39.408   1.891
87988W        W51932  23.511  19.589  14.353
87989W        W51933  34.077  27.583   0.405
87990W        W51934  33.404   6.200   2.336
87991W        W51935  44.412   8.753   3.858
87992W        W51936  39.891  34.877  14.887
87993W        W51937   9.191   4.310   1.327
87994W        W51938  18.586   0.931   4.289
87995W        W51939  31.121  39.386  11.042
87996W        W51940  34.469  36.007   3.193
87997W        W51941  37.880   5.252  14.289
87998W        W51942  20.766  38.016   1.374
87999W        W51943  31.044  29.569   0.827
88000W        W51944  42.488  22.564   0.373
88001W        W51945  17.716  37.559  12.867
88002W        W51946   6.396  39.959  11.586
88003W        W51947  35.046   1.789   4.686
88004W        W51948   4.942  28.617  13.378
88005W        W51949  32.972  41.035   2.869
88006W        W51950  18.553  21.705   5.313
88007W        W51951  42.355  14.204  11.552
88008W        W51952  13.787   6.717  12.095
88009W        W51953  35.058   1.932  11.577
88010W        W51954   8.329   5.904   0.387
88011W        W51955  25.627  35.995   3.641
88012W        W51956  29.156   6.184  10.545
88013W        W51957  38.500  18.726   1.226
88014W        W51958  37.445  42.351  10.460
88015W        W51959  17.202  36.454   0.797
88016W        W51960  12.193  44.764   4.128
88017W        W51961  14.315  31.548   1.741
88018W        W51962   0.404   5.895  14.848
88019W        W51963  33.111  24.132  10.510
88020W        W51964   0.864  31.553   4.285
88021W        W51965  37.367  39.379  13.518
88022W        W51966  28.581  39.535   2.299
88023W        W51967   3.801  24.716  14.891
88024W        W51968  21.561  30.963  12.989
88025W        W51969   4.305  39.551  14.452
88026W        W51970  16.696  18.106   1.778
88027W        W51971  35.024   4.363  13.854
88028W        W51972  17.610  19.763  14.901
88029W        W51973  27.136  34.944   3.862
88030W        W51974  18.082  36.096  14.413
88031W        W51975   5.360  19.613   3.291
88032W        W51976  39.048  25.990  10.512
88033W        W51977  15.778  35.367  11.979
88034W        W51978  44.329  19.234  13.382
88035W        W51979  22.603  25.561   0.255
88036W        W51980  21.536  32.888  13.335
88037W        W51981  17.076  27.057  14.381
88038W        W51982  24.077  14.674   3.149
88039W        W51983  23.538  13.243   0.279
88040W        W51984  43.476  44.754   0.395
88041W        W51985   1.949   5.201   3.170
88042W        W51986   0.280   7.289  11.039
88043W        W51987  11.193  12.836  13.878
88044W        W51988  44.960   6.726  14.907
88045W        W51989  12.657  35.377   3.380
88046W        W51990  32.952  43.951  14.508
88047W        W51991  44.345  29.099   2.361
88048W        W51992  36.409  17.117   4.304
88049W        W51993  19.560   4.305   0.279
88050W        W51994  35.432  42.819  14.975
88051W        W51995  44.349   0.884  10.033
88052W        W51996  39.818  36.403  11.438
88053W        W51997  37.458  15.704   1.754
88054W        W51998   6.793  18.115   3.717
88055W        W51999  19.117  12.281   1.715
88056W        W52000  17.761  38.045   2.228
88057W        W52001  39.908  38.370  10.521
88058W        W52002  34.866  22.057  12.522
88059W        W52003  28.517  12.142   0.779
88060W        W52004  38.045  15.120   3.154
88061W        W52005  23.578   0.271  12.028
88062W        W52006  36.071  11.181  13.913
88063W        W52007  16.178  13.326  14.328
88064W        W52008   5.890  41.350  11.478
88065W        W52009  19.674  25.479  14.468
88066W        W52010  17.674   8.207  14.029
88067W        W52011   6.376  36.369  11.505
88068W        W52012  30.426   9.308   4.750
88069W        W52013  13.665  35.527   0.277
88070W        W52014  15.816  19.089   3.203
88071W        W52015   8.392  33.563  12.551
88072W        W52016  40.038  20.700   4.153
88073W        W52017  36.929  43.765   3.311
88074W        W52018  32.501   4.409   1.269
88075W        W52019   4.753  10.795   3.710
88076W        W52020  44.463  26.646   3.359
88077W        W52021  29.079  39.988  12.080
88078W        W52022   5.695  37.362   1.798
88079W        W52023  31.457  19.153  10.051
88080W        W52024  29.523   2.739   3.188
88081W        W52025   3.461  30.451  12.339
88082W        W52026  23.643  32.543   0.309
88083W        W52027  34.438  26.646   2.816
88084W        W52028  44.936  14.796   0.913
88085W        W52029   2.721   8.881  10.450
88086W        W52030  28.042  21.161  12.828
88087W        W52031  26.547  38.558  10.542
88088W        W52032  21.147   9.742  11.596
88089W        W52033  11.149  19.585   4.208
88090W        W52034   4.209  36.999   2.894
88091W        W52035  12.242  11.761  12.555
88092W        W52036  23.201  19.118   3.630
88093W        W52037  18.180  15.314  14.951
88094W        W52038   2.790  39.878   0.413
88095W        W52039  30.049  29.435   2.344
88096W        W52040  18.591  14.747  13.979
88097W        W52041  43.335   5.234  11.984
88098W        W52042  38.490   0.761  12.427
88099W        W52043  28.053  44.858   0.463
88100W        W52044  10.175  44.874   4.771
88101W        W52045   2.299   2.429  10.437
88102W        W52046   6.309  13.147   2.343
88103W        W52047  20.540  25.680  10.601
88104W        W52048   0.959  25.559   4.328
88105W        W52049  25.125   8.381   3.333
88106W        W52050  20.045  21.059  11.512
88107W        W52051  16.573  38.028  13.389
88108W        W52052  13.161  39.460   0.931
88109W        W52053   8.839   0.454   0.836
88110W        W52054  30.005  26.617  12.916
88111W        W52055  20.102   5.854   2.742
88112W        W52056  39.464  32.092  12.965
88113W        W52057  24.200  29.093   0.850
88114W        W52058   5.720   7.286  13.901
88115W        W52059  35.000  15.692  10.536
88116W        W52060  17.686  10.171   3.729
88117W        W52061  20.677   5.233   0.961
88118W        W52062  22.524  33.984  11.563
88119W        W52063  39.874  30.955   3.807
88120W        W52064   8.720  16.726   1.887
88121W        W52065  27.109  10.668  10.449
88122W        W52066   7.250  25.999   3.849
88123W        W52067   9.669  37.994   0.782
88124W        W52068  44.002  17.600   2.793
88125W        W52069  42.798   8.302  12.568
88126W        W52070  44.809  12.685   1.866
88127W        W52071  44.984  15.268  12.999
88128W        W52072   9.884  32.076  12.921
88129W        W52073  42.827  40.907   1.274
88130W        W52074  20.666  39.334  11.116
88131W        W52075  28.475  44.438   0.317
88132W        W52076  19.707  17.136  13.975
88133W        W52077  39.524   0.391  13.033
88134W        W52078  31.972  40.543   4.291
88135W        W52079  19.734  43.314   0.929
88136W        W52080  32.582  25.968   3.290
88137W        W52081  33.903  10.855   0.258
88138W        W52082   3.452   2.235  14.965
88139W        W52083  28.140  18.654  12.062
88140W        W52084  12.612  28.471  13.351
88141W        W52085  43.439  16.117  14.760
88142W        W52086  41.910  34.058   2.685
88143W        W52087  30.990  16.708   2.779
88144W        W52088  20.717  10.363  12.524
88145W        W52089  12.255  39.043   2.189
88146W        W52090  29.168  30.071   1.286
88147W        W52091  43.900  11.321   2.196
88148W        W52092  37.450   1.859   9.992
88149W        W52093  43.450  24.997   0.433
88150W        W52094  10.271  17.105   4.325
88151W        W52095  27.128  11.861  13.061
88152W        W52096  41.491   0.790   3.710
88153W        W52097  27.545  24.139   2.891
88154W        W52098  36.001   5.892   3.164
88155W        W52099  33.110   4.328  13.462
88156W        W52100  15.622  39.430  13.327
88157W        W52101   7.336  33.434   3.848
88158W        W52102  24.061  23.150   4.185
88159W        W52103  27.175   6.702   3.333
88160W        W52104  43.484   2.369   2.214
88161W        W52105  28.590  26.594   2.260
88162W        W52106  24.638  29.540  14.348
88163W        W52107   9.762  30.435   3.704
88164W        W52108  25.554   5.919  10.483
88165W        W52109  44.891  12.693  13.790
88166W        W52110  21.229  22.731  12.557
88167W        W52111  38.549  17.797   1.214
88168W        W52112   7.390  29.040   3.273
88169W        W52113  26.580   9.788   0.955
88170W        W52114  11.152  38.040   0.955
88171W        W52115  39.343  26.035   4.249
88172W        W52116  43.352  17.207  14.830
88173W        W52117  17.641   2.731   2.759
88174W        W52118  15.809  25.680   0.766
88175W        W52119  29.648  27.503  14.275
88176W        W52120   8.260  34.494  12.073
88177W        W52121   8.312  18.136  10.896
88178W        W52122  14.733  30.550  14.343
88179W        W52123  16.646   4.928   3.309
88180W        W52124  35.592  24.521  13.909
88181W        W52125   3.873  34.599  12.525
88182W        W52126  19.199  37.041  11.915
88183W        W52127   1.790  28.012  12.422
88184W        W52128   9.835  17.755   2.414
88185W        W52129  22.724  11.188  11.873
88186W        W52130  32.549  34.046  14.903
88187W        W52131  17.232   0.301  10.977
88188W        W52132  37.571  31.989   2.856
88189W        W52133  12.117   7.404  12.059
88190W        W52134  23.711  29.553   4.792
88191W        W52135  33.592  23.547   1.426
88192W        W52136  42.999   1.300   2.337
88193W        W52137  18.577  17.214  14.835
88194W        W52138   5.740  35.487  13.547
88195W        W52139  10.187  19.760   1.703
88196W        W52140  44.295  12.213   2.697
88197W        W52141  33.408  24.638   4.243
88198W        W52142  28.436  40.536  12.491
88199W        W52143   8.884  12.196  10.901
88200W        W52144  31.599  32.961  12.091
88201W        W52145  25.696  33.545  14.968
88202W        W52146  42.371  36.388   0.815
88203W        W52147  35.034   5.875   4.631
88204W        W52148  39.859  20.532   3.689
88205W        W52149   0.782  42.784  10.900
88206W        W52150  14.132  37.990   0.901
88207W        W52151  25.971  12.824  11.564
88208W        W52152   3.376  18.665   0.903
88209W        W52153   2.864   3.440   5.132
88210W        W52154  22.224  24.613  14.378
88211W        W52155  32.400   6.737   0.285
88212W        W52156  37.457  12.286   1.738
88213W        W52157  25.601  34.870  13.889
88214W        W52158  12.766  25.672   4.637
88215W        W52159  17.091   1.344   1.212
88216W        W52160  15.216  31.904   5.288
88217W        W52161  43.308  28.568   2.811
88218W        W52162  39.003  14.671   5.152
88219W        W52163   7.895  20.662  11.457
88220W        W52164  21.737  31.096   2.201
88221W        W52165  44.913  12.797   2.315
88222W        W52166  28.019   6.886  13.792
88223W        W52167   8.403  17.219   1.801
88224W        W52168  17.754  16.608   1.789
88225W        W52169  30.942  18.644   4.731
88226W        W52170  14.805  15.184   2.311
88227W        W52171  17.746  32.399   2.793
88228W        W52172  36.915  41.407   2.894
88229W        W52173  35.108  27.941  14.853
88230W        W52174  14.698  24.171   0.396
88231W        W52175  17.721   9.725  10.542
88232W        W52176   8.271  19.714   0.256
88233W        W52177  32.401  19.110  10.616
88234W        W52178  19.744  13.292  13.968
88235W        W52179  40.916   4.433  13.477
88236W        W52180  14.706  29.084   4.702
88237W        W52181   2.846  22.530   0.846
88238W        W52182  31.902  10.138   3.699
88239W        W52183  14.832   0.449   4.637
88240W        W52184  12.169   9.389  11.542
88241W        W52185  33.449   3.830  10.969
88242W        W52186  44.820  11.859   4.251
88243W        W52187  41.891  37.944   0.357
88244W        W52188  39.967  30.414  12.849
88245W        W52189   6.328  20.099   2.222
88246W        W52190  31.930   1.256   2.686
88247W        W52191  29.605  33.598  10.089
88248W        W52192  28.578  24.634  13.850
88249W        W52193   5.779  39.853  11.007
88250W        W52194  11.218  32.912  12.518
88251W        W52195  29.516  38.454   4.799
88252W        W52196  17.602  14.741   1.339
88253W        W52197  32.060  22.686   4.733
88254W        W52198  22.188  28.079  12.062
88255W        W52199  23.591   7.840   3.331
88256W        W52200   2.242  13.672   3.731
88257W        W52201  26.966  11.185  13.947
88258W        W52202  28.036  13.125  10.506
88259W        W52203  21.638  30.970  14.769
88260W        W52204   4.893   5.869  13.932
88261W        W52205  15.138  10.308   2.872
88262W        W52206  37.400  44.399  13.540
88263W        W52207  28.042   9.202   2.711
88264W        W52208  10.171  39.030   2.265
88265W        W52209  28.065  28.094  10.487
88266W        W52210  13.171  42.013  12.008
88267W        W52211  30.102  17.135   0.305
88268W        W52212  27.582  13.755  12.084
88269W        W52213  19.762  35.502   0.468
88270W        W52214  43.948  43.899  11.533
88271W        W52215  30.114  37.408   2.387
88272W        W52216  27.503   1.452  13.543
88273W        W52217   9.297  19.552  12.488
88274W        W52218  33.432  22.224   4.718
88275W        W52219  25.966  39.842  13.511
88276W        W52220  44.915  30.042  13.872
88277W        W52221  21.687  18.164   0.963
88278W        W52222  41.902  26.131  10.624
88279W        W52223  18.638   0.252   4.351
88280W        W52224  28.045  34.008   3.829
88281W        W52225  15.243   7.723   5.153
88282W        W52226  23.147  25.971   1.263
88283W        W52227   8.781  26.539  13.817
88284W        W52228  40.386  27.186   4.774
88285W        W52229  41.466   9.811   2.758
88286W        W52230  28.583  43.874  13.497
88287W        W52231  39.343  15.772  12.355
88288W        W52232  23.644  12.226  14.383
88289W        W52233   4.839  36.855  14.420
88290W        W52234  15.237  20.105   1.298
88291W        W52235  38.411  34.507   2.374
88292W        W52236  29.991  12.338  11.441
88293W        W52237  33.602  23.210   0.850
88294W        W52238  11.695  41.950  13.942
88295W        W52239   4.908  39.467  14.339
88296W        W52240  32.062   3.432   4.713
88297W        W52241  29.587  22.078  11.021
88298W        W52242  17.143  20.651  12.366
88299W        W52243  40.442   3.220  14.993
88300W        W52244  20.621  43.404   0.364
88301W        W52245  39.396  18.269   4.318
88302W        W52246  42.525  33.901   1.328
88303W        W52247  44.934  38.457   4.703
88304W        W52248  41.034  33.504   3.796
88305W        W52249   2.886   4.332   5.267
88306W        W52250  31.950   7.257   2.788
88307W        W52251   1.257  22.039   1.771
88308W        W52252  36.370   3.392   5.180
88309W        W52253  17.288  24.695  13.410
88310W        W52254  10.728  34.895  13.861
88311W        W52255  14.600  35.939  10.086
88312W        W52256  43.855   2.779  11.128
88313W        W52257  40.483  32.049  13.043
88314W        W52258  15.165  25.139  13.846
88315W        W52259  38.561  30.005  10.620
88316W        W52260  23.628  15.227  14.771
88317W        W52261  35.095  42.339  14.903
88318W        W52262  11.305  16.254  13.944
88319W        W52263  29.614  20.135   5.118
88320W        W52264  31.555  25.190   3.861
88321W        W52265  15.100  29.475  13.504
88322W        W52266  32.472  33.567   2.210
88323W        W52267  25.596   3.746  13.476
88324W        W52268   9.227  42.808  10.538
88325W        W52269  10.879  38.960   1.838
88326W        W52270  11.233  20.591  11.442
88327W        W52271  21.574  42.822  12.967
88328W        W52272  14.691  12.220   1.926
88329W        W52273  15.297   4.318  12.938
88330W        W52274  30.633  25.645   0.813
88331W        W52275  18.587  11.178  13.315
88332W        W52276  11.238  31.055  11.952
88333W        W52277  11.756  43.429   3.374
88334W        W52278  33.384   1.289  12.083
88335W        W52279  39.537  43.319  10.482
88336W        W52280  21.753  31.124   0.279
88337W        W52281  36.426  34.023   2.309
88338W        W52282  41.457   1.883   2.242
88339W        W52283  28.605   4.317   3.840
88340W        W52284  10.361   5.361   0.872
88341W        W52285   4.849  19.163  12.936
88342W        W52286   6.695   5.890   1.242
88343W        W52287  21.206  39.357  11.968
88344W        W52288  33.452  11.659   2.676
88345W        W52289  32.008   7.732   2.877
88346W        W52290  17.148  40.436   1.282
88347W        W52291  17.228  42.013  13.900
88348W        W52292  30.068   8.177  11.916
88349W        W52293  16.226  11.262   1.402
88350W        W52294   5.783  17.722   2.883
88351W        W52295  15.678   3.930   3.294
88352W        W52296   9.659  27.094   1.426
88353W        W52297  34.017   3.797  13.390
88354W        W52298  27.020   7.905   3.371
88355W        W52299  19.262  20.595   0.743
88356W        W52300  26.689   6.243   4.805
88357W        W52301  14.096  28.666   0.954
88358W        W52302  40.044  25.591  13.988
88359W        W52303  19.200  28.978   1.405
88360W        W52304  29.591  32.452  14.957
88361W        W52305  16.306  30.447   0.367
88362W        W52306  37.872  43.980   1.709
88363W        W52307  10.795  24.501   2.349
88364W        W52308  15.148  43.937  12.057
88365W        W52309   0.780  26.466   2.864
88366W        W52310  22.092  10.348  11.542
88367W        W52311  26.967  42.017   0.945
88368W        W52312   3.847   7.302   2.263
88369W        W52313  17.159  24.189  13.486
88370W        W52314  40.508  14.318  14.976
88371W        W52315  29.009  10.644  12.921
88372W        W52316  21.548  38.399  10.905
88373W        W52317  21.191  25.995   0.313
88374W        W52318  28.023  12.840   0.470
88375W        W52319  44.322  18.550   0.823
88376W        W52320  14.162  37.415  14.984
88377W        W52321   6.867  23.644  11.575
88378W        W52322  11.722  14.742  13.343
88379W        W52323  28.069  44.418  13.455
88380W        W52324   9.198  44.792  12.996
88381W        W52325  19.140  38.882   4.126
88382W        W52326  22.644  21.111   5.081
88383W        W52327  38.839  39.382  11.045
88384W        W52328  38.455  35.537   2.187
88385W        W52329  10.724  39.877   2.765
88386W        W52330  23.629  12.309   2.723
88387W        W52331  32.543  24.997  14.968
88388W        W52332  43.508  37.875  13.051
88389W        W52333  24.715  15.691   1.757
88390W        W52334   5.297  12.121   1.851
88391W        W52335  42.889  27.455   0.464
88392W        W52336  26.128   2.347   3.199
88393W        W52337  17.091  38.335   4.686
88394W        W52338  11.741  23.092   3.283
88395W        W52339  20.651  42.994  10.610
88396W        W52340  21.164  27.600   2.755
88397W        W52341  43.832  24.584  12.937
88398W        W52342  33.972  30.611   0.849
88399W        W52343  22.723  37.349  12.883
88400W        W52344  17.557  30.997   4.783
88401W        W52345  28.532   0.334   4.650
88402W        W52346  31.467   2.769  12.827
88403W        W52347  18.189  41.460   2.312
88404W        W52348  36.006  33.962  13.951
88405W        W52349  31.087  12.744  11.461
88406W        W52350  44.398  37.494  10.088
88407W        W52351   5.411  21.523  14.881
88408W        W52352  19.623   2.304  10.436
88409W        W52353  32.917  41.820   4.145
88410W        W52354  25.020  27.195   4.219
88411W        W52355  36.513  30.446   5.277
88412W        W52356  25.197  31.437  14.436
88413W        W52357  15.150  35.511   3.263
88414W        W52358  32.894  42.448  12.549
88415W        W52359  33.461  28.608   3.675
88416W        W52360   3.825  32.399  14.340
88417W        W52361  39.850  28.184   4.169
88418W        W52362  21.702  14.643   0.411
88419W        W52363  32.572   5.333  11.022
88420W        W52364  34.405  27.598   2.207
88421W        W52365  40.503  37.373  11.577
88422W        W52366   0.775  12.283  11.561
88423W        W52367  26.572  36.048   2.196
88424W        W52368   5.858  34.573   4.708
88425W        W52369  36.348  17.302  14.887
88426W        W52370  11.722  25.579   2.184
88427W        W52371  28.572  35.919  10.500
88428W        W52372   8.378  11.261  14.003
88429W        W52373   0.769  25.212  13.349
88430W        W52374  37.403  22.016   2.814
88431W        W52375  20.041  27.051  12.549
88432W        W52376  27.178   4.241  11.977
88433W        W52377  14.757  30.020   4.217
88434W        W52378  25.524  41.421  14.405
88435W        W52379   5.757  35.925  12.951
88436W        W52380  21.671  44.351   2.665
88437W        W52381   0.477   6.850  13.995
88438W        W52382  39.545  12.817  13.832
88439W        W52383   3.788  19.049  11.123
88440W        W52384  18.102  21.057  10.063
88441W        W52385  33.112  23.592   4.774
88442W        W52386  18.730   5.339  12.080
88443W        W52387  34.452  30.468   2.407
88444W        W52388   6.290   8.310  10.516
88445W        W52389  16.651  20.061   3.837
88446W        W52390  13.276   7.396   5.276
88447W        W52391   5.242  21.204   4.246
88448W        W52392  15.317  42.967   3.735
88449W        W52393  29.095  44.795  10.563
88450W        W52394  19.233  38.850   1.704
88451W        W52395  20.765   7.766  10.132
88452W        W52396   1.731  22.598  11.528
88453W        W52397  37.460   0.359   3.813
88454W        W52398  15.745  15.126  14.937
88455W        W52399   5.270  42.407   2.267
88456W        W52400  42.339   4.821  10.953
88457W        W52401   2.872  11.293   2.791
88458W        W52402  32.114  11.340  13.422
88459W        W52403  34.540   8.307   4.294
88460W        W52404   4.761   2.240  10.892
88461W        W52405  26.982  38.827   3.276
88462W        W52406  36.983  21.739   1.416
88463W        W52407  41.799   2.467  10.498
88464W        W52408  41.806  27.515   3.278
88465W        W52409  32.030  29.498   4.161
88466W        W52410   1.900  21.049  12.016
88467W        W52411  39.521  17.675   3.733
88468W        W52412  15.294  37.021   3.274
88469W        W52413  31.453  17.248   2.704
88470W        W52414   8.400  42.994  14.999
88471W        W52415   5.302  27.650  13.373
88472W        W52416   7.246  26.512   3.682
88473W        W52417  17.730   7.228   3.356
88474W        W52418  43.918  31.411  10.461
88475W        W52419   6.364  39.425   4.200
88476W        W52420  44.281  16.792   1.834
88477W        W52421  20.045   5.290  10.414
88478W        W52422   9.379  16.076   2.363
88479W        W52423  36.866  10.213   0.302
88480W        W52424  43.922  19.538   1.430
88481W        W52425  28.068  15.673   0.371
88482W        W52426  12.728   3.436   1.926
88483W        W52427  16.646  22.113   1.335
88484W        W52428   0.756  11.269  11.036
88485W        W52429  41.484   6.903   2.900
88486W        W52430  37.386   1.897   3.648
88487W        W52431   0.368   1.245  13.882
88488W        W52432  40.476  24.216   2.786
88489W        W52433  29.455  11.183  13.884
88490W        W52434  19.596  30.099  11.917
88491W        W52435  42.455   5.251  11.890
88492W        W52436  15.773  35.018  11.060
88493W        W52437  19.555  41.838  12.059
88494W        W52438  30.510  14.336  12.019
88495W        W52439  24.592   6.704  14.398
88496W        W52440  33.052  43.367   3.248
88497W        W52441  31.114  34.974   4.338
88498W        W52442   2.720  27.006   3.640
88499W        W52443  15.220  27.458   3.820
88500W        W52444  33.415  25.050   4.729
88501W        W52445  28.041   5.204   1.329
88502W        W52446  10.363   1.747  12.844
88503W        W52447  42.022  16.649  14.332
88504W        W52448  17.626   3.800  14.380
88505W        W52449  30.493  36.540  10.905
88506W        W52450  31.935  17.286   4.327
88507W        W52451  17.225  20.605  12.876
88508W        W52452   8.897  42.023   0.270
88509W        W52453  43.411   4.220  14.306
88510W        W52454  19.702   6.333   1.260
88511W        W52455  33.124  20.677   2.748
88512W        W52456  21.697   8.185   0.808
88513W        W52457  41.025  34.976  14.836
88514W        W52458  11.786  31.415   0.299
88515W        W52459   6.726   9.686   3.687
88516W        W52460  20.269  44.440  10.045
88517W        W52461   8.190  10.719   0.757
88518W        W52462   1.253  41.961   0.943
88519W        W52463  41.889  40.906  12.827
88520W        W52464  28.467   2.321  12.062
88521W        W52465  21.583  32.924   2.267
88522W        W52466  17.269  40.489  11.499
88523W        W52467  22.588   2.268   2.343
88524W        W52468  41.015  24.028   3.854
88525W        W52469  43.416  31.063  11.012
88526W        W52470  28.050  16.269   1.827
88527W        W52471   2.839  21.626   2.754
88528W        W52472  10.233  24.608  14.349
88529W        W52473  33.394  17.207  13.540
88530W        W52474   6.184  18.233   1.843
88531W        W52475   9.783   8.675  14.465
88532W        W52476  12.809   1.482  13.387
88533W        W52477  10.776  14.728  13.311
88534W        W52478  42.968  21.086  11.113
88535W        W52479  39.051  44.353   4.196
88536W        W52480  40.864  22.714  10.504
88537W        W52481  15.132  14.325   1.791
88538W        W52482  26.667  39.437   1.272
88539W        W52483   3.901   6.211   4.151
88540W        W52484  22.714  16.602   1.419
88541W        W52485  42.860   2.424   1.402
88542W        W52486   2.371  23.608   0.799
88543W        W52487  37.572  32.544  12.883
88544W        W52488  32.938  30.624   1.911
88545W        W52489  15.307  44.477   0.899
88546W        W52490  23.206  12.664   2.264
88547W        W52491  43.804  43.957  10.585
88548W        W52492  17.257   0.847  12.047
88549W        W52493  25.051  14.642   0.895
88550W        W52494  20.542  21.202   3.630
88551W        W52495  17.627  31.527   5.128
88552W        W52496  40.044  15.760  12.019
88553W        W52497  20.720  36.556   4.777
88554W        W52498  40.507  32.468   4.263
88555W        W52499  27.106   8.243   4.160
88556W        W52500  20.032  43.513   1.852
88557W        W52501  41.954  21.736   0.865
88558W        W52502  31.642   2.847  11.552
88559W        W52503  13.835  18.710  12.490
88560W        W52504  39.848  36.506   4.660
88561W        W52505  16.802  22.712   2.397
88562W        W52506   1.303  33.473   4.633
88563W        W52507  26.539  26.179  11.574
88564W        W52508  44.758  16.218   3.204
88565W        W52509  34.462   9.316  13.903
88566W        W52510  39.049  11.374  13.481
88567W        W52511  30.993  42.914   5.317
88568W        W52512   3.713  29.564  11.449
88569W        W52513  10.281  19.601   3.176
88570W        W52514  21.687  34.065  12.371
88571W        W52515   6.257  12.648  12.364
88572W        W52516   1.288   1.966   4.192
88573W        W52517  10.320  44.778   1.374
88574W        W52518  31.623  17.117  13.820
88575W        W52519  26.542  20.055   3.673
88576W        W52520  11.689   4.231  13.322
88577W        W52521  35.429   3.341   4.219
88578W        W52522   5.838  23.651  10.560
88579W        W52523  25.697  15.115   4.269
88580W        W52524  30.126  26.048   4.671
88581W        W52525  25.212  14.196   3.322
88582W        W52526  22.176  30.517   3.294
88583W        W52527  24.981   1.294   4.640
88584W        W52528  17.756  38.847   1.239
88585W        W52529   3.867   8.814  14.452
88586W        W52530  32.055  36.971   1.381
88587W        W52531   5.715  23.119   3.781
88588W        W52532  17.121  43.499  13.824
88589W        W52533  15.776   9.278  12.858
88590W        W52534  38.908  40.513   2.879
88591W        W52535  34.510  26.039   1.860
88592W        W52536  43.451  36.866  13.816
88593W        W52537  28.633  34.415  13.325
88594W        W52538  20.663  39.861  14.278
88595W        W52539  35.957  42.408  11.424
88596W        W52540  24.115  40.506  13.505
88597W        W52541  24.704   6.209  13.506
88598W        W52542   1.353  39.527   0.383
88599W        W52543  25.976  42.001   4.306
88600W        W52544  42.921   1.832   4.340
88601W        W52545  39.483   2.303  10.948
88602W        W52546  17.722   6.370   1.332
88603W        W52547  29.434  11.801   3.859
88604W        W52548  33.406  30.562  13.847
88605W        W52549  33.426  17.222   4.637
88606W        W52550  20.216  44.800   3.369
88607W        W52551  34.878  20.054  10.543
88608W        W52552  12.715  23.097  14.806
88609W        W52553  32.916  33.461  14.382
88610W        W52554  39.463   3.924   3.210
88611W        W52555  23.673  41.805  13.911
88612W        W52556  10.230   7.891   5.242
88613W        W52557  44.305  30.599  12.576
88614W        W52558  25.618  39.354  14.011
88615W        W52559  16.159  14.229   0.929
88616W        W52560  18.250  26.644   1.230
88617W        W52561  26.463   4.288  14.338
88618W        W52562  21.609  25.078   0.787
88619W        W52563  10.757  18.732   2.841
88620W        W52564  28.544  16.629   0.854
88621W        W52565  41.436   7.864  13.445
88622W        W52566   3.763  16.786   2.384
88623W        W52567  35.555  20.539   0.255
88624W        W52568   2.813   8.330   9.475
88625W        W52569  43.834  20.252   0.920
88626W        W52570  15.216   7.297   3.696
88627W        W52571  21.067  29.117  12.370
88628W        W52572  44.408   5.689  14.493
88629W        W52573  30.608  23.015  10.523
88630W        W52574  40.839  24.984  11.004
88631W        W52575   3.740  34.868   1.306
88632W        W52576   6.321   6.845   2.376
88633W        W52577  33.473   8.803   4.298
88634W        W52578  31.062  34.872   0.840
88635W        W52579  39.854  40.545  11.421
88636W        W52580  22.557   5.359   2.204
88637W        W52581   7.740  35.079  14.988
88638W        W52582   7.734  28.581  12.835
88639W        W52583  32.997  38.385  13.449
88640W        W52584  18.183  43.450   3.213
88641W        W52585  16.169  42.960   4.122
88642W        W52586  16.284  40.999  12.370
88643W        W52587  18.746   8.899   9.436
88644W        W52588  38.901  39.019   1.857
88645W        W52589  43.336  30.513   1.772
88646W        W52590  10.160   4.930   0.924
88647W        W52591  20.657  27.570  13.834
88648W        W52592  15.757  11.666  13.062
88649W        W52593  23.214  16.812   2.404
88650W        W52594  27.528  14.272   3.244
88651W        W52595  25.124  23.016   4.185
88652W        W52596  25.053  39.327  14.893
88653W        W52597  20.134  37.010   0.756
88654W        W52598  30.644   9.746   2.837
88655W        W52599  19.771  21.683   1.726
88656W        W52600   7.871  20.111  13.940
88657W        W52601  40.018  23.577  11.538
88658W        W52602  28.965  41.387   0.901
88659W        W52603   5.236  35.594  13.021
88660W        W52604  10.843  15.227  11.064
88661W        W52605  21.514  39.513  12.527
88662W        W52606   0.335   1.875   2.189
88663W        W52607  11.687  16.291  14.020
88664W        W52608  22.525  16.119   0.324
88665W        W52609  18.719   5.278   0.329
88666W        W52610  25.556   1.269   0.339
88667W        W52611  26.696  33.941  13.005
88668W        W52612  18.758  13.763  13.523
88669W        W52613  29.921  38.571  10.112
88670W        W52614  25.507  28.543   1.784
88671W        W52615  26.192  36.947  13.329
88672W        W52616  36.966  13.117  11.054
88673W        W52617  10.705  23.220   0.876
88674W        W52618  39.973  34.539   0.741
88675W        W52619  28.165  42.865   0.343
88676W        W52620  21.116  19.641  12.974
88677W        W52621  43.454  22.091  14.030
88678W        W52622  16.094  33.403  14.792
88679W        W52623  14.256   1.378  14.308
88680W        W52624  15.272  32.940   3.193
88681W        W52625  21.111  39.841  14.393
88682W        W52626  30.930  36.357   0.859
88683W        W52627  40.410   1.941  11.026
88684W        W52628  23.616  36.851   1.339
88685W        W52629  14.647  29.044  11.532
88686W        W52630  11.337  19.774   3.243
88687W        W52631  30.483   1.758   2.783
88688W        W52632  38.334   9.394   1.341
88689W        W52633  41.042  25.535  11.076
88690W        W52634  42.385  23.614  10.617
88691W        W52635  20.064  35.930  12.396
88692W        W52636  14.740  10.647  14.822
88693W        W52637  39.886  14.614   2.413
88694W        W52638  23.507  27.571   3.659
88695W        W52639  26.654   9.394  12.983
88696W        W52640  27.189  36.049  12.918
88697W        W52641  21.701  24.573   1.283
88698W        W52642  33.411  32.441  13.368
88699W        W52643  37.550   5.844  14.336
88700W        W52644  11.804  21.177  14.304
88701W        W52645  36.550  25.068   4.239
88702W        W52646  15.300  28.487   0.409
88703W        W52647   3.391   9.352  10.446
88704W        W52648  39.921  14.825  14.929
88705W        W52649  28.449   9.375  12.425
88706W        W52650  16.181  16.584   0.738
88707W        W52651  30.499  20.767   4.734
88708W        W52652  25.093  16.120  13.494
88709W        W52653  16.190   6.338  13.482
88710W        W52654  29.577  23.228   2.837
88711W        W52655   0.420  27.684   1.250
88712W        W52656  37.042  35.451   0.423
88713W        W52657  23.998  21.150   5.251
88714W        W52658  36.030  21.081   4.821
88715W        W52659  25.684  25.676   1.296
88716W        W52660  43.012  44.428  10.476
88717W        W52661  41.856  14.144  14.391
88718W        W52662  30.588   6.213   1.847
88719W        W52663  13.105  15.127   1.442
88720W        W52664  39.964  19.188   0.419
88721W        W52665  11.317  24.526  12.482
88722W        W52666  38.513  19.671   1.289
88723W        W52667  14.727  23.552  10.909
88724W        W52668  36.048  27.479   4.334
88725W        W52669   0.778  36.478  14.430
88726W        W52670   3.391  32.090   2.282
88727W        W52671  33.067  10.870   0.322
88728W        W52672   4.698  40.014   9.923
88729W        W52673  42.906  26.503   1.276
88730W        W52674  29.996  29.469   2.848
88731W        W52675   2.373   0.833   2.849
88732W        W52676  43.438  40.429  11.947
88733W        W52677   3.948  42.324   1.223
88734W        W52678  20.180   7.283  11.026
88735W        W52679  21.249   8.250   2.324
88736W        W52680  34.926   0.982  13.390
88737W        W52681  39.862   6.805   0.425
88738W        W52682  33.945  30.419  10.561
88739W        W52683  26.586  14.696   2.873
88740W        W52684  12.301  28.167  11.979
88741W        W52685  27.601  23.655  14.973
88742W        W52686   2.449  13.272   1.694
88743W        W52687  41.439  38.560  13.971
88744W        W52688  24.519   9.784  12.440
88745W        W52689  15.712  16.144   2.190
88746W        W52690  43.464  41.811   1.697
88747W        W52691  11.773  35.893   3.176
88748W        W52692  44.411  41.480   5.217
88749W        W52693  32.561  29.638  13.944
88750W        W52694  32.500  24.701   3.248
88751W        W52695  26.980   8.406  14.865
88752W        W52696  22.038  24.993  13.533
88753W        W52697   7.828  19.246  14.312
88754W        W52698   3.869  11.180   3.641
88755W        W52699  19.674  37.540   4.283
88756W        W52700  18.564   0.300  12.071
88757W        W52701   8.300  40.381  14.944
88758W        W52702  20.709  12.812   3.792
88759W        W52703  19.150  40.364  12.523
88760W        W52704  27.476  13.176   3.732
88761W        W52705  38.885   3.367  14.978
88762W        W52706  21.234  40.841  14.971
88763W        W52707   3.735  26.560  12.390
88764W        W52708  30.501   6.812   3.851
88765W        W52709  38.895  31.972  14.297
88766W        W52710  22.163  10.812  12.514
88767W        W52711   8.752  24.566  10.896
88768W        W52712  20.592  19.140   0.299
88769W        W52713  14.105   2.341   0.881
88770W        W52714  34.956  36.930   3.856
88771W        W52715  41.301  34.867  12.004
88772W        W52716  21.589   4.348  13.524
88773W        W52717  36.037  13.686  12.862
88774W        W52718  34.960   5.898   3.815
88775W        W52719   7.312  13.116   4.176
88776W        W52720   1.382  39.873  11.071
88777W        W52721  30.934  20.211   1.933
88778W        W52722  27.028  18.079   1.900
88779W        W52723  34.592  16.591  12.955
88780W        W52724   5.880  15.765   2.273
88781W        W52725  36.517   9.663   0.466
88782W        W52726   5.751  37.538   9.960
88783W        W52727   3.884  13.799  14.771
88784W        W52728  36.501  28.931  10.068
88785W        W52729   3.895  25.075   2.832
88786W        W52730  24.557  31.079   1.381
88787W        W52731  38.496  19.200   0.452
88788W        W52732  33.125  23.211   2.887
88789W        W52733  19.236  23.723  14.515
88790W        W52734   7.715  27.078   2.218
88791W        W52735  24.514  41.827  10.579
88792W        W52736   2.727  12.715  14.823
88793W        W52737  37.907  22.624  10.612
88794W        W52738  28.612  33.386   0.291
88795W        W52739  22.574  10.380   2.714
88796W        W52740  25.198  11.678   2.726
88797W        W52741  36.552  23.547  10.534
88798W        W52742   4.210  36.980  12.920
88799W        W52743   0.292  10.165   4.797
88800W        W52744  44.863  27.172  12.525
88801W        W52745  36.032  26.028  10.626
88802W        W52746  14.311  21.080   0.289
88803W        W52747  34.065  27.026  11.394
88804W        W52748  15.193  41.323   3.751
88805W        W52749  22.083  20.565   3.370
88806W        W52750  41.447  10.153  11.895
88807W        W52751   6.267  25.482  13.894
88808W        W52752   1.448  13.600   2.399
88809W        W52753  38.970  30.557  11.517
88810W        W52754  12.819  22.715  13.459
88811W        W52755  27.032  10.284  13.836
88812W        W52756   8.160   6.226  12.825
88813W        W52757   8.327  12.853   3.835
88814W        W52758  38.917   5.735   1.926
88815W        W52759   2.364  22.246   2.879
88816W        W52760  16.801  34.505   1.420
88817W        W52761   6.337   0.387  14.913
88818W        W52762  24.478   8.890  14.502
88819W        W52763  16.693  37.030  10.998
88820W        W52764  36.354  15.794  10.050
88821W        W52765  18.207   9.227  11.929
88822W        W52766  18.253  42.900  11.598
88823W        W52767  11.768  42.026   1.833
88824W        W52768  18.712  10.865   0.956
88825W        W52769   1.951   9.738  10.503
88826W        W52770  39.036  29.540   2.750
88827W        W52771  28.570  23.103   2.720
88828W        W52772   9.260  11.226   9.930
88829W        W52773   9.199  27.128  12.017
88830W        W52774   7.282  38.931   0.465
88831W        W52775  11.365  19.542   0.392
88832W        W52776  37.508  17.203   4.249
88833W        W52777   5.342  27.105  11.953
88834W        W52778  18.051   0.314  10.589
88835W        W52779   9.734  11.680   4.695
88836W        W52780   1.873  18.205   3.305
88837W        W52781   9.806   7.286   1.223
88838W        W52782  14.220  15.592   1.927
88839W        W52783  38.531  42.486  11.402
88840W        W52784  33.584  26.555   0.292
88841W        W52785  11.632  16.666  13.377
88842W        W52786   1.415  17.600  12.340
88843W        W52787  31.921   9.260  13.522
88844W        W52788  15.632  30.053  13.356
88845W        W52789  39.879  40.332  14.767
88846W        W52790  33.529  21.522   2.388
88847W        W52791  39.419  41.447   3.380
88848W        W52792  18.251  32.435   0.750
88849W        W52793  34.080  40.403  14.934
88850W        W52794   7.754  22.027  14.974
88851W        W52795  35.948   7.750   1.898
88852W        W52796  38.425  31.990   1.210
88853W        W52797  39.528   2.797  10.572
88854W        W52798  16.288  19.131   1.902
88855W        W52799  44.005   9.749   1.364
88856W        W52800   7.333   6.869   2.228
88857W        W52801  41.978  29.574  11.060
88858W        W52802   8.348  27.086  13.806
88859W        W52803  11.194   4.406  10.986
88860W        W52804  10.238  13.781  11.461
88861W        W52805  22.701  14.748   2.801
88862W        W52806   3.448  17.630   0.812
88863W        W52807   4.210  23.716  10.421
88864W        W52808  25.105  15.793  10.521
88865W        W52809  14.236  30.596   1.889
88866W        W52810   1.969   1.937   2.893
88867W        W52811  12.754  10.671  14.435
88868W        W52812  23.727  31.584  12.449
88869W        W52813  13.152  44.325   4.672
88870W        W52814   2.246  40.312  11.003
88871W        W52815  20.662  29.139  13.387
88872W        W52816  10.708  41.428  11.598
88873W        W52817  22.250   2.390   0.916
88874W        W52818   3.351  40.336  11.077
88875W        W52819  28.465  39.893  12.842
88876W        W52820   8.779  34.549   3.239
88877W        W52821  16.281  34.914  11.069
88878W        W52822  29.020  21.732  14.502
88879W        W52823   9.266  12.767   1.382
88880W        W52824  20.676  43.780   4.729
88881W        W52825  40.487  28.478  13.496
88882W        W52826  36.564  17.300  11.885
88883W        W52827  28.941  25.164   0.361
88884W        W52828  23.499   4.215   2.794
88885W        W52829  39.822  39.833   1.865
88886W        W52830  14.621  32.585  12.834
88887W        W52831   6.266  18.639  12.071
88888W        W52832  18.086  36.444  10.492
88889W        W52833  35.868  35.462  14.502
88890W        W52834  14.681  43.368   1.887
88891W        W52835  15.147  19.087   2.242
88892W        W52836  20.630  26.977   4.823
88893W        W52837  37.454   0.411   1.882
88894W        W52838  19.073  20.144   2.228
88895W        W52839  40.911   9.705   2.806
88896W        W52840   1.335  29.099  14.828
88897W        W52841   5.334  13.318   0.772
88898W        W52842  15.737  23.497   3.238
88899W        W52843  33.610  19.254  14.275
88900W        W52844  23.126  27.172  13.039
88901W        W52845  40.382  19.169   3.178
88902W        W52846  16.313  29.016  11.925
88903W        W52847  27.113  43.938  12.562
88904W        W52848   9.329  35.874  13.926
88905W        W52849  11.708  12.757  11.588
88906W        W52850  37.960  12.214  14.859
88907W        W52851   6.343  18.082  13.857
88908W        W52852   5.760  34.497  13.981
88909W        W52853   2.466  14.272   3.760
88910W        W52854  24.108  16.190  13.900
88911W        W52855  36.922  32.019   0.816
88912W        W52856  31.022  17.189  14.413
88913W        W52857  41.514  44.397  12.539
88914W        W52858  41.454  41.521   4.788
88915W        W52859  35.043   9.326   3.372
88916W        W52860  25.978   8.737  12.386
88917W        W52861  18.549  16.753   2.266
88918W        W52862  40.037  26.082  14.977
88919W        W52863  25.628  24.219  13.947
88920W        W52864  40.461  13.108   0.891
88921W        W52865  42.955  28.027   5.239
88922W        W52866   1.864  11.862  13.382
88923W        W52867   4.216  10.208   3.340
88924W        W52868  28.044  35.036   1.214
88925W        W52869  16.287  26.043  12.517
88926W        W52870  32.977  34.562   1.805
88927W        W52871  44.367   2.447  13.403
88928W        W52872   5.708  18.651  12.057
88929W        W52873  41.787   9.277   2.667
88930W        W52874  40.879  31.066  11.089
88931W        W52875  13.266  33.385  11.410
88932W        W52876  38.997  14.637  12.365
88933W        W52877   0.898  17.623   4.195
88934W        W52878   2.410  37.396   3.211
88935W        W52879  17.275  11.199   4.268
88936W        W52880  21.685   3.260  12.557
88937W        W52881  12.287  33.939   0.477
88938W        W52882   1.304   7.894   1.819
88939W        W52883   3.860   7.282  10.025
88940W        W52884  19.220  32.093   1.332
88941W        W52885  17.181  20.723   3.853
88942W        W52886  29.157   6.230  14.441
88943W        W52887  38.400  16.299  12.418
88944W        W52888   4.790  32.997  11.975
88945W        W52889  10.763  25.663   2.198
88946W        W52890   9.668   0.822   0.835
88947W        W52891  19.649  22.047   0.433
88948W        W52892  29.478  25.553  13.332
88949W        W52893   4.905   4.769   2.863
88950W        W52894  25.680  44.834  12.998
88951W        W52895  17.691  25.123   1.313
88952W        W52896  35.589  24.205   4.785
88953W        W52897   8.327  17.681   1.298
88954W        W52898  22.125  41.817  12.545
88955W        W52899  44.996  33.521  12.890
88956W        W52900   5.203  25.653   0.452
88957W        W52901  19.095  32.442  11.583
88958W        W52902  17.599   2.780  13.003
88959W        W52903  37.576  18.149   0.810
88960W        W52904   8.761  26.184  12.452
88961W        W52905  31.506  36.580  13.980
88962W        W52906  36.592  15.256   1.846
88963W        W52907  12.766  33.127  14.308
88964W        W52908  11.850  39.931   3.283
88965W        W52909   5.884   8.396   3.841
88966W        W52910  25.623  41.449  12.048
88967W        W52911  44.907   0.333  13.474
88968W        W52912  40.886  14.800  14.294
88969W        W52913   1.436  42.369  12.403
88970W        W52914  42.916  25.693  12.930
88971W        W52915   5.386  19.065   2.882
88972W        W52916  15.183  20.584   4.190
88973W        W52917   8.900  34.489  10.124
88974W        W52918  38.382   8.763   1.271
88975W        W52919  18.077  32.127  14.775
88976W        W52920  44.315   5.399   1.732
88977W        W52921   5.930  42.003  11.022
88978W        W52922  15.131  27.954   3.176
88979W        W52923  37.847  12.314   3.832
88980W        W52924   4.249  20.572  11.881
88981W        W52925  25.053  22.134   4.198
88982W        W52926  35.531  27.113   1.411
88983W        W52927  23.207   9.708   0.328
88984W        W52928  41.881   7.741   0.277
88985W        W52929  42.815  26.123   1.819
88986W        W52930  18.209  44.002   2.872
88987W        W52931  12.784  23.099  13.907
88988W        W52932  20.537  37.462   4.325
88989W        W52933  36.591  12.276   3.635
88990W        W52934  21.050  43.442  10.600
88991W        W52935  43.414   0.842   3.274
88992W        W52936  42.995  44.300  12.867
88993W        W52937  34.919   8.841   4.821
88994W        W52938  41.036  35.952   3.285
88995W        W52939  10.861  23.150   3.718
88996W        W52940  41.911  39.418  12.861
88997W        W52941  42.321  15.308  10.955
88998W        W52942   6.846  31.033  10.117
88999W        W52943  16.295  20.049  14.373
89000W        W52944   0.942   3.448   2.362
89001W        W52945  28.061  12.128  12.521
89002W        W52946  17.253   3.848  14.860
89003W        W52947   0.410  42.999  13.426
89004W        W52948  28.082   6.893   1.301
89005W        W52949  39.353  28.113   1.913
89006W        W52950  39.856  31.923  14.858
89007W        W52951   8.209   3.812  12.413
89008W        W52952  33.966  14.703   0.319
89009W        W52953  11.695   7.340  11.995
89010W        W52954   6.260  32.606   2.287
89011W        W52955  18.177  35.538   0.963
89012W        W52956  35.357  38.931  11.494
89013W        W52957  17.772  12.206  13.914
89014W        W52958   2.744  39.392   0.327
89015W        W52959  19.732  32.452  10.896
89016W        W52960  40.370   0.394   0.309
89017W        W52961  26.134  19.668   1.307
89018W        W52962  10.201  17.234  14.396
89019W        W52963  20.167  25.646   3.774
89020W        W52964  36.460  40.382  11.120
89021W        W52965  13.694   5.875   3.752
89022W        W52966  22.999   6.743   3.345
89023W        W52967  20.203  18.050  13.814
89024W        W52968  35.898  40.349  10.977
89025W        W52969  41.908  43.366  10.485
89026W        W52970  11.197  38.461  11.113
89027W        W52971  17.135  28.509   2.895
89028W        W52972  44.283   0.420   4.141
89029W        W52973  13.685  19.053  14.856
89030W        W52974   1.746  41.906  12.428
89031W        W52975  11.307  21.093  10.974
89032W        W52976  30.061   5.224  13.918
89033W        W52977  31.635  32.627   2.355
89034W        W52978  17.179  41.381   1.295
89035W        W52979   0.310   3.765   4.816
89036W        W52980  31.647  15.699   2.333
89037W        W52981   0.765  28.473   2.760
89038W        W52982  40.532   1.463  13.007
89039W        W52983   1.416  38.540   4.265
89040W        W52984  32.918  13.722  10.926
89041W        W52985  43.795  31.570   3.188
89042W        W52986  41.384  13.235  12.942
89043W        W52987  12.701  42.863   3.651
89044W        W52988   6.723   3.251  13.313
89045W        W52989  41.983  38.402   3.377
89046W        W52990  21.558  29.046   0.734
89047W        W52991  37.349  30.491   2.714
89048W        W52992  20.264   3.247  12.433
89049W        W52993  32.140  16.639  11.589
89050W        W52994  36.354  16.147  14.836
89051W        W52995   9.700   3.772  13.478
89052W        W52996  39.889  43.795   1.308
89053W        W52997   8.254  23.534  11.548
89054W        W52998  10.138  12.124  13.887
89055W        W52999  42.805  15.610   1.394
89056W        W53000  34.021  24.691   4.218
89057W        W53001   7.264  37.441  11.440
89058W        W53002  11.785   3.923   1.406
89059W        W53003   8.253  28.949  11.558
89060W        W53004  23.640   9.389   2.860
89061W        W53005  26.462  34.907   2.213
89062W        W53006  18.093  42.788  12.995
89063W        W53007  41.937  33.087   2.687
89064W        W53008  37.440  18.115  14.430
89065W        W53009  33.902  37.033   4.702
89066W        W53010  21.138   0.316   1.360
89067W        W53011  22.187   6.919   1.845
89068W        W53012  44.442  36.860   1.431
89069W        W53013  26.597  35.602   1.280
89070W        W53014  44.419  37.467  13.041
89071W        W53015  19.159  29.487  14.010
89072W        W53016  27.026  32.112  13.356
89073W        W53017   9.234  37.439   0.825
89074W        W53018  44.983  25.548   1.836
89075W        W53019   1.854  21.190  11.560
89076W        W53020  38.049  22.607  12.886
89077W        W53021   2.368  11.187  13.466
89078W        W53022  31.127  37.856   4.708
89079W        W53023  23.238  14.217  14.327
89080W        W53024  32.985  42.920   0.438
89081W        W53025   1.893  18.247   2.201
89082W        W53026  42.288  42.351  11.600
89083W        W53027  20.077  23.521   0.313
89084W        W53028  40.971  40.000   4.191
89085W        W53029  34.875  17.666   0.436
89086W        W53030   3.254  20.569   4.207
89087W        W53031  11.370  22.089   4.148
89088W        W53032  36.555  17.089  10.029
89089W        W53033  22.173  10.247  13.840
89090W        W53034  27.056  37.067   0.268
89091W        W53035  15.197   7.699   0.780
89092W        W53036   8.691  21.256  11.443
89093W        W53037  37.344  42.854  14.919
89094W        W53038  29.954   2.347   1.811
89095W        W53039  19.282  32.099  11.572
89096W        W53040  30.636   8.655  10.014
89097W        W53041  40.429   2.855  14.916
89098W        W53042   1.881  12.337   0.387
89099W        W53043  15.746  34.584  10.154
89100W        W53044   4.441  14.265  14.001
89101W        W53045   9.181  24.220  13.814
89102W        W53046  23.010   0.368  13.043
89103W        W53047  17.577  26.204  10.572
89104W        W53048  22.221  22.072  14.305
89105W        W53049   8.856  20.259  10.962
89106W        W53050   6.311  39.345   0.271
89107W        W53051   6.382  10.634  11.024
89108W        W53052  39.042  43.866   4.246
89109W        W53053  23.625  12.651  11.566
89110W        W53054  21.614  36.070  10.944
89111W        W53055  22.588  44.320  12.476
89112W        W53056   1.482  10.241  11.980
89113W        W53057  14.181  34.444   3.853
89114W        W53058  40.011  36.437  10.634
89115W        W53059  18.644  38.448  12.905
89116W        W53060  25.598  28.083   0.783
89117W        W53061   3.723  10.300   3.635
89118W        W53062   5.780  20.629  11.545
89119W        W53063   6.871   2.339  14.453
89120W        W53064   4.354   9.834  14.368
89121W        W53065  43.410  14.787   1.346
89122W        W53066   4.718  13.123  10.571
89123W        W53067   4.940  27.506  10.479
89124W        W53068   9.216  21.159   1.233
89125W        W53069  13.762   8.775  14.282
89126W        W53070  19.690  27.030   4.177
89127W        W53071   0.419   7.892  11.373
89128W        W53072  27.691   0.378  12.559
89129W        W53073   0.327  14.254  13.912
89130W        W53074  42.911  30.986  14.911
89131W        W53075  44.333  21.563   4.816
89132W        W53076   2.750  33.609   4.670
89133W        W53077   0.950  35.508   2.278
89134W        W53078   8.814  35.498  11.991
89135W        W53079  31.633  28.179  11.021
89136W        W53080  44.464  19.725  14.443
89137W        W53081  13.165  44.422   2.751
89138W        W53082  30.962  41.038   9.662
89139W        W53083  13.313  31.958   3.835
89140W        W53084  43.299   5.802   1.929
89141W        W53085  20.223   5.818  10.461
89142W        W53086  13.774  26.202  12.967
89143W        W53087   6.750  38.074  14.903
89144W        W53088  23.134  27.953   1.806
89145W        W53089  20.062   3.448  11.094
89146W        W53090  31.962  17.681   0.451
89147W        W53091   1.778   4.880   2.900
89148W        W53092   9.279  31.900   0.896
89149W        W53093  12.772  30.139   4.805
89150W        W53094  34.970  18.640   1.229
89151W        W53095   9.232  30.528  12.942
89152W        W53096   5.916   3.351   4.699
89153W        W53097  35.556  15.136   1.444
89154W        W53098  41.977   0.399  13.818
89155W        W53099   1.346  16.804  13.908
89156W        W53100  20.731  31.051  14.402
89157W        W53101  25.636  11.285  10.426
89158W        W53102  39.904   9.672   3.170
89159W        W53103  13.191  41.357   2.231
89160W        W53104  37.549  14.247  14.867
89161W        W53105  16.654  23.573   0.291
89162W        W53106  33.625  27.195   1.919
89163W        W53107  12.131  37.891  11.118
89164W        W53108  12.728  12.334  11.509
89165W        W53109  41.794  41.305  10.055
89166W        W53110  13.217  35.961  14.929
89167W        W53111   1.257  42.327  13.951
89168W        W53112  29.532  31.554   0.821
89169W        W53113  26.615  16.572  11.412
89170W        W53114   9.261  19.215  11.969
89171W        W53115  15.758   5.917  11.441
89172W        W53116  28.531  22.676   2.333
89173W        W53117  41.011  31.120   4.734
89174W        W53118  31.008  23.713  13.880
89175W        W53119  21.247  21.191   4.311
89176W        W53120  21.699  40.311  12.436
89177W        W53121  11.788  38.029   4.302
89178W        W53122   8.160  24.201  14.366
89179W        W53123  36.517  10.144   3.224
89180W        W53124  14.244  37.865   3.298
89181W        W53125  30.140  33.597   2.901
89182W        W53126  14.192  13.204  13.018
89183W        W53127  22.023  10.208   2.181
89184W        W53128  30.091  28.060   4.312
89185W        W53129  10.247  20.046   4.292
89186W        W53130  27.103   1.836   2.857
89187W        W53131   0.980  28.648  13.324
89188W        W53132  31.995  38.370  12.484
89189W        W53133   9.774   5.392   1.388
89190W        W53134   0.839   5.825   3.221
89191W        W53135   1.422   9.664   3.377
89192W        W53136   0.355   7.887   1.401
89193W        W53137   1.313   1.882  12.358
89194W        W53138   0.407  13.184  14.336
89195W        W53139  30.008  34.870  14.987
89196W        W53140  42.887  21.566  10.558
89197W        W53141  30.628  20.702   0.258
89198W        W53142  20.241  16.206  10.944
89199W        W53143  42.334  30.524   3.842
89200W        W53144  17.752  38.407  10.915
89201W        W53145   6.868  32.450  13.465
89202W        W53146  42.299  29.165  13.410
89203W        W53147  14.813  19.545   2.366
89204W        W53148  30.658  18.583  13.466
89205W        W53149  28.514  37.464   1.435
89206W        W53150  13.740  27.626   3.201
89207W        W53151  23.691  38.032   3.710
89208W        W53152  14.624  42.794   1.434
89209W        W53153  18.736  21.660   3.222
89210W        W53154  27.683  28.068   1.218
89211W        W53155  34.543  41.352  12.835
89212W        W53156  41.030  24.010  11.857
89213W        W53157  42.890  23.592  12.853
89214W        W53158  10.181   6.346   0.793
89215W        W53159   2.841  12.190  10.976
89216W        W53160   8.342  18.640   2.255
89217W        W53161   4.376  27.994   3.633
89218W        W53162  30.937  36.398   2.891
89219W        W53163  21.566  33.485  10.452
89220W        W53164   0.309  37.080   1.438
89221W        W53165   2.761  10.160  13.311
89222W        W53166  26.463  32.466   4.314
89223W        W53167  11.153  12.353  12.496
89224W        W53168  23.171  23.167  12.488
89225W        W53169   3.406  15.706   0.430
89226W        W53170  11.815  39.456   3.272
89227W        W53171  29.931   1.383  14.514
89228W        W53172  20.174  14.635   4.656
89229W        W53173  30.422  13.729   2.810
89230W        W53174   0.762  16.078   0.288
89231W        W53175  44.275  14.608   1.895
89232W        W53176  23.154  14.187  13.444
89233W        W53177  40.041  41.812  13.396
89234W        W53178   3.939  18.181  14.764
89235W        W53179   2.340  18.608   0.775
89236W        W53180   7.330  30.635  12.550
89237W        W53181  10.859   4.919  13.989
89238W        W53182  23.593   5.247   3.219
89239W        W53183  35.594   5.326   4.782
89240W        W53184  44.362  40.987  13.837
89241W        W53185  35.457  41.998   0.445
89242W        W53186   7.206  28.610  11.875
89243W        W53187  12.333  22.245   0.757
89244W        W53188  29.559  38.540   4.150
89245W        W53189  41.003  10.142   3.257
89246W        W53190   0.949  40.367  14.901
89247W        W53191  25.007  25.488   4.751
89248W        W53192  12.345  14.108   4.176
89249W        W53193  30.127  31.497  13.057
89250W        W53194  10.736   4.338   0.283
89251W        W53195   2.813  25.194  10.554
89252W        W53196   5.380  33.513  13.360
89253W        W53197   9.732  42.992  13.972
89254W        W53198  21.579  37.432   2.872
89255W        W53199  43.478   9.295   3.148
89256W        W53200   2.235  14.746  10.462
89257W        W53201  24.672  17.789  10.404
89258W        W53202  31.141  43.012  14.364
89259W        W53203  28.599  25.690  15.000
89260W        W53204  30.020  34.408  13.951
89261W        W53205  35.008   6.736  13.860
89262W        W53206  29.020  44.889  13.381
89263W        W53207  28.057   1.823   0.837
89264W        W53208  27.188  24.628   2.216
89265W        W53209  26.518  26.466   3.632
89266W        W53210   4.342  31.148  14.508
89267W        W53211  17.669  19.069  14.400
89268W        W53212  39.952  17.122   4.129
89269W        W53213   6.199  20.144  11.022
89270W        W53214  19.100  29.927   3.716
89271W        W53215   5.903  10.679   1.391
89272W        W53216   3.801   4.903  12.924
89273W        W53217  17.203  42.878   3.291
89274W        W53218   8.200  14.745  12.945
89275W        W53219  34.475  32.425  12.882
89276W        W53220  33.121  32.420  14.896
89277W        W53221  40.814   4.883   3.863
89278W        W53222  20.562  12.139   4.802
89279W        W53223  40.354   1.384  14.870
89280W        W53224   9.866  11.743   4.291
89281W        W53225  25.707  16.193  10.943
89282W        W53226   8.798  14.188  13.375
89283W        W53227  21.647  17.175  14.320
89284W        W53228  20.657  14.169   2.224
89285W        W53229   5.715  10.343   1.408
89286W        W53230  28.086  15.630   3.758
89287W        W53231   6.371  41.485   2.328
89288W        W53232   0.437  42.900  13.995
89289W        W53233  37.835   3.948   0.891
89290W        W53234   1.890  11.739  11.495
89291W        W53235   9.157  29.634  12.034
89292W        W53236  17.651   1.888  12.471
89293W        W53237  34.971  30.644  11.082
89294W        W53238   2.922   6.920   3.161
89295W        W53239  11.711  34.978  11.539
89296W        W53240   3.416  39.490   0.787
89297W        W53241  11.802  39.469  10.459
89298W        W53242  24.622  31.535   2.328
89299W        W53243  29.057  29.506   4.723
89300W        W53244  37.510   9.388   5.204
89301W        W53245  41.428  23.505   4.779
89302W        W53246   2.829  25.217  14.929
89303W        W53247   7.739  18.749  14.290
89304W        W53248  13.699  20.645  14.974
89305W        W53249   1.745  18.662  10.974
89306W        W53250   2.340  12.357   3.225
89307W        W53251  29.923  43.455  11.040
89308W        W53252   8.886  12.623  10.557
89309W        W53253  25.122  42.401   4.166
89310W        W53254   7.793  25.579   2.806
89311W        W53255  41.322   5.424   5.140
89312W        W53256  37.066  43.815   0.783
89313W        W53257  19.592  27.651  13.459
89314W        W53258  14.750   2.251   2.345
89315W        W53259  23.142  15.147   2.222
89316W        W53260  44.995   4.255   2.224
89317W        W53261  15.659  42.324   2.308
89318W        W53262  24.057  35.599   2.370
89319W        W53263  33.542  12.230   2.856
89320W        W53264   5.903  39.542  14.003
89321W        W53265   5.798  25.098   1.907
89322W        W53266  21.663  13.256  12.067
89323W        W53267   5.704  17.785  12.934
89324W        W53268  24.017  17.734   0.408
89325W        W53269  34.461   2.947  12.497
89326W        W53270  41.928  26.141  11.076
89327W        W53271  31.040  22.251  12.565
89328W        W53272   2.355  18.642  13.060
89329W        W53273  35.955  31.613  13.023
89330W        W53274  34.418  30.032  11.565
89331W        W53275  11.731  15.166   4.737
89332W        W53276   4.417  18.577  13.403
89333W        W53277  20.690   5.933  12.406
89334W        W53278  32.619   4.275  13.917
89335W        W53279  33.909   2.286   4.712
89336W        W53280   9.716  19.253  14.007
89337W        W53281  15.297   8.812   0.773
89338W        W53282  20.116  21.252  14.840
89339W        W53283  26.991   5.276  12.087
89340W        W53284  18.270  18.285   4.630
89341W        W53285  18.577  21.064  14.811
89342W        W53286   4.825  41.820  12.827
89343W        W53287  12.131  22.722  12.872
89344W        W53288  15.224  15.813  13.353
89345W        W53289   5.716  30.619  13.432
89346W        W53290  24.515   7.308   0.380
89347W        W53291   5.308  30.916   3.804
89348W        W53292   4.288   8.357  13.986
89349W        W53293  32.537  18.715  12.059
89350W        W53294  39.055  14.334   1.328
89351W        W53295  18.111  42.821   2.357
89352W        W53296  37.543  39.810   0.429
89353W        W53297   9.190  29.944   4.689
89354W        W53298  13.700  16.209   3.238
89355W        W53299  29.967  19.626   0.839
89356W        W53300   8.876   7.355  10.498
89357W        W53301  35.059  37.451  11.546
89358W        W53302  18.092  19.273  14.496
89359W        W53303   1.835   6.766   2.740
89360W        W53304   3.435  33.389  13.799
89361W        W53305  19.262  22.105  10.466
89362W        W53306  26.472  34.995  10.601
89363W        W53307  21.609  11.786  12.355
89364W        W53308   5.280  16.763  13.351
89365W        W53309  24.062  31.152   2.391
89366W        W53310  30.646  31.620  10.974
89367W        W53311  36.889  33.065   4.696
89368W        W53312  31.493   7.220   3.279
89369W        W53313  27.007  26.477  11.126
89370W        W53314  39.921   1.319  10.441
89371W        W53315  33.007  26.003  14.812
89372W        W53316  42.796  44.423  13.542
89373W        W53317   7.910  34.425  10.900
89374W        W53318   8.331  26.031   4.712
89375W        W53319  40.853  23.625  14.866
89376W        W53320  14.297   4.388  13.476
89377W        W53321   8.756  31.026  10.490
89378W        W53322  35.071  19.743  11.386
89379W        W53323  35.098  34.979   4.162
89380W        W53324  38.373  34.973  14.798
89381W        W53325  40.473  42.305   1.704
89382W        W53326   0.771  43.294  13.963
89383W        W53327  26.681  38.978   0.349
89384W        W53328   7.841  26.505   4.688
89385W        W53329  16.596  23.504  11.955
89386W        W53330   5.206  14.328  14.423
89387W        W53331  11.785  23.513   3.724
89388W        W53332  35.091  39.389  12.375
89389W        W53333  24.596  42.886   3.846
89390W        W53334  31.005  16.614   0.881
89391W        W53335  17.555  24.090  14.845
89392W        W53336  25.155   4.931   0.423
89393W        W53337  30.967  11.671  12.512
89394W        W53338  37.965  11.271  12.559
89395W        W53339  34.538   4.804   4.353
89396W        W53340  41.308  32.929  14.448
89397W        W53341  10.340  34.558   2.738
89398W        W53342  32.028  26.703  14.289
89399W        W53343  20.039  27.583   0.821
89400W        W53344  33.046  16.669   4.195
89401W        W53345   2.856  27.646   3.744
89402W        W53346  26.975   4.785   4.320
89403W        W53347  38.863  43.374  11.878
89404W        W53348  40.912  28.040  13.876
89405W        W53349  22.532  24.035   2.261
89406W        W53350  23.136  26.458   0.939
89407W        W53351  41.517   6.691  12.908
89408W        W53352   9.842   6.414  12.033
89409W        W53353   7.852   7.293  13.488
89410W        W53354  38.824  23.031  11.045
89411W        W53355  39.440  36.362  14.013
89412W        W53356   4.345  18.145  11.889
89413W        W53357   6.222  16.118   9.585
89414W        W53358  41.375  19.277   0.783
89415W        W53359   1.406  36.496  10.594
89416W        W53360  10.144  37.438  12.569
89417W        W53361   9.156   2.922   4.273
89418W        W53362  33.389  28.465  10.000
89419W        W53363  11.308  32.525  11.913
89420W        W53364  20.112  43.771   0.454
89421W        W53365  29.615  10.305   2.243
89422W        W53366  18.169  42.794   0.789
89423W        W53367  36.556  17.262   1.397
89424W        W53368  40.020   0.441   2.833
89425W        W53369  15.823  41.425   0.906
89426W        W53370  32.000   9.254  14.319
89427W        W53371  25.071  37.465  11.585
89428W        W53372  30.522  39.931   9.550
89429W        W53373  33.390  16.182   4.220
89430W        W53374   1.476  22.698   1.918
89431W        W53375  22.198   9.880   2.777
89432W        W53376  14.228   0.354   1.795
89433W        W53377  25.630   9.697   3.801
89434W        W53378  42.296  38.367  11.884
89435W        W53379   0.955  15.186  11.938
89436W        W53380  44.904   7.290   1.249
89437W        W53381   9.846   1.939   2.827
89438W        W53382  31.544  37.449  13.999
89439W        W53383   0.926  14.720   0.826
89440W        W53384  14.201  17.242   4.622
89441W        W53385  32.404  24.169   2.802
89442W        W53386  36.498  16.300   2.774
89443W        W53387  39.414  37.490  12.997
89444W        W53388  10.804  30.617   3.383
89445W        W53389  44.821  19.088  14.308
89446W        W53390  12.720  34.424   1.254
89447W        W53391   3.899  43.400  12.530
89448W        W53392  41.834   4.268  14.329
89449W        W53393   3.831  42.325  12.065
89450W        W53394   3.443  19.071   3.333
89451W        W53395  15.777  44.939   0.255
89452W        W53396  40.325  23.611  11.469
89453W        W53397  35.959  36.913  13.939
89454W        W53398  14.103  39.977  13.466
89455W        W53399   3.324  31.962  12.003
89456W        W53400  33.435  24.065  12.944
89457W        W53401   1.826  20.741   4.178
89458W        W53402  25.088  15.224   0.908
89459W        W53403  38.541  24.980  13.956
89460W        W53404  33.492  19.768   4.282
89461W        W53405  31.011  44.313   0.757
89462W        W53406  41.505  16.739   2.849
89463W        W53407  20.178  23.538  14.874
89464W        W53408  40.974  11.840   0.924
89465W        W53409  23.662   1.449   4.665
89466W        W53410  14.127  28.071  13.435
89467W        W53411  20.610  38.998  11.608
89468W        W53412   7.258  31.532   4.704
89469W        W53413  38.955  14.589   3.273
89470W        W53414  15.175  42.007  12.433
89471W        W53415   0.919  28.009  14.400
89472W        W53416  34.108   7.330  14.846
89473W        W53417   6.413  24.072   3.747
89474W        W53418  25.113  44.801  14.007
89475W        W53419  38.432  42.911  11.081
89476W        W53420  20.701   1.889  12.899
89477W        W53421   3.283  36.478   5.221
89478W        W53422  14.833  14.609  14.445
89479W        W53423  37.425  16.109   3.230
89480W        W53424  40.873   8.881   0.745
89481W        W53425  29.539   7.275   3.776
89482W        W53426   2.332   9.705  13.835
89483W        W53427  17.663  38.427   1.383
89484W        W53428  27.039  37.883  13.435
89485W        W53429  19.191  34.426   1.751
89486W        W53430  10.735  34.606  11.002
89487W        W53431  43.777  41.906   3.270
89488W        W53432  37.088  31.430   2.777
89489W        W53433  24.585  25.041  13.878
89490W        W53434   1.975  15.298  11.562
89491W        W53435   4.717  44.967  12.346
89492W        W53436  29.441  26.676  13.353
89493W        W53437  17.077  33.622  11.941
89494W        W53438   8.763  30.062  12.091
89495W        W53439  18.583  39.968   0.254
89496W        W53440  23.153  41.835   1.374
89497W        W53441  19.607  23.058   3.358
89498W        W53442  12.851  18.603  13.402
89499W        W53443  27.641  19.600   0.921
89500W        W53444  44.976   4.875   4.278
89501W        W53445  14.802  25.211   5.308
89502W        W53446  15.192  10.661   0.346
89503W        W53447  23.623   8.353   4.210
89504W        W53448  28.141  16.585   3.332
89505W        W53449  13.256  28.651   2.366
89506W        W53450  44.265  30.587   0.887
89507W        W53451  32.621  19.707  14.907
89508W        W53452  11.692   5.264   2.828
89509W        W53453  42.369   0.767   0.390
89510W        W53454  23.500   2.356  11.449
89511W        W53455   7.385  27.138   4.201
89512W        W53456  25.536  14.243   3.273
89513W        W53457   2.398  27.057   1.281
89514W        W53458  39.897  44.764   1.746
89515W        W53459   0.290   7.289   2.816
89516W        W53460  17.296  17.121  12.980
89517W        W53461   2.403  28.671  12.035
89518W        W53462   6.708  27.462  13.029
89519W        W53463  35.017  11.285   4.309
89520W        W53464   6.368  29.134  12.095
89521W        W53465  21.549  22.247   4.621
89522W        W53466  37.336  25.160   4.259
89523W        W53467  11.306  37.456  14.303
89524W        W53468  24.611  14.254  12.895
89525W        W53469  33.483   7.231  12.998
89526W        W53470  25.143  10.193  13.362
89527W        W53471  32.019  43.349  11.862
89528W        W53472  36.452  14.108  12.465
89529W        W53473  21.617   2.757   1.425
89530W        W53474  34.584  34.535  11.899
89531W        W53475  32.915  15.113  12.436
89532W        W53476  10.669   4.846   1.295
89533W        W53477   6.904  44.801   0.859
89534W        W53478  42.317   1.409  12.868
89535W        W53479  22.088  18.583  11.441
89536W        W53480  15.156  26.957   2.404
89537W        W53481  28.961   9.185   3.211
89538W        W53482  25.056  31.403   2.313
89539W        W53483  32.078   0.293  12.500
89540W        W53484  39.334  36.956   3.232
89541W        W53485   4.765   7.742   2.372
89542W        W53486  26.626  31.905   5.228
89543W        W53487   9.372  31.549   2.245
89544W        W53488  26.102  33.615   0.872
89545W        W53489  33.941  37.560   0.852
89546W        W53490  20.732  14.748   1.406
89547W        W53491  13.261   9.871  10.631
89548W        W53492  30.032  35.600   1.420
89549W        W53493  12.708  24.714  14.866
89550W        W53494  16.270  21.735  13.807
89551W        W53495  31.520  42.324  12.065
89552W        W53496  42.780   4.754  12.972
89553W        W53497   6.828  25.606  13.520
89554W        W53498   2.846   1.778  14.770
89555W        W53499  17.095  24.085   1.778
89556W        W53500  18.122  14.101   3.213
89557W        W53501   4.276  26.686  14.471
89558W        W53502  12.142   2.935  12.474
89559W        W53503   7.720  14.153  14.302
89560W        W53504  21.590   3.887  13.044
89561W        W53505  11.814  15.300   2.419
89562W        W53506  35.082   0.431   2.879
89563W        W53507   8.257   1.833   2.345
89564W        W53508  35.108  32.027   3.791
89565W        W53509  37.570  13.664   2.839
89566W        W53510   4.917  19.735   2.306
89567W        W53511  42.791  31.073  14.321
89568W        W53512   1.364  27.156  11.529
89569W        W53513  20.614  11.183  13.317
89570W        W53514  13.182  35.446   3.678
89571W        W53515  18.130  33.947  14.864
89572W        W53516  36.005   4.441   0.780
89573W        W53517  42.364  26.486  11.073
89574W        W53518  36.376  18.625   3.376
89575W        W53519  25.581  12.669   3.662
89576W        W53520  44.438  27.684   3.217
89577W        W53521   4.247  22.660   3.196
89578W        W53522  18.780  12.348  14.898
89579W        W53523  14.173  19.048  14.375
89580W        W53524   8.273  14.666   1.281
89581W        W53525  31.563  27.196  11.955
89582W        W53526  12.258  31.641   2.203
89583W        W53527  39.908   2.446   4.647
89584W        W53528  22.030  11.828  14.371
89585W        W53529  15.641  25.057   1.401
89586W        W53530  41.430  11.266   0.786
89587W        W53531  25.572  13.224   4.721
89588W        W53532   7.876  15.604   1.756
89589W        W53533   9.303  32.059  10.462
89590W        W53534  13.675  27.551  11.594
89591W        W53535  43.803  25.173  14.502
89592W        W53536  24.076  29.094   2.861
89593W        W53537  23.606  30.119   2.273
89594W        W53538  36.860  30.580  13.379
89595W        W53539   0.310  42.893   4.813
89596W        W53540  30.621  19.638   1.314
89597W        W53541  17.679  44.283  11.532
89598W        W53542   0.313   4.216   0.746
89599W        W53543  12.780  22.622  14.277
89600W        W53544  18.173   9.719   2.767
89601W        W53545  13.629   6.911  11.504
89602W        W53546  25.563  37.477  12.046
89603W        W53547  31.974   8.874  13.509
89604W        W53548  25.028  38.534  14.445
89605W        W53549  17.097  18.544   0.376
89606W        W53550   0.761  11.233   4.155
89607W        W53551  31.010  42.296   9.947
89608W        W53552  36.876  27.108   0.845
89609W        W53553  40.351  44.422  10.539
89610W        W53554  11.232  42.519   3.372
89611W        W53555  20.579  12.623  12.842
89612W        W53556  41.489  23.165  12.424
89613W        W53557  22.592  29.612  14.388
89614W        W53558  37.903  33.894  13.400
89615W        W53559  28.025  23.136   2.696
89616W        W53560  41.923  23.066   0.264
89617W        W53561  18.618  39.894  11.892
89618W        W53562  17.110  43.985  11.009
89619W        W53563   2.811  41.817   2.418
89620W        W53564  28.618  19.598   4.239
89621W        W53565  14.824   7.247   4.352
89622W        W53566   9.719  12.309  12.061
89623W        W53567  28.077  39.426  11.434
89624W        W53568  14.608   0.763  11.123
89625W        W53569   9.715  41.372  14.975
89626W        W53570   5.217  44.481   1.325
89627W        W53571  41.994  21.221  14.509
89628W        W53572   5.862   8.178  10.960
89629W        W53573  20.197   6.244  14.443
89630W        W53574   7.306  31.143  10.121
89631W        W53575  30.601  39.964  14.030
89632W        W53576  21.239  41.444   1.422
89633W        W53577  27.152  14.676   2.192
89634W        W53578  12.203  38.998   1.886
89635W        W53579  27.015  38.360  10.415
89636W        W53580  38.917   4.817   2.700
89637W        W53581   8.697  22.559   0.924
89638W        W53582  43.935   6.252  11.390
89639W        W53583  35.374  40.302  13.402
89640W        W53584  11.345  44.990   1.734
89641W        W53585  42.348  23.702  12.908
89642W        W53586  38.929  30.018   4.142
89643W        W53587  16.188  41.364  14.390
89644W        W53588  35.869  28.479   0.777
89645W        W53589   9.794  26.076   2.877
89646W        W53590  40.424  22.608   3.264
89647W        W53591  29.031  42.467   1.883
89648W        W53592   2.266  25.636  14.430
89649W        W53593  41.913  25.019   5.284
89650W        W53594  21.559  32.945  12.852
89651W        W53595  42.477  37.342  10.589
89652W        W53596  10.803  26.591  10.424
89653W        W53597  31.021  10.142  13.900
89654W        W53598  27.946  30.510  10.023
89655W        W53599   6.858  29.065   4.345
89656W        W53600  44.420  38.338  13.372
89657W        W53601  21.758  37.479  13.450
89658W        W53602   7.816  12.744   4.798
89659W        W53603   3.420  25.969   0.761
89660W        W53604  10.185   3.285  14.420
89661W        W53605  43.978  42.428  10.423
89662W        W53606  16.721  22.600   0.906
89663W        W53607   0.269  17.675  12.911
89664W        W53608  29.619  37.903  14.424
89665W        W53609  38.484  27.468  10.438
89666W        W53610  28.140  36.014   1.889
89667W        W53611  12.774  36.578  11.094
89668W        W53612   7.376  31.565  12.409
89669W        W53613  11.236  15.764  14.848
89670W        W53614  34.919  41.018  13.466
89671W        W53615  10.865   3.861   3.175
89672W        W53616  19.688  33.989  14.827
89673W        W53617  33.491  25.515   0.852
89674W        W53618  44.481   6.380  13.504
89675W        W53619   8.768   4.376  14.276
89676W        W53620  33.537  15.281   1.256
89677W        W53621  25.124  29.948  11.571
89678W        W53622   8.297  12.727  11.465
89679W        W53623  43.375  11.170   2.194
89680W        W53624  35.432  23.683  13.793
89681W        W53625   9.689  26.602   1.930
89682W        W53626  22.576   7.336   3.857
89683W        W53627  33.914  30.926   4.288
89684W        W53628  43.994  19.088  11.047
89685W        W53629   5.437   0.845  10.603
89686W        W53630  44.416  20.080   1.883
89687W        W53631  10.182  43.998   1.316
89688W        W53632  25.047  29.157  11.542
89689W        W53633  36.410  33.487  11.456
89690W        W53634  39.864  37.852   4.158
89691W        W53635  38.367  38.075   3.249
89692W        W53636   2.863  13.306  14.837
89693W        W53637  39.469   4.846   2.732
89694W        W53638  42.023  23.051   2.800
89695W        W53639  44.771  38.039   3.646
89696W        W53640  18.727  28.073   4.621
89697W        W53641  23.028  33.965   3.383
89698W        W53642  36.880  42.936   0.308
89699W        W53643  42.505  28.035  11.100
89700W        W53644  43.909  33.412   1.451
89701W        W53645   2.876  33.453   3.283
89702W        W53646   8.665  31.090  10.964
89703W        W53647  32.003  36.925  12.034
89704W        W53648  28.028  42.950   3.707
89705W        W53649  36.868  18.602   3.832
89706W        W53650  35.956  16.124  12.976
89707W        W53651   3.722   9.847  14.863
89708W        W53652  15.083  27.103  11.047
89709W        W53653  39.983  44.994   4.220
89710W        W53654  11.690  38.494   3.757
89711W        W53655  39.877  38.335  11.925
89712W        W53656  26.582  12.717   0.438
89713W        W53657  42.858  39.382   1.779
89714W        W53658  30.933  15.328  14.369
89715W        W53659  42.317  12.776  11.588
89716W        W53660  31.619  29.587  12.397
89717W        W53661   1.856  14.101  10.468
89718W        W53662  32.980  17.719   3.724
89719W        W53663  31.616   4.245  10.895
89720W        W53664  30.991  29.993   0.358
89721W        W53665   7.866  38.014   3.301
89722W        W53666  11.371   8.376   3.231
89723W        W53667  27.116  34.036   3.632
89724W        W53668  38.434  26.549  10.548
89725W        W53669  31.027   6.234  13.504
89726W        W53670  30.150  43.897   4.146
89727W        W53671   9.672  24.104  14.866
89728W        W53672  26.139  14.765  13.913
89729W        W53673   3.363  28.173   1.321
89730W        W53674  24.203  38.499  12.966
89731W        W53675  20.694   0.753   3.805
89732W        W53676  19.189  22.683  14.850
89733W        W53677  10.300  44.800   1.908
89734W        W53678   3.934  34.408  10.928
89735W        W53679  41.983  15.785   1.244
89736W        W53680   9.681   1.355  14.918
89737W        W53681   2.958  16.238   0.927
89738W        W53682  34.021  15.804  13.400
89739W        W53683  36.350  16.800   1.738
89740W        W53684  40.020  17.088   3.668
89741W        W53685   4.340  13.640   2.215
89742W        W53686  27.550  21.722  14.384
89743W        W53687  44.900  30.500  12.015
89744W        W53688  40.454  19.688   1.821
89745W        W53689  39.477  20.061  12.381
89746W        W53690  26.084  10.234  10.477
89747W        W53691  39.340  25.067  11.105
89748W        W53692  19.628  11.245  12.349
89749W        W53693   1.908   3.788   5.111
89750W        W53694  30.501  28.948   3.184
89751W        W53695   4.820   5.815  14.874
89752W        W53696   3.419  36.439  14.462
89753W        W53697  24.029  31.047  13.324
89754W        W53698   0.870  42.779   1.751
89755W        W53699   8.751  18.193   5.767
89756W        W53700  12.147  31.903   2.888
89757W        W53701  13.254  15.239   0.263
89758W        W53702  30.998  37.339  13.996
89759W        W53703  27.136  18.203   3.301
89760W        W53704   0.941  23.715  14.857
89761W        W53705  40.991   4.908   5.154
89762W        W53706  12.790  26.992   0.383
89763W        W53707  15.090   7.237  14.848
89764W        W53708   4.819  32.069   1.425
89765W        W53709   3.822  22.152   3.223
89766W        W53710   2.834  20.619   1.824
89767W        W53711   0.390  32.541   0.875
89768W        W53712  14.742  41.902   3.196
89769W        W53713  18.694  20.720   3.359
89770W        W53714   1.248  35.460  13.366
89771W        W53715  10.343   6.857  10.124
89772W        W53716  33.406  38.533   2.226
89773W        W53717  14.797  13.761  11.064
89774W        W53718  18.121  17.274   4.193
89775W        W53719  37.357  24.628  14.286
89776W        W53720   2.804  25.065   4.281
89777W        W53721   5.733   4.351  12.033
89778W        W53722  38.954  25.993   1.372
89779W        W53723  32.905   3.812  12.978
89780W        W53724  37.554  11.863   0.367
89781W        W53725  22.112  24.554  10.916
89782W        W53726  23.554   1.795  10.552
89783W        W53727   4.246  29.505   2.807
89784W        W53728  22.524   7.902   1.867
89785W        W53729  10.705  36.478   2.867
89786W        W53730  30.571  20.038  12.554
89787W        W53731  29.955  41.882  13.439
89788W        W53732  41.352   0.269   0.436
89789W        W53733  12.796  22.609   2.246
89790W        W53734  40.851  18.598   3.696
89791W        W53735  17.558   7.352   1.222
89792W        W53736   1.294  27.623   2.358
89793W        W53737  17.277   2.468   0.791
89794W        W53738  19.686  32.494  10.579
89795W        W53739  35.047  12.361  12.550
89796W        W53740  26.994  18.067  10.643
89797W        W53741  28.019  17.712   3.359
89798W        W53742   5.925  33.590  14.413
89799W        W53743   8.241   9.749   3.279
89800W        W53744  16.081  40.851  14.770
89801W        W53745  30.128  19.579  10.550
89802W        W53746  40.351  32.997   2.733
89803W        W53747   2.302  41.476   1.286
89804W        W53748   4.721  42.902  12.402
89805W        W53749  38.453   2.249  10.133
89806W        W53750  19.650  22.249   4.128
89807W        W53751  40.351  22.594  14.961
89808W        W53752   2.801  25.066  11.082
89809W        W53753  21.550  20.030  11.535
89810W        W53754  42.028  30.627   1.306
89811W        W53755  33.998  17.271  14.345
89812W        W53756  25.617  38.824   3.700
89813W        W53757  36.846   8.264   0.383
89814W        W53758   9.310  23.012  11.025
89815W        W53759  44.850  42.899   1.314
89816W        W53760   7.669  30.503   2.788
89817W        W53761  31.139  39.547   3.160
89818W        W53762  21.250  30.573  10.410
89819W        W53763  40.928   7.716   4.629
89820W        W53764  27.170  11.699   4.239
89821W        W53765  28.150  32.069  13.879
89822W        W53766  30.087  12.694  14.792
89823W        W53767  44.987   0.970  10.497
89824W        W53768  12.325  36.593   3.863
89825W        W53769  11.828  30.130   1.740
89826W        W53770  31.537  28.471   1.919
89827W        W53771  33.105  25.637   2.251
89828W        W53772  22.615  44.273   3.327
89829W        W53773  23.074   8.368  11.574
89830W        W53774  33.977  29.003  13.490
89831W        W53775  18.076  27.148   0.359
89832W        W53776  14.732  36.874  10.612
89833W        W53777  37.503  23.054  11.543
89834W        W53778  24.076  25.963  13.972
89835W        W53779  41.523   3.845  13.884
89836W        W53780  26.150  20.046   2.277
89837W        W53781  18.647  37.519   3.815
89838W        W53782  32.120  23.992  13.818
89839W        W53783  15.209   8.278   1.251
89840W        W53784  12.749  23.219  11.491
89841W        W53785  34.453  13.302  13.812
89842W        W53786  33.564  21.068   1.696
89843W        W53787  17.704  22.205  10.600
89844W        W53788  39.351   1.406  11.865
89845W        W53789  26.030  33.491   1.767
89846W        W53790  34.915  43.874   0.269
89847W        W53791  41.515   4.845   4.312
89848W        W53792  16.244   1.249   2.665
89849W        W53793  31.036  40.509   1.831
89850W        W53794  23.509  42.943   0.909
89851W        W53795  18.717  43.284   4.757
89852W        W53796  19.670  16.115   0.824
89853W        W53797  34.092  40.338  11.004
89854W        W53798  37.545  14.684   1.808
89855W        W53799  42.960  27.165   1.870
89856W        W53800   2.782  20.543   0.901
89857W        W53801  31.401  29.463   3.739
89858W        W53802  32.118  21.556  10.967
89859W        W53803  31.014  36.062   3.650
89860W        W53804   2.957   7.888   4.254
89861W        W53805   8.881  40.821  11.424
89862W        W53806  17.644   4.744  13.504
89863W        W53807   2.264  43.349   3.302
89864W        W53808   1.757   7.279   0.272
89865W        W53809  12.852  18.072   4.121
89866W        W53810  28.474  13.215  14.426
89867W        W53811  23.557  13.678  12.437
89868W        W53812  42.505   6.415   1.308
89869W        W53813  26.491  43.444   2.700
89870W        W53814  43.986  42.022   4.731
89871W        W53815   0.438  18.620   2.384
89872W        W53816  21.523  17.620  13.925
89873W        W53817  26.640   1.433  12.476
89874W        W53818  21.732  19.197  14.968
89875W        W53819  23.173  21.683  13.345
89876W        W53820  16.228  35.458   3.190
89877W        W53821  44.471  29.500  11.519
89878W        W53822  31.622  21.036  12.875
89879W        W53823  17.192  23.108  14.340
89880W        W53824   9.183  25.666   4.781
89881W        W53825   0.482  25.003  11.968
89882W        W53826  33.930   1.401   0.454
89883W        W53827  18.761  42.440   0.950
89884W        W53828  35.103   5.739  10.432
89885W        W53829   7.250   8.844  14.869
89886W        W53830  44.412  12.749  12.498
89887W        W53831  36.367  42.967   1.249
89888W        W53832   3.377   7.286   1.863
89889W        W53833  40.939  41.340  11.486
89890W        W53834  27.673  37.047   1.412
89891W        W53835  10.168  14.256   1.305
89892W        W53836  29.588  41.503  12.493
89893W        W53837  28.970  12.242  13.495
89894W        W53838  23.584  10.837  12.934
89895W        W53839  31.896   5.305   3.751
89896W        W53840   8.780   7.673   1.927
89897W        W53841   5.834  44.845   1.339
89898W        W53842  21.523  40.841   3.799
89899W        W53843  20.233  22.070  13.513
89900W        W53844  44.896  25.131  11.123
89901W        W53845  23.531  27.138  14.492
89902W        W53846   6.677  32.602   4.720
89903W        W53847  30.933   4.765  13.355
89904W        W53848  38.835  20.243   2.357
89905W        W53849  18.083   7.286   1.401
89906W        W53850  24.685  44.915   4.613
89907W        W53851  21.141  34.583  13.956
89908W        W53852  18.121  24.519   1.933
89909W        W53853  22.027  24.187   4.721
89910W        W53854  43.407   7.854  14.346
89911W        W53855  16.670   0.912   3.770
89912W        W53856   2.724  15.235  11.892
89913W        W53857  24.208  39.896  12.968
89914W        W53858  34.391  34.547   3.281
89915W        W53859  21.573  12.788  11.988
89916W        W53860  43.502  44.839   0.956
89917W        W53861  13.671  23.173  13.919
89918W        W53862   0.865  26.600  14.516
89919W        W53863  22.112  13.224  13.329
89920W        W53864   6.845   8.171   4.717
89921W        W53865   9.704  36.987  10.461
89922W        W53866  20.094   6.207  10.607
89923W        W53867  27.675  10.291   0.350
89924W        W53868   7.362  30.580  13.798
89925W        W53869  43.976   7.895  10.527
89926W        W53870  30.446  20.733   4.117
89927W        W53871   6.366  39.944   4.161
89928W        W53872  34.934  22.217  11.436
89929W        W53873   8.791  20.737  12.453
89930W        W53874  38.557  25.028   1.419
89931W        W53875  29.059  20.670   0.744
89932W        W53876   9.328  13.830  11.915
89933W        W53877  43.967  35.529   2.801
89934W        W53878   6.722  33.537  12.943
89935W        W53879  19.246  24.227  12.487
89936W        W53880  15.679  14.729  14.018
89937W        W53881   0.477  43.886  13.944
89938W        W53882  20.069   3.264   2.268
89939W        W53883  19.759  32.900  13.832
89940W        W53884  41.305  39.064  13.481
89941W        W53885  18.132  41.405   4.706
89942W        W53886  12.351  37.519  14.441
89943W        W53887  10.228  40.522   3.355
89944W        W53888   8.381  15.238   2.746
89945W        W53889  28.182   8.297  12.886
89946W        W53890   0.399  39.899  14.901
89947W        W53891  25.043  39.051   0.746
89948W        W53892  36.560  16.164  11.110
89949W        W53893  13.327  42.798   1.766
89950W        W53894  14.784  12.123  14.929
89951W        W53895   4.943  39.005   4.687
89952W        W53896  39.001   1.316   3.329
89953W        W53897  18.587  11.813   1.362
89954W        W53898  35.428   5.260   0.420
89955W        W53899  44.415  33.397  14.801
89956W        W53900  22.598  15.155   1.369
89957W        W53901  10.635   1.247   2.695
89958W        W53902  27.004   6.868  12.490
89959W        W53903  41.436   5.219   9.943
89960W        W53904  38.993   9.697  13.047
89961W        W53905  26.204   9.888  11.611
89962W        W53906  20.553  26.527   2.322
89963W        W53907  25.967  16.108   0.810
89964W        W53908  35.001  42.458   3.250
89965W        W53909  38.536   5.393   3.277
89966W        W53910   6.818  34.412  11.589
89967W        W53911  14.195  43.842  13.450
89968W        W53912  43.453  29.954   2.315
89969W        W53913  34.023   5.923   1.860
89970W        W53914  30.162  16.796   2.327
89971W        W53915  15.616  43.916   1.227
89972W        W53916  24.526  44.302   0.939
89973W        W53917  20.719   1.964   0.408
89974W        W53918  31.436   6.893  11.600
89975W        W53919  32.456   6.302  14.028
89976W        W53920  22.710   0.328   4.257
89977W        W53921  22.204  36.980  11.530
89978W        W53922  24.037  41.799  11.951
89979W        W53923  17.586  18.247  13.938
89980W        W53924  25.707   9.169   0.406
89981W        W53925  30.078  42.883   0.439
89982W        W53926  27.539   3.731   3.798
89983W        W53927  43.889  16.244  11.586
89984W        W53928  26.101  39.353   3.826
89985W        W53929  22.634   8.698  12.509
89986W        W53930   8.790  10.683  14.414
89987W        W53931  20.078  31.930  13.476
89988W        W53932  43.956  43.805  12.504
89989W        W53933  40.925  18.133   1.695
89990W        W53934  14.633  23.611  14.959
89991W        W53935  25.988  31.542  14.343
89992W        W53936  41.957  13.633  12.388
89993W        W53937  26.506  26.651  13.385
89994W        W53938  14.592  43.019   4.328
89995W        W53939  33.482  42.785   0.818
89996W        W53940  30.919  13.835   1.350
89997W        W53941  42.981  37.511  14.020
89998W        W53942  13.802  32.551   5.227
89999W        W53943  30.937  28.026   0.309
90000W        W53944   8.674  37.995  13.869
90001W        W53945  24.119  28.177   9.960
90002W        W53946  31.000  16.130   4.709
90003W        W53947  39.390   1.740  11.402
90004W        W53948  29.639  31.560  13.395
90005W        W53949  28.552  31.006  14.506
90006W        W53950   7.770  35.489  12.828
90007W        W53951  44.909  17.754   0.893
90008W        W53952  38.451  17.757  14.442
90009W        W53953  18.201  29.940  12.472
90010W        W53954  26.481   4.712  12.001
90011W        W53955  13.792  20.634  12.918
90012W        W53956   5.216   3.250  10.967
90013W        W53957  41.442  38.891   1.304
90014W        W53958   9.831   3.461  14.017
90015W        W53959  28.564  26.114   4.270
90016W        W53960  34.511  40.869   4.774
90017W        W53961  17.578  19.276   0.915
90018W        W53962  11.640  34.546   2.262
90019W        W53963  35.971  32.952  14.898
90020W        W53964  15.293  32.088   0.389
90021W        W53965  19.080  29.013   0.878
90022W        W53966  32.597  18.778   1.413
90023W        W53967   3.435  11.621  13.541
90024W        W53968  37.345   3.858  10.914
90025W        W53969  20.139  12.612   0.476
90026W        W53970  29.960  43.401   1.746
90027W        W53971  32.958  12.821  12.519
90028W        W53972  13.113  26.973  10.901
90029W        W53973  42.860   3.864   5.124
90030W        W53974  28.062   4.745  14.937
90031W        W53975  33.422   2.311  14.963
90032W        W53976  29.472  15.171  13.429
90033W        W53977  36.441  22.213   1.915
90034W        W53978   2.440  16.733   3.745
90035W        W53979  28.452   0.986   2.852
90036W        W53980  27.631   1.425  11.914
90037W        W53981  14.751  27.191   4.263
90038W        W53982  25.023  37.943  14.954
90039W        W53983  23.144  20.656  14.894
90040W        W53984  31.935  36.480   4.640
90041W        W53985  35.086   9.661  10.912
90042W        W53986   0.891  30.136   4.700
90043W        W53987  27.518  25.487  12.431
90044W        W53988  25.613  15.191  12.040
90045W        W53989  37.356  39.907   1.916
90046W        W53990   2.847  15.095  12.455
90047W        W53991   8.809  18.545  11.057
90048W        W53992  19.076   4.316  11.374
90049W        W53993  39.408  24.201   3.264
90050W        W53994  10.816  26.991   4.348
90051W        W53995   7.228  14.160  11.467
90052W        W53996  33.011  25.186   0.382
90053W        W53997   3.937   8.392   2.183
90054W        W53998  19.652  17.246   3.670
90055W        W53999   6.264  28.558  14.274
90056W        W54000  25.471  39.520   4.346
90057W        W54001  24.630  40.957   2.866
90058W        W54002   2.893  26.654  11.457
90059W        W54003  34.003   0.818  14.933
90060W        W54004  35.026  38.379  14.844
90061W        W54005  42.782  19.234  12.516
90062W        W54006  38.822   3.223  12.903
90063W        W54007   3.936  38.945   4.767
90064W        W54008  39.823  33.015  14.801
90065W        W54009  32.433  16.191  14.830
90066W        W54010  22.056  24.100   0.292
90067W        W54011   8.211  42.946  10.998
90068W        W54012   9.763  43.275   2.288
90069W        W54013  24.564   4.737  13.865
90070W        W54014   5.263   0.370  14.881
90071W        W54015  11.283   0.894  11.964
90072W        W54016  15.147   2.462   5.322
90073W        W54017   9.230  21.748  13.008
90074W        W54018  25.535  39.027   2.400
90075W        W54019  23.731  12.213  13.912
90076W        W54020  34.466  21.758  12.864
90077W        W54021  33.985  35.489   0.298
90078W        W54022  26.955   9.262   0.474
90079W        W54023  25.970   3.835   4.597
90080W        W54024  42.837   9.318  13.826
90081W        W54025  14.753  35.861   3.283
90082W        W54026   8.329  36.854   0.750
90083W        W54027  33.883  44.416  14.862
90084W        W54028  33.886  35.095  14.858
90085W        W54029  12.252  44.472   0.478
90086W        W54030   1.791  16.175  11.491
90087W        W54031   6.682   2.398   3.360
90088W        W54032  25.988  15.640  13.880
90089W        W54033  37.478  18.591  13.935
90090W        W54034  21.683  25.069   2.400
90091W        W54035  39.935  42.526   0.898
90092W        W54036  35.950  33.476   4.205
90093W        W54037  28.964  20.755  11.095
90094W        W54038   6.918  17.598  11.092
90095W        W54039  40.439  37.975  11.476
90096W        W54040   6.425  29.166   0.386
90097W        W54041  36.459  38.532  14.964
90098W        W54042  14.631  41.371   4.797
90099W        W54043  18.125   1.374   2.268
90100W        W54044  17.167  35.879   2.222
90101W        W54045  18.238  22.208  10.501
90102W        W54046  27.004  24.551   1.411
90103W        W54047  20.122   5.803  12.078
90104W        W54048  43.331  32.975  14.953
90105W        W54049  43.003   4.316   0.420
90106W        W54050  32.911  42.919   3.708
90107W        W54051  12.323  41.410   0.811
90108W        W54052  32.478  22.144  14.481
90109W        W54053  30.152  11.129  11.071
90110W        W54054  28.459  13.636   4.303
90111W        W54055   6.401  43.956  13.310
90112W        W54056  20.603  17.686  11.055
90113W        W54057  33.952  19.170   1.331
90114W        W54058   7.691  18.063  11.597
90115W        W54059  41.469  37.956  12.487
90116W        W54060   0.248  28.972  12.569
90117W        W54061  34.870  42.843   3.185
90118W        W54062  37.377  11.677  12.520
90119W        W54063   3.908  22.192  13.865
90120W        W54064  40.494  27.539  13.964
90121W        W54065   1.411  44.942   1.738
90122W        W54066  18.763   5.919   1.698
90123W        W54067   9.837   5.895  11.935
90124W        W54068   6.348   4.400   4.236
90125W        W54069   0.308  17.583  10.408
90126W        W54070  25.106  24.104  14.310
90127W        W54071   7.393   6.420  13.409
90128W        W54072  28.116  21.047   0.360
90129W        W54073  44.963  24.101  11.397
90130W        W54074  17.615  44.321  14.453
90131W        W54075   0.788  26.604  11.927
90132W        W54076  21.062  44.352   0.922
90133W        W54077   4.866  22.188   4.679
90134W        W54078  23.112  44.462  11.581
90135W        W54079  11.225  15.201   0.846
90136W        W54080   3.763  17.708  13.817
90137W        W54081   6.258  41.493  12.007
90138W        W54082  43.446   7.242   4.245
90139W        W54083  17.189  12.320  14.444
90140W        W54084  40.378   2.922   0.308
90141W        W54085  39.375  28.036  14.476
90142W        W54086  21.630  10.243   0.889
90143W        W54087  18.149   7.834  14.823
90144W        W54088  37.470   7.274   2.762
90145W        W54089  18.147  24.978  14.865
90146W        W54090  39.357  10.637   3.158
90147W        W54091  17.706  15.102   2.763
90148W        W54092  30.629  26.102  11.420
90149W        W54093  27.548  29.158  11.005
90150W        W54094  29.572  42.437   0.249
90151W        W54095  12.293  40.895   2.850
90152W        W54096  20.128  39.043   1.293
90153W        W54097   6.338  14.715   2.886
90154W        W54098  20.722   4.390   3.860
90155W        W54099  39.384  44.459   1.437
90156W        W54100   8.859   4.824  11.460
90157W        W54101  22.158  13.318   4.285
90158W        W54102  17.635  26.678   0.837
90159W        W54103  43.841  36.956  13.486
90160W        W54104   9.808  19.258   2.893
90161W        W54105   6.223   5.836  13.829
90162W        W54106  25.477  31.018   1.722
90163W        W54107   3.764   3.729   2.745
90164W        W54108   1.388  41.014   3.303
90165W        W54109   3.794  30.597  10.058
90166W        W54110  32.503  27.038  14.989
90167W        W54111  30.472  33.927  13.390
90168W        W54112  17.716   7.888  14.023
90169W        W54113   6.888  12.270   3.240
90170W        W54114  13.193  35.956  10.051
90171W        W54115  12.621  43.391  13.814
90172W        W54116  37.952  12.809   2.847
90173W        W54117  25.096  18.776   4.312
90174W        W54118  41.983  20.247  11.941
90175W        W54119  42.438   8.706   1.373
90176W        W54120  15.680  22.561  12.468
90177W        W54121  20.547  29.960  11.125
90178W        W54122  17.141  10.329   3.251
90179W        W54123   2.446  15.116   0.277
90180W        W54124  38.342  38.545  10.561
90181W        W54125   8.714  32.407  11.047
90182W        W54126  25.669  11.692   4.326
90183W        W54127  25.040  32.940  11.106
90184W        W54128  14.120  12.165   0.950
90185W        W54129  41.815  18.254  13.912
90186W        W54130  28.006  10.789   4.288
90187W        W54131  13.192  41.414  10.503
90188W        W54132   5.812  30.470  11.384
90189W        W54133  14.252   8.868  10.499
90190W        W54134  26.501  30.638  11.909
90191W        W54135  39.918  16.785   4.805
90192W        W54136  14.765  41.395   3.826
90193W        W54137  19.775  31.963   5.100
90194W        W54138  18.062   2.294  11.957
90195W        W54139   1.369   2.467   2.677
90196W        W54140  14.114   9.248   3.168
90197W        W54141  34.968  17.097   1.739
90198W        W54142  12.742  42.941   2.901
90199W        W54143  25.548  18.056   1.730
90200W        W54144  11.319  18.570   4.291
90201W        W54145   1.918  10.835  12.975
90202W        W54146  33.403  38.023   1.846
90203W        W54147   4.435  44.426   2.825
90204W        W54148  33.097  18.242   0.804
90205W        W54149   5.263   5.759  10.963
90206W        W54150  15.320  36.519   2.196
90207W        W54151  19.730   9.669  12.416
90208W        W54152  27.166  33.564  14.900
90209W        W54153  25.490  42.863   3.689
90210W        W54154  41.388  36.366  10.980
90211W        W54155  23.602  36.498  11.600
90212W        W54156   3.271  19.242  13.834
90213W        W54157  12.611  41.002  12.545
90214W        W54158   4.398  37.864   4.690
90215W        W54159  44.479  19.560   5.175
90216W        W54160   1.844   9.150  11.861
90217W        W54161  24.517  34.372   1.319
90218W        W54162  24.483  17.096  11.424
90219W        W54163  43.340  36.954  13.473
90220W        W54164   8.900  21.046  14.476
90221W        W54165  37.881  32.067   2.873
90222W        W54166  44.290   4.745  13.976
90223W        W54167  37.007   6.696   4.283
90224W        W54168  30.991  10.232   4.707
90225W        W54169  39.044  10.753  12.354
90226W        W54170  40.877   3.442   3.679
90227W        W54171  33.401  26.146  11.413
90228W        W54172  15.760   6.423  12.948
90229W        W54173  39.850  30.001   2.876
90230W        W54174  27.575   3.806  13.802
90231W        W54175  43.853   4.303   2.380
90232W        W54176  15.769  40.863   3.821
90233W        W54177  25.470   1.861  14.006
90234W        W54178  17.765  29.551   3.716
90235W        W54179  34.593   8.330   4.762
90236W        W54180  34.889   3.720  10.998
90237W        W54181  27.995  10.724   3.845
90238W        W54182  22.508  24.032   2.850
90239W        W54183  10.300  29.935  11.065
90240W        W54184  43.276   2.880  12.917
90241W        W54185  29.023  18.646  13.841
90242W        W54186  32.108  16.234  14.410
90243W        W54187  32.612   9.691   1.341
90244W        W54188  11.702  10.832   4.268
90245W        W54189  35.985   0.835   4.758
90246W        W54190  40.909  11.137   2.754
90247W        W54191  13.680  35.011  13.016
90248W        W54192  42.335   9.355   2.771
90249W        W54193  37.044  44.950  14.512
90250W        W54194  30.122  26.180  10.512
90251W        W54195  10.313   0.900   2.770
90252W        W54196  24.193  17.585  12.437
90253W        W54197  28.033  37.967   2.389
90254W        W54198  28.457  30.613   3.292
90255W        W54199  23.706  35.505  14.463
90256W        W54200  10.867  39.862   1.795
90257W        W54201   2.257  17.162  11.516
90258W        W54202  41.978  36.949   4.272
90259W        W54203  10.206   8.196  14.951
90260W        W54204  21.705  14.129  12.483
90261W        W54205  21.131  28.001   0.281
90262W        W54206  37.969  44.480  11.065
90263W        W54207   8.234  38.436  13.325
90264W        W54208  30.462   5.871   1.231
90265W        W54209   3.388  16.701  14.496
90266W        W54210  32.131  18.214  11.013
90267W        W54211   3.753  22.652  11.126
90268W        W54212   6.700  42.983   2.896
90269W        W54213   8.355  16.210  14.405
90270W        W54214  42.397  41.420   0.355
90271W        W54215  27.635  23.051  10.895
90272W        W54216  28.557  37.949  12.444
90273W        W54217  24.027   5.903  14.451
90274W        W54218  14.767  16.140   1.739
90275W        W54219   4.768  36.028  11.962
90276W        W54220  39.007   0.282   0.754
90277W        W54221   6.373  39.427   3.333
90278W        W54222  13.790  36.492   3.215
90279W        W54223   5.375   5.845  11.980
90280W        W54224   3.840  29.063   4.622
90281W        W54225   3.861  16.238   3.195
90282W        W54226  18.115   5.318  13.941
90283W        W54227  44.393   5.302   2.817
90284W        W54228  28.130  11.708  14.771
90285W        W54229   6.705  12.168   2.794
90286W        W54230  25.686  41.378   4.729
90287W        W54231  10.355  42.394  14.825
90288W        W54232  10.251   7.328  13.001
90289W        W54233   6.874  31.610   4.628
90290W        W54234  44.368  32.917  14.323
90291W        W54235  12.683  41.888  11.059
90292W        W54236  36.529  42.830   3.803
90293W        W54237  40.912  27.991  14.287
90294W        W54238   6.372   8.844  14.976
90295W        W54239  40.944  35.358  12.855
90296W        W54240  21.576  21.068   0.450
90297W        W54241  12.674  25.204  12.361
90298W        W54242  10.741  36.907   4.742
90299W        W54243  19.558  14.181  12.055
90300W        W54244  11.698  23.053   2.772
90301W        W54245  39.508   0.981   0.905
90302W        W54246  35.015  12.739  12.012
90303W        W54247  34.962  27.458   0.451
90304W        W54248  30.070  38.953   5.266
90305W        W54249  33.886  25.185   3.201
90306W        W54250  40.310  19.616   4.758
90307W        W54251   7.336  39.527   1.741
90308W        W54252  34.610  30.561  14.992
90309W        W54253  11.357   9.700   0.871
90310W        W54254   6.399  34.897  13.039
90311W        W54255  10.308   7.814  13.329
90312W        W54256  40.051  36.061  12.471
90313W        W54257  20.677  42.405   0.475
90314W        W54258  41.859  12.776   0.463
90315W        W54259  43.462  14.738  12.898
90316W        W54260  10.818   6.241   3.260
90317W        W54261  17.633  28.139   1.859
90318W        W54262  22.620  14.109  14.331
90319W        W54263  30.589  21.251   1.918
90320W        W54264  40.980   7.760  12.889
90321W        W54265   5.701  19.232  14.004
90322W        W54266   1.262  14.164  14.004
90323W        W54267   8.217   9.824  11.860
90324W        W54268   1.395   7.682   4.189
90325W        W54269  17.189  21.599   3.866
90326W        W54270   2.405  30.018   1.878
90327W        W54271  13.283  27.454  14.777
90328W        W54272  33.882   2.843  11.043
90329W        W54273  16.607  11.255   5.649
90330W        W54274   0.895  43.912  11.960
90331W        W54275  32.590  42.450  11.611
90332W        W54276  22.568   0.774   0.906
90333W        W54277  10.290  17.757   4.599
90334W        W54278  26.605  25.180  11.424
90335W        W54279  12.362   8.177  13.517
90336W        W54280  13.159  12.840   3.218
90337W        W54281  34.374  17.272  12.997
90338W        W54282  38.876  40.543   3.207
90339W        W54283  24.622  20.757  10.574
90340W        W54284  27.529  37.002  13.922
90341W        W54285  39.551  43.284  11.606
90342W        W54286  14.597  28.093  13.930
90343W        W54287   6.887  42.512  13.362
90344W        W54288   6.751  27.553  13.538
90345W        W54289  35.575  20.607  13.505
90346W        W54290   1.278   9.155   2.768
90347W        W54291  13.620  17.226  13.899
90348W        W54292  44.933  16.715   3.344
90349W        W54293  33.109  24.085   1.378
90350W        W54294  35.512  40.890  14.983
90351W        W54295  22.539  21.087  10.435
90352W        W54296  16.739  38.368  13.336
90353W        W54297  33.062  33.930   1.859
90354W        W54298  34.926  13.684  12.984
90355W        W54299  31.085  21.604  12.444
90356W        W54300  15.783  10.302  14.386
90357W        W54301  26.152  23.718  10.532
90358W        W54302  42.407  33.097   0.273
90359W        W54303  28.039  22.084  12.454
90360W        W54304  26.605  21.713  13.386
90361W        W54305  18.239   5.917   1.260
90362W        W54306  33.881  12.673  11.964
90363W        W54307  43.000   7.231   3.730
90364W        W54308  13.839  42.985   3.788
90365W        W54309   6.914  22.519  10.483
90366W        W54310  35.448  23.239   0.423
90367W        W54311  40.047   7.179  13.422
90368W        W54312  37.062  29.495  10.448
90369W        W54313   6.188   4.818   1.913
90370W        W54314  11.254  22.738  10.448
90371W        W54315  41.516   6.895  14.853
90372W        W54316  42.857  32.438  10.578
90373W        W54317   2.945  34.075   2.304
90374W        W54318  20.530  23.530   3.168
90375W        W54319  30.455  18.596  12.561
90376W        W54320  25.512  27.528  14.974
90377W        W54321  28.613  14.257   0.255
90378W        W54322  10.160  20.644   2.672
90379W        W54323  24.650  23.147  14.973
90380W        W54324  14.720  36.504   3.711
90381W        W54325  36.894  37.063  12.048
90382W        W54326  31.520  30.500  10.900
90383W        W54327  13.350  15.612   2.399
90384W        W54328  33.419  26.569  11.880
90385W        W54329  43.311  25.496   4.187
90386W        W54330  26.978  11.852   2.893
90387W        W54331  37.515  37.368   3.150
90388W        W54332   6.282   0.862   3.198
90389W        W54333  30.623  21.024  12.403
90390W        W54334  26.016  27.502  13.970
90391W        W54335  40.958  21.115   3.853
90392W        W54336  22.164  35.066   0.324
90393W        W54337   7.245  33.043   4.199
90394W        W54338  21.243  10.234   3.805
90395W        W54339   2.833   5.408   1.329
90396W        W54340  28.577  25.204   1.824
90397W        W54341  24.008  12.731   5.302
90398W        W54342  17.160  32.620   3.236
90399W        W54343  23.114  43.307  13.829
90400W        W54344   2.855   0.441  12.925
90401W        W54345  11.649  24.548  13.805
90402W        W54346  42.446  14.775   0.804
90403W        W54347  41.366  37.959  11.128
90404W        W54348   8.258   3.941   0.346
90405W        W54349  20.573  44.474  13.041
90406W        W54350  22.522   6.233  14.765
90407W        W54351  32.978  37.070  13.413
90408W        W54352  29.136   4.266   0.271
90409W        W54353  44.395  19.162   1.761
90410W        W54354  33.891  43.325  11.469
90411W        W54355  11.161  32.555   1.335
90412W        W54356  15.286  23.086   5.707
90413W        W54357  26.977   7.910   0.307
90414W        W54358   9.270  12.697  12.079
90415W        W54359  20.242   2.418  13.810
90416W        W54360  29.634  18.737   2.349
90417W        W54361  39.358  42.431  11.527
90418W        W54362  26.507  10.764   2.856
90419W        W54363  34.969   9.329   4.679
90420W        W54364  36.064  13.333  13.982
90421W        W54365  43.394  10.152  12.523
90422W        W54366  29.503  44.358  12.015
90423W        W54367  11.652  18.086   2.742
90424W        W54368  29.016  35.420  13.414
90425W        W54369  25.710  32.068   0.301
90426W        W54370  14.313  44.934   3.378
90427W        W54371  30.969   9.376   4.670
90428W        W54372  16.091  32.521  12.842
90429W        W54373   6.338  34.098  14.355
90430W        W54374  19.719   4.836  13.487
90431W        W54375  41.962   4.911   1.303
90432W        W54376  32.032  12.738  12.925
90433W        W54377  14.688   5.808   1.766
90434W        W54378  24.225  10.159  10.148
90435W        W54379  28.495  38.035   0.456
90436W        W54380  37.524   8.169  13.043
90437W        W54381  20.713   7.679  13.910
90438W        W54382  41.035  22.047  13.485
90439W        W54383  24.510  43.793  12.910
90440W        W54384  18.123  29.077  14.965
90441W        W54385  21.025   3.932  11.582
90442W        W54386  10.738  20.713   2.667
90443W        W54387  14.591  30.144  13.053
90444W        W54388  31.534  16.254  13.029
90445W        W54389  29.447   5.244   4.207
90446W        W54390   3.246   5.377   3.291
90447W        W54391   1.423   5.268  12.823
90448W        W54392  22.730  35.025  11.441
90449W        W54393  44.772  33.512   9.998
90450W        W54394  14.636  29.076   0.450
90451W        W54395   4.431  26.196   3.298
90452W        W54396  41.358  15.803   9.941
90453W        W54397  33.604   9.815   3.173
90454W        W54398  23.089  38.856  12.549
90455W        W54399   0.916  11.712   5.279
90456W        W54400  23.694  17.149   4.291
90457W        W54401  39.829  21.083  12.468
90458W        W54402   6.323  18.570  12.528
90459W        W54403  41.383  33.940   1.769
90460W        W54404  22.239  30.603   1.331
90461W        W54405   6.350  44.485  11.017
90462W        W54406  15.263   6.921   5.138
90463W        W54407  30.590   1.419  10.564
90464W        W54408  37.559  33.610  10.589
90465W        W54409  33.015  27.155  13.964
90466W        W54410   5.807  33.455   2.405
90467W        W54411  15.761  29.559  14.783
90468W        W54412   2.234  30.094   1.335
90469W        W54413   2.442  34.535   2.349
90470W        W54414  15.166  26.993  11.468
90471W        W54415  32.918   9.692   4.816
90472W        W54416   9.390  41.874   1.351
90473W        W54417  42.794  21.261   3.386
90474W        W54418  26.057  42.972  12.964
90475W        W54419  18.685  42.912  10.498
90476W        W54420  12.690  18.132  11.532
90477W        W54421   6.889  15.212   2.391
90478W        W54422   2.952  33.924   3.321
90479W        W54423  26.123  34.465  11.491
90480W        W54424   5.429  33.103  13.488
90481W        W54425  36.982  30.922  12.377
90482W        W54426  41.352  16.744   2.261
90483W        W54427  19.228  13.650  10.979
90484W        W54428  21.532  34.467  11.503
90485W        W54429  17.692  32.964   1.848
90486W        W54430  28.062  44.479   4.231
90487W        W54431  11.216  29.169   2.260
90488W        W54432  19.738   9.740   1.403
90489W        W54433  39.501  26.182   4.718
90490W        W54434  21.586   6.789   3.215
90491W        W54435   1.773  29.137  14.968
90492W        W54436  21.037   2.915   2.754
90493W        W54437  30.483  10.217  14.870
90494W        W54438   0.809  23.131   2.846
90495W        W54439  37.947  19.125  12.515
90496W        W54440  38.498  21.525   0.727
90497W        W54441  25.214  26.171  11.950
90498W        W54442  24.087  27.034  13.848
90499W        W54443  12.336  43.895  11.913
90500W        W54444  42.470  26.519  11.465
90501W        W54445  20.143  12.756  11.039
90502W        W54446  30.930  11.365  14.450
90503W        W54447  13.164   4.778  13.536
90504W        W54448  11.699  21.664   0.960
90505W        W54449   4.293  22.243   2.274
90506W        W54450  39.489  34.921   1.762
90507W        W54451   9.371  18.073   4.671
90508W        W54452  41.300  16.206  12.909
90509W        W54453  28.081  12.197   4.313
90510W        W54454  25.571  24.533   0.440
90511W        W54455  27.673  41.859  11.946
90512W        W54456  39.457  21.228   0.377
90513W        W54457   1.952  33.613  14.429
90514W        W54458   5.370  38.471  14.306
90515W        W54459   6.294   6.288  12.418
90516W        W54460  38.394  43.773   1.323
90517W        W54461   4.937  40.455   1.913
90518W        W54462  34.056  38.913  12.986
90519W        W54463  38.009  20.583  11.933
90520W        W54464   2.321   0.434  13.844
90521W        W54465   4.418  14.322   4.244
90522W        W54466  14.709  10.157  13.982
90523W        W54467  24.664  32.128   2.799
90524W        W54468  30.481  16.273  13.316
90525W        W54469  41.832  36.848   2.669
90526W        W54470  24.627  23.219   3.805
90527W        W54471  33.929  23.535   3.265
90528W        W54472  14.105  29.159  13.489
90529W        W54473   6.360  29.432   1.900
90530W        W54474  32.508  25.038   0.800
90531W        W54475   0.844  32.071  13.322
90532W        W54476  24.172  30.937  12.843
90533W        W54477  15.239  37.047  14.985
90534W        W54478   2.262  37.537  14.836
90535W        W54479  21.544  11.822   1.361
90536W        W54480   7.314  39.869   2.180
90537W        W54481  16.158  16.624   1.273
90538W        W54482  39.884  22.725  11.903
90539W        W54483  31.011  20.099  12.919
90540W        W54484   4.832  41.930   1.438
90541W        W54485   9.864  33.989  14.468
90542W        W54486  25.073  16.723  10.044
90543W        W54487  31.513  19.106   4.215
90544W        W54488  12.194  44.916  10.909
90545W        W54489  38.830   2.399   1.330
90546W        W54490  39.914   4.703  14.803
90547W        W54491  39.925  23.008  10.494
90548W        W54492   2.881   4.879   0.417
90549W        W54493  21.557   4.204  11.939
90550W        W54494   6.877  31.601   3.376
90551W        W54495  38.560   3.300   1.927
90552W        W54496  34.466  34.025   2.349
90553W        W54497  12.774  11.828   3.260
90554W        W54498  37.868  12.269   0.430
90555W        W54499  21.198  27.130   4.597
90556W        W54500  17.292  37.916   3.303
90557W        W54501   2.827  34.877   3.821
90558W        W54502   1.377  15.596   1.348
90559W        W54503  32.582   9.195  13.420
90560W        W54504  15.818  16.637   1.301
90561W        W54505   1.796   9.365  10.613
90562W        W54506  28.056   1.398   1.891
90563W        W54507  17.776  35.539   3.216
90564W        W54508   8.398  34.380   2.663
90565W        W54509  36.937  35.029   4.762
90566W        W54510  42.413  40.436   0.321
90567W        W54511  43.819   5.406  11.967
90568W        W54512  19.647  10.875  12.935
90569W        W54513   4.941   2.336   0.322
90570W        W54514  44.322  25.084   0.252
90571W        W54515  10.267  22.059   4.230
90572W        W54516  43.904   1.481   1.831
90573W        W54517  11.859  44.915   3.747
90574W        W54518   8.403  17.113   3.259
90575W        W54519  35.417  36.031  11.003
90576W        W54520   7.252  31.079   3.690
90577W        W54521  13.747  41.799  10.551
90578W        W54522  21.191  38.335   4.210
90579W        W54523   8.233  14.328  14.410
90580W        W54524  42.998  24.071   2.375
90581W        W54525  27.613  14.804   1.786
90582W        W54526  32.575  37.355   2.314
90583W        W54527   1.823   9.673  11.976
90584W        W54528   0.394  36.051  12.442
90585W        W54529  40.481  31.624   1.284
90586W        W54530   4.703   0.262  14.435
90587W        W54531   1.734   4.268  10.416
90588W        W54532  32.039  13.182   3.272
90589W        W54533  36.942  11.321  10.416
90590W        W54534  31.601   9.379  13.878
90591W        W54535  11.217  38.040  12.863
90592W        W54536  27.570  23.112   2.197
90593W        W54537  39.529  18.213   2.271
90594W        W54538   4.869  30.104  11.028
90595W        W54539  36.923  26.008  11.984
90596W        W54540  23.144  39.400   0.326
90597W        W54541  23.723   7.331  13.928
90598W        W54542   4.783  36.056   2.747
90599W        W54543  42.834   7.666  11.532
90600W        W54544  44.995   8.401  14.026
90601W        W54545  32.083  43.838  11.082
90602W        W54546  30.572  44.359  14.355
90603W        W54547  34.025   4.927   0.885
90604W        W54548  42.955  38.388   3.766
90605W        W54549  25.100  12.640   4.173
90606W        W54550  22.189  22.213  13.873
90607W        W54551   5.354  26.019  13.500
90608W        W54552   0.917  38.571   2.845
90609W        W54553  13.694  31.951   4.277
90610W        W54554  16.222  43.278   1.830
90611W        W54555  15.133   6.717  13.372
90612W        W54556  18.705  17.641   2.724
90613W        W54557   6.793  25.638  14.991
90614W        W54558  14.202   7.396   4.150
90615W        W54559  33.925   6.718  10.543
90616W        W54560  27.579  28.672  11.530
90617W        W54561   7.783   3.354  10.583
90618W        W54562  44.324  37.052   1.828
90619W        W54563  31.496  33.120   3.818
90620W        W54564  37.895  39.364   2.397
90621W        W54565  21.161  13.190  14.397
90622W        W54566  22.737   6.231  12.870
90623W        W54567  13.204   6.200  13.457
90624W        W54568  12.350  16.674   5.653
90625W        W54569  26.188  12.264  10.940
90626W        W54570  26.540  23.493   4.260
90627W        W54571  11.128  35.449   0.795
90628W        W54572  24.014  26.586   0.799
90629W        W54573  22.044   0.870  10.633
90630W        W54574  35.370  32.631   1.835
90631W        W54575  15.223  28.484   3.674
90632W        W54576  39.432   9.889  12.843
90633W        W54577  13.702  30.935  12.986
90634W        W54578  27.150  31.932   0.439
90635W        W54579  13.326  14.321  12.860
90636W        W54580  41.810  38.056  12.854
90637W        W54581  40.343  25.580  13.422
90638W        W54582  19.581  31.022  10.541
90639W        W54583   1.419  17.255  13.497
90640W        W54584   0.369  19.232   1.708
90641W        W54585  12.801  38.936   0.768
90642W        W54586  33.884  33.578   4.157
90643W        W54587  10.662  41.800   4.633
90644W        W54588  23.653  10.229  10.941
90645W        W54589   6.791   0.945   0.393
90646W        W54590  21.237  39.410  14.782
90647W        W54591  41.458  14.179   1.759
90648W        W54592  17.079  37.010  10.477
90649W        W54593  28.079  44.421   1.215
90650W        W54594  43.449  24.121  11.035
90651W        W54595  43.329  42.340  13.440
90652W        W54596  15.664  11.821   9.940
90653W        W54597  44.497  26.587  14.443
90654W        W54598   4.828  35.946  10.547
90655W        W54599   4.236  26.996  13.364
90656W        W54600  33.551  24.488  12.489
90657W        W54601   5.280  13.221   3.258
90658W        W54602  43.940  14.651   4.254
90659W        W54603  37.425   9.374   4.783
90660W        W54604  26.033  38.330   0.914
90661W        W54605  15.327   8.321  10.038
90662W        W54606   3.754   1.866  11.979
90663W        W54607  23.571  43.944  13.999
90664W        W54608  30.100  34.043  14.868
90665W        W54609  41.391   9.702  10.918
90666W        W54610  36.906  26.150  10.950
90667W        W54611  38.431  30.518  10.934
90668W        W54612  37.395  38.941  11.062
90669W        W54613  39.957  40.867  12.934
90670W        W54614  20.596  36.508  10.585
90671W        W54615  27.457   1.316  14.826
90672W        W54616  44.407  17.104   2.306
90673W        W54617   7.882  10.347  12.547
90674W        W54618   3.880   6.765   4.279
90675W        W54619   1.251  13.834  14.836
90676W        W54620  14.745  35.433  13.800
90677W        W54621  31.914  13.345  12.072
90678W        W54622  14.647  13.165  10.535
90679W        W54623  11.767   8.861   0.870
90680W        W54624  30.528  29.048   1.385
90681W        W54625  27.463  38.495  10.959
90682W        W54626  22.628  33.420   0.934
90683W        W54627  44.897  32.134  10.578
90684W        W54628   1.940  40.944  14.380
90685W        W54629  42.957  10.318  14.283
90686W        W54630   2.408  39.858   3.708
90687W        W54631   3.734  15.728   4.750
90688W        W54632  29.620   3.711  14.910
90689W        W54633   8.835  20.615   0.870
90690W        W54634  40.346  10.195  12.906
90691W        W54635   9.767  44.913  10.625
90692W        W54636  27.124  20.154   1.922
90693W        W54637  26.090   8.317   1.806
90694W        W54638  16.613  21.194  11.577
90695W        W54639  39.399   1.306   9.945
90696W        W54640  35.859   4.798   2.868
90697W        W54641  22.206  28.554   2.415
90698W        W54642  42.510  15.631   1.426
90699W        W54643   2.920  20.625   2.757
90700W        W54644  29.588  32.594  13.992
90701W        W54645  37.048  39.910   3.794
90702W        W54646  15.738  41.423  11.989
90703W        W54647  34.942  20.170   3.830
90704W        W54648  41.536  22.090   4.747
90705W        W54649   4.270  40.320  13.472
90706W        W54650  13.837  40.547  14.431
90707W        W54651  13.113  13.709   3.734
90708W        W54652  16.318  40.365   2.680
90709W        W54653  28.439   1.871  13.352
90710W        W54654  27.996  20.641   9.992
90711W        W54655  31.604  39.375  11.029
90712W        W54656  39.458  43.457   1.916
90713W        W54657  34.940   6.851   0.862
90714W        W54658  12.330  27.035   0.737
90715W        W54659   2.251  24.067  12.440
90716W        W54660  28.646  26.001  12.996
90717W        W54661   8.294  10.302   4.306
90718W        W54662  24.666   5.854  12.493
90719W        W54663  26.092  22.605   1.935
90720W        W54664  31.115  18.157   5.160
90721W        W54665  27.066   5.778   2.414
90722W        W54666  43.293  14.680   1.792
90723W        W54667  18.687  32.576   2.749
90724W        W54668  27.104  29.452   3.209
90725W        W54669  16.748   8.247  10.900
90726W        W54670  31.439  12.207  12.416
90727W        W54671  28.083  18.717  13.904
90728W        W54672   3.875  10.337  14.975
90729W        W54673  26.493  32.635   5.120
90730W        W54674  26.592  20.537  14.431
90731W        W54675  42.977   0.425   0.441
90732W        W54676  13.261  19.740   3.710
90733W        W54677  35.879  27.603  11.931
90734W        W54678   7.906  34.535  10.404
90735W        W54679  30.098  26.643  11.065
90736W        W54680   0.947  13.645   1.318
90737W        W54681   0.938  37.452  11.873
90738W        W54682  20.203  21.692  13.501
90739W        W54683  17.138  31.009  13.035
90740W        W54684   7.866  44.939  10.918
90741W        W54685  40.944  44.779   3.309
90742W        W54686  34.067  13.684  14.370
90743W        W54687  41.847  35.523   4.720
90744W        W54688  12.254   3.875  10.434
90745W        W54689  37.576  17.180   5.296
90746W        W54690  39.503   7.752  14.382
90747W        W54691  29.970  41.395  14.978
90748W        W54692  31.995  38.025   1.400
90749W        W54693  40.861  31.635  13.317
90750W        W54694  19.685  43.494   5.129
90751W        W54695   3.943   1.925  13.511
90752W        W54696  29.432  42.822   5.605
90753W        W54697  36.084  26.501   1.700
90754W        W54698  43.315  28.441  12.533
90755W        W54699   3.444  44.268   0.808
90756W        W54700  36.359   3.309   4.699
90757W        W54701   8.710  40.323  10.606
90758W        W54702   9.874  30.583   1.350
90759W        W54703   4.421   4.752  10.591
90760W        W54704  35.536  19.706   1.413
90761W        W54705  32.902  40.492  13.922
90762W        W54706  32.631  14.713   2.388
90763W        W54707  16.256   2.381   2.239
90764W        W54708  36.584  17.185  10.521
90765W        W54709  39.932  14.141   3.255
90766W        W54710   1.957  29.625  14.286
90767W        W54711   3.263   9.309   2.674
90768W        W54712   3.847  29.523   0.942
90769W        W54713  24.553  40.824  11.430
90770W        W54714  26.002  31.133  14.354
90771W        W54715  39.927  15.618   2.373
90772W        W54716  17.239  15.587   2.714
90773W        W54717   3.365   8.190   4.224
90774W        W54718  33.023   0.796  13.381
90775W        W54719  13.307  29.028   2.309
90776W        W54720  29.147  38.020   3.697
90777W        W54721  25.045  22.205   3.776
90778W        W54722  19.565  43.889   4.681
90779W        W54723  22.674   8.190   1.403
90780W        W54724  17.231  31.117   4.209
90781W        W54725  40.333  36.563  13.508
90782W        W54726  39.925  28.988   1.252
90783W        W54727  24.012  37.466   4.739
90784W        W54728  32.502   4.799  14.989
90785W        W54729  39.400   9.780  10.593
90786W        W54730   0.402  31.496  13.019
90787W        W54731   7.186   8.880   1.301
90788W        W54732  39.007  26.553   4.140
90789W        W54733  19.777  18.788  13.486
90790W        W54734   1.872   1.843  14.845
90791W        W54735  34.401   3.347   0.908
90792W        W54736   3.812  19.120   1.809
90793W        W54737  22.227  39.410  11.374
90794W        W54738  19.680  36.454   4.805
90795W        W54739  25.469  34.910  12.466
90796W        W54740   1.865  21.113  14.001
90797W        W54741  10.188  13.315   3.368
90798W        W54742  40.330  26.032  10.936
90799W        W54743   0.383   4.444  13.851
90800W        W54744  15.622  17.767   4.253
90801W        W54745  16.709  40.547   2.902
90802W        W54746  23.989  20.032  14.763
90803W        W54747  10.744  12.793   3.348
90804W        W54748  18.716  10.312   4.120
90805W        W54749  20.222  44.774   0.923
90806W        W54750   6.369  24.631   2.201
90807W        W54751  40.804  24.127  13.040
90808W        W54752  23.513  28.554   0.466
90809W        W54753  23.722   1.332  13.888
90810W        W54754  13.703  19.205   3.817
90811W        W54755  13.599  26.521  12.424
90812W        W54756  31.606  22.110  11.031
90813W        W54757  21.161   8.348   4.301
90814W        W54758  30.451   3.274   1.801
90815W        W54759   3.241  32.492   2.772
90816W        W54760  31.086  30.655   2.827
90817W        W54761   2.338  43.431  13.982
90818W        W54762  21.249  23.056   4.764
90819W        W54763  39.045  13.319  12.501
90820W        W54764   6.362  20.727   4.755
90821W        W54765   4.367  16.113  14.382
90822W        W54766  25.015  38.383  12.910
90823W        W54767  16.678  16.771   3.348
90824W        W54768  14.330  32.065   0.332
90825W        W54769  25.629  15.804   2.332
90826W        W54770   9.749  27.594  12.374
90827W        W54771  16.133   2.901  12.461
90828W        W54772  27.975   1.781  10.036
90829W        W54773  29.975   6.219   4.670
90830W        W54774   9.247  33.962   2.406
90831W        W54775  25.647  28.119   1.837
90832W        W54776   1.469  11.796  13.394
90833W        W54777  30.947  14.790  14.771
90834W        W54778   4.858   2.393   0.791
90835W        W54779   4.877  14.678  12.846
90836W        W54780   3.777  26.119  10.447
90837W        W54781  34.607  17.162   3.840
90838W        W54782  25.092  35.937   3.799
90839W        W54783  22.155  33.990   4.642
90840W        W54784  12.215  43.384   4.182
90841W        W54785  36.575   9.377   4.240
90842W        W54786  36.041  14.783   3.775
90843W        W54787  28.559  44.297   2.718
90844W        W54788  11.745  18.160  11.581
90845W        W54789  44.774  20.215   4.311
90846W        W54790  33.003  20.601  11.116
90847W        W54791  24.711  39.832  12.039
90848W        W54792   9.888  30.135   2.821
90849W        W54793  36.081   4.281  14.394
90850W        W54794  40.998   7.867   2.673
90851W        W54795   0.417  23.139  14.451
90852W        W54796  44.427  34.571   0.285
90853W        W54797  15.205  11.736  12.430
90854W        W54798  18.710  22.186  10.435
90855W        W54799  12.822   6.759  11.036
90856W        W54800  21.167  13.732   3.815
90857W        W54801  17.742  20.092  13.539
90858W        W54802   8.738  19.552  10.058
90859W        W54803  37.904  11.188   1.385
90860W        W54804  20.666  15.241  12.020
90861W        W54805  13.802  29.539  14.929
90862W        W54806   6.693   4.448   1.790
90863W        W54807  28.024   6.859   3.165
90864W        W54808  33.496  31.517   5.111
90865W        W54809  43.804  42.844   0.312
90866W        W54810  42.872  29.503   0.400
90867W        W54811   6.740  35.558   4.621
90868W        W54812  19.236   6.183  12.022
90869W        W54813   8.842  27.040   1.781
90870W        W54814  21.106  29.960   5.301
90871W        W54815  28.065   9.351   0.375
90872W        W54816  25.206   1.904  13.440
90873W        W54817  26.585  34.576  12.083
90874W        W54818   3.895  42.828   0.479
90875W        W54819  32.124  27.673   4.170
90876W        W54820  19.664  20.567  10.979
90877W        W54821  33.963   9.666   4.648
90878W        W54822  18.234  12.276   1.220
90879W        W54823  12.358  28.539   2.207
90880W        W54824  41.308   2.363   4.284
90881W        W54825   8.839  38.456   1.853
90882W        W54826  18.568  26.058  12.412
90883W        W54827  24.576   1.821   2.267
90884W        W54828  37.523   2.423   2.845
90885W        W54829  30.481  12.748  13.831
90886W        W54830  31.950   3.805  10.906
90887W        W54831  32.632  15.217   1.698
90888W        W54832  17.085  17.099  11.400
90889W        W54833  11.797  12.337  12.349
90890W        W54834   5.225  15.812  12.479
90891W        W54835  15.124   1.301   0.349
90892W        W54836  33.103  35.520   1.935
90893W        W54837  24.528  14.771   2.191
90894W        W54838   9.321  27.538   5.295
90895W        W54839  38.527   0.882   3.763
90896W        W54840  28.472   9.866  12.846
90897W        W54841  37.888   3.344  12.086
90898W        W54842   7.296  24.010   2.253
90899W        W54843  20.602  21.123  13.477
90900W        W54844  37.378  23.199  11.942
90901W        W54845  35.873   0.273  10.644
90902W        W54846  26.701  29.522   1.221
90903W        W54847  20.529   2.762   3.350
90904W        W54848  34.969  27.040   0.953
90905W        W54849   1.444  31.964   3.786
90906W        W54850  21.686  30.944   4.185
90907W        W54851  33.391  12.659  12.579
90908W        W54852  20.130  10.215  14.864
90909W        W54853   8.680  28.984  14.499
90910W        W54854  41.432  25.198   3.827
90911W        W54855  40.353   1.959  13.430
90912W        W54856  18.626  40.343   5.148
90913W        W54857  14.152   9.197  14.796
90914W        W54858   0.756  44.888   2.664
90915W        W54859  15.586   0.296   0.467
90916W        W54860  34.449  38.869  13.805
90917W        W54861   9.806   5.913  14.025
90918W        W54862  23.107  10.749  10.440
90919W        W54863   7.299  14.825   0.727
90920W        W54864  35.377   0.902   2.238
90921W        W54865  36.566  11.153  11.570
90922W        W54866  23.729  35.090   4.713
90923W        W54867   5.333  24.487   0.859
90924W        W54868  15.672  29.025   4.220
90925W        W54869  27.163  24.132   3.343
90926W        W54870  37.004  36.032   2.272
90927W        W54871  19.604  35.081   0.923
90928W        W54872  27.593  19.164   1.384
90929W        W54873  37.571  14.781  12.373
90930W        W54874  13.275  34.903  14.442
90931W        W54875  15.296  32.451  11.910
90932W        W54876  29.009  30.982  12.037
90933W        W54877  24.579  35.977  14.000
90934W        W54878  39.990  31.576  10.431
90935W        W54879  33.120  29.020  11.417
90936W        W54880  35.508   4.403   2.672
90937W        W54881   2.802  28.526   1.345
90938W        W54882  32.633  41.934  13.408
90939W        W54883   2.754  25.159  13.998
90940W        W54884  21.249  40.906  12.354
90941W        W54885   9.301  18.244   1.332
90942W        W54886   0.743   1.281   1.822
90943W        W54887  36.376  31.499   1.264
90944W        W54888  35.596  11.326  13.835
90945W        W54889   8.281  26.676   3.284
90946W        W54890  32.027  42.511   3.343
90947W        W54891  12.289   7.231  11.603
90948W        W54892   5.696  37.052  12.089
90949W        W54893  32.047  11.154   2.414
90950W        W54894  41.980  12.790   3.188
90951W        W54895   2.469  18.138   1.303
90952W        W54896  26.093  41.535  12.405
90953W        W54897  33.118  43.288  10.450
90954W        W54898   6.184  36.391  12.462
90955W        W54899  12.338   3.387   3.259
90956W        W54900  20.594  29.631   2.841
90957W        W54901  14.175  38.369  12.827
90958W        W54902  27.106  43.307  12.494
90959W        W54903  36.056  26.528  12.956
90960W        W54904  33.604  38.494  13.998
90961W        W54905  31.943  11.221   9.985
90962W        W54906  38.335  43.924   0.317
90963W        W54907  39.491   5.698   5.089
90964W        W54908  30.129   9.229  14.483
90965W        W54909  13.600   1.303   3.386
90966W        W54910  38.571   7.185   4.713
90967W        W54911  39.934  30.570   3.799
90968W        W54912  24.692   3.885   4.273
90969W        W54913   8.833  31.121  12.961
90970W        W54914  13.689  37.902  10.475
90971W        W54915  16.270  14.590   0.410
90972W        W54916  35.397  19.254  13.385
90973W        W54917   8.770  15.277   9.985
90974W        W54918  40.989  40.318  12.826
90975W        W54919  32.592  43.994  14.515
90976W        W54920   1.460  19.541   3.701
90977W        W54921  14.206  44.412   3.753
90978W        W54922  21.132  20.143   1.363
90979W        W54923  38.043  43.843  14.280
90980W        W54924  28.473  25.147   3.840
90981W        W54925  25.176  16.283  13.019
90982W        W54926  43.442  41.891   0.395
90983W        W54927  32.555   5.766   2.809
90984W        W54928  19.534  13.755  12.533
90985W        W54929   2.877   3.245  11.113
90986W        W54930  37.380   9.732   0.906
90987W        W54931  12.725   7.885   3.794
90988W        W54932   1.415  23.670   2.870
90989W        W54933  40.367  37.450   0.455
90990W        W54934  16.632  31.594   2.873
90991W        W54935  20.174   8.330   4.251
90992W        W54936  19.131  26.648  11.105
90993W        W54937  13.280   8.790   4.299
90994W        W54938  11.368  17.234   3.150
90995W        W54939  28.074   3.333   4.220
90996W        W54940   8.781  16.770   2.666
90997W        W54941  16.089  29.616   4.617
90998W        W54942   4.804  44.410  10.584
90999W        W54943   1.974   6.266  13.360
91000W        W54944  30.586  14.830   1.906
91001W        W54945  40.522  34.590   0.380
91002W        W54946  39.411  24.719   2.732
91003W        W54947  10.188   5.838  12.857
91004W        W54948   0.908  36.490  10.405
91005W        W54949  38.538  24.599   0.843
91006W        W54950  13.349  33.123   0.478
91007W        W54951  15.172   1.403   9.476
91008W        W54952   6.734  42.906   0.300
91009W        W54953   8.662  29.600   3.320
91010W        W54954  29.491   4.745  10.891
91011W        W54955  28.160  16.573   2.262
91012W        W54956  14.196   5.897  12.436
91013W        W54957  34.036  44.423  14.345
91014W        W54958  36.370  17.730   0.946
91015W        W54959  31.440  31.146  14.385
91016W        W54960   6.783   7.184   0.308
91017W        W54961   8.333  13.810  12.087
91018W        W54962   6.816  21.691   0.731
91019W        W54963  20.031  13.635  14.375
91020W        W54964  42.383  18.137   3.311
91021W        W54965  23.208   6.235  13.314
91022W        W54966  30.961  20.736  14.316
91023W        W54967   7.272  15.713   9.976
91024W        W54968  37.937  31.014   0.443
91025W        W54969  38.890  10.328  13.333
91026W        W54970  10.849   9.261   0.836
91027W        W54971  35.107  23.146   0.917
91028W        W54972   5.314  20.213   0.471
91029W        W54973  41.454  14.329   1.428
91030W        W54974   2.343  29.079   2.281
91031W        W54975  37.065  41.846  11.030
91032W        W54976  15.192  44.413  13.055
91033W        W54977  12.726  24.519  14.431
91034W        W54978  18.678  30.015  13.877
91035W        W54979  12.301  30.932   2.894
91036W        W54980  42.313   7.877   4.775
91037W        W54981  35.860  44.410   2.881
91038W        W54982  28.021  41.803  10.978
91039W        W54983  12.615  40.823  13.022
91040W        W54984  44.359  21.247   0.368
91041W        W54985  36.545   0.821  11.892
91042W        W54986  43.834  14.793   2.234
91043W        W54987   1.741  41.375  11.605
91044W        W54988  39.366  16.308   4.695
91045W        W54989  25.052  19.721  12.054
91046W        W54990  35.078  37.834   0.772
91047W        W54991  14.686  32.559  13.528
91048W        W54992  40.541   6.190  13.023
91049W        W54993  38.372  22.714   1.230
91050W        W54994  20.704   3.323  12.922
91051W        W54995  24.191  18.069  11.900
91052W        W54996   3.427   9.699   1.431
91053W        W54997   4.767  21.201  13.336
91054W        W54998  28.108  15.252   2.707
91055W        W54999  35.962  12.841  12.431
91056W        W55000  34.089  21.144   0.795
91057W        W55001  41.000  44.464   4.627
91058W        W55002  18.233  16.078  13.959
91059W        W55003  34.887  10.720   0.446
91060W        W55004  20.204  14.158  11.937
91061W        W55005  16.190  11.279   0.963
91062W        W55006  16.146  35.069  13.893
91063W        W55007   9.321  34.523   2.382
91064W        W55008  39.879  13.267  13.938
91065W        W55009  43.363   7.417  14.464
91066W        W55010  16.807  29.631  12.916
91067W        W55011  38.945  22.504   3.202
91068W        W55012   6.769  43.016   3.272
91069W        W55013  35.461  26.119  14.326
91070W        W55014  44.796  40.025  14.453
91071W        W55015   7.375  35.451  10.419
91072W        W55016  29.516  32.988   4.678
91073W        W55017  27.501   4.375   3.295
91074W        W55018  28.631  26.566  12.883
91075W        W55019  40.030  24.550  12.570
91076W        W55020  32.927  34.121  11.074
91077W        W55021  18.669  36.001   0.398
91078W        W55022  29.018  39.472  12.890
91079W        W55023  25.518  15.739  12.569
91080W        W55024  31.629  44.387   2.358
91081W        W55025  35.950  31.532   1.329
91082W        W55026  16.600  15.123  11.020
91083W        W55027  32.003  10.835  13.884
91084W        W55028  42.903   5.751  14.481
91085W        W55029  40.401  30.032   1.309
91086W        W55030  37.475  38.548   0.930
91087W        W55031  43.870  22.643   0.868
91088W        W55032   2.374  42.411  13.897
91089W        W55033  44.980   0.434  10.939
91090W        W55034  36.422  29.145   3.343
91091W        W55035  21.648  10.139  10.138
91092W        W55036  43.968  32.479   1.361
91093W        W55037   7.374  28.498   2.753
91094W        W55038  41.306  36.368  10.618
91095W        W55039  28.120  38.954   2.223
91096W        W55040  16.702  32.058  13.960
91097W        W55041  29.538  27.950   9.921
91098W        W55042  18.664  41.303  10.895
91099W        W55043  32.042  36.550   3.716
91100W        W55044  44.429  15.264  13.332
91101W        W55045  15.624   4.395  11.958
91102W        W55046   3.738  12.711   3.367
91103W        W55047  19.139   5.748  10.503
91104W        W55048   6.830  28.058   1.288
91105W        W55049  35.561  28.568   4.621
91106W        W55050  27.523  22.184  12.022
91107W        W55051  15.207  12.331  13.391
91108W        W55052  31.639   0.272  12.429
91109W        W55053   4.827  30.602  13.494
91110W        W55054  12.328  38.842   3.284
91111W        W55055  24.090  21.230   3.706
91112W        W55056   5.924  41.977   0.379
91113W        W55057  37.835  43.303   0.765
91114W        W55058  11.751   6.378   1.894
91115W        W55059   8.796  17.652   2.289
91116W        W55060  37.442  32.434  10.946
91117W        W55061  21.087  29.016  10.951
91118W        W55062  27.174  43.868  10.443
91119W        W55063  32.585  19.546  11.012
91120W        W55064  42.508   8.180  12.968
91121W        W55065  29.008   7.731  15.000
91122W        W55066  23.617  20.592   4.179
91123W        W55067  36.993   5.814   2.354
91124W        W55068   4.712  34.426   2.351
91125W        W55069  20.116  16.643  13.344
91126W        W55070  33.026  40.020   1.212
91127W        W55071  21.680  15.596  12.368
91128W        W55072  15.668  42.906   3.639
91129W        W55073  29.968  29.060   2.221
91130W        W55074  20.753  18.209   3.746
91131W        W55075  29.581   4.423   1.313
91132W        W55076  24.724  27.574   4.658
91133W        W55077  14.816   0.935  13.895
91134W        W55078  31.142   8.189   3.725
91135W        W55079  44.999  42.784  12.524
91136W        W55080  25.609  35.926  14.394
91137W        W55081  42.927  26.589   1.805
91138W        W55082  38.912  36.058   4.727
91139W        W55083  38.417  12.254  10.481
91140W        W55084  11.792  11.290  10.966
91141W        W55085   5.340  14.823  14.792
91142W        W55086   8.270  31.470  14.368
91143W        W55087  40.529  11.145  12.526
91144W        W55088  38.440   2.294   4.726
91145W        W55089  34.608  41.786   2.875
91146W        W55090  12.215  31.945  14.908
91147W        W55091  33.918  14.804  14.829
91148W        W55092  18.063  15.749   4.177
91149W        W55093   2.405  23.054   2.800
91150W        W55094   3.284  35.566  13.443
91151W        W55095   2.907  27.514  11.570
91152W        W55096  20.694   3.414  12.361
91153W        W55097   3.760   7.716  13.415
91154W        W55098  37.944  14.660   4.198
91155W        W55099   7.723   6.781  13.436
91156W        W55100  35.386  20.092  10.891
91157W        W55101   0.769  22.610  11.542
91158W        W55102  19.535  23.039  14.381
91159W        W55103   0.962  34.477   0.403
91160W        W55104  27.676  42.811   2.206
91161W        W55105   1.809  23.001  11.487
91162W        W55106  25.699  13.811   0.343
91163W        W55107  42.405  34.478  14.346
91164W        W55108  42.371  22.181   3.857
91165W        W55109  15.675  37.553  12.881
91166W        W55110  40.022  12.700  10.568
91167W        W55111  26.695   4.447   3.669
91168W        W55112  43.471   7.858  13.442
91169W        W55113  43.323  26.111   3.686
91170W        W55114  25.504  18.545   0.801
91171W        W55115  36.066  30.430  13.520
91172W        W55116  16.199   0.406  12.861
91173W        W55117   0.949  33.042  11.043
91174W        W55118  17.713   8.201   4.761
91175W        W55119  10.296   6.221   3.823
91176W        W55120   9.789  36.954   0.484
91177W        W55121   4.301   6.197   1.330
91178W        W55122  20.640  30.929   2.885
91179W        W55123  25.021  41.931  13.063
91180W        W55124  14.729  34.888  12.034
91181W        W55125  21.130  14.736   4.145
91182W        W55126  43.285  34.049   4.227
91183W        W55127   6.814  13.763   3.770
91184W        W55128  37.894  18.201  10.631
91185W        W55129  31.025  18.150   2.862
91186W        W55130  16.739  27.548  14.313
91187W        W55131   5.811   2.268  12.073
91188W        W55132  31.545  20.032  13.319
91189W        W55133  25.024   7.237   3.356
91190W        W55134  35.868  28.473   4.658
91191W        W55135  23.045  36.588   1.875
91192W        W55136   7.676  29.605  14.985
91193W        W55137  10.250  28.144   3.236
91194W        W55138  32.602  37.421  10.516
91195W        W55139  38.016   6.262   4.344
91196W        W55140   5.355  34.055  14.888
91197W        W55141  25.015  20.526   2.204
91198W        W55142   7.667  10.367  11.380
91199W        W55143  12.288  16.136   4.288
91200W        W55144  24.198  18.195   0.891
91201W        W55145  23.545  17.604   4.263
91202W        W55146  35.061  25.103   2.718
91203W        W55147   9.375  21.023   0.797
91204W        W55148   5.873   7.338  11.084
91205W        W55149   9.209  23.039  12.026
91206W        W55150  35.883   6.364  12.347
91207W        W55151  31.434  14.655  13.985
91208W        W55152  14.788  35.977   1.883
91209W        W55153  11.636  21.523  12.873
91210W        W55154  30.995  43.782  14.316
91211W        W55155  23.588  11.227   1.251
91212W        W55156  19.672  41.005  13.947
91213W        W55157  22.157  27.512  12.398
91214W        W55158  38.414  30.050  11.581
91215W        W55159  12.748  37.437   0.885
91216W        W55160  10.369  24.988   1.907
91217W        W55161   9.788  21.077  12.893
91218W        W55162  29.551  11.187   0.836
91219W        W55163  29.994  41.035   3.765
91220W        W55164  32.630   9.887  12.397
91221W        W55165  39.809   1.848  14.446
91222W        W55166  41.924  28.985   4.787
91223W        W55167   1.751  18.193   4.196
91224W        W55168  13.133   1.465   0.292
91225W        W55169  32.454  14.132   2.887
91226W        W55170  23.155  18.057  14.444
91227W        W55171  11.218   2.391  11.039
91228W        W55172  37.901  13.128   1.350
91229W        W55173   6.303  38.469  13.417
91230W        W55174  36.549  16.310  10.612
91231W        W55175  21.654  29.041  10.503
91232W        W55176  32.503  32.546   0.846
91233W        W55177  27.539  32.916   0.817
91234W        W55178  26.953  11.711  10.958
91235W        W55179  16.573  26.099   0.776
91236W        W55180   0.477  13.254  10.580
91237W        W55181  28.470  26.634   1.769
91238W        W55182   9.740  20.653   1.294
91239W        W55183  31.624  13.297  11.560
91240W        W55184  36.552  36.931  12.433
91241W        W55185  37.542  29.930   2.866
91242W        W55186   0.251  11.260  13.547
91243W        W55187   7.898  31.423   1.428
91244W        W55188  10.828  10.790   0.366
91245W        W55189  22.017  13.131   0.363
91246W        W55190  31.078   9.165   0.798
91247W        W55191  19.751  13.331  14.879
91248W        W55192   3.844  34.449  13.057
91249W        W55193  42.894  24.480  11.119
91250W        W55194   9.858  13.816   4.280
91251W        W55195  38.418  41.041  14.289
91252W        W55196  29.631  16.252   0.910
91253W        W55197  27.635  30.456  12.365
91254W        W55198  16.650   1.373  12.949
91255W        W55199   7.702  30.568  10.545
91256W        W55200   9.163   5.891  11.962
91257W        W55201  25.700  39.373  13.440
91258W        W55202   1.439  20.203  11.381
91259W        W55203  39.406  31.629  13.439
91260W        W55204  23.173  12.779  11.511
91261W        W55205  16.101  41.493   3.369
91262W        W55206   8.882  20.644  11.106
91263W        W55207  21.755   4.370  12.519
91264W        W55208  13.720  36.042  12.564
91265W        W55209   7.299  39.326  14.795
91266W        W55210  39.977   9.262  13.796
91267W        W55211  41.304  32.604  11.920
91268W        W55212  18.073  33.569  12.430
91269W        W55213  15.123  35.477  14.460
91270W        W55214  38.491  11.294  13.405
91271W        W55215  30.417  36.352   4.293
91272W        W55216  28.443  15.628  12.092
91273W        W55217  16.197   5.898  14.857
91274W        W55218   0.905  28.661  10.914
91275W        W55219  33.004  34.081   0.447
91276W        W55220  33.911  19.205   4.700
91277W        W55221   8.836  42.414  14.300
91278W        W55222  18.141  10.865   0.375
91279W        W55223   5.417   4.305  11.391
91280W        W55224  22.006   7.275  14.335
91281W        W55225   8.327  30.156   3.230
91282W        W55226   3.290  15.664  10.610
91283W        W55227   6.268  44.881   0.368
91284W        W55228   9.665  18.567   5.653
91285W        W55229  28.993   2.305  13.037
91286W        W55230  14.317   5.277  12.498
91287W        W55231   6.776  19.157   2.741
91288W        W55232  42.787  14.742  14.950
91289W        W55233  23.180   1.426  11.042
91290W        W55234   4.247   1.370   2.347
91291W        W55235   8.224  13.148   2.674
91292W        W55236  31.922  39.391  11.547
91293W        W55237  30.142  19.113   2.360
91294W        W55238  41.533  38.057  14.870
91295W        W55239  17.297  30.482   4.295
91296W        W55240  27.666  43.476  11.612
91297W        W55241  29.525  41.302  14.399
91298W        W55242  27.151  35.560  13.869
91299W        W55243  18.642  42.467  10.604
91300W        W55244  37.580   0.799   0.908
91301W        W55245  20.730  10.634  12.092
91302W        W55246  25.970  43.862   1.864
91303W        W55247  37.907  24.529  12.420
91304W        W55248   7.319  22.527   3.262
91305W        W55249   6.775  36.842   2.864
91306W        W55250   9.812  16.172  12.555
91307W        W55251  32.441  30.449  12.083
91308W        W55252  29.563   6.221  13.899
91309W        W55253  26.625  19.164   5.221
91310W        W55254  31.636  32.618   2.770
91311W        W55255   3.807  32.073  10.470
91312W        W55256  24.048  31.549   2.373
91313W        W55257   0.890   2.429  11.967
91314W        W55258  13.233  10.745  10.494
91315W        W55259   7.702  19.677  13.545
91316W        W55260  34.972  38.486   4.329
91317W        W55261   4.837  44.760  14.945
91318W        W55262  27.062  18.157   2.750
91319W        W55263  29.525  42.858   4.803
91320W        W55264  13.340   2.794   4.222
91321W        W55265  13.603  30.436   0.964
91322W        W55266  28.656  38.464   1.929
91323W        W55267   7.411  16.121   1.756
91324W        W55268  20.086  33.876   1.823
91325W        W55269  32.552   2.835  10.983
91326W        W55270  29.547  19.643   4.706
91327W        W55271   1.482  41.392   1.795
91328W        W55272  39.468  29.154  14.011
91329W        W55273  13.766   8.379   3.261
91330W        W55274  21.115   3.310  14.861
91331W        W55275  26.692  17.090   2.811
91332W        W55276  10.635   9.815   0.947
91333W        W55277   2.855  43.855  11.476
91334W        W55278   0.833  13.195  14.854
91335W        W55279  41.845  29.585   3.774
91336W        W55280  20.167  19.639   0.443
91337W        W55281  44.459  33.079  12.068
91338W        W55282  30.517  17.590  11.913
91339W        W55283  16.810  18.076   4.144
91340W        W55284  33.489   1.421  11.581
91341W        W55285   4.347  30.415  10.485
91342W        W55286   0.847  29.145  10.982
91343W        W55287   5.804  40.822   3.827
91344W        W55288   2.412  34.080  12.366
91345W        W55289  20.051  37.017  14.434
91346W        W55290  22.527   6.857   4.799
91347W        W55291  33.047  32.944  10.611
91348W        W55292  12.163  27.664   1.373
91349W        W55293   2.918  14.226  10.988
91350W        W55294  26.090  16.624   4.679
91351W        W55295   0.949   6.256   2.312
91352W        W55296  36.856  10.320   4.808
91353W        W55297  42.882   0.936  12.865
91354W        W55298  37.071  27.610   3.385
91355W        W55299  38.927  40.360   4.793
91356W        W55300  36.018  36.925  13.518
91357W        W55301  33.430  37.408  14.889
91358W        W55302  19.263  39.431  13.925
91359W        W55303   5.791  44.341   4.804
91360W        W55304  28.588  40.439   4.682
91361W        W55305  15.620  23.148  14.781
91362W        W55306  34.554  39.471   4.283
91363W        W55307   1.973  39.345  12.358
91364W        W55308  24.610   1.808  12.355
91365W        W55309   2.330   3.304   4.320
91366W        W55310   8.790  34.399   4.243
91367W        W55311  16.661  15.609   3.860
91368W        W55312   7.411  14.114   3.311
91369W        W55313  17.597   2.964  10.925
91370W        W55314  19.072  24.122   0.859
91371W        W55315  31.145  42.001  10.898
91372W        W55316  17.283  19.687   4.153
91373W        W55317  17.777  11.135   1.386
91374W        W55318  15.299   5.420   3.254
91375W        W55319  30.934  34.903   1.834
91376W        W55320  14.224  24.546  12.539
91377W        W55321  25.997  42.969  14.435
91378W        W55322   2.884  38.335  10.624
91379W        W55323  29.578   1.315  14.833
91380W        W55324   3.914   3.255   3.231
91381W        W55325  31.023  19.627   4.154
91382W        W55326  32.476  25.554  10.544
91383W        W55327  33.490   6.814  14.457
91384W        W55328  26.001  29.950  14.939
91385W        W55329  33.909  15.145  13.800
91386W        W55330  14.668  15.608   0.461
91387W        W55331  21.752  17.167  14.784
91388W        W55332   3.734   1.441  14.926
91389W        W55333   1.445  39.545  11.939
91390W        W55334  41.485   4.294   4.197
91391W        W55335  12.737   5.918   0.768
91392W        W55336  31.431  29.440   1.814
91393W        W55337  43.289  13.821   0.899
91394W        W55338  31.498  24.575  12.901
91395W        W55339  26.101  42.017  14.909
91396W        W55340  32.446  42.497   2.801
91397W        W55341  25.972  13.751   4.677
91398W        W55342  30.483  17.606  13.929
91399W        W55343  10.184  38.020  10.597
91400W        W55344   6.203  17.694   5.719
91401W        W55345  30.441  22.184  12.496
91402W        W55346   1.266  38.328  10.419
91403W        W55347  22.619  35.419  10.541
91404W        W55348   5.817   3.874   3.787
91405W        W55349   1.462   2.780  11.470
91406W        W55350  25.687  34.889   2.350
91407W        W55351  43.904  37.367  14.487
91408W        W55352  15.184  18.649  13.062
91409W        W55353   4.444   4.869  14.787
91410W        W55354   7.720  32.481  12.979
91411W        W55355  29.445  11.841   0.956
91412W        W55356   3.285   6.851  11.476
91413W        W55357  18.744   1.266   4.636
91414W        W55358  13.659  44.940   1.300
91415W        W55359   0.832  16.122   2.291
91416W        W55360   8.836   7.309  12.857
91417W        W55361  27.025   6.760  10.449
91418W        W55362  26.576  16.120   5.195
91419W        W55363  26.018   8.210   0.282
91420W        W55364  15.735  32.423   1.749
91421W        W55365  17.087   8.241   0.444
91422W        W55366   4.400   9.292   2.821
91423W        W55367  36.072  33.987  12.857
91424W        W55368  10.812   4.287  12.478
91425W        W55369  19.690  26.663  13.820
91426W        W55370  42.398  43.477   1.405
91427W        W55371  25.604  17.713   2.298
91428W        W55372   9.646  17.566   0.355
91429W        W55373  17.095  41.347   0.746
91430W        W55374  12.764  32.974  10.527
91431W        W55375  34.997  31.972  14.339
91432W        W55376  25.638   8.273  14.478
91433W        W55377   3.862   1.898   3.383
91434W        W55378  33.555   7.360  11.421
91435W        W55379  15.295  41.382  13.318
91436W        W55380  40.471  40.454  12.394
91437W        W55381  14.102  15.128  12.994
91438W        W55382  43.789  15.209   4.689
91439W        W55383  29.508  41.832   5.119
91440W        W55384  42.938   1.842   1.299
91441W        W55385  19.046  19.276  13.334
91442W        W55386   6.842  39.936   0.463
91443W        W55387   6.232  21.562  11.863
91444W        W55388  41.429  41.866  14.791
91445W        W55389  34.899  43.985  13.460
91446W        W55390   8.225  44.784   4.168
91447W        W55391  16.131  29.144   1.828
91448W        W55392  24.153  37.020  12.379
91449W        W55393   3.813  21.554   0.293
91450W        W55394  41.417  24.109   3.346
91451W        W55395  31.425  37.402   2.774
91452W        W55396  10.846   7.383   3.206
91453W        W55397  35.985  36.393   2.858
91454W        W55398  42.022  40.398   3.733
91455W        W55399  25.179   8.889  10.408
91456W        W55400  12.823  41.474   1.764
91457W        W55401  13.218  31.110   1.932
91458W        W55402  27.153  21.523   0.827
91459W        W55403  10.755  16.179   1.249
91460W        W55404  37.403   4.305   0.369
91461W        W55405  11.181  31.101  14.865
91462W        W55406   8.268  19.724  14.901
91463W        W55407  32.031  12.186  13.510
91464W        W55408   0.772  25.512  12.526
91465W        W55409   3.287   9.270  12.917
91466W        W55410   9.315  42.777   1.892
91467W        W55411  36.081  12.272  10.458
91468W        W55412  28.483  19.079  14.323
91469W        W55413  25.050   2.851   2.840
91470W        W55414  10.261  19.060   3.322
91471W        W55415  14.144  22.633   2.757
91472W        W55416  44.484   4.331  13.902
91473W        W55417  18.143  16.075   0.245
91474W        W55418  19.677   0.297   1.713
91475W        W55419  28.177  30.958   2.386
91476W        W55420   3.333   8.394   1.307
91477W        W55421  15.622  43.309   1.716
91478W        W55422  22.128  37.970   0.298
91479W        W55423   3.896  15.727   0.255
91480W        W55424  19.082  30.114   1.442
91481W        W55425   7.416  11.255  10.518
91482W        W55426   1.753  23.010   0.383
91483W        W55427  32.398   0.747  13.835
91484W        W55428  43.928  19.601  14.381
91485W        W55429  39.431   4.877   3.360
91486W        W55430  24.704  22.551   3.387
91487W        W55431  39.915  33.565  14.469
91488W        W55432  29.657   2.472   1.763
91489W        W55433  28.588  11.840   2.184
91490W        W55434  30.159  13.748  12.937
91491W        W55435  20.224  23.520   4.261
91492W        W55436  16.687   7.700  12.508
91493W        W55437  23.092  39.970  14.275
91494W        W55438  30.921  38.936  14.960
91495W        W55439  32.912  21.255  11.415
91496W        W55440  43.816   2.958   4.751
91497W        W55441  44.779  31.033   0.250
91498W        W55442  32.448  29.538  12.475
91499W        W55443  26.148   8.302   2.771
91500W        W55444  19.264  36.385   1.432
91501W        W55445  42.416  30.127  10.552
91502W        W55446   9.243  12.324  10.486
91503W        W55447  14.666  11.674  12.562
91504W        W55448  24.230   4.297  13.832
91505W        W55449   2.895  43.878   3.148
91506W        W55450  25.133   1.897   0.413
91507W        W55451  43.891   5.898   2.710
91508W        W55452  39.379  30.009   2.692
91509W        W55453  15.234  22.540  14.441
91510W        W55454  39.065  34.990   0.964
91511W        W55455  42.321  26.524  10.052
91512W        W55456  40.478  43.482   0.941
91513W        W55457  33.961  27.943   0.473
91514W        W55458  37.983  42.849   4.220
91515W        W55459   6.363  19.102  11.550
91516W        W55460  40.326  44.367   5.167
91517W        W55461   1.373  32.890   0.245
91518W        W55462  22.206  33.590  13.881
91519W        W55463  44.808  35.529  12.080
91520W        W55464  43.318  20.744  12.443
91521W        W55465  14.803   6.252   1.282
91522W        W55466   1.288  24.644   2.335
91523W        W55467  15.246   1.248  12.580
91524W        W55468  36.519  28.587   3.832
91525W        W55469  41.399  41.375  13.920
91526W        W55470  18.245  24.013  10.513
91527W        W55471  26.023  44.764   0.471
91528W        W55472  28.080  11.199   4.132
91529W        W55473  14.792  24.209   3.836
91530W        W55474  36.494  39.419  13.851
91531W        W55475  25.190  18.119  10.988
91532W        W55476  38.498   3.428  13.432
91533W        W55477  39.422  26.133  11.983
91534W        W55478  40.485  42.846   0.301
91535W        W55479  21.262  14.250   0.879
91536W        W55480  42.862   4.300   4.123
91537W        W55481   1.924  21.547   0.807
91538W        W55482  26.533   8.160  11.371
91539W        W55483   4.756  35.501  12.482
91540W        W55484  24.589  40.509   3.743
91541W        W55485  26.550   7.895   2.712
91542W        W55486  40.822  24.559  11.007
91543W        W55487  40.346  24.550   1.913
91544W        W55488  23.699   7.194   1.366
91545W        W55489  23.528   7.828   4.226
91546W        W55490  25.469  37.363  13.432
91547W        W55491  30.925  13.159  11.444
91548W        W55492  42.410  10.671   3.256
91549W        W55493  33.548  29.510  10.436
91550W        W55494  26.156  16.295  10.060
91551W        W55495  24.138   5.327  14.769
91552W        W55496  13.334   6.836   0.375
91553W        W55497   4.784  42.435   1.802
91554W        W55498   2.442  21.222   5.183
91555W        W55499   7.265   3.802  13.849
91556W        W55500  24.203  44.855   3.182
91557W        W55501  34.518  20.595   3.836
91558W        W55502   2.880  38.554  14.821
91559W        W55503  43.514  12.330  12.419
91560W        W55504  17.726   0.378   0.803
91561W        W55505  44.808  26.040  13.009
91562W        W55506  23.222  34.562  10.566
91563W        W55507  33.464  28.664   0.455
91564W        W55508  36.439  21.521   1.754
91565W        W55509  41.909  21.229  11.538
91566W        W55510  34.095  27.606   2.220
91567W        W55511  37.904   2.451  12.551
91568W        W55512  41.041  10.872  14.825
91569W        W55513  17.134   4.313   2.299
91570W        W55514  23.641  35.052  14.398
91571W        W55515   1.466  31.127  12.440
91572W        W55516   6.208  29.019   0.762
91573W        W55517   3.421  13.627   3.758
91574W        W55518  41.453  38.337   4.676
91575W        W55519   8.839   6.352  13.532
91576W        W55520   2.776  35.867  10.594
91577W        W55521   8.780   4.291  14.808
91578W        W55522   6.394  30.658   2.818
91579W        W55523   9.203  37.994  12.483
91580W        W55524  37.030  23.192   2.854
91581W        W55525  16.741  35.901  13.468
91582W        W55526  14.772  15.698  10.551
91583W        W55527  31.602  30.628  14.837
91584W        W55528  20.601   1.262   0.848
91585W        W55529   8.691  23.556  13.547
91586W        W55530  25.620   3.765  13.988
91587W        W55531  30.425  10.800  13.977
91588W        W55532  26.086  34.445  12.829
91589W        W55533  26.123  26.024  13.516
91590W        W55534  32.955   8.390  12.828
91591W        W55535  40.531  44.448  12.960
91592W        W55536  34.574  13.728  14.981
91593W        W55537  17.240  26.496   3.717
91594W        W55538   6.375  30.490  10.442
91595W        W55539   8.190  34.898  13.480
91596W        W55540   6.343   3.415   9.922
91597W        W55541  21.558   3.239   0.384
91598W        W55542  18.614  42.465  13.997
91599W        W55543  31.953  38.942  10.961
91600W        W55544   3.280  34.495  12.057
91601W        W55545  22.563  29.069  11.442
91602W        W55546  24.564  34.998   3.222
91603W        W55547   7.675  16.133  13.062
91604W        W55548   1.931  15.761  12.077
91605W        W55549  15.246  28.674  13.335
91606W        W55550   9.779  26.053   0.411
91607W        W55551  18.269  36.539  11.859
91608W        W55552  26.671  17.234   1.708
91609W        W55553  43.445  17.671   1.329
91610W        W55554  37.875  36.429   3.152
91611W        W55555   6.712  10.764   4.227
91612W        W55556  20.712  11.641   1.223
91613W        W55557  12.217  19.249   3.184
91614W        W55558  27.107  43.916  12.824
91615W        W55559   4.792  11.711  14.981
91616W        W55560  23.504   1.847  12.920
91617W        W55561   8.332  19.610   4.823
91618W        W55562  21.206  22.633  13.988
91619W        W55563  14.277  27.023   0.403
91620W        W55564  21.236  15.179   4.116
91621W        W55565  28.057  33.974  10.425
91622W        W55566  31.547  38.478  13.326
91623W        W55567  31.552  34.005   4.290
91624W        W55568  37.952  13.725  11.090
91625W        W55569  26.011  32.542   2.217
91626W        W55570  35.447  43.273   4.728
91627W        W55571  35.011   2.807   0.911
91628W        W55572  22.108  17.785  14.970
91629W        W55573  16.617  41.857  13.451
91630W        W55574  28.445   4.725   2.864
91631W        W55575  17.583   9.823   3.289
91632W        W55576  40.871  18.098  10.633
91633W        W55577  36.547  37.386  12.877
91634W        W55578   6.363  23.582   3.160
91635W        W55579  20.246  44.388   2.889
91636W        W55580  35.021  38.903  12.960
91637W        W55581  24.160  18.176  14.275
91638W        W55582  15.205  27.535   3.336
91639W        W55583  30.985  12.222   1.257
91640W        W55584  14.143   4.743   4.201
91641W        W55585  28.548  35.954  11.524
91642W        W55586  33.054  13.310  13.463
91643W        W55587  34.520  21.651  11.098
91644W        W55588  24.074  23.062  14.408
91645W        W55589  40.956  26.172   0.316
91646W        W55590  15.733  25.197  12.443
91647W        W55591  10.677  38.957  13.813
91648W        W55592   7.215  18.105   2.801
91649W        W55593  30.118   1.278  11.433
91650W        W55594  23.620  14.612   0.928
91651W        W55595  38.875  23.542   4.290
91652W        W55596  43.948  15.758   1.874
91653W        W55597  44.924  34.067  10.896
91654W        W55598   4.855  39.381  11.437
91655W        W55599  11.687  21.658  12.427
91656W        W55600  22.672   8.675   1.714
91657W        W55601  12.671  26.561   1.844
91658W        W55602   0.985  18.698   4.702
91659W        W55603  19.069   5.821  14.388
91660W        W55604  21.533  38.029   0.303
91661W        W55605   7.416  14.180  10.897
91662W        W55606   6.799  24.667   1.755
91663W        W55607  41.346  35.954  14.933
91664W        W55608  23.182  20.219  11.460
91665W        W55609  20.673  29.118   3.332
91666W        W55610   4.406  17.794  12.982
91667W        W55611  23.693  16.120   4.804
91668W        W55612  17.152  35.475  12.404
91669W        W55613  40.881  40.391   1.299
91670W        W55614  31.510  35.949  12.419
91671W        W55615  33.032  27.091  12.439
91672W        W55616  13.260   1.800   0.949
91673W        W55617  41.951  36.477   3.151
91674W        W55618  35.948  21.627  13.849
91675W        W55619  22.112   1.400  10.912
91676W        W55620  39.820   7.263   4.611
91677W        W55621  43.987  31.084   1.856
91678W        W55622  41.851  28.038   2.873
91679W        W55623  17.185  35.052   1.914
91680W        W55624  17.223  44.309  10.071
91681W        W55625  19.190  31.959   2.291
91682W        W55626  42.966  30.568  12.893
91683W        W55627  43.269  21.237  13.048
91684W        W55628  21.059   7.890  11.585
91685W        W55629  34.424  14.167   3.664
91686W        W55630  29.556  29.973   2.370
91687W        W55631   6.369  27.175   1.276
91688W        W55632  36.458  31.002  14.858
91689W        W55633  25.043   7.219  14.292
91690W        W55634  10.714  26.137   1.422
91691W        W55635  41.871  41.510   4.126
91692W        W55636   4.933  11.654  12.920
91693W        W55637  15.675   5.224  14.772
91694W        W55638   9.395  40.470   2.246
91695W        W55639  10.867  26.533  14.298
91696W        W55640  16.686   3.911  10.934
91697W        W55641  17.607   5.193   5.242
91698W        W55642   5.249   9.850  11.084
91699W        W55643  23.641  27.957  11.607
91700W        W55644   6.201  32.605  11.125
91701W        W55645   9.777  21.055  10.614
91702W        W55646   1.291  18.686   0.260
91703W        W55647  25.633   0.340   4.795
91704W        W55648  37.912   3.917   3.798
91705W        W55649   3.277  39.028   4.230
91706W        W55650   7.280  28.447   9.641
91707W        W55651   8.678  42.330   0.323
91708W        W55652  36.061   0.938  10.542
91709W        W55653  26.988  44.789   2.871
91710W        W55654  44.497  17.773   2.775
91711W        W55655  25.573  25.173   4.188
91712W        W55656  27.595   5.389  14.405
91713W        W55657   6.375  30.983   2.777
91714W        W55658  15.775  10.792   2.366
91715W        W55659  35.077  35.859  10.015
91716W        W55660  43.374   0.485  12.849
91717W        W55661  30.040  11.278   2.882
91718W        W55662  28.540   8.167   1.233
91719W        W55663   6.207  41.318   5.117
91720W        W55664   2.433  35.958   2.417
91721W        W55665  16.074   7.392   2.274
91722W        W55666  25.657   5.404  11.381
91723W        W55667  44.412  33.608   3.285
91724W        W55668  19.104  38.561   0.332
91725W        W55669  33.015   4.762   0.864
91726W        W55670  12.752  31.015  12.424
91727W        W55671   5.432  14.113  11.034
91728W        W55672  27.564   8.304  14.405
91729W        W55673  44.428  12.723  13.834
91730W        W55674  32.119  20.748  10.599
91731W        W55675  26.114   9.296  12.058
91732W        W55676  27.987  35.017  12.428
91733W        W55677   5.824  12.362  11.895
91734W        W55678  17.172  13.791  12.952
91735W        W55679   7.685  30.471  13.897
91736W        W55680  15.300   7.266  14.339
91737W        W55681  11.716  41.468   5.321
91738W        W55682  13.698   4.317  14.853
91739W        W55683   2.369  39.406   4.636
91740W        W55684   4.209  28.151  13.353
91741W        W55685  35.457  25.014   0.755
91742W        W55686   7.883   0.932   4.335
91743W        W55687  43.395  24.666   4.352
91744W        W55688  15.601  23.069  11.548
91745W        W55689  22.245  44.809  14.861
91746W        W55690  15.315  13.822   0.832
91747W        W55691  31.549  24.668   3.720
91748W        W55692  12.776  41.497   2.210
91749W        W55693  36.919  22.018  14.321
91750W        W55694  24.481  34.512  14.437
91751W        W55695  36.552  38.330   3.695
91752W        W55696   9.741  41.449  10.499
91753W        W55697  32.066   5.316  11.944
91754W        W55698   9.393  29.110  11.411
91755W        W55699  27.507  36.863   4.782
91756W        W55700  44.400  19.261  14.358
91757W        W55701  11.215  10.876   2.377
91758W        W55702  32.091  27.532   4.780
91759W        W55703  34.046  36.870   3.363
91760W        W55704  16.212  14.709   1.799
91761W        W55705  44.971  29.447  11.421
91762W        W55706   0.273  42.866   0.373
91763W        W55707  13.792  10.299  14.886
91764W        W55708   7.387  10.743   1.903
91765W        W55709  26.650  21.648  12.878
91766W        W55710  34.471  19.619   1.426
91767W        W55711  42.297  32.632   0.313
91768W        W55712  11.271  19.215   4.264
91769W        W55713  14.124  42.401  10.441
91770W        W55714  41.890  20.742   0.362
91771W        W55715  44.298  27.639   0.934
91772W        W55716  12.347   5.206   2.238
91773W        W55717   6.338  23.210  12.051
91774W        W55718  31.021   6.344  11.529
91775W        W55719   4.353  11.311   4.657
91776W        W55720  30.618   6.317  14.450
91777W        W55721  43.450  16.255   4.194
91778W        W55722  31.498   7.289   2.892
91779W        W55723   3.886   9.672  10.462
91780W        W55724  34.560  34.440  13.540
91781W        W55725  19.162  40.033   4.143
91782W        W55726  38.327  37.005  14.296
91783W        W55727   9.684  28.665   2.338
91784W        W55728  25.498  44.471   4.176
91785W        W55729   8.658  39.035  12.823
91786W        W55730   6.259  21.604   4.680
91787W        W55731  43.882  20.557   3.798
91788W        W55732   0.896  20.158  11.515
91789W        W55733  13.188  32.889  14.284
91790W        W55734  44.956  38.479  10.905
91791W        W55735   4.388  18.225   1.225
91792W        W55736  41.823  38.536   3.852
91793W        W55737  24.582  43.834  11.099
91794W        W55738  35.003  37.085   0.325
91795W        W55739  18.765  18.239   1.833
91796W        W55740  17.090  14.645   0.324
91797W        W55741   5.384  16.120   4.340
91798W        W55742   7.806   9.793  12.983
91799W        W55743  21.072   3.413   4.754
91800W        W55744  26.632   6.709   1.825
91801W        W55745  38.940  30.108   1.906
91802W        W55746  34.917  41.352  14.446
91803W        W55747   9.729  41.959   3.697
91804W        W55748  30.043  31.429  14.365
91805W        W55749   9.823  32.598   2.803
91806W        W55750  42.296   3.301  12.998
91807W        W55751  20.727   0.901   4.770
91808W        W55752   2.359  18.696  10.989
91809W        W55753  44.425  44.405   5.198
91810W        W55754  44.760  38.500   1.930
91811W        W55755  42.925   4.436  12.424
91812W        W55756  15.725  29.506   0.908
91813W        W55757  44.791  18.142  10.560
91814W        W55758  40.965   6.221   5.666
91815W        W55759  39.317  29.974  11.863
91816W        W55760  43.304  19.710  14.390
91817W        W55761  41.315  42.380  10.492
91818W        W55762  28.530  21.708  13.968
91819W        W55763  42.826  43.318  11.972
91820W        W55764  42.355  15.668   3.813
91821W        W55765   5.927  16.650  10.611
91822W        W55766   7.369  10.852  13.425
91823W        W55767  24.162  40.989  14.442
91824W        W55768  22.639   2.740  13.470
91825W        W55769   2.939  29.081   2.679
91826W        W55770  38.976  12.177  10.966
91827W        W55771  28.069   5.260   1.819
91828W        W55772  34.468  20.183  13.431
91829W        W55773  16.654  22.637  12.841
91830W        W55774  16.116  34.472   3.231
91831W        W55775   9.674  17.744  14.426
91832W        W55776  10.873  14.101   5.236
91833W        W55777   2.379   0.939   4.114
91834W        W55778  31.548  21.555   0.358
91835W        W55779  20.201  32.924  14.885
91836W        W55780  33.110  44.898   1.272
91837W        W55781   7.853  12.761   0.307
91838W        W55782  38.535  12.202  13.474
91839W        W55783  12.702  34.882  11.584
91840W        W55784   5.195  24.573   0.319
91841W        W55785  13.624  35.540   5.285
91842W        W55786  22.118   1.926  14.808
91843W        W55787  11.136  14.225  12.412
91844W        W55788  40.458  19.147  14.514
91845W        W55789  16.757  11.170  13.053
91846W        W55790  20.627   5.398   1.435
91847W        W55791   9.297  39.971   1.745
91848W        W55792  13.775  32.582  10.635
91849W        W55793  43.000   6.824  13.334
91850W        W55794  11.219   8.782  13.053
91851W        W55795  18.215  16.624   2.777
91852W        W55796  26.080  35.880  13.886
91853W        W55797  26.502  11.802   2.332
91854W        W55798  44.835  13.198   3.270
91855W        W55799  14.226  17.764   2.362
91856W        W55800  22.712  18.557   3.646
91857W        W55801  33.932   4.710   2.801
91858W        W55802  24.638  30.932   4.297
91859W        W55803  15.271  36.377   5.157
91860W        W55804  27.630  16.185   3.176
91861W        W55805  29.031  29.106  13.027
91862W        W55806   9.665  12.317  13.352
91863W        W55807  38.499  26.584  12.009
91864W        W55808  37.869   0.439   3.256
91865W        W55809  33.914  41.395  14.477
91866W        W55810  39.004  28.146   3.730
91867W        W55811  19.687  25.142  13.015
91868W        W55812  28.001  38.928  13.482
91869W        W55813   3.833  41.403  10.413
91870W        W55814   6.259   6.804   3.278
91871W        W55815  21.619   1.798   2.722
91872W        W55816  33.545  25.050   2.890
91873W        W55817  39.929   7.821  11.866
91874W        W55818  14.612  32.014   0.456
91875W        W55819  10.140  40.892   1.806
91876W        W55820  39.367  27.524   1.327
91877W        W55821  33.584   2.784  10.970
91878W        W55822  26.131  40.968  12.991
91879W        W55823  38.845  23.522   9.938
91880W        W55824  26.534  31.534   2.418
91881W        W55825  25.620  17.103   4.201
91882W        W55826  24.222  32.549  13.964
91883W        W55827  41.791  10.661   1.391
91884W        W55828  34.113  10.700  14.431
91885W        W55829  24.209  43.443  13.329
91886W        W55830   5.234  10.352   1.442
91887W        W55831  10.144   6.878   1.744
91888W        W55832  26.667   3.241  11.538
91889W        W55833  44.973  10.790  10.495
91890W        W55834  23.491  28.587   1.781
91891W        W55835  28.119  20.180  12.085
91892W        W55836  33.481  44.826   5.138
91893W        W55837  38.961  32.574  13.951
91894W        W55838   0.862  32.056   4.664
91895W        W55839  22.174   1.740   2.679
91896W        W55840  26.676  39.411   3.818
91897W        W55841  43.828  39.407   3.698
91898W        W55842  42.309   4.341   1.810
91899W        W55843  20.049  41.443  14.025
91900W        W55844  31.997  15.117  13.030
91901W        W55845  32.909  23.201   0.748
91902W        W55846  23.199  31.111  13.345
91903W        W55847   3.820  38.852  10.158
91904W        W55848  24.188   6.428   3.351
91905W        W55849  18.203  27.966  13.347
91906W        W55850  31.092  14.687  12.450
91907W        W55851   6.201   1.282  12.942
91908W        W55852  15.158  14.283   2.418
91909W        W55853  25.141  44.345   3.325
91910W        W55854  19.604   8.227  12.853
91911W        W55855   2.934   3.388   4.810
91912W        W55856  11.312  34.549   0.443
91913W        W55857  25.651  31.078   2.685
91914W        W55858  39.866   3.765   1.324
91915W        W55859  25.593  38.362  13.414
91916W        W55860  44.990  17.686  11.440
91917W        W55861  22.727  38.516  12.088
91918W        W55862   3.428  14.286   2.410
91919W        W55863  31.629  44.489  14.769
91920W        W55864  33.121   6.233   1.439
91921W        W55865  35.994  38.046  11.969
91922W        W55866  13.177  42.939  12.501
91923W        W55867  13.608  40.404  11.068
91924W        W55868   2.450  35.544  11.117
91925W        W55869   9.222  31.991   2.764
91926W        W55870  29.921  31.119   4.170
91927W        W55871  33.882  23.549   0.844
91928W        W55872  43.798  43.509   3.641
91929W        W55873   4.704  42.917  12.928
91930W        W55874  29.594  11.297   0.388
91931W        W55875   9.165  43.375   2.852
91932W        W55876  41.492  37.040   4.244
91933W        W55877  13.835  42.408   0.383
91934W        W55878  24.134  34.526   0.939
91935W        W55879   6.814  21.135   1.705
91936W        W55880  23.668   9.735  12.410
91937W        W55881  35.574  11.216   0.737
91938W        W55882  26.024  39.486  13.064
91939W        W55883  35.478  27.534  13.880
91940W        W55884  18.576  13.819   4.159
91941W        W55885   9.779  15.675  14.354
91942W        W55886  30.055  38.842   0.310
91943W        W55887  17.073  23.533  11.453
91944W        W55888  15.203  33.611  12.891
91945W        W55889  12.165   0.956  11.447
91946W        W55890  21.175  21.631   2.406
91947W        W55891  41.974  20.751   1.301
91948W        W55892  10.809  23.720   0.324
91949W        W55893  36.033  32.127   2.679
91950W        W55894  21.080  30.478  12.090
91951W        W55895  30.147  20.203  11.391
91952W        W55896  34.611  21.545   2.241
91953W        W55897  29.647  44.005   3.682
91954W        W55898  33.400  18.723   2.769
91955W        W55899  20.032  40.954  14.332
91956W        W55900  23.116  31.578  12.420
91957W        W55901  16.680   2.360  12.014
91958W        W55902  30.461  41.338  14.351
91959W        W55903  33.602  20.753  13.003
91960W        W55904  41.938  21.240   1.746
91961W        W55905  36.021  15.233  12.541
91962W        W55906  33.532  20.239  11.409
91963W        W55907  22.135   8.664   4.607
91964W        W55908   6.878  16.179   4.617
91965W        W55909  38.879   6.372  11.464
91966W        W55910  41.789  27.046   1.270
91967W        W55911  35.413  42.315  11.065
91968W        W55912  42.819  36.524   3.715
91969W        W55913   9.245  32.970  12.412
91970W        W55914  28.116  26.120  11.993
91971W        W55915   0.797   4.842   2.903
91972W        W55916  21.599  28.455  11.502
91973W        W55917  37.989  14.775  12.992
91974W        W55918  43.020  38.432  13.935
91975W        W55919  32.929  11.789   4.193
91976W        W55920  28.459  17.136  12.954
91977W        W55921  14.744  13.686  12.908
91978W        W55922   5.216  28.618  13.307
91979W        W55923  37.086   2.399   5.301
91980W        W55924  15.761  15.628  12.949
91981W        W55925   3.953  17.224  10.021
91982W        W55926   5.398  34.887  14.324
91983W        W55927  15.219  20.627  14.793
91984W        W55928  17.208  11.765  12.577
91985W        W55929  37.451  43.508   0.367
91986W        W55930  23.542   9.312  10.551
91987W        W55931  37.924  40.816  11.404
91988W        W55932  11.749  39.963   2.805
91989W        W55933  12.197  44.774   1.448
91990W        W55934  16.751  12.226   1.829
91991W        W55935  40.936  13.351   2.687
91992W        W55936  32.084   1.753   9.972
91993W        W55937  33.884  19.127  11.500
91994W        W55938  18.157  40.009   3.729
91995W        W55939   9.178  28.998   3.217
91996W        W55940  23.095  21.073   2.670
91997W        W55941   2.320   8.295  14.900
91998W        W55942  16.169   2.880   1.744
91999W        W55943   7.306  36.451  11.532
92000W        W55944  33.095  22.725  14.855
92001W        W55945  26.693  17.649  11.959
92002W        W55946   3.369   7.418  12.520
92003W        W55947  13.325   8.232   3.337
92004W        W55948  23.045  36.583  12.033
92005W        W55949  14.752   3.220   0.253
92006W        W55950  17.714  43.793  11.915
92007W        W55951  38.012   9.395   2.184
92008W        W55952  27.959  23.217   1.754
92009W        W55953   1.423   0.927  11.004
92010W        W55954   0.861  32.591  13.062
92011W        W55955  17.800  34.442   4.797
92012W        W55956  37.433  13.111   2.787
92013W        W55957  27.961  30.472   3.843
92014W        W55958  18.759  10.148  10.944
92015W        W55959  23.993  23.722  10.550
92016W        W55960  17.302  40.382  10.052
92017W        W55961  30.659  40.909  12.865
92018W        W55962   4.870  38.943  14.953
92019W        W55963   3.370  16.081  12.565
92020W        W55964  36.351  39.923   4.313
92021W        W55965  31.585  30.414   4.719
92022W        W55966  36.923  16.248   0.362
92023W        W55967  44.984   2.331  12.916
92024W        W55968   7.788   0.916  13.847
92025W        W55969  10.829  19.729  14.345
92026W        W55970   9.340  40.822  11.563
92027W        W55971  20.724  36.357  13.981
92028W        W55972  10.710  37.390  13.040
92029W        W55973  24.696  42.850  12.442
92030W        W55974  43.812  31.409   4.777
92031W        W55975  25.520  27.661   2.409
92032W        W55976   0.442  29.950   2.327
92033W        W55977  31.120  17.788  10.570
92034W        W55978  21.036  22.665  12.842
92035W        W55979   7.711  30.514   4.631
92036W        W55980  36.455  14.684  10.422
92037W        W55981  20.724  26.511  12.067
92038W        W55982  28.638   0.847  12.371
92039W        W55983  10.381  30.076   3.225
92040W        W55984  41.788   0.890   3.822
92041W        W55985  21.117  20.056   3.866
92042W        W55986  27.577  29.000   2.807
92043W        W55987  13.644  27.535  10.926
92044W        W55988  33.454  21.677   0.840
92045W        W55989  19.690  10.754   3.693
92046W        W55990  15.667  19.272   4.644
92047W        W55991   9.687  26.035   4.244
92048W        W55992  35.471  17.633   0.272
92049W        W55993   6.763  33.470   1.914
92050W        W55994  36.967   2.942  10.976
92051W        W55995  43.922  21.557   4.200
92052W        W55996  14.210   9.250   9.932
92053W        W55997  33.515  31.509   4.349
92054W        W55998  38.950  40.415   1.427
92055W        W55999  24.021  42.513   0.791
92056W        W56000  35.022   7.303  12.401
92057W        W56001   1.385  15.136  10.544
92058W        W56002   0.451  44.479   3.679
92059W        W56003  23.231  21.092  11.604
92060W        W56004  32.636  32.077   0.481
92061W        W56005  20.237   1.853  11.491
92062W        W56006   9.749  40.877   4.163
92063W        W56007  32.488  30.634   2.266
92064W        W56008  22.708  32.137   0.827
92065W        W56009  15.817  32.443   3.737
92066W        W56010  44.913  19.719   4.196
92067W        W56011  17.596  29.539   1.858
92068W        W56012  21.606   8.753   4.247
92069W        W56013  41.327  33.380  14.281
92070W        W56014  30.911   5.895   0.388
92071W        W56015   2.457   2.742  11.859
92072W        W56016  23.089  42.459  11.606
92073W        W56017  19.661  18.701   4.312
92074W        W56018   1.266   5.266  14.020
92075W        W56019   9.820   1.813   3.786
92076W        W56020  10.251  29.999   0.291
92077W        W56021  36.943  11.771   0.866
92078W        W56022  16.178  22.568  10.610
92079W        W56023  40.964  27.052   2.687
92080W        W56024  23.696   8.896  11.883
92081W        W56025  44.796  12.133   4.240
92082W        W56026  16.260   7.379  12.941
92083W        W56027  25.683  17.105   3.331
92084W        W56028   9.311  33.985  14.785
92085W        W56029  13.687  43.270  11.520
92086W        W56030  13.793  28.992  13.911
92087W        W56031  27.071   0.851  12.507
92088W        W56032  22.702  15.788  13.978
92089W        W56033  27.965  16.204  14.002
92090W        W56034  38.363  19.755  12.882
92091W        W56035  42.020  30.101  12.483
92092W        W56036   8.736  33.534   3.248
92093W        W56037  27.179  17.100   0.746
92094W        W56038  21.691  13.673  10.938
92095W        W56039  21.068  40.878  11.068
92096W        W56040  32.912  36.475   2.404
92097W        W56041  43.768  39.338  13.019
92098W        W56042  17.238  15.702  12.515
92099W        W56043  14.313  26.642   4.778
92100W        W56044  13.213  18.687  12.362
92101W        W56045  18.074  26.581   4.826
92102W        W56046   4.917  31.599   2.320
92103W        W56047   4.731  35.905   0.848
92104W        W56048  41.898   7.392   5.114
92105W        W56049  18.653   7.900  13.390
92106W        W56050  11.724  23.697  10.969
92107W        W56051  23.009  43.938  12.372
92108W        W56052  39.488  26.659  11.383
92109W        W56053  19.765   0.926   3.168
92110W        W56054  34.878   9.204   3.794
92111W        W56055  13.627  12.259  14.283
92112W        W56056  26.197  11.177  11.112
92113W        W56057  38.854   6.834   3.185
92114W        W56058   0.361  17.210   0.925
92115W        W56059  25.576  33.002   2.736
92116W        W56060  19.128  24.567   5.287
92117W        W56061  37.992  41.936   0.810
92118W        W56062  25.018  23.700  11.963
92119W        W56063  28.158  44.980   2.222
92120W        W56064  23.067  42.356   3.153
92121W        W56065  23.546  24.589   2.287
92122W        W56066  19.618   6.357  11.059
92123W        W56067   2.469  20.106  14.508
92124W        W56068  29.034  12.219   1.262
92125W        W56069  39.453  37.016   4.762
92126W        W56070  13.250  19.697   9.938
92127W        W56071   6.349   5.879   2.379
92128W        W56072  11.633  41.424   0.424
92129W        W56073   6.684  26.563   2.903
92130W        W56074   6.270  41.518  11.578
92131W        W56075  13.727  36.441  10.597
92132W        W56076   2.804  38.888  13.399
92133W        W56077  44.909  17.720  12.934
92134W        W56078   6.289  17.561  11.888
92135W        W56079   2.318  10.353  11.007
92136W        W56080   5.900  36.436   0.313
92137W        W56081  31.038  40.859  12.394
92138W        W56082  29.157  13.693   4.640
92139W        W56083  20.235  15.699   0.824
92140W        W56084  16.722  31.931   0.834
92141W        W56085  26.110   0.260   2.260
92142W        W56086  13.327  22.115  11.993
92143W        W56087   6.892  22.157   4.330
92144W        W56088   1.463  12.810   0.766
92145W        W56089  38.389  32.087   3.245
92146W        W56090  12.814  21.572   3.817
92147W        W56091  12.253  41.848  12.538
92148W        W56092  11.243  21.701   3.271
92149W        W56093  41.393  16.227  10.466
92150W        W56094  15.221   7.857   1.833
92151W        W56095  24.064  15.137  14.848
92152W        W56096   5.912  28.979   2.743
92153W        W56097  13.758  28.524   1.782
92154W        W56098  22.021  18.104  13.980
92155W        W56099  27.560  43.965  10.622
92156W        W56100  29.945  26.512   3.849
92157W        W56101  34.070  40.534   1.328
92158W        W56102  32.124  32.496   1.320
92159W        W56103  26.669  44.893  12.035
92160W        W56104  13.187  25.552   0.826
92161W        W56105  15.738   7.903   4.174
92162W        W56106  15.135  20.100   1.832
92163W        W56107   4.318   9.754  12.948
92164W        W56108  15.250  17.762  12.560
92165W        W56109  42.512  21.615   4.200
92166W        W56110   6.365  37.430   0.755
92167W        W56111  13.319  41.474  11.975
92168W        W56112  38.514   3.306   2.350
92169W        W56113  34.498  25.631  13.439
92170W        W56114  41.296   1.366  12.839
92171W        W56115   3.424   8.676  13.954
92172W        W56116  29.590  25.624   2.715
92173W        W56117  39.393   2.302  12.393
92174W        W56118   8.217  15.297   2.215
92175W        W56119  32.092  40.427   0.246
92176W        W56120  19.126  26.163   4.608
92177W        W56121  18.065  19.152   1.240
92178W        W56122  13.683  19.741   3.357
92179W        W56123   2.815  16.121  11.469
92180W        W56124  27.995   2.421  12.062
92181W        W56125  31.532  37.357   4.351
92182W        W56126   4.315   0.392  14.491
92183W        W56127  23.235  20.600   3.349
92184W        W56128   5.782  44.977  11.932
92185W        W56129  31.042  16.749  13.437
92186W        W56130   2.435  30.621   1.904
92187W        W56131  13.667  37.427   2.826
92188W        W56132   9.363  14.256   2.226
92189W        W56133  13.160   4.752   3.306
92190W        W56134   5.872  13.275   2.200
92191W        W56135  10.152  31.559  13.978
92192W        W56136  43.819  32.533  12.352
92193W        W56137  21.693  18.157   2.203
92194W        W56138  39.841   2.928   4.747
92195W        W56139   8.342  17.067   3.718
92196W        W56140  14.807  23.557  13.987
92197W        W56141  18.721  19.639   0.911
92198W        W56142   3.910   8.197  14.812
92199W        W56143   8.357   6.867  11.944
92200W        W56144   4.863  29.609   1.415
92201W        W56145   4.944   9.299   3.720
92202W        W56146   2.246  40.962  14.291
92203W        W56147  26.696   6.319   1.370
92204W        W56148  17.267  31.009  10.502
92205W        W56149  44.289  34.457  14.322
92206W        W56150   0.844  38.885   0.766
92207W        W56151  15.672  44.455  13.012
92208W        W56152  11.843  37.559   4.745
92209W        W56153  40.356   8.776  13.943
92210W        W56154   3.305   4.783  11.588
92211W        W56155  14.728  23.083  12.946
92212W        W56156  32.453  32.441  12.532
92213W        W56157   4.933  18.073   2.900
92214W        W56158  16.261  31.469   4.342
92215W        W56159  29.469  24.979   4.249
92216W        W56160  40.843  34.009  13.512
92217W        W56161   1.434  22.186  11.413
92218W        W56162  13.332  32.011   4.688
92219W        W56163  42.508  20.096  11.126
92220W        W56164   2.722  43.460  12.524
92221W        W56165  27.659  16.779   3.777
92222W        W56166  14.257  24.131   3.671
92223W        W56167  12.324  21.555   2.893
92224W        W56168  28.949  14.723  13.982
92225W        W56169   8.707  16.183  14.509
92226W        W56170  26.499  19.779   2.299
92227W        W56171  13.821  24.554   1.874
92228W        W56172   1.865   2.953  11.545
92229W        W56173   3.862  23.677   1.276
92230W        W56174  17.247   0.743   3.267
92231W        W56175   6.234  19.093   1.777
92232W        W56176  23.147  28.441   2.215
92233W        W56177  42.457   2.884  12.054
92234W        W56178  12.320   8.657   0.362
92235W        W56179  22.730  25.978   3.369
92236W        W56180  21.637  21.232  14.331
92237W        W56181  39.970  18.091  12.860
92238W        W56182  41.411  18.124   1.894
92239W        W56183  17.305  35.906   4.674
92240W        W56184  10.697  25.121   3.707
92241W        W56185  12.719  21.027   3.777
92242W        W56186  34.413  17.142  14.514
92243W        W56187  21.027  23.665   4.279
92244W        W56188  14.672  44.936   2.767
92245W        W56189   7.204  16.766  14.407
92246W        W56190   0.918  34.041   0.790
92247W        W56191  32.613  39.328   0.479
92248W        W56192  33.409   0.400  11.931
92249W        W56193  17.128  26.669  13.806
92250W        W56194  31.575  16.786   1.254
92251W        W56195  26.061   5.829   0.299
92252W        W56196  16.239  19.161   2.735
92253W        W56197  12.184   5.339   4.680
92254W        W56198   4.416  30.040  10.895
92255W        W56199   6.238  31.542  10.551
92256W        W56200  16.566  14.183   5.196
92257W        W56201   3.922  43.314   0.855
92258W        W56202   6.767  10.343  11.065
92259W        W56203  16.753   2.414  14.809
92260W        W56204   8.780  44.329   4.258
92261W        W56205  38.859  22.730  11.043
92262W        W56206  13.222   2.829   9.934
92263W        W56207  14.152  44.359   0.314
92264W        W56208  44.358  44.347  12.875
92265W        W56209  30.439  39.452  11.542
92266W        W56210  39.865   8.772   3.656
92267W        W56211  40.046  41.019   0.271
92268W        W56212  33.925  20.672   0.389
92269W        W56213  41.497  27.129   2.290
92270W        W56214  39.381   0.817  11.862
92271W        W56215  11.211  27.459   2.761
92272W        W56216   7.846   5.880  12.348
92273W        W56217  30.474  17.780  12.991
92274W        W56218   8.870  13.782  12.059
92275W        W56219  32.019  38.822  13.943
92276W        W56220  15.787  21.161  12.963
92277W        W56221  40.993  25.635  13.922
92278W        W56222  38.505  28.674   3.657
92279W        W56223  34.559   2.855  10.602
92280W        W56224  38.964  11.732  12.911
92281W        W56225  24.512  18.764  10.458
92282W        W56226   9.791  13.335   1.747
92283W        W56227  24.506  35.913  10.986
92284W        W56228  23.672  13.813  13.973
92285W        W56229  26.048  19.640  13.971
92286W        W56230  13.331   1.918  10.471
92287W        W56231  10.701  20.117  12.464
92288W        W56232  30.114  28.514  11.971
92289W        W56233  20.132   7.717   5.126
92290W        W56234  38.930  21.531  10.134
92291W        W56235  28.052   5.896   3.805
92292W        W56236  19.603  14.629  10.437
92293W        W56237  15.283   6.396   2.341
92294W        W56238  28.018  24.655   3.245
92295W        W56239   2.303  15.615  12.549
92296W        W56240  44.878  19.174   1.794
92297W        W56241  36.353  16.177   1.316
92298W        W56242  31.621   5.397   3.652
92299W        W56243  11.821  19.696   1.353
92300W        W56244  17.160  13.785   2.853
92301W        W56245  10.826   4.433   0.798
92302W        W56246  10.677   9.817  10.550
92303W        W56247  32.967  28.580   4.243
92304W        W56248  24.484  34.065   1.423
92305W        W56249   2.295  11.694   0.916
92306W        W56250  31.011  27.575   4.790
92307W        W56251  24.982   4.340   0.773
92308W        W56252  12.696  24.175   4.714
92309W        W56253  26.584  38.370  12.084
92310W        W56254  42.939  42.303  13.486
92311W        W56255   8.380  42.892  11.933
92312W        W56256  42.411  41.415  14.946
92313W        W56257   4.846   7.287  11.043
92314W        W56258  18.654  29.927  14.998
92315W        W56259   6.888  28.965  12.487
92316W        W56260  35.050  17.681  12.431
92317W        W56261  11.672  33.499   2.307
92318W        W56262  38.893  37.573  11.097
92319W        W56263   2.956  21.728   1.270
92320W        W56264   3.880  36.078  10.612
92321W        W56265   1.852  12.138  13.996
92322W        W56266  19.115  43.403  11.436
92323W        W56267  23.687   7.200   3.833
92324W        W56268  21.625   9.205  13.814
92325W        W56269  41.297   6.823   1.262
92326W        W56270  41.995   7.257   1.301
92327W        W56271  43.398  41.007   0.751
92328W        W56272  20.111  24.558   0.954
92329W        W56273  38.469   0.287  11.536
92330W        W56274  23.516  16.568  14.913
92331W        W56275   0.943   8.741  11.603
92332W        W56276  39.414  38.411  12.088
92333W        W56277  25.000  19.169  12.079
92334W        W56278  20.102  20.091   1.340
92335W        W56279  41.428  29.955   2.828
92336W        W56280   2.740   3.837   4.203
92337W        W56281  12.779  33.385   2.364
92338W        W56282  34.986  17.700   4.624
92339W        W56283  20.593   9.750   4.122
92340W        W56284  22.731  27.983   4.633
92341W        W56285   3.897  33.043  14.344
92342W        W56286  34.039  12.135  10.980
92343W        W56287  21.226   7.715  14.023
92344W        W56288  13.160   5.887   2.736
92345W        W56289   5.260   7.875   9.507
92346W        W56290  11.626  42.780  12.488
92347W        W56291  17.778  37.367   2.178
92348W        W56292  26.163  23.001  13.398
92349W        W56293  23.229   7.736   0.409
92350W        W56294   4.910  17.764  14.503
92351W        W56295  33.003  24.645   1.243
92352W        W56296  35.953  22.133  13.425
92353W        W56297  40.945  36.369  12.545
92354W        W56298  34.039   7.221  12.401
92355W        W56299  20.588  42.008   3.266
92356W        W56300  32.590  37.338   3.147
92357W        W56301  41.977  15.778   1.699
92358W        W56302  37.904  23.662   0.881
92359W        W56303  36.574   5.291   3.170
92360W        W56304  10.655  31.959  11.894
92361W        W56305   1.967  42.985   5.224
92362W        W56306  18.678  29.066  13.806
92363W        W56307  33.500  27.101  13.977
92364W        W56308  39.930  24.098   0.275
92365W        W56309  44.814  43.285   3.223
92366W        W56310  18.563   4.734   3.700
92367W        W56311  21.191  22.224  12.053
92368W        W56312   4.225  34.394  14.367
92369W        W56313   2.335  15.227  14.312
92370W        W56314  41.009  37.942   3.775
92371W        W56315  34.486  25.154   0.334
92372W        W56316  35.559  34.404  10.956
92373W        W56317  28.111   0.882   2.306
92374W        W56318  24.189  39.387   2.822
92375W        W56319  37.986  33.091  11.113
92376W        W56320  33.381  21.244  11.957
92377W        W56321  35.967  30.554   3.258
92378W        W56322  15.300  26.173  14.831
92379W        W56323   3.856  23.663   3.217
92380W        W56324  39.450  13.809  12.035
92381W        W56325  35.463  16.200  14.773
92382W        W56326  12.183  21.608   0.473
92383W        W56327  15.729   3.956  11.593
92384W        W56328  17.161   3.432  12.928
92385W        W56329  17.107  21.226   4.768
92386W        W56330  32.087  19.718  10.928
92387W        W56331  16.588   1.876  13.005
92388W        W56332  25.641  17.130  11.881
92389W        W56333  31.020  21.649   2.224
92390W        W56334  12.254  20.249   0.755
92391W        W56335   3.862  23.219  13.941
92392W        W56336  42.798  13.330  14.007
92393W        W56337  29.919  41.840  14.810
92394W        W56338   8.825   9.738  13.345
92395W        W56339  36.433   7.732   3.859
92396W        W56340  19.281  27.667  12.931
92397W        W56341  20.663  40.964  12.369
92398W        W56342  22.010  31.536  12.076
92399W        W56343  15.296  18.264  11.462
92400W        W56344  21.661  15.190  13.367
92401W        W56345  44.869   8.318  11.599
92402W        W56346   4.772  12.247  12.378
92403W        W56347  14.834   0.274   2.719
92404W        W56348  41.401  33.518   2.770
92405W        W56349  31.943   6.912   0.475
92406W        W56350   8.233  38.876  14.456
92407W        W56351  24.648  21.712  12.372
92408W        W56352   2.792  21.230  14.874
92409W        W56353  23.687   5.433   0.401
92410W        W56354  40.978  21.231  14.446
92411W        W56355  14.642  30.003   0.911
92412W        W56356  26.070   9.321  14.765
92413W        W56357  38.438  39.899  13.004
92414W        W56358  25.580  18.112   4.132
92415W        W56359  26.657  22.646   3.724
92416W        W56360  35.901  35.385  14.958
92417W        W56361  31.031  25.626   0.388
92418W        W56362  23.105  34.039   1.408
92419W        W56363  22.527   5.733  13.988
92420W        W56364  14.830   4.922  10.124
92421W        W56365  35.871  42.970  13.056
92422W        W56366  10.383  36.455   1.351
92423W        W56367  34.448  39.492  14.822
92424W        W56368   7.751  21.633   4.210
92425W        W56369  15.802  19.065   1.265
92426W        W56370  39.518  34.399   3.757
92427W        W56371   9.284   7.673   0.897
92428W        W56372  21.730   3.407   4.169
92429W        W56373  15.285  19.064  12.879
92430W        W56374  12.708  38.345   1.313
92431W        W56375  21.728  40.418  14.773
92432W        W56376  14.242  43.382  10.954
92433W        W56377   1.818  42.429   2.730
92434W        W56378  21.627  15.727   4.817
92435W        W56379  36.032  39.946   0.259
92436W        W56380  30.104   7.205   3.346
92437W        W56381  35.524  23.524   2.185
92438W        W56382  35.882   9.751  10.431
92439W        W56383  13.133   9.691   1.264
92440W        W56384  14.225  37.910   0.287
92441W        W56385  11.218  12.347   4.606
92442W        W56386  44.930  34.519  13.308
92443W        W56387  43.778  21.656   1.874
92444W        W56388  38.528   7.812   4.820
92445W        W56389  29.936   8.889  11.861
92446W        W56390   7.353   7.869  11.045
92447W        W56391  20.271  25.157   3.313
92448W        W56392  14.310  17.727   3.810
92449W        W56393   9.375  24.058   1.381
92450W        W56394  41.482   2.948   3.154
92451W        W56395  14.659  29.576  12.845
92452W        W56396  12.120   8.886   3.297
92453W        W56397  25.962  33.397   3.665
92454W        W56398  27.193  37.029   1.906
92455W        W56399  38.393   1.281   1.248
92456W        W56400  38.870  36.406  12.959
92457W        W56401   8.178  30.422   0.737
92458W        W56402   8.327  23.009  11.605
92459W        W56403  35.867  25.047  14.904
92460W        W56404  44.981  16.231   4.335
92461W        W56405  13.695  10.703   3.734
92462W        W56406  33.421  27.598   1.225
92463W        W56407  19.088  16.183   2.233
92464W        W56408  30.540  20.531  11.881
92465W        W56409  35.007  20.759   4.689
92466W        W56410  30.460  25.670  11.486
92467W        W56411  19.754  27.063  11.512
92468W        W56412  34.047   8.338   2.868
92469W        W56413  44.784  41.448  14.984
92470W        W56414  38.453  41.976  11.509
92471W        W56415  23.205  38.564   0.833
92472W        W56416  29.130  15.624   1.446
92473W        W56417  24.999  39.436   2.733
92474W        W56418  18.735  33.112  14.454
92475W        W56419  23.726  24.193   3.325
92476W        W56420  41.370  43.441  13.005
92477W        W56421  15.166  36.087  12.010
92478W        W56422  22.138  35.472  11.582
92479W        W56423  25.059  14.175  11.923
92480W        W56424  32.499  39.055  10.024
92481W        W56425  30.543  25.140   1.740
92482W        W56426  22.239  27.474   3.356
92483W        W56427  29.449  38.407  12.400
92484W        W56428  17.292  39.361   4.813
92485W        W56429   6.331   4.244   2.314
92486W        W56430  12.642   9.812   1.358
92487W        W56431  43.416  26.673  13.927
92488W        W56432  25.472  34.003   3.314
92489W        W56433  44.937   0.956   2.698
92490W        W56434   0.259  43.351  12.079
92491W        W56435  38.347  12.168  11.521
92492W        W56436  40.031  36.998  13.481
92493W        W56437  32.095  38.325   0.963
92494W        W56438  32.390  37.034   0.964
92495W        W56439   5.272  31.633  14.290
92496W        W56440  34.451  27.537   1.818
92497W        W56441  43.388  13.277  14.414
92498W        W56442  41.872  39.878   0.306
92499W        W56443  24.576  37.869   0.736
92500W        W56444  34.984  27.975  11.915
92501W        W56445  16.161  44.500  11.024
92502W        W56446   8.257   4.755  14.824
92503W        W56447   9.250  36.464  10.930
92504W        W56448  41.306  44.265   4.688
92505W        W56449   4.929  33.107  13.851
92506W        W56450  34.086  34.881   1.231
92507W        W56451  14.292  10.359  13.467
92508W        W56452  23.089   1.456   3.711
92509W        W56453  43.787  38.831  13.990
92510W        W56454   7.833  36.085   3.352
92511W        W56455   7.790  13.654   4.282
92512W        W56456  27.985  35.487   2.689
92513W        W56457   6.393  39.975  13.477
92514W        W56458   6.880   9.298   1.399
92515W        W56459  11.658  22.606   4.760
92516W        W56460  18.282  40.006   4.747
92517W        W56461  35.504   6.753   3.342
92518W        W56462   9.337  21.704   0.822
92519W        W56463   7.313   9.149   3.864
92520W        W56464  26.581  39.419  10.138
92521W        W56465   4.805   8.818   0.771
92522W        W56466  41.790  36.047   4.667
92523W        W56467  16.766  43.366   4.271
92524W        W56468   4.725  14.111  10.940
92525W        W56469  26.669  24.121   1.446
92526W        W56470  42.287  33.562   2.392
92527W        W56471  22.221  18.194   1.769
92528W        W56472   9.840  22.092   4.666
92529W        W56473  16.297   5.421   2.374
92530W        W56474  15.586  44.996  13.392
92531W        W56475  29.571  26.960  14.927
92532W        W56476  34.549   9.381  13.430
92533W        W56477  33.962  31.557  10.949
92534W        W56478  14.707  37.426  14.392
92535W        W56479  36.867  12.786  11.867
92536W        W56480  39.463  16.685  12.343
92537W        W56481   1.789  18.724  12.441
92538W        W56482  36.496   6.269   2.804
92539W        W56483  42.945  25.169   2.827
92540W        W56484  29.014  32.553  14.761
92541W        W56485  14.256  10.790   2.751
92542W        W56486   5.827  34.371   0.462
92543W        W56487  10.301  24.219   0.929
92544W        W56488  21.561  34.463  13.801
92545W        W56489  25.075  37.919  12.844
92546W        W56490  42.981   2.238   0.756
92547W        W56491   4.325   2.791   4.750
92548W        W56492  26.196  41.363   4.180
92549W        W56493  12.749  35.878   2.821
92550W        W56494  25.643  34.548  11.551
92551W        W56495  22.100   4.206  12.836
92552W        W56496  29.105  27.672  12.898
92553W        W56497   1.927  11.301   2.272
92554W        W56498   7.265  13.227  11.498
92555W        W56499  37.986  40.979   2.694
92556W        W56500  16.725  38.350   4.260
92557W        W56501   9.280  22.043   4.203
92558W        W56502  43.996   9.175   3.152
92559W        W56503  22.576  35.079  10.618
92560W        W56504  29.632  44.461   1.446
92561W        W56505  19.050  37.847   2.813
92562W        W56506   9.725  14.823  14.968
92563W        W56507  22.681  18.770   4.311
92564W        W56508  29.636  11.240  13.412
92565W        W56509  26.567  16.763  14.772
92566W        W56510  17.201   0.984  10.954
92567W        W56511   0.263  34.516   2.222
92568W        W56512  21.735  44.359   1.731
92569W        W56513  44.316   6.212  10.993
92570W        W56514  37.921   9.672   1.893
92571W        W56515  36.897  26.522  14.333
92572W        W56516  37.455  18.757   2.213
92573W        W56517   4.827  33.983  13.431
92574W        W56518  30.638  43.826   3.330
92575W        W56519  32.124  41.890  12.557
92576W        W56520   4.736   7.795   1.212
92577W        W56521  32.605  43.329   0.750
92578W        W56522  20.119  44.862   3.655
92579W        W56523  11.346  37.994  11.128
92580W        W56524  36.900  10.646   4.213
92581W        W56525  28.184   3.744   1.225
92582W        W56526  17.761  23.585   0.381
92583W        W56527   6.286   8.706  14.283
92584W        W56528  28.672  44.758   4.779
92585W        W56529  21.661  24.684  14.298
92586W        W56530  43.870  39.478  10.630
92587W        W56531  34.499   7.268  11.090
92588W        W56532  22.228  23.507   2.240
92589W        W56533  37.490  37.566   2.733
92590W        W56534  35.482   7.242   3.283
92591W        W56535  16.146  10.683  13.960
92592W        W56536  40.453  16.292  14.442
92593W        W56537  26.647  23.218  10.581
92594W        W56538   1.811  21.216   1.753
92595W        W56539  25.193  44.385  10.614
92596W        W56540  31.045   4.357  10.573
92597W        W56541  17.614  35.047  11.883
92598W        W56542  42.300  42.290  11.877
92599W        W56543   6.743  12.816  13.040
92600W        W56544  37.434   4.725  14.908
92601W        W56545  35.436  34.115  13.530
92602W        W56546  44.952  44.393  14.759
92603W        W56547  11.718  31.560  14.914
92604W        W56548  29.605  11.265  14.495
92605W        W56549  29.664  43.453   3.690
92606W        W56550  44.342  43.306  14.928
92607W        W56551   6.787  13.747  11.042
92608W        W56552  11.720  21.599   4.247
92609W        W56553  39.317  29.472  11.017
92610W        W56554  43.283   4.760  14.972
92611W        W56555  12.670  26.011  10.599
92612W        W56556  35.450  11.364   3.751
92613W        W56557  36.569   1.793   2.750
92614W        W56558  42.444   0.792  12.063
92615W        W56559  40.020  36.393   1.313
92616W        W56560  31.532  29.926  10.933
92617W        W56561  40.524  43.363   2.858
92618W        W56562  22.574   0.436   1.737
92619W        W56563  14.237  17.138  13.985
92620W        W56564   8.354   3.370   3.162
92621W        W56565  32.059  27.488   3.328
92622W        W56566  35.537  24.989  11.966
92623W        W56567  42.836  19.215   4.819
92624W        W56568  14.680  20.631   3.691
92625W        W56569  17.140  44.990  11.490
92626W        W56570  21.731  30.980   3.222
92627W        W56571  32.995   6.729   1.428
92628W        W56572  34.879  12.705  11.104
92629W        W56573  35.362  40.363  10.422
92630W        W56574  42.951  18.179   3.264
92631W        W56575   9.352  34.010  14.309
92632W        W56576  22.690  31.928   1.303
92633W        W56577   5.387  32.565  12.475
92634W        W56578  25.602   2.909   2.407
92635W        W56579  12.298   8.323   1.289
92636W        W56580   6.340  14.685   0.731
92637W        W56581  40.378  16.611   0.312
92638W        W56582   2.943   0.793  13.941
92639W        W56583   5.886   5.301  12.832
92640W        W56584  41.823  39.325  13.538
92641W        W56585  15.321  13.227  10.516
92642W        W56586  42.026  12.612   5.115
92643W        W56587  22.090   2.877   2.901
92644W        W56588  13.157  26.111   1.428
92645W        W56589  35.905  41.970  13.448
92646W        W56590  10.294  26.980   3.236
92647W        W56591  36.866  24.006  11.942
92648W        W56592  11.799  22.548  10.597
92649W        W56593  43.941   0.953  10.634
92650W        W56594  11.300  36.044   4.816
92651W        W56595   0.474  27.194   4.170
92652W        W56596   4.258  43.002   3.370
92653W        W56597  27.146   7.668   4.751
92654W        W56598  13.825  41.819   2.259
92655W        W56599  28.602  13.340  10.951
92656W        W56600   9.257   8.214  12.468
92657W        W56601  28.564  13.314   1.343
92658W        W56602   4.296   1.818   1.327
92659W        W56603  21.608  35.985   4.124
92660W        W56604  38.024  22.137   3.846
92661W        W56605  21.089   9.167   3.642
92662W        W56606  15.616  20.623  10.498
92663W        W56607   8.218  42.380   0.883
92664W        W56608  12.811  14.123   3.317
92665W        W56609  12.330  10.771   0.447
92666W        W56610  38.076  40.810   3.309
92667W        W56611  29.530   0.300   1.314
92668W        W56612  23.501   2.725  11.971
92669W        W56613  33.399  40.324  12.056
92670W        W56614  22.656  16.672   2.391
92671W        W56615  10.696  33.104  12.989
92672W        W56616  21.059  23.197  10.634
92673W        W56617  35.604   2.770  12.578
92674W        W56618  21.164  18.089   1.298
92675W        W56619  13.676  29.157  11.487
92676W        W56620  43.452  43.315  13.988
92677W        W56621  44.787  23.218   4.687
92678W        W56622  42.341  34.865  13.003
92679W        W56623  19.089  43.334  12.520
92680W        W56624  17.603  20.576  10.084
92681W        W56625   6.819  42.932   4.191
92682W        W56626  39.448   6.716  10.458
92683W        W56627  20.730  41.888   0.967
92684W        W56628  35.594  39.974   0.243
92685W        W56629  19.612  35.505   4.252
92686W        W56630   7.845  24.631   3.745
92687W        W56631  33.075   7.389   0.846
92688W        W56632  33.585  14.134   3.364
92689W        W56633   1.343   9.172   0.244
92690W        W56634  19.051   4.722   4.798
92691W        W56635  12.623  25.599  14.917
92692W        W56636  30.464  33.994  10.500
92693W        W56637   8.660  38.980   1.799
92694W        W56638  34.409  27.088  10.643
92695W        W56639  20.714  39.036   1.762
92696W        W56640  34.497   9.160   1.425
92697W        W56641  31.451  11.334  14.805
92698W        W56642  40.860   2.468   2.355
92699W        W56643  12.848  34.411  11.012
92700W        W56644  14.825  26.559  11.115
92701W        W56645  32.402  43.821   4.201
92702W        W56646  30.937  39.858   3.753
92703W        W56647  14.207   4.887  11.018
92704W        W56648   7.675  28.515  11.956
92705W        W56649  21.080  11.171   3.338
92706W        W56650   7.834  19.634  13.020
92707W        W56651  39.938  32.483  14.434
92708W        W56652  37.053  29.982  10.586
92709W        W56653  27.520   1.417  13.899
92710W        W56654  17.304   2.892   1.244
92711W        W56655   7.401  29.453  13.330
92712W        W56656   3.282  23.605  12.828
92713W        W56657   1.739   5.217   2.753
92714W        W56658  41.458   4.427   2.197
92715W        W56659  24.168  23.691   1.323
92716W        W56660  31.086  38.926   4.653
92717W        W56661  42.867  24.187  14.307
92718W        W56662  22.161  21.133   2.261
92719W        W56663  43.772  39.360   0.758
92720W        W56664  23.001  14.340   2.806
92721W        W56665  13.343   3.345  11.470
92722W        W56666  23.095  23.549  14.359
92723W        W56667  27.059   5.409  13.919
92724W        W56668  24.095  15.269   2.223
92725W        W56669  25.005  19.622   2.395
92726W        W56670  39.456  34.476   1.414
92727W        W56671  36.995  34.387   3.729
92728W        W56672  32.012  42.009   2.390
92729W        W56673  28.138  25.205  10.084
92730W        W56674  30.523  28.185   2.408
92731W        W56675  44.497   9.286  11.569
92732W        W56676  20.650   2.362  12.979
92733W        W56677  41.976   3.331   4.645
92734W        W56678   5.215  25.024   1.924
92735W        W56679   6.358  19.557   1.400
92736W        W56680  35.966  34.039  11.428
92737W        W56681  43.793  25.579   4.771
92738W        W56682  29.928  27.481  10.970
92739W        W56683  33.448  20.766  14.398
92740W        W56684  32.601  14.259   1.344
92741W        W56685   8.741  44.880   2.754
92742W        W56686   0.969  35.532   1.802
92743W        W56687  42.867   7.189   4.340
92744W        W56688  18.575   0.323  12.453
92745W        W56689  20.757  18.732  12.825
92746W        W56690  29.958  37.034  10.943
92747W        W56691  30.436   6.260   0.280
92748W        W56692  35.006  10.811  11.882
92749W        W56693  42.416  33.029  12.838
92750W        W56694   5.862   6.358  12.428
92751W        W56695  37.503  28.447   0.789
92752W        W56696  41.788  29.095   0.245
92753W        W56697  43.293  36.407   3.800
92754W        W56698   5.207   1.424  14.509
92755W        W56699   8.215  12.118   0.805
92756W        W56700  35.072  20.167  13.914
92757W        W56701  39.813   2.379  12.343
92758W        W56702  35.517  36.467  13.857
92759W        W56703  21.166   0.410  12.903
92760W        W56704  12.703  39.025  14.345
92761W        W56705   9.188  24.713  11.532
92762W        W56706  38.071  20.627   2.273
92763W        W56707  23.643   4.267   1.771
92764W        W56708  21.165  39.935   2.849
92765W        W56709  29.963  23.626  11.472
92766W        W56710  24.680  33.027   1.392
92767W        W56711  40.527   2.926  13.511
92768W        W56712  39.005  15.155   3.737
92769W        W56713  34.427  14.183   1.846
92770W        W56714  37.885  39.346  11.127
92771W        W56715  41.809  35.100   0.877
92772W        W56716  32.524  29.990   1.934
92773W        W56717   1.731  36.090   1.907
92774W        W56718  10.746  41.000   4.188
92775W        W56719  31.497   4.889  14.958
92776W        W56720  43.369  20.592   4.820
92777W        W56721  24.639   0.341  13.951
92778W        W56722  42.370  42.332  13.324
92779W        W56723  33.919  31.921   3.199
92780W        W56724  43.299  26.629   5.136
92781W        W56725  18.752  15.656  14.334
92782W        W56726  26.035  25.030  12.506
92783W        W56727   8.713  27.630   5.640
92784W        W56728   5.829  35.954   0.342
92785W        W56729  24.108  42.436   0.472
92786W        W56730  11.769   2.279  10.459
92787W        W56731  12.752  31.984  13.387
92788W        W56732   3.865   9.662   3.706
92789W        W56733   4.908  43.460  11.449
92790W        W56734  40.505  11.208  12.845
92791W        W56735   7.792  31.563  13.379
92792W        W56736  19.708  40.471  12.884
92793W        W56737  36.865  29.589  11.107
92794W        W56738   2.256  37.979   3.638
92795W        W56739  43.918   5.424   3.276
92796W        W56740  19.742  32.970   0.327
92797W        W56741   2.850   0.896  10.968
92798W        W56742   6.754  41.014  13.042
92799W        W56743   2.904   3.331  10.039
92800W        W56744  28.519  38.428  12.420
92801W        W56745  16.186   0.973  11.569
92802W        W56746  43.295  44.354  12.825
92803W        W56747  21.144  42.396  11.607
92804W        W56748  40.846  20.745  13.901
92805W        W56749  40.804  22.175   4.658
92806W        W56750  28.019  41.393   0.811
92807W        W56751  10.245   1.256   2.796
92808W        W56752  21.590  29.438   2.860
92809W        W56753  37.878  40.361  14.443
92810W        W56754  38.340  43.952  10.637
92811W        W56755  24.077   7.317  14.779
92812W        W56756  42.969  36.010  13.852
92813W        W56757  13.609  42.442  14.501
92814W        W56758  40.051  13.642   3.166
92815W        W56759  22.552  16.113   1.746
92816W        W56760  17.254  20.670  10.629
92817W        W56761  10.322  25.497  11.954
92818W        W56762  15.657  28.035   3.697
92819W        W56763  36.860  19.603  13.022
92820W        W56764  13.316  25.480   3.786
92821W        W56765   6.826  34.937   1.314
92822W        W56766   8.807  27.488   2.324
92823W        W56767   9.678  41.786  13.404
92824W        W56768  21.209  36.066   0.336
92825W        W56769  22.091  27.152  11.555
92826W        W56770  19.060  39.984   3.724
92827W        W56771   1.357  16.131   4.694
92828W        W56772   0.753   4.439   0.795
92829W        W56773  23.038  32.526  13.022
92830W        W56774  16.167  16.227   3.734
92831W        W56775  28.162  26.632  11.943
92832W        W56776  18.251   8.222   0.776
92833W        W56777  41.020  14.684  10.576
92834W        W56778  34.085  38.888  10.604
92835W        W56779   8.322  18.207  11.955
92836W        W56780  40.987  29.011   3.287
92837W        W56781  16.598  37.966  11.939
92838W        W56782  34.371  28.618   1.833
92839W        W56783  38.351  22.507   3.839
92840W        W56784  44.472  30.454   1.435
92841W        W56785  31.003  37.025  10.461
92842W        W56786   7.900  17.789  12.352
92843W        W56787  23.187  35.890   4.637
92844W        W56788  33.585  41.948  13.794
92845W        W56789  17.795  28.533  13.876
92846W        W56790  29.040  41.485  12.881
92847W        W56791  18.062  13.712   4.314
92848W        W56792  29.629  10.666  14.510
92849W        W56793  11.345  12.173   2.881
92850W        W56794  10.277  39.866   1.253
92851W        W56795   7.380  17.764   4.195
92852W        W56796  42.442  37.568   4.835
92853W        W56797  16.256  44.279   9.937
92854W        W56798  16.727  35.853  14.381
92855W        W56799  13.730   3.396   2.724
92856W        W56800   4.336  24.981  13.460
92857W        W56801  11.628   1.827  10.551
92858W        W56802   9.814  33.129  12.044
92859W        W56803   8.713  18.720  13.367
92860W        W56804   5.435  18.214  13.431
92861W        W56805   7.790  14.739  11.857
92862W        W56806  38.033  38.354  12.834
92863W        W56807   5.379   0.276  10.916
92864W        W56808  44.959  29.059  12.964
92865W        W56809  26.998  41.003   2.822
92866W        W56810   5.701  42.330  13.368
92867W        W56811  19.717  40.338  14.447
92868W        W56812  33.580   6.305  14.384
92869W        W56813  20.182  26.956  14.451
92870W        W56814   7.244   4.405   4.314
92871W        W56815   3.854   0.363  11.561
92872W        W56816  18.194  32.442  14.390
92873W        W56817  27.124  18.723  12.348
92874W        W56818  39.431  18.197  13.529
92875W        W56819   3.751  27.521  11.103
92876W        W56820  41.373  10.326  13.941
92877W        W56821  21.240  37.962   2.816
92878W        W56822  42.956  35.539   3.194
92879W        W56823  12.191  12.762   1.272
92880W        W56824  32.628  15.273   4.287
92881W        W56825  32.471   9.151   2.188
92882W        W56826  31.534  13.726  11.910
92883W        W56827  10.708  44.294   4.818
92884W        W56828   3.284  26.084   2.364
92885W        W56829   7.891  14.706  14.409
92886W        W56830  42.793  44.765  10.572
92887W        W56831  42.476   3.737  12.038
92888W        W56832  29.486  37.857  11.502
92889W        W56833  18.632  41.417  11.557
92890W        W56834  26.962  13.640   0.727
92891W        W56835  35.933  22.246   0.443
92892W        W56836  38.044  34.962  11.932
92893W        W56837  34.568  12.247   3.179
92894W        W56838  41.966  10.370  10.938
92895W        W56839  34.405  14.654   1.422
92896W        W56840  39.892  39.063  12.563
92897W        W56841   7.239  42.789   1.840
92898W        W56842  10.195  41.982  13.878
92899W        W56843  32.475  22.022   4.639
92900W        W56844   2.462  30.416   0.389
92901W        W56845  31.625  22.745  14.315
92902W        W56846  33.531   3.807   2.346
92903W        W56847   5.419  16.185  12.908
92904W        W56848  29.621  40.475   3.655
92905W        W56849  44.945  30.622  11.488
92906W        W56850  12.772   1.250   2.266
92907W        W56851  29.107  42.485   5.194
92908W        W56852  31.620  29.975  12.907
92909W        W56853   2.416   5.308   3.201
92910W        W56854   8.270  33.896   4.319
92911W        W56855  10.338   9.369   0.314
92912W        W56856  20.267  32.433   4.749
92913W        W56857   9.725   4.707  11.535
92914W        W56858   4.786   8.207   4.141
92915W        W56859  10.786  41.936  12.539
92916W        W56860  32.438   1.353  13.009
92917W        W56861  26.503   5.329  10.968
92918W        W56862  25.186  17.065  14.304
92919W        W56863  41.841  14.300  12.501
92920W        W56864  34.951  36.878  13.433
92921W        W56865   7.180  36.008   2.711
92922W        W56866  31.126  19.269  13.859
92923W        W56867  33.020  10.294   3.357
92924W        W56868   6.894  38.075  11.958
92925W        W56869  31.609  19.189  12.430
92926W        W56870  16.720  36.034   2.272
92927W        W56871  30.060  44.297   4.715
92928W        W56872  32.885   5.432   1.264
92929W        W56873  26.637  14.644   4.641
92930W        W56874  34.012   6.424  12.436
92931W        W56875  10.802  40.423  13.500
92932W        W56876   7.821  43.414   3.799
92933W        W56877  19.657   4.218   2.709
92934W        W56878   1.339  42.876  14.812
92935W        W56879   4.389  36.464   2.784
92936W        W56880  38.363  26.488  12.924
92937W        W56881  22.222   3.761   1.352
92938W        W56882  34.015  36.492   1.753
92939W        W56883   7.760  30.932   0.832
92940W        W56884  36.058  30.917   3.694
92941W        W56885  42.891   1.338  10.548
92942W        W56886  15.802   1.448   3.280
92943W        W56887  44.004  26.664  11.563
92944W        W56888  41.337  19.083   0.363
92945W        W56889  24.540  39.856  11.581
92946W        W56890  15.594   4.756   0.818
92947W        W56891  29.054  38.958   1.289
92948W        W56892  44.858  32.022   9.973
92949W        W56893   9.187  39.490  11.561
92950W        W56894  16.226  37.408  12.963
92951W        W56895  29.920  10.760  13.409
92952W        W56896  20.246  39.382  14.941
92953W        W56897  40.433   1.422  11.399
92954W        W56898  31.953  17.789   0.748
92955W        W56899  28.534  29.568  11.092
92956W        W56900  23.718  32.430  13.532
92957W        W56901  12.289  26.071   4.810
92958W        W56902  36.087  11.777   4.755
92959W        W56903  42.473   0.367  10.593
92960W        W56904   5.760  26.006   1.415
92961W        W56905   9.842  19.678  12.576
92962W        W56906   6.804   2.407  11.480
92963W        W56907  38.332  31.474  11.959
92964W        W56908  40.329   7.308  13.415
92965W        W56909  39.512  38.060   3.657
92966W        W56910  20.237  37.455   1.773
92967W        W56911   6.698  27.166   3.293
92968W        W56912  15.812  33.067   2.350
92969W        W56913  23.140  18.138  11.456
92970W        W56914  40.335  42.444   2.252
92971W        W56915  12.630  32.479  13.812
92972W        W56916  28.136  24.156   4.227
92973W        W56917  25.122  26.972   1.368
92974W        W56918  21.525   8.262  11.393
92975W        W56919  21.675  33.104   1.768
92976W        W56920  26.019  14.650  11.427
92977W        W56921  26.118  39.542   2.759
92978W        W56922   2.411   6.725   2.828
92979W        W56923   4.309  36.025  14.930
92980W        W56924   0.900  31.120  14.866
92981W        W56925  11.213  11.689   3.354
92982W        W56926  41.000   8.216  14.887
92983W        W56927   6.258   0.986  11.485
92984W        W56928   9.799   3.745  14.947
92985W        W56929  26.181   0.318   4.607
92986W        W56930  34.078   6.296   9.953
92987W        W56931  13.623  35.903  14.768
92988W        W56932  14.120   0.481   3.178
92989W        W56933   8.163  25.186   1.858
92990W        W56934   3.879   2.285  10.617
92991W        W56935   2.946  20.247   4.141
92992W        W56936  35.039  29.453   2.331
92993W        W56937   5.209  19.767   1.723
92994W        W56938  39.021  41.849  10.445
92995W        W56939   4.699  31.034  11.508
92996W        W56940  38.020  22.550   3.164
92997W        W56941  17.700  27.042   2.743
92998W        W56942  38.397   4.872   1.336
92999W        W56943  23.614  21.145  10.441
93000W        W56944  16.809   4.774  11.477
93001W        W56945   8.785  33.086  11.989
93002W        W56946  40.928  10.219   0.470
93003W        W56947  36.380  19.176   3.169
93004W        W56948  17.718   2.279   0.419
93005W        W56949  16.655  20.061  12.525
93006W        W56950  20.039  30.562   2.351
93007W        W56951  32.549  26.036   2.844
93008W        W56952   2.912  43.957   4.341
93009W        W56953  18.612  33.506   5.176
93010W        W56954  35.929  30.592  12.379
93011W        W56955   2.856  16.712   1.244
93012W        W56956   7.195  26.067  14.504
93013W        W56957   3.840  15.593  10.631
93014W        W56958   6.317  41.035  12.535
93015W        W56959   2.865  30.624  11.072
93016W        W56960  27.588   4.770   3.363
93017W        W56961  26.002  17.570   4.642
93018W        W56962  29.632  14.301  11.934
93019W        W56963  15.710   9.200  13.817
93020W        W56964   7.758  41.496   3.381
93021W        W56965  43.481  14.153   4.607
93022W        W56966   1.857  18.119   3.719
93023W        W56967   5.276  28.124  11.935
93024W        W56968  27.546  23.093   4.227
93025W        W56969   2.244  36.089  10.149
93026W        W56970  18.269  25.970   4.701
93027W        W56971   7.221  31.949  14.970
93028W        W56972   3.413   8.883   2.765
93029W        W56973   9.204   7.300  12.058
93030W        W56974  34.413  18.139  11.085
93031W        W56975  17.801  22.546   2.389
93032W        W56976  41.507  34.472  12.521
93033W        W56977  23.645  39.811  14.802
93034W        W56978  30.928  36.389   3.187
93035W        W56979  24.021  43.473   0.919
93036W        W56980  19.261  44.942   2.870
93037W        W56981   7.769  34.542   0.967
93038W        W56982  23.212  26.519  11.584
93039W        W56983  13.151  33.577   9.594
93040W        W56984  40.429  35.507   0.728
93041W        W56985   3.285  15.686   4.662
93042W        W56986  20.590  35.082  13.412
93043W        W56987  34.592  40.370   0.458
93044W        W56988  23.729   6.812  13.992
93045W        W56989  41.304  42.508   2.276
93046W        W56990  24.633  29.668  12.004
93047W        W56991  37.477  39.832   4.711
93048W        W56992   9.866  34.602  14.450
93049W        W56993  24.693  24.481  11.865
93050W        W56994  18.152   2.813   4.759
93051W        W56995  38.350  13.751  11.390
93052W        W56996  28.971   9.337   0.846
93053W        W56997  26.038  11.249   1.915
93054W        W56998  29.076  30.659  11.093
93055W        W56999  33.493  12.766  10.531
93056W        W57000  22.184  27.634   2.333
93057W        W57001   0.838  28.456   1.884
93058W        W57002  13.619  15.787   3.684
93059W        W57003  10.357  38.855  14.502
93060W        W57004  43.768   1.822  12.438
93061W        W57005  24.705  31.523  14.977
93062W        W57006  12.131  40.413  14.871
93063W        W57007  40.012  44.830  14.480
93064W        W57008  24.482  20.726   0.452
93065W        W57009  38.436  16.802   4.221
93066W        W57010   9.661  27.183  11.041
93067W        W57011  41.861   9.771  13.907
93068W        W57012  22.722  35.991  11.918
93069W        W57013   0.250   3.226  14.919
93070W        W57014  14.264   9.391   4.649
93071W        W57015  42.947  15.696   4.262
93072W        W57016  19.257  42.966  12.384
93073W        W57017  17.208  11.127  13.899
93074W        W57018  37.927  38.428   4.271
93075W        W57019  19.755  11.766  10.957
93076W        W57020  36.962  23.034   3.255
93077W        W57021  21.723  15.297   3.176
93078W        W57022  41.008   1.410  14.309
93079W        W57023   5.819  36.850  13.511
93080W        W57024  34.382  12.155   4.729
93081W        W57025  16.690  24.714   1.874
93082W        W57026  13.625  32.454  12.928
93083W        W57027  20.104  37.340   4.222
93084W        W57028  15.578   6.693  12.358
93085W        W57029  15.748   0.987  12.457
93086W        W57030  33.034   0.846   4.601
93087W        W57031  20.272   6.306  13.337
93088W        W57032  42.875  16.670   2.336
93089W        W57033   7.910  30.540  11.978
93090W        W57034  13.226  33.979   3.190
93091W        W57035  22.100  34.516  10.888
93092W        W57036  42.946  14.321  12.350
93093W        W57037   9.874   2.275   2.334
93094W        W57038   4.215   8.865  11.950
93095W        W57039  11.815  13.231   4.598
93096W        W57040  35.963  39.857  12.946
93097W        W57041  32.582   9.394  12.367
93098W        W57042   8.702  37.020  14.909
93099W        W57043   0.933  22.053   0.303
93100W        W57044   1.266  41.382   0.377
93101W        W57045  30.999   1.766  12.401
93102W        W57046   4.447  30.441   3.868
93103W        W57047  33.444  38.349   0.820
93104W        W57048  41.511  44.477   2.366
93105W        W57049  34.889  34.454  12.471
93106W        W57050   2.893  39.556  11.502
93107W        W57051   9.270  26.029   4.835
93108W        W57052  15.162  40.549   4.280
93109W        W57053   8.233   1.758   4.784
93110W        W57054   5.398   1.332   1.446
93111W        W57055   8.321  20.274  14.783
93112W        W57056  18.570  13.265  10.494
93113W        W57057  13.712   2.465   4.291
93114W        W57058  24.582  22.094   0.454
93115W        W57059  20.115  38.945   2.729
93116W        W57060  38.330   8.805  13.387
93117W        W57061  38.960  17.655  12.912
93118W        W57062  33.441  25.191  14.424
93119W        W57063   8.256   3.395   4.215
93120W        W57064  15.292  28.467  13.017
93121W        W57065  22.227  32.104   0.912
93122W        W57066   2.753  15.092  14.874
93123W        W57067   5.773  15.682  14.315
93124W        W57068   9.327   4.727  10.001
93125W        W57069  27.995  37.437   4.120
93126W        W57070   2.244  30.050  12.471
93127W        W57071   0.766  41.327  13.309
93128W        W57072  32.137  36.402  12.508
93129W        W57073  18.764  41.893   0.269
93130W        W57074  12.632   1.778  12.956
93131W        W57075  33.110   3.845  10.578
93132W        W57076  15.131   0.455   0.951
93133W        W57077  21.650  38.378   4.667
93134W        W57078   2.261   2.314   2.772
93135W        W57079  40.006  12.780  12.411
93136W        W57080  25.201  28.117   2.870
93137W        W57081  27.486  37.990  10.133
93138W        W57082  35.063  40.500   4.737
93139W        W57083  22.747  27.603  14.413
93140W        W57084  39.397  26.191   1.770
93141W        W57085  41.385  32.910   4.181
93142W        W57086  38.057  18.595   3.789
93143W        W57087   0.877  12.734   5.203
93144W        W57088  24.977  12.247   0.845
93145W        W57089   3.738  34.387   4.220
93146W        W57090   7.792  17.074   2.397
93147W        W57091  19.052  12.676  12.021
93148W        W57092  12.673   8.769  13.316
93149W        W57093  28.977  38.406  14.783
93150W        W57094   1.372  20.250   1.844
93151W        W57095  40.949   4.396   4.144
93152W        W57096  34.435  13.325   2.363
93153W        W57097  37.953  29.428   4.779
93154W        W57098  22.731  30.015  10.451
93155W        W57099   3.889  22.192   1.752
93156W        W57100  15.793  42.339  12.084
93157W        W57101  27.448  32.446   1.402
93158W        W57102  12.230  17.766  13.543
93159W        W57103   0.816  10.229  13.041
93160W        W57104  31.146  37.522   0.274
93161W        W57105  22.207  31.569   0.907
93162W        W57106  36.087  42.283  11.972
93163W        W57107  22.120  13.642  14.772
93164W        W57108  37.538   5.396  11.474
93165W        W57109  28.451  31.481  12.042
93166W        W57110  28.931  18.755   3.347
93167W        W57111  28.589  19.069  10.503
93168W        W57112  11.706  36.086  14.466
93169W        W57113  17.259  28.655   0.937
93170W        W57114  24.545   6.319  14.503
93171W        W57115  40.545  18.747   1.438
93172W        W57116  44.425  21.665   1.839
93173W        W57117  34.442   6.783  13.056
93174W        W57118  44.909  26.206  12.503
93175W        W57119  38.428  13.676  12.861
93176W        W57120  17.127  18.176  14.878
93177W        W57121  26.149  10.674  14.850
93178W        W57122  41.827  11.815   0.404
93179W        W57123   0.256  11.232   4.322
93180W        W57124  20.121   3.421   0.912
93181W        W57125  35.512  33.601   1.837
93182W        W57126  23.043  44.768  14.446
93183W        W57127   2.895  16.238   0.451
93184W        W57128  22.235  27.127   1.919
93185W        W57129  30.531  17.146   4.185
93186W        W57130  28.021  20.606   0.324
93187W        W57131  34.520  31.021  12.453
93188W        W57132  30.051  40.485  11.018
93189W        W57133  41.890  42.844  13.989
93190W        W57134  39.870   6.364   2.352
93191W        W57135  14.132  28.047   2.715
93192W        W57136  10.313  21.632   3.341
93193W        W57137   4.803   8.758   4.633
93194W        W57138  35.565  42.955   2.240
93195W        W57139  36.009  32.619  14.404
93196W        W57140  30.997  39.319   0.276
93197W        W57141  13.665  20.253   4.716
93198W        W57142  41.038  14.832   2.307
93199W        W57143  43.958  12.701  10.610
93200W        W57144  13.773   0.275   2.892
93201W        W57145  26.520  27.446   4.161
93202W        W57146  36.383   0.391  11.573
93203W        W57147  30.119  32.049   0.264
93204W        W57148  40.052  33.511   1.330
93205W        W57149  39.318  21.754  11.582
93206W        W57150  34.437  16.097  14.997
93207W        W57151  37.487  19.072  10.563
93208W        W57152  22.225  11.222   3.310
93209W        W57153  34.942  40.338  13.843
93210W        W57154   7.746  26.536   0.453
93211W        W57155  16.616  22.735  10.008
93212W        W57156  43.357  17.565  11.037
93213W        W57157  44.363  19.535  12.535
93214W        W57158  39.022  42.018   0.934
93215W        W57159  24.088  27.959   1.380
93216W        W57160   2.461  27.533  12.829
93217W        W57161   5.418  34.957   1.354
93218W        W57162   0.367   8.839   9.438
93219W        W57163   9.816  20.138  13.858
93220W        W57164  26.057  14.200   1.421
93221W        W57165  33.440  10.343   0.393
93222W        W57166  43.774  16.190  13.988
93223W        W57167  27.579   5.406   4.674
93224W        W57168  32.428   7.842  14.892
93225W        W57169  32.940  17.627   4.342
93226W        W57170  15.759  41.981   1.304
93227W        W57171  34.113  11.741  14.820
93228W        W57172  44.978  13.824   4.812
93229W        W57173  31.541  14.716   4.330
93230W        W57174  23.166  31.479  11.503
93231W        W57175  41.787  41.998  13.019
93232W        W57176  16.243  43.333  12.513
93233W        W57177  43.929  15.681   2.215
93234W        W57178  15.797  11.817  11.395
93235W        W57179  15.177  27.959  14.841
93236W        W57180   2.960  38.917   4.344
93237W        W57181  19.151  33.112   2.784
93238W        W57182  32.896   9.757  13.502
93239W        W57183  28.663  32.516  11.432
93240W        W57184  33.112   5.321   3.309
93241W        W57185  10.326   2.780  13.519
93242W        W57186  22.186  15.199   1.720
93243W        W57187  19.629   9.815  13.444
93244W        W57188  22.626  41.991  13.510
93245W        W57189  39.418   5.807   9.569
93246W        W57190  28.564  15.101  12.825
93247W        W57191  44.312  36.476   0.808
93248W        W57192  36.893   9.656  11.939
93249W        W57193  22.503   4.705   0.888
93250W        W57194   5.346  25.713  14.975
93251W        W57195  36.098  10.319  14.278
93252W        W57196  42.337  40.830   3.180
93253W        W57197  32.034  20.175  12.975
93254W        W57198  38.563  23.038   2.722
93255W        W57199  12.776  34.978  10.468
93256W        W57200   2.869   8.730   4.796
93257W        W57201  19.089  43.276  13.386
93258W        W57202  18.634  29.476  11.027
93259W        W57203   6.835  43.980   3.147
93260W        W57204  23.006  39.946  10.575
93261W        W57205  33.563  18.655  13.322
93262W        W57206  10.727  19.668   2.703
93263W        W57207  27.595  31.071   0.362
93264W        W57208  22.704  16.614  13.051
93265W        W57209  29.629  32.470   0.751
93266W        W57210  44.003   8.715   2.272
93267W        W57211  41.387  42.002   4.160
93268W        W57212  18.282  21.061   3.158
93269W        W57213  16.738  41.941  12.343
93270W        W57214   3.361  28.636   4.740
93271W        W57215   7.298  15.247   3.284
93272W        W57216  25.569  23.676   0.288
93273W        W57217   5.302  20.083  11.069
93274W        W57218  37.073  30.565  12.404
93275W        W57219  16.093  26.033   3.756
93276W        W57220  26.537  23.643  11.443
93277W        W57221  43.414  18.212  10.531
93278W        W57222   0.865   8.732   4.784
93279W        W57223  40.352   8.219  13.355
93280W        W57224  15.673  10.156  12.902
93281W        W57225  25.000  30.649  11.929
93282W        W57226  34.508  42.525   3.657
93283W        W57227   7.332  30.909   4.837
93284W        W57228   5.765  36.973   0.810
93285W        W57229  22.665  41.899   2.815
93286W        W57230  43.969  35.480   1.864
93287W        W57231  15.588  31.998   1.265
93288W        W57232  32.087  21.698  13.928
93289W        W57233  34.879   5.302  12.827
93290W        W57234  33.408  40.851  14.507
93291W        W57235  24.107  41.808   0.255
93292W        W57236  27.469  32.406  13.435
93293W        W57237  18.714  35.034  13.419
93294W        W57238  37.510   8.264  14.374
93295W        W57239  39.314  39.893  11.520
93296W        W57240   4.275   3.380   1.810
93297W        W57241   0.847  26.971   2.219
93298W        W57242  33.546  11.795   3.220
93299W        W57243  42.283  10.345  13.926
93300W        W57244  18.771  15.173   4.745
93301W        W57245   9.732   9.799  10.454
93302W        W57246   8.872   4.707  14.416
93303W        W57247  28.003  17.290  12.972
93304W        W57248  14.145   3.367  10.942
93305W        W57249   8.761   9.756  14.417
93306W        W57250  29.424  37.929  13.819
93307W        W57251  42.010  36.399  11.466
93308W        W57252  29.663  15.705  11.476
93309W        W57253   2.819  39.025   4.656
93310W        W57254   4.379  13.147   4.120
93311W        W57255   5.279   1.242  11.867
93312W        W57256  29.946   3.390   1.424
93313W        W57257  31.605   6.786   1.801
93314W        W57258  28.116  42.464  14.767
93315W        W57259  29.430   6.703  12.345
93316W        W57260  34.539  12.337  14.935
93317W        W57261  16.645  32.995   0.915
93318W        W57262  15.631   0.778   4.196
93319W        W57263  27.956  13.652  11.547
93320W        W57264  30.500  43.854  13.388
93321W        W57265  14.327  44.961  14.910
93322W        W57266  12.667  17.103  11.901
93323W        W57267  33.014  31.064  12.353
93324W        W57268  40.901   0.445   4.140
93325W        W57269  31.522  11.163   4.771
93326W        W57270  20.611   2.816  12.060
93327W        W57271  40.870  40.974   2.259
93328W        W57272  16.296   5.375  13.307
93329W        W57273  20.220   4.718  11.470
93330W        W57274  44.505  18.294  12.859
93331W        W57275  33.582  41.333  10.586
93332W        W57276  10.260  44.413  11.955
93333W        W57277  11.856  44.384   0.392
93334W        W57278   6.715  32.580  12.574
93335W        W57279   6.905  23.578   4.134
93336W        W57280  16.246   4.828   4.754
93337W        W57281  33.625  40.494   0.751
93338W        W57282   2.724   7.306   1.336
93339W        W57283  32.475   1.289   0.917
93340W        W57284  14.773  43.464  10.468
93341W        W57285  29.593  37.455  10.613
93342W        W57286  33.595  32.100  13.968
93343W        W57287  10.284  20.764  13.933
93344W        W57288   8.866   8.321   3.338
93345W        W57289  14.243  34.455   1.807
93346W        W57290  14.215  27.649   1.363
93347W        W57291  33.063  42.794  11.466
93348W        W57292  20.129  34.556  12.039
93349W        W57293  18.168   1.316   3.700
93350W        W57294  19.190  36.538  12.344
93351W        W57295  12.185  22.703  11.451
93352W        W57296   3.268   6.809   1.234
93353W        W57297  14.340  33.921  11.413
93354W        W57298  28.012  43.978  11.594
93355W        W57299  27.991   5.760   2.405
93356W        W57300  23.013  37.927  10.491
93357W        W57301  40.948   0.842  14.815
93358W        W57302  13.288  12.746  14.394
93359W        W57303   4.338   1.278   1.427
93360W        W57304  16.725  27.962   4.658
93361W        W57305  11.333   9.819  13.340
93362W        W57306   3.937   3.807   3.383
93363W        W57307  22.113  30.982   1.895
93364W        W57308   9.272   0.906   2.293
93365W        W57309  35.555   2.433   2.719
93366W        W57310  40.480   4.363  12.375
93367W        W57311  33.051  43.500  14.823
93368W        W57312  25.001  13.121  12.566
93369W        W57313  25.644  30.529  10.463
93370W        W57314  24.603  26.086  13.052
93371W        W57315  43.817  21.634   0.774
93372W        W57316  15.205  30.581   3.833
93373W        W57317  42.795  21.624  13.389
93374W        W57318  41.370   8.884   2.405
93375W        W57319  20.548   7.375   5.200
93376W        W57320  43.903  27.540   2.889
93377W        W57321  36.583  30.627  14.458
93378W        W57322   4.912  15.181   2.383
93379W        W57323  10.868  14.601   0.476
93380W        W57324  30.446  23.024   2.891
93381W        W57325  14.809  21.718   4.166
93382W        W57326  34.520   0.314   4.298
93383W        W57327   6.912  37.563  14.804
93384W        W57328   9.347  41.345  10.643
93385W        W57329  14.675  11.773   3.808
93386W        W57330  18.191  12.679   1.738
93387W        W57331  26.588   6.729  13.312
93388W        W57332  42.935  37.043  11.054
93389W        W57333  30.081   5.238   1.416
93390W        W57334  27.097  43.776   1.322
93391W        W57335  16.688  19.181  14.015
93392W        W57336   8.329   3.812  14.346
93393W        W57337  33.925   8.322   3.832
93394W        W57338   5.698  10.797  11.557
93395W        W57339   7.859  43.887   3.284
93396W        W57340  14.787   7.908   1.246
93397W        W57341  13.663   6.257  14.512
93398W        W57342  11.212  25.550  13.338
93399W        W57343   5.254  21.220  14.380
93400W        W57344  44.421  37.002   5.133
93401W        W57345  30.006  19.722  14.894
93402W        W57346  39.318   3.311  12.907
93403W        W57347  15.249  26.039   2.694
93404W        W57348   4.776   6.767  11.911
93405W        W57349  42.948  29.566   4.123
93406W        W57350  17.749   4.339  13.402
93407W        W57351  17.105  40.399   0.763
93408W        W57352  26.131  33.597   3.382
93409W        W57353  10.826  37.971   4.272
93410W        W57354   7.746  31.556   1.870
93411W        W57355   9.864   7.406   0.766
93412W        W57356  34.592  43.279  14.403
93413W        W57357   8.231  27.017  14.469
93414W        W57358  39.938  17.223  10.532
93415W        W57359  17.184   6.216   3.174
93416W        W57360  27.991  38.357   9.591
93417W        W57361  39.046  20.571   3.271
93418W        W57362  13.187  31.981  11.965
93419W        W57363  36.946   3.340   2.412
93420W        W57364  38.030  17.140  13.028
93421W        W57365  32.406  30.479   5.230
93422W        W57366  21.093  43.863  11.974
93423W        W57367  25.470  33.443   0.340
93424W        W57368  19.738  12.832   4.306
93425W        W57369  13.123  21.097  10.557
93426W        W57370  10.750   5.921  12.355
93427W        W57371  37.409  34.552  12.567
93428W        W57372   1.451  43.951   0.335
93429W        W57373  41.481  32.615   3.358
93430W        W57374  32.484  12.762   1.327
93431W        W57375  16.692  10.714   2.785
93432W        W57376   1.966  35.904   2.759
93433W        W57377  11.771  11.722  14.956
93434W        W57378  10.790  44.488  13.483
93435W        W57379  14.274  33.051  11.465
93436W        W57380  12.641  31.908   1.917
93437W        W57381  11.644  18.264  12.970
93438W        W57382  43.922  21.186   9.961
93439W        W57383  19.606   8.831  14.025
93440W        W57384  16.796  44.331  10.494
93441W        W57385  16.605   7.911  13.823
93442W        W57386  40.845  29.056   4.282
93443W        W57387  20.149  26.143  11.870
93444W        W57388  43.274  39.416  12.864
93445W        W57389  38.469  12.682   1.224
93446W        W57390   6.421  43.792   0.254
93447W        W57391  37.019  26.624  13.859
93448W        W57392  39.003   0.475  11.856
93449W        W57393  25.525  16.703   5.237
93450W        W57394  20.199  37.420  11.902
93451W        W57395  35.424  27.016   4.338
93452W        W57396  31.401  34.969  10.413
93453W        W57397  12.262  17.794   1.905
93454W        W57398  12.199  24.570  10.894
93455W        W57399  27.531  22.559  13.900
93456W        W57400  10.220   8.829  11.552
93457W        W57401   9.202  31.569  13.308
93458W        W57402  23.036  14.123   0.341
93459W        W57403  16.080  11.803  10.533
93460W        W57404  39.041   1.779   3.260
93461W        W57405  36.490  33.995  12.401
93462W        W57406  39.059  18.789   0.414
93463W        W57407  35.379  39.934   3.220
93464W        W57408  39.886  12.829  12.040
93465W        W57409  19.168   5.695   1.380
93466W        W57410  42.919  39.326  13.392
93467W        W57411  14.318  43.905   2.885
93468W        W57412  15.715  31.515  13.957
93469W        W57413   5.931  41.965  10.473
93470W        W57414  12.803  37.431  14.310
93471W        W57415  40.852  35.996  11.472
93472W        W57416  41.984  42.816   4.306
93473W        W57417  34.413  42.410  12.561
93474W        W57418  26.625  30.089   3.762
93475W        W57419  10.758   2.888   0.473
93476W        W57420  32.085  21.519   1.431
93477W        W57421   1.774  25.467   0.929
93478W        W57422  27.584   5.756  10.592
93479W        W57423   5.742  42.357   0.827
93480W        W57424  41.800  26.548   2.710
93481W        W57425   6.210  17.798  11.009
93482W        W57426   1.276  11.866  12.576
93483W        W57427  37.886  43.393   2.714
93484W        W57428  32.588  31.579  12.523
93485W        W57429  32.497   2.367  11.539
93486W        W57430  32.629   5.905  11.861
93487W        W57431   5.827   0.844  14.441
93488W        W57432   6.871  35.049   4.301
93489W        W57433  26.093   2.862   3.751
93490W        W57434  23.150  19.709  12.494
93491W        W57435  22.710   0.757   3.854
93492W        W57436  18.282  36.564   1.307
93493W        W57437  31.066  33.921  13.523
93494W        W57438  36.924  21.112  13.479
93495W        W57439  13.262  19.678   2.220
93496W        W57440  17.589  21.598  12.520
93497W        W57441  38.563  18.080  12.055
93498W        W57442  12.284  39.005   2.755
93499W        W57443  43.306   4.382   2.897
93500W        W57444   7.393   1.874   2.705
93501W        W57445  39.539  15.614  13.417
93502W        W57446  37.081  44.889   3.854
93503W        W57447  16.704  34.051   3.168
93504W        W57448   0.884  40.448   2.283
93505W        W57449   0.292   5.911  12.848
93506W        W57450  40.896   4.234   0.307
93507W        W57451  12.318  30.008   3.846
93508W        W57452  33.459  42.521  10.643
93509W        W57453  31.568   5.349   0.965
93510W        W57454  18.715  43.397  11.425
93511W        W57455  20.215   6.874   5.108
93512W        W57456  35.524  25.678   3.706
93513W        W57457  17.724  30.146   2.837
93514W        W57458  25.062  13.255  12.088
93515W        W57459  12.248  42.020   0.424
93516W        W57460  20.756  17.724  14.425
93517W        W57461  43.514   8.328   3.758
93518W        W57462   2.756  29.613   0.831
93519W        W57463  22.191  17.131  11.528
93520W        W57464  29.499   0.292  10.559
93521W        W57465  41.483   2.859  11.940
93522W        W57466  16.199  12.715  12.055
93523W        W57467  20.703   6.293  11.006
93524W        W57468   2.854   1.464   1.343
93525W        W57469  27.635  20.624   3.212
93526W        W57470  23.115  37.524   1.342
93527W        W57471  42.452  44.996  11.008
93528W        W57472  12.319  23.205   0.386
93529W        W57473   7.203  23.635  11.075
93530W        W57474  32.123  11.142   0.460
93531W        W57475  12.739  30.035  11.121
93532W        W57476   5.347   4.267   1.238
93533W        W57477   1.334   6.678  10.987
93534W        W57478  22.638  24.665   4.282
93535W        W57479  41.445  16.315   2.679
93536W        W57480  21.200  16.773   0.308
93537W        W57481  23.668  17.125   2.826
93538W        W57482  27.518  33.026  11.411
93539W        W57483  44.839  34.584  12.520
93540W        W57484   9.846  32.485  12.460
93541W        W57485  39.331  39.822   4.266
93542W        W57486  41.943  20.720   0.751
93543W        W57487   0.359   8.266   4.829
93544W        W57488  21.162  19.274   0.901
93545W        W57489   7.285  34.569   0.444
93546W        W57490  21.229  37.469  10.529
93547W        W57491   0.462  35.478  11.371
93548W        W57492  40.989  28.478  11.051
93549W        W57493   0.461  44.351   0.868
93550W        W57494  20.192  13.635  14.855
93551W        W57495  41.904  13.314   2.281
93552W        W57496   0.954  12.744   3.637
93553W        W57497  17.131  43.442   4.656
93554W        W57498  38.559   5.923   4.273
93555W        W57499  13.244  10.219  14.006
93556W        W57500  18.580   7.192  14.358
93557W        W57501  22.697  15.230   2.361
93558W        W57502   9.308  15.312   1.915
93559W        W57503  23.618   5.272  11.060
93560W        W57504   4.229  30.966   3.723
93561W        W57505  28.116   1.438   4.828
93562W        W57506  25.603  10.308  14.879
93563W        W57507  37.425  43.896   2.818
93564W        W57508  29.663   5.722  13.006
93565W        W57509  23.216  15.153  13.512
93566W        W57510  15.709  27.489   1.315
93567W        W57511  29.112  41.896  12.064
93568W        W57512  28.465  36.541   3.241
93569W        W57513  40.947  18.782  13.434
93570W        W57514  30.572  38.335   0.913
93571W        W57515  20.553  21.672   2.306
93572W        W57516  34.381  25.038  13.873
93573W        W57517  26.459  27.160  14.349
93574W        W57518   7.884  44.845   4.699
93575W        W57519  43.782  18.603   2.809
93576W        W57520   4.384  11.311   0.463
93577W        W57521  17.570  41.387   2.197
93578W        W57522  37.974  37.377   0.864
93579W        W57523  32.104  25.708   1.365
93580W        W57524  39.972  26.485   3.386
93581W        W57525  28.131  12.314  11.128
93582W        W57526  37.072  37.888   3.223
93583W        W57527  40.855   3.808   3.781
93584W        W57528  32.588  18.054   2.274
93585W        W57529  37.386  24.695  13.485
93586W        W57530   7.205  38.035   5.279
93587W        W57531  42.831  14.711   2.401
93588W        W57532   0.813  41.802  11.060
93589W        W57533  43.470  10.336   3.216
93590W        W57534   3.921  30.092   2.362
93591W        W57535  32.887  38.868   4.117
93592W        W57536  22.050  38.547  10.421
93593W        W57537  22.646  40.320  14.487
93594W        W57538  31.067  43.009   3.819
93595W        W57539  23.528  22.574   4.821
93596W        W57540  35.521  10.682  12.917
93597W        W57541  23.162  25.080  11.861
93598W        W57542   4.775  27.995  12.470
93599W        W57543   8.302  30.966  10.518
93600W        W57544   7.284  16.766   4.114
93601W        W57545  20.581   8.883   2.760
93602W        W57546  39.367   3.309   4.231
93603W        W57547  33.004  25.047  10.581
93604W        W57548   8.750  33.073   0.351
93605W        W57549  41.527  34.951   4.227
93606W        W57550   0.794  32.984  13.320
93607W        W57551  38.425  24.643  11.417
93608W        W57552  17.625  34.523   2.269
93609W        W57553  38.999  14.133   4.786
93610W        W57554   8.342  24.176   4.770
93611W        W57555  18.266  41.426   2.679
93612W        W57556  17.718   6.763   3.260
93613W        W57557  16.785  40.024  13.331
93614W        W57558  41.332  37.024   2.306
93615W        W57559   9.302   8.655  11.934
93616W        W57560  18.735  20.685  14.278
93617W        W57561  44.365  27.530   3.779
93618W        W57562   0.380   7.259  11.931
93619W        W57563  44.980  21.736   4.171
93620W        W57564  12.804  42.348  10.918
93621W        W57565  16.154  35.006  11.579
93622W        W57566   1.817  31.970   4.631
93623W        W57567  17.171   1.452   9.923
93624W        W57568   0.353  21.080  13.349
93625W        W57569  44.828   4.381   3.737
93626W        W57570   6.368  36.003  11.419
93627W        W57571  31.032  20.622  13.430
93628W        W57572   0.908  38.398  11.865
93629W        W57573  32.943  24.108  11.584
93630W        W57574   3.851  29.518   1.815
93631W        W57575   5.241  12.687  13.364
93632W        W57576  44.289  33.592  11.942
93633W        W57577  21.579  35.909   3.270
93634W        W57578  24.221   2.268   3.240
93635W        W57579  27.050  35.106   4.783
93636W        W57580  23.128  30.050   4.157
93637W        W57581  11.281   8.769  10.423
93638W        W57582  38.022   0.901   3.801
93639W        W57583  30.968  30.637   1.385
93640W        W57584  28.942  12.650  11.915
93641W        W57585  14.694   4.243   2.790
93642W        W57586   7.204  34.430  14.014
93643W        W57587  38.992   7.413   9.973
93644W        W57588   4.262  31.500   0.431
93645W        W57589  16.151  13.169   4.277
93646W        W57590  11.143  28.558  12.083
93647W        W57591  12.767   5.217   1.793
93648W        W57592  23.140  42.957   4.142
93649W        W57593  28.176  17.704  14.790
93650W        W57594   1.926  35.547  14.793
93651W        W57595  10.362   1.855   2.237
93652W        W57596  20.722  42.839   0.930
93653W        W57597   1.873  13.339   2.885
93654W        W57598   5.242   2.873  11.519
93655W        W57599  42.319  13.655  10.526
93656W        W57600  44.336   0.749   2.323
93657W        W57601  15.162  11.704   0.366
93658W        W57602  44.448  34.002  11.590
93659W        W57603  26.984   0.938  11.019
93660W        W57604  44.276  40.544  12.851
93661W        W57605  15.221  37.920  14.369
93662W        W57606  18.639  22.140  14.416
93663W        W57607  39.028   5.767   3.302
93664W        W57608  11.352   3.379  13.863
93665W        W57609   5.844  18.686   0.338
93666W        W57610  33.940  16.696   0.938
93667W        W57611  24.154  22.518   1.791
93668W        W57612  18.196  31.057   1.388
93669W        W57613  19.267   1.918  14.761
93670W        W57614  15.761   4.341  14.790
93671W        W57615  28.483  42.837  14.427
93672W        W57616  36.871  42.327  10.472
93673W        W57617  40.893   9.736   2.300
93674W        W57618  27.184  40.970   4.351
93675W        W57619   7.749  17.733   1.703
93676W        W57620  31.452  31.508   1.786
93677W        W57621  31.623  12.356  11.397
93678W        W57622   6.707  37.053  12.901
93679W        W57623  21.256   9.338   0.438
93680W        W57624  38.393  39.327  13.467
93681W        W57625   5.436  36.935  13.905
93682W        W57626   7.713   3.297  12.873
93683W        W57627   7.702  13.241   4.217
93684W        W57628  21.614  11.299  10.946
93685W        W57629   5.232  15.101  12.937
93686W        W57630  26.656  39.046  10.569
93687W        W57631   6.917   8.699  11.578
93688W        W57632  16.092  29.435   3.745
93689W        W57633  24.008  39.462   1.864
93690W        W57634  21.183   3.879  12.494
93691W        W57635  33.052  36.391   4.680
93692W        W57636  30.044  36.453   1.903
93693W        W57637  34.886   9.762  14.859
93694W        W57638  14.298  31.949  12.923
93695W        W57639   5.337   0.268   2.831
93696W        W57640  12.768  15.210  13.009
93697W        W57641  34.890  28.597   4.773
93698W        W57642  38.509  44.378   4.161
93699W        W57643  18.155   2.829  14.769
93700W        W57644  37.007   3.760   3.660
93701W        W57645  22.138  32.590   2.227
93702W        W57646   3.407  41.814   3.745
93703W        W57647  22.598  24.654  14.974
93704W        W57648   1.926  27.543  11.976
93705W        W57649  27.492  14.324   1.785
93706W        W57650  18.241  17.069   2.887
93707W        W57651   7.286   5.367   0.839
93708W        W57652  23.017  38.531   0.400
93709W        W57653  24.565   5.691   2.770
93710W        W57654  16.630  39.364  13.516
93711W        W57655  41.479  44.909  14.842
93712W        W57656  42.309   2.838   1.710
93713W        W57657  26.689   8.867  12.025
93714W        W57658  19.127  28.617   4.325
93715W        W57659   2.744  14.723   2.833
93716W        W57660  16.810  35.455   1.373
93717W        W57661  23.237  22.150   2.326
93718W        W57662  43.270  36.931  10.991
93719W        W57663  42.968  13.633  14.452
93720W        W57664   5.917  23.144   4.647
93721W        W57665  20.212  19.082   0.947
93722W        W57666   4.857  42.310  13.322
93723W        W57667  42.394  16.276   0.409
93724W        W57668  39.500  32.902   0.450
93725W        W57669  12.303  35.861   4.188
93726W        W57670  22.583  12.699  10.096
93727W        W57671  21.032   1.374  12.033
93728W        W57672  14.831  15.280   0.299
93729W        W57673  38.973  40.981   3.300
93730W        W57674  11.247  22.073   2.265
93731W        W57675  25.129   1.359  14.021
93732W        W57676  31.070  38.347   4.699
93733W        W57677  41.928   1.434   3.324
93734W        W57678  33.534   4.255  11.940
93735W        W57679  15.683  33.061  13.366
93736W        W57680   1.416   5.217   0.898
93737W        W57681  28.552   2.249  12.967
93738W        W57682  29.472  40.329   0.783
93739W        W57683  35.582   9.688  12.989
93740W        W57684  16.201  28.122   3.194
93741W        W57685  30.955  13.267  10.915
93742W        W57686  34.383   2.868   0.472
93743W        W57687   2.818  18.069  13.349
93744W        W57688  17.739  14.153   2.738
93745W        W57689  15.616  32.433  11.548
93746W        W57690  19.612  32.613   2.185
93747W        W57691  34.532   5.891   3.810
93748W        W57692  10.643  21.744  14.513
93749W        W57693  35.559  42.470   1.846
93750W        W57694  31.094  40.333  14.840
93751W        W57695   3.312   5.313   2.287
93752W        W57696  17.218  16.165  14.861
93753W        W57697  38.968  22.703   1.731
93754W        W57698  13.222   4.933  14.451
93755W        W57699  24.076   6.231  10.456
93756W        W57700  36.438  36.571  12.505
93757W        W57701  16.797  37.943   2.803
93758W        W57702   3.253  20.657   0.391
93759W        W57703  12.256  40.857  10.462
93760W        W57704  40.024  10.346  12.022
93761W        W57705  33.454  25.003   1.715
93762W        W57706  41.863  10.835   1.806
93763W        W57707  15.126  32.551  12.915
93764W        W57708  16.248  37.907  13.852
93765W        W57709  25.177  15.710  14.351
93766W        W57710  21.257  30.482   0.282
93767W        W57711  38.938  34.889   9.975
93768W        W57712  30.937   4.279  12.489
93769W        W57713  41.405  36.351  12.957
93770W        W57714  34.071  33.933   1.809
93771W        W57715  40.547  17.248   4.211
93772W        W57716  25.029  44.994  11.911
93773W        W57717  33.587  26.017  12.975
93774W        W57718  33.888  16.084   3.722
93775W        W57719   5.908   4.433   4.794
93776W        W57720  40.985  14.720   1.933
93777W        W57721  18.062  32.546   5.750
93778W        W57722   9.293   7.215   0.428
93779W        W57723   1.386  40.442   1.271
93780W        W57724  12.696  40.048  14.915
93781W        W57725   3.729   8.341  10.482
93782W        W57726  29.039  27.600  11.540
93783W        W57727  23.132  13.349  14.854
93784W        W57728  32.011   7.401   0.964
93785W        W57729  40.376  33.931   2.718
93786W        W57730  19.657   3.345   3.764
93787W        W57731  35.464   1.450   0.824
93788W        W57732  27.541  15.117  10.463
93789W        W57733  15.083  30.511  11.537
93790W        W57734  23.158  42.900  12.475
93791W        W57735  11.804  17.216  10.045
93792W        W57736  18.689  18.598   0.434
93793W        W57737  16.569   3.937  14.937
93794W        W57738  40.920  34.510  12.544
93795W        W57739   7.847  31.041   2.370
93796W        W57740  27.098  16.211  12.874
93797W        W57741  41.845  26.065   1.323
93798W        W57742  37.519  34.873   5.296
93799W        W57743   9.258  41.812  11.416
93800W        W57744  16.605  31.089   1.892
93801W        W57745   8.717  43.995  11.987
93802W        W57746  22.102  30.444   0.306
93803W        W57747  37.373  43.948  14.468
93804W        W57748  39.947  36.579   3.334
93805W        W57749  19.683  11.718   0.431
93806W        W57750  40.496  31.562   4.609
93807W        W57751  22.725   7.404  12.467
93808W        W57752  25.089   8.226   2.347
93809W        W57753  38.052  22.668   9.962
93810W        W57754   9.209   2.739  12.856
93811W        W57755   0.782  41.519   0.261
93812W        W57756  26.559  11.791   4.141
93813W        W57757  16.792  19.238   3.356
93814W        W57758   1.962  36.489   3.649
93815W        W57759  33.971  32.487   3.355
93816W        W57760  37.972  36.985   4.721
93817W        W57761   4.726   7.384  12.991
93818W        W57762   6.902  16.247   1.697
93819W        W57763  13.796  31.480  11.470
93820W        W57764   0.790  32.580  11.869
93821W        W57765  16.231  30.537   1.796
93822W        W57766   1.950  36.548   1.361
93823W        W57767  34.485  26.136  13.443
93824W        W57768   2.295  44.910   3.201
93825W        W57769  40.029  28.614  13.310
93826W        W57770  11.704  12.768  10.097
93827W        W57771   3.915  15.215  14.290
93828W        W57772  31.986   3.762   1.388
93829W        W57773   0.810  19.578   4.346
93830W        W57774  33.616  39.992   0.919
93831W        W57775  33.604  25.692  11.464
93832W        W57776  19.040  29.944   2.220
93833W        W57777  21.742  33.993  12.990
93834W        W57778  29.571  28.027  14.411
93835W        W57779  17.653  34.893  10.458
93836W        W57780   0.761  35.029   2.796
93837W        W57781  18.053  14.729   3.321
93838W        W57782  13.652  43.286   1.282
93839W        W57783  29.054   6.258   4.237
93840W        W57784  12.777  21.600  14.015
93841W        W57785  25.031  17.276  10.588
93842W        W57786  30.129  31.024  12.063
93843W        W57787  24.129  43.944   4.719
93844W        W57788   8.262  33.577   0.961
93845W        W57789  39.972  31.039   2.315
93846W        W57790   4.404  42.281  14.952
93847W        W57791   3.952  36.436   4.136
93848W        W57792  34.487  20.727   2.296
93849W        W57793  10.639   8.364   0.434
93850W        W57794  24.114   3.257  13.522
93851W        W57795  17.759   4.826   3.722
93852W        W57796  10.302  10.646  13.417
93853W        W57797  26.983  38.909   0.437
93854W        W57798   3.450   3.394  11.611
93855W        W57799  16.598   5.318   5.315
93856W        W57800  20.666  36.015   2.378
93857W        W57801   8.859  23.513  13.928
93858W        W57802  34.968  26.630   0.778
93859W        W57803  44.383  40.886   1.872
93860W        W57804  20.582   5.240  11.567
93861W        W57805   9.182  25.546   2.820
93862W        W57806  11.675  42.406  10.413
93863W        W57807  24.176  29.652  13.389
93864W        W57808   3.823  23.218  14.862
93865W        W57809  10.765   1.300   0.447
93866W        W57810  36.842   2.256   1.367
93867W        W57811  13.333  12.225  13.797
93868W        W57812  38.001  24.029  14.488
93869W        W57813  28.612  38.974   0.443
93870W        W57814  13.313   8.270   2.321
93871W        W57815  39.033  40.325   0.901
93872W        W57816  40.898  18.156   3.263
93873W        W57817  23.026  29.088   2.196
93874W        W57818   1.942  15.824  14.326
93875W        W57819  39.931   3.763   0.955
93876W        W57820  24.514  19.780   3.217
93877W        W57821  38.347  24.564  13.498
93878W        W57822  34.552  42.334   1.312
93879W        W57823  20.182  41.039  11.431
93880W        W57824  39.988  19.691   0.906
93881W        W57825  21.049  25.174   2.863
93882W        W57826  16.691  40.359   1.870
93883W        W57827  43.302   4.347   1.408
93884W        W57828   8.339  22.142  12.861
93885W        W57829  17.177   6.305   1.859
93886W        W57830  13.346  34.512   3.807
93887W        W57831  24.185   2.369   0.257
93888W        W57832  19.558  38.387   1.347
93889W        W57833  32.078   6.817  11.044
93890W        W57834  12.356  28.179   3.800
93891W        W57835  38.821  43.873   0.859
93892W        W57836  15.099  11.272  11.504
93893W        W57837  30.492  39.330   4.260
93894W        W57838   1.776  42.505   4.175
93895W        W57839  37.921  41.428   0.402
93896W        W57840  20.119  10.803   3.207
93897W        W57841   9.753   0.817  11.916
93898W        W57842   5.818   5.838   4.766
93899W        W57843   1.970  40.371  10.567
93900W        W57844  26.567  33.588   0.924
93901W        W57845  29.586   4.845  10.596
93902W        W57846  34.906  21.602   0.248
93903W        W57847  28.003  41.970   2.892
93904W        W57848  29.582   6.766   3.367
93905W        W57849  29.088  26.618  13.989
93906W        W57850  23.669   2.957   2.704
93907W        W57851  26.562  38.958  12.977
93908W        W57852  26.647  11.286   2.756
93909W        W57853  24.984  25.508  11.979
93910W        W57854  23.684  32.629  14.863
93911W        W57855  18.737  17.127  12.919
93912W        W57856   6.307  14.815   4.737
93913W        W57857  12.771  34.384  14.832
93914W        W57858  30.153  43.779   3.375
93915W        W57859  19.214  39.890   1.711
93916W        W57860  31.521  13.668   2.232
93917W        W57861   2.470  37.557  11.081
93918W        W57862  37.501  37.049   2.388
93919W        W57863   6.408   4.242   1.245
93920W        W57864  19.252  22.170   1.360
93921W        W57865  10.280  34.990   1.815
93922W        W57866  20.626  40.908   2.791
93923W        W57867  30.081  32.990  13.455
93924W        W57868  11.744  20.709   2.697
93925W        W57869  14.169  40.970   4.342
93926W        W57870  24.072  31.445   4.238
93927W        W57871  15.672  34.493  14.428
93928W        W57872  32.503  29.958   4.273
93929W        W57873  37.411  37.468   9.985
93930W        W57874  22.706  44.793  12.451
93931W        W57875  25.087  33.527  14.023
93932W        W57876  34.566  23.612   4.256
93933W        W57877  22.531  33.888   4.210
93934W        W57878  22.123  14.313  12.423
93935W        W57879  12.330  18.101  11.503
93936W        W57880  27.479   0.902  12.082
93937W        W57881   6.232  36.037   2.220
93938W        W57882  38.050  41.535   4.669
93939W        W57883   0.854  35.394   2.741
93940W        W57884  40.485  36.586  14.822
93941W        W57885  29.552  21.079   1.408
93942W        W57886  24.501  21.690   2.712
93943W        W57887  40.902  34.601  13.974
93944W        W57888   8.209   4.417   4.789
93945W        W57889   7.343  34.029   0.460
93946W        W57890   8.269   4.779  11.418
93947W        W57891  44.457  44.333  11.032
93948W        W57892  38.058  21.128   3.341
93949W        W57893  39.855   1.784  11.918
93950W        W57894  21.144  11.156   1.797
93951W        W57895  40.850  14.709  12.572
93952W        W57896   8.674  33.408  13.539
93953W        W57897  44.003  21.164   4.815
93954W        W57898  27.073  28.125   3.748
93955W        W57899  34.598  32.931  14.459
93956W        W57900  38.936  41.338   3.149
93957W        W57901  37.399  18.146   1.815
93958W        W57902  39.014  42.013  11.974
93959W        W57903  37.435  26.663  12.027
93960W        W57904  31.108   0.768   2.742
93961W        W57905   2.297  12.807  13.434
93962W        W57906   6.371  12.842   3.766
93963W        W57907  36.061  23.210   3.800
93964W        W57908  20.763   1.286   2.725
93965W        W57909  39.433  42.366  12.001
93966W        W57910   1.732  17.597  13.357
93967W        W57911  32.887  36.440   2.790
93968W        W57912  40.831  23.205   3.229
93969W        W57913  11.693  13.769   4.249
93970W        W57914  32.988  15.730  10.636
93971W        W57915   6.304  14.667   0.402
93972W        W57916  35.544  36.052  11.395
93973W        W57917  32.444  28.482   2.722
93974W        W57918   0.372   6.315   0.825
93975W        W57919   9.286   0.260  10.471
93976W        W57920   4.340  28.025   2.320
93977W        W57921   2.345   8.803   2.224
93978W        W57922   4.897   7.271   0.855
93979W        W57923  10.781  14.202  11.500
93980W        W57924  23.580  11.791   1.734
93981W        W57925   3.747  24.025  11.860
93982W        W57926  29.452  31.444   3.270
93983W        W57927  13.797  41.309   0.403
93984W        W57928  39.970   6.325   4.209
93985W        W57929  44.978  29.436   0.444
93986W        W57930  24.174  42.480   2.805
93987W        W57931   8.693  38.375   3.853
93988W        W57932  13.323  31.017   3.791
93989W        W57933  30.994  32.462   1.258
93990W        W57934  27.022  41.974   1.225
93991W        W57935  11.694  20.559  14.885
93992W        W57936   2.843  16.670   4.783
93993W        W57937   3.763   7.747   3.200
93994W        W57938  25.601  21.596  12.459
93995W        W57939  29.538   7.250  13.882
93996W        W57940   2.746  25.167   1.449
93997W        W57941   1.356  35.859  10.406
93998W        W57942  10.276   3.391   3.739
93999W        W57943  19.769  30.076   2.864
94000W        W57944  19.053  29.596  12.847
94001W        W57945  27.592  33.554  14.365
94002W        W57946  33.066  37.080  10.981
94003W        W57947   6.918  31.444   0.425
94004W        W57948   3.378  33.883  11.549
94005W        W57949  16.606  37.414   1.729
94006W        W57950   2.807  44.356  12.007
94007W        W57951  41.393  33.407  11.453
94008W        W57952   6.253  11.348  12.357
94009W        W57953  13.797  23.695  11.406
94010W        W57954  42.858  33.927  10.907
94011W        W57955  38.049  32.429  11.891
94012W        W57956  43.771  24.122   2.667
94013W        W57957   0.464  34.412   3.705
94014W        W57958  24.074   0.831   0.964
94015W        W57959  30.037   1.842   2.862
94016W        W57960  20.196   1.281  10.605
94017W        W57961  42.985  24.650  11.552
94018W        W57962  25.132  14.703   2.776
94019W        W57963   3.446  18.753  14.336
94020W        W57964  27.181   0.385   9.941
94021W        W57965   7.817  31.030  13.312
94022W        W57966  15.319  24.722  14.979
94023W        W57967   3.785   6.907  13.394
94024W        W57968  17.164  40.331   3.320
94025W        W57969  27.631  15.606   0.438
94026W        W57970   4.916  17.095   2.261
94027W        W57971   7.893  28.671  12.509
94028W        W57972  37.020  13.666  13.523
94029W        W57973  25.580  25.036   0.745
94030W        W57974  20.642  23.052   1.309
94031W        W57975  13.287  20.028  11.443
94032W        W57976   9.351  21.155  13.946
94033W        W57977   5.718  25.169   3.250
94034W        W57978  20.069  14.681  11.932
94035W        W57979  35.446  15.634   4.791
94036W        W57980  42.431  19.131   2.232
94037W        W57981  27.102  15.225  12.858
94038W        W57982  39.016  37.837  13.421
94039W        W57983   7.277  32.493   4.650
94040W        W57984  38.894   4.700   3.702
94041W        W57985  13.121  33.062   3.794
94042W        W57986  39.411  14.321   3.767
94043W        W57987   7.208  18.149  11.558
94044W        W57988  33.553  28.468   3.266
94045W        W57989  29.150   0.398   1.449
94046W        W57990   5.266   5.812   4.679
94047W        W57991  25.048  20.733  14.397
94048W        W57992  42.512  44.827   0.865
94049W        W57993  19.566  40.892  11.915
94050W        W57994  39.905  16.595  13.989
94051W        W57995  44.900  20.752   2.224
94052W        W57996  23.590  22.146   2.815
94053W        W57997  33.381  29.536  13.450
94054W        W57998   6.805   6.894   2.186
94055W        W57999   2.804  24.228  13.407
94056W        W58000  32.907  10.263  14.894
94057W        W58001  32.104  11.269  12.892
94058W        W58002   2.823  14.271  13.526
94059W        W58003  32.423  26.576  12.523
94060W        W58004  12.309  42.305   3.713
94061W        W58005  12.839  34.119   4.342
94062W        W58006  44.364  25.473  14.017
94063W        W58007  33.579  41.042  13.533
94064W        W58008  36.013  11.791   3.863
94065W        W58009  21.684   6.903   0.420
94066W        W58010  18.147   6.825   0.935
94067W        W58011  23.070  12.123  11.028
94068W        W58012  25.605  30.980   4.827
94069W        W58013  10.680  21.547   1.881
94070W        W58014  41.830  32.915  14.376
94071W        W58015  37.536  22.040  12.355
94072W        W58016  30.112   1.267   4.326
94073W        W58017  32.456  39.344   2.195
94074W        W58018   4.386   6.197  12.941
94075W        W58019  36.537   5.689   4.187
94076W        W58020   2.853  20.105   0.398
94077W        W58021  23.020  39.556   3.853
94078W        W58022  27.641  21.651   3.328
94079W        W58023  27.155  27.058  10.908
94080W        W58024  20.765  11.138  11.378
94081W        W58025  34.888   6.874   4.263
94082W        W58026  12.613  26.652   9.987
94083W        W58027   8.874  14.651  13.392
94084W        W58028  11.217  16.219  14.800
94085W        W58029  19.187  24.036  11.402
94086W        W58030  16.128  17.233  12.966
94087W        W58031  34.097  34.483  10.558
94088W        W58032  42.526  18.762  14.807
94089W        W58033   3.278  28.560  13.469
94090W        W58034  11.739   6.348   3.145
94091W        W58035  33.942  28.628   4.839
94092W        W58036  40.883   8.714  14.359
94093W        W58037  29.997  25.206   1.722
94094W        W58038   7.366  40.332   0.447
94095W        W58039  31.498  32.634   1.775
94096W        W58040  40.374   9.309   3.654
94097W        W58041   4.740  21.626  12.086
94098W        W58042  39.424  42.845   5.279
94099W        W58043   6.841  39.957  10.941
94100W        W58044   9.655   4.708   0.422
94101W        W58045  38.446  23.233   0.752
94102W        W58046  17.161  38.471  12.029
94103W        W58047  37.000  33.434  14.282
94104W        W58048  24.693  29.578  12.440
94105W        W58049  15.616  35.927  11.977
94106W        W58050  28.011   3.288   2.761
94107W        W58051  12.837  33.620  12.871
94108W        W58052  10.292  28.597  13.403
94109W        W58053  26.627  10.173   2.348
94110W        W58054   5.209  16.669  13.822
94111W        W58055  27.579   9.875  12.365
94112W        W58056  12.148  31.503  11.391
94113W        W58057   9.204  16.136   3.684
94114W        W58058  23.667  14.672   4.800
94115W        W58059   4.226  33.074  14.779
94116W        W58060  13.713  28.029   2.823
94117W        W58061   7.236  27.187  10.630
94118W        W58062   4.222  27.670  10.539
94119W        W58063  10.866  33.004  14.853
94120W        W58064  11.716  44.497   3.215
94121W        W58065  10.773  30.138   2.178
94122W        W58066  21.163  14.304  14.447
94123W        W58067  40.516  29.512   1.351
94124W        W58068  11.215  38.960   1.861
94125W        W58069  21.236   8.900   3.149
94126W        W58070  21.089  21.071   0.870
94127W        W58071  26.036  40.397  13.801
94128W        W58072   5.724  42.904  14.954
94129W        W58073  33.578  26.128  14.314
94130W        W58074   4.812  20.082   1.846
94131W        W58075   0.471  41.858  13.856
94132W        W58076  20.706  35.098  14.906
94133W        W58077  30.987   5.337   4.154
94134W        W58078  19.167  40.332  13.908
94135W        W58079  30.516   2.411  10.413
94136W        W58080   1.414  39.400   4.269
94137W        W58081  17.080  43.325  10.457
94138W        W58082  30.468  18.243   3.827
94139W        W58083  14.727   9.890   3.248
94140W        W58084  44.286  41.315   3.790
94141W        W58085  30.086  20.083   4.189
94142W        W58086  11.366  10.665   4.785
94143W        W58087  24.980  29.480  11.050
94144W        W58088  13.765  18.082   0.266
94145W        W58089  32.017  39.043  13.036
94146W        W58090  22.116   9.210   4.118
94147W        W58091   9.675  18.620  14.305
94148W        W58092  10.684  17.122  13.342
94149W        W58093  23.611  21.117   4.146
94150W        W58094  10.646  12.171   3.247
94151W        W58095  42.941   1.899  10.503
94152W        W58096  42.281  11.169   2.666
94153W        W58097   2.909  33.570  10.439
94154W        W58098   7.723  33.485   0.868
94155W        W58099  43.305  20.710  13.008
94156W        W58100  22.240   6.727  11.411
94157W        W58101  21.173   9.865  12.834
94158W        W58102  26.103  27.993   4.681
94159W        W58103  41.378   3.373   0.454
94160W        W58104   9.356  17.294   3.164
94161W        W58105   6.777   8.220  11.568
94162W        W58106  11.292   2.750  14.380
94163W        W58107  16.629   7.213  12.545
94164W        W58108  10.154   2.935   1.333
94165W        W58109   6.400  35.516   3.149
94166W        W58110  16.160  23.190   4.728
94167W        W58111  19.579  35.427  13.377
94168W        W58112  32.095  38.396  13.807
94169W        W58113  43.381  11.695  14.968
94170W        W58114  32.634  21.212   2.335
94171W        W58115  34.408  33.994   1.723
94172W        W58116  24.591   8.723  13.841
94173W        W58117  44.896   7.224  14.968
94174W        W58118  11.330   8.379  10.475
94175W        W58119   3.389  43.862   4.701
94176W        W58120   6.856  41.935   2.346
94177W        W58121  19.710  36.540   4.260
94178W        W58122  14.790  23.638   2.860
94179W        W58123  20.539  32.460  11.909
94180W        W58124  26.205  39.950  14.466
94181W        W58125  25.666  43.943   1.867
94182W        W58126  31.639  14.828   0.839
94183W        W58127  42.925   2.893   3.256
94184W        W58128  17.259  26.053   0.368
94185W        W58129  37.571  10.772  12.942
94186W        W58130   5.288   1.906   4.170
94187W        W58131  14.335  32.408   1.351
94188W        W58132  27.465  35.003   2.737
94189W        W58133  37.011  25.042   2.682
94190W        W58134  43.837  23.630  13.348
94191W        W58135  36.426  20.545  14.842
94192W        W58136  17.181  15.109   2.825
94193W        W58137  42.358  30.573  13.852
94194W        W58138  22.150  22.179  14.798
94195W        W58139  39.520  10.226  14.857
94196W        W58140  28.585  24.653   1.212
94197W        W58141  40.517  37.554   1.932
94198W        W58142  20.242  31.908  11.037
94199W        W58143   4.842  28.010  13.908
94200W        W58144   1.443  43.828   2.694
94201W        W58145  11.225   4.321  12.902
94202W        W58146  33.622  15.644   1.271
94203W        W58147  15.669  38.858  12.550
94204W        W58148  23.144  39.459   3.185
94205W        W58149  15.817  35.497   2.830
94206W        W58150  40.331  22.173  14.780
94207W        W58151  20.722  25.159  14.883
94208W        W58152  33.093  25.538  10.608
94209W        W58153  21.025  27.446  11.408
94210W        W58154  42.020  18.783  12.446
94211W        W58155  44.905  27.623   3.650
94212W        W58156  12.795  27.529   3.263
94213W        W58157   9.291  43.928   0.410
94214W        W58158  36.963  42.966  12.431
94215W        W58159  24.575  30.655   0.251
94216W        W58160  10.352  26.540  10.944
94217W        W58161  12.320  27.966  11.027
94218W        W58162  22.006  34.406  11.555
94219W        W58163  34.052  44.444  10.476
94220W        W58164  29.541  20.194   3.805
94221W        W58165  21.181  32.092  12.053
94222W        W58166  10.372  43.272  12.419
94223W        W58167  24.532  24.697  12.490
94224W        W58168  43.858  10.255   4.635
94225W        W58169  26.029  17.632   3.808
94226W        W58170   6.696  16.646   2.280
94227W        W58171  29.521  26.643   1.874
94228W        W58172  22.082  25.686  13.991
94229W        W58173  20.693  29.102   2.712
94230W        W58174  13.197  30.473   3.259
94231W        W58175  30.482  28.578   3.862
94232W        W58176  14.663   4.371   4.795
94233W        W58177   5.438  13.707  14.030
94234W        W58178  36.490  32.104   4.811
94235W        W58179   0.768  14.112   3.870
94236W        W58180   7.769  13.317   2.200
94237W        W58181  31.511  29.944   3.339
94238W        W58182  25.620  28.067  12.537
94239W        W58183   0.946  18.157  11.498
94240W        W58184  14.750  33.089   2.215
94241W        W58185  39.831   8.314  12.067
94242W        W58186  20.223  38.412  11.862
94243W        W58187  11.312  25.141   4.261
94244W        W58188  39.039  16.133   0.405
94245W        W58189   9.750  16.574  13.798
94246W        W58190  17.175  18.192  14.482
94247W        W58191  16.213  40.799  11.548
94248W        W58192  16.235  14.769  13.923
94249W        W58193   3.335  23.051  11.002
94250W        W58194  15.678  11.826   4.286
94251W        W58195   0.368   9.158   1.378
94252W        W58196  32.553  14.629   1.833
94253W        W58197  10.257  21.133   0.474
94254W        W58198   1.291  33.903  12.955
94255W        W58199  36.418  15.734   4.676
94256W        W58200  41.983  44.261  14.838
94257W        W58201  30.007   7.756   2.299
94258W        W58202  21.746  12.299  12.497
94259W        W58203   1.767  26.078  12.561
94260W        W58204  44.419  39.998   3.802
94261W        W58205  37.086  29.932  14.996
94262W        W58206  30.528  34.904  10.409
94263W        W58207  28.479  39.958   2.385
94264W        W58208  37.854  42.981  13.997
94265W        W58209  18.619  40.909  11.555
94266W        W58210   4.821  40.519  11.022
94267W        W58211  20.174  10.216  10.595
94268W        W58212  40.985   3.710   0.366
94269W        W58213  43.498  29.969  11.954
94270W        W58214  12.698  26.983  13.369
94271W        W58215  32.116  30.990  13.993
94272W        W58216  37.075  39.485  11.123
94273W        W58217  31.603  29.958   2.733
94274W        W58218  23.600  16.582   2.840
94275W        W58219  23.726  38.444  12.543
94276W        W58220   4.334  31.003  10.567
94277W        W58221  19.602  38.041  10.987
94278W        W58222  18.762  10.674   2.295
94279W        W58223  32.570  21.614   4.331
94280W        W58224  15.578  39.859  12.432
94281W        W58225  26.509  25.673   0.798
94282W        W58226  43.478  14.175   5.093
94283W        W58227   3.920  31.463   0.949
94284W        W58228   9.155   4.427  14.954
94285W        W58229  34.900  35.975  12.408
94286W        W58230   4.387  21.029   3.223
94287W        W58231  15.621  11.253  11.895
94288W        W58232   8.351  39.937   2.843
94289W        W58233  37.976  15.275  12.475
94290W        W58234  26.136  11.682  11.407
94291W        W58235  14.174   7.829  11.988
94292W        W58236   9.789  19.141  14.327
94293W        W58237  23.662  10.297   4.326
94294W        W58238  43.468  17.593   2.698
94295W        W58239   3.224  38.501   2.860
94296W        W58240  40.802  35.048   1.229
94297W        W58241   4.451  19.160  13.345
94298W        W58242  21.685  22.735  10.619
94299W        W58243   4.801  44.463  13.347
94300W        W58244  17.133  31.003   2.186
94301W        W58245  33.057  27.609   2.236
94302W        W58246  26.204   7.395  10.914
94303W        W58247  39.369  29.008  12.094
94304W        W58248  14.338  18.226  13.321
94305W        W58249  10.186  10.239  12.922
94306W        W58250   8.259  32.996   4.217
94307W        W58251  18.237  15.325  12.467
94308W        W58252  10.767  17.729  14.336
94309W        W58253  11.222   8.896   1.316
94310W        W58254  23.092  43.001   4.774
94311W        W58255  15.306  23.727  11.000
94312W        W58256  40.502  39.885  10.463
94313W        W58257  10.796  20.097  11.584
94314W        W58258  28.012  15.126  10.501
94315W        W58259   6.854   6.344  10.596
94316W        W58260  15.193  17.275  10.599
94317W        W58261  42.936   4.796  13.965
94318W        W58262   3.950  13.304  11.537
94319W        W58263  12.769  21.548  10.520
94320W        W58264   7.863   2.295  11.981
94321W        W58265   7.765   1.871   3.147
94322W        W58266   9.164  15.789   3.746
94323W        W58267   5.410  31.102  14.402
94324W        W58268   7.800  44.309   1.326
94325W        W58269  42.965  11.845   0.409
94326W        W58270  42.842  42.914  12.022
94327W        W58271   5.283  21.089   1.900
94328W        W58272  44.441   6.190   1.882
94329W        W58273  17.232  38.993  13.374
94330W        W58274  40.962  27.029   4.834
94331W        W58275  35.894   2.419   4.279
94332W        W58276   8.834  33.540  10.642
94333W        W58277  35.011   7.718   0.789
94334W        W58278   1.328   7.268   0.358
94335W        W58279  17.607  28.076  12.477
94336W        W58280  16.314  24.172  12.095
94337W        W58281  10.832  43.415  14.906
94338W        W58282   0.962   8.858   1.322
94339W        W58283  32.894   0.469  13.879
94340W        W58284   1.741   0.768   4.618
94341W        W58285  21.094  32.609  12.092
94342W        W58286  23.703   4.321   3.802
94343W        W58287  31.453   6.198  13.467
94344W        W58288  36.848  36.354  12.418
94345W        W58289  32.593  38.920   2.254
94346W        W58290  31.124  15.613   2.766
94347W        W58291  21.735  23.715  10.081
94348W        W58292  40.538  31.153   2.786
94349W        W58293  11.796  24.670   3.717
94350W        W58294  27.125  29.126   3.676
94351W        W58295  40.492   7.199  13.042
94352W        W58296  27.470  14.237  10.441
94353W        W58297  26.171   8.190   3.718
94354W        W58298  29.523  16.685  13.975
94355W        W58299   2.777  29.512  10.451
94356W        W58300   9.859  24.565  12.475
94357W        W58301  41.916  16.097  12.919
94358W        W58302  16.086  32.970   1.448
94359W        W58303  18.207   7.278  11.947
94360W        W58304  34.960  38.379   0.903
94361W        W58305  42.841   3.717  11.421
94362W        W58306  44.333  21.074   3.291
94363W        W58307  36.446   4.714  11.969
94364W        W58308  32.425  21.149   0.742
94365W        W58309  28.970  17.093  14.932
94366W        W58310  12.123   6.786  12.526
94367W        W58311  15.149  15.145  14.876
94368W        W58312  29.570  31.038   1.716
94369W        W58313  37.085   5.248  12.358
94370W        W58314  43.902  15.685  12.880
94371W        W58315  42.505  23.610  10.988
94372W        W58316  24.486  40.526  12.414
94373W        W58317  25.633  39.980  13.377
94374W        W58318  31.989   2.343   3.294
94375W        W58319  13.330   4.865   0.829
94376W        W58320   1.778  16.097   1.831
94377W        W58321  20.214  25.641  12.361
94378W        W58322   1.910  23.032  14.510
94379W        W58323  31.634  38.389  10.477
94380W        W58324  16.229  33.421   0.830
94381W        W58325  43.014  22.019   2.694
94382W        W58326  41.922  26.466  11.513
94383W        W58327  11.135  40.353   1.764
94384W        W58328  11.839  18.283  10.015
94385W        W58329  15.135   4.208   4.262
94386W        W58330  13.325  37.873   3.196
94387W        W58331  33.975  34.027   2.896
94388W        W58332  29.970  26.967  12.048
94389W        W58333  12.671  34.048  13.542
94390W        W58334  10.647  25.639  12.903
94391W        W58335  11.830  21.079  10.489
94392W        W58336  17.195  13.840   0.879
94393W        W58337   1.425  43.978   4.837
94394W        W58338  28.462  25.541  12.398
94395W        W58339  43.492  10.804  10.628
94396W        W58340  32.060   2.258   5.263
94397W        W58341  25.693  31.429   3.367
94398W        W58342  15.577  26.585   3.353
94399W        W58343  20.663  15.247  11.038
94400W        W58344  14.730  42.525  13.498
94401W        W58345  27.983  41.015   4.351
94402W        W58346  10.191  33.076   3.827
94403W        W58347   7.683  38.863  10.148
94404W        W58348  30.466  43.970  14.873
94405W        W58349  32.074   7.789   3.775
94406W        W58350  36.897  17.208  12.509
94407W        W58351  40.432  40.392  13.933
94408W        W58352  24.072  35.086  13.009
94409W        W58353  40.488   4.876   9.665
94410W        W58354  33.482  10.241  12.885
94411W        W58355  41.930  18.713   2.378
94412W        W58356  21.054  13.121  13.972
94413W        W58357   2.845   7.370   0.932
94414W        W58358  23.630  38.391  14.851
94415W        W58359  18.256  37.506   4.743
94416W        W58360   3.254   2.455  11.578
94417W        W58361  19.274   3.307  12.446
94418W        W58362  21.523  30.947   1.698
94419W        W58363  43.807  18.100   0.931
94420W        W58364   0.924   3.360  14.458
94421W        W58365  19.739   1.747  12.998
94422W        W58366  30.595  18.077   5.152
94423W        W58367   7.724  25.552  14.482
94424W        W58368  21.521  26.118  14.393
94425W        W58369  20.572  31.504   1.302
94426W        W58370  34.929  36.850   4.818
94427W        W58371   1.841  28.157  14.489
94428W        W58372  33.055  15.686  13.453
94429W        W58373   5.394   5.811  10.645
94430W        W58374   1.329  30.981  11.549
94431W        W58375  41.826  36.473   2.734
94432W        W58376  30.111  37.460  13.507
94433W        W58377  33.881  43.913  11.421
94434W        W58378  20.724  23.049   1.816
94435W        W58379  26.016   9.269   2.358
94436W        W58380  39.852  17.300   1.913
94437W        W58381  17.749  13.249  14.761
94438W        W58382   4.433   2.953  14.864
94439W        W58383  22.014  23.038   0.815
94440W        W58384  33.947  35.943  14.901
94441W        W58385  14.675  43.330  13.811
94442W        W58386  34.387  35.985  12.573
94443W        W58387  11.262   4.312  10.411
94444W        W58388   1.794  24.523  13.474
94445W        W58389   8.686  36.354  14.778
94446W        W58390  24.650  18.615   3.635
94447W        W58391  13.196  26.009   4.734
94448W        W58392  17.246  20.669  10.888
94449W        W58393  39.511  24.125  11.994
94450W        W58394   6.304  16.196  13.533
94451W        W58395  34.892  35.921   1.757
94452W        W58396  34.546  43.457   2.362
94453W        W58397   6.776  35.466  12.366
94454W        W58398   8.254   1.402  11.464
94455W        W58399  12.288  20.691   2.256
94456W        W58400  44.451  25.487  12.971
94457W        W58401  15.695   0.867  14.863
94458W        W58402  24.524  27.085  13.901
94459W        W58403  42.386  33.514   0.262
94460W        W58404  13.306  11.813  11.409
94461W        W58405  24.190  35.473   0.789
94462W        W58406  23.123  44.853  12.048
94463W        W58407  43.870   9.762   3.241
94464W        W58408  39.065  28.086   4.734
94465W        W58409  15.809  29.969   3.661
94466W        W58410  34.999  25.005  12.522
94467W        W58411  21.735  20.646  14.837
94468W        W58412  14.158  21.595   4.186
94469W        W58413  27.972  17.227  13.517
94470W        W58414  42.845  15.606  14.817
94471W        W58415  43.354  33.608  12.977
94472W        W58416  13.693   6.884   2.857
94473W        W58417  35.593   9.699  11.113
94474W        W58418  28.140  44.497  14.908
94475W        W58419  26.573  35.007   5.088
94476W        W58420  20.673  11.271   2.179
94477W        W58421  18.552  21.624   0.954
94478W        W58422  19.644  44.776  13.002
94479W        W58423  40.368   7.875   1.766
94480W        W58424  22.091   0.383   2.902
94481W        W58425  33.942  21.029  13.940
94482W        W58426   9.809  26.499  11.471
94483W        W58427  37.567  23.063   4.258
94484W        W58428  11.275  13.327   2.856
94485W        W58429  24.213  14.331  14.340
94486W        W58430  18.077  26.094   0.288
94487W        W58431   0.823   1.836   1.878
94488W        W58432  21.665  34.432   4.679
94489W        W58433   2.956  33.403  12.483
94490W        W58434  44.505  36.531   3.338
94491W        W58435  40.409   4.435  14.824
94492W        W58436  10.152  24.688   0.883
94493W        W58437  22.084   2.391  12.943
94494W        W58438   0.842   3.308  11.530
94495W        W58439  43.293  14.201  11.868
94496W        W58440  28.567  28.977  11.076
94497W        W58441  18.568  41.313  13.540
94498W        W58442   4.796  12.783  10.554
94499W        W58443  42.863  41.377   0.326
94500W        W58444   5.781  23.178  10.571
94501W        W58445  41.885  21.246   4.184
94502W        W58446  44.486   8.799  13.490
94503W        W58447   8.220  27.551   4.750
94504W        W58448  24.662   6.841   1.308
94505W        W58449   4.247  24.631   2.407
94506W        W58450  13.803  30.445   3.159
94507W        W58451   3.350   1.343  11.950
94508W        W58452  43.372  18.126  11.565
94509W        W58453  26.989  28.935  14.032
94510W        W58454  14.303   7.292   2.326
94511W        W58455  37.044  20.588   3.732
94512W        W58456  38.496  10.751  10.622
94513W        W58457  11.838   6.832   4.329
94514W        W58458  28.520   4.887  10.922
94515W        W58459  23.490   3.334   9.990
94516W        W58460  14.255  30.592   3.762
94517W        W58461   1.242   1.833   1.790
94518W        W58462   4.874   6.189  11.015
94519W        W58463  20.045  22.207   1.413
94520W        W58464   1.819  27.005  14.933
94521W        W58465  22.611  13.300  11.380
94522W        W58466   8.797  40.818  12.866
94523W        W58467   6.851  29.075  11.104
94524W        W58468  17.566   4.911   4.267
94525W        W58469   8.832  10.874   0.866
94526W        W58470  29.022  18.755   1.270
94527W        W58471   9.678  15.776  13.009
94528W        W58472  17.791  14.191  13.810
94529W        W58473  18.690   7.263   1.831
94530W        W58474   8.319  28.532  11.542
94531W        W58475  18.700  14.146   0.251
94532W        W58476  30.961  26.668   3.294
94533W        W58477  10.636   8.764  10.534
94534W        W58478   7.261  15.758   2.243
94535W        W58479  37.535  11.246  11.870
94536W        W58480  10.257  27.947  10.596
94537W        W58481  16.156  40.807  12.830
94538W        W58482  20.133   7.224  10.069
94539W        W58483   1.763   2.433   1.247
94540W        W58484  25.547  24.199  12.995
94541W        W58485  40.479   4.872   5.094
94542W        W58486  13.823  24.071  10.477
94543W        W58487  35.383  16.158  10.956
94544W        W58488  29.484  37.990   2.249
94545W        W58489   7.415   6.840   4.685
94546W        W58490  10.235  30.993  12.987
94547W        W58491  16.731  36.053   3.220
94548W        W58492  12.206  21.082  11.917
94549W        W58493  19.613  28.518   0.483
94550W        W58494  14.148   7.368   5.172
94551W        W58495  35.493  27.061   0.442
94552W        W58496  34.482   4.327  11.423
94553W        W58497  43.813  12.160  12.491
94554W        W58498  21.031   4.284  12.474
94555W        W58499  11.156  39.983   4.779
94556W        W58500  42.903  40.805   3.315
94557W        W58501   6.285   8.225  14.489
94558W        W58502  38.341  19.653  13.990
94559W        W58503  38.894  41.502  10.975
94560W        W58504  30.107  12.124   2.200
94561W        W58505  11.337  29.623  13.985
94562W        W58506  15.211  42.281   4.656
94563W        W58507  17.194  10.163  13.312
94564W        W58508  27.138   0.468  11.900
94565W        W58509  34.113   9.270   0.865
94566W        W58510   5.806  26.982   2.206
94567W        W58511  37.408  31.063  10.490
94568W        W58512   0.953   0.270   3.351
94569W        W58513   4.393  17.115   3.666
94570W        W58514  27.555  40.435   4.243
94571W        W58515  16.210  33.413  12.390
94572W        W58516  18.095  31.969   1.812
94573W        W58517  37.543  33.077  11.434
94574W        W58518  36.424  31.903   1.889
94575W        W58519  29.972  29.640  13.927
94576W        W58520  36.867  40.858  14.454
94577W        W58521  26.616   5.765  14.990
94578W        W58522  14.147  18.083   4.678
94579W        W58523  25.633   2.247  12.073
94580W        W58524  44.284   8.398   2.878
94581W        W58525  32.507   3.243  11.082
94582W        W58526   3.877  17.173   1.715
94583W        W58527   2.398  35.971   4.137
94584W        W58528   7.199  11.250  10.937
94585W        W58529  24.221  22.021  12.975
94586W        W58530   7.895  15.297  11.088
94587W        W58531  40.364   8.272   3.263
94588W        W58532  31.584  37.380   0.386
94589W        W58533  23.104   6.237  11.426
94590W        W58534   5.720  23.235   4.201
94591W        W58535  11.323  38.533   3.643
94592W        W58536   0.372  12.161  14.855
94593W        W58537  41.455   6.397   3.370
94594W        W58538  34.086  36.440  14.388
94595W        W58539   0.891  24.643  12.875
94596W        W58540  32.971   2.956   0.250
94597W        W58541  28.681  34.612  12.978
94598W        W58542   4.439  30.945  12.913
94599W        W58543  10.790   8.899  14.418
94600W        W58544  44.495  23.550  12.949
94601W        W58545  17.769   5.352   9.472
94602W        W58546  19.269   6.337   0.329
94603W        W58547  21.112   2.407   1.810
94604W        W58548  14.116  43.389  12.416
94605W        W58549   2.790   2.390  14.023
94606W        W58550  14.286  30.968  10.535
94607W        W58551  29.981  34.404   1.268
94608W        W58552   6.746  23.664  14.298
94609W        W58553  15.311  20.047  12.382
94610W        W58554  35.956  18.672   2.828
94611W        W58555  13.650  32.460   4.194
94612W        W58556   7.287   7.748   1.889
94613W        W58557  22.107  25.096   3.341
94614W        W58558  12.759  23.670   4.116
94615W        W58559  39.333   9.372  14.291
94616W        W58560  28.521  23.702  14.464
94617W        W58561   8.796  30.535  13.519
94618W        W58562  12.797  36.930  13.967
94619W        W58563  40.826  34.058   4.735
94620W        W58564   4.788  39.030   4.339
94621W        W58565  36.059   3.316   4.650
94622W        W58566  11.340  24.104   0.448
94623W        W58567  17.175  42.388  14.895
94624W        W58568  21.717  30.118  10.459
94625W        W58569  25.487   7.297  13.477
94626W        W58570  44.838  32.128  13.489
94627W        W58571  17.653  21.538   5.708
94628W        W58572  10.246  40.306   1.310
94629W        W58573  23.021   3.382  14.020
94630W        W58574  27.975  22.730   4.666
94631W        W58575  39.884  14.095  10.937
94632W        W58576  13.135  15.802  12.350
94633W        W58577  34.872  25.539   4.144
94634W        W58578  38.452  28.495  12.381
94635W        W58579  21.050  11.797  10.464
94636W        W58580  10.236  44.851   3.779
94637W        W58581  10.175   0.934   0.439
94638W        W58582  31.058  10.376  13.057
94639W        W58583  10.344  10.155   1.854
94640W        W58584  39.850  19.262  11.394
94641W        W58585  37.398  29.118  12.442
94642W        W58586  20.035   0.378  13.506
94643W        W58587  22.640   4.337  10.488
94644W        W58588   5.747  12.806   3.179
94645W        W58589   2.409  22.037  13.945
94646W        W58590   7.171  13.723   0.831
94647W        W58591  11.128  19.070   3.261
94648W        W58592   8.694   7.806  14.279
94649W        W58593  26.009  28.510   0.926
94650W        W58594  29.038  32.928   2.362
94651W        W58595  13.679  24.516  11.379
94652W        W58596  10.216   6.322   5.287
94653W        W58597   9.655  12.783   0.398
94654W        W58598  15.759  22.696   3.649
94655W        W58599  44.380   0.764  13.396
94656W        W58600  17.656  23.653   1.423
94657W        W58601  37.928  39.033   1.805
94658W        W58602  35.549   0.316  11.381
94659W        W58603   1.803  12.143   2.857
94660W        W58604  26.120  39.993   4.328
94661W        W58605  15.325  13.764  10.996
94662W        W58606  10.296   9.346   2.730
94663W        W58607   2.827  31.057   4.331
94664W        W58608   1.951  25.570  12.984
94665W        W58609  26.664   2.755  12.364
94666W        W58610  28.660  31.140   0.255
94667W        W58611   3.840  19.281   2.393
94668W        W58612  39.054  40.329  12.510
94669W        W58613   0.253  38.956   1.817
94670W        W58614  40.042  30.645  13.900
94671W        W58615  40.805  14.262   4.696
94672W        W58616   9.361   8.733   2.893
94673W        W58617  10.162  19.667   5.268
94674W        W58618  33.906  14.276  11.428
94675W        W58619  37.478  38.016   3.632
94676W        W58620  34.067  33.539  13.545
94677W        W58621  39.017  32.606   1.325
94678W        W58622  42.488  27.941   4.303
94679W        W58623  37.890  23.662  12.073
94680W        W58624   4.890  39.401   0.466
94681W        W58625  10.872  26.977   9.593
94682W        W58626  17.141  15.272   3.709
94683W        W58627   5.361  19.111  10.581
94684W        W58628  14.150   2.338  11.400
94685W        W58629  21.248   0.486   1.905
94686W        W58630  24.615  36.547   0.772
94687W        W58631  36.379   9.828   2.753
94688W        W58632  30.995   9.847   1.431
94689W        W58633  38.044  36.564  12.947
94690W        W58634  33.486   9.713  13.980
94691W        W58635  41.297  10.337   2.263
94692W        W58636  20.129  44.330   0.271
94693W        W58637  10.706   6.851  11.601
94694W        W58638  36.367  43.477  14.971
94695W        W58639   6.230  44.803   3.647
94696W        W58640  11.345   1.803   3.296
94697W        W58641  37.971  42.958  13.518
94698W        W58642  19.174  11.707   0.863
94699W        W58643  26.505  23.518   0.276
94700W        W58644  19.117  10.690  12.048
94701W        W58645  18.601   9.283  12.552
94702W        W58646  23.550  21.036   1.781
94703W        W58647   2.293  22.112   3.784
94704W        W58648  44.901  17.664   4.611
94705W        W58649   2.304  23.576   1.283
94706W        W58650  42.363  27.470  12.083
94707W        W58651  39.942  28.041   2.766
94708W        W58652   8.161  21.576  11.510
94709W        W58653  29.561   5.214  13.374
94710W        W58654  14.169   9.308  11.884
94711W        W58655  27.635  30.071  12.031
94712W        W58656  23.538  19.678   2.409
94713W        W58657  15.751  18.245  11.937
94714W        W58658  24.059  40.998  14.918
94715W        W58659   9.883  21.615   2.410
94716W        W58660   0.873   2.822  10.481
94717W        W58661  18.089  30.125  12.077
94718W        W58662  42.903  27.033  14.983
94719W        W58663  41.332   4.363  13.858
94720W        W58664  13.623  15.173   1.356
94721W        W58665  26.951  36.350   2.315
94722W        W58666  10.232   5.766  11.496
94723W        W58667  32.000  35.936  10.587
94724W        W58668  40.000  28.947  12.572
94725W        W58669  34.418  22.134   3.751
94726W        W58670  39.977  10.294  13.015
94727W        W58671  21.241  10.211  10.963
94728W        W58672  19.749  19.657   0.943
94729W        W58673   3.445   9.218   1.436
94730W        W58674   7.751   3.864  13.377
94731W        W58675  32.000   3.396   0.885
94732W        W58676  37.989   5.263  13.408
94733W        W58677   3.331  33.611   4.766
94734W        W58678  23.140   1.886  14.862
94735W        W58679  22.245  17.721   0.734
94736W        W58680  18.693  37.537  12.353
94737W        W58681  28.457  32.609  14.781
94738W        W58682  11.192  23.156  13.884
94739W        W58683  40.325  28.103   0.926
94740W        W58684  27.528   3.820   1.916
94741W        W58685  44.282   8.697   2.742
94742W        W58686   0.796  20.207   2.205
94743W        W58687  16.651  22.047   1.886
94744W        W58688   0.935   5.204  11.421
94745W        W58689  25.506  20.228  13.365
94746W        W58690  19.281  43.880   1.358
94747W        W58691  18.692  24.523  10.478
94748W        W58692   8.251  26.028   1.383
94749W        W58693  15.634  11.341  12.841
94750W        W58694  19.653  27.031   2.316
94751W        W58695  11.632  36.904   2.820
94752W        W58696  30.602  18.609  14.487
94753W        W58697  26.696   1.920  10.585
94754W        W58698  27.685  42.379   2.746
94755W        W58699   1.942   9.711  12.339
94756W        W58700  35.008  27.566   2.789
94757W        W58701  10.237  32.142   9.994
94758W        W58702  33.400  10.171   3.810
94759W        W58703  41.986  28.073   4.170
94760W        W58704  44.855  29.574   2.751
94761W        W58705  10.790   9.874   0.387
94762W        W58706  28.939   2.847   2.263
94763W        W58707  28.625  13.702  13.899
94764W        W58708  29.658  27.537  14.980
94765W        W58709  14.098  12.232   4.732
94766W        W58710   0.931  15.135  10.974
94767W        W58711  34.979  28.100   0.829
94768W        W58712  38.379  20.063  14.922
94769W        W58713  18.646  35.887  11.953
94770W        W58714  12.853  34.991   0.897
94771W        W58715  13.154  11.252  13.932
94772W        W58716  14.610   2.459  13.376
94773W        W58717  44.813  23.216  11.024
94774W        W58718  34.560   0.958  11.872
94775W        W58719  19.695  32.901   3.182
94776W        W58720  19.196   5.873   3.169
94777W        W58721  18.665  16.709   4.625
94778W        W58722  35.533  29.626   0.874
94779W        W58723   4.849  31.504  14.427
94780W        W58724  37.490   4.245  11.588
94781W        W58725  26.959  21.088   4.325
94782W        W58726  33.902  13.207   1.755
94783W        W58727  34.435   3.395   3.715
94784W        W58728   3.314  43.283  11.881
94785W        W58729  13.279  29.168  10.120
94786W        W58730  27.957  28.156  14.902
94787W        W58731  37.875   1.441   3.861
94788W        W58732  33.482  18.603   4.612
94789W        W58733   9.178  21.731  11.060
94790W        W58734  11.701  29.077  14.030
94791W        W58735  25.081  30.937   2.706
94792W        W58736   8.304  21.637  13.539
94793W        W58737  22.547  11.720   1.329
94794W        W58738  16.670  42.298   1.934
94795W        W58739  31.624   0.428   2.896
94796W        W58740  32.585   8.258   0.760
94797W        W58741  34.495   8.316   2.418
94798W        W58742   9.792  13.333  12.382
94799W        W58743  35.006  25.522  13.353
94800W        W58744  37.940  43.318   1.409
94801W        W58745   7.329  35.044  12.060
94802W        W58746  29.990  17.126  12.946
94803W        W58747  28.127  23.646   0.267
94804W        W58748  44.316  32.452   3.632
94805W        W58749  35.506   0.372  12.469
94806W        W58750   4.277  31.569  13.001
94807W        W58751  11.251   6.894  14.874
94808W        W58752  16.095  41.967  11.544
94809W        W58753   9.159   1.963   5.156
94810W        W58754  40.518  20.627  12.349
94811W        W58755  42.932  41.534  12.969
94812W        W58756  21.574  30.434   0.387
94813W        W58757   5.238   9.718   0.468
94814W        W58758  44.339  18.550   1.365
94815W        W58759  44.357  14.751  14.364
94816W        W58760  40.044   9.793   2.370
94817W        W58761  11.136  23.611   3.221
94818W        W58762  38.481  44.882  13.388
94819W        W58763  14.307  27.016   4.683
94820W        W58764  15.745  27.024  10.643
94821W        W58765  16.571  21.257  13.363
94822W        W58766  36.027  22.711   1.269
94823W        W58767   2.930  24.141  10.985
94824W        W58768  12.161  37.965   1.853
94825W        W58769  32.475  20.242   1.894
94826W        W58770  23.106   4.272  12.978
94827W        W58771  21.218  31.481  12.354
94828W        W58772   8.689  37.887  13.024
94829W        W58773  43.379  38.944   1.735
94830W        W58774   1.388  19.538   4.181
94831W        W58775   4.362   2.374  12.434
94832W        W58776   5.439  35.437  14.012
94833W        W58777  26.553  29.563   3.176
94834W        W58778   2.872  36.401  13.806
94835W        W58779   9.363   9.270  10.935
94836W        W58780   8.185  35.007  13.811
94837W        W58781   4.835  33.471  13.955
94838W        W58782   8.299  31.041   0.762
94839W        W58783  38.045  33.457   1.395
94840W        W58784  34.015  15.248  14.444
94841W        W58785  24.068  33.625  13.036
94842W        W58786  18.254  15.167   1.240
94843W        W58787  12.689  19.275   2.726
94844W        W58788  39.454  24.117   1.761
94845W        W58789   2.295  31.646  11.879
94846W        W58790  27.601  42.852  10.910
94847W        W58791  25.110  42.493  12.090
94848W        W58792  40.498  40.468   3.822
94849W        W58793   6.747  28.935   5.306
94850W        W58794  29.068  13.240   0.902
94851W        W58795  20.216  34.472  11.550
94852W        W58796  14.748  32.010  11.015
94853W        W58797  24.170   5.798   1.911
94854W        W58798  10.717   3.257  11.475
94855W        W58799   0.785  24.606  13.531
94856W        W58800  34.907   9.324  14.833
94857W        W58801  17.760  31.049  12.986
94858W        W58802  41.891  38.985   1.439
94859W        W58803   4.366  26.114  13.894
94860W        W58804  27.479  31.932  13.400
94861W        W58805  20.629  16.670   4.132
94862W        W58806  25.066   2.320   2.315
94863W        W58807  35.863  13.815   0.281
94864W        W58808  40.889  21.638   1.845
94865W        W58809  36.467  16.790  13.354
94866W        W58810  38.067  10.171  13.806
94867W        W58811  29.133  27.131   3.775
94868W        W58812  18.213   5.753  12.577
94869W        W58813  11.157  10.220   1.800
94870W        W58814  36.572  37.442  14.311
94871W        W58815  37.842  43.004  11.113
94872W        W58816  40.843  23.556   1.295
94873W        W58817  15.709  32.083   2.861
94874W        W58818  35.023   0.355  12.901
94875W        W58819  15.670  14.320   2.291
94876W        W58820  41.400  25.546   4.809
94877W        W58821  18.675  38.902  14.435
94878W        W58822  23.586  35.460   2.297
94879W        W58823  18.754  17.177   0.727
94880W        W58824  32.586   4.735  13.896
94881W        W58825  39.843  43.328   4.796
94882W        W58826  37.377  36.944   3.330
94883W        W58827  20.577  23.554  14.948
94884W        W58828  27.643  33.390   3.246
94885W        W58829  21.153  40.825   5.310
94886W        W58830  38.471  41.398   1.336
94887W        W58831  26.998  42.009  12.351
94888W        W58832  14.263   0.843   3.202
94889W        W58833  11.636   8.176   2.778
94890W        W58834  38.024  32.004   0.958
94891W        W58835   9.807  33.886  12.056
94892W        W58836  31.574   3.255  13.960
94893W        W58837   0.279   2.794   2.375
94894W        W58838  41.416   7.198  14.839
94895W        W58839   5.870  32.592   2.305
94896W        W58840   1.887  17.685   0.926
94897W        W58841  25.699  27.677  12.476
94898W        W58842  38.532   9.799   3.807
94899W        W58843  21.538   6.217   3.819
94900W        W58844  20.208  12.641   3.254
94901W        W58845   8.215  41.307   1.814
94902W        W58846   9.803  37.361  14.274
94903W        W58847  11.281  41.416  13.393
94904W        W58848   1.853  28.466   3.724
94905W        W58849  20.690  37.025  11.115
94906W        W58850  29.138  41.952   3.800
94907W        W58851  33.428  44.890  12.444
94908W        W58852  10.294  42.466  13.794
94909W        W58853  38.373   5.245   5.123
94910W        W58854  15.656   1.307   1.344
94911W        W58855  35.567   9.691  11.925
94912W        W58856   1.886  21.535   4.270
94913W        W58857  13.717  31.905  13.919
94914W        W58858  41.043  43.856  11.554
94915W        W58859  44.377  34.519  10.030
94916W        W58860  30.920   2.230  14.030
94917W        W58861   6.291  43.787   1.353
94918W        W58862   7.706  10.237  14.439
94919W        W58863  41.948   0.466   0.907
94920W        W58864  16.640  11.852  10.449
94921W        W58865   5.395  35.080  12.411
94922W        W58866  29.945  36.974  12.059
94923W        W58867  43.813  16.653   3.201
94924W        W58868  27.987  36.484   2.270
94925W        W58869  37.526  13.783   2.252
94926W        W58870  27.497  19.628  13.333
94927W        W58871   4.317  13.837  10.981
94928W        W58872  44.332  36.956   2.721
94929W        W58873  27.665  24.072  12.452
94930W        W58874  31.935  38.398   4.259
94931W        W58875  25.613   9.193  12.501
94932W        W58876   7.727  22.735  11.435
94933W        W58877  32.929  14.193  12.041
94934W        W58878   7.236  24.050  11.403
94935W        W58879  17.148  25.709   4.804
94936W        W58880   0.454  24.695   2.807
94937W        W58881   2.912   1.744   3.744
94938W        W58882  36.511  29.627  12.351
94939W        W58883   1.806  30.038  12.993
94940W        W58884  14.247  11.205   0.368
94941W        W58885  28.563  25.103   2.390
94942W        W58886  35.542   7.272   2.204
94943W        W58887  40.053  35.534   2.853
94944W        W58888  12.337  21.582  12.478
94945W        W58889  22.505  22.610   5.163
94946W        W58890  25.587  11.773  14.828
94947W        W58891  44.434  10.228   1.734
94948W        W58892  25.068  37.027   2.308
94949W        W58893   4.357  10.785   2.729
94950W        W58894  12.304  30.440   1.861
94951W        W58895  23.734  31.064  12.526
94952W        W58896   6.301  27.118   3.756
94953W        W58897  38.567  20.177  12.883
94954W        W58898  15.226  31.107   0.762
94955W        W58899  13.222  14.757  14.464
94956W        W58900  42.918  37.409   5.082
94957W        W58901   7.869   5.738  13.458
94958W        W58902  43.499  24.190   3.834
94959W        W58903  38.482  10.250  10.555
94960W        W58904  33.469  30.053  14.433
94961W        W58905  32.937  36.872  10.506
94962W        W58906  37.918  16.708   3.708
94963W        W58907  18.217  15.610   3.755
94964W        W58908  18.064   9.287   3.285
94965W        W58909  30.592   1.760  13.944
94966W        W58910   2.967   8.221   3.649
94967W        W58911  43.358  12.659  13.010
94968W        W58912  37.349  23.587   0.819
94969W        W58913  27.512  20.593   0.395
94970W        W58914   9.662  42.984   1.831
94971W        W58915  39.973   5.328   3.866
94972W        W58916   5.862  40.438  11.108
94973W        W58917  18.764  11.213   1.272
94974W        W58918   3.288  14.647  12.002
94975W        W58919  39.364  32.961  12.348
94976W        W58920  31.464  35.952   3.699
94977W        W58921  26.980  17.181  11.094
94978W        W58922  38.505  43.856   2.815
94979W        W58923  22.717  10.312   4.808
94980W        W58924  42.462  37.055  10.563
94981W        W58925  13.717  13.138  13.326
94982W        W58926  32.566   3.459   2.761
94983W        W58927   9.319  24.995   4.703
94984W        W58928  31.404  13.829  13.925
94985W        W58929  33.997  17.768   4.206
94986W        W58930   9.367  19.775   0.416
94987W        W58931  20.059  29.654   2.888
94988W        W58932  33.550   6.907  14.764
94989W        W58933   3.867   3.292  14.924
94990W        W58934  31.982   3.955   3.839
94991W        W58935  36.883   4.319   3.645
94992W        W58936  28.554  32.492   4.232
94993W        W58937  30.569  37.378  14.283
94994W        W58938   0.746  20.555  10.944
94995W        W58939   4.916  14.312   3.654
94996W        W58940  19.719  32.462  12.340
94997W        W58941  35.883  26.677  11.496
94998W        W58942  42.800  34.379  12.028
94999W        W58943  42.359  11.734   0.350
95000W        W58944  38.019  38.059   1.700
95001W        W58945  35.391  32.083  13.008
95002W        W58946  28.672  14.246  10.606
95003W        W58947  31.018  39.438  14.964
95004W        W58948  37.085  43.509  13.355
95005W        W58949   0.300   5.272  11.931
95006W        W58950  11.140  26.577  11.098
95007W        W58951  22.042  14.762  13.498
95008W        W58952  44.375   8.167   3.343
95009W        W58953  17.677  20.549   2.843
95010W        W58954  11.337  14.118   3.225
95011W        W58955  39.544   8.334   0.385
95012W        W58956   3.254  28.975   3.374
95013W        W58957  21.195  20.132   4.775
95014W        W58958  19.062   1.916   0.310
95015W        W58959  24.555  17.094   3.163
95016W        W58960  13.268  41.031  14.439
95017W        W58961  21.218  20.692  12.917
95018W        W58962  38.504   0.385   2.182
95019W        W58963  13.346  19.202  11.573
95020W        W58964  26.485  34.395  12.391
95021W        W58965  21.682   1.913   1.307
95022W        W58966   1.748   4.713  11.961
95023W        W58967   0.957   8.701  10.426
95024W        W58968  28.598   8.297  10.548
95025W        W58969  28.471   8.237  13.877
95026W        W58970  30.025  13.257  12.846
95027W        W58971  41.447  11.356  11.864
95028W        W58972   1.290  18.591   3.745
95029W        W58973  19.127  26.569   1.789
95030W        W58974  21.110  19.604  14.913
95031W        W58975   3.418   7.745  12.015
95032W        W58976  38.939  18.076  12.571
95033W        W58977  24.997   0.775  13.819
95034W        W58978  11.629  15.178  11.929
95035W        W58979  12.785   6.332  14.784
95036W        W58980  37.504  23.634  12.924
95037W        W58981   9.889  35.969   2.415
95038W        W58982  41.827  36.045  10.129
95039W        W58983  15.591   1.298   2.678
95040W        W58984   4.741  44.374   5.265
95041W        W58985  35.095  21.751   1.215
95042W        W58986  35.003  26.653  10.052
95043W        W58987   7.775  36.906  11.869
95044W        W58988  14.273  16.226   1.345
95045W        W58989  30.022  11.705  11.949
95046W        W58990  42.326   5.761  10.457
95047W        W58991  41.522  34.545   1.282
95048W        W58992  25.085  25.711   3.235
95049W        W58993  12.169  41.481  13.024
95050W        W58994  42.458   9.216  10.600
95051W        W58995  36.521   2.893   2.682
95052W        W58996  40.024  37.859  12.527
95053W        W58997  21.727  31.513  12.013
95054W        W58998  10.375  21.055   3.862
95055W        W58999  10.205  26.668  12.376
95056W        W59000  13.252  29.143  11.102
95057W        W59001  10.368   9.779   2.412
95058W        W59002  34.008  12.272  13.951
95059W        W59003  22.059   3.742  14.297
95060W        W59004   8.753  20.597   0.480
95061W        W59005  38.396  14.308   2.694
95062W        W59006   8.236  42.937   1.297
95063W        W59007   0.493   3.840  13.355
95064W        W59008  26.699  27.614   4.752
95065W        W59009  35.552   1.916   2.380
95066W        W59010  24.526  28.146  10.941
95067W        W59011  13.140  36.933  11.427
95068W        W59012  29.954  12.855  12.373
95069W        W59013  30.085  39.411  13.360
95070W        W59014  44.828  17.071   4.715
95071W        W59015  20.727  23.598  12.877
95072W        W59016   7.838  15.141   1.698
95073W        W59017  34.865  43.480  11.982
95074W        W59018   0.252  33.483   0.460
95075W        W59019  30.436  33.979  12.992
95076W        W59020  42.889  14.616  11.584
95077W        W59021  19.062   9.764   3.844
95078W        W59022  18.221  35.884  10.538
95079W        W59023  42.029  40.359   0.774
95080W        W59024  43.450  21.208   3.337
95081W        W59025  27.170  16.273   4.778
95082W        W59026  26.995  27.521  14.511
95083W        W59027  26.535  13.300   3.147
95084W        W59028  22.075  11.197   4.137
95085W        W59029   1.801  33.493  12.566
95086W        W59030   4.830   3.315  13.419
95087W        W59031   6.787   1.829   2.726
95088W        W59032  40.335  38.066  13.853
95089W        W59033   8.167  40.405  11.024
95090W        W59034  24.099  34.534  12.095
95091W        W59035   2.752  16.734  14.893
95092W        W59036   8.165   9.376  10.470
95093W        W59037   2.281  29.554  14.815
95094W        W59038  26.602  27.979  12.518
95095W        W59039   4.433  12.125  13.007
95096W        W59040  15.208   8.767  14.341
95097W        W59041  33.626  29.551   0.936
95098W        W59042  13.189   9.258   4.673
95099W        W59043  36.583  26.616  13.365
95100W        W59044  29.170  14.804   3.240
95101W        W59045  30.121  20.669   1.416
95102W        W59046  21.616  18.645  12.860
95103W        W59047  35.916  28.985   0.394
95104W        W59048  27.192  22.613  14.779
95105W        W59049  22.232  12.790   3.655
95106W        W59050  29.595  11.721  12.458
95107W        W59051   3.709  25.005   0.410
95108W        W59052  36.384  40.825   0.862
95109W        W59053  43.500  42.925  12.364
95110W        W59054  26.549  20.141   5.126
95111W        W59055  35.926  33.890   4.611
95112W        W59056   5.802   2.864   1.386
95113W        W59057  22.202   5.278   1.271
95114W        W59058  12.134  30.635  14.327
95115W        W59059   1.243   3.368   1.214
95116W        W59060   2.244   5.264  14.493
95117W        W59061   2.242  28.670   1.718
95118W        W59062  17.089   2.822  11.098
95119W        W59063  39.922   6.184   1.706
95120W        W59064   5.279  26.121   3.371
95121W        W59065  21.086  15.769  10.990
95122W        W59066   9.875   4.758   1.703
95123W        W59067  28.606  32.566   3.212
95124W        W59068  20.705  12.713  12.574
95125W        W59069  25.075  16.707   4.242
95126W        W59070  28.181  33.090  13.363
95127W        W59071  18.651  29.496  14.351
95128W        W59072   1.359  10.252  14.016
95129W        W59073  22.062  20.199   3.204
95130W        W59074  10.188  12.354  13.520
95131W        W59075  31.037  17.176   0.858
95132W        W59076  27.605  38.853  11.434
95133W        W59077  19.073  22.578   2.179
95134W        W59078  26.049  37.970  13.527
95135W        W59079  10.181  24.511  10.462
95136W        W59080   1.297  39.051  10.475
95137W        W59081  13.229   3.794  13.015
95138W        W59082  16.118  25.981   2.893
95139W        W59083  41.531  40.021  12.060
95140W        W59084  40.352  24.703  14.831
95141W        W59085  12.203  24.683   3.323
95142W        W59086  33.406  19.771  12.406
95143W        W59087  16.720   2.443   4.273
95144W        W59088   9.169  44.833   2.750
95145W        W59089  16.083  38.435   1.697
95146W        W59090  14.601   2.964   2.409
95147W        W59091   2.425   1.397  10.977
95148W        W59092  39.025  43.410   1.320
95149W        W59093   4.390  40.046   4.675
95150W        W59094   0.765  10.685   0.325
95151W        W59095  26.556  23.689  13.877
95152W        W59096  41.911  37.379  12.424
95153W        W59097   4.870  41.482   0.248
95154W        W59098  27.963  27.109   1.792
95155W        W59099   7.716   1.882   0.857
95156W        W59100  31.428  33.949  12.967
95157W        W59101  13.219  25.005  14.403
95158W        W59102  33.034  22.092  13.902
95159W        W59103  33.552   2.790  12.959
95160W        W59104  29.025  28.996  10.617
95161W        W59105  20.141   9.762   1.357
95162W        W59106  19.677  35.435   1.824
95163W        W59107   2.833   4.700  14.515
95164W        W59108   1.833  36.095  12.845
95165W        W59109   6.308  28.543   1.322
95166W        W59110  43.370  38.565   3.630
95167W        W59111  25.045  10.254  10.061
95168W        W59112   4.208  33.586   0.338
95169W        W59113  29.091  12.780   0.962
95170W        W59114  44.913   0.263   4.184
95171W        W59115  33.127  15.098   3.691
95172W        W59116  43.764  17.762  14.913
95173W        W59117  12.791  16.732   2.830
95174W        W59118   9.713   7.226   1.759
95175W        W59119  33.491  30.983  10.597
95176W        W59120  14.229   6.810  14.999
95177W        W59121   1.414  26.456   1.820
95178W        W59122   2.962  41.016   0.345
95179W        W59123  37.483  39.536  10.577
95180W        W59124  32.434  29.145  14.025
95181W        W59125  32.987  23.579  12.540
95182W        W59126  16.251  42.906   1.446
95183W        W59127  13.233   8.790   2.383
95184W        W59128  12.204  25.983  12.418
95185W        W59129  21.238  42.483   0.882
95186W        W59130  24.012  41.374   1.708
95187W        W59131  17.643  41.474  14.408
95188W        W59132  27.152  29.641   1.324
95189W        W59133  14.108   3.751  13.851
95190W        W59134  17.211  40.885  12.526
95191W        W59135   3.821   9.745  12.058
95192W        W59136  16.778  23.236  14.921
95193W        W59137   9.269  36.571   1.392
95194W        W59138  10.823  25.993  11.992
95195W        W59139  29.500  10.637   3.792
95196W        W59140  14.809  39.546  14.864
95197W        W59141  30.100   5.252   2.798
95198W        W59142  32.034  24.985  11.957
95199W        W59143   8.724   2.406  14.994
95200W        W59144  40.982  19.256  12.901
95201W        W59145   7.840  18.227   0.942
95202W        W59146  26.564  20.264  11.476
95203W        W59147   0.779   3.335  10.490
95204W        W59148  13.126  26.053  12.839
95205W        W59149  22.711  25.041  11.585
95206W        W59150  36.027   8.198  13.861
95207W        W59151  26.526  11.368   4.202
95208W        W59152  14.166   9.866  14.804
95209W        W59153   3.892  32.609   4.157
95210W        W59154  20.097   2.235   3.167
95211W        W59155  29.471  17.306   1.280
95212W        W59156  42.483  25.509   4.640
95213W        W59157  40.340   5.226   5.321
95214W        W59158  20.061  21.090   0.813
95215W        W59159  35.960  30.071  13.417
95216W        W59160   7.198  11.653  11.096
95217W        W59161   7.737   6.784  11.486
95218W        W59162   6.339  13.346  11.588
95219W        W59163  24.133  37.506  10.492
95220W        W59164  29.057  17.631  11.445
95221W        W59165   0.296   1.243  10.889
95222W        W59166  42.317  25.560   1.831
95223W        W59167  26.022  43.439  11.999
95224W        W59168   9.321  32.495  12.864
95225W        W59169  34.884  33.458   3.789
95226W        W59170  24.024  26.208   1.929
95227W        W59171  29.612  11.366   4.777
95228W        W59172   7.706   2.295  11.593
95229W        W59173   3.841   0.759  11.064
95230W        W59174  20.185  15.587   4.812
95231W        W59175  12.205  41.029  12.378
95232W        W59176  31.961  35.056  12.847
95233W        W59177  12.357  27.134   2.823
95234W        W59178  37.345   4.232   4.182
95235W        W59179  21.604  36.367   1.779
95236W        W59180   6.282   3.745  10.576
95237W        W59181  40.945  38.065  14.006
95238W        W59182  27.056  39.957  11.080
95239W        W59183   9.186  40.506   1.388
95240W        W59184  27.649  43.277  10.579
95241W        W59185  34.976  40.373   3.726
95242W        W59186  33.109  36.039  12.513
95243W        W59187  25.536  27.975  11.466
95244W        W59188   6.922   9.275   1.921
95245W        W59189   7.904  41.532  14.315
95246W        W59190  12.305  32.463  14.862
95247W        W59191  34.068  35.939   3.781
95248W        W59192  22.529   3.346   5.273
95249W        W59193  12.771  13.222  11.930
95250W        W59194  30.573  29.568  13.031
95251W        W59195   5.834   6.198   3.690
95252W        W59196   3.754  28.152  13.830
95253W        W59197  34.894  14.252   1.927
95254W        W59198  12.756  20.156   0.409
95255W        W59199  14.100  40.417  10.504
95256W        W59200  21.518  32.615   1.922
95257W        W59201  19.633  28.184  14.873
95258W        W59202  18.208   8.795   3.341
95259W        W59203   8.258  20.769  12.889
95260W        W59204  26.496  39.995  14.812
95261W        W59205  28.143  14.289  14.472
95262W        W59206  43.931   9.872   0.852
95263W        W59207  24.627  37.936   3.863
95264W        W59208  30.450   3.251   0.410
95265W        W59209  32.111   2.310   0.468
95266W        W59210  42.988  18.231   1.221
95267W        W59211  25.552  44.847   1.748
95268W        W59212  29.455  39.454  12.350
95269W        W59213   7.335  11.327  13.842
95270W        W59214  29.484  42.987   2.775
95271W        W59215  30.152   1.917  11.548
95272W        W59216   9.208  25.538  13.944
95273W        W59217  35.971  36.504  14.912
95274W        W59218  44.267  35.533  12.424
95275W        W59219   0.763   5.707  12.558
95276W        W59220  14.205   1.481  10.997
95277W        W59221  37.068   9.294  13.028
95278W        W59222   9.234  13.256  12.917
95279W        W59223  35.911  44.986   0.798
95280W        W59224  27.471  41.363   2.836
95281W        W59225   6.255  17.207  10.102
95282W        W59226  40.457  33.616  14.866
95283W        W59227  43.913  35.962  11.415
95284W        W59228  23.518   9.753  13.450
95285W        W59229  15.326  32.964  14.970
95286W        W59230  30.419  44.337   0.439
95287W        W59231  33.624  22.070  10.957
95288W        W59232  37.338  42.977   0.421
95289W        W59233  43.837  28.469  10.637
95290W        W59234  16.653   8.702   0.245
95291W        W59235  26.184   0.821   3.237
95292W        W59236  37.418  27.075   2.827
95293W        W59237   1.427  33.025  13.987
95294W        W59238  39.819  11.802  10.554
95295W        W59239   2.364  36.367   2.786
95296W        W59240  30.907  18.644  10.973
95297W        W59241   9.680  12.152   0.953
95298W        W59242  16.567  30.995   2.711
95299W        W59243  17.130  16.196  12.882
95300W        W59244  31.525  44.464   0.782
95301W        W59245  28.097  44.451  11.924
95302W        W59246   6.330  34.954   2.680
95303W        W59247  41.913   5.305  10.077
95304W        W59248  39.910  28.473  13.859
95305W        W59249  43.382  33.579  14.011
95306W        W59250  16.787  32.565   4.338
95307W        W59251  18.272  27.167  14.439
95308W        W59252  25.598  26.041   2.389
95309W        W59253  34.602  21.052   1.264
95310W        W59254   6.768   1.376  12.926
95311W        W59255  19.704  30.132  12.895
95312W        W59256   1.785   3.955   2.751
95313W        W59257  40.536  43.962   4.335
95314W        W59258   6.197  34.543   0.821
95315W        W59259   0.827  24.634  14.806
95316W        W59260  15.144  34.058  14.761
95317W        W59261   7.210  43.458  11.998
95318W        W59262  26.022   5.326   2.669
95319W        W59263   1.377  20.660  12.041
95320W        W59264  12.814  25.016   4.651
95321W        W59265  38.890  19.659   2.707
95322W        W59266  34.604  26.154  10.951
95323W        W59267  30.141  18.289   3.271
95324W        W59268   9.359  40.352   0.839
95325W        W59269  22.704   7.775   3.728
95326W        W59270  27.655   5.311  13.521
95327W        W59271  15.802  21.647   0.859
95328W        W59272  26.050  28.470   1.715
95329W        W59273  17.581  14.264  14.792
95330W        W59274  29.924  18.671  11.456
95331W        W59275   5.228  44.862  11.488
95332W        W59276  19.283   4.315   0.263
95333W        W59277  40.538   1.329   1.894
95334W        W59278  19.101  14.626  14.823
95335W        W59279  10.746   0.248   1.875
95336W        W59280   3.758  17.288  13.521
95337W        W59281   5.871  12.250   0.444
95338W        W59282   8.738  31.646   3.376
95339W        W59283   1.320   5.854   1.730
95340W        W59284  33.018  10.173   2.378
95341W        W59285  15.594  34.459   5.611
95342W        W59286  27.190  36.862   2.684
95343W        W59287  27.004  15.725  11.021
95344W        W59288  27.946  39.449  12.377
95345W        W59289  10.871  13.297  13.336
95346W        W59290  30.003  19.049  14.773
95347W        W59291  25.507  27.519   0.903
95348W        W59292  37.001  23.666   3.861
95349W        W59293  34.570  12.821  11.027
95350W        W59294  27.129  24.634  10.500
95351W        W59295  30.013  24.051   2.712
95352W        W59296  19.216   0.426  14.831
95353W        W59297   3.946  40.835  10.577
95354W        W59298   0.387  26.038  11.439
95355W        W59299  42.925  20.264   0.885
95356W        W59300  10.775  33.993   1.771
95357W        W59301  34.408   5.395   3.178
95358W        W59302  19.642  29.431  13.326
95359W        W59303  16.154  43.301  11.013
95360W        W59304  31.122  10.275   3.771
95361W        W59305  35.558  16.582   2.198
95362W        W59306  39.818  30.425  10.456
95363W        W59307  33.541  30.063  13.847
95364W        W59308  42.359  30.919   0.451
95365W        W59309  33.517   4.925   4.621
95366W        W59310  25.038  41.509   1.414
95367W        W59311  16.200  24.566   4.629
95368W        W59312  18.272  13.189   3.732
95369W        W59313  27.136  12.353  11.441
95370W        W59314  34.502  15.645  11.412
95371W        W59315   4.845   2.337   4.682
95372W        W59316   3.908   2.266  13.417
95373W        W59317  25.215  18.597   0.380
95374W        W59318  37.497  24.123   2.271
95375W        W59319   7.810  11.320   1.746
95376W        W59320  13.310  16.600  12.360
95377W        W59321   5.718  27.653   1.726
95378W        W59322   2.231   3.360   3.808
95379W        W59323   6.775   1.422   3.834
95380W        W59324  16.241  11.344  14.781
95381W        W59325  37.497  18.265  11.544
95382W        W59326  15.176   9.718   0.897
95383W        W59327   9.752  25.044   3.797
95384W        W59328  29.985  31.949   1.801
95385W        W59329  42.520  12.648  12.449
95386W        W59330   3.307  17.563   2.320
95387W        W59331  26.196  14.744   3.230
95388W        W59332  28.125   2.261  13.056
95389W        W59333  34.933   5.769  11.588
95390W        W59334  40.811   5.914  10.044
95391W        W59335  21.205  25.480  12.019
95392W        W59336  20.071  12.631   0.811
95393W        W59337  38.893  40.873   0.878
95394W        W59338  41.884  18.712   0.948
95395W        W59339  29.959  33.589   0.802
95396W        W59340  15.628  24.560   9.981
95397W        W59341  33.071   0.397  11.511
95398W        W59342  31.519  26.000   1.721
95399W        W59343  38.953   6.408  14.493
95400W        W59344  12.787  27.071   2.386
95401W        W59345  43.418  34.469  12.542
95402W        W59346  37.373  41.470   1.863
95403W        W59347  22.511  18.570  14.807
95404W        W59348   3.869   2.921  14.292
95405W        W59349  39.526  36.383  11.045
95406W        W59350   6.908  25.571   4.201
95407W        W59351  10.651   2.811  10.017
95408W        W59352   7.672  39.327   2.838
95409W        W59353   9.194  10.287  10.957
95410W        W59354  19.590  19.137  10.957
95411W        W59355  16.631  38.059  14.423
95412W        W59356   9.260  38.459   4.789
95413W        W59357  15.140  29.597  12.052
95414W        W59358  23.633   5.422  14.370
95415W        W59359   6.429   8.890   3.323
95416W        W59360   3.833  43.955  11.555
95417W        W59361  13.178  33.479  10.161
95418W        W59362   4.411  28.580   2.322
95419W        W59363  33.918  29.520  13.861
95420W        W59364   8.268  37.938  10.589
95421W        W59365   9.747   8.304   0.448
95422W        W59366  32.021  14.253  12.537
95423W        W59367  14.791   2.964  14.948
95424W        W59368  24.711  13.264  10.999
95425W        W59369  16.212  40.806  14.503
95426W        W59370  10.315  43.811  12.406
95427W        W59371  35.440   1.422  13.458
95428W        W59372  43.978  39.410  13.385
95429W        W59373  40.911  32.609   2.408
95430W        W59374   8.190  21.696  13.024
95431W        W59375  18.187   2.850  10.980
95432W        W59376  29.561   7.840  11.988
95433W        W59377   2.387  31.618   0.353
95434W        W59378  34.907  35.907   1.348
95435W        W59379  31.535  21.663  11.027
95436W        W59380  28.509  16.190   4.255
95437W        W59381   8.248  29.069  13.420
95438W        W59382  40.961  30.580   3.751
95439W        W59383   4.924   0.920  13.396
95440W        W59384   0.964  27.955  14.958
95441W        W59385   9.282  16.641   2.378
95442W        W59386  15.140   0.969  10.492
95443W        W59387  39.981  35.422  10.916
95444W        W59388  25.084  44.467  11.059
95445W        W59389   0.397  21.071  13.046
95446W        W59390  21.749  41.325  10.970
95447W        W59391   5.317  34.586  13.440
95448W        W59392  38.462  44.270   2.408
95449W        W59393   2.825   6.834   2.761
95450W        W59394   5.865  12.137   2.805
95451W        W59395   6.426  40.374  14.339
95452W        W59396  39.378  27.507  11.588
95453W        W59397  44.423  27.183  11.962
95454W        W59398   6.898  18.650  12.418
95455W        W59399  21.698  41.012  12.408
95456W        W59400  25.110  40.319  13.934
95457W        W59401  36.094  20.062   4.176
95458W        W59402  23.699  38.429  11.998
95459W        W59403   1.796   2.801   2.769
95460W        W59404  40.836  12.744  14.026
95461W        W59405  34.413   3.767  11.898
95462W        W59406  29.653  25.695   0.811
95463W        W59407  16.254  13.334  12.544
95464W        W59408   4.727  32.522  13.490
95465W        W59409   9.237  33.583  11.508
95466W        W59410  21.676  24.485  12.557
95467W        W59411  21.569  30.128  10.940
95468W        W59412  14.834  37.049   0.751
95469W        W59413  17.175  10.174  10.452
95470W        W59414   7.833   2.388   4.680
95471W        W59415  23.164   7.355  13.874
95472W        W59416  23.056  32.624  14.007
95473W        W59417   2.401  44.846  11.031
95474W        W59418  20.156  40.941  14.760
95475W        W59419  39.843   4.754   2.373
95476W        W59420  42.961  17.570  14.479
95477W        W59421  26.552  39.477  10.625
95478W        W59422  19.723  33.554   0.258
95479W        W59423  14.626  34.045  13.878
95480W        W59424  25.997   7.301  14.922
95481W        W59425  28.946  34.890  11.430
95482W        W59426  12.276  21.626  13.352
95483W        W59427  44.894  39.539   4.173
95484W        W59428  40.452  34.447  14.991
95485W        W59429  18.190   7.803  13.369
95486W        W59430  42.439  27.463   3.310
95487W        W59431  15.164  16.676   0.303
95488W        W59432  29.929  18.709   2.898
95489W        W59433  21.168   4.815  10.580
95490W        W59434  34.887  40.035   3.150
95491W        W59435  34.101  44.924   3.171
95492W        W59436   3.849   8.296  13.004
95493W        W59437  27.120  31.415   3.751
95494W        W59438  34.992  11.706  12.069
95495W        W59439   3.268   4.935   2.762
95496W        W59440  42.490  16.154   4.827
95497W        W59441  23.050   2.225  14.409
95498W        W59442  30.414  20.045  12.931
95499W        W59443   6.239  28.017   5.153
95500W        W59444  43.375  16.711  13.358
95501W        W59445   0.946  16.281   3.345
95502W        W59446  22.141  40.836  13.866
95503W        W59447  32.971  27.097  10.941
95504W        W59448  24.179  10.698  12.837
95505W        W59449  27.481   4.207   0.307
95506W        W59450   7.379  30.659   1.328
95507W        W59451  16.667   3.385   0.315
95508W        W59452  28.119  28.454  11.387
95509W        W59453   0.794   5.313  13.548
95510W        W59454  19.704  31.909   4.657
95511W        W59455   6.209  10.278   3.382
95512W        W59456  30.546  15.297  12.949
95513W        W59457  30.093   1.254  12.096
95514W        W59458  19.681  36.490  12.991
95515W        W59459  23.531   3.916   0.296
95516W        W59460  18.106  12.167  13.908
95517W        W59461  15.716  33.409   3.332
95518W        W59462   2.445   0.494  10.929
95519W        W59463  29.553  32.505  12.949
95520W        W59464  35.087  10.337  10.043
95521W        W59465  31.034   8.334  12.524
95522W        W59466  24.210  44.327   4.220
95523W        W59467  25.071  37.565   1.859
95524W        W59468   6.183   0.853   2.200
95525W        W59469  14.191  29.524   2.804
95526W        W59470  29.613   8.866   4.317
95527W        W59471  33.418  14.270   0.403
95528W        W59472  17.695  38.564   4.172
95529W        W59473  15.596  14.302   3.363
95530W        W59474  10.752  15.634   9.986
95531W        W59475   7.370   2.767  12.838
95532W        W59476  12.155  44.274  11.573
95533W        W59477  38.973  36.030  11.486
95534W        W59478   5.268  19.221  12.092
95535W        W59479   1.357  44.472  13.857
95536W        W59480  13.629  10.773  14.947
95537W        W59481  42.939  13.599   3.693
95538W        W59482  38.872   6.877  14.297
95539W        W59483  23.542  18.764   0.868
95540W        W59484  13.605   3.907  14.966
95541W        W59485  23.081  11.296   4.206
95542W        W59486   3.457  15.271  14.025
95543W        W59487   8.816   7.208  11.611
95544W        W59488  27.949  19.167  14.305
95545W        W59489  11.797  25.218  10.637
95546W        W59490   4.213  38.067  13.033
95547W        W59491  43.784   4.425  12.355
95548W        W59492   0.870  35.041   2.359
95549W        W59493  14.319   3.353   1.393
95550W        W59494  22.225  32.106   2.323
95551W        W59495   7.838  20.612  11.878
95552W        W59496  32.001  44.474   3.817
95553W        W59497  22.650  27.972  10.902
95554W        W59498  26.121   4.409   4.260
95555W        W59499  17.684  25.069  14.028
95556W        W59500  42.284   1.932  12.424
95557W        W59501  40.379   5.234   0.267
95558W        W59502   6.359  30.094  11.978
95559W        W59503   4.314  10.295   2.842
95560W        W59504   2.239  34.058   3.160
95561W        W59505  14.209  42.915  12.990
95562W        W59506  18.236  42.458  12.056
95563W        W59507  15.812   0.455   0.728
95564W        W59508   8.781  13.295   1.920
95565W        W59509  11.265  37.504   0.825
95566W        W59510  44.758   8.367  10.130
95567W        W59511  18.051  10.190   9.498
95568W        W59512   9.239   5.345   3.781
95569W        W59513  13.799   0.903   2.187
95570W        W59514  21.210  25.602  11.483
95571W        W59515  10.716  21.636   3.316
95572W        W59516   7.325  16.785  12.447
95573W        W59517  41.853  41.852   3.779
95574W        W59518   3.406  12.156   2.828
95575W        W59519  25.485  14.758  13.446
95576W        W59520  16.244  21.584  10.999
95577W        W59521  17.109  24.698  14.963
95578W        W59522  36.906  37.016  13.409
95579W        W59523  40.826  32.083   4.648
95580W        W59524   0.277  13.197  13.394
95581W        W59525   6.365   0.428   0.802
95582W        W59526  11.193  18.054   0.865
95583W        W59527  28.451  38.333   2.247
95584W        W59528  19.159   7.798   4.202
95585W        W59529  23.524  31.435   0.419
95586W        W59530  15.578  24.204  12.570
95587W        W59531  44.936  39.830   4.297
95588W        W59532  14.172  14.229   1.870
95589W        W59533  21.184  10.297   5.097
95590W        W59534  43.402  22.557   1.285
95591W        W59535  28.110  13.660   1.400
95592W        W59536  36.552  26.509   0.893
95593W        W59537  23.009  23.549  13.037
95594W        W59538  42.847  37.079  14.344
95595W        W59539  44.011  10.876   1.847
95596W        W59540  33.907   1.754   3.169
95597W        W59541  41.028  12.309  11.543
95598W        W59542   2.392  32.950  13.836
95599W        W59543  21.196  35.870   2.729
95600W        W59544  42.467  17.639   1.379
95601W        W59545  15.686  28.164  12.562
95602W        W59546  10.342   0.260  11.993
95603W        W59547  13.223  43.947   2.813
95604W        W59548  24.096  22.102  11.475
95605W        W59549  28.154  39.046  12.573
95606W        W59550  20.655   8.349   0.315
95607W        W59551   1.925  15.783  13.061
95608W        W59552   3.411   7.765  13.527
95609W        W59553  27.680  37.343   2.190
95610W        W59554  41.901  33.044   1.238
95611W        W59555  27.620  40.451  10.927
95612W        W59556  27.012   2.331   1.361
95613W        W59557   5.800  37.951  13.803
95614W        W59558  40.847  12.694  14.303
95615W        W59559  19.207  44.826   0.927
95616W        W59560  34.928   4.236   4.758
95617W        W59561   7.413  41.985  12.981
95618W        W59562   9.863  28.613   0.934
95619W        W59563  26.114  32.073  10.518
95620W        W59564  23.211  24.028  13.415
95621W        W59565  16.308  25.565   2.724
95622W        W59566  22.150   5.254  12.535
95623W        W59567   5.728  21.513   0.951
95624W        W59568  23.019  11.160  11.974
95625W        W59569   1.374  19.208  12.914
95626W        W59570   9.182   6.834   3.240
95627W        W59571  41.530   5.289  10.618
95628W        W59572  31.931  13.659   0.320
95629W        W59573  17.154  14.657   2.889
95630W        W59574  27.109  31.448  13.539
95631W        W59575  42.827  27.537  14.307
95632W        W59576   1.278  14.696   0.303
95633W        W59577  27.049  38.822  12.064
95634W        W59578  12.717  32.476   0.783
95635W        W59579  26.038  34.501  11.939
95636W        W59580  44.982  14.197   3.721
95637W        W59581  22.672  39.950   0.262
95638W        W59582   6.230  36.883  13.838
95639W        W59583   9.247  30.970   4.299
95640W        W59584   1.249  14.232   5.243
95641W        W59585  26.590  39.503  11.606
95642W        W59586   4.226  42.365  10.467
95643W        W59587  35.546   1.381  12.574
95644W        W59588  13.638   9.885  13.449
95645W        W59589  11.788  33.568  12.502
95646W        W59590  28.014  20.267   4.132
95647W        W59591  32.532  32.621   2.667
95648W        W59592  17.577  23.996   3.748
95649W        W59593  15.822  10.293   1.360
95650W        W59594   8.173  43.478  14.328
95651W        W59595   4.728  10.217   4.697
95652W        W59596  39.428  30.935  12.910
95653W        W59597   5.925  14.675  12.971
95654W        W59598  28.070  28.966  13.475
95655W        W59599   7.909  27.190   3.742
95656W        W59600  36.051  20.728  11.553
95657W        W59601  26.144  16.312  13.334
95658W        W59602  40.816  13.719   0.821
95659W        W59603  35.436  29.121   0.483
95660W        W59604  17.759  35.041  10.124
95661W        W59605  13.141  15.721  12.866
95662W        W59606  19.732   5.236   1.274
95663W        W59607  12.709  16.667   0.726
95664W        W59608  41.462  43.399  12.547
95665W        W59609   3.866  10.181  11.610
95666W        W59610  26.112   0.377   4.319
95667W        W59611  33.085  17.677  12.527
95668W        W59612  33.891  18.290  11.115
95669W        W59613  38.542  41.040  13.992
95670W        W59614  33.437  22.153  13.016
95671W        W59615   5.421  40.539   0.857
95672W        W59616  29.648   3.435   5.287
95673W        W59617  10.296  26.979   2.737
95674W        W59618   8.868  20.641  11.532
95675W        W59619  40.855  10.810  12.066
95676W        W59620   9.646   8.271   1.251
95677W        W59621  41.358  17.203   4.813
95678W        W59622  16.140  34.090  14.420
95679W        W59623  15.188  14.218  10.556
95680W        W59624   5.438  34.924   0.479
95681W        W59625  38.993   4.892   2.400
95682W        W59626  38.379  44.335  12.012
95683W        W59627  19.726  33.399   4.807
95684W        W59628  34.029  17.655   0.373
95685W        W59629  39.051  18.722   3.632
95686W        W59630  38.884  19.607   4.725
95687W        W59631  31.445   8.857  13.320
95688W        W59632  29.938  35.577   4.347
95689W        W59633  10.789  16.149   1.798
95690W        W59634   6.306   8.207  10.910
95691W        W59635  39.350   6.364  12.836
95692W        W59636  12.315   3.725   1.827
95693W        W59637  15.243  44.883   1.220
95694W        W59638  31.408  38.834  10.984
95695W        W59639  21.557  26.977   2.307
95696W        W59640  14.800  19.114  13.364
95697W        W59641  19.078  12.667  12.493
95698W        W59642   3.864   1.756  11.121
95699W        W59643  28.075   9.820   4.233
95700W        W59644  38.485  13.346   4.773
95701W        W59645  24.017   9.862  11.575
95702W        W59646   5.273  40.820  13.837
95703W        W59647   7.217  19.767   2.349
95704W        W59648  36.980   8.241   3.243
95705W        W59649  23.201  28.979  12.363
95706W        W59650  15.786  13.340  10.468
95707W        W59651  38.439  33.997  12.393
95708W        W59652  27.048  34.903   1.448
95709W        W59653  42.979  14.731  14.378
95710W        W59654  23.540  12.821   1.791
95711W        W59655  24.204   7.290  13.371
95712W        W59656  12.204  38.447   2.206
95713W        W59657   9.317  32.513   5.655
95714W        W59658  20.762  39.375  10.551
95715W        W59659   0.885  35.872  12.879
95716W        W59660  34.379   6.689  14.922
95717W        W59661  25.067  30.611   4.661
95718W        W59662  42.337  33.599   4.791
95719W        W59663   0.772  24.496   1.437
95720W        W59664  28.657  39.521   3.318
95721W        W59665   9.208   9.878  13.344
95722W        W59666  24.527  28.162  12.865
95723W        W59667  28.002   6.260  11.486
95724W        W59668  15.148  11.343   4.760
95725W        W59669  14.614  24.525   3.155
95726W        W59670   9.798  32.979  10.404
95727W        W59671   0.977  34.431  14.917
95728W        W59672  27.622  22.578  13.049
95729W        W59673  13.199   9.665   2.837
95730W        W59674   4.264   5.766  11.441
95731W        W59675  13.301  34.540  13.356
95732W        W59676   7.220  39.492  12.563
95733W        W59677   7.231  25.686  10.957
95734W        W59678  31.140  32.396  14.898
95735W        W59679  43.865  32.942  14.346
95736W        W59680   0.827  34.989  14.992
95737W        W59681   8.242  37.575   4.201
95738W        W59682  10.254  28.561  13.944
95739W        W59683  31.602   2.317  11.999
95740W        W59684  10.305  25.609   3.228
95741W        W59685   8.183   5.217   2.336
95742W        W59686  39.811   7.867  12.980
95743W        W59687  17.572  16.165   0.467
95744W        W59688   4.758  41.972  11.049
95745W        W59689   2.833  31.522   0.956
95746W        W59690  29.146  11.661  12.546
95747W        W59691  41.972  42.960   1.765
95748W        W59692   7.739  25.048   0.741
95749W        W59693  14.141  10.677  11.568
95750W        W59694  38.360  29.155   3.205
95751W        W59695  25.590  27.668   3.775
95752W        W59696   0.383   6.202  11.939
95753W        W59697   2.263  24.653  13.528
95754W        W59698  43.424  22.124   1.700
95755W        W59699   6.407   8.820   5.283
95756W        W59700  20.130  41.303   4.706
95757W        W59701  37.082   7.343  12.886
95758W        W59702   7.382   2.440  14.424
95759W        W59703   2.940  24.995   3.380
95760W        W59704  35.499  31.153   4.147
95761W        W59705  21.583  26.646   0.415
95762W        W59706  25.995  17.151  13.877
95763W        W59707  40.798  31.575  12.377
95764W        W59708  42.511  26.624   1.271
95765W        W59709  42.925  32.556   2.729
95766W        W59710  16.699  34.612  10.887
95767W        W59711  24.220   4.343   3.375
95768W        W59712   5.850  38.911   1.335
95769W        W59713   0.304  25.688   0.465
95770W        W59714  42.461   8.286   2.896
95771W        W59715  34.869  21.064  12.051
95772W        W59716   0.799  27.549  13.841
95773W        W59717   0.949  38.845  11.489
95774W        W59718  41.310  21.700   4.159
95775W        W59719   6.686  39.866  12.907
95776W        W59720   4.261  11.637  11.574
95777W        W59721  39.352   2.247  10.404
95778W        W59722  33.531   0.401   0.904
95779W        W59723   0.963  37.986  13.045
95780W        W59724  39.919  15.167  10.507
95781W        W59725  19.043   8.900   0.871
95782W        W59726  29.009  10.235   4.693
95783W        W59727   6.225  37.365   3.739
95784W        W59728  30.421  30.060   3.157
95785W        W59729   5.798  40.843  14.444
95786W        W59730  41.915  11.177   2.300
95787W        W59731  24.024  36.565   0.465
95788W        W59732  30.940  41.993   5.286
95789W        W59733  11.828  32.474  12.475
95790W        W59734   9.770  38.945   4.161
95791W        W59735  26.457  20.198  13.961
95792W        W59736  39.400  15.599  11.928
95793W        W59737  39.009  28.063  12.413
95794W        W59738  16.619  34.925   1.308
95795W        W59739  25.993  30.507  13.425
95796W        W59740  33.465  28.497  11.482
95797W        W59741  11.651  31.986  11.004
95798W        W59742  12.176  20.197  13.331
95799W        W59743  37.048  16.246   3.656
95800W        W59744   6.327   0.333   0.433
95801W        W59745  43.347  43.946  14.467
95802W        W59746   6.367   7.881  14.494
95803W        W59747   0.768  25.106  13.850
95804W        W59748   6.729   7.717  13.399
95805W        W59749  39.830   8.234  10.554
95806W        W59750  32.905  27.565   1.268
95807W        W59751  20.110  15.295   3.226
95808W        W59752  21.191  43.971  13.024
95809W        W59753   8.845  15.315   0.344
95810W        W59754  42.427   4.390   3.790
95811W        W59755  28.667  23.630  11.017
95812W        W59756   6.201  41.525  14.004
95813W        W59757  31.056  36.430   1.312
95814W        W59758  34.968  40.380   5.176
95815W        W59759  11.803  28.952   0.872
95816W        W59760  44.339  41.411   4.772
95817W        W59761  12.263  24.212   1.376
95818W        W59762  37.403  32.632   3.147
95819W        W59763  22.571  37.027  12.487
95820W        W59764   4.263  16.792   4.200
95821W        W59765  30.109  42.487   0.838
95822W        W59766   7.704  26.182  14.276
95823W        W59767  31.089  40.962  11.415
95824W        W59768  20.125  16.603   3.193
95825W        W59769  20.094  25.621  13.017
95826W        W59770  17.665  39.916  10.416
95827W        W59771  10.872  17.701  14.764
95828W        W59772  10.642   0.340  14.890
95829W        W59773  29.118  23.651  12.349
95830W        W59774   9.694  36.394  11.021
95831W        W59775  29.449   9.296   1.803
95832W        W59776   1.295  31.443   4.723
95833W        W59777  22.127  11.709  14.934
95834W        W59778   8.839   0.938   3.642
95835W        W59779  27.445  15.106   2.224
95836W        W59780  38.012   7.238   0.274
95837W        W59781  43.477   9.216   3.635
95838W        W59782  17.101   4.887  11.469
95839W        W59783  24.136  25.116   2.759
95840W        W59784  36.466  33.551   1.413
95841W        W59785  43.012   0.387   3.247
95842W        W59786  15.717  36.420   0.251
95843W        W59787  35.939   4.337  11.967
95844W        W59788  40.885   8.400   3.216
95845W        W59789  21.700   1.800  12.468
95846W        W59790  43.001  16.190  14.386
95847W        W59791  44.824  14.593   3.772
95848W        W59792  20.526   3.331  14.507
95849W        W59793  17.278  12.334   4.300
95850W        W59794  40.485  17.653  14.309
95851W        W59795  25.190  43.458  14.870
95852W        W59796  26.984  10.764   0.428
95853W        W59797  13.679   2.853  13.464
95854W        W59798  31.896   4.796   1.411
95855W        W59799  36.930  17.684  13.940
95856W        W59800  24.080  15.636   0.868
95857W        W59801   6.754  41.892   1.435
95858W        W59802  18.191  19.061   3.718
95859W        W59803   4.354  21.136  14.759
95860W        W59804  11.830  27.068   1.914
95861W        W59805  20.173  44.010  13.321
95862W        W59806  26.574  23.050   4.301
95863W        W59807  24.077  42.342  14.031
95864W        W59808  21.629  28.934   3.308
95865W        W59809  27.562  38.848   1.733
95866W        W59810  21.242  20.682   4.659
95867W        W59811  35.500   3.786  12.428
95868W        W59812  10.328  15.307   0.327
95869W        W59813  18.604   7.305   9.571
95870W        W59814  18.261  29.425  11.533
95871W        W59815  30.045  44.804   0.327
95872W        W59816   9.692  11.242   2.190
95873W        W59817  33.589   8.399  11.526
95874W        W59818  18.567  40.959   2.274
95875W        W59819  26.057   2.746   4.165
95876W        W59820  27.511  12.838  13.542
95877W        W59821  29.079  42.494   5.741
95878W        W59822  15.635  44.358   1.920
95879W        W59823  34.586  20.249  11.056
95880W        W59824  36.383  40.805   3.291
95881W        W59825  17.591  31.973  14.969
95882W        W59826   6.907  38.388  14.917
95883W        W59827   3.853  35.380   0.946
95884W        W59828   9.224  44.380  12.010
95885W        W59829   8.815  12.309   4.260
95886W        W59830   6.899  27.508   3.178
95887W        W59831  32.442   6.184  12.901
95888W        W59832  10.383  30.976   0.885
95889W        W59833  41.316  39.894   2.808
95890W        W59834  13.261   6.283   2.241
95891W        W59835  35.581  39.900  14.466
95892W        W59836  33.608   6.355   3.315
95893W        W59837  27.451  29.550   4.319
95894W        W59838  17.634  12.813   4.257
95895W        W59839   6.915  35.432  11.467
95896W        W59840  25.701  33.518  11.957
95897W        W59841  12.714   8.695  13.898
95898W        W59842  24.229  19.562  11.522
95899W        W59843  31.523   2.907  13.805
95900W        W59844  18.109  38.015   1.886
95901W        W59845  17.557  40.416   0.935
95902W        W59846  38.472   6.367   4.232
95903W        W59847  37.063  30.943   2.687
95904W        W59848  23.537  20.643  13.385
95905W        W59849  19.104  20.761   4.619
95906W        W59850  41.452  14.690   2.806
95907W        W59851  10.250  10.675  12.579
95908W        W59852  22.227   5.904  11.046
95909W        W59853  11.287   6.719   1.393
95910W        W59854   9.333  26.588   2.221
95911W        W59855  44.780  38.378   2.227
95912W        W59856   7.411   1.809  10.963
95913W        W59857  27.541  20.684  10.577
95914W        W59858  12.659  18.661   4.190
95915W        W59859  23.151  30.053  12.032
95916W        W59860  43.469  42.295   0.476
95917W        W59861  11.673   9.705   3.346
95918W        W59862  29.920  40.909   4.209
95919W        W59863  44.881  24.994  12.452
95920W        W59864  39.322  29.607  13.410
95921W        W59865  10.827  35.055   4.678
95922W        W59866   4.395  25.626   3.314
95923W        W59867  24.586  30.993   4.785
95924W        W59868   1.971  44.475  14.771
95925W        W59869  11.813  13.682  12.345
95926W        W59870  15.104  28.170   1.258
95927W        W59871  26.142  22.236   0.924
95928W        W59872  41.494  20.651   4.828
95929W        W59873   1.247  34.532   0.408
95930W        W59874  36.476  21.708  14.006
95931W        W59875   3.429  10.163   4.211
95932W        W59876  26.508  30.087   3.224
95933W        W59877  10.219   1.810   4.738
95934W        W59878   6.381   1.864   1.337
95935W        W59879  33.906  25.634  14.915
95936W        W59880  18.129  11.252  11.583
95937W        W59881  20.084  40.938   2.740
95938W        W59882  32.529  19.088  14.398
95939W        W59883  43.772  23.634   2.253
95940W        W59884  12.819  19.094  13.443
95941W        W59885  28.474  43.348  14.299
95942W        W59886  16.228  33.484  11.382
95943W        W59887  40.821  41.968  13.895
95944W        W59888   4.292  23.734   4.139
95945W        W59889  14.104   9.700   4.777
95946W        W59890   0.293  23.103   3.681
95947W        W59891  16.172   3.239   2.338
95948W        W59892  21.224  23.076   1.396
95949W        W59893  20.226  39.996  12.043
95950W        W59894  35.007   4.778  12.015
95951W        W59895   1.382  31.509  14.326
95952W        W59896  16.297  43.943   3.752
95953W        W59897  15.139  11.208   3.689
95954W        W59898  14.775  34.496  14.834
95955W        W59899  20.048  22.741   5.266
95956W        W59900  38.508   6.880  11.517
95957W        W59901   8.794   6.207  11.414
95958W        W59902  30.161  20.169  13.937
95959W        W59903  20.071  40.033  14.926
95960W        W59904   0.939  22.042  13.932
95961W        W59905  25.558  34.078   4.344
95962W        W59906  39.528  23.165  13.997
95963W        W59907  21.640  19.137  10.925
95964W        W59908   2.467  43.392  13.330
95965W        W59909   6.246  23.681  11.586
95966W        W59910  19.238   5.256  10.936
95967W        W59911  18.563   1.330  14.282
95968W        W59912  42.326  24.699   0.733
95969W        W59913  12.630  37.975  13.959
95970W        W59914  43.787  15.264   2.709
95971W        W59915  25.606  26.092   2.730
95972W        W59916  16.287  30.032  14.322
95973W        W59917  39.467  11.654  12.825
95974W        W59918  37.955  11.732  11.948
95975W        W59919  37.991  22.565   0.306
95976W        W59920  21.193   2.864  10.578
95977W        W59921   8.232  33.511   2.361
95978W        W59922  35.880  10.738  12.500
95979W        W59923  12.180  35.416   4.136
95980W        W59924  33.961  22.058  11.442
95981W        W59925  39.968   9.208  12.410
95982W        W59926  14.774  10.359   3.844
95983W        W59927  33.465  30.529   0.780
95984W        W59928   9.839  42.972   4.256
95985W        W59929   4.409  29.573   3.712
95986W        W59930  42.820  22.504  14.009
95987W        W59931  14.590  38.071  14.396
95988W        W59932   3.745   0.857   4.239
95989W        W59933  42.999  18.085  11.457
95990W        W59934   5.710  16.299   3.841
95991W        W59935  42.875  26.075   0.805
95992W        W59936  35.014  40.970   4.354
95993W        W59937  40.902  11.770   2.853
95994W        W59938  44.286  23.590   0.300
95995W        W59939   2.407  13.141   3.224
95996W        W59940  21.248  37.027  14.435
95997W        W59941   9.270  38.488   2.316
95998W        W59942  35.049  33.518  13.501
95999W        W59943  10.699   7.715  13.972
96000W        W59944  40.856  14.229   0.477
96001W        W59945  35.598   4.374  13.875
96002W        W59946  37.369  26.140   4.726
96003W        W59947  20.694  20.197   1.343
96004W        W59948   9.728   9.283  10.899
96005W        W59949  35.366  29.969  13.382
96006W        W59950  40.344  26.700   1.412
96007W        W59951   4.727   2.328  11.551
96008W        W59952   6.368  40.936  10.439
96009W        W59953   7.186  43.330  13.502
96010W        W59954  41.882  43.488   0.795
96011W        W59955  17.168  20.707  11.478
96012W        W59956  16.188  43.996  14.005
96013W        W59957   5.883  12.719  13.020
96014W        W59958  14.649  21.055  13.497
96015W        W59959   7.325  13.176   1.729
96016W        W59960  27.133   4.843   4.754
96017W        W59961   3.846   2.772   2.213
96018W        W59962  31.963   0.414  14.462
96019W        W59963  33.943  32.529  11.048
96020W        W59964  20.182  43.882   2.838
96021W        W59965  41.470   5.735   4.605
96022W        W59966  42.485   6.807   4.690
96023W        W59967   9.284  33.997   1.324
96024W        W59968  12.853  26.678  11.425
96025W        W59969  10.724  13.163   1.737
96026W        W59970  33.563   4.406   3.776
96027W        W59971  20.745  21.164   4.277
96028W        W59972  39.425  29.593  14.377
96029W        W59973   8.712  39.012  13.412
96030W        W59974   7.828   0.487  11.571
96031W        W59975  11.294  44.302  13.817
96032W        W59976   6.347  38.449  13.986
96033W        W59977  31.539  42.937  12.087
96034W        W59978  12.612  30.047  13.534
96035W        W59979   7.795  44.266  12.551
96036W        W59980  17.262  33.936  13.346
96037W        W59981  25.153   6.371  13.322
96038W        W59982  24.084  13.676  10.436
96039W        W59983  38.059   8.367  13.791
96040W        W59984  15.734   5.790  13.391
96041W        W59985  42.879  43.015  12.501
96042W        W59986  20.745  19.104   1.306
96043W        W59987  33.525  10.669   4.699
96044W        W59988  30.951  34.987  13.950
96045W        W59989  42.417   4.376   3.209
96046W        W59990  10.878  31.969  14.776
96047W        W59991  39.847  14.142   4.803
96048W        W59992  41.880   8.888   1.731
96049W        W59993  29.009   6.200  11.594
96050W        W59994   7.736  39.977  12.571
96051W        W59995  13.799  14.180  10.986
96052W        W59996   4.742   1.897  14.480
96053W        W59997  20.161  35.987   0.376
96054W        W59998  35.582  35.439  11.572
96055W        W59999   6.838  20.243   1.282
96056W        W60000  28.567  28.089  11.893
96057W        W60001  15.173   6.896   3.806
96058W        W60002  13.801  27.513  14.410
96059W        W60003  11.237   1.784   2.662
96060W        W60004  21.746  35.445   3.856
96061W        W60005   9.873  36.035  11.546
96062W        W60006  19.262  36.050  14.469
96063W        W60007  31.581  23.530   3.231
96064W        W60008  31.555   7.321  12.904
96065W        W60009  40.910  20.252  14.867
96066W        W60010   7.389  32.565  14.388
96067W        W60011  30.927  16.613  12.419
96068W        W60012   4.805  35.875   9.938
96069W        W60013  25.137  36.351  12.457
96070W        W60014  10.247  34.556  12.526
96071W        W60015  35.469  37.942   3.661
96072W        W60016   4.699  36.481  13.521
96073W        W60017  43.846   9.364   4.776
96074W        W60018   4.723  15.313   3.837
96075W        W60019  17.616  23.708  13.871
96076W        W60020   2.299  32.030  11.404
96077W        W60021  16.296   2.925   3.699
96078W        W60022  43.457   2.432   1.419
96079W        W60023  26.984  29.665   2.293
96080W        W60024  28.675  14.650  10.513
96081W        W60025  30.543  42.323   2.332
96082W        W60026   2.827  14.811   3.233
96083W        W60027  31.896  19.605  14.351
96084W        W60028  20.266  10.201   1.415
96085W        W60029  29.941  11.834   2.234
96086W        W60030  30.952  19.554  11.562
96087W        W60031   3.418  43.318  13.813
96088W        W60032  41.850  13.244  10.416
96089W        W60033  33.129   7.228  10.575
96090W        W60034   7.785  38.968   1.724
96091W        W60035  42.282  23.076   1.375
96092W        W60036  39.924  34.602  11.971
96093W        W60037   3.318  38.823   0.908
96094W        W60038   6.353  30.430  13.426
96095W        W60039  34.061  40.333   0.364
96096W        W60040  17.192  32.957   3.648
96097W        W60041  24.011   3.890  10.997
96098W        W60042  36.847  17.635   4.339
96099W        W60043  41.004   0.485   4.760
96100W        W60044  16.785  34.480  14.327
96101W        W60045  14.251   3.939   5.215
96102W        W60046  16.572  27.516   3.235
96103W        W60047  12.808  13.248   2.793
96104W        W60048  23.634  31.402   3.206
96105W        W60049   5.874  20.240  14.386
96106W        W60050  13.221  36.983  12.846
96107W        W60051  40.924   6.383   2.191
96108W        W60052  30.145  20.682   4.289
96109W        W60053  39.379  26.991  14.776
96110W        W60054   0.332   5.874   3.666
96111W        W60055   7.719   7.726  13.388
96112W        W60056  41.375   1.745  11.018
96113W        W60057  34.963  24.485   0.472
96114W        W60058   7.298  31.954   3.377
96115W        W60059  13.311  29.587   2.731
96116W        W60060  12.612  36.849  11.934
96117W        W60061  31.580   3.714  14.343
96118W        W60062   7.359  28.492  11.440
96119W        W60063   9.738  36.015  12.072
96120W        W60064  39.959  42.520  12.465
96121W        W60065  10.174  21.035  12.934
96122W        W60066  34.532   9.364  14.417
96123W        W60067  14.656  17.632   0.769
96124W        W60068  32.902   7.397  13.410
96125W        W60069  11.646  43.016   5.234
96126W        W60070  31.151  34.389   3.819
96127W        W60071  35.559  43.387  14.884
96128W        W60072  23.154  41.870  10.425
96129W        W60073  35.940  27.152   3.764
96130W        W60074  41.026  27.528  12.077
96131W        W60075  35.375   6.865   4.617
96132W        W60076  41.349  33.556   4.300
96133W        W60077  35.599  11.848  11.920
96134W        W60078  31.402   8.669   3.684
96135W        W60079  15.183  34.594   1.697
96136W        W60080  37.943  12.722   4.640
96137W        W60081  25.217   4.941   1.286
96138W        W60082  44.851  42.999   3.666
96139W        W60083  42.945  31.976  12.011
96140W        W60084  16.232  40.386   2.418
96141W        W60085   1.894  17.658  12.362
96142W        W60086   3.727   9.845   1.767
96143W        W60087  13.669  17.636  11.476
96144W        W60088  17.587  11.643   1.410
96145W        W60089  40.382  30.648   4.214
96146W        W60090  24.504  23.144  11.608
96147W        W60091  43.345  29.462   2.675
96148W        W60092  34.063   5.297   0.396
96149W        W60093  30.000   6.895  11.979
96150W        W60094  31.547   1.916  12.448
96151W        W60095  10.161  11.286  14.008
96152W        W60096  15.819  16.754  13.499
96153W        W60097   1.441  13.319  12.462
96154W        W60098   3.424  17.704  12.013
96155W        W60099  39.840  31.961   4.297
96156W        W60100  15.086  16.748   4.115
96157W        W60101  15.300  27.514  11.576
96158W        W60102   0.358  34.016  12.034
96159W        W60103  21.645   7.746  12.548
96160W        W60104  14.777  25.644   4.688
96161W        W60105   7.234   1.294  14.988
96162W        W60106  20.737  13.282   3.851
96163W        W60107  41.298  17.691   1.344
96164W        W60108  39.452   1.864   0.278
96165W        W60109  15.625   7.770   0.956
96166W        W60110   2.798  15.697   4.779
96167W        W60111   6.757  14.745  14.015
96168W        W60112  38.997   1.287  12.830
96169W        W60113  39.553  44.266   2.303
96170W        W60114  44.343  40.805  12.927
96171W        W60115   2.247   8.701  11.447
96172W        W60116  31.572  25.006  10.594
96173W        W60117  14.108  33.917   2.820
96174W        W60118   9.761  32.991  14.804
96175W        W60119   4.349  35.511   1.827
96176W        W60120  38.041  19.192   1.924
96177W        W60121  41.815  19.584  10.420
96178W        W60122  27.500   0.312  13.853
96179W        W60123  44.846  43.019   0.862
96180W        W60124  33.480  21.649  13.441
96181W        W60125  20.629  15.240  11.473
96182W        W60126  15.736  27.954   1.694
96183W        W60127  39.360  33.104   3.722
96184W        W60128  42.337  24.013   3.247
96185W        W60129   0.353  35.860  12.068
96186W        W60130  36.040  25.170  14.492
96187W        W60131  41.893  15.695   2.800
96188W        W60132   2.819   7.181  10.935
96189W        W60133   4.392   7.181   2.269
96190W        W60134  23.195  27.470   0.385
96191W        W60135   8.254  19.762   3.754
96192W        W60136  17.149  37.860   1.852
96193W        W60137  25.989   8.664  12.894
96194W        W60138   0.782   3.846   0.309
96195W        W60139  16.774  20.557   0.356
96196W        W60140  36.927  34.974   0.927
96197W        W60141  41.867  30.938   3.258
96198W        W60142  38.847  41.385  14.834
96199W        W60143  42.794  25.147  11.462
96200W        W60144  28.633   0.837   4.830
96201W        W60145  32.995  25.097  13.396
96202W        W60146  18.643  44.954   1.352
96203W        W60147  10.821  10.186   0.434
96204W        W60148   0.299   5.248  12.448
96205W        W60149  40.404   0.364   3.725
96206W        W60150   0.307   2.359   2.733
96207W        W60151  39.363   7.690   1.436
96208W        W60152   6.780  27.194  14.395
96209W        W60153   3.403  24.029   3.260
96210W        W60154   8.386  15.158  13.542
96211W        W60155  38.040   4.855   3.329
96212W        W60156  27.671   7.256  14.831
96213W        W60157  16.678  11.252   3.335
96214W        W60158  32.599   5.728   0.455
96215W        W60159   8.291  18.066  13.468
96216W        W60160  10.190  23.069   4.159
96217W        W60161  21.195  22.710  11.926
96218W        W60162   5.700  34.601  14.295
96219W        W60163  43.991  37.426   3.214
96220W        W60164  30.635  25.625   1.865
96221W        W60165  13.828  11.738  12.835
96222W        W60166  24.583   5.295   0.358
96223W        W60167  34.397  12.261   1.270
96224W        W60168   5.423  37.461  14.360
96225W        W60169  15.166   0.294  12.976
96226W        W60170   5.293   3.388  11.427
96227W        W60171  42.498  12.265   3.310
96228W        W60172   4.323   4.347   5.567
96229W        W60173  40.370  28.167  14.324
96230W        W60174  33.878   4.717  11.065
96231W        W60175  38.563  31.944   4.600
96232W        W60176   0.949  24.206  14.917
96233W        W60177  29.534  25.973   2.268
96234W        W60178  27.184  14.280  11.095
96235W        W60179  15.692  41.319   0.447
96236W        W60180  36.505  11.173   1.229
96237W        W60181  43.845  21.066  14.436
96238W        W60182  23.017   1.279   0.288
96239W        W60183  21.581   0.804   2.677
96240W        W60184  35.501   1.777   1.695
96241W        W60185   8.213  39.944   0.371
96242W        W60186   5.386  28.093   4.352
96243W        W60187  33.552  17.728  10.009
96244W        W60188  39.541  28.015  13.492
96245W        W60189  40.547  23.566  12.046
96246W        W60190  34.015  21.615  14.969
96247W        W60191  24.193  13.663  13.958
96248W        W60192  44.391  12.778   2.369
96249W        W60193   0.329  30.908  12.974
96250W        W60194  24.668  22.535  12.532
96251W        W60195  40.518   1.380   3.287
96252W        W60196   1.278  32.424  14.300
96253W        W60197  31.602   8.202   3.274
96254W        W60198  20.598  23.549  11.482
96255W        W60199  28.645  10.781  13.380
96256W        W60200  21.038   9.721  12.527
96257W        W60201   7.901  29.008  11.075
96258W        W60202  25.079  12.295  14.865
96259W        W60203  11.858  16.588  14.341
96260W        W60204  38.922  38.338  11.913
96261W        W60205  12.829  29.157  11.115
96262W        W60206  39.396   1.268  11.596
96263W        W60207  32.610  40.322   1.797
96264W        W60208  33.579  28.584  14.984
96265W        W60209  41.990   3.297   0.267
96266W        W60210  22.193  43.974  12.456
96267W        W60211  39.968  35.993  13.536
96268W        W60212  11.786  37.471  10.062
96269W        W60213   7.771   5.779   2.822
96270W        W60214  18.067  17.135  13.868
96271W        W60215  23.103  30.108  12.374
96272W        W60216   2.824  13.347  13.865
96273W        W60217  35.473  26.104   3.331
96274W        W60218   9.282  23.660  12.940
96275W        W60219  15.607  31.902  12.832
96276W        W60220  42.947  10.763  14.380
96277W        W60221   8.894  19.766   2.824
96278W        W60222  43.290   1.314   0.814
96279W        W60223  25.216  40.813   1.366
96280W        W60224   6.357  25.131  10.923
96281W        W60225   1.808   3.940   2.320
96282W        W60226  19.731  21.630  13.358
96283W        W60227  17.733  28.468   3.300
96284W        W60228  26.560  26.627   2.388
96285W        W60229   0.979   9.372   0.260
96286W        W60230  29.129  19.133   5.739
96287W        W60231   8.306   6.291   4.721
96288W        W60232  14.605  36.575  13.454
96289W        W60233  22.652  28.599  11.476
96290W        W60234  29.035  21.642   2.286
96291W        W60235  34.445  40.841   3.735
96292W        W60236  15.162  37.433   1.379
96293W        W60237   4.783  25.487   2.851
96294W        W60238  18.582  21.247  12.955
96295W        W60239  33.962  26.479   1.212
96296W        W60240  17.794   6.815   5.724
96297W        W60241  12.771  26.096   0.459
96298W        W60242  43.371  16.273  10.476
96299W        W60243  19.621  42.492   2.394
96300W        W60244  36.410  10.816  11.871
96301W        W60245  17.264  11.635  11.457
96302W        W60246  24.625   4.898  10.419
96303W        W60247   2.847  35.087   0.444
96304W        W60248  35.588  13.723   0.382
96305W        W60249   3.304  28.478  10.437
96306W        W60250  39.451  21.027   1.816
96307W        W60251  29.057  42.338   0.332
96308W        W60252  22.120  43.398   0.871
96309W        W60253   2.323  34.012   1.875
96310W        W60254  13.665  19.052  13.882
96311W        W60255  30.020  12.280  10.417
96312W        W60256  17.197  36.518  11.492
96313W        W60257   2.256  27.007   0.367
96314W        W60258  22.152   8.273  13.036
96315W        W60259   7.703  42.962  10.592
96316W        W60260  44.000  31.497  14.394
96317W        W60261  13.775  10.233   1.391
96318W        W60262  40.459  29.052  11.114
96319W        W60263  36.590  42.012   2.418
96320W        W60264  40.426  16.259   1.810
96321W        W60265   1.962  33.890   0.777
96322W        W60266  38.830   5.306   4.307
96323W        W60267  10.859  29.019  13.520
96324W        W60268  13.798  35.081  12.078
96325W        W60269  13.830  23.654   1.227
96326W        W60270  10.252  43.979  13.037
96327W        W60271   0.802   0.422  11.026
96328W        W60272  22.151  37.416   0.728
96329W        W60273  28.650  38.901   5.226
96330W        W60274   1.737  43.793  14.394
96331W        W60275  31.007  15.690   4.663
96332W        W60276  31.586  40.497  10.627
96333W        W60277  36.000  35.596  12.361
96334W        W60278   1.322   8.660  11.877
96335W        W60279   5.197  31.948  13.867
96336W        W60280  19.709  33.617  12.505
96337W        W60281   1.919  11.848  13.814
96338W        W60282  20.709  21.742  11.113
96339W        W60283  16.088  39.833  10.612
96340W        W60284   9.217  43.466   2.316
96341W        W60285  27.975   4.360  12.018
96342W        W60286  24.518  11.856  10.538
96343W        W60287  28.169   7.837   1.297
96344W        W60288  44.885   9.246  14.329
96345W        W60289  41.029  29.173  14.305
96346W        W60290   8.299  33.450  13.803
96347W        W60291   3.455   0.793  13.973
96348W        W60292  30.994  14.760  13.943
96349W        W60293  16.786  34.526   1.730
96350W        W60294  22.129  11.309   0.928
96351W        W60295  23.241  40.366   3.772
96352W        W60296  31.479  38.948   0.954
96353W        W60297  23.665  38.897  14.823
96354W        W60298   7.767  21.558  11.531
96355W        W60299  43.927  18.110  14.796
96356W        W60300  14.293  11.637  10.437
96357W        W60301  40.422   8.245   3.688
96358W        W60302  28.443  35.958   1.721
96359W        W60303   6.251  14.238   1.258
96360W        W60304  21.756  39.469  14.831
96361W        W60305  17.555  26.174  13.509
96362W        W60306   6.397  28.161  10.937
96363W        W60307  25.614  15.300   4.731
96364W        W60308  24.023  43.270  13.823
96365W        W60309  31.622  16.083  12.496
96366W        W60310  39.847  42.953   0.433
96367W        W60311  39.860  18.174  12.027
96368W        W60312  22.197  29.538   1.750
96369W        W60313  42.325  26.081   3.160
96370W        W60314   9.236  30.153  13.011
96371W        W60315   4.351  31.641  12.390
96372W        W60316   8.715  26.102   3.799
96373W        W60317  41.385  33.041   0.457
96374W        W60318  13.741  27.647  13.854
96375W        W60319  14.617  36.395   0.880
96376W        W60320  27.482  39.550   5.712
96377W        W60321  38.019  18.771   3.372
96378W        W60322   3.849  21.048   0.345
96379W        W60323  33.564  24.565  11.587
96380W        W60324  12.816  23.987   1.724
96381W        W60325  10.184  32.085   3.657
96382W        W60326  14.175   1.348   2.188
96383W        W60327  24.149  39.395  14.007
96384W        W60328   4.260   7.195  10.977
96385W        W60329   1.970  38.354   3.214
96386W        W60330  34.458   3.295   0.356
96387W        W60331  39.358   1.359   3.251
96388W        W60332  34.996  19.237  10.522
96389W        W60333  27.686  29.927   3.274
96390W        W60334  41.326  14.153   2.285
96391W        W60335  22.623  21.253  13.838
96392W        W60336  25.159  12.659   2.757
96393W        W60337  31.958  43.912   2.796
96394W        W60338   9.385  23.018  10.605
96395W        W60339  36.078  30.517   0.881
96396W        W60340  35.945  25.631  13.795
96397W        W60341  37.939   0.898   3.240
96398W        W60342  40.860  11.767   4.351
96399W        W60343  20.554  26.518  14.824
96400W        W60344  33.532   4.430   2.318
96401W        W60345  26.696  39.432   2.788
96402W        W60346   2.370  43.952  13.022
96403W        W60347   0.793  33.026  14.947
96404W        W60348   2.435  41.460  14.325
96405W        W60349  25.076  14.809  12.022
96406W        W60350  21.024   5.699  11.098
96407W        W60351  40.355  44.868   3.349
96408W        W60352  22.153   3.427   4.243
96409W        W60353   2.383  37.470   0.377
96410W        W60354  14.711  19.099  14.003
96411W        W60355  17.281  10.845  11.089
96412W        W60356  18.170   8.250   0.310
96413W        W60357  30.000  15.224  11.437
96414W        W60358  28.185  15.125   2.313
96415W        W60359   9.333  42.976   3.217
96416W        W60360  13.625  35.883  12.095
96417W        W60361  22.554  40.018   5.246
96418W        W60362  37.409  40.802  10.450
96419W        W60363  18.688  30.480  12.090
96420W        W60364  38.891  25.992   9.992
96421W        W60365  39.315  41.794  12.068
96422W        W60366  33.399   3.403   4.194
96423W        W60367  40.380  22.253  13.887
96424W        W60368  29.644  34.425  13.495
96425W        W60369  33.908  31.120  10.936
96426W        W60370  36.568   9.819  13.371
96427W        W60371  10.772  27.970  10.621
96428W        W60372  31.521  16.157   4.163
96429W        W60373  26.695  18.632   1.384
96430W        W60374  12.295  13.759  10.999
96431W        W60375  35.580  35.590  13.880
96432W        W60376   7.343   6.256   2.254
96433W        W60377  14.727  18.661  13.380
96434W        W60378  37.486  10.355  11.041
96435W        W60379  14.269  40.490  14.960
96436W        W60380   9.228  35.423   3.379
96437W        W60381  31.535  13.628  14.880
96438W        W60382  30.615   8.381   2.184
96439W        W60383  13.816   1.921  13.879
96440W        W60384  29.019  22.576  12.957
96441W        W60385   2.880  42.873   2.669
96442W        W60386  39.894  16.615  12.467
96443W        W60387  11.267   4.409   0.350
96444W        W60388  13.330  11.372  14.855
96445W        W60389  43.299   8.859  10.918
96446W        W60390  12.283   9.856  12.934
96447W        W60391   8.194  14.129   1.253
96448W        W60392  44.367   1.458  12.533
96449W        W60393  12.713  12.685   1.312
96450W        W60394  33.917  13.239  11.064
96451W        W60395  28.508  16.784   3.342
96452W        W60396  13.819  29.947  11.497
96453W        W60397  42.925  21.582   4.830
96454W        W60398   9.184  38.365  10.437
96455W        W60399  25.624  28.179  13.324
96456W        W60400  12.324  27.529  14.768
96457W        W60401  44.889  37.062   3.821
96458W        W60402  44.426  17.738  11.514
96459W        W60403   6.705  15.752   1.780
96460W        W60404   1.848  39.862  14.883
96461W        W60405  30.472   5.288   0.278
96462W        W60406  14.672  27.052   3.692
96463W        W60407  25.161  28.126   2.416
96464W        W60408  18.139  36.483  13.848
96465W        W60409  35.529  24.058   2.214
96466W        W60410  35.897  18.286  13.323
96467W        W60411  22.153  21.567   2.896
96468W        W60412  37.896  16.761   4.778
96469W        W60413   5.701  42.418  10.580
96470W        W60414  41.795   0.761   4.235
96471W        W60415  32.060  36.090   3.356
96472W        W60416  34.937  39.328   2.404
96473W        W60417  35.541  14.182   0.924
96474W        W60418  41.024  42.520   4.234
96475W        W60419   7.889  21.183  13.975
96476W        W60420  22.622  32.509  11.411
96477W        W60421  34.421  21.526   1.257
96478W        W60422  37.994  28.662  13.311
96479W        W60423   5.420   2.738   0.394
96480W        W60424  20.076  25.678  14.332
96481W        W60425  31.907  41.962   3.197
96482W        W60426   7.804  15.103   2.865
96483W        W60427  40.308  20.231   1.347
96484W        W60428  23.555  42.030   2.408
96485W        W60429  41.324   9.261   2.380
96486W        W60430  44.859  13.605  14.441
96487W        W60431  38.388  39.064  11.472
96488W        W60432   8.237  21.243  12.571
96489W        W60433   5.876  35.497  12.005
96490W        W60434  32.018  22.132   4.201
96491W        W60435   6.391  43.297  11.955
96492W        W60436  37.378  17.233   0.827
96493W        W60437  16.744  12.298   2.230
96494W        W60438  20.719  25.971   1.884
96495W        W60439  29.092  38.490  13.504
96496W        W60440  35.591  27.586  10.557
96497W        W60441  19.740  34.899  12.871
96498W        W60442  32.426  40.487   3.163
96499W        W60443   2.302  34.464  14.792
96500W        W60444  44.338  43.944   4.262
96501W        W60445  41.015  30.431  12.574
96502W        W60446   8.323  36.925  11.868
96503W        W60447  37.385  37.547   4.782
96504W        W60448  24.014  14.815   2.358
96505W        W60449   9.324   2.817   2.187
96506W        W60450   4.905   9.764   2.825
96507W        W60451  43.307  17.655  13.544
96508W        W60452  36.462  20.060   3.761
96509W        W60453   4.280  43.345  13.989
96510W        W60454  33.035   3.768   2.194
96511W        W60455  22.210   9.392  11.879
96512W        W60456  24.650  21.650  13.404
96513W        W60457  29.125   1.436  14.978
96514W        W60458  14.179  26.135  11.576
96515W        W60459  12.250  22.185  13.386
96516W        W60460   4.399   3.782  14.808
96517W        W60461  30.452  35.953   4.133
96518W        W60462  16.678  41.531   1.384
96519W        W60463  22.741  29.514  12.498
96520W        W60464  27.968  43.836   0.778
96521W        W60465  17.298  36.914   1.318
96522W        W60466  35.038   9.172   0.398
96523W        W60467  11.712  43.806   4.114
96524W        W60468  15.227  10.225  12.845
96525W        W60469  36.530   6.801  11.470
96526W        W60470  14.604  20.649   4.282
96527W        W60471   4.774  14.763   2.843
96528W        W60472  14.706  35.473  13.419
96529W        W60473  33.893  15.662   1.273
96530W        W60474  40.468  44.931  10.924
96531W        W60475  25.047  38.499   0.318
96532W        W60476  26.458  43.479   4.178
96533W        W60477  14.298  14.158   2.395
96534W        W60478  25.132  15.125   2.292
96535W        W60479  10.835  34.118   0.334
96536W        W60480  34.408  42.983  11.490
96537W        W60481  13.844  18.215  11.019
96538W        W60482  10.791  39.905  11.528
96539W        W60483  38.368   1.760  11.117
96540W        W60484  41.009   3.849  12.965
96541W        W60485  19.741  34.484  13.989
96542W        W60486   4.860   5.194   2.688
96543W        W60487  20.748   9.307   2.342
96544W        W60488  22.997   3.912  14.872
96545W        W60489  22.650  30.057   1.803
96546W        W60490  42.389  19.746   2.716
96547W        W60491  37.543  12.721  12.947
96548W        W60492   6.405  43.766  14.384
96549W        W60493  20.572  39.977   0.759
96550W        W60494  44.804  29.510  14.843
96551W        W60495  31.624  19.535   4.285
96552W        W60496  19.703  16.708  12.500
96553W        W60497  13.151  17.081   2.353
96554W        W60498  29.668   7.895  10.450
96555W        W60499  39.353  41.512   2.405
96556W        W60500  23.599  21.658  14.866
96557W        W60501  23.163  18.760   0.819
96558W        W60502   0.952  33.019   0.275
96559W        W60503  31.565  40.972  13.801
96560W        W60504   5.255   8.165  14.915
96561W        W60505  40.489  34.586   1.318
96562W        W60506  42.783  39.383  10.434
96563W        W60507  10.364  15.805   2.701
96564W        W60508  23.094  35.587  13.329
96565W        W60509  11.136   0.303  13.048
96566W        W60510   9.160  14.794   4.262
96567W        W60511  27.116  29.652  10.540
96568W        W60512   8.743  28.494  13.826
96569W        W60513  10.317   0.854   2.194
96570W        W60514  25.115  26.143  13.994
96571W        W60515  24.660  44.907  14.761
96572W        W60516  26.555  12.732   3.866
96573W        W60517  28.436   5.333   3.633
96574W        W60518  26.559  11.831   3.846
96575W        W60519   6.887  26.635   0.803
96576W        W60520  15.192  16.583   3.233
96577W        W60521  12.769   3.389  10.465
96578W        W60522  30.570  41.904  11.520
96579W        W60523  28.517  13.241  12.581
96580W        W60524   5.792  44.782  13.872
96581W        W60525  32.133  19.086   4.292
96582W        W60526  38.868  22.631  14.445
96583W        W60527  27.023  16.731   2.293
96584W        W60528   4.224   0.859   0.358
96585W        W60529  19.594  17.291   1.801
96586W        W60530  43.780  36.999  13.803
96587W        W60531  22.673  24.592   3.792
96588W        W60532  18.145  42.018  11.547
96589W        W60533  29.535  18.285   3.792
96590W        W60534  20.752   7.232   2.768
96591W        W60535  21.697  10.216   4.690
96592W        W60536  21.148  11.328   0.900
96593W        W60537  39.353  11.812  13.385
96594W        W60538   5.281  21.576   1.907
96595W        W60539  23.084  21.646   0.809
96596W        W60540  18.612  38.539   0.463
96597W        W60541  36.043  35.530  13.930
96598W        W60542  10.760  24.093   2.769
96599W        W60543   7.737  43.854  10.995
96600W        W60544  16.710   2.936  11.392
96601W        W60545  20.764  22.549  14.311
96602W        W60546  21.586  15.591   2.888
96603W        W60547  35.023  43.885   2.182
96604W        W60548  16.208  39.459  12.881
96605W        W60549  22.021  21.647   4.703
96606W        W60550  34.911  13.112   1.278
96607W        W60551  31.449   5.756  12.056
96608W        W60552  15.775  43.397  12.907
96609W        W60553  42.928   1.435   0.439
96610W        W60554  14.254  40.509   3.251
96611W        W60555  27.518  19.132   3.684
96612W        W60556  10.242  39.320  12.859
96613W        W60557   5.812  22.664  12.462
96614W        W60558  13.339   7.877   2.418
96615W        W60559  42.371   1.963   1.408
96616W        W60560  43.976  31.069  12.420
96617W        W60561  30.595  25.589   3.857
96618W        W60562  29.159  39.535   1.727
96619W        W60563  43.300   6.371   2.782
96620W        W60564  35.096  28.185  11.056
96621W        W60565  34.058  34.935  13.906
96622W        W60566  32.604  17.231  14.860
96623W        W60567  17.718   2.294   2.350
96624W        W60568  28.681  33.423   1.751
96625W        W60569  39.340   2.403  13.321
96626W        W60570  32.903   6.913  12.002
96627W        W60571  17.685   0.815   2.765
96628W        W60572  12.248  37.570  10.583
96629W        W60573  40.013  24.563   1.398
96630W        W60574   9.841  23.491   0.853
96631W        W60575  10.379  36.881  14.434
96632W        W60576  33.382  38.820  14.310
96633W        W60577  12.240  28.933  12.350
96634W        W60578  28.547  41.494   1.856
96635W        W60579  40.899  33.023   4.613
96636W        W60580   9.818  36.474   2.716
96637W        W60581  18.221  36.993  11.417
96638W        W60582  41.818  26.690   1.929
96639W        W60583   2.747  35.468   0.321
96640W        W60584   3.358   3.324  11.046
96641W        W60585  33.063  43.344   3.652
96642W        W60586  18.186   3.431   1.754
96643W        W60587   1.350  28.665   4.768
96644W        W60588  16.725   3.455  14.462
96645W        W60589  20.094   6.409  14.779
96646W        W60590  10.142  14.766   3.288
96647W        W60591  27.975   4.306   0.433
96648W        W60592  15.298  12.247  11.089
96649W        W60593  44.481  28.603  11.516
96650W        W60594  39.958  19.227  13.810
96651W        W60595  42.435   1.789  14.947
96652W        W60596  44.337   6.724   2.333
96653W        W60597  36.550  38.444  12.401
96654W        W60598  22.714  10.308  14.410
96655W        W60599  31.034  33.620  14.932
96656W        W60600  30.531  22.149  13.326
96657W        W60601  25.636   8.707  10.894
96658W        W60602  12.732  30.142  13.951
96659W        W60603  20.750   7.680  12.415
96660W        W60604  39.528  43.891  14.316
96661W        W60605  13.662  12.682   0.757
96662W        W60606  23.009  21.754  10.987
96663W        W60607  10.330  36.539  14.910
96664W        W60608  31.068  25.480   4.116
96665W        W60609  14.720  24.075  13.463
96666W        W60610  23.151  38.011  14.343
96667W        W60611  30.433   2.773   0.903
96668W        W60612   3.254  11.717   0.839
96669W        W60613  21.625  35.060   0.278
96670W        W60614  41.872  27.622  13.053
96671W        W60615  33.962  32.526  14.399
96672W        W60616  22.536  32.418  10.619
96673W        W60617  29.427  23.591   0.471
96674W        W60618  14.730  29.440  12.031
96675W        W60619  19.736  28.575   1.384
96676W        W60620  22.708  32.429  12.364
96677W        W60621  33.930   8.822   4.734
96678W        W60622  34.091  18.219  13.854
96679W        W60623   0.446  21.051  10.028
96680W        W60624  29.649  13.272   4.162
96681W        W60625   4.279  18.649   2.392
96682W        W60626   1.880  28.094   4.326
96683W        W60627  21.654  42.828  14.426
96684W        W60628   0.267  11.173   0.408
96685W        W60629  24.508  29.618   1.884
96686W        W60630  35.005  27.460   3.662
96687W        W60631  18.122  35.069   0.245
96688W        W60632  27.574  41.420  14.480
96689W        W60633   3.916  13.740  10.498
96690W        W60634  29.938  42.878   0.844
96691W        W60635  36.887   6.735  13.408
96692W        W60636  32.520   8.837   1.388
96693W        W60637  43.851  27.123  13.800
96694W        W60638  33.935  11.147   2.290
96695W        W60639  19.265  43.874   4.353
96696W        W60640  40.306  33.020  13.023
96697W        W60641   5.694  27.480  14.330
96698W        W60642  26.673  30.925  14.929
96699W        W60643  40.519  12.723   3.802
96700W        W60644  19.572  42.953  12.397
96701W        W60645  42.494   7.702   2.752
96702W        W60646   4.927  31.120  12.010
96703W        W60647  44.842  24.215  14.016
96704W        W60648   5.881  28.174  13.941
96705W        W60649  38.522   4.923  13.858
96706W        W60650  30.062  10.275   1.775
96707W        W60651  43.962  29.553  12.922
96708W        W60652  26.498  36.481  11.476
96709W        W60653   1.964   1.943  10.943
96710W        W60654  31.406  35.949  13.469
96711W        W60655  15.644  26.160   5.178
96712W        W60656  28.440   2.233   0.460
96713W        W60657  36.079  29.632  14.025
96714W        W60658  44.891   6.239   3.736
96715W        W60659  22.671  15.672   3.762
96716W        W60660  18.201  39.931   2.397
96717W        W60661  12.784  29.458  13.328
96718W        W60662  41.978  32.130   2.303
96719W        W60663  38.417  20.569   2.306
96720W        W60664  20.588   6.772   0.370
96721W        W60665   3.728   9.670   1.332
96722W        W60666  21.698  36.039  12.998
96723W        W60667  16.763  42.822  11.508
96724W        W60668  27.588  43.395   4.638
96725W        W60669  44.368   0.459  11.091
96726W        W60670  30.907  31.407  12.388
96727W        W60671  28.549   8.824   5.191
96728W        W60672  40.331  31.617   3.264
96729W        W60673  39.334  40.513   4.805
96730W        W60674  42.031  12.808   4.152
96731W        W60675   6.408  32.524   2.767
96732W        W60676  24.123  18.087  11.088
96733W        W60677  44.330   9.276  10.504
96734W        W60678   9.266   6.754  11.094
96735W        W60679  25.206  30.907  13.392
96736W        W60680   9.258   5.786  14.492
96737W        W60681  33.435  21.027  10.118
96738W        W60682  36.041  23.510  14.338
96739W        W60683  44.005   2.227  14.896
96740W        W60684  39.939  29.966   1.357
96741W        W60685  41.413   9.880  12.026
96742W        W60686  42.366  39.371   1.718
96743W        W60687  17.097  22.688  10.987
96744W        W60688  38.569  22.548  11.973
96745W        W60689   0.865  12.233  14.788
96746W        W60690  44.330  13.811  14.020
96747W        W60691  34.964  31.949   4.725
96748W        W60692  36.995  22.177  11.875
96749W        W60693  19.068  17.772  10.591
96750W        W60694   9.339  33.089  11.595
96751W        W60695  42.023  44.409   1.303
96752W        W60696  41.455  20.067   3.196
96753W        W60697  16.614  26.464  12.413
96754W        W60698   4.231   7.245  10.093
96755W        W60699  29.176   8.266  13.026
96756W        W60700  25.702   6.745  11.469
96757W        W60701  19.064  25.205   0.844
96758W        W60702   5.742  16.575  12.440
96759W        W60703   1.750   0.319   2.410
96760W        W60704  24.193   7.184   4.806
96761W        W60705  22.718   0.463  14.801
96762W        W60706  13.105  24.101   4.164
96763W        W60707  23.225  16.604  13.434
96764W        W60708  12.227  24.567   0.865
96765W        W60709  33.480  22.529  12.028
96766W        W60710  21.020  10.666   0.953
96767W        W60711  10.785   6.355   1.766
96768W        W60712  29.109  22.040  12.958
96769W        W60713  16.153  15.584   2.283
96770W        W60714   1.891  37.934   3.360
96771W        W60715  38.948  25.145   1.432
96772W        W60716  30.549  19.755  13.458
96773W        W60717  22.654  43.281   1.263
96774W        W60718  31.049  17.185  12.030
96775W        W60719  22.185  25.624   1.440
96776W        W60720  44.501  14.609  12.042
96777W        W60721  31.152  42.421   0.954
96778W        W60722  14.638  23.130  12.092
96779W        W60723  21.700  14.298  14.480
96780W        W60724  30.989  11.207  12.928
96781W        W60725   2.780  10.683  11.114
96782W        W60726  31.000   6.184  10.098
96783W        W60727  43.842  25.157  11.583
96784W        W60728   5.734   9.201   4.804
96785W        W60729  44.922  26.097   3.665
96786W        W60730  34.054  20.654  12.537
96787W        W60731  12.158  12.331   4.284
96788W        W60732  25.193  14.211   2.215
96789W        W60733  31.554  16.203   3.767
96790W        W60734  12.718  17.687  14.385
96791W        W60735   9.342  41.462   1.733
96792W        W60736  16.196  15.627  13.834
96793W        W60737  42.485  10.372   3.253
96794W        W60738  15.755  28.573   1.821
96795W        W60739  33.976  41.005   3.629
96796W        W60740  31.954  21.648   1.884
96797W        W60741   0.427  43.986  11.887
96798W        W60742   5.279  28.498   0.763
96799W        W60743  39.970  29.549  14.899
96800W        W60744  32.417  43.984   3.181
96801W        W60745   6.805  20.076   0.744
96802W        W60746  41.447   0.873  11.124
96803W        W60747  36.079  44.898   3.249
96804W        W60748   6.831  38.477   1.925
96805W        W60749  37.567  13.742   0.940
96806W        W60750  32.623  15.265  14.028
96807W        W60751   3.843  33.007   4.130
96808W        W60752  37.947   6.719   2.188
96809W        W60753  14.781   7.747   5.206
96810W        W60754   2.798   2.822   0.845
96811W        W60755   9.326   0.308   1.422
96812W        W60756  38.831  40.356  12.964
96813W        W60757   7.825  21.029  14.890
96814W        W60758  28.589  44.839   2.395
96815W        W60759  15.671  27.080   1.873
96816W        W60760  13.184   3.822  14.850
96817W        W60761   7.720  28.988  14.338
96818W        W60762   0.465  27.631   0.404
96819W        W60763  22.164  40.456   1.444
96820W        W60764  38.538   6.913   9.444
96821W        W60765  42.346  31.427  14.831
96822W        W60766  42.826  30.955   3.838
96823W        W60767  38.425  25.705  14.395
96824W        W60768  37.550  15.250   3.637
96825W        W60769  37.040  20.726  13.816
96826W        W60770  14.110  24.565   2.419
96827W        W60771   5.836  18.733  14.419
96828W        W60772   8.884  15.155  14.445
96829W        W60773  10.715   3.812   0.793
96830W        W60774  22.594   2.862  14.490
96831W        W60775   2.802  11.248  10.920
96832W        W60776  28.520  40.364  10.156
96833W        W60777  24.196   1.856   1.760
96834W        W60778   4.789  20.040  13.443
96835W        W60779  33.995  43.013  10.595
96836W        W60780   3.744  36.084  13.884
96837W        W60781  39.057  17.273  13.517
96838W        W60782   9.757  43.832   2.702
96839W        W60783  29.559  17.210   3.203
96840W        W60784   0.322  32.131   1.876
96841W        W60785  12.336   4.735   2.728
96842W        W60786   5.269  20.241  13.481
96843W        W60787  35.413   8.283   4.252
96844W        W60788  13.838  32.609  11.872
96845W        W60789  17.598   4.316  10.983
96846W        W60790   3.458   7.300   3.726
96847W        W60791  28.967   6.814  13.845
96848W        W60792  32.535   9.175  11.957
96849W        W60793  17.691   3.745  10.582
96850W        W60794   2.793  44.420   4.122
96851W        W60795   7.204  36.078   4.218
96852W        W60796  26.972  13.677   4.347
96853W        W60797   3.414  15.648  12.400
96854W        W60798  25.697  44.409  13.816
96855W        W60799  24.986  38.863  14.495
96856W        W60800  32.077  24.146   1.901
96857W        W60801  13.719  40.543  10.532
96858W        W60802  23.020  18.608  10.419
96859W        W60803  43.341  21.022   4.176
96860W        W60804  11.628  23.029   0.846
96861W        W60805  40.838  21.680   3.832
96862W        W60806  30.938  39.515   5.785
96863W        W60807  20.210   0.408  10.116
96864W        W60808  22.012  32.581   1.231
96865W        W60809  18.766  20.274  14.281
96866W        W60810  28.570  14.623   5.250
96867W        W60811   0.758  27.636  11.070
96868W        W60812   2.839  12.303   3.784
96869W        W60813  15.742  28.955  11.070
96870W        W60814   7.312   8.829   0.851
96871W        W60815  38.912  32.918   3.198
96872W        W60816  25.170  42.326  13.425
96873W        W60817   9.218  27.486  13.538
96874W        W60818  43.971   5.721   1.717
96875W        W60819   0.418  22.195   2.828
96876W        W60820  20.682   6.286  13.356
96877W        W60821  38.826  14.176  13.518
96878W        W60822  18.225   1.738   1.257
96879W        W60823  15.708  40.808   1.885
96880W        W60824   8.368  33.131  12.837
96881W        W60825  30.483   9.714  12.525
96882W        W60826  29.529  29.045  11.102
96883W        W60827  10.797  39.048   4.737
96884W        W60828  28.994   9.243  10.567
96885W        W60829  26.057  12.788  14.421
96886W        W60830  23.163  42.513   0.908
96887W        W60831  11.857   4.262   1.881
96888W        W60832  29.514  33.491  13.828
96889W        W60833  34.903  17.682   4.273
96890W        W60834  14.769  18.570   0.285
96891W        W60835  14.752   9.700   0.319
96892W        W60836  17.769  31.564   0.352
96893W        W60837  24.017  34.974  13.908
96894W        W60838  40.846   1.912  12.483
96895W        W60839  15.129  44.286   1.344
96896W        W60840  43.299  36.382  10.522
96897W        W60841   9.771  27.626  13.881
96898W        W60842   1.239  22.664  12.978
96899W        W60843  10.643   3.317  13.362
96900W        W60844  24.107   7.853  13.492
96901W        W60845  41.996   2.888   3.365
96902W        W60846   3.783  30.075  13.832
96903W        W60847  36.072  13.136  12.902
96904W        W60848  26.203  24.177  12.437
96905W        W60849  15.767  44.900   3.333
96906W        W60850   9.307   0.800   0.876
96907W        W60851  41.492  11.203  10.954
96908W        W60852  10.214  30.532  10.161
96909W        W60853  22.094  40.534  14.017
96910W        W60854  29.588  38.866  14.888
96911W        W60855  33.403  11.138  11.883
96912W        W60856   6.359   2.393  14.415
96913W        W60857   2.897  25.186   2.774
96914W        W60858  14.665  27.078  14.435
96915W        W60859  37.032  42.000  14.446
96916W        W60860  28.435  28.641   3.852
96917W        W60861   8.236  22.163   0.791
96918W        W60862   8.340  23.711  13.901
96919W        W60863  24.617  24.679   1.720
96920W        W60864  37.451  11.170  13.044
96921W        W60865  10.357  11.193   0.816
96922W        W60866   1.237  20.258   3.843
96923W        W60867   9.222  10.693  13.469
96924W        W60868   2.455  43.842   3.377
96925W        W60869  27.591   5.822  11.972
96926W        W60870   0.982  11.623   0.339
96927W        W60871  26.550  23.156   4.628
96928W        W60872   5.798  22.503  14.395
96929W        W60873  28.950  29.615   1.839
96930W        W60874  30.651  29.524  12.442
96931W        W60875  31.957  26.087  10.425
96932W        W60876  28.182   1.733  13.497
96933W        W60877  40.014   4.926  11.918
96934W        W60878   9.791  28.100   2.778
96935W        W60879  29.509  17.122  11.511
96936W        W60880  16.241   6.193   2.188
96937W        W60881  42.473  24.159  11.909
96938W        W60882  33.106  19.262   3.727
96939W        W60883  26.196  38.418  11.092
96940W        W60884   6.842   3.923  13.398
96941W        W60885  31.602   7.365  10.538
96942W        W60886   7.212   6.290  11.093
96943W        W60887  26.690   4.358  13.513
96944W        W60888  25.634  42.833   4.734
96945W        W60889  35.375  27.071  13.430
96946W        W60890  12.831  31.625   0.850
96947W        W60891  33.389   5.279   4.208
96948W        W60892   5.784   9.748   0.252
96949W        W60893  16.303  32.121   1.820
96950W        W60894   7.347  22.211   1.872
96951W        W60895   2.959   8.682   5.236
96952W        W60896   5.398   5.778  12.889
96953W        W60897  39.938  44.382  13.884
96954W        W60898  27.595  33.963   1.312
96955W        W60899   9.199   5.270   0.400
96956W        W60900  26.997  36.551  14.012
96957W        W60901   6.390   3.356  12.441
96958W        W60902  43.996  27.580  10.956
96959W        W60903  30.641  30.092  12.448
96960W        W60904   3.865  38.531   4.771
96961W        W60905   4.249  28.175  12.965
96962W        W60906  43.909  22.239  10.530
96963W        W60907  26.688  29.065  13.341
96964W        W60908  30.426  41.313   0.429
96965W        W60909  17.651   1.900  11.931
96966W        W60910  29.127   9.796  11.444
96967W        W60911   3.338   0.298  13.831
96968W        W60912   7.744  38.837   0.439
96969W        W60913  39.046  32.917  12.907
96970W        W60914  37.017  40.448  11.001
96971W        W60915  17.233  33.892  13.991
96972W        W60916  29.131  28.984   1.251
96973W        W60917  10.257  33.448  12.402
96974W        W60918  10.825  21.199  12.832
96975W        W60919  12.807  10.284   1.389
96976W        W60920   6.281  36.846   0.383
96977W        W60921  19.120  19.553  12.825
96978W        W60922  31.089  38.364   4.336
96979W        W60923  22.131   5.795  14.338
96980W        W60924  42.494   4.825  13.940
96981W        W60925  10.172   0.475  13.878
96982W        W60926  27.572  37.394  11.045
96983W        W60927   7.871  27.058  13.533
96984W        W60928  37.928  23.000   4.263
96985W        W60929   4.892  37.550  10.638
96986W        W60930  41.472  14.308  12.376
96987W        W60931  44.824  28.678  13.948
96988W        W60932  21.721  24.196  10.947
96989W        W60933   4.721  38.035   1.808
96990W        W60934  27.962  18.051  13.965
96991W        W60935  14.307  10.207   0.791
96992W        W60936  43.295  33.480   4.681
96993W        W60937  17.116  24.579   0.409
96994W        W60938  12.823   1.283   3.816
96995W        W60939  37.536  18.561   1.840
96996W        W60940   4.778  39.387   3.751
96997W        W60941   4.205  41.304   4.826
96998W        W60942  23.065  24.547  13.983
96999W        W60943  37.046  10.308   3.234
97000W        W60944  14.232   2.747  12.378
97001W        W60945  41.292  23.070   2.276
97002W        W60946  19.164  44.006  11.413
97003W        W60947  17.603  21.654  12.943
97004W        W60948  30.972  13.640  12.562
97005W        W60949  10.721  28.594   4.732
97006W        W60950  20.209  37.877  11.413
97007W        W60951   8.194  12.849   3.165
97008W        W60952  42.908  33.472  13.329
97009W        W60953  11.301   4.380  14.988
97010W        W60954   8.358  30.154  13.505
97011W        W60955  16.223  11.153  13.040
97012W        W60956  31.084  22.011   2.834
97013W        W60957   8.669  43.994   3.851
97014W        W60958  42.862  37.861  12.389
97015W        W60959   2.449  20.540  11.914
97016W        W60960  36.958  14.726   1.345
97017W        W60961  12.815   8.896   4.713
97018W        W60962  37.977  29.523  11.920
97019W        W60963   1.801  27.015  12.946
97020W        W60964  28.985   6.741   3.256
97021W        W60965  32.999  20.099  14.490
97022W        W60966  20.747  32.085   4.770
97023W        W60967  20.140  16.684  11.433
97024W        W60968  39.015  41.889  13.350
97025W        W60969  10.752  18.218  12.830
97026W        W60970  42.921  33.608  14.829
97027W        W60971  25.651  40.897   1.794
97028W        W60972   8.895   9.741  11.006
97029W        W60973  31.071  32.140  13.981
97030W        W60974   6.265  44.795  14.777
97031W        W60975  43.825  38.560   2.285
97032W        W60976  41.344   6.295  13.027
97033W        W60977  17.260   3.859   1.913
97034W        W60978  19.559   3.365   0.407
97035W        W60979  34.938  16.579  13.471
97036W        W60980  21.156  14.269  12.095
97037W        W60981  11.282  30.071  12.470
97038W        W60982  18.547   5.739   2.354
97039W        W60983  19.217   3.371  14.786
97040W        W60984  30.007  28.138  11.028
97041W        W60985  36.463  15.624  10.636
97042W        W60986  37.364  32.956  12.975
97043W        W60987  24.615   0.816   3.282
97044W        W60988  25.714  16.801  10.603
97045W        W60989  31.497  37.905   2.871
97046W        W60990  33.929  19.697  14.762
97047W        W60991  23.097  19.233  13.976
97048W        W60992  43.888  41.939   0.326
97049W        W60993  44.977  40.426  13.865
97050W        W60994  41.810  32.391   0.305
97051W        W60995  31.997   5.439   2.681
97052W        W60996  25.507   1.758  10.456
97053W        W60997  38.915  44.337  13.957
97054W        W60998  21.193  14.604   3.734
97055W        W60999  42.004  25.679  14.760
97056W        W61000  28.039  16.279   2.203
97057W        W61001  15.741  40.350  12.460
97058W        W61002  28.018  35.072   0.250
97059W        W61003  20.268  44.822   0.300
97060W        W61004   4.307  27.505  14.300
97061W        W61005  40.797  24.610   3.186
97062W        W61006  32.031   7.878   5.184
97063W        W61007  20.156  43.016   2.839
97064W        W61008  28.644  36.938   4.818
97065W        W61009  20.164  24.153  13.994
97066W        W61010  34.375  30.068  13.834
97067W        W61011  43.910  19.626  14.834
97068W        W61012  39.519  16.807  14.504
97069W        W61013  29.097  36.420   1.868
97070W        W61014   5.338  13.782   4.346
97071W        W61015  31.018   1.483  14.889
97072W        W61016  44.897   8.172   9.506
97073W        W61017  40.923   9.158  11.537
97074W        W61018  32.005   6.763  13.540
97075W        W61019  33.970  36.081   4.344
97076W        W61020   2.768  10.660   0.816
97077W        W61021  28.560  44.462  10.060
97078W        W61022  32.141   5.297  12.414
97079W        W61023  31.101  17.259   9.591
97080W        W61024   4.734   4.279  12.908
97081W        W61025  40.378  21.211  11.093
97082W        W61026  28.153  18.215  14.831
97083W        W61027  42.471  38.414  13.902
97084W        W61028  23.090  29.433   3.745
97085W        W61029  14.759  22.553  12.913
97086W        W61030  17.611  16.241  12.075
97087W        W61031  21.207   4.770   3.695
97088W        W61032  33.468  19.740   1.880
97089W        W61033  41.455  14.705  11.971
97090W        W61034  10.830  20.609   0.947
97091W        W61035  27.508  43.404   4.267
97092W        W61036  19.720  20.660   1.379
97093W        W61037  18.675  43.004  12.378
97094W        W61038  39.933  17.142  13.483
97095W        W61039   0.791  40.403   1.217
97096W        W61040  25.126  16.221  13.958
97097W        W61041   7.819  21.751  12.483
97098W        W61042  13.304  28.566  10.545
97099W        W61043  13.790  23.157   3.820
97100W        W61044  26.628   0.489   1.885
97101W        W61045   9.265  44.390   1.700
97102W        W61046  33.003   7.691  10.553
97103W        W61047  11.326   2.723  13.946
97104W        W61048  36.883  16.567  10.579
97105W        W61049   9.236   7.347  11.044
97106W        W61050  15.646  35.565  10.133
97107W        W61051   7.863  12.773  14.796
97108W        W61052  16.293  42.330   1.919
97109W        W61053  20.212  40.457  10.926
97110W        W61054  24.993  22.032  10.905
97111W        W61055  26.186  37.463  12.569
97112W        W61056  34.011  39.391  12.933
97113W        W61057   4.332   4.741  12.499
97114W        W61058  14.302  29.114   3.835
97115W        W61059  12.766  28.578   2.331
97116W        W61060   3.759  11.178  12.559
97117W        W61061   4.298  36.382   0.265
97118W        W61062   5.403   2.766  14.817
97119W        W61063  17.631   3.369   2.890
97120W        W61064  44.918  38.506   3.261
97121W        W61065  41.996  13.608   2.664
97122W        W61066  37.560  35.459   1.215
97123W        W61067  40.821  27.173   0.898
97124W        W61068  26.698  26.048  11.010
97125W        W61069  31.909  23.186   4.625
97126W        W61070  43.511  39.062  13.892
97127W        W61071   0.430  28.487  11.469
97128W        W61072  30.101  22.523  13.385
97129W        W61073  26.146  11.802  14.507
97130W        W61074  27.028  30.087  12.977
97131W        W61075  12.283  20.233  10.497
97132W        W61076  24.189  26.991  13.049
97133W        W61077  44.382  20.598   4.689
97134W        W61078  21.651  20.156  12.540
97135W        W61079   1.795  10.859   1.767
97136W        W61080  28.439  36.917  13.913
97137W        W61081  17.098   1.762  12.342
97138W        W61082  40.457  11.709   0.811
97139W        W61083   7.314  30.613  13.483
97140W        W61084  40.354  24.057   2.259
97141W        W61085   5.259  14.151   3.318
97142W        W61086   1.880  41.296   3.698
97143W        W61087  11.715   2.309   0.426
97144W        W61088  12.658  29.053  13.945
97145W        W61089  11.219  44.891   4.324
97146W        W61090   8.696  32.570  12.498
97147W        W61091  27.451  10.301   1.236
97148W        W61092  39.990  22.558   0.482
97149W        W61093  26.538  20.540  12.372
97150W        W61094  10.245  38.947   2.888
97151W        W61095   9.340  31.012  10.488
97152W        W61096  36.360   3.955   3.819
97153W        W61097  38.922   1.891  12.389
97154W        W61098   2.393  41.024  13.453
97155W        W61099  22.531   8.263   3.273
97156W        W61100  29.047  43.369  12.899
97157W        W61101  17.190   6.236  10.095
97158W        W61102  13.319   8.815  14.023
97159W        W61103  35.589  21.066  14.415
97160W        W61104   6.769  36.431  11.961
97161W        W61105   9.363  30.943  13.481
97162W        W61106  32.049  15.692   4.188
97163W        W61107  43.858  25.050  10.632
97164W        W61108  40.856  13.242   4.192
97165W        W61109  25.085  32.006   2.681
97166W        W61110  44.476  25.979   3.198
97167W        W61111  24.056  17.073  12.884
97168W        W61112  34.061  23.571  11.065
97169W        W61113  43.870  40.513  14.330
97170W        W61114  16.130  26.001   2.305
97171W        W61115   7.899  43.377   1.274
97172W        W61116  15.687   7.738  12.889
97173W        W61117   9.223  27.128  13.316
97174W        W61118  25.555  35.937  11.952
97175W        W61119   5.736  32.924   1.819
97176W        W61120  42.958  41.041  11.984
97177W        W61121  19.587  16.112  11.546
97178W        W61122  33.575  21.065  10.943
97179W        W61123  42.375  22.694  12.973
97180W        W61124  32.015   6.911  12.442
97181W        W61125  19.744  27.191   0.267
97182W        W61126  37.928  22.554   2.190
97183W        W61127  38.924  25.993   2.834
97184W        W61128  22.087  34.567   1.842
97185W        W61129  15.087  28.544  11.548
97186W        W61130  44.432  24.063  14.306
97187W        W61131  20.266  37.905   0.773
97188W        W61132  24.125   3.333   9.979
97189W        W61133  18.051  37.851  11.929
97190W        W61134  39.038  10.800  13.893
97191W        W61135  20.545  42.429   4.314
97192W        W61136  31.148   9.186   2.721
97193W        W61137  44.496  30.996  11.055
97194W        W61138  13.753   9.192   2.810
97195W        W61139  32.563  20.718   0.779
97196W        W61140  43.925   2.324   4.242
97197W        W61141  41.433  28.450   4.790
97198W        W61142  13.222  26.036   0.965
97199W        W61143  10.676  20.645  11.606
97200W        W61144  21.130   4.383  13.432
97201W        W61145  18.084  12.220  11.059
97202W        W61146  11.293  43.965  12.016
97203W        W61147  24.103  30.986   3.362
97204W        W61148  12.148  28.508   1.768
97205W        W61149  25.627  42.347   1.805
97206W        W61150  42.871   5.851  12.027
97207W        W61151  26.090   5.335  10.625
97208W        W61152   2.721  30.123   4.668
97209W        W61153  34.472   0.408   0.818
97210W        W61154   0.889   1.339  12.971
97211W        W61155   4.909  29.033   4.348
97212W        W61156  12.322  31.039  10.489
97213W        W61157  40.801   7.791   2.259
97214W        W61158  18.741  33.568  11.510
97215W        W61159  14.805  12.821   3.242
97216W        W61160  36.587   3.763   9.937
97217W        W61161   6.374  22.037  11.499
97218W        W61162  38.014  28.611   3.817
97219W        W61163  10.813   0.347  10.555
97220W        W61164   6.198  43.490   2.883
97221W        W61165  32.000   2.731   1.761
97222W        W61166  33.461  42.953  14.512
97223W        W61167  15.320   9.282  11.530
97224W        W61168  27.630  19.749  14.957
97225W        W61169  22.111  24.088  14.327
97226W        W61170  27.006   9.870   0.329
97227W        W61171  23.578  37.858  13.313
97228W        W61172  26.973  19.124   0.441
97229W        W61173  40.474   8.699   0.373
97230W        W61174  26.197  16.113   5.184
97231W        W61175  41.378   7.758   0.455
97232W        W61176  41.395  15.768   5.127
97233W        W61177  35.425  32.952   2.373
97234W        W61178   6.918   4.242  10.982
97235W        W61179  36.075  42.334  13.940
97236W        W61180  32.937  41.947  12.426
97237W        W61181  27.142  37.392  12.022
97238W        W61182  36.908  19.600  10.574
97239W        W61183  38.820   1.463   3.723
97240W        W61184  33.413  14.238   2.767
97241W        W61185  16.693   0.799  11.382
97242W        W61186   5.909   3.278   5.149
97243W        W61187   9.222  16.655  12.089
97244W        W61188   8.900  39.995   3.362
97245W        W61189  43.381  36.465  14.760
97246W        W61190   9.782   5.266   4.762
97247W        W61191  44.757   8.722  14.511
97248W        W61192  31.477  35.078  14.353
97249W        W61193  33.904   4.437  14.281
97250W        W61194  38.388   1.471   5.745
97251W        W61195  38.982  39.900   3.336
97252W        W61196  15.594  39.845  13.342
97253W        W61197   3.299  29.970  14.965
97254W        W61198  39.557  16.249   0.965
97255W        W61199  18.605   6.892   2.793
97256W        W61200  13.250  27.550  12.434
97257W        W61201  37.032   8.363   4.754
97258W        W61202  33.927  20.525   4.756
97259W        W61203  13.689   3.248   2.274
97260W        W61204  39.524   4.271  10.590
97261W        W61205  15.290  31.024  12.427
97262W        W61206  17.192  42.293  10.018
97263W        W61207  11.288  29.127  13.894
97264W        W61208   0.764   9.870   2.209
97265W        W61209  12.202  43.475   0.398
97266W        W61210  30.446  32.551   2.716
97267W        W61211  30.998   7.856   2.866
97268W        W61212  34.497   4.702   1.853
97269W        W61213   0.939  29.440   4.676
97270W        W61214   9.844  23.083   0.951
97271W        W61215   6.305  38.883   2.748
97272W        W61216  19.551  25.142   2.253
97273W        W61217  42.398  43.807   1.753
97274W        W61218  17.155  18.244  10.935
97275W        W61219  35.463  27.528   1.820
97276W        W61220   9.203  44.288  10.629
97277W        W61221  35.087  33.608  10.474
97278W        W61222   9.324  25.047  14.963
97279W        W61223  15.310  23.586   2.900
97280W        W61224  12.669  27.102   4.306
97281W        W61225   8.801  15.775  11.461
97282W        W61226  12.769  32.029   9.517
97283W        W61227  37.989  11.806  14.406
97284W        W61228  22.251  37.016   3.188
97285W        W61229   5.733  37.397   4.313
97286W        W61230  14.702  23.607   5.240
97287W        W61231  37.995  24.016  13.403
97288W        W61232  38.027  30.156   2.789
97289W        W61233   3.395  38.522   0.780
97290W        W61234  38.979  44.004   0.264
97291W        W61235   1.750  20.240   0.785
97292W        W61236  43.833  13.105   1.399
97293W        W61237   4.713   1.885   3.759
97294W        W61238   2.452  16.707  10.962
97295W        W61239  19.188  14.732  10.969
97296W        W61240  10.363  24.199  14.845
97297W        W61241  27.970  29.642   0.744
97298W        W61242   6.244  36.873   3.311
97299W        W61243   7.842  32.887   1.816
97300W        W61244  41.893  42.906   2.178
97301W        W61245   2.745  14.693  10.513
97302W        W61246  37.428  34.541   0.325
97303W        W61247  35.098  41.824  10.465
97304W        W61248  21.135  34.985  14.945
97305W        W61249  15.699   0.250   4.279
97306W        W61250  38.483  25.062   0.837
97307W        W61251  23.111  29.121   2.738
97308W        W61252  29.434  24.588  13.535
97309W        W61253  13.200  40.390   4.301
97310W        W61254   1.310  13.278   4.250
97311W        W61255  25.966  33.109  10.536
97312W        W61256  28.446  44.949   1.851
97313W        W61257  30.589  26.585   0.968
97314W        W61258  15.297  42.351  10.905
97315W        W61259   3.868  42.964  11.562
97316W        W61260  24.543  14.723   0.339
97317W        W61261  35.488  39.883  11.451
97318W        W61262  24.163  19.171  14.860
97319W        W61263  31.530  28.477  11.051
97320W        W61264  18.735   8.367   0.322
97321W        W61265   2.728  22.617   3.302
97322W        W61266  23.702  26.034   1.254
97323W        W61267  36.390   5.339   0.404
97324W        W61268  36.446  38.843   1.390
97325W        W61269  28.635  18.273  13.516
97326W        W61270  36.907  11.249  13.963
97327W        W61271   9.305   9.681  14.495
97328W        W61272   0.290  13.648  12.859
97329W        W61273   5.723  30.621  14.360
97330W        W61274  30.415  10.306   1.917
97331W        W61275  28.436  25.161   3.332
97332W        W61276  38.480  16.753   0.775
97333W        W61277  18.769  16.197   4.632
97334W        W61278  10.310  14.106  14.829
97335W        W61279  10.339  15.188   1.799
97336W        W61280   1.399  41.943   3.183
97337W        W61281  30.083  11.824   0.347
97338W        W61282  27.552  14.278  14.777
97339W        W61283  14.724  32.481   1.884
97340W        W61284  16.663  20.527   0.964
97341W        W61285  38.427  19.040   0.778
97342W        W61286   6.359   6.746   4.780
97343W        W61287  33.087  41.450  10.564
97344W        W61288  30.156  11.255   1.826
97345W        W61289  35.566  42.419   0.412
97346W        W61290  12.835  25.219  11.524
97347W        W61291  15.579  13.714   4.739
97348W        W61292  18.650   0.448   1.437
97349W        W61293  41.962  25.073   1.736
97350W        W61294  30.955  37.965  13.320
97351W        W61295  19.138  37.905  14.922
97352W        W61296  40.823   3.939  14.472
97353W        W61297  31.060   0.296  12.909
97354W        W61298   0.272  36.433   4.623
97355W        W61299  16.664  10.231  10.917
97356W        W61300  41.860   4.930  13.435
97357W        W61301  13.170  10.837  12.045
97358W        W61302  21.246  25.530   4.293
97359W        W61303  18.564   3.825   1.400
97360W        W61304   5.933  30.104  12.505
97361W        W61305   9.160  36.521  13.392
97362W        W61306  40.934  43.407   4.677
97363W        W61307  19.585  22.602  13.541
97364W        W61308   6.211   1.261  13.333
97365W        W61309  33.027  16.684   4.725
97366W        W61310  16.109  35.060  14.286
97367W        W61311  33.953  23.591   3.647
97368W        W61312   0.860  40.826  13.816
97369W        W61313   4.919  29.521  14.933
97370W        W61314  33.553   4.369   4.311
97371W        W61315  20.146  39.410  10.933
97372W        W61316  33.976  44.463  10.937
97373W        W61317  17.127  18.281  10.545
97374W        W61318  36.501   0.314  14.858
97375W        W61319  30.430  18.122  13.337
97376W        W61320  37.528  39.410  11.945
97377W        W61321  27.581  17.721   1.390
97378W        W61322  19.610   3.896  12.064
97379W        W61323  41.035   8.746   0.271
97380W        W61324  43.443  23.624  13.340
97381W        W61325  13.118  34.429   0.480
97382W        W61326   8.214  14.716   2.346
97383W        W61327  31.031  17.200  14.836
97384W        W61328  17.090  19.221   4.728
97385W        W61329  16.653  20.122  13.843
97386W        W61330  44.496   9.661   0.251
97387W        W61331  33.014  43.470   4.323
97388W        W61332  23.984  16.242  12.578
97389W        W61333  34.371  17.151  13.924
97390W        W61334  21.234  25.971   2.220
97391W        W61335  28.450  37.955  14.798
97392W        W61336  36.047  37.552  14.411
97393W        W61337  27.111  44.284   2.248
97394W        W61338  25.573   1.342   2.318
97395W        W61339   7.859  39.349   0.771
97396W        W61340  34.938  17.211  10.946
97397W        W61341  20.751   6.869  12.345
97398W        W61342  23.639  21.606  10.972
97399W        W61343  43.430   5.292  12.892
97400W        W61344  35.467   6.871  12.344
97401W        W61345   5.736  41.905  14.895
97402W        W61346   0.920   1.285  11.382
97403W        W61347  30.622  14.189   9.980
97404W        W61348  27.059   1.739  11.536
97405W        W61349  44.808  25.182  14.335
97406W        W61350  35.068  40.378  14.954
97407W        W61351   8.266  37.432   0.776
97408W        W61352   2.923  17.710   0.799
97409W        W61353  16.773   7.782   0.843
97410W        W61354  10.835  27.978   4.744
97411W        W61355  44.987  10.852   4.187
97412W        W61356  20.188  26.547   2.182
97413W        W61357  20.653  18.669   0.344
97414W        W61358  33.098  43.962   4.243
97415W        W61359  20.230  35.064  12.957
97416W        W61360  42.418   7.820  13.994
97417W        W61361  19.585  14.789  11.096
97418W        W61362  20.244  14.334  14.855
97419W        W61363   3.796  10.669   4.185
97420W        W61364  24.540  30.494  12.849
97421W        W61365   6.728  41.420   3.832
97422W        W61366  41.343  11.854  12.992
97423W        W61367  26.518   4.788   0.889
97424W        W61368  21.241  32.418  13.379
97425W        W61369  25.537  12.188  13.447
97426W        W61370  25.187  31.097  10.425
97427W        W61371  43.308   0.954   2.740
97428W        W61372  28.495  28.097   4.622
97429W        W61373  16.238  41.360  11.019
97430W        W61374  28.102  36.385   4.314
97431W        W61375   8.742  38.047   4.231
97432W        W61376  18.688  19.618   2.391
97433W        W61377   4.785  15.816  10.569
97434W        W61378  23.619   7.220  11.547
97435W        W61379   5.416  39.326  12.398
97436W        W61380  16.194  27.124  12.944
97437W        W61381  18.636   7.786   3.693
97438W        W61382  41.508  33.944   2.199
97439W        W61383  44.883  43.446  13.987
97440W        W61384  26.134  10.222   4.176
97441W        W61385   8.360  41.885   2.836
97442W        W61386  28.993  44.315  12.475
97443W        W61387  21.063  11.326  13.508
97444W        W61388   0.957  13.264   3.791
97445W        W61389  13.702  12.249   1.919
97446W        W61390   5.918   1.840   2.195
97447W        W61391   1.756  36.388   1.748
97448W        W61392  43.481   8.676   0.732
97449W        W61393   3.224  20.545  10.948
97450W        W61394   7.276  23.545   0.375
97451W        W61395  40.343  17.752   2.347
97452W        W61396   9.873  27.628   4.691
97453W        W61397  29.534  24.635   0.405
97454W        W61398  13.264   7.872  13.511
97455W        W61399  36.031  40.334   3.192
97456W        W61400  16.137  37.061   4.727
97457W        W61401  13.348  29.474   2.381
97458W        W61402  37.016   1.439  10.505
97459W        W61403  18.296  26.676  11.427
97460W        W61404   3.748   7.184  11.396
97461W        W61405  43.959  40.318   1.779
97462W        W61406  40.323  35.481   3.870
97463W        W61407   4.301   3.250  12.404
97464W        W61408  15.645  34.373   9.521
97465W        W61409  22.649   7.806  10.481
97466W        W61410  41.909  42.979  11.865
97467W        W61411  18.219  27.612  13.837
97468W        W61412  10.658   4.857  10.100
97469W        W61413  26.682  40.527   1.743
97470W        W61414  23.508  21.223  14.760
97471W        W61415  24.665   0.425  12.539
97472W        W61416  41.413  21.137  13.503
97473W        W61417  14.636  17.186   3.259
97474W        W61418  44.350  10.828   1.356
97475W        W61419   0.860   1.314   4.670
97476W        W61420  10.749  28.157  10.095
97477W        W61421  32.558   0.306  12.846
97478W        W61422  29.611  21.199  14.777
97479W        W61423  39.933   2.363   4.231
97480W        W61424  33.074  44.382  12.567
97481W        W61425   6.685  17.621   0.273
97482W        W61426   7.300  40.998  11.391
97483W        W61427   8.704  22.182  10.968
97484W        W61428  43.956  36.484   2.891
97485W        W61429  12.126  10.819  11.556
97486W        W61430  25.183  22.018   2.813
97487W        W61431  34.030  14.708  12.469
97488W        W61432   6.384  37.015   1.863
97489W        W61433  24.481  23.630  10.990
97490W        W61434  20.708  25.531   0.854
97491W        W61435  27.153  41.897   2.377
97492W        W61436  11.295  30.119  14.764
97493W        W61437  39.945   2.442   0.455
97494W        W61438   2.832   9.872  13.362
97495W        W61439   0.769  14.144   1.374
97496W        W61440  33.541   3.289   3.302
97497W        W61441  13.176  13.216   5.308
97498W        W61442  22.566  12.759   4.792
97499W        W61443   3.375  38.898   1.906
97500W        W61444  40.930  23.563  11.057
97501W        W61445   0.448   8.869  11.495
97502W        W61446  17.138  32.397  14.294
97503W        W61447  42.332   2.944  10.637
97504W        W61448  40.394   2.306  14.961
97505W        W61449  11.662  35.435  10.064
97506W        W61450  17.711  34.476  10.084
97507W        W61451   9.352  43.448  13.435
97508W        W61452  41.296  33.511  11.041
97509W        W61453  28.933  31.025   4.815
97510W        W61454  15.167  43.465  13.378
97511W        W61455  34.912   3.313   2.263
97512W        W61456  27.649  24.532   3.740
97513W        W61457   1.348  39.989   3.208
97514W        W61458  27.023  33.964   4.276
97515W        W61459  38.361   5.783   1.726
97516W        W61460  26.532  32.592   3.374
97517W        W61461  29.131  26.998   2.196
97518W        W61462  19.544  43.801  12.987
97519W        W61463  31.528  11.675  13.057
97520W        W61464   1.261  36.528   4.782
97521W        W61465  35.489  39.978   4.147
97522W        W61466  42.969  20.120   4.618
97523W        W61467  37.930  38.352   2.375
97524W        W61468   4.734  20.756   2.380
97525W        W61469  37.396  39.445  12.571
97526W        W61470  44.947  16.657  12.891
97527W        W61471  44.771   3.883   2.750
97528W        W61472   2.743  28.033   2.257
97529W        W61473  12.288  17.288  11.573
97530W        W61474  36.520  30.118   1.427
97531W        W61475  17.071   4.388  14.887
97532W        W61476   3.457  14.774  12.392
97533W        W61477  10.328  12.820   2.737
97534W        W61478  26.038  27.660  13.458
97535W        W61479  27.994  42.448  12.400
97536W        W61480  34.422   8.398  10.906
97537W        W61481   9.380   0.782  10.622
97538W        W61482  15.642  35.857   0.481
97539W        W61483  18.291  42.959  14.389
97540W        W61484  14.323   2.964   4.832
97541W        W61485  20.697  24.112   0.392
97542W        W61486  41.900  26.673   3.720
97543W        W61487  27.172   2.429   4.210
97544W        W61488  34.874   6.819  13.380
97545W        W61489  11.332   3.385  11.021
97546W        W61490  36.943  34.550  12.477
97547W        W61491   1.880  20.255   3.165
97548W        W61492   5.786  35.483   4.653
97549W        W61493  29.109  39.834  13.310
97550W        W61494  22.133  43.836  10.643
97551W        W61495   6.857  28.666  10.936
97552W        W61496  36.495  44.492   1.373
97553W        W61497  36.988  15.787   1.754
97554W        W61498  42.281  18.193   4.201
97555W        W61499  18.752  22.658   0.473
97556W        W61500   5.712  41.795   4.290
97557W        W61501  36.588  23.219   0.967
97558W        W61502  28.580  16.311  14.417
97559W        W61503  28.531   8.832  11.986
97560W        W61504  40.343   7.333   1.356
97561W        W61505  11.831   3.763  10.122
97562W        W61506  33.012  25.058   0.844
97563W        W61507  17.557  23.017   1.795
97564W        W61508  36.351  37.582  14.958
97565W        W61509  25.550  38.002   3.328
97566W        W61510  32.950   5.223   4.180
97567W        W61511  15.158  33.557  12.345
97568W        W61512  14.132  30.609   1.414
97569W        W61513  44.313   6.707  12.399
97570W        W61514  39.913  43.416  14.847
97571W        W61515  13.104  42.777   4.698
97572W        W61516  44.296  36.537  10.567
97573W        W61517  17.649  34.907  12.477
97574W        W61518  17.787  28.009   3.846
97575W        W61519  16.751  38.340   4.764
97576W        W61520  27.570  43.471  12.413
97577W        W61521  17.567   1.321  10.514
97578W        W61522  35.033  36.933   1.703
97579W        W61523  32.516  30.977  11.423
97580W        W61524  33.027  25.475  13.990
97581W        W61525  31.503  29.988  11.411
97582W        W61526  22.614   4.832   3.849
97583W        W61527  43.980  43.967   2.198
97584W        W61528  26.546  31.584  13.863
97585W        W61529  18.092  15.305   4.188
97586W        W61530  26.084  19.253   3.163
97587W        W61531  38.880   0.437   2.398
97588W        W61532  32.130   2.436   1.909
97589W        W61533  44.831  36.956   4.342
97590W        W61534  36.525  21.655   4.660
97591W        W61535  32.996  43.406  12.868
97592W        W61536  29.052   1.360  13.843
97593W        W61537  28.543  16.772  14.808
97594W        W61538  32.592  24.007  13.366
97595W        W61539  23.526  32.458   2.693
97596W        W61540  16.702  18.057   3.287
97597W        W61541  37.907  39.884   0.887
97598W        W61542   1.792   4.779   0.853
97599W        W61543  16.800  18.079  10.887
97600W        W61544  11.696  27.672  13.024
97601W        W61545  37.999  19.622   4.338
97602W        W61546  29.114  22.207  13.326
97603W        W61547   7.343  17.235   2.779
97604W        W61548  40.881  43.320  10.979
97605W        W61549  17.786  30.937   3.707
97606W        W61550  19.680  29.641   0.432
97607W        W61551  43.393   8.225  13.988
97608W        W61552  22.532  23.619  14.287
97609W        W61553   3.860  31.625   3.186
97610W        W61554  27.452  24.702  13.395
97611W        W61555  44.849  14.209  11.594
97612W        W61556   4.212  36.584  14.319
97613W        W61557   8.692   0.344  13.886
97614W        W61558   2.278   0.473   2.872
97615W        W61559  39.024  40.887   4.296
97616W        W61560   8.754  19.687   3.155
97617W        W61561  18.755  33.886   2.725
97618W        W61562  14.714  28.099  13.377
97619W        W61563  35.001   2.423  11.503
97620W        W61564   0.819   2.262  11.074
97621W        W61565  21.555  40.024  14.868
97622W        W61566  29.174  27.103   3.146
97623W        W61567  32.545  17.178   2.368
97624W        W61568  22.736  40.005   1.323
97625W        W61569  42.893  32.505  12.972
97626W        W61570  31.908  24.664   0.309
97627W        W61571  42.929  19.277  14.310
97628W        W61572  32.420  25.608  11.110
97629W        W61573   4.398  12.225  10.937
97630W        W61574  34.070  25.627  11.421
97631W        W61575   4.761   4.267  10.434
97632W        W61576  22.517  19.104  14.960
97633W        W61577  20.609   9.822   3.269
97634W        W61578  26.199  31.143   4.186
97635W        W61579   8.773  40.357   1.224
97636W        W61580  25.189  16.251  11.917
97637W        W61581  18.721  11.710  14.763
97638W        W61582   2.756  22.079  11.908
97639W        W61583  12.242  34.031   2.404
97640W        W61584  15.102  18.226  12.576
97641W        W61585  11.209   1.792   0.916
97642W        W61586  40.304  10.823  12.357
97643W        W61587  28.168  34.507   0.299
97644W        W61588  26.050  20.550  10.487
97645W        W61589  41.923  41.460  14.936
97646W        W61590  41.800  37.476  12.873
97647W        W61591   7.766  22.574   5.162
97648W        W61592   9.703  15.099  12.408
97649W        W61593   4.265  25.682   0.364
97650W        W61594  21.700  35.061   0.904
97651W        W61595  33.578  15.291  14.444
97652W        W61596  40.303  34.873   0.917
97653W        W61597  18.100  31.425   0.910
97654W        W61598   9.231  36.436   0.888
97655W        W61599   7.856  35.397  14.516
97656W        W61600  41.342  42.935   0.316
97657W        W61601  13.817  10.321   1.755
97658W        W61602  32.556  39.997   3.322
97659W        W61603  21.118  28.445   4.216
97660W        W61604  40.899  11.648   0.367
97661W        W61605  38.481  14.638  11.560
97662W        W61606  29.921  22.727   0.891
97663W        W61607  33.520  40.329  13.509
97664W        W61608  19.579  36.897   4.781
97665W        W61609  31.470  19.577  10.935
97666W        W61610  36.076   8.301   4.261
97667W        W61611  33.512  28.145   0.396
97668W        W61612  43.810  43.013  11.517
97669W        W61613  36.067  20.759  11.988
97670W        W61614   1.404  43.454   1.840
97671W        W61615  13.322  42.321   2.366
97672W        W61616  36.920  23.125   4.270
97673W        W61617  30.975   7.171   2.769
97674W        W61618   6.227  20.063  11.479
97675W        W61619  41.316  18.223  10.555
97676W        W61620  27.121  33.032   2.828
97677W        W61621  13.840  34.536   3.738
97678W        W61622  40.949   7.410   0.423
97679W        W61623  29.431  42.370   4.184
97680W        W61624  31.576   2.899  12.574
97681W        W61625  25.497   3.713  11.099
97682W        W61626  20.588   0.953   0.327
97683W        W61627  30.515  24.630  13.317
97684W        W61628   2.324  13.209  10.623
97685W        W61629  22.218  20.678  13.335
97686W        W61630  10.709  37.978  11.020
97687W        W61631  30.443   7.853  14.391
97688W        W61632  13.727  34.522  12.029
97689W        W61633  20.655  18.567   1.343
97690W        W61634  38.366  22.236   2.259
97691W        W61635   4.838  37.431   4.663
97692W        W61636  23.115  12.611   1.816
97693W        W61637  17.774  37.436   4.831
97694W        W61638  17.279  10.338  12.559
97695W        W61639  10.268  31.488   0.957
97696W        W61640  12.128  34.483  12.860
97697W        W61641  16.793   5.806   4.721
97698W        W61642  19.234  35.547  13.387
97699W        W61643  31.634  19.651   0.943
97700W        W61644  16.082  19.116   2.360
97701W        W61645  35.550  22.528   0.388
97702W        W61646  40.819  32.485   2.901
97703W        W61647  29.930  22.579   3.764
97704W        W61648  22.169   0.899   0.818
97705W        W61649  40.832   1.916  13.322
97706W        W61650   7.682   1.823   2.293
97707W        W61651  24.538  29.656   2.194
97708W        W61652  19.715   2.396  10.986
97709W        W61653  24.097  22.202   1.396
97710W        W61654  18.562  27.565  13.374
97711W        W61655  18.201  28.466   1.761
97712W        W61656  22.229  42.821  14.981
97713W        W61657  24.639  18.693  13.354
97714W        W61658  36.001  38.004   1.916
97715W        W61659   6.704  14.635  12.892
97716W        W61660   6.341  16.688  13.449
97717W        W61661  21.033  13.171   4.353
97718W        W61662   9.279  15.794  10.534
97719W        W61663  28.934  34.888   0.897
97720W        W61664   3.385  39.354   3.681
97721W        W61665   8.258   5.743   4.720
97722W        W61666  41.500  16.582  12.978
97723W        W61667  37.920  15.727   2.804
97724W        W61668   0.889  29.554   4.194
97725W        W61669  12.159  43.505  13.488
97726W        W61670  16.656  42.486   3.640
97727W        W61671  39.985  11.852  13.041
97728W        W61672  10.168  39.037  10.888
97729W        W61673   9.180  26.153   4.291
97730W        W61674  31.604   9.328   1.843
97731W        W61675  39.404  26.026  14.438
97732W        W61676  44.888  24.636  13.464
97733W        W61677   1.786  25.115   3.294
97734W        W61678   6.761  29.936   2.198
97735W        W61679   3.734   0.885  14.284
97736W        W61680  22.249  39.541  12.520
97737W        W61681   2.879   8.357   2.249
97738W        W61682  15.806  34.413   1.779
97739W        W61683  23.502  33.007  14.514
97740W        W61684  41.342  35.904   0.730
97741W        W61685  16.701  14.690  14.803
97742W        W61686  36.028  14.766   5.202
97743W        W61687  34.599  15.625   3.338
97744W        W61688  33.071  19.077  12.572
97745W        W61689  32.602  43.422   2.786
97746W        W61690  37.501  18.169   3.288
97747W        W61691  26.133  12.841  13.310
97748W        W61692  33.101  20.048   2.850
97749W        W61693   1.734  31.549   0.778
97750W        W61694  36.060  22.148  12.488
97751W        W61695  21.708  34.557  14.468
97752W        W61696  20.572   6.732  13.340
97753W        W61697  22.162  40.907  10.998
97754W        W61698   1.409   2.348  11.107
97755W        W61699  33.897   7.717  14.288
97756W        W61700   7.275   9.647  12.356
97757W        W61701  32.591  24.195   0.285
97758W        W61702  43.877  17.183  10.492
97759W        W61703  34.046  38.369  10.923
97760W        W61704  14.799   3.312   4.139
97761W        W61705  23.699  11.309  12.007
97762W        W61706  32.507  10.634   3.854
97763W        W61707  24.676   9.176  12.007
97764W        W61708  34.493  19.671  10.433
97765W        W61709  43.795  15.284   4.168
97766W        W61710  27.684   4.851  12.504
97767W        W61711  43.291  29.056   1.408
97768W        W61712   9.861   7.319   2.720
97769W        W61713   2.785  10.654   3.632
97770W        W61714   6.800  29.572   9.973
97771W        W61715  21.559   0.285   4.204
97772W        W61716  41.794  15.285  14.781
97773W        W61717  26.105  20.601  13.980
97774W        W61718  31.922   3.896   2.875
97775W        W61719  16.273  32.627  12.076
97776W        W61720  35.969   3.440  10.125
97777W        W61721  29.942   8.742   0.765
97778W        W61722  18.155  23.187   4.159
97779W        W61723  24.002  39.818  11.388
97780W        W61724  10.272  23.508  14.451
97781W        W61725  24.015  10.142   1.243
97782W        W61726  14.801  14.790  10.426
97783W        W61727   9.676  11.745  10.896
97784W        W61728   5.869   6.725  13.481
97785W        W61729  25.634  28.994  13.037
97786W        W61730   1.865   2.312   3.212
97787W        W61731  43.923  38.370  13.333
97788W        W61732  25.066  27.150  13.009
97789W        W61733  23.185  35.108  13.440
97790W        W61734  29.997  11.834  13.004
97791W        W61735  18.776  21.149   3.741
97792W        W61736   2.888  23.192  12.062
97793W        W61737   6.244   4.823  14.500
97794W        W61738  19.555   1.475  10.502
97795W        W61739   5.204  17.558   1.775
97796W        W61740  23.561   0.346  14.454
97797W        W61741   2.408   1.335  12.491
97798W        W61742  37.922  23.222   4.723
97799W        W61743  18.213  24.484  10.468
97800W        W61744  44.452  42.778  12.881
97801W        W61745  26.140   5.753  13.934
97802W        W61746  38.350  28.018  14.982
97803W        W61747   5.870  29.437  12.473
97804W        W61748   7.370  22.623   1.273
97805W        W61749   6.763  35.999   1.755
97806W        W61750  18.784  11.241  14.470
97807W        W61751   3.392   8.774  11.063
97808W        W61752  39.483  28.512  12.080
97809W        W61753  36.516  40.808   3.773
97810W        W61754  16.099   1.939  10.069
97811W        W61755  17.227  37.503   2.870
97812W        W61756  40.822  11.356   0.925
97813W        W61757  15.760  32.416   4.327
97814W        W61758   4.896   0.313   9.983
97815W        W61759  23.579  39.947  13.440
97816W        W61760  36.372  31.906  11.931
97817W        W61761   2.933   3.266   0.318
97818W        W61762  19.267  27.041  11.984
97819W        W61763   7.413  41.012   0.730
97820W        W61764   9.779  40.375  14.294
97821W        W61765  21.731  22.069   0.967
97822W        W61766  14.733  28.972   2.846
97823W        W61767  41.810   5.904  13.344
97824W        W61768  21.600  29.655   0.746
97825W        W61769   7.336  34.087  13.457
97826W        W61770  25.688  32.533   3.177
97827W        W61771  22.242  37.950  11.601
97828W        W61772  41.396  10.291   1.444
97829W        W61773  10.197  14.802   2.790
97830W        W61774  14.251  26.089   2.703
97831W        W61775   1.855   3.216   4.781
97832W        W61776   2.372   7.854   1.930
97833W        W61777  26.089  29.162   3.195
97834W        W61778  16.280  40.864   2.233
97835W        W61779  27.625  33.561   2.808
97836W        W61780  10.687  31.919   2.859
97837W        W61781  42.874  28.121   4.622
97838W        W61782  19.695   1.926  14.987
97839W        W61783  26.086   4.868   0.875
97840W        W61784  17.638  36.845   0.365
97841W        W61785  27.123  32.483   2.246
97842W        W61786  12.683  22.584   4.151
97843W        W61787  26.995   6.333   1.801
97844W        W61788  33.426  13.198  14.831
97845W        W61789  13.605  43.372  12.524
97846W        W61790   3.367  40.476   0.435
97847W        W61791  29.098  12.343   2.690
97848W        W61792  24.087  11.171  13.034
97849W        W61793  38.428  29.522  14.459
97850W        W61794  29.601  36.530  14.364
97851W        W61795  23.985  17.090  13.467
97852W        W61796  15.762  27.679  10.150
97853W        W61797  17.774   0.350  12.975
97854W        W61798  25.219   2.400   1.271
97855W        W61799  28.573  11.240  13.821
97856W        W61800   6.898  31.030   2.693
97857W        W61801   6.795  10.380   1.323
97858W        W61802   4.253   3.786   1.869
97859W        W61803  22.246   0.471   0.422
97860W        W61804  25.203  22.725  13.538
97861W        W61805   5.774  23.497   3.764
97862W        W61806  21.116  41.507   2.813
97863W        W61807  22.520  21.654   2.679
97864W        W61808  34.978  38.824   1.825
97865W        W61809  25.132   2.912   4.134
97866W        W61810  43.405   6.816  10.583
97867W        W61811  23.514  30.996   0.965
97868W        W61812   9.254  25.538  14.492
97869W        W61813  17.597  34.922   0.745
97870W        W61814  35.507  14.694   0.300
97871W        W61815   7.720  14.218   0.796
97872W        W61816  35.085  13.648  13.968
97873W        W61817  44.980  30.158  10.979
97874W        W61818  17.118  40.375   2.857
97875W        W61819  32.616  23.534   3.789
97876W        W61820  30.928  28.546  11.409
97877W        W61821  21.109   4.886   1.448
97878W        W61822  13.235  14.735  13.964
97879W        W61823   0.430  21.703  12.371
97880W        W61824   9.214  29.506  11.567
97881W        W61825   5.724  33.019   2.736
97882W        W61826  12.625  11.712  12.363
97883W        W61827  27.647   4.418  13.372
97884W        W61828  18.152  38.447   3.366
97885W        W61829  39.923   9.746  14.360
97886W        W61830   8.870  32.411   1.279
97887W        W61831  44.392  29.632   4.296
97888W        W61832  43.372  37.500   3.742
97889W        W61833   9.872  15.320   4.725
97890W        W61834   6.684  29.977  12.983
97891W        W61835   2.274  12.833   3.245
97892W        W61836  26.555  10.777  12.462
97893W        W61837  14.812  32.548   1.322
97894W        W61838  20.186  25.503   4.228
97895W        W61839  31.136  31.145  13.825
97896W        W61840  24.630  12.173  13.944
97897W        W61841  42.029   1.378   0.281
97898W        W61842  31.462  22.588   0.345
97899W        W61843   2.745  28.966  11.919
97900W        W61844  31.511  37.927  11.551
97901W        W61845  16.800  32.576   1.861
97902W        W61846   6.758  20.662   4.686
97903W        W61847  31.488  25.038  12.870
97904W        W61848  24.129  40.799  13.998
97905W        W61849  26.530  16.761   5.778
97906W        W61850  15.652  12.185   2.675
97907W        W61851   9.662  13.743   2.210
97908W        W61852  33.549  11.132   4.816
97909W        W61853  19.042   9.241   0.755
97910W        W61854  19.099  27.946   2.340
97911W        W61855  37.005  32.579  11.033
97912W        W61856  42.517  42.933   2.213
97913W        W61857  27.083   9.762   4.250
97914W        W61858  28.155   0.857  12.911
97915W        W61859   3.278  11.355   3.177
97916W        W61860  34.012   4.760  13.349
97917W        W61861   4.898  10.175   2.734
97918W        W61862  36.097  24.129   5.269
97919W        W61863   2.365  12.660   2.393
97920W        W61864  19.620  41.502   4.151
97921W        W61865  30.151  17.755   4.346
97922W        W61866   3.401  10.343  14.027
97923W        W61867  26.601  43.309   3.205
97924W        W61868  41.321  32.633   0.947
97925W        W61869  30.589  43.963   1.894
97926W        W61870  12.134  42.868  12.521
97927W        W61871  14.311  42.797   2.754
97928W        W61872  11.283  35.909  14.393
97929W        W61873  12.731  42.345  13.934
97930W        W61874  22.607   5.199   1.711
97931W        W61875  37.058  41.526  13.953
97932W        W61876  24.094   0.249  13.520
97933W        W61877  22.557  29.482  10.524
97934W        W61878   9.338   7.873   3.699
97935W        W61879  38.883  30.150  14.421
97936W        W61880  33.914   1.434  11.493
97937W        W61881   4.710   3.325   4.726
97938W        W61882  34.095   5.867   2.794
97939W        W61883  36.427   5.248  10.128
97940W        W61884   4.389  32.932   2.361
97941W        W61885  11.705  30.640   4.777
97942W        W61886  37.553  34.453  14.796
97943W        W61887  39.371  10.255   2.249
97944W        W61888  28.534   9.673   2.877
97945W        W61889  19.746  20.084   5.125
97946W        W61890  23.234   3.762  11.469
97947W        W61891  30.052  23.023  12.377
97948W        W61892  44.799  17.159   3.159
97949W        W61893  11.692   2.377  10.936
97950W        W61894  15.225  27.962  11.085
97951W        W61895   5.329   5.763   4.122
97952W        W61896  16.757  26.518   1.286
97953W        W61897  20.229   4.328  10.969
97954W        W61898   1.339  17.698  14.781
97955W        W61899   1.787   8.875   2.691
97956W        W61900  44.394  17.796  13.980
97957W        W61901  30.631  19.653  11.559
97958W        W61902  22.058  31.954  13.956
97959W        W61903  28.655  15.782   2.379
97960W        W61904  23.211   8.244   3.757
97961W        W61905  22.015  39.822   0.827
97962W        W61906  11.693  28.536  12.846
97963W        W61907   2.857   3.807   2.756
97964W        W61908  38.395  11.303   2.365
97965W        W61909  27.148  41.425  11.103
97966W        W61910  11.158  21.064   4.778
97967W        W61911  30.412   9.363   1.884
97968W        W61912  43.780  35.983   0.909
97969W        W61913  16.257   1.816  13.382
97970W        W61914  27.554  21.262  14.356
97971W        W61915  37.945  34.466   1.392
97972W        W61916  43.377  23.706  11.612
97973W        W61917  26.999  28.048   1.827
97974W        W61918  21.137  11.662   3.358
97975W        W61919  24.098  28.582   4.194
97976W        W61920  12.825  11.722   3.638
97977W        W61921  43.983  22.075   4.830
97978W        W61922  39.406  21.100  13.841
97979W        W61923   4.913   7.187   1.374
97980W        W61924   0.931  11.779   0.841
97981W        W61925  16.813  39.861  12.928
97982W        W61926  10.268  30.420  13.918
97983W        W61927   6.863  38.836   1.397
97984W        W61928  23.193  29.646   4.151
97985W        W61929   3.862   3.714  14.394
97986W        W61930  41.855  32.449   4.350
97987W        W61931  12.187  20.679  10.889
97988W        W61932   1.859  29.427  10.441
97989W        W61933  34.957   6.679   0.429
97990W        W61934  20.582  16.688  10.918
97991W        W61935   1.255  10.187   4.602
97992W        W61936  30.138  36.092  10.579
97993W        W61937  15.791  37.455  10.535
97994W        W61938  32.411  35.997   4.633
97995W        W61939  22.139  28.451  13.529
97996W        W61940  14.234  18.547   0.792
97997W        W61941  22.639  20.536  11.578
97998W        W61942  19.779  38.436   3.688
97999W        W61943  10.355   1.744  13.795
98000W        W61944  14.104   7.705   0.461
98001W        W61945  13.169   2.466   2.186
98002W        W61946  26.964  39.374  14.430
98003W        W61947  23.585  21.664   2.188
98004W        W61948  42.472  21.513  11.085
98005W        W61949  37.438  41.310   0.741
98006W        W61950  30.610  38.465  10.003
98007W        W61951  30.952  17.761  13.505
98008W        W61952  36.443  43.485   2.886
98009W        W61953  28.041  29.562  11.560
98010W        W61954   4.897  31.581  12.942
98011W        W61955  31.541   3.740  12.506
98012W        W61956   6.396  13.284  14.486
98013W        W61957  42.855  10.822  10.994
98014W        W61958  35.924  36.548  11.968
98015W        W61959   8.389   2.270   3.325
98016W        W61960   2.771   0.793   0.437
98017W        W61961  26.614  37.836  14.329
98018W        W61962  33.111  18.650   2.227
98019W        W61963  19.674  13.262  10.954
98020W        W61964   9.347  38.342   3.774
98021W        W61965  39.535  44.885  13.838
98022W        W61966  12.820  20.732   3.744
98023W        W61967  17.235  36.048  13.837
98024W        W61968  21.058  40.424  10.453
98025W        W61969  20.165  25.034  12.370
98026W        W61970  20.191  35.485  14.796
98027W        W61971  21.741  14.336   3.754
98028W        W61972  21.248   0.837  10.992
98029W        W61973  14.264  16.812   2.284
98030W        W61974  18.727  26.045  14.342
98031W        W61975  22.725  16.129   3.630
98032W        W61976   3.400  35.038  12.890
98033W        W61977  11.713  12.753   1.781
98034W        W61978  43.311  21.556   2.384
98035W        W61979  24.167  36.561  11.859
98036W        W61980  28.179  30.959  13.881
98037W        W61981  43.472  17.224  11.384
98038W        W61982   5.781  41.000   0.435
98039W        W61983  25.672  39.841  12.871
98040W        W61984   5.853   7.869   4.295
98041W        W61985  39.827   3.333  13.335
98042W        W61986  19.696  25.621  13.053
98043W        W61987  35.556  31.568  10.546
98044W        W61988  11.736   4.940   3.166
98045W        W61989  28.484  32.033  14.418
98046W        W61990   8.402  39.842  14.022
98047W        W61991  31.475  39.353  14.293
98048W        W61992  40.821  13.194  13.326
98049W        W61993  15.201  34.412  13.880
98050W        W61994  33.524  27.036   2.852
98051W        W61995  23.089  21.245  11.947
98052W        W61996  43.389  13.842   2.882
98053W        W61997  28.553   7.674  14.412
98054W        W61998  16.783   7.735   2.343
98055W        W61999  37.894  20.252  12.035
98056W        W62000  43.505  22.582  13.998
98057W        W62001  21.153  34.069  14.341
98058W        W62002  12.708  20.102   4.187
98059W        W62003  13.708  43.983  11.070
98060W        W62004   0.934  37.982   2.416
98061W        W62005  19.533  24.056  12.501
98062W        W62006   2.415  38.325  14.365
98063W        W62007  22.729   2.776   2.739
98064W        W62008   3.381  12.800  11.539
98065W        W62009  27.066   9.154  14.937
98066W        W62010   1.426   9.809   2.693
98067W        W62011  37.837   3.434   4.241
98068W        W62012  32.511   0.467  13.925
98069W        W62013  21.678   5.730  10.888
98070W        W62014   7.680  38.071   0.287
98071W        W62015  41.887  36.535  12.024
98072W        W62016  10.225  13.289   4.306
98073W        W62017  35.891  18.728   4.705
98074W        W62018  19.228  41.793   2.406
98075W        W62019  31.630  23.665   1.780
98076W        W62020  18.614   6.401   0.776
98077W        W62021  18.788  41.335  10.133
98078W        W62022  24.065  31.999  14.880
98079W        W62023  44.488  38.395  10.114
98080W        W62024  34.533   8.779  12.394
98081W        W62025   7.747  32.104   1.854
98082W        W62026   9.697  13.674   1.840
98083W        W62027  33.614  15.309   3.147
98084W        W62028   3.298  32.421   1.867
98085W        W62029  31.011   5.747   3.172
98086W        W62030   4.360  11.863  13.466
98087W        W62031  41.461  12.180  12.340
98088W        W62032  21.625  12.283   1.909
98089W        W62033   9.832  38.529  13.469
98090W        W62034  37.868   6.858  14.997
98091W        W62035  10.260  10.306   1.335
98092W        W62036   9.773  38.985  12.463
98093W        W62037  27.955  27.457  11.056
98094W        W62038  27.040   3.748   1.307
98095W        W62039  13.605  23.192   1.840
98096W        W62040  31.959  28.657  13.507
98097W        W62041  25.218  20.566   1.833
98098W        W62042  29.108  29.491  11.082
98099W        W62043  21.170  23.097  13.358
98100W        W62044   4.229  20.753   3.153
98101W        W62045   7.284   9.281   2.229
98102W        W62046  38.505  19.564   2.681
98103W        W62047  37.910   2.864  14.432
98104W        W62048  36.888  21.666  13.962
98105W        W62049  40.943  39.482  11.542
98106W        W62050   5.314  28.476  14.843
98107W        W62051   3.279  11.358  12.448
98108W        W62052  21.209  24.580   0.812
98109W        W62053  26.105  23.122  12.861
98110W        W62054  39.066  28.544  13.451
98111W        W62055  22.607  30.149  11.376
98112W        W62056  40.464  25.029   0.855
98113W        W62057  17.164   8.871  14.012
98114W        W62058  24.111  13.718   2.721
98115W        W62059  16.134  20.213   4.301
98116W        W62060  19.701  10.189   2.886
98117W        W62061   1.960  30.148  11.012
98118W        W62062  24.562  15.731  14.376
98119W        W62063  18.589  22.736  14.413
98120W        W62064  38.978  26.967  12.985
98121W        W62065  22.083  27.494   3.848
98122W        W62066  10.228  26.458  11.468
98123W        W62067  32.906  12.228  11.580
98124W        W62068  38.994  39.050  12.369
98125W        W62069   1.831  39.902   4.314
98126W        W62070  24.604  20.072   0.258
98127W        W62071  16.764  40.367  14.017
98128W        W62072   0.860  14.599   2.259
98129W        W62073  43.440  41.353   4.148
98130W        W62074  21.039  21.660   3.338
98131W        W62075  29.973  11.154   1.328
98132W        W62076   5.408  30.453   3.324
98133W        W62077  39.522   0.474   4.140
98134W        W62078  25.537  21.084   2.396
98135W        W62079   3.444  34.592  13.848
98136W        W62080  35.860  42.864  14.848
98137W        W62081  34.542  33.407   0.438
98138W        W62082   6.373   9.254  14.323
98139W        W62083   1.329  25.616   4.324
98140W        W62084  22.522  41.923   0.436
98141W        W62085  14.103   6.811  11.011
98142W        W62086  41.411   2.323  11.126
98143W        W62087  32.563  35.875  11.968
98144W        W62088  28.151  44.427  12.517
98145W        W62089  40.445  13.210   3.862
98146W        W62090   2.787  18.101   4.801
98147W        W62091   4.240  39.836   1.736
98148W        W62092  44.276  44.977  12.428
98149W        W62093  13.151   2.857   9.449
98150W        W62094   2.820  35.504  10.406
98151W        W62095  28.555  38.016   1.789
98152W        W62096  17.698  41.995  13.417
98153W        W62097  26.164  24.122  14.329
98154W        W62098  28.576  37.960  11.868
98155W        W62099  26.019  36.579  13.428
98156W        W62100  29.496  28.948  10.594
98157W        W62101   9.657   5.757   3.792
98158W        W62102  30.988   8.319   0.869
98159W        W62103   9.317  38.407   3.370
98160W        W62104  26.161  12.288  10.544
98161W        W62105   6.848  37.474   0.255
98162W        W62106  20.611  37.927  13.483
98163W        W62107  26.138   2.350   4.804
98164W        W62108  16.269  15.113   2.686
98165W        W62109  26.530  20.646   1.914
98166W        W62110  40.889   2.393  13.865
98167W        W62111  22.068   7.725  10.537
98168W        W62112   8.835  25.164   2.372
98169W        W62113  31.406  41.448   2.873
98170W        W62114   1.815  37.033   2.385
98171W        W62115  27.643  27.032   3.801
98172W        W62116  23.615  32.930   4.255
98173W        W62117  22.149  16.796  11.590
98174W        W62118   1.815  23.706  11.096
98175W        W62119  30.415  43.897  12.532
98176W        W62120  26.089  32.584  13.388
98177W        W62121  33.490  20.243  13.330
98178W        W62122  28.475  28.510  13.877
98179W        W62123  16.136  24.659   1.753
98180W        W62124  13.222  36.091  13.792
98181W        W62125   9.661  23.672   0.380
98182W        W62126  20.139  31.999  14.876
98183W        W62127  23.699  27.673  11.048
98184W        W62128  27.044  32.602  10.633
98185W        W62129  42.336  10.873   0.943
98186W        W62130  42.948  33.544  10.573
98187W        W62131   2.877   5.735  11.945
98188W        W62132  30.541  20.538   2.304
98189W        W62133  22.563  33.495   3.805
98190W        W62134  10.193   2.894   0.333
98191W        W62135  25.585   3.781  10.478
98192W        W62136   9.786  15.148   1.706
98193W        W62137  32.578  44.933   1.432
98194W        W62138  42.967  27.065   4.325
98195W        W62139   5.830  31.473   3.291
98196W        W62140  37.478  28.106  10.551
98197W        W62141  41.511  23.195  11.067
98198W        W62142  21.625   6.372   0.281
98199W        W62143  28.949  13.321  12.855
98200W        W62144  41.466  28.565   1.294
98201W        W62145  30.594  39.501   2.198
98202W        W62146   7.875  27.023  14.913
98203W        W62147  35.428  26.602  13.006
98204W        W62148  12.638  44.300   1.790
98205W        W62149  23.669  15.208  12.954
98206W        W62150  33.602  32.950   0.909
98207W        W62151  35.985  13.136   0.766
98208W        W62152  21.107  24.661  10.602
98209W        W62153   6.684  44.935   0.415
98210W        W62154  23.680  30.028  10.977
98211W        W62155  42.028  26.499   4.163
98212W        W62156   5.734  11.201  13.455
98213W        W62157  44.489  21.160  13.845
98214W        W62158  33.470   4.749  13.841
98215W        W62159  19.258  44.309  14.431
98216W        W62160  10.204  39.001  13.985
98217W        W62161  36.423  18.186  12.571
98218W        W62162  27.076   7.259  12.885
98219W        W62163  24.493  42.338   0.379
98220W        W62164  10.781  32.391  13.064
98221W        W62165  42.358  28.017  10.533
98222W        W62166   2.420  34.904  12.525
98223W        W62167  25.653   9.844   1.336
98224W        W62168  19.575   9.282   0.782
98225W        W62169  18.573  36.876  12.490
98226W        W62170  20.707  35.510   1.414
98227W        W62171  44.369  39.489  14.891
98228W        W62172  29.953  21.144  14.411
98229W        W62173  18.548  38.946   0.259
98230W        W62174  15.104  36.561   4.723
98231W        W62175   5.346   6.845  12.944
98232W        W62176  28.172  15.809  13.046
98233W        W62177  13.347  22.230   0.473
98234W        W62178   6.832   4.871   4.338
98235W        W62179  21.058  19.208   2.684
98236W        W62180   5.869   2.798   4.342
98237W        W62181  42.942  39.537  13.870
98238W        W62182   5.348  14.763   2.733
98239W        W62183  34.071  16.170  14.923
98240W        W62184  28.097  20.122  13.837
98241W        W62185  28.017  37.568  11.425
98242W        W62186  28.104  12.818   4.656
98243W        W62187  33.042   1.830  12.398
98244W        W62188  17.283  24.562   5.283
98245W        W62189  42.519  22.034   2.273
98246W        W62190  29.480  43.322  10.543
98247W        W62191  27.958  14.119   3.363
98248W        W62192   6.826  19.706  11.917
98249W        W62193   0.273  14.157   1.312
98250W        W62194  12.744  31.097   4.222
98251W        W62195  25.563   6.701   3.209
98252W        W62196  28.477  19.196  13.988
98253W        W62197   9.314  30.526   3.790
98254W        W62198  10.372  26.115  13.844
98255W        W62199   5.372  40.398  10.596
98256W        W62200  31.053  13.276   3.681
98257W        W62201  21.049  38.336   3.774
98258W        W62202  37.872  19.213   3.294
98259W        W62203   4.873  24.099   1.319
98260W        W62204  17.242  14.596  11.863
98261W        W62205  35.020  27.531   2.293
98262W        W62206  38.365  16.663   4.604
98263W        W62207  33.624  34.103   1.274
98264W        W62208   5.854  43.400   0.877
98265W        W62209  41.343  11.163  11.599
98266W        W62210  44.424   5.201   4.151
98267W        W62211   9.246  36.567  10.621
98268W        W62212  34.077  29.645   2.355
98269W        W62213  12.161   0.276   3.289
98270W        W62214  35.589   3.788   0.814
98271W        W62215   4.439  23.715   3.170
98272W        W62216  29.622  42.513   3.256
98273W        W62217  15.707   2.736  12.893
98274W        W62218  44.392   3.885   4.291
98275W        W62219   2.731  12.644  12.027
98276W        W62220   7.259  21.247   4.603
98277W        W62221  25.509  42.370  12.517
98278W        W62222   2.255  42.950   0.807
98279W        W62223  29.158   4.938  12.980
98280W        W62224   4.847   5.331   5.268
98281W        W62225  11.259  35.571  12.842
98282W        W62226   0.268  41.856   1.712
98283W        W62227  43.928  14.824   3.774
98284W        W62228  31.134  16.288  10.554
98285W        W62229   3.305  15.663  14.288
98286W        W62230  36.904  28.539   1.931
98287W        W62231  27.610  40.883   0.741
98288W        W62232  17.738  26.061   2.264
98289W        W62233  40.510  23.587  13.452
98290W        W62234  31.549  39.860   2.801
98291W        W62235  20.578  10.823  11.070
98292W        W62236   5.806  28.529   9.547
98293W        W62237  16.627  27.665  13.803
98294W        W62238  34.940  34.021  10.427
98295W        W62239  42.014   8.228   2.864
98296W        W62240  17.183  43.384   2.244
98297W        W62241  36.460  32.110  13.385
98298W        W62242  15.780  29.137  14.419
98299W        W62243  42.508  34.945   2.876
98300W        W62244  21.041  39.846   2.414
98301W        W62245  16.741   5.399  13.064
98302W        W62246  12.254  17.682   3.379
98303W        W62247   8.376  17.610   2.210
98304W        W62248  34.466  40.319   3.171
98305W        W62249  41.850  27.957   1.731
98306W        W62250  30.588  18.773  14.809
98307W        W62251   2.851   4.759  11.022
98308W        W62252  34.466  31.532  10.973
98309W        W62253   7.359  23.079   0.795
98310W        W62254   7.679  44.856  14.834
98311W        W62255   0.781  25.475  10.933
98312W        W62256  11.165  30.123  14.515
98313W        W62257   6.400  11.161  13.433
98314W        W62258  39.878  28.022   4.775
98315W        W62259  32.977  11.293  13.352
98316W        W62260  34.403  12.291  10.495
98317W        W62261  27.596  44.348  11.486
98318W        W62262   5.292  10.327   2.266
98319W        W62263   0.942   7.777   0.382
98320W        W62264  23.128   3.311  13.057
98321W        W62265  37.382   8.226   1.770
98322W        W62266   2.359  42.371  14.958
98323W        W62267  31.922  26.483   2.691
98324W        W62268  40.825  11.655   3.168
98325W        W62269   2.226  41.484   2.748
98326W        W62270  24.549   0.253   1.886
98327W        W62271  10.870  22.560   4.616
98328W        W62272   4.224  16.765  12.478
98329W        W62273   0.488  30.470   4.212
98330W        W62274  25.495   6.293  14.448
98331W        W62275  31.528  17.223   4.745
98332W        W62276  15.587  26.469  12.024
98333W        W62277  35.538   2.264   4.144
98334W        W62278  34.532  30.603   1.712
98335W        W62279  35.474  39.416  14.461
98336W        W62280  10.755   0.950   2.243
98337W        W62281  16.079   9.889  12.883
98338W        W62282   3.284  44.368  11.021
98339W        W62283   2.422   3.722  13.315
98340W        W62284  44.286   4.426   0.328
98341W        W62285  43.320  10.780   4.248
98342W        W62286  36.425  40.007  11.101
98343W        W62287  20.749  15.199  12.427
98344W        W62288  18.742   3.822   2.385
98345W        W62289  30.518  12.771  11.962
98346W        W62290   5.218  13.752  12.085
98347W        W62291  40.495   7.841   3.258
98348W        W62292  17.587  42.414  13.908
98349W        W62293   1.241  41.475   4.171
98350W        W62294  18.286  13.195   0.331
98351W        W62295  12.741   9.166  13.934
98352W        W62296  25.552  14.679  11.002
98353W        W62297  38.892  36.545   1.819
98354W        W62298  31.468  27.598  12.996
98355W        W62299   4.735  21.566  13.903
98356W        W62300  28.462  40.448  11.573
98357W        W62301  32.088   0.842   0.965
98358W        W62302  11.719  20.107  14.758
98359W        W62303   3.406  25.031  12.355
98360W        W62304  24.215  29.043  10.911
98361W        W62305  43.880  26.490  14.829
98362W        W62306  38.030  30.095  11.588
98363W        W62307  33.949  23.034   2.408
98364W        W62308  36.568  11.242  14.028
98365W        W62309  32.111  29.137  14.454
98366W        W62310   3.229  24.628  13.463
98367W        W62311  35.008  30.961  12.402
98368W        W62312  11.864  41.916   4.306
98369W        W62313  22.021  12.274  12.560
98370W        W62314  28.143  17.122  14.337
98371W        W62315  29.614   7.729   2.406
98372W        W62316   3.817  35.941  13.431
98373W        W62317  29.606  23.643   3.632
98374W        W62318  32.124  21.548   0.363
98375W        W62319   8.694   2.962   4.211
98376W        W62320   9.361   4.873   0.815
98377W        W62321  40.819  26.561  14.441
98378W        W62322   9.734   2.447  11.594
98379W        W62323  32.448  19.181  11.416
98380W        W62324   5.200  26.557  11.379
98381W        W62325  23.530  41.819   0.964
98382W        W62326  14.748  14.169  10.106
98383W        W62327  15.770   9.207   9.946
98384W        W62328  44.478  44.900   0.473
98385W        W62329  15.175  32.894   3.788
98386W        W62330  41.484  20.092  13.892
98387W        W62331  30.007  19.255  12.885
98388W        W62332   8.229   7.696  13.521
98389W        W62333  37.924  11.800  14.021
98390W        W62334  38.563  20.606  13.545
98391W        W62335  37.500  39.920  10.422
98392W        W62336   3.384  14.200   4.301
98393W        W62337  30.037  30.658   4.294
98394W        W62338  12.209  37.524  11.510
98395W        W62339  39.904  18.271   0.450
98396W        W62340  30.640   1.805  14.989
98397W        W62341  17.247  34.423   2.883
98398W        W62342  12.127  10.644   4.169
98399W        W62343  14.123   3.800   4.278
98400W        W62344   3.862   9.739   3.373
98401W        W62345  29.057  35.473   3.754
98402W        W62346  30.566  20.578   1.218
98403W        W62347   4.354  33.386  13.422
98404W        W62348  38.529  26.568   4.267
98405W        W62349  34.425  34.923  14.408
98406W        W62350  17.731  14.164   2.361
98407W        W62351  30.560   0.472  11.586
98408W        W62352  23.493  39.360  11.450
98409W        W62353  16.782  24.694  10.922
98410W        W62354  35.944  34.435  11.072
98411W        W62355   1.353   5.756  12.384
98412W        W62356  35.482  27.063  10.898
98413W        W62357   4.773  12.673   0.304
98414W        W62358  25.128  22.540  14.983
98415W        W62359  29.430   6.696  14.966
98416W        W62360  30.453  37.906  14.853
98417W        W62361  16.143  31.597   3.224
98418W        W62362   0.891  42.790   0.938
98419W        W62363   4.724   5.741  13.468
98420W        W62364  31.967  25.631  12.570
98421W        W62365  41.911  19.250  12.915
98422W        W62366  13.635  19.272  12.885
98423W        W62367   8.860  13.268   2.290
98424W        W62368   7.708  41.519   3.775
98425W        W62369  44.852  31.602   3.154
98426W        W62370  19.073  12.703   2.843
98427W        W62371  38.912  10.655   3.368
98428W        W62372  28.010   2.274   3.201
98429W        W62373  17.110   1.802   0.854
98430W        W62374  37.364  34.608  12.998
98431W        W62375  17.762  16.645   2.903
98432W        W62376   3.948  37.406   4.341
98433W        W62377  24.012   9.349   0.897
98434W        W62378  16.686  18.700  12.936
98435W        W62379  24.629   8.685   4.278
98436W        W62380  22.053   7.357   0.273
98437W        W62381   6.182  13.702   1.744
98438W        W62382  29.560  44.811   2.850
98439W        W62383  10.795  28.979  14.441
98440W        W62384  30.613  41.387   2.248
98441W        W62385  31.582  27.000   3.759
98442W        W62386  20.098  37.563   3.278
98443W        W62387   0.425  15.677   3.263
98444W        W62388   9.744  24.154   0.416
98445W        W62389  37.989   8.272  14.830
98446W        W62390  38.074  25.489   3.171
98447W        W62391  34.602  39.821  10.919
98448W        W62392  20.186  36.546   0.924
98449W        W62393  44.382  39.061   0.424
98450W        W62394  10.681   0.392   1.384
98451W        W62395  19.099  31.465  12.944
98452W        W62396  16.812   8.330  14.861
98453W        W62397  32.434  39.878   2.245
98454W        W62398   1.736  30.631   1.347
98455W        W62399  31.094   8.163   1.911
98456W        W62400  13.610  42.827   4.205
98457W        W62401  44.982  43.383   2.848
98458W        W62402  13.130  27.017  13.010
98459W        W62403  32.119  41.949  11.376
98460W        W62404  41.031  25.000  13.794
98461W        W62405   7.269   8.789  13.327
98462W        W62406  41.808  43.361   1.821
98463W        W62407  31.428   6.235   0.425
98464W        W62408  16.730  44.985   4.183
98465W        W62409  35.028  33.510  11.016
98466W        W62410  23.990  24.172  13.362
98467W        W62411   3.893   7.400   0.326
98468W        W62412  12.145  39.022  11.956
98469W        W62413   1.337  18.264   2.847
98470W        W62414  12.770  24.641   0.728
98471W        W62415   6.360  20.667   0.405
98472W        W62416  28.588  14.195  11.035
98473W        W62417  38.056  40.340  11.056
98474W        W62418  11.276  39.957   1.386
98475W        W62419  24.511   7.746  11.405
98476W        W62420  39.518  39.883   1.748
98477W        W62421  30.496  17.700   9.539
98478W        W62422  12.297  37.514  12.358
98479W        W62423  38.345  42.891  14.403
98480W        W62424  27.509   6.747   0.794
98481W        W62425  19.048  23.081  13.016
98482W        W62426  15.285  22.155   4.192
98483W        W62427   5.840  30.948   2.762
98484W        W62428  42.310  28.497  11.904
98485W        W62429  28.574  35.515  12.950
98486W        W62430  29.670  36.994   3.267
98487W        W62431  39.906  17.613   1.311
98488W        W62432   0.891  24.071   3.867
98489W        W62433   7.863  30.999   1.714
98490W        W62434  20.741  13.643   4.751
98491W        W62435  16.678  35.487   4.728
98492W        W62436  35.907  34.384  11.390
98493W        W62437  26.701  40.410  12.364
98494W        W62438   3.243  19.119  10.426
98495W        W62439  34.097  41.034   2.693
98496W        W62440  27.965  28.592  14.907
98497W        W62441   7.230  32.940   3.644
98498W        W62442   1.450  35.364  13.920
98499W        W62443  38.503  26.510  14.006
98500W        W62444  19.539   6.793  13.018
98501W        W62445  34.488  28.456   3.649
98502W        W62446  10.740   9.808   2.677
98503W        W62447   2.353   7.875   1.274
98504W        W62448  15.226  25.657   4.317
98505W        W62449  38.059   6.725   2.894
98506W        W62450  12.274  24.709  14.501
98507W        W62451  33.490   0.972   4.734
98508W        W62452  36.441  17.720   1.784
98509W        W62453  27.023  35.894  11.988
98510W        W62454  37.558  21.217   0.752
98511W        W62455  14.138  37.085   3.760
98512W        W62456   5.235  22.679  13.504
98513W        W62457  20.127  16.723  10.581
98514W        W62458  19.267  13.202  14.843
98515W        W62459  28.551   3.807   4.805
98516W        W62460   8.244  33.613   2.806
98517W        W62461  15.141  18.210   2.219
98518W        W62462  38.850  21.535   2.398
98519W        W62463  29.510  18.774  10.063
98520W        W62464  42.799  33.942  13.452
98521W        W62465  30.513  17.223   5.764
98522W        W62466  18.156  11.665  12.074
98523W        W62467  39.395   8.674  10.582
98524W        W62468  39.436  43.453   4.305
98525W        W62469   0.356   9.326  14.389
98526W        W62470  43.923  36.353   1.450
98527W        W62471  28.975  14.161  11.088
98528W        W62472  38.491  14.631  13.912
98529W        W62473  37.919   4.373   3.377
98530W        W62474   0.753  19.535   3.847
98531W        W62475  27.964   5.254  13.368
98532W        W62476  24.089  35.039   0.469
98533W        W62477  27.105  13.816   2.853
98534W        W62478   1.475  13.836  13.351
98535W        W62479  27.110   1.352  14.445
98536W        W62480   3.920  15.210   3.329
98537W        W62481  34.890  44.937  13.005
98538W        W62482  12.620  34.451  11.469
98539W        W62483  17.780  38.068  12.040
98540W        W62484  25.501  13.135  14.424
98541W        W62485  17.289  16.281   0.891
98542W        W62486  44.273  41.020  11.100
98543W        W62487  38.346  39.852   0.848
98544W        W62488   7.269  10.729   2.677
98545W        W62489  19.266  17.120   3.195
98546W        W62490  11.642   8.702  10.047
98547W        W62491   8.892   9.667   3.754
98548W        W62492  37.879  16.663  11.427
98549W        W62493  24.564   0.979  13.886
98550W        W62494  10.833  38.043   0.794
98551W        W62495  14.695   5.777   0.967
98552W        W62496  31.069  20.755   4.120
98553W        W62497   1.875  15.581  13.308
98554W        W62498  35.857  14.293  11.112
98555W        W62499   2.281  29.597   2.231
98556W        W62500  16.084  11.294   0.448
98557W        W62501   2.894  40.390   1.343
98558W        W62502  12.696  17.141   3.166
98559W        W62503   0.286  29.480  14.789
98560W        W62504  16.579  35.472  12.966
98561W        W62505   8.271  17.797   3.220
98562W        W62506  29.152  44.831  12.493
98563W        W62507   4.833  12.212  11.043
98564W        W62508  33.426  33.432   4.268
98565W        W62509  13.226  11.261  11.115
98566W        W62510  32.404   4.811  14.336
98567W        W62511  32.410  21.706   2.350
98568W        W62512  23.061  19.222   2.689
98569W        W62513  38.396  43.355  12.831
98570W        W62514   2.917   8.265   5.791
98571W        W62515  40.825   7.414   0.818
98572W        W62516  14.180  23.999   3.244
98573W        W62517   2.873  17.715  12.540
98574W        W62518   3.783   1.950   0.348
98575W        W62519   6.866   3.776   4.704
98576W        W62520  27.993  16.193  11.110
98577W        W62521  27.481  40.002   3.331
98578W        W62522  43.010  19.093  13.914
98579W        W62523   5.378   8.698   3.683
98580W        W62524  25.509   0.748  10.977
98581W        W62525  17.077  17.732  12.834
98582W        W62526  39.010  31.482  13.485
98583W        W62527  28.955  13.768   3.760
98584W        W62528   0.965  32.522   1.739
98585W        W62529  18.275  17.787  13.934
98586W        W62530  44.403  32.941   3.634
98587W        W62531  26.640  20.679   2.799
98588W        W62532  34.002  34.074  13.009
98589W        W62533  18.238  29.945   0.281
98590W        W62534  26.530  33.598   2.334
98591W        W62535  43.511  33.131  12.451
98592W        W62536  40.042  29.095   2.684
98593W        W62537  35.513  36.032  11.893
98594W        W62538  37.012  15.193  10.580
98595W        W62539  39.367  41.023   3.158
98596W        W62540  37.841  21.223  12.534
98597W        W62541  10.141  33.445  14.469
98598W        W62542   8.891  15.753   2.317
98599W        W62543   4.373  25.113  12.043
98600W        W62544  41.425  40.967   2.327
98601W        W62545  38.334  35.586  10.476
98602W        W62546  17.577  35.960   0.252
98603W        W62547  30.440  23.697  13.842
98604W        W62548  41.380  11.150   2.415
98605W        W62549  23.554  12.121   3.843
98606W        W62550  29.549  14.209  14.343
98607W        W62551  26.990  11.708  11.573
98608W        W62552  38.906  27.465   5.168
98609W        W62553   6.917  27.051  14.903
98610W        W62554  11.221  39.471  14.429
98611W        W62555  24.692   9.869  14.001
98612W        W62556  29.620  13.260  13.840
98613W        W62557  32.010  39.414  14.922
98614W        W62558  29.926  25.987   2.662
98615W        W62559  19.162   3.725   3.836
98616W        W62560  26.580  18.063  10.982
98617W        W62561   1.326   7.277   3.770
98618W        W62562  20.122   1.944  14.361
98619W        W62563  32.937   5.854   0.362
98620W        W62564  22.232  34.410   1.353
98621W        W62565  19.587  21.124   0.383
98622W        W62566  14.099   3.779   2.778
98623W        W62567  21.173  30.490   1.714
98624W        W62568   6.908   1.267   1.773
98625W        W62569   6.261  28.061   4.327
98626W        W62570  11.252   6.868   1.799
98627W        W62571  36.084  19.257  14.349
98628W        W62572  10.780  44.443  14.874
98629W        W62573  39.044  43.454  11.001
98630W        W62574  29.468   0.883  14.418
98631W        W62575   1.409  25.025   2.767
98632W        W62576  33.895   9.149  14.933
98633W        W62577  27.663  44.276  13.349
98634W        W62578  12.194  16.609  13.938
98635W        W62579   1.783  24.604   0.758
98636W        W62580  13.806  11.244   2.374
98637W        W62581  32.064  23.985   2.751
98638W        W62582   5.717  36.919  10.573
98639W        W62583  17.200  29.632  14.472
98640W        W62584  30.585  35.903   3.644
98641W        W62585  15.119  42.388   4.207
98642W        W62586  40.540  22.573  10.565
98643W        W62587  43.841   7.694  11.584
98644W        W62588   0.929   8.825  14.462
98645W        W62589  15.789  18.131   4.835
98646W        W62590  16.253  44.435   0.267
98647W        W62591  11.803  28.998   0.398
98648W        W62592  39.510  20.265  10.964
98649W        W62593  30.474  17.777   3.821
98650W        W62594  10.786   6.360   0.414
98651W        W62595  39.887  12.672  14.292
98652W        W62596  30.959  44.921  10.435
98653W        W62597  26.984  18.662   0.243
98654W        W62598  29.080   1.861   2.744
98655W        W62599  38.904  41.935   1.750
98656W        W62600   4.778  24.592   3.750
98657W        W62601  30.129  25.219  10.535
98658W        W62602  33.070  33.580  11.997
98659W        W62603  35.381  17.116  10.525
98660W        W62604  18.660  21.106  12.393
98661W        W62605  10.825  30.118  12.368
98662W        W62606  11.271  24.984  14.908
98663W        W62607  27.689  21.756  12.529
98664W        W62608  33.907  24.698  13.452
98665W        W62609  36.857  17.100   2.383
98666W        W62610  16.588   6.285   2.730
98667W        W62611  40.424  42.946  11.054
98668W        W62612   6.806  17.712   3.274
98669W        W62613  41.032  36.473  11.404
98670W        W62614  36.891  21.744   1.847
98671W        W62615   8.790  38.505   2.408
98672W        W62616  12.646  19.162  11.513
98673W        W62617  12.156   7.678  13.056
98674W        W62618  42.322  34.459   3.826
98675W        W62619  43.782  33.430  14.845
98676W        W62620   7.365  36.975  11.437
98677W        W62621   3.395  33.046  11.610
98678W        W62622   1.780  44.828   4.347
98679W        W62623   3.398  30.022  14.381
98680W        W62624  43.417  25.561   1.893
98681W        W62625  37.993  22.133   4.268
98682W        W62626  19.639   6.311  12.085
98683W        W62627  21.718   0.371   3.342
98684W        W62628  10.858  25.999   1.814
98685W        W62629  26.205  40.813   3.279
98686W        W62630  10.276   6.216  10.988
98687W        W62631  21.210  17.565   2.252
98688W        W62632  16.782  44.808  13.005
98689W        W62633  10.293  11.245  11.501
98690W        W62634  37.989   5.815   4.676
98691W        W62635  35.544  13.237   2.206
98692W        W62636  41.916  10.824   3.265
98693W        W62637   1.890  10.656   3.167
98694W        W62638  38.975  20.137  12.848
98695W        W62639  19.095   1.797   1.272
98696W        W62640  19.128   2.824  13.983
98697W        W62641  30.497  20.698  12.539
98698W        W62642  19.253  33.560   1.866
98699W        W62643  36.393  25.473  14.340
98700W        W62644  36.492  27.617  14.515
98701W        W62645  41.524   9.299  11.491
98702W        W62646  44.503  33.001   3.359
98703W        W62647   9.718  40.451   2.346
98704W        W62648   7.705  14.241  11.982
98705W        W62649  40.506  31.003   4.236
98706W        W62650   9.270  23.230   0.289
98707W        W62651   6.193   4.920   2.238
98708W        W62652  36.942  22.166   4.261
98709W        W62653  39.333  24.206   0.807
98710W        W62654  20.670  26.511   4.205
98711W        W62655   4.384  21.715   0.929
98712W        W62656  38.819  33.943   4.156
98713W        W62657  27.989  33.940  11.569
98714W        W62658  31.143  13.310  12.025
98715W        W62659  27.507  31.420  12.386
98716W        W62660  32.567   0.848  11.599
98717W        W62661  25.560   6.740  12.534
98718W        W62662  11.330  10.221  12.989
98719W        W62663   9.810  17.241  12.520
98720W        W62664  14.309  41.308  12.089
98721W        W62665  27.596  20.613  13.006
98722W        W62666   9.648  25.974  14.014
98723W        W62667  44.760  11.727   2.275
98724W        W62668  12.751  23.095   0.811
98725W        W62669  20.716  34.586  11.926
98726W        W62670   6.765  30.598   0.409
98727W        W62671  14.177  15.274   3.313
98728W        W62672   0.323   2.406   0.787
98729W        W62673  32.573  12.305  12.544
98730W        W62674  28.485  19.542  14.846
98731W        W62675   8.852  43.838   1.411
98732W        W62676   1.945   0.459  14.477
98733W        W62677  20.548  34.530   0.748
98734W        W62678  17.279  44.392   4.674
98735W        W62679  29.083  36.084   2.865
98736W        W62680  30.927   4.352   4.162
98737W        W62681   4.855  43.280   0.279
98738W        W62682   2.826  41.840  11.568
98739W        W62683   5.849  16.111  13.841
98740W        W62684   5.810   7.766  11.938
98741W        W62685  37.420   7.253  12.408
98742W        W62686   0.358  24.083   4.689
98743W        W62687  20.557  23.996   2.844
98744W        W62688  16.752   6.401  12.391
98745W        W62689   0.876   3.350   0.363
98746W        W62690   6.417  29.102  12.867
98747W        W62691  14.675  35.885  12.860
98748W        W62692   6.306  34.569   4.227
98749W        W62693   3.887  12.621   0.882
98750W        W62694  13.817  42.511  10.948
98751W        W62695  30.911   1.905   2.214
98752W        W62696  32.572  43.795  11.596
98753W        W62697  12.641  11.127   2.670
98754W        W62698  17.224   7.328  14.795
98755W        W62699   6.864  11.713   4.354
98756W        W62700   0.340  21.088   2.259
98757W        W62701  42.783  11.806  11.980
98758W        W62702   4.228  40.364   4.763
98759W        W62703  26.694  19.043   2.685
98760W        W62704  27.962   6.354  11.034
98761W        W62705  38.408  14.122   3.798
98762W        W62706  12.241  15.266   4.221
98763W        W62707  16.654  30.651   0.858
98764W        W62708  42.446  41.321   1.229
98765W        W62709  43.298  38.984  14.781
98766W        W62710  25.043   9.812   4.837
98767W        W62711   5.386   9.791  14.363
98768W        W62712  40.957  37.848  13.006
98769W        W62713  42.815  34.926   0.803
98770W        W62714  19.142  37.943   4.269
98771W        W62715  32.011  38.559   1.798
98772W        W62716  17.266  31.647   3.277
98773W        W62717  35.482  39.387  13.966
98774W        W62718   5.820  22.012   2.820
98775W        W62719  43.478  28.558   2.202
98776W        W62720  12.829  14.647   2.237
98777W        W62721   9.686   6.890   3.688
98778W        W62722  40.366  43.295   1.428
98779W        W62723  27.482   7.723  12.907
98780W        W62724   3.455  37.872  12.938
98781W        W62725  21.131  19.060  13.848
98782W        W62726  12.136   7.705  13.818
98783W        W62727  32.069  36.505  13.370
98784W        W62728  29.135   8.243   3.832
98785W        W62729   3.396  16.572  14.989
98786W        W62730   3.806  39.460  10.916
98787W        W62731  35.976  18.717   1.343
98788W        W62732  43.957  16.706  14.778
98789W        W62733  29.591  13.341  14.841
98790W        W62734   7.415  41.478   4.258
98791W        W62735  43.343   6.708   1.434
98792W        W62736  14.270  37.017   4.208
98793W        W62737  17.639  41.513  11.926
98794W        W62738  14.257  23.027  10.925
98795W        W62739  20.575  19.142  12.375
98796W        W62740   9.861  28.101   1.779
98797W        W62741  31.902  22.680   3.365
98798W        W62742  38.328   6.916   3.296
98799W        W62743  40.997  11.729   3.779
98800W        W62744  42.805  16.775  10.930
98801W        W62745  18.055   3.918   1.789
98802W        W62746  36.570  25.041   5.317
98803W        W62747  14.094  18.288   0.358
98804W        W62748  16.247   2.351   4.787
98805W        W62749  14.624  21.158   3.716
98806W        W62750   9.778  39.504   1.337
98807W        W62751  43.450   8.315   1.790
98808W        W62752   4.433  21.163   4.288
98809W        W62753  21.171  20.259   4.150
98810W        W62754   6.213  16.169   2.812
98811W        W62755   2.456  17.088   5.231
98812W        W62756   3.950  43.865  11.930
98813W        W62757  38.363  26.098  10.998
98814W        W62758  27.940  33.048  14.505
98815W        W62759   5.760  33.504  13.463
98816W        W62760  44.787   5.197  11.454
98817W        W62761  32.566   2.265   3.860
98818W        W62762  43.945  28.520   4.289
98819W        W62763  32.087  44.474  12.974
98820W        W62764   7.366  33.620  10.980
98821W        W62765   4.209  38.012  11.371
98822W        W62766  15.740  10.655   0.430
98823W        W62767  26.569  37.878  13.527
98824W        W62768   2.369  10.705  10.569
98825W        W62769  17.736  19.191  10.454
98826W        W62770  36.856  13.837   3.780
98827W        W62771  44.791  19.128  13.372
98828W        W62772   9.224  41.940  14.459
98829W        W62773   9.675  39.027  11.922
98830W        W62774  43.343  13.642  11.455
98831W        W62775   0.440  16.187   0.461
98832W        W62776   0.335  31.056   2.762
98833W        W62777   4.762  13.836   9.983
98834W        W62778  35.966  24.067   1.339
98835W        W62779  27.125  24.011  12.577
98836W        W62780   8.666  34.965  14.409
98837W        W62781  21.560  34.983  11.102
98838W        W62782  33.451  35.553  12.352
98839W        W62783  16.719  16.573  11.026
98840W        W62784  28.652  13.351  10.459
98841W        W62785  17.681  22.250  12.411
98842W        W62786  31.463   1.243  14.013
98843W        W62787  44.372  31.913   3.644
98844W        W62788   6.818  15.670   1.327
98845W        W62789  35.107  34.458   0.901
98846W        W62790  37.063  12.262  10.604
98847W        W62791  40.969  40.869  12.874
98848W        W62792  22.602  12.181   2.872
98849W        W62793   4.211   4.333   1.740
98850W        W62794  24.590  39.372   2.229
98851W        W62795  15.591   3.856   4.329
98852W        W62796   6.729   7.731   2.878
98853W        W62797  11.370  36.971   4.699
98854W        W62798   6.872  25.659  14.502
98855W        W62799  29.485  21.546   1.427
98856W        W62800  21.065   5.759   4.773
98857W        W62801  33.600  17.689   3.156
98858W        W62802  43.308  32.406   2.271
98859W        W62803  15.814  19.153   1.914
98860W        W62804  31.980  22.599   2.783
98861W        W62805  41.495  26.480  14.008
98862W        W62806  30.543   0.842   0.863
98863W        W62807  38.492   5.827   4.836
98864W        W62808  15.694  34.377   2.192
98865W        W62809  25.654  30.077   1.262
98866W        W62810   4.265  28.580  12.411
98867W        W62811  21.081  32.038  11.034
98868W        W62812   3.235  20.083   0.451
98869W        W62813  32.991  44.483   2.345
98870W        W62814  38.869  18.227   0.760
98871W        W62815  43.950  21.602  13.448
98872W        W62816  14.680  29.954   4.600
98873W        W62817  39.861  31.619   4.140
98874W        W62818  19.644  40.802   3.708
98875W        W62819   3.263  12.304   2.258
98876W        W62820  35.575  24.524   1.837
98877W        W62821  32.579   5.822   3.319
98878W        W62822  37.510  15.144   2.410
98879W        W62823  37.875  31.054   0.956
98880W        W62824  24.087  35.507  13.947
98881W        W62825   4.813  32.997  10.473
98882W        W62826  28.629  37.355  12.842
98883W        W62827  42.355   0.858  14.773
98884W        W62828  11.158   5.922  11.107
98885W        W62829  15.808   0.927  13.358
98886W        W62830  25.527  17.062  13.014
98887W        W62831   2.905  34.597   0.942
98888W        W62832   9.866  23.059  13.027
98889W        W62833  19.047  29.113   0.307
98890W        W62834  31.082  39.321  12.370
98891W        W62835   2.450  17.748  12.463
98892W        W62836  16.130  33.898   0.806
98893W        W62837  14.751  38.358  14.020
98894W        W62838  42.882  25.137  14.789
98895W        W62839  33.946  36.423   0.478
98896W        W62840   7.277   0.791  11.497
98897W        W62841   6.321   0.849   3.688
98898W        W62842  16.109   3.235  10.644
98899W        W62843   8.217  22.095   4.718
98900W        W62844  38.403  21.663  11.925
98901W        W62845   7.848  40.472   3.302
98902W        W62846  33.906  19.207  11.864
98903W        W62847  26.681  12.816  13.994
98904W        W62848  23.192   2.942   3.754
98905W        W62849  18.594   1.962   1.212
98906W        W62850   6.858  30.640   0.925
98907W        W62851  19.547  27.003  14.350
98908W        W62852  13.145  22.167   4.641
98909W        W62853  18.237  31.427  10.522
98910W        W62854  44.448   7.769  10.916
98911W        W62855   8.190   8.219  12.378
98912W        W62856  42.960  27.092   2.207
98913W        W62857  10.146   1.774   3.759
98914W        W62858  26.607  40.480  12.085
98915W        W62859  24.572   7.218  11.584
98916W        W62860  19.693  30.462   0.780
98917W        W62861   8.738  15.316   9.493
98918W        W62862   4.865  44.829   3.733
98919W        W62863   3.311   8.205  13.847
98920W        W62864  42.490  17.782  11.390
98921W        W62865  17.226  19.707   4.737
98922W        W62866  38.518  36.500   3.866
98923W        W62867  14.690  10.696  12.357
98924W        W62868  19.624  17.580   0.418
98925W        W62869  31.648  32.410   4.724
98926W        W62870  35.595  14.798  12.889
98927W        W62871  24.027   5.327   1.298
98928W        W62872  44.455   6.752  10.582
98929W        W62873  13.197  11.731  14.457
98930W        W62874  35.361  28.482   2.820
98931W        W62875  31.576  28.490  14.988
98932W        W62876   8.231  23.184   1.291
98933W        W62877  11.752   1.907   2.283
98934W        W62878  27.486  26.953   0.361
98935W        W62879   8.379  15.779   1.790
98936W        W62880   0.354   5.882   3.350
98937W        W62881  24.975  34.012  11.068
98938W        W62882  37.503  11.859   0.913
98939W        W62883  37.936  14.781   3.281
98940W        W62884  32.425  44.952  11.026
98941W        W62885  27.112  19.620   4.114
98942W        W62886  19.285  10.664   4.120
98943W        W62887  17.074  39.055  12.494
98944W        W62888  19.073  32.895  11.884
98945W        W62889  37.060  27.147   2.386
98946W        W62890   1.452  22.183  12.854
98947W        W62891   0.819  42.923  13.526
98948W        W62892  18.165  10.745   3.207
98949W        W62893  16.772  43.342  10.976
98950W        W62894   7.399  35.950   0.307
98951W        W62895  16.702  17.131  13.494
98952W        W62896  15.698  40.448   3.162
98953W        W62897  35.494  29.023   3.336
98954W        W62898  36.539  42.867  14.357
98955W        W62899  15.219  30.011   2.812
98956W        W62900  32.410  39.822  13.020
98957W        W62901   9.283  24.177  10.559
98958W        W62902  36.488  13.753  12.542
98959W        W62903  42.458  38.463   1.327
98960W        W62904  20.243  26.956  13.958
98961W        W62905  18.568  16.768   3.729
98962W        W62906  14.629  16.258  14.018
98963W        W62907  15.608  30.467   3.274
98964W        W62908  25.478  34.000   4.793
98965W        W62909   5.429  30.554   1.348
98966W        W62910  29.039   9.658  14.816
98967W        W62911  16.143   9.305  13.334
98968W        W62912   6.266   7.814   2.816
98969W        W62913  43.507  19.631   1.707
98970W        W62914  42.990  27.567  12.080
98971W        W62915  33.897  44.260   3.711
98972W        W62916  40.836  35.922  10.546
98973W        W62917   1.477  10.209  13.000
98974W        W62918  38.345  30.958  13.978
98975W        W62919  31.639  15.806   4.793
98976W        W62920   7.383  29.085  12.517
98977W        W62921  16.698  33.096   3.260
98978W        W62922   6.718  40.455  11.442
98979W        W62923  22.252  12.238   0.930
98980W        W62924  28.096  21.673  12.540
98981W        W62925   4.711  12.846  12.547
98982W        W62926  31.623  25.012   3.225
98983W        W62927   2.967  43.332   2.861
98984W        W62928  11.181  14.611  11.429
98985W        W62929  19.774  10.645  13.308
98986W        W62930  31.453  12.693   0.306
98987W        W62931  39.934   9.362   4.273
98988W        W62932  28.947  14.163  13.911
98989W        W62933  36.555  18.637   1.918
98990W        W62934  21.106  16.082   4.644
98991W        W62935  27.069  34.056   0.473
98992W        W62936  38.039  40.026   2.319
98993W        W62937   1.860  13.797   4.801
98994W        W62938  16.710  31.053  11.859
98995W        W62939  35.385  38.003   4.694
98996W        W62940  20.092  17.600  13.488
98997W        W62941  31.500  37.349  14.501
98998W        W62942  42.822  22.714  12.096
98999W        W62943   0.443  23.593   3.172
99000W        W62944  44.788  26.624   3.726
99001W        W62945  43.850   3.859   3.671
99002W        W62946  39.384  13.131   1.892
99003W        W62947  43.498   4.916  13.485
99004W        W62948   1.361  37.582  10.533
99005W        W62949  40.354  34.002   4.619
99006W        W62950  26.546  44.896   0.775
99007W        W62951   4.268   7.746   0.760
99008W        W62952  10.342  29.443   0.742
99009W        W62953  35.034  10.684   0.887
99010W        W62954  43.392  28.172  14.348
99011W        W62955  36.407  41.307   1.261
99012W        W62956  29.454  31.439   1.791
99013W        W62957  17.707  27.193   1.726
99014W        W62958  43.795  41.479   3.786
99015W        W62959  14.644  12.330   2.355
99016W        W62960  41.906  43.838  12.897
99017W        W62961  33.561  10.731  14.487
99018W        W62962  29.101  12.336   0.731
99019W        W62963  16.720  44.788   3.161
99020W        W62964  15.676  40.031  10.089
99021W        W62965  13.767  43.469   2.708
99022W        W62966   9.830  12.642  11.872
99023W        W62967  13.232   0.464  12.517
99024W        W62968   9.716  29.016  12.419
99025W        W62969  15.109  27.953  14.291
99026W        W62970  19.744  21.240  11.881
99027W        W62971  40.443  33.394  12.957
99028W        W62972  26.149  23.191   4.609
99029W        W62973   4.322  38.019  14.876
99030W        W62974   7.389  34.112   4.741
99031W        W62975  12.829  16.296  14.913
99032W        W62976   1.434  35.936   0.281
99033W        W62977  44.938  18.584   2.712
99034W        W62978  25.541  12.767  12.065
99035W        W62979  13.277  26.477   1.234
99036W        W62980  20.132   2.734  12.898
99037W        W62981  11.783  18.572   5.265
99038W        W62982  44.908  14.128   2.377
99039W        W62983  38.069  25.137  13.373
99040W        W62984  41.412  11.157   1.410
99041W        W62985  36.067   9.155  10.539
99042W        W62986  27.668  19.228   4.751
99043W        W62987  36.567   3.844  13.887
99044W        W62988  28.137  33.445  10.456
99045W        W62989  20.064   5.290   2.794
99046W        W62990  32.065  37.054   4.325
99047W        W62991  42.025  40.043  14.387
99048W        W62992   2.407  36.001   1.898
99049W        W62993  15.098  44.413   4.636
99050W        W62994  11.773  11.349   0.914
99051W        W62995   7.399  10.274  13.479
99052W        W62996  29.120  11.707   2.823
99053W        W62997  17.122  25.549  12.027
99054W        W62998  21.687  26.018   1.768
99055W        W62999  41.945  37.832   1.714
99056W        W63000  19.624  29.593   3.189
99057W        W63001   1.284   6.188   2.866
99058W        W63002  19.220  32.594  14.329
99059W        W63003  34.891  43.416  10.514
99060W        W63004  26.688  26.979   0.801
99061W        W63005  17.087   7.839  14.842
99062W        W63006   9.343  41.952   1.860
99063W        W63007  36.967   7.179   4.827
99064W        W63008  24.624   8.264   1.742
99065W        W63009  12.627  23.642  12.058
99066W        W63010   9.810  44.919   3.204
99067W        W63011  32.633  44.400   9.932
99068W        W63012  28.972  28.092   3.227
99069W        W63013   7.284  35.420   2.840
99070W        W63014  20.664  26.965  14.840
99071W        W63015  12.853  35.426  12.856
99072W        W63016  14.110  22.529   4.163
99073W        W63017   2.272  15.800   1.837
99074W        W63018  20.713  12.263  12.389
99075W        W63019  27.949   9.283  11.104
99076W        W63020   4.815  25.485   2.371
99077W        W63021  35.863   5.871   2.415
99078W        W63022  27.554  20.631   1.386
99079W        W63023  40.482  38.878   0.780
99080W        W63024  10.336  19.609   2.834
99081W        W63025  34.037   1.258  13.934
99082W        W63026  41.000   8.281  12.047
99083W        W63027   7.693  27.132  10.472
99084W        W63028  18.228  39.977  14.782
99085W        W63029  42.379   3.806  10.645
99086W        W63030  27.967   6.280   9.946
99087W        W63031  25.086  37.841  12.514
99088W        W63032  42.489  26.619   0.860
99089W        W63033  17.062  27.515   1.866
99090W        W63034   2.455  39.506  10.593
99091W        W63035  36.527  17.196   5.206
99092W        W63036   0.964  17.710   4.647
99093W        W63037   1.932  26.102  10.915
99094W        W63038  21.122  15.718   4.707
99095W        W63039  11.639   6.752   3.868
99096W        W63040  37.408   9.250  12.965
99097W        W63041  43.843  35.102   2.858
99098W        W63042  22.506  18.552   4.791
99099W        W63043  28.143  14.659   1.390
99100W        W63044   8.231  21.054  13.386
99101W        W63045  26.629  22.053   1.393
99102W        W63046   0.251  32.425   3.712
99103W        W63047  41.004  12.223  12.901
99104W        W63048  36.932   3.870  14.946
99105W        W63049  38.444   1.400   0.897
99106W        W63050  28.661  24.495  10.952
99107W        W63051  23.721  37.345   0.821
99108W        W63052   6.329  32.571  13.019
99109W        W63053  32.595   1.387  13.476
99110W        W63054   7.183  10.381   2.732
99111W        W63055  16.195  41.841  10.581
99112W        W63056   2.387   6.312  10.560
99113W        W63057  16.204  39.958   0.408
99114W        W63058  31.119   9.708  13.473
99115W        W63059   8.860   7.180   4.787
99116W        W63060   4.381   0.808   0.829
99117W        W63061  20.243  34.410  12.464
99118W        W63062  23.104   0.472   0.944
99119W        W63063  23.017  13.150  11.922
99120W        W63064   8.826   2.872  13.840
99121W        W63065  13.141  22.520   3.871
99122W        W63066  36.484  37.968  10.979
99123W        W63067  13.739  40.921   0.332
99124W        W63068   6.919  41.942  13.386
99125W        W63069   8.866  16.581   4.301
99126W        W63070  40.050  18.081   4.197
99127W        W63071  23.113  28.674   1.788
99128W        W63072  26.028  20.727   3.706
99129W        W63073  10.197  27.634  13.547
99130W        W63074  21.072  17.784  11.127
99131W        W63075  14.693   4.226   0.344
99132W        W63076   5.211   4.323   0.331
99133W        W63077  35.554  38.439   0.389
99134W        W63078  31.122  13.636  14.339
99135W        W63079   8.871  44.483  14.347
99136W        W63080  32.027  37.357   1.335
99137W        W63081  10.798  44.268  10.492
99138W        W63082  35.946  27.961   5.137
99139W        W63083  24.662  10.176   2.413
99140W        W63084  16.188  18.267   1.219
99141W        W63085  27.558   5.371  11.466
99142W        W63086  40.504   2.342   1.242
99143W        W63087  34.562   5.835   4.279
99144W        W63088  35.005  20.592   0.366
99145W        W63089  18.123  23.026   2.899
99146W        W63090  15.709  26.031  14.939
99147W        W63091  36.006   8.307   3.748
99148W        W63092  21.059   2.925  14.839
99149W        W63093  11.312   5.334   4.611
99150W        W63094  43.767   3.330   2.235
99151W        W63095  24.703  28.964   0.752
99152W        W63096  43.834  37.934   1.213
99153W        W63097  27.109  32.922   0.350
99154W        W63098  11.723  40.328  14.311
99155W        W63099  12.223  10.738   3.838
99156W        W63100  18.558  12.764   3.752
99157W        W63101  17.632  29.138  13.792
99158W        W63102  44.832   3.306   0.339
99159W        W63103  16.799   9.734   1.740
99160W        W63104  41.416  41.886   0.858
99161W        W63105   1.357  37.414  13.018
99162W        W63106   1.390  37.519  13.499
99163W        W63107  17.671  13.767  10.562
99164W        W63108   7.805  37.994  13.375
99165W        W63109  22.046   7.665   2.757
99166W        W63110  25.204  26.544   1.435
99167W        W63111  29.621   0.411   0.755
99168W        W63112  28.141  14.192  12.344
99169W        W63113  11.652  23.038  11.066
99170W        W63114  11.333  35.975   4.192
99171W        W63115  29.444  22.739  10.911
99172W        W63116  29.633  18.148   5.144
99173W        W63117  21.174  12.250  11.584
99174W        W63118  18.085   3.249   3.165
99175W        W63119   3.235  34.508   1.857
99176W        W63120  30.126  31.937  15.000
99177W        W63121   6.851  11.333  14.481
99178W        W63122  15.577   1.314  14.320
99179W        W63123   4.843  31.570  11.927
99180W        W63124   0.290   4.937   0.937
99181W        W63125  24.568  13.792   1.289
99182W        W63126  21.249  16.281  12.988
99183W        W63127  37.050   4.252   3.345
99184W        W63128   2.937   2.819   1.760
99185W        W63129  43.785  13.655  11.930
99186W        W63130  39.487  22.724  11.918
99187W        W63131  15.330  20.190   4.658
99188W        W63132  20.657  40.884   4.694
99189W        W63133  34.977  16.293  11.978
99190W        W63134  34.373   1.883   2.362
99191W        W63135  22.183  24.185  11.072
99192W        W63136   7.794   0.880  14.918
99193W        W63137  34.407  34.572  14.802
99194W        W63138  13.138  21.101  13.006
99195W        W63139  10.161  27.081   2.231
99196W        W63140   8.324  23.119  11.918
99197W        W63141  17.096  29.664  10.041
99198W        W63142  13.184  29.522  10.910
99199W        W63143  28.112   7.750  14.508
99200W        W63144  37.854  33.567  10.000
99201W        W63145  15.315  21.684   3.262
99202W        W63146  30.925  18.266  11.880
99203W        W63147  22.697  22.242   1.434
99204W        W63148  11.855  27.591  11.579
99205W        W63149  34.116   2.396   4.161
99206W        W63150  14.820  17.191   4.296
99207W        W63151  24.063  41.997  13.406
99208W        W63152  30.111   1.887  11.900
99209W        W63153  13.761  17.691  13.818
99210W        W63154  25.674  41.801   5.639
99211W        W63155  42.492  35.051  12.481
99212W        W63156  38.389  26.534  12.490
99213W        W63157  36.887  30.982  14.377
99214W        W63158  12.147  20.617   1.305
99215W        W63159  18.191  14.266   0.837
99216W        W63160  16.730   9.837  13.910
99217W        W63161  13.109  25.106  11.041
99218W        W63162   1.256  25.966   0.371
99219W        W63163   4.245  17.709  10.504
99220W        W63164   0.943   7.780   5.300
99221W        W63165  32.395  41.824   2.379
99222W        W63166   6.183  18.202  14.914
99223W        W63167   2.795  38.496  13.818
99224W        W63168  42.015   6.920  11.129
99225W        W63169   3.232   5.346   5.165
99226W        W63170  25.213  21.205  11.857
99227W        W63171   2.871  27.474  12.042
99228W        W63172  13.268  34.405  13.057
99229W        W63173  23.076  40.000   1.244
99230W        W63174  10.296  13.233  12.345
99231W        W63175  13.658  34.603   4.719
99232W        W63176  33.401  33.978  10.132
99233W        W63177  44.273  28.945  11.531
99234W        W63178   9.205  37.042  14.321
99235W        W63179   3.728  21.587  11.481
99236W        W63180  35.961   1.336  14.974
99237W        W63181   7.802   4.760  11.064
99238W        W63182  43.315  27.668  11.588
99239W        W63183  36.034  16.091   1.723
99240W        W63184  36.946  44.922   4.241
99241W        W63185   2.812  28.567   4.302
99242W        W63186  15.597   6.390  10.523
99243W        W63187   9.237  39.459  12.010
99244W        W63188  13.323  16.248   2.732
99245W        W63189   8.308  37.336   3.269
99246W        W63190  29.528   9.700  14.822
99247W        W63191  30.025  41.950  11.891
99248W        W63192  25.631  14.197   0.340
99249W        W63193  41.843  16.806  11.540
99250W        W63194  20.116  24.577  13.392
99251W        W63195  23.024  23.545   1.857
99252W        W63196  39.892  44.771  10.413
99253W        W63197  33.597   3.278  11.505
99254W        W63198   9.703  21.214   3.798
99255W        W63199  23.648  26.987   4.680
99256W        W63200  36.384  30.004   0.940
99257W        W63201   2.416  22.702  14.884
99258W        W63202  12.754  38.855   5.284
99259W        W63203  12.759  39.391   1.731
99260W        W63204   2.758  13.716  14.932
99261W        W63205  12.116  23.713  14.834
99262W        W63206  34.100  34.007   1.317
99263W        W63207   8.755  20.163  13.973
99264W        W63208  31.124  16.074  12.929
99265W        W63209  18.144  13.707   3.838
99266W        W63210  17.798  30.607   1.324
99267W        W63211  17.255   4.767  11.994
99268W        W63212  22.598  25.196   4.174
99269W        W63213  36.041  36.590  12.935
99270W        W63214  26.964  39.443   2.892
99271W        W63215   9.763  18.650   4.825
99272W        W63216  26.084  25.031   0.774
99273W        W63217   7.192   9.241  12.352
99274W        W63218  16.612  36.440   3.284
99275W        W63219  34.467   5.283  14.868
99276W        W63220  18.151   5.318  11.986
99277W        W63221  33.455  11.765   4.733
99278W        W63222  33.404  32.590   4.720
99279W        W63223  32.065  28.435   1.806
99280W        W63224  20.640  28.159  14.507
99281W        W63225  25.571  11.172  12.888
99282W        W63226   4.802   7.790   1.771
99283W        W63227  21.730   3.386   1.914
99284W        W63228  30.922  19.193  14.413
99285W        W63229  23.187  23.634   4.765
99286W        W63230  39.385   0.762  12.452
99287W        W63231  24.622  35.886   4.353
99288W        W63232   4.448  33.096   0.918
99289W        W63233  13.835  11.188  12.871
99290W        W63234  25.978  28.493  12.038
99291W        W63235  10.281  25.470  14.796
99292W        W63236  12.321  20.140  14.330
99293W        W63237  27.101  25.516   3.708
99294W        W63238  44.313  35.591   5.143
99295W        W63239  31.513  16.679  13.808
99296W        W63240   4.920  13.235   1.711
99297W        W63241  42.861  34.098  12.907
99298W        W63242   5.246  15.754   0.475
99299W        W63243   5.327  37.349   3.635
99300W        W63244  43.277  23.179  13.496
99301W        W63245  17.249  35.080   1.246
99302W        W63246  14.118  10.680   0.952
99303W        W63247  23.699  32.545   3.713
99304W        W63248   1.847   7.816  13.030
99305W        W63249  38.511  17.122   0.339
99306W        W63250   8.664   8.759   5.087
99307W        W63251   0.343   9.205   0.432
99308W        W63252  21.219  41.884  12.979
99309W        W63253  11.818   4.758  14.948
99310W        W63254  12.314   8.260  10.974
99311W        W63255  35.092  32.995   1.894
99312W        W63256   3.426  20.083  14.378
99313W        W63257  35.439   6.421  11.603
99314W        W63258  40.802  11.833  12.556
99315W        W63259  12.202   3.803  12.954
99316W        W63260  24.004  24.031  11.043
99317W        W63261   4.794  39.876  11.983
99318W        W63262  22.017  32.419   2.667
99319W        W63263  26.639  41.027   0.819
99320W        W63264  40.901  11.756   1.411
99321W        W63265   4.821  39.923  13.832
99322W        W63266  39.425   8.787   2.875
99323W        W63267   9.324  13.263  11.017
99324W        W63268  42.021  13.630  14.406
99325W        W63269  15.295   3.271  10.490
99326W        W63270  35.486  30.649  11.537
99327W        W63271  13.651  20.154   1.397
99328W        W63272   8.830  41.857  11.470
99329W        W63273   7.885  39.995   4.683
99330W        W63274  22.569  23.609  13.980
99331W        W63275  43.320  16.202   1.878
99332W        W63276  18.790  10.835  14.979
99333W        W63277  38.355  35.928   4.769
99334W        W63278  39.314  16.754   1.242
99335W        W63279  18.125  24.997  13.902
99336W        W63280  31.082  41.518  12.088
99337W        W63281   2.859  25.038  13.441
99338W        W63282   2.369  11.183  14.921
99339W        W63283  14.126  36.070   4.783
99340W        W63284  40.338  17.629   1.231
99341W        W63285  29.460  42.421   0.739
99342W        W63286  35.100  14.317  14.299
99343W        W63287  21.140  28.576  12.964
99344W        W63288  24.572  19.644  10.919
99345W        W63289  18.107  44.978  10.568
99346W        W63290  35.518   7.821   0.339
99347W        W63291  19.637  25.219   1.298
99348W        W63292  19.205  17.132  10.411
99349W        W63293  31.916  17.197  12.859
99350W        W63294  44.263  32.886  12.368
99351W        W63295  29.039   2.252  10.408
99352W        W63296  15.823   5.922   4.242
99353W        W63297   3.930  24.699  11.425
99354W        W63298  23.497  10.246  12.029
99355W        W63299  31.932  41.016   0.477
99356W        W63300  35.976   0.478  12.064
99357W        W63301  21.120  12.254  13.822
99358W        W63302  29.176  11.368  11.942
99359W        W63303   5.348   1.781   3.798
99360W        W63304   5.873  42.388  13.059
99361W        W63305   2.381  39.912  11.521
99362W        W63306   1.921  13.139   4.323
99363W        W63307   2.230  30.012   4.797
99364W        W63308  18.752  13.227   2.312
99365W        W63309  29.471  40.879  13.497
99366W        W63310  29.613  22.205   1.771
99367W        W63311  40.840  24.088   2.314
99368W        W63312  38.945   0.337  14.285
99369W        W63313   3.384   8.161   5.206
99370W        W63314   5.276  25.663   2.257
99371W        W63315   2.306   8.819  14.020
99372W        W63316  14.668  31.114   4.766
99373W        W63317  37.495  11.281   3.278
99374W        W63318  20.704  19.223   3.764
99375W        W63319  11.866  40.969   0.827
99376W        W63320   5.260  24.719  13.436
99377W        W63321   4.448  30.965   1.266
99378W        W63322   2.297  14.165   2.765
99379W        W63323  35.485  11.725   4.246
99380W        W63324   1.792  38.355   3.720
99381W        W63325  27.478  26.582   2.669
99382W        W63326  30.567   0.770  14.846
99383W        W63327  32.046  34.921  10.527
99384W        W63328  36.900  23.240   1.739
99385W        W63329  29.601  37.909   3.280
99386W        W63330  16.221  21.646   1.851
99387W        W63331  29.056  43.496   0.912
99388W        W63332   6.898  10.804  11.493
99389W        W63333  35.396  12.149   1.702
99390W        W63334  31.053  11.168  11.485
99391W        W63335  37.030  36.918  11.545
99392W        W63336  16.135  39.892   1.270
99393W        W63337  17.596  25.485  10.529
99394W        W63338   4.779   4.752   0.482
99395W        W63339  18.569   0.494   4.629
99396W        W63340  14.139  11.255  14.786
99397W        W63341  16.083  10.245  12.353
99398W        W63342   6.682  32.029  10.513
99399W        W63343  24.147  25.508  12.866
99400W        W63344  40.829  16.303  11.581
99401W        W63345  32.506  29.982  14.883
99402W        W63346  10.336  21.051   0.782
99403W        W63347   5.228  36.088  13.392
99404W        W63348  27.646   2.902   2.687
99405W        W63349  27.022   1.740   0.451
99406W        W63350  36.847   7.827  11.116
99407W        W63351  30.468  33.005   3.247
99408W        W63352  37.011  14.156   1.711
99409W        W63353  41.466  42.840  14.873
99410W        W63354   5.305  41.365   2.270
99411W        W63355  37.392  36.488   2.179
99412W        W63356  33.503  38.885  14.926
99413W        W63357  20.709   9.835  11.035
99414W        W63358  18.643  39.981  11.520
99415W        W63359   1.880  35.366   3.654
99416W        W63360  26.476   3.849   1.423
99417W        W63361  10.834   4.851  10.505
99418W        W63362   1.381   1.246  11.462
99419W        W63363  19.158  38.506  13.509
99420W        W63364  42.008   0.795   0.745
99421W        W63365  13.345  36.903   2.716
99422W        W63366  23.088  18.688   3.842
99423W        W63367  19.179  38.408   2.663
99424W        W63368  23.199  44.841   4.672
99425W        W63369  27.989  20.086   1.694
99426W        W63370  19.148  33.421  10.945
99427W        W63371  25.592  20.655  13.329
99428W        W63372  33.935  17.698  13.358
99429W        W63373   2.858   3.437   1.416
99430W        W63374   6.794   8.186   3.638
99431W        W63375  34.537  38.546  11.019
99432W        W63376  25.058   4.396   2.666
99433W        W63377  36.986  16.720  11.018
99434W        W63378  19.592  24.664   1.283
99435W        W63379  28.620  13.621   4.691
99436W        W63380   2.399  31.111  11.538
99437W        W63381  32.496  30.573  13.472
99438W        W63382  22.623  40.457   3.824
99439W        W63383   7.905  12.760   3.282
99440W        W63384  14.333  26.087  12.017
99441W        W63385  38.446  32.021  10.451
99442W        W63386  44.933  37.365  14.022
99443W        W63387  21.520  33.546  13.861
99444W        W63388  42.302  18.718   0.387
99445W        W63389   1.240   0.810   1.894
99446W        W63390   0.466   7.409   4.166
99447W        W63391  38.014  21.020   4.264
99448W        W63392  31.904   2.923   3.635
99449W        W63393  15.139   9.885   4.345
99450W        W63394  41.021   6.756   5.730
99451W        W63395  31.569  16.740   0.404
99452W        W63396   7.402  25.020   0.767
99453W        W63397  33.468   1.469   3.856
99454W        W63398  12.202  40.330   2.332
99455W        W63399  36.049  21.705   4.663
99456W        W63400  20.524  34.494  11.423
99457W        W63401  22.688  22.247   2.352
99458W        W63402  24.487  23.240   2.782
99459W        W63403  41.000   2.867  13.042
99460W        W63404  27.063  43.817   2.684
99461W        W63405  34.529  32.957  13.909
99462W        W63406  36.479  35.044   2.224
99463W        W63407  21.126   0.261   4.679
99464W        W63408  32.964   9.335  12.921
99465W        W63409   2.877  21.672  11.906
99466W        W63410  20.093  21.595   3.199
99467W        W63411  25.123  27.156  10.618
99468W        W63412  41.532   9.717  14.915
99469W        W63413  13.157  16.280  10.901
99470W        W63414  12.833  36.054  14.819
99471W        W63415  21.515  39.500  11.470
99472W        W63416  35.517  34.468  13.472
99473W        W63417  25.988  27.100  14.942
99474W        W63418  22.233  18.749   4.718
99475W        W63419  19.755   1.312  14.844
99476W        W63420  36.090  41.945   4.233
99477W        W63421  34.016  24.001  13.446
99478W        W63422  44.449  26.478  13.520
99479W        W63423   7.709  12.729  13.394
99480W        W63424  17.127   5.872  14.000
99481W        W63425   8.734  31.426  10.009
99482W        W63426  24.510  40.536  13.026
99483W        W63427  31.983  14.698  10.461
99484W        W63428  34.524   7.369   0.750
99485W        W63429  37.375  27.677  14.379
99486W        W63430   1.445  25.503  14.792
99487W        W63431  29.952   0.831  11.937
99488W        W63432  22.245  18.221   1.256
99489W        W63433  19.047  10.175   2.298
99490W        W63434  15.604  11.824  13.418
99491W        W63435  15.621  27.009  13.997
99492W        W63436  20.089  43.445  11.514
99493W        W63437  44.779  33.117   2.719
99494W        W63438  31.898  10.264  10.527
99495W        W63439  42.886  43.396   1.286
99496W        W63440   0.881  36.346  12.969
99497W        W63441  44.468   5.716   9.996
99498W        W63442  22.554  36.520  14.306
99499W        W63443  11.361  23.995  10.569
99500W        W63444  20.104   7.885  14.768
99501W        W63445  17.106   4.727  13.853
99502W        W63446  42.314  14.207   1.876
99503W        W63447  42.782  37.977  12.903
99504W        W63448   8.744  10.345  14.948
99505W        W63449  29.981  15.199   1.870
99506W        W63450  38.486  33.615   2.359
99507W        W63451  17.122   6.920  11.961
99508W        W63452  17.727  30.916  11.403
99509W        W63453  27.179  37.913   1.440
99510W        W63454  34.035  31.956  12.047
99511W        W63455   6.796  10.772   4.659
99512W        W63456  23.214   0.341   2.735
99513W        W63457   9.158  19.602   0.916
99514W        W63458  35.562   6.239   3.766
99515W        W63459  13.272  33.891   4.226
99516W        W63460  19.072  35.449  11.962
99517W        W63461  42.505  19.596   0.837
99518W        W63462   0.927  17.066  14.469
99519W        W63463  14.795  30.090  10.987
99520W        W63464  31.487  42.363   3.297
99521W        W63465  14.611   9.719  12.481
99522W        W63466  18.764  20.229   1.451
99523W        W63467  10.656  30.014   9.998
99524W        W63468  41.486  42.417   3.649
99525W        W63469   2.334  36.978  14.943
99526W        W63470   5.763  13.345   0.755
99527W        W63471   5.407  35.975  14.994
99528W        W63472  30.130  26.039   2.331
99529W        W63473  34.048  14.110   1.301
99530W        W63474   8.405   4.928   2.719
99531W        W63475  32.054  40.814  11.445
99532W        W63476  44.838   3.415  10.567
99533W        W63477  13.122   0.945  14.938
99534W        W63478  11.146  30.489   5.145
99535W        W63479  40.394  16.073   0.346
99536W        W63480  10.716  38.075   4.612
99537W        W63481  28.574  26.684  12.028
99538W        W63482  14.637   5.704   2.763
99539W        W63483  33.893  14.688  14.477
99540W        W63484  39.884  33.124  10.549
99541W        W63485  29.091  28.648   3.738
99542W        W63486   2.428  27.526  12.511
99543W        W63487  14.147   7.751  13.021
99544W        W63488   2.838  23.527  11.010
99545W        W63489  37.344  22.596   0.921
99546W        W63490   5.280  44.788  14.023
99547W        W63491   9.722  36.358   3.327
99548W        W63492  19.592  41.457  14.514
99549W        W63493  14.189  15.207  14.281
99550W        W63494   4.830  43.319  13.425
99551W        W63495  31.137  39.022   3.278
99552W        W63496  15.321   2.421   0.912
99553W        W63497  15.111  38.354   1.253
99554W        W63498  34.611  24.166   3.713
99555W        W63499  15.596  20.094  11.413
99556W        W63500  31.106  11.849   3.843
99557W        W63501  13.792   4.746  12.941
99558W        W63502  26.604  19.537   0.426
99559W        W63503  19.039  19.093   1.897
99560W        W63504  18.710  37.045  11.509
99561W        W63505  37.915   1.909   1.298
99562W        W63506  39.494  16.783   3.189
99563W        W63507  20.671  10.368   4.788
99564W        W63508  33.973   5.749  10.949
99565W        W63509  38.926  11.341  12.959
99566W        W63510  35.455  26.557  14.340
99567W        W63511  10.324  16.794   1.315
99568W        W63512  16.126  42.007  13.960
99569W        W63513  24.583  26.154   4.620
99570W        W63514  12.119  15.761   1.841
99571W        W63515   1.906  32.581  12.963
99572W        W63516  43.908  16.586   0.949
99573W        W63517  15.202  12.287   1.275
99574W        W63518  29.159  33.903  12.494
99575W        W63519  25.667  41.851  14.763
99576W        W63520  25.618  18.210  12.349
99577W        W63521  20.676  24.197   4.131
99578W        W63522  14.199  24.109  12.527
99579W        W63523  40.457  15.217   3.371
99580W        W63524   1.272   6.773  11.533
99581W        W63525  29.583   2.391   3.177
99582W        W63526  25.001   3.912  12.574
99583W        W63527   6.918   0.840   4.164
99584W        W63528  34.406  42.940  13.803
99585W        W63529  41.006   1.372  11.866
99586W        W63530   7.888  29.170  14.960
99587W        W63531  25.536  28.089   3.795
99588W        W63532  24.582  32.486  13.887
99589W        W63533  10.668   2.293  10.448
99590W        W63534  37.847  35.604  14.382
99591W        W63535  28.648  29.587  13.486
99592W        W63536  27.617  41.946  10.942
99593W        W63537  31.013  20.047  14.766
99594W        W63538   9.221  10.271   1.761
99595W        W63539  30.627   1.825   4.311
99596W        W63540  29.046  29.069  13.502
99597W        W63541  29.551  10.783   4.722
99598W        W63542  12.726  13.794  14.994
99599W        W63543  23.642  15.113   1.224
99600W        W63544  19.191  22.159  11.916
99601W        W63545   4.225  17.654   3.705
99602W        W63546   4.830   5.709   1.826
99603W        W63547  29.614  26.551   1.308
99604W        W63548  25.559  32.584  13.802
99605W        W63549  33.444  20.196   0.326
99606W        W63550  32.499  18.275   4.829
99607W        W63551  21.088   8.186   4.789
99608W        W63552  23.023  26.157  14.475
99609W        W63553  14.752  10.862   4.640
99610W        W63554  23.706  23.217   2.200
99611W        W63555   4.437   1.802  11.466
99612W        W63556   6.701  17.120  11.419
99613W        W63557  30.141   7.678   0.904
99614W        W63558   5.706   8.231  14.777
99615W        W63559  11.318   3.844  14.466
99616W        W63560  12.252  10.692  13.922
99617W        W63561  35.080  17.677   0.761
99618W        W63562   7.728  39.551  13.054
99619W        W63563  27.552  20.619  13.994
99620W        W63564   7.886  34.961  14.016
99621W        W63565   0.943  32.585  10.988
99622W        W63566  10.227  34.382  10.135
99623W        W63567   9.346   4.944   4.752
99624W        W63568  38.563   7.290  12.544
99625W        W63569   1.365   5.256   4.346
99626W        W63570   9.713   2.247   3.183
99627W        W63571  40.334   9.286   3.362
99628W        W63572  25.704  22.081   2.662
99629W        W63573  16.586   4.365  10.984
99630W        W63574   7.238  40.476  14.861
99631W        W63575  15.202  38.893  13.320
99632W        W63576   2.958  43.389   0.872
99633W        W63577  12.178   0.450   2.820
99634W        W63578  24.559   7.296  14.025
99635W        W63579  23.041  40.850   2.332
99636W        W63580  14.633  44.344  13.535
99637W        W63581  33.507  35.547  11.125
99638W        W63582  35.036  20.152  12.359
99639W        W63583   8.404  11.214   4.728
99640W        W63584  11.626   8.357  12.839
99641W        W63585   4.760  36.511  12.450
99642W        W63586  10.716  28.469   2.387
99643W        W63587  36.524   3.799   1.243
99644W        W63588  28.493   0.944  14.871
99645W        W63589  34.528  43.500   1.435
99646W        W63590  34.537  10.253  12.907
99647W        W63591  24.175  38.452   1.783
99648W        W63592  43.448  30.932  11.875
99649W        W63593  26.028   2.904  14.995
99650W        W63594  25.175  19.667   0.880
99651W        W63595  18.115   0.765  13.054
99652W        W63596  13.126  32.565   2.717
99653W        W63597  24.162  38.344  13.988
99654W        W63598  26.090  32.113   2.876
99655W        W63599  11.265  18.548  11.871
99656W        W63600  24.999  33.942  10.453
99657W        W63601  18.167  40.469   0.897
99658W        W63602   1.787  18.693  12.984
99659W        W63603  31.505   4.800   0.260
99660W        W63604   1.950  26.566  11.028
99661W        W63605   2.305  32.485   2.187
99662W        W63606  41.308  29.157  13.815
99663W        W63607   0.257   6.756  12.093
99664W        W63608   6.713  39.342  11.530
99665W        W63609  26.607  32.918   1.403
99666W        W63610   8.205  35.902   3.714
99667W        W63611   0.988  10.777   1.755
99668W        W63612  14.631  18.266   2.342
99669W        W63613  41.794  33.909   3.315
99670W        W63614  35.992   3.459  12.075
99671W        W63615  33.950  40.518  14.403
99672W        W63616  25.967  11.264  12.339
99673W        W63617  42.294  25.634   1.257
99674W        W63618  24.649  43.910   1.783
99675W        W63619  27.021  14.615   2.726
99676W        W63620  34.041  22.650  11.909
99677W        W63621  16.679  15.285  12.937
99678W        W63622  21.658  32.896  11.602
99679W        W63623  22.025  40.866  12.502
99680W        W63624  15.725  19.185   3.821
99681W        W63625   9.261  24.188  13.357
99682W        W63626   8.365  11.299   3.660
99683W        W63627  33.039   5.841  11.940
99684W        W63628  41.905  19.546   1.283
99685W        W63629  41.973   9.771  10.524
99686W        W63630  32.947  24.204   3.285
99687W        W63631  34.110  37.001   2.733
99688W        W63632   2.389  41.013   0.362
99689W        W63633  14.732  41.834  10.532
99690W        W63634  29.012  13.768  13.003
99691W        W63635  41.010  17.698   1.277
99692W        W63636   1.442  39.872   1.697
99693W        W63637  19.087  27.044   1.837
99694W        W63638  37.042  42.796  13.535
99695W        W63639  10.736  21.231  13.914
99696W        W63640   7.331  23.137  12.340
99697W        W63641   6.826   6.813   4.219
99698W        W63642   9.785   2.370  13.822
99699W        W63643   4.928  17.687   1.427
99700W        W63644   6.741   9.660  14.816
99701W        W63645  44.436  42.303  11.102
99702W        W63646  23.079  39.993   3.198
99703W        W63647  42.001  28.132  14.877
99704W        W63648   9.271  33.508  10.144
99705W        W63649  38.010  35.857  13.423
99706W        W63650  29.056  26.638  11.505
99707W        W63651  38.536   6.301  10.408
99708W        W63652   6.356  12.775  10.605
99709W        W63653  44.442  35.446  14.873
99710W        W63654  10.821   8.299   2.306
99711W        W63655  18.191  44.300   1.930
99712W        W63656   3.710   2.341  12.983
99713W        W63657  17.691   2.394   0.794
99714W        W63658   5.354  28.948   0.768
99715W        W63659  44.474   9.751   1.357
99716W        W63660  18.267  43.988  11.940
99717W        W63661   6.380  42.789   1.398
99718W        W63662  11.228  35.457  10.924
99719W        W63663  23.120  39.550   1.748
99720W        W63664   1.914  15.267   3.227
99721W        W63665  23.701  42.394   0.335
99722W        W63666  17.788   4.847   0.354
99723W        W63667   2.235  41.930  10.577
99724W        W63668  33.106  33.626   2.788
99725W        W63669   5.768  29.543  11.963
99726W        W63670  19.193  39.063  11.602
99727W        W63671  16.242  27.503   4.155
99728W        W63672  24.621  11.221   2.377
99729W        W63673   5.704  31.627  13.363
99730W        W63674  34.491   5.281   0.405
99731W        W63675  21.708  21.671  14.895
99732W        W63676  10.225  17.197   2.244
99733W        W63677  11.767   6.697  11.995
99734W        W63678   8.816  32.997   4.151
99735W        W63679  40.873  30.017   1.803
99736W        W63680  28.034  29.649   3.148
99737W        W63681  40.404   4.912   2.667
99738W        W63682   4.909  16.643  13.810
99739W        W63683  15.704  20.207   0.824
99740W        W63684  43.319  25.058  12.933
99741W        W63685  32.434  35.981   1.726
99742W        W63686  24.135  23.145   3.842
99743W        W63687  25.203  17.175  12.456
99744W        W63688  32.006  37.834   0.255
99745W        W63689  33.538   0.474   4.806
99746W        W63690   5.432  25.086   4.161
99747W        W63691  13.281  15.778   3.345
99748W        W63692  44.925  25.609  12.871
99749W        W63693  13.647  42.796   0.296
99750W        W63694   4.927  23.145   1.799
99751W        W63695  12.814  14.301   2.220
99752W        W63696  39.000  27.183  10.891
99753W        W63697   3.402  33.390  14.502
99754W        W63698  27.981  24.974  10.430
99755W        W63699  11.685  17.296  14.314
99756W        W63700   2.249  21.226   2.292
99757W        W63701  12.145  18.771  12.474
99758W        W63702  43.764  43.511   1.873
99759W        W63703  42.944  14.605   0.832
99760W        W63704  39.895  30.912   1.324
99761W        W63705  32.013  37.884  11.392
99762W        W63706   0.895   7.199   3.697
99763W        W63707  27.977  24.717  14.396
99764W        W63708  16.209  17.729   0.281
99765W        W63709  21.066   8.320   3.155
99766W        W63710  29.584   7.872   4.164
99767W        W63711   2.801  37.361  14.439
99768W        W63712  44.937  10.814   1.284
99769W        W63713  35.452  43.885  12.004
99770W        W63714  13.336  16.155  11.496
99771W        W63715  32.632  20.682   1.844
99772W        W63716  25.989  12.190  14.015
99773W        W63717  38.893  20.262  12.081
99774W        W63718  32.043  40.432   0.954
99775W        W63719  19.644   9.360  12.395
99776W        W63720  12.207   0.301  13.867
99777W        W63721  27.954  40.403   1.714
99778W        W63722  44.954  11.800  14.998
99779W        W63723   8.735  30.941  13.461
99780W        W63724   1.958  27.043   4.228
99781W        W63725   3.864  37.401  11.107
99782W        W63726  17.161  37.399  11.562
99783W        W63727  12.322   5.877   0.837
99784W        W63728  20.615  21.207   4.662
99785W        W63729   9.155  17.662  14.358
99786W        W63730  12.695  13.786  11.077
99787W        W63731  23.163  14.726   4.717
99788W        W63732  42.402  34.576   4.632
99789W        W63733  31.070   8.689   1.289
99790W        W63734   9.720  10.770  14.503
99791W        W63735  16.635  32.908  12.967
99792W        W63736  34.523  43.786  13.796
99793W        W63737   8.872  34.060   2.694
99794W        W63738   0.815  13.191  10.549
99795W        W63739   7.910   5.230   4.746
99796W        W63740   1.879  31.097  10.925
99797W        W63741  26.161  16.183  13.008
99798W        W63742  18.747  43.501  14.985
99799W        W63743  43.016  35.377   3.766
99800W        W63744  42.917  27.047   2.804
99801W        W63745  10.642  16.808   2.354
99802W        W63746  26.667  29.155   4.799
99803W        W63747  34.059  37.010  14.427
99804W        W63748  39.381  35.867   4.649
99805W        W63749  34.492  18.174   3.152
99806W        W63750  12.328  11.215  10.936
99807W        W63751  25.962  42.520  14.373
99808W        W63752  42.899  11.752  12.517
99809W        W63753  23.026  30.923   4.316
99810W        W63754  10.335  20.214   1.346
99811W        W63755  28.026  44.909  10.077
99812W        W63756  30.134  44.466  11.021
99813W        W63757  24.993  18.190   3.212
99814W        W63758   3.724  24.030  13.355
99815W        W63759   3.922  12.769  12.520
99816W        W63760  17.150  34.117  11.041
99817W        W63761  44.765  37.427   2.863
99818W        W63762  44.301  34.020   1.360
99819W        W63763   7.289   8.204   4.185
99820W        W63764  12.821  29.920   1.775
99821W        W63765  34.024   9.317   1.390
99822W        W63766  37.873  41.474   1.755
99823W        W63767  14.785  33.560   1.288
99824W        W63768  38.570  35.953  14.317
99825W        W63769  33.445  30.584  12.924
99826W        W63770  29.606  10.268  10.528
99827W        W63771  20.587   0.839   1.761
99828W        W63772  13.640   6.721   4.693
99829W        W63773  16.085   9.286  14.830
99830W        W63774  41.799  37.357  11.978
99831W        W63775  32.576   6.766   2.696
99832W        W63776  35.544  19.099  11.861
99833W        W63777  16.120  25.103  11.042
99834W        W63778  28.117  40.363  13.525
99835W        W63779  15.636   5.835  10.613
99836W        W63780   7.204  27.152  14.917
99837W        W63781  42.921  22.086  12.475
99838W        W63782   6.689  42.328   2.877
99839W        W63783   6.274  18.648  10.622
99840W        W63784   6.214  12.265   4.313
99841W        W63785   9.354  29.497  14.795
99842W        W63786  34.559  17.301   0.815
99843W        W63787  32.134  13.211  14.353
99844W        W63788  27.624   6.763  14.966
99845W        W63789  10.297   1.479   1.443
99846W        W63790  11.217  38.899   0.896
99847W        W63791  38.563  13.687  14.487
99848W        W63792  15.723  36.470  10.119
99849W        W63793  44.357  14.253   1.401
99850W        W63794  43.877  12.275   2.840
99851W        W63795  22.522  12.284   0.733
99852W        W63796  19.762  42.294  11.002
99853W        W63797  16.688  17.604  11.008
99854W        W63798  19.666  19.667  10.905
99855W        W63799  14.623  27.987  10.044
99856W        W63800  28.666  34.883   1.232
99857W        W63801  21.682  27.012  14.876
99858W        W63802  35.488  14.113   2.739
99859W        W63803  33.380  20.083   4.797
99860W        W63804  40.430  15.786   2.703
99861W        W63805   7.175  19.237   1.787
99862W        W63806  19.730  30.039  12.455
99863W        W63807  23.202   0.317   2.335
99864W        W63808  17.158   2.896   4.759
99865W        W63809  30.634  21.131   0.426
99866W        W63810  30.591  12.775   3.816
99867W        W63811  17.644  18.277   3.255
99868W        W63812  10.315  10.333   0.440
99869W        W63813  12.209   0.863   1.713
99870W        W63814  34.502  16.191  10.444
99871W        W63815  30.930  33.878   1.848
99872W        W63816  13.327   2.727   0.393
99873W        W63817  44.792  26.527  11.373
99874W        W63818   5.889   4.779   0.727
99875W        W63819   3.295  30.592   2.670
99876W        W63820  39.428  28.567   4.162
99877W        W63821   3.278  23.576   2.402
99878W        W63822   5.235   3.810   1.858
99879W        W63823  41.536  26.520   2.340
99880W        W63824  15.787   9.392  10.582
99881W        W63825  30.616  26.547   2.302
99882W        W63826  24.230  22.189  10.606
99883W        W63827  27.543  30.917  14.971
99884W        W63828  41.435   4.827  13.430
99885W        W63829  30.637  35.528  11.104
99886W        W63830  25.003  11.803   2.353
99887W        W63831  30.073  38.060  13.052
99888W        W63832   3.788   4.766  13.423
99889W        W63833  14.724  12.856  14.992
99890W        W63834  42.415  33.893   0.351
99891W        W63835  13.694  26.954   4.147
99892W        W63836  30.155  35.058   4.256
99893W        W63837  27.188  33.474   0.780
99894W        W63838  14.691  14.208   4.351
99895W        W63839  30.531   7.858   1.912
99896W        W63840  23.730  22.054   3.842
99897W        W63841   6.708  11.362   3.857
99898W        W63842  41.510  40.859  11.506
99899W        W63843  42.910   9.320  10.458
99900W        W63844  38.961  39.988  11.084
99901W        W63845  27.603  18.134   0.423
99902W        W63846   8.397  26.495   2.687
99903W        W63847   4.226  10.204   0.884
99904W        W63848  24.217  20.620  13.989
99905W        W63849  43.998  23.500   0.482
99906W        W63850  38.965  26.686   1.324
99907W        W63851   3.724  44.496  13.533
99908W        W63852  21.698  26.205  12.828
99909W        W63853  27.483  19.584   1.360
99910W        W63854  18.728  12.253  10.902
99911W        W63855  28.468  18.653  13.970
99912W        W63856  39.848  12.302   0.762
99913W        W63857  33.101  36.880  11.892
99914W        W63858  17.598   8.213   9.932
99915W        W63859  23.131   8.308   2.341
99916W        W63860   3.381  16.795  10.527
99917W        W63861  26.960  28.664  14.382
99918W        W63862  38.987   3.297  11.060
99919W        W63863  43.989  40.342   2.672
99920W        W63864  35.911  44.881  12.011
99921W        W63865  44.882   1.282  13.016
99922W        W63866  22.193  13.148  13.008
99923W        W63867  18.730   8.371   4.169
99924W        W63868  27.659  25.188  14.017
99925W        W63869  28.647   0.376  14.352
99926W        W63870  43.972   7.760   4.142
99927W        W63871  23.213   0.860  10.528
99928W        W63872  15.736  27.139   4.744
99929W        W63873   6.349  14.725  14.300
99930W        W63874  13.727  40.972   3.683
99931W        W63875  22.092  12.303  14.802
99932W        W63876   1.303   0.460  10.612
99933W        W63877  38.484  20.650   3.367
99934W        W63878  44.753   1.827  12.959
99935W        W63879  36.425  10.167   2.827
99936W        W63880  18.145   0.750   1.914
99937W        W63881   2.447  37.552   3.690
99938W        W63882  37.435  40.487  10.504
99939W        W63883  42.438   6.231   2.785
99940W        W63884  31.911   4.778  12.891
99941W        W63885  33.411  21.569  11.016
99942W        W63886  40.436  21.118  10.556
99943W        W63887   1.417  10.243   1.284
99944W        W63888  26.592   4.702  14.901
99945W        W63889  11.754  32.554  11.858
99946W        W63890  20.238  23.556  12.565
99947W        W63891   9.288   8.848  14.356
99948W        W63892   9.754  41.907  11.532
99949W        W63893   5.241  17.580   4.123
99950W        W63894  38.421   1.960   5.205
99951W        W63895  23.682  38.360  14.360
99952W        W63896  12.781  25.973  14.794
99953W        W63897  13.328  13.776  13.322
99954W        W63898  13.177  23.717  13.356
99955W        W63899  31.617   3.938  10.411
99956W        W63900   8.747  13.316  13.847
99957W        W63901   7.269  22.634   0.267
99958W        W63902   4.448  30.447   2.416
99959W        W63903  38.568  34.012   2.401
99960W        W63904  33.485  13.754  14.898
99961W        W63905  13.179  18.212   4.235
99962W        W63906   1.736  13.246   5.239
99963W        W63907  12.351  23.506  10.580
99964W        W63908  27.013  32.501   1.872
99965W        W63909   2.372  41.971   4.641
99966W        W63910  11.837  40.039  11.451
99967W        W63911   6.788  30.577   2.292
99968W        W63912  30.581  37.485  13.063
99969W        W63913  10.806  13.230   0.401
99970W        W63914   4.806  16.699  10.550
99971W        W63915  27.987  25.669  13.419
99972W        W63916   6.423  12.626  14.382
99973W        W63917  18.761   6.677  13.406
99974W        W63918  11.765   8.366   4.723
99975W        W63919  29.115   2.833   3.707
99976W        W63920  32.568  29.624   3.778
99977W        W63921  30.989  12.277  12.858
99978W        W63922  24.567  41.898   0.824
99979W        W63923  31.016  32.084  14.928
99980W        W63924  40.458  11.727   4.790
99981W        W63925  29.575  24.196   3.827
99982W        W63926  21.187  28.611  13.995
99983W        W63927  33.429  25.695  10.602
99984W        W63928   8.281  36.381  11.512
99985W        W63929  39.044  22.252   1.767
99986W        W63930   6.910  32.510   3.269
99987W        W63931  20.169  15.235  11.491
99988W        W63932  29.173   7.339   2.902
99989W        W63933  37.509  37.456   3.834
99990W        W63934  12.156  17.173   2.866
99991W        W63935  40.883   7.700  14.812
99992W        W63936   2.336  10.139  14.012
99993W        W63937  35.957  32.085  11.605
99994W        W63938  41.431   0.263   1.858
99995W        W63939  41.523  31.585  11.043
99996W        W63940  21.101   5.858  12.364
99997W        W63941   5.694  32.621  13.368
99998W        W63942  32.602  14.283   4.651
99999W        W63943   9.206  19.616   3.739
    0W        W63944  26.096  26.963   3.334
    1W        W63945  15.812  39.372   4.756
    2W        W63946  25.488  30.937  12.076
    3W        W63947   0.788   9.722   3.806
    4W        W63948   8.734  16.740   3.192
    5W        W63949  30.928  15.312   3.265
    6W        W63950  30.025  24.673  11.082
    7W        W63951  32.121   9.261   0.330
    8W        W63952  30.606   6.225   4.814
    9W        W63953  16.182   5.927  14.289
   10W        W63954  22.652   6.687   4.327
   11W        W63955  10.820   8.222  10.954
   12W        W63956   5.894  33.490   4.263
   13W        W63957  12.651  34.412   2.413
   14W        W63958  34.542   2.818  14.803
   15W        W63959  33.559  40.975  11.990
   16W        W63960  14.228   8.782   5.234
   17W        W63961  36.420   2.414  10.462
   18W        W63962  19.072  23.572   1.748
   19W        W63963  13.309  37.959   0.744
   20W        W63964   4.917  41.978   2.720
   21W        W63965  24.661  21.170   1.332
   22W        W63966  22.718  13.310  14.502
   23W        W63967   1.470  33.067   2.218
   24W        W63968  32.002   0.426  10.611
   25W        W63969  31.644   6.792   3.331
   26W        W63970  41.852  25.519   4.191
   27W        W63971   2.296  20.195  14.974
   28W        W63972  37.903  34.988   3.375
   29W        W63973   3.291  17.117  13.807
   30W        W63974  16.657  23.074   1.738
   31W        W63975  25.148  28.490  14.506
   32W        W63976  25.644  28.972   1.710
   33W        W63977  21.262  27.098  12.466
   34W        W63978  28.089  40.439   0.833
   35W        W63979  17.216  22.727   1.435
   36W        W63980  35.365   8.192   4.820
   37W        W63981  26.158   2.751   0.776
   38W        W63982  27.460  12.290   1.913
   39W        W63983   2.465  14.301   0.760
   40W        W63984  11.860   7.349   5.157
   41W        W63985   1.898   9.356  12.392
   42W        W63986  24.173  43.966   0.831
   43W        W63987  11.630  20.539  13.866
   44W        W63988  26.702  37.983   2.252
   45W        W63989  12.190   4.421  13.834
   46W        W63990  18.232  29.656   4.750
   47W        W63991   2.356  26.054  11.107
   48W        W63992  19.081  10.650   3.673
   49W        W63993  26.594  26.025   0.731
   50W        W63994  18.181   8.679  12.091
   51W        W63995  11.132   6.371  11.002
   52W        W63996  44.360   7.762   5.277
   53W        W63997  18.228  28.524  10.622
   54W        W63998   4.338  17.307  14.297
   55W        W63999  20.117  26.623  14.950
   56W        W64000  32.393  23.606   1.272
   57W        W64001  41.822  16.805   3.642
   58W        W64002  26.097  30.911  10.408
   59W        W64003  31.981  33.067   3.758
   60W        W64004  27.952  36.395   0.920
   61W        W64005   4.793  12.829   4.329
   62W        W64006   8.655   6.905  12.927
   63W        W64007  27.070   6.692   0.771
   64W        W64008   6.390  17.727  14.493
   65W        W64009  42.345  34.019  14.286
   66W        W64010  23.560   1.427   0.888
   67W        W64011  31.476  18.088   5.196
   68W        W64012  33.915   4.774  13.015
   69W        W64013  22.109   3.954  12.579
   70W        W64014  35.374  30.041   3.836
   71W        W64015  20.766  34.499   2.316
   72W        W64016  34.969  28.631  13.005
   73W        W64017  38.569  39.977   1.926
   74W        W64018  34.419   5.774  12.001
   75W        W64019  29.003   4.439   2.347
   76W        W64020  27.075  25.480  13.391
   77W        W64021  26.570  14.289  12.546
   78W        W64022   6.387  14.331  11.425
   79W        W64023  13.774  14.301   4.249
   80W        W64024  35.371  35.579  12.476
   81W        W64025  31.147  44.393  12.580
   82W        W64026  12.242  18.558   0.292
   83W        W64027  36.017  27.580   1.247
   84W        W64028  30.470  27.655  12.505
   85W        W64029  30.948   9.298  14.913
   86W        W64030  35.854  40.945   4.747
   87W        W64031  15.775  37.553   0.407
   88W        W64032  19.114   9.719  13.483
   89W        W64033  16.313  43.490   4.758
   90W        W64034  14.215  24.231  10.605
   91W        W64035  31.056   4.798   2.260
   92W        W64036  29.459  32.583   0.386
   93W        W64037  33.603  35.041  11.101
   94W        W64038   5.202  39.413  14.785
   95W        W64039  17.800   7.194  11.924
   96W        W64040   2.384  30.585  12.043
   97W        W64041  33.042   8.747   1.227
   98W        W64042  35.922   8.857   1.879
   99W        W64043  20.530  17.073   2.735
  100W        W64044  44.401   0.894   5.175
  101W        W64045  22.188   3.359  14.333
  102W        W64046   3.240  15.099  14.794
  103W        W64047   2.435  21.188   4.604
  104W        W64048  43.327   0.763  10.486
  105W        W64049  14.832  15.159  13.409
  106W        W64050  35.913   1.804   1.281
  107W        W64051  44.883   5.288   2.404
  108W        W64052  30.995   5.318   4.741
  109W        W64053  31.505  29.635  11.513
  110W        W64054  43.490  25.052  14.858
  111W        W64055  38.490  23.184  14.999
  112W        W64056  15.797  14.755  13.487
  113W        W64057   5.702  29.069   0.952
  114W        W64058   0.263  27.559   0.927
  115W        W64059  44.416   7.714  10.110
  116W        W64060  24.621  38.347   4.124
  117W        W64061   6.896   7.381   0.852
  118W        W64062   6.231   2.314   0.376
  119W        W64063  29.468  41.335  12.089
  120W        W64064   8.198   6.307  13.956
  121W        W64065  25.568  12.693   4.820
  122W        W64066  37.345  36.091  11.557
  123W        W64067   2.860   4.307   4.331
  124W        W64068  11.204  44.784   0.941
  125W        W64069  24.496  23.062   1.434
  126W        W64070  15.193  14.175   1.266
  127W        W64071  23.599   7.181  14.855
  128W        W64072   4.810  37.563  11.501
  129W        W64073  10.261  17.300   0.407
  130W        W64074  38.518  23.567   4.140
  131W        W64075  18.292   7.846   3.643
  132W        W64076  23.680  35.398   1.311
  133W        W64077  12.220  22.725   3.804
  134W        W64078  40.962  14.228  11.466
  135W        W64079  39.867  30.130  12.477
  136W        W64080  29.580   7.808   3.678
  137W        W64081  17.801  44.776   0.290
  138W        W64082   6.285  39.005  13.952
  139W        W64083  40.880  42.958   1.721
  140W        W64084  22.089  14.771  13.947
  141W        W64085   1.936  14.340   0.794
  142W        W64086  11.154   7.786   3.286
  143W        W64087   2.967  44.469   2.685
  144W        W64088  43.793  38.887   1.870
  145W        W64089  32.529  31.616  10.487
  146W        W64090  41.495  40.390   2.178
  147W        W64091  23.035  43.356   2.387
  148W        W64092  14.148  26.026  10.641
  149W        W64093  42.398  22.640   2.901
  150W        W64094  38.076  24.661   3.226
  151W        W64095  42.360   7.394  13.991
  152W        W64096  28.169  15.323   5.681
  153W        W64097  15.665   9.773   2.874
  154W        W64098  27.110  25.556   2.221
  155W        W64099   9.193  13.330  11.436
  156W        W64100  36.471  26.094   4.241
  157W        W64101  20.134   0.934   4.733
  158W        W64102  35.386  42.435   0.879
  159W        W64103  36.894  18.611   4.337
  160W        W64104   4.240  32.412   1.408
  161W        W64105   5.905  18.103   2.409
  162W        W64106  15.715  10.652  11.441
  163W        W64107  24.165  44.974  14.765
  164W        W64108  39.830   1.453   2.225
  165W        W64109   0.981   2.457   4.796
  166W        W64110  27.036  38.408  13.381
  167W        W64111   8.839  40.384  13.901
  168W        W64112  11.280   9.227  12.565
  169W        W64113  26.091  41.395  14.975
  170W        W64114  39.019  33.888  10.430
  171W        W64115  14.236  21.248   0.956
  172W        W64116  22.053  14.589  12.389
  173W        W64117  11.171  43.332  13.492
  174W        W64118  23.117  27.062   3.823
  175W        W64119  18.246   8.339   1.809
  176W        W64120  38.945  24.099  11.107
  177W        W64121   9.821  35.438  11.864
  178W        W64122   4.883  13.627   4.289
  179W        W64123  13.678  21.608   3.783
  180W        W64124  16.241   9.152   3.630
  181W        W64125  26.561  42.493   0.281
  182W        W64126  44.390  22.238   9.977
  183W        W64127   7.342  28.093   4.315
  184W        W64128  25.485  40.850  13.856
  185W        W64129  10.285  33.497   1.260
  186W        W64130  35.912  37.917   2.739
  187W        W64131  31.951  17.757   4.601
  188W        W64132  23.221  39.395  13.897
  189W        W64133   4.827  25.146   4.838
  190W        W64134   5.753  31.551  14.796
  191W        W64135  37.009  14.178  13.011
  192W        W64136  43.507  34.572  12.890
  193W        W64137  38.411  32.039  13.361
  194W        W64138   2.342  28.588  11.492
  195W        W64139  30.043  21.670   2.826
  196W        W64140  23.708  12.227  12.389
  197W        W64141  41.942   0.438   1.438
  198W        W64142  18.181   3.770   3.731
  199W        W64143  21.712  12.246  13.061
  200W        W64144  35.013  11.147  11.592
  201W        W64145  37.520  15.779   2.678
  202W        W64146  41.401  31.057  12.044
  203W        W64147   4.303   3.214   3.712
  204W        W64148   2.312  38.438  13.963
  205W        W64149   9.685  38.930   3.793
  206W        W64150  19.117  24.561  14.362
  207W        W64151   0.869  26.173   2.309
  208W        W64152  38.428  44.838  11.432
  209W        W64153  12.154  34.428   3.383
  210W        W64154  26.204  34.895   4.155
  211W        W64155  16.221  42.019   0.855
  212W        W64156  36.444  14.612   0.932
  213W        W64157  42.813  13.602   2.230
  214W        W64158   5.869  12.294   4.136
  215W        W64159   2.247  41.464  10.946
  216W        W64160  23.657  43.985  12.843
  217W        W64161   3.256  31.045   0.441
  218W        W64162  27.073  42.871  14.983
  219W        W64163   2.376  11.340   3.801
  220W        W64164  23.702  28.958   0.870
  221W        W64165  12.708  38.004   4.353
  222W        W64166  25.162  34.517   0.833
  223W        W64167   7.732   5.855  13.855
  224W        W64168  43.907   1.253  14.289
  225W        W64169   9.645  16.668   3.170
  226W        W64170  31.146  24.595  13.806
  227W        W64171  28.992  32.515   0.916
  228W        W64172  25.007  41.828  14.916
  229W        W64173  28.040  33.608   5.163
  230W        W64174  17.104  29.573   4.762
  231W        W64175  39.450  20.225   3.225
  232W        W64176  44.853  27.076   2.734
  233W        W64177  15.730   3.402   2.874
  234W        W64178   6.678  19.273  14.418
  235W        W64179  19.191  38.344  12.033
  236W        W64180   6.392  12.629   2.387
  237W        W64181   4.352  23.612   3.639
  238W        W64182   3.750  36.509  11.043
  239W        W64183   8.226  26.039   0.324
  240W        W64184  40.370  13.794  13.926
  241W        W64185  29.974  43.864  14.307
  242W        W64186  21.055  43.814   1.710
  243W        W64187   0.867  32.531   2.878
  244W        W64188  23.636   3.437  10.483
  245W        W64189   6.889  14.163  11.902
  246W        W64190  32.399  42.794  14.798
  247W        W64191  24.666  15.293   1.443
  248W        W64192  43.887  42.282  11.415
  249W        W64193  27.096  23.734  13.932
  250W        W64194  36.421  37.546  10.935
  251W        W64195  40.012  37.034  14.882
  252W        W64196  13.170  37.387   2.684
  253W        W64197  38.828  33.557  11.427
  254W        W64198   2.809  40.359  13.413
  255W        W64199  11.300  17.802  14.393
  256W        W64200   7.250  37.871   4.224
  257W        W64201  27.621   7.279   2.685
  258W        W64202   1.259   9.822  11.577
  259W        W64203  35.998  38.423  13.468
  260W        W64204  41.374  41.469  12.405
  261W        W64205  17.198  40.045  12.979
  262W        W64206  41.514  26.642  13.348
  263W        W64207   5.367  20.567  13.998
  264W        W64208  12.230  34.926  11.433
  265W        W64209  36.916  25.572   0.366
  266W        W64210  21.048  37.379   1.787
  267W        W64211  41.039   7.262  10.920
  268W        W64212  34.499  17.649   1.408
  269W        W64213  12.313  13.337  13.922
  270W        W64214   6.883  23.026   0.889
  271W        W64215  35.439  35.551   1.419
  272W        W64216  18.060  27.047   4.335
  273W        W64217  38.896  27.189  12.426
  274W        W64218  27.677   0.898   3.738
  275W        W64219  38.055  44.996   2.317
  276W        W64220  32.913  18.279   1.243
  277W        W64221  12.840  24.153   3.245
  278W        W64222  16.588  14.288  12.440
  279W        W64223   3.441  43.983   1.361
  280W        W64224  26.566   1.477  14.509
  281W        W64225  38.378  16.319  12.969
  282W        W64226   9.181   2.896  11.957
  283W        W64227  15.610  11.152  13.917
  284W        W64228  14.821  39.327  11.951
  285W        W64229  36.571   0.970  12.925
  286W        W64230  39.324  31.575   1.850
  287W        W64231   7.295  22.583  14.887
  288W        W64232  39.372  26.546   3.714
  289W        W64233  29.571  42.321  13.489
  290W        W64234  37.445   0.943   2.789
  291W        W64235  15.606  15.115   0.301
  292W        W64236  11.323   6.892  11.604
  293W        W64237  15.281  26.068  12.993
  294W        W64238  42.452  42.375   3.201
  295W        W64239  24.088  15.229  12.078
  296W        W64240   6.281   4.365  12.456
  297W        W64241  25.196  20.263   1.835
  298W        W64242  16.673  18.729   4.263
  299W        W64243  35.108  15.116   3.816
  300W        W64244  32.540  17.307  12.896
  301W        W64245   3.268  35.988  10.965
  302W        W64246  29.095  35.391   4.141
  303W        W64247  10.838  37.076   2.332
  304W        W64248  12.625  14.675  10.622
  305W        W64249  12.789  35.975  10.923
  306W        W64250  29.571  43.826  14.018
  307W        W64251  32.952  10.185   2.821
  308W        W64252  31.938  42.924  10.407
  309W        W64253   7.383  13.177  12.532
  310W        W64254   7.874  29.150   1.873
  311W        W64255  11.685   8.681   2.900
  312W        W64256  33.007  35.450   4.297
  313W        W64257  42.025  38.920  11.905
  314W        W64258  39.455  14.273  11.040
  315W        W64259  21.019  18.233  14.959
  316W        W64260   6.767  30.146   0.755
  317W        W64261  44.453  32.532  11.422
  318W        W64262  42.928  42.437   1.815
  319W        W64263  39.936  38.390   0.369
  320W        W64264  16.627  35.454   2.375
  321W        W64265  15.738  36.483   1.927
  322W        W64266   9.696  22.143   1.893
  323W        W64267  20.264   2.802   3.308
  324W        W64268  28.483  41.448  13.497
  325W        W64269   7.274   1.910   3.812
  326W        W64270  27.447   5.233  12.965
  327W        W64271  20.066  37.062   3.294
  328W        W64272  38.044   3.741  14.314
  329W        W64273  22.719   4.223   3.784
  330W        W64274   1.352  42.779   3.742
  331W        W64275   1.800   2.952   1.360
  332W        W64276  27.560  27.471  14.003
  333W        W64277  22.045  31.089  14.989
  334W        W64278  20.671  20.546  12.436
  335W        W64279  17.596   9.264  14.430
  336W        W64280  17.662  20.270   2.701
  337W        W64281  11.228   7.702  11.104
  338W        W64282  15.257  34.049  12.059
  339W        W64283  11.286  23.609  11.039
  340W        W64284   2.341  24.228  11.531
  341W        W64285  14.193  41.999   0.726
  342W        W64286  14.226  14.702   3.729
  343W        W64287  39.022  42.282  13.016
  344W        W64288  44.902  18.290   3.652
  345W        W64289  31.135  12.856  10.590
  346W        W64290   2.295  38.855  11.525
  347W        W64291   0.801   1.824  14.829
  348W        W64292  22.204   8.720   2.279
  349W        W64293  19.269  40.454   2.250
  350W        W64294  33.107  29.506  13.040
  351W        W64295  28.158   4.219  14.972
  352W        W64296   5.287  40.898   2.283
  353W        W64297  39.058   6.218  12.492
  354W        W64298  33.129  31.599  14.505
  355W        W64299  16.243  27.991   2.725
  356W        W64300  32.032   2.293  12.990
  357W        W64301  18.683  23.631  12.959
  358W        W64302  18.247  33.387   3.866
  359W        W64303   3.347   3.808  12.544
  360W        W64304  34.482  17.099  11.462
  361W        W64305  12.649  33.389  12.060
  362W        W64306  20.576   2.436  12.083
  363W        W64307  36.990   8.893  14.920
  364W        W64308  11.189  14.735   2.255
  365W        W64309  23.686  27.518  13.545
  366W        W64310   6.313  42.881   4.784
  367W        W64311  44.467   0.870   0.961
  368W        W64312  13.174  28.567   4.221
  369W        W64313  44.881  30.038   1.236
  370W        W64314  22.022  42.368  13.434
  371W        W64315  31.903  11.364   2.813
  372W        W64316  35.897  42.898   2.772
  373W        W64317  18.055  17.748  10.642
  374W        W64318  12.321  10.151  10.128
  375W        W64319  10.840  27.502   2.844
  376W        W64320  22.537  27.986   3.254
  377W        W64321  33.396   2.843  12.001
  378W        W64322  26.175   1.881  12.493
  379W        W64323  24.153  41.904   4.164
  380W        W64324  43.928  43.381   0.450
  381W        W64325  23.110   7.760   4.119
  382W        W64326  36.094  32.479  12.913
  383W        W64327  16.198  39.463  13.355
  384W        W64328   0.369  18.059   2.821
  385W        W64329  41.389  43.764   1.917
  386W        W64330  19.202  27.599   0.263
  387W        W64331   1.893   8.311   3.167
  388W        W64332   9.778  11.130  11.002
  389W        W64333  36.957  23.567  12.511
  390W        W64334  43.385   5.736  13.904
  391W        W64335   8.189   5.396   0.963
  392W        W64336  15.148   9.322   4.162
  393W        W64337  42.900  29.160   1.263
  394W        W64338  19.567  31.646   2.876
  395W        W64339  40.353  17.165  14.472
  396W        W64340  34.990  39.495  13.326
  397W        W64341  33.393  38.392  11.957
  398W        W64342  24.005   9.296   3.800
  399W        W64343  13.743   4.376  13.945
  400W        W64344  36.357  20.563  12.488
  401W        W64345  22.726   2.328   3.741
  402W        W64346  38.571  23.125   1.247
  403W        W64347   8.301  34.587  12.369
  404W        W64348  20.217  14.211   4.121
  405W        W64349  15.191  42.933  11.467
  406W        W64350   1.448  43.354   0.412
  407W        W64351  33.621  23.144  12.863
  408W        W64352  39.539  26.648   3.181
  409W        W64353  37.024  29.014  13.333
  410W        W64354  26.568  34.519   3.839
  411W        W64355  36.880  44.829   2.400
  412W        W64356   0.803  16.090  12.843
  413W        W64357  12.244  36.910   0.247
  414W        W64358   1.239  16.622   2.292
  415W        W64359  21.204  27.144   1.290
  416W        W64360  21.211  11.704   0.758
  417W        W64361  13.283  27.953  10.009
  418W        W64362  25.977  17.641  14.892
  419W        W64363   6.734  10.709  10.560
  420W        W64364  21.257  36.359  12.532
  421W        W64365  31.526  44.269   2.682
  422W        W64366  38.879   7.727   4.119
  423W        W64367  31.015  43.855  12.350
  424W        W64368   3.811  19.190  11.375
  425W        W64369   1.771  42.848  11.914
  426W        W64370  25.034  41.318   0.439
  427W        W64371  19.264   7.317   2.237
  428W        W64372  27.080  19.203  12.415
  429W        W64373  14.696  23.135  10.433
  430W        W64374  23.171   1.944  12.537
  431W        W64375   4.827  23.240   2.693
  432W        W64376   1.309   6.758  14.391
  433W        W64377   7.238  17.234  10.586
  434W        W64378   8.775  18.659   2.296
  435W        W64379  29.100  34.048  14.301
  436W        W64380  41.905  19.598   5.310
  437W        W64381  44.428  20.257   3.752
  438W        W64382  33.106  32.989   0.821
  439W        W64383  40.962  14.259  13.478
  440W        W64384  35.033  40.991   0.256
  441W        W64385  31.488  44.948   1.267
  442W        W64386  13.802  27.688   0.321
  443W        W64387  30.558  23.569   3.649
  444W        W64388  11.684  44.439  11.016
  445W        W64389  17.651   5.424  12.553
  446W        W64390  17.661  38.049   1.412
  447W        W64391   6.204   8.722   0.835
  448W        W64392  40.812  43.853   3.791
  449W        W64393  16.253  12.197   2.806
  450W        W64394  33.537  13.835   2.229
  451W        W64395  16.085  36.358   4.745
  452W        W64396  16.120  19.694   0.482
  453W        W64397  38.424  15.159  14.465
  454W        W64398   8.796  37.563  11.870
  455W        W64399  24.514  10.177   4.234
  456W        W64400  15.712  35.521  13.051
  457W        W64401  12.233   2.753  12.875
  458W        W64402  14.589  18.292  14.780
  459W        W64403   7.315   1.392  13.524
  460W        W64404   2.467  23.726  11.973
  461W        W64405  12.307  20.058  12.390
  462W        W64406  19.174  39.544   3.819
  463W        W64407  27.032   1.241   3.321
  464W        W64408   3.398  30.616  10.535
  465W        W64409  19.281  13.760   1.778
  466W        W64410  10.220  44.424  14.397
  467W        W64411  15.313  41.015   3.328
  468W        W64412  42.896  10.703  13.040
  469W        W64413  27.010  24.682   0.886
  470W        W64414  22.243  16.698   3.227
  471W        W64415   9.792  12.233   4.720
  472W        W64416  16.273  10.680  10.923
  473W        W64417   2.876  40.426   1.793
  474W        W64418  37.963  33.026  10.547
  475W        W64419   5.195  41.302  13.523
  476W        W64420   0.962   0.305  13.819
  477W        W64421  31.609   1.326  12.411
  478W        W64422  28.119  43.973  11.945
  479W        W64423  35.034   8.295   0.751
  480W        W64424  16.753  42.395   3.236
  481W        W64425  14.215  13.133   0.810
  482W        W64426  10.710  41.005   2.683
  483W        W64427  16.764  36.932   0.437
  484W        W64428  12.352   4.699   4.325
  485W        W64429  42.465  31.120  12.505
  486W        W64430  44.315  20.763   4.257
  487W        W64431   5.844  13.181  14.284
  488W        W64432  26.066  25.686   1.451
  489W        W64433  41.897  40.934   0.742
  490W        W64434   1.283   9.779  10.459
  491W        W64435  44.816   8.245  12.966
  492W        W64436  15.280  25.130  12.018
  493W        W64437  27.096  28.641   2.344
  494W        W64438   5.419  35.546   3.702
  495W        W64439  43.875   8.200  14.408
  496W        W64440  10.305  44.820  10.903
  497W        W64441   5.910  35.915   4.185
  498W        W64442  43.874  44.328   2.407
  499W        W64443   1.449   8.875   3.681
  500W        W64444  16.781  37.922  12.563
  501W        W64445  43.406  32.906  11.032
  502W        W64446  14.238  18.109  12.475
  503W        W64447  33.957  37.458  14.425
  504W        W64448   4.226  36.059  12.897
  505W        W64449  23.021  10.215  11.914
  506W        W64450  33.078  39.832  14.809
  507W        W64451  31.134   4.382   1.400
  508W        W64452  35.585  26.616  13.798
  509W        W64453   8.828  30.956   9.613
  510W        W64454   9.731   7.693   0.851
  511W        W64455  31.482  32.062   2.878
  512W        W64456  29.968  15.802   1.723
  513W        W64457  44.761  14.169  14.837
  514W        W64458  33.035  14.095  12.542
  515W        W64459  26.987  26.153   0.276
  516W        W64460  17.646  12.134  11.373
  517W        W64461  36.445  14.335   0.404
  518W        W64462  11.311  28.974   0.382
  519W        W64463  41.942   4.788  12.474
  520W        W64464  30.066   5.272   2.221
  521W        W64465  26.093  25.050   2.289
  522W        W64466  37.925  25.486   0.465
  523W        W64467  18.117   4.812  12.981
  524W        W64468  27.995  36.889   1.353
  525W        W64469  40.871   3.343  13.019
  526W        W64470  23.671   3.874  12.366
  527W        W64471  41.860  32.623   2.665
  528W        W64472  25.629   3.414   9.928
  529W        W64473  43.957   5.357  11.050
  530W        W64474  19.076  42.968   0.414
  531W        W64475  25.706   3.839   3.816
  532W        W64476  16.154  30.638   3.363
  533W        W64477   9.681   9.653  14.769
  534W        W64478   4.931  28.489   5.133
  535W        W64479  22.234  27.004   0.380
  536W        W64480  21.599  42.397  14.915
  537W        W64481   3.758  15.089   1.922
  538W        W64482   8.883   4.230  11.397
  539W        W64483  31.018  14.815   3.825
  540W        W64484  44.987  21.083  13.437
  541W        W64485  15.174   1.414   0.856
  542W        W64486  11.186   3.943   3.305
  543W        W64487  43.354  34.572  14.471
  544W        W64488   9.337   7.220   3.792
  545W        W64489  13.346   8.879   0.927
  546W        W64490  28.042   0.896   3.846
  547W        W64491  16.713  21.165  10.138
  548W        W64492  16.722   8.684  13.546
  549W        W64493  24.530  27.487  14.895
  550W        W64494  19.581  25.609   4.167
  551W        W64495   2.869  25.168  12.939
  552W        W64496  27.010  40.038  13.036
  553W        W64497  36.047  14.686   0.452
  554W        W64498  12.280  16.774   9.489
  555W        W64499  12.294  44.438   3.692
  556W        W64500   7.410  15.608   5.082
  557W        W64501  32.052  20.120  10.984
  558W        W64502  34.478  16.119   0.339
  559W        W64503  38.481   2.729  12.394
  560W        W64504  42.006   1.325   1.307
  561W        W64505  33.897  11.320   4.177
  562W        W64506   1.471  14.716   1.698
  563W        W64507  19.585  13.257   2.182
  564W        W64508  31.996  43.012   1.363
  565W        W64509  22.083  27.164  10.494
  566W        W64510  18.230   5.348   4.757
  567W        W64511  41.805  24.545  11.426
  568W        W64512  27.964  37.520   1.795
  569W        W64513  43.312  14.764   4.716
  570W        W64514  31.114  30.076  11.992
  571W        W64515   4.708  21.103  13.963
  572W        W64516  31.053  42.316   4.626
  573W        W64517  35.109  20.733  11.114
  574W        W64518   5.420   4.428  11.866
  575W        W64519  43.888   2.952   2.214
  576W        W64520  42.414   0.748   1.772
  577W        W64521   1.436  36.412   3.751
  578W        W64522  40.392  29.035  10.005
  579W        W64523  14.262  14.226  11.929
  580W        W64524  15.617  42.525   1.695
  581W        W64525  15.205  19.139  12.002
  582W        W64526  19.103   2.787   0.782
  583W        W64527  21.039   2.937  11.546
  584W        W64528  11.770   2.334  11.879
  585W        W64529  21.555   9.226   3.810
  586W        W64530  14.204  22.196  12.555
  587W        W64531  28.440  41.917   1.782
  588W        W64532  43.288  14.712  11.940
  589W        W64533  33.927  31.642   1.275
  590W        W64534  41.493  18.707   4.736
  591W        W64535   5.401  25.713   4.766
  592W        W64536  38.433  25.065  11.091
  593W        W64537  18.783  38.377  13.361
  594W        W64538  21.178  33.461  11.564
  595W        W64539  14.739   0.287  13.025
  596W        W64540  44.834  15.811  11.975
  597W        W64541  27.618   4.352   3.759
  598W        W64542  22.689  14.267   5.084
  599W        W64543  37.969  24.060  12.927
  600W        W64544  10.357   6.410   2.341
  601W        W64545  13.831  25.119  12.021
  602W        W64546  16.657  44.462   0.290
  603W        W64547   6.690  18.123  12.468
  604W        W64548  15.697  40.016   3.332
  605W        W64549  17.227   0.459  10.453
  606W        W64550   1.304  42.322   0.318
  607W        W64551   6.238  32.479   0.284
  608W        W64552  35.090  22.726   1.912
  609W        W64553  31.104  26.038  10.589
  610W        W64554  15.276  29.971  12.371
  611W        W64555   6.897  12.148   0.902
  612W        W64556  12.734  40.866  11.970
  613W        W64557  42.896  34.416   4.225
  614W        W64558  19.756  35.910   2.386
  615W        W64559  31.448  22.740   4.243
  616W        W64560  38.484  42.025   2.376
  617W        W64561   9.229  12.736  13.478
  618W        W64562  12.650   5.344   4.705
  619W        W64563  11.805   2.410  14.827
  620W        W64564   2.879  41.793  12.541
  621W        W64565  26.684  11.204   1.787
  622W        W64566  37.546   2.262  14.777
  623W        W64567   1.975  16.315   4.294
  624W        W64568  25.642  14.246   2.300
  625W        W64569  42.390  36.364  13.900
  626W        W64570  41.471   5.412   0.943
  627W        W64571  43.491  29.955  10.926
  628W        W64572  32.115   2.842  12.018
  629W        W64573  31.459   6.428   1.445
  630W        W64574   2.799   7.205   2.746
  631W        W64575  44.903  22.583  14.006
  632W        W64576  19.181   1.743   3.708
  633W        W64577  21.159   4.821   5.084
  634W        W64578  26.123  33.380  13.426
  635W        W64579  31.902  16.802  10.966
  636W        W64580  40.353   7.721   5.193
  637W        W64581  43.970  37.563   1.885
  638W        W64582  27.962  28.103  12.942
  639W        W64583  43.470  43.015   3.868
  640W        W64584  43.389  27.988  12.091
  641W        W64585  42.398  33.380   4.188
  642W        W64586  25.207  34.086  14.876
  643W        W64587  15.714  16.294  10.534
  644W        W64588   8.390   2.413  13.836
  645W        W64589  21.699   8.372   3.819
  646W        W64590  35.426  18.120   2.265
  647W        W64591  38.489  22.577  13.521
  648W        W64592  11.630  43.772  12.934
  649W        W64593   7.315  22.011   1.258
  650W        W64594  20.133  21.038   4.343
  651W        W64595  15.241  40.359   1.797
  652W        W64596  26.552  35.435  10.888
  653W        W64597  36.866   4.797   3.265
  654W        W64598   6.909  34.115   3.318
  655W        W64599  21.158   0.945  12.460
  656W        W64600  44.870  42.820  10.941
  657W        W64601  41.934  25.993  13.436
  658W        W64602   1.766   1.910   1.836
  659W        W64603  43.872  14.744  12.981
  660W        W64604  23.027  21.257   2.366
  661W        W64605  30.605  38.399   4.673
  662W        W64606   3.779  29.140  14.775
  663W        W64607  20.563  17.177   2.289
  664W        W64608  10.822  30.635   0.882
  665W        W64609  32.600  13.622   2.282
  666W        W64610  27.671  43.342   1.820
  667W        W64611  13.633  32.914  13.321
  668W        W64612  10.344   2.362   0.726
  669W        W64613   9.828  32.616   1.277
  670W        W64614   8.710   8.307  14.970
  671W        W64615  35.929   6.357  13.419
  672W        W64616  38.558  18.198  14.345
  673W        W64617   8.207  41.989   4.213
  674W        W64618  23.637  40.943  11.540
  675W        W64619  44.799  28.590   0.312
  676W        W64620   7.175  34.408  10.897
  677W        W64621  29.080  14.588   5.126
  678W        W64622  20.560  25.041  13.865
  679W        W64623  12.845  40.881  14.989
  680W        W64624   6.269   0.760   9.968
  681W        W64625  29.932  40.375   1.281
  682W        W64626   5.209  30.438  14.782
  683W        W64627  10.250  39.524   3.853
  684W        W64628  40.373  35.031   0.299
  685W        W64629  25.992   9.867   4.263
  686W        W64630   0.975   1.959   0.759
  687W        W64631  33.576  23.550  13.842
  688W        W64632   5.707  25.688   1.903
  689W        W64633  20.140  41.008  11.029
  690W        W64634  41.982   5.794   0.441
  691W        W64635   1.848  15.163   2.692
  692W        W64636  11.813   2.902   2.816
  693W        W64637  21.082   3.772   2.251
  694W        W64638  10.837  24.715  13.012
  695W        W64639  41.361   0.419  11.585
  696W        W64640  21.130  36.559  14.281
  697W        W64641  27.594  34.409   2.219
  698W        W64642  38.860  21.641   0.372
  699W        W64643  13.820   7.212   3.367
  700W        W64644  13.202  34.932  12.972
  701W        W64645  12.746  11.363   1.770
  702W        W64646  25.971  33.577  14.998
  703W        W64647  15.270  12.708   0.733
  704W        W64648   7.288  24.016   0.363
  705W        W64649  30.591  12.251   2.185
  706W        W64650  40.399  12.727   4.120
  707W        W64651  29.641  24.515  12.982
  708W        W64652  22.681   2.951  10.641
  709W        W64653  38.350   1.924  13.509
  710W        W64654  18.742  26.168   1.282
  711W        W64655  14.298  32.445   4.173
  712W        W64656  39.368  32.091  13.987
  713W        W64657  23.695  18.587   4.715
  714W        W64658  18.616  13.227   1.337
  715W        W64659  20.121  29.618  14.448
  716W        W64660  29.928  27.643   0.338
  717W        W64661  13.201  25.173  14.019
  718W        W64662  34.095  16.671  14.502
  719W        W64663  12.846  37.047   4.227
  720W        W64664  44.471  18.771  14.777
  721W        W64665  21.087   6.240   1.410
  722W        W64666  15.173  30.142  12.895
  723W        W64667  34.591  42.782   2.887
  724W        W64668  27.613  25.098  13.459
  725W        W64669  38.402  14.300  14.399
  726W        W64670  33.007  14.592  12.562
  727W        W64671  19.046   8.270   1.389
  728W        W64672  38.912  23.720   1.717
  729W        W64673  26.664  35.366   0.246
  730W        W64674  17.188  18.609  12.517
  731W        W64675   8.306   9.166  14.423
  732W        W64676  13.722  20.107   0.276
  733W        W64677  41.908  39.975  12.043
  734W        W64678  36.048  27.137  10.634
  735W        W64679  34.469  18.219   4.210
  736W        W64680  22.729  33.080   3.859
  737W        W64681  22.079  23.620   4.267
  738W        W64682   7.736  33.052  13.389
  739W        W64683  35.866  23.605  11.381
  740W        W64684  24.623  38.847   2.343
  741W        W64685  31.519  43.312   1.318
  742W        W64686  38.492   6.838   4.655
  743W        W64687   5.755  10.267   2.231
  744W        W64688   4.344   6.336   2.180
  745W        W64689  34.910  38.440  13.020
  746W        W64690   2.393  44.864  14.970
  747W        W64691  32.500   3.432   5.264
  748W        W64692  27.501  29.520   1.863
  749W        W64693  32.558  29.670  14.839
  750W        W64694  38.356  26.060   0.777
  751W        W64695  21.635  39.873   3.218
  752W        W64696  34.481   9.302  14.856
  753W        W64697  15.689  26.025  10.903
  754W        W64698   2.823   0.863  12.995
  755W        W64699  24.226  43.934  14.381
  756W        W64700  18.132  25.603   1.445
  757W        W64701  30.105  18.692   1.702
  758W        W64702  42.461  17.570   2.865
  759W        W64703  34.963  10.715   2.182
  760W        W64704  35.363  35.020   0.947
  761W        W64705   7.415  34.921  11.097
  762W        W64706   5.402  14.258   4.263
  763W        W64707   8.896  20.055  12.397
  764W        W64708  11.747  31.556   3.823
  765W        W64709  34.419  23.697  11.945
  766W        W64710  40.472  11.832   3.231
  767W        W64711  15.211  20.639   2.662
  768W        W64712  13.115  31.456   1.910
  769W        W64713  10.196  23.120  11.972
  770W        W64714  15.607  30.038  11.097
  771W        W64715  13.311  15.104   4.779
  772W        W64716  38.994  35.973   1.361
  773W        W64717  39.017  12.181   3.752
  774W        W64718   1.368  35.964   4.789
  775W        W64719  31.478   8.730  11.438
  776W        W64720  31.591  41.956   9.982
  777W        W64721  14.589   9.151   0.309
  778W        W64722   1.973  25.078   2.319
  779W        W64723  41.310  38.034   2.689
  780W        W64724  10.762   4.771   1.718
  781W        W64725  42.373   5.908  11.996
  782W        W64726   4.260  27.149   4.163
  783W        W64727  18.066  31.603  14.025
  784W        W64728  31.008   5.831  14.901
  785W        W64729   9.802  41.021   2.411
  786W        W64730  39.987  21.163   1.791
  787W        W64731  22.143   3.724   4.749
  788W        W64732  28.993  40.829   0.318
  789W        W64733   5.297   2.927   3.284
  790W        W64734  34.027  18.790   2.829
  791W        W64735  34.893  21.540  10.517
  792W        W64736  11.665  34.970  10.588
  793W        W64737  39.822   6.402   1.254
  794W        W64738  21.174   8.899  14.882
  795W        W64739  20.663  20.541   3.343
  796W        W64740  11.800  35.004   3.714
  797W        W64741   2.882   4.719  11.439
  798W        W64742  23.528  33.977   4.341
  799W        W64743   8.868  42.345   2.886
  800W        W64744  29.175  26.572   3.806
  801W        W64745  23.581  21.174  13.830
  802W        W64746  12.154  43.479   2.398
  803W        W64747  23.234   6.235  14.457
  804W        W64748  42.870  43.274   4.260
  805W        W64749  29.083  12.315  11.907
  806W        W64750  13.708  29.578   4.644
  807W        W64751  25.111  28.966  14.342
  808W        W64752  43.902   6.754  14.500
  809W        W64753  42.806  10.763  14.012
  810W        W64754  13.170   1.805   1.921
  811W        W64755  38.531  22.155   4.822
  812W        W64756   2.346  25.653  11.564
  813W        W64757   8.724  32.022   4.755
  814W        W64758  31.628  26.160   4.349
  815W        W64759  30.936  14.826  14.393
  816W        W64760   1.266  29.601   3.698
  817W        W64761  20.769   7.687  13.412
  818W        W64762  42.459  25.033  12.011
  819W        W64763  34.465   3.904  14.903
  820W        W64764  42.789   4.389   2.821
  821W        W64765   6.202   5.239   2.183
  822W        W64766  20.198  33.387   2.388
  823W        W64767  18.606  10.371   3.689
  824W        W64768  39.533  44.796  14.805
  825W        W64769   5.739  21.610  12.861
  826W        W64770  27.120  20.530  12.040
  827W        W64771  24.112  11.833   1.934
  828W        W64772  43.970  10.185   2.317
  829W        W64773  35.394  21.036  11.116
  830W        W64774   8.332  33.906  12.436
  831W        W64775  34.960  20.222   4.815
  832W        W64776   1.270  17.247  11.116
  833W        W64777   8.724  29.599   1.900
  834W        W64778  11.847   1.470   3.645
  835W        W64779  40.530  34.421   2.258
  836W        W64780   9.773  22.536   0.398
  837W        W64781  28.179  31.915  12.058
  838W        W64782  40.469  41.863   0.295
  839W        W64783  24.494  25.093  14.448
  840W        W64784   3.725  28.987   1.318
  841W        W64785  16.586  22.167  10.983
  842W        W64786   5.239  23.143   1.420
  843W        W64787  20.133  44.458   4.694
  844W        W64788  12.293   1.304  11.410
  845W        W64789  19.182   1.277  13.941
  846W        W64790   7.353  15.096   2.876
  847W        W64791  12.337  13.806   2.320
  848W        W64792  18.238  13.230  11.539
  849W        W64793  10.306   7.246   2.343
  850W        W64794  17.182  41.471  13.922
  851W        W64795  28.167  14.275   9.921
  852W        W64796  13.234  19.125   1.729
  853W        W64797   7.730   0.859   2.202
  854W        W64798  34.991  37.051  14.963
  855W        W64799  39.390  18.746  12.960
  856W        W64800  22.080   1.743  12.428
  857W        W64801  29.494  21.198  14.025
  858W        W64802  26.576  32.934   2.313
  859W        W64803   8.682  31.921  12.417
  860W        W64804  31.501  43.317  11.382
  861W        W64805  30.096  33.466   4.745
  862W        W64806  39.344  36.865   1.230
  863W        W64807   1.301  32.513  11.468
  864W        W64808  42.500   6.197   0.343
  865W        W64809   1.952  14.103   0.372
  866W        W64810  24.626  12.210  12.879
  867W        W64811  28.535   9.188   2.315
  868W        W64812   1.974   7.680  11.572
  869W        W64813  28.983   8.814  12.095
  870W        W64814   6.882  28.675  12.024
  871W        W64815   1.430   9.859   0.859
  872W        W64816  13.300   9.725   3.700
  873W        W64817  35.019  33.107  14.441
  874W        W64818  19.078  34.925   1.796
  875W        W64819  37.488  18.130   0.484
  876W        W64820  20.145  24.503   0.343
  877W        W64821  28.606  12.789  13.519
  878W        W64822  20.107  35.025  14.973
  879W        W64823  19.040   9.680  12.919
  880W        W64824  39.389  13.110   4.637
  881W        W64825  35.887   5.305   1.726
  882W        W64826  16.729   4.409  12.419
  883W        W64827  26.139  37.344  11.580
  884W        W64828  37.870  15.790   9.924
  885W        W64829  14.713  26.703  12.926
  886W        W64830  21.217  43.850   3.243
  887W        W64831  17.206  22.011   0.395
  888W        W64832  15.793  17.748   2.862
  889W        W64833  29.545  18.182  12.883
  890W        W64834  10.224  17.637   0.743
  891W        W64835  22.098   7.325   1.708
  892W        W64836  11.372  31.626   3.862
  893W        W64837  35.380  10.259   3.810
  894W        W64838  25.183  12.821   3.861
  895W        W64839  35.487  37.870   0.287
  896W        W64840  43.904   9.703  11.456
  897W        W64841   4.745  42.321  11.411
  898W        W64842  18.198  44.385  14.883
  899W        W64843  33.999  16.573   2.829
  900W        W64844  44.409  30.946  14.482
  901W        W64845  11.198  16.185  13.319
  902W        W64846  28.469  35.360  10.972
  903W        W64847  23.090  25.522   4.767
  904W        W64848   4.253  37.982   0.331
  905W        W64849  37.440  15.172  10.967
  906W        W64850  19.269  28.478  14.475
  907W        W64851  34.085   9.191  11.920
  908W        W64852  16.171   6.836  14.778
  909W        W64853   8.375   1.807  11.978
  910W        W64854  29.162  27.189  11.531
  911W        W64855  11.245  32.080   4.128
  912W        W64856  33.599  12.194  10.925
  913W        W64857   2.225  41.830   2.801
  914W        W64858   8.705   0.787  13.841
  915W        W64859  10.279  11.720   1.816
  916W        W64860  13.705  13.791   1.245
  917W        W64861  28.631  16.108  14.918
  918W        W64862  37.059  23.627   3.314
  919W        W64863  41.977  19.758   0.397
  920W        W64864  36.032   5.421  11.582
  921W        W64865  20.609   2.790  13.842
  922W        W64866  19.248  22.206   0.352
  923W        W64867  10.835  40.404  14.925
  924W        W64868  14.320  20.754   4.671
  925W        W64869  28.457  17.567  14.464
  926W        W64870   0.878  19.039   2.769
  927W        W64871  27.574   4.360   4.191
  928W        W64872   7.365  36.472  14.900
  929W        W64873  42.899  15.619  10.110
  930W        W64874  20.538  31.113   4.134
  931W        W64875  24.207  43.388   3.223
  932W        W64876  28.977  31.930   3.166
  933W        W64877   0.877  40.325  13.841
  934W        W64878   6.366  38.876  14.397
  935W        W64879   1.946  34.050   3.722
  936W        W64880  13.137  43.351   4.669
  937W        W64881   0.802  22.240  12.928
  938W        W64882  18.183  22.532  13.064
  939W        W64883  27.046  22.178   2.236
  940W        W64884  37.501   0.420   4.314
  941W        W64885  20.585  21.084  14.475
  942W        W64886  35.533  23.109  11.086
  943W        W64887  30.974   0.342  11.062
  944W        W64888  16.715  24.582  14.866
  945W        W64889   6.866  31.560   2.197
  946W        W64890  41.439  21.597   3.650
  947W        W64891  38.858   5.852   0.429
  948W        W64892  32.456  32.552   1.392
  949W        W64893  37.539   1.870   3.229
  950W        W64894  19.154   4.750   2.865
  951W        W64895  29.514  22.531   4.286
  952W        W64896   4.931  26.466  10.541
  953W        W64897   6.186  10.190   0.944
  954W        W64898  26.647  17.693  11.403
  955W        W64899   1.845  31.555   4.320
  956W        W64900   5.765   4.832   0.439
  957W        W64901  42.824  20.658   4.270
  958W        W64902  19.211  28.018   1.275
  959W        W64903  44.489  40.942   0.799
  960W        W64904  17.744  36.564  10.634
  961W        W64905   2.809  41.497  12.001
  962W        W64906  34.526   6.406  12.410
  963W        W64907  42.282  22.042  11.104
  964W        W64908  40.314  39.346   1.708
  965W        W64909   4.920  36.350   4.201
  966W        W64910  37.514  27.196  12.042
  967W        W64911  18.739  33.947  13.936
  968W        W64912  32.925  17.256  11.588
  969W        W64913  14.114   9.231   0.739
  970W        W64914  23.526  14.329   0.935
  971W        W64915  34.907  10.379  11.973
  972W        W64916  40.879   3.834   9.959
  973W        W64917   6.917   0.791  14.398
  974W        W64918  15.584  43.940   1.921
  975W        W64919  15.759  16.079   4.786
  976W        W64920  17.078  29.095   4.143
  977W        W64921  18.051   2.888  12.032
  978W        W64922  31.007  39.866  14.347
  979W        W64923  35.361  16.596   4.608
  980W        W64924   7.819   7.192   3.631
  981W        W64925  35.474  11.309  12.378
  982W        W64926   2.822  31.150   3.797
  983W        W64927   9.265  38.326  11.944
  984W        W64928  12.753  10.811   2.734
  985W        W64929  10.184  32.506  14.289
  986W        W64930  30.460  41.942   3.708
  987W        W64931   9.383  41.942   4.318
  988W        W64932   8.273   0.253   1.803
  989W        W64933  16.646  34.592   2.371
  990W        W64934  30.078  12.274   0.858
  991W        W64935  35.974  24.701  12.558
  992W        W64936  17.180  37.020  11.988
  993W        W64937  34.898  24.978   1.718
  994W        W64938  33.547   4.827   1.871
  995W        W64939   5.346  20.699   3.342
  996W        W64940  39.399  21.637  14.360
  997W        W64941   1.263  22.025   0.958
  998W        W64942  29.957  12.162   3.351
  999W        W64943  29.482  12.738  14.293
 1000W        W64944  38.074  31.486  10.981
 1001W        W64945   6.684  31.616  14.799
 1002W        W64946  27.548  12.248  11.395
 1003W        W64947  33.928   3.955   0.422
 1004W        W64948  16.810  18.738  14.302
 1005W        W64949  21.521  26.046   2.750
 1006W        W64950  23.583   2.414  13.449
 1007W        W64951  26.590  43.765   3.361
 1008W        W64952  32.093  44.846   0.482
 1009W        W64953   1.872  30.935   0.397
 1010W        W64954  11.658  32.404   0.752
 1011W        W64955  29.669  34.996   5.187
 1012W        W64956  15.822  38.058   0.740
 1013W        W64957  24.524  13.256   0.394
 1014W        W64958  44.842  34.012   2.862
 1015W        W64959  22.575   0.825  10.980
 1016W        W64960  25.621   3.283  13.983
 1017W        W64961  21.595  15.162   1.396
 1018W        W64962  28.112  23.030  12.984
 1019W        W64963  41.299  17.271   2.310
 1020W        W64964   1.425  42.005  10.512
 1021W        W64965   1.417  31.545  14.864
 1022W        W64966  43.006  14.111  14.337
 1023W        W64967   4.718  35.581   1.826
 1024W        W64968   9.813   5.368   0.813
 1025W        W64969  23.582  31.463   4.811
 1026W        W64970  24.175  40.905   3.837
 1027W        W64971  28.531  21.517   4.771
 1028W        W64972  26.661  44.505   3.810
 1029W        W64973  13.815  29.941   1.746
 1030W        W64974  37.496  31.020  14.796
 1031W        W64975  18.732  26.570   4.646
 1032W        W64976  38.849  31.415   4.291
 1033W        W64977  17.759  41.438   1.853
 1034W        W64978  22.142  28.651  13.920
 1035W        W64979  16.255   4.788  11.993
 1036W        W64980  25.664  42.032   2.189
 1037W        W64981   6.720   6.786  11.995
 1038W        W64982  28.029  32.588  14.776
 1039W        W64983  39.974  13.226   3.194
 1040W        W64984   3.433  24.010  14.345
 1041W        W64985  38.530  35.865  14.904
 1042W        W64986  43.866  30.567  14.840
 1043W        W64987   6.716  21.111  13.964
 1044W        W64988  26.073  36.851  13.912
 1045W        W64989   0.814  23.239   0.919
 1046W        W64990  17.795  27.622   3.347
 1047W        W64991  44.944  40.941  12.910
 1048W        W64992  20.566  28.065  13.860
 1049W        W64993  34.900  36.894  13.975
 1050W        W64994  28.099  11.338   0.784
 1051W        W64995  26.688  21.261   3.766
 1052W        W64996  26.996  43.889  11.038
 1053W        W64997  28.648   1.750  12.018
 1054W        W64998  22.111   8.714   1.212
 1055W        W64999  38.555  19.766   5.140
 1056W        W65000  25.206  33.444  13.538
 1057W        W65001  42.982  32.069  12.901
 1058W        W65002  37.545  35.554   3.722
 1059W        W65003  28.030   2.272  13.519
 1060W        W65004   3.931  19.249   1.233
 1061W        W65005   5.254  16.793  10.613
 1062W        W65006  10.289  24.556   2.182
 1063W        W65007  15.650   2.905   4.727
 1064W        W65008  35.448  17.726   2.297
 1065W        W65009   0.935   7.678  10.004
 1066W        W65010  29.631   6.367  13.033
 1067W        W65011  33.558   6.247   3.823
 1068W        W65012   9.713  36.507  12.513
 1069W        W65013   9.218  24.219  11.465
 1070W        W65014  24.519   5.927  13.836
 1071W        W65015  31.906  42.918   4.628
 1072W        W65016  15.762   8.786   2.212
 1073W        W65017  27.969  35.033   0.741
 1074W        W65018   8.722  20.185   3.846
 1075W        W65019   8.674  18.206  13.843
 1076W        W65020  36.586  38.072   4.336
 1077W        W65021  39.546   5.300   3.344
 1078W        W65022  32.130  44.926  13.877
 1079W        W65023  37.906  26.585   4.652
 1080W        W65024  12.798   6.206   2.360
 1081W        W65025  23.122  19.747  14.839
 1082W        W65026   1.409  15.810   0.739
 1083W        W65027  39.374  31.988   4.311
 1084W        W65028  20.623  31.933  14.425
 1085W        W65029  11.228  13.344   3.337
 1086W        W65030  15.692  40.539   4.336
 1087W        W65031   8.794  37.948  11.909
 1088W        W65032  39.357  25.967   3.775
 1089W        W65033   6.824   2.441   4.714
 1090W        W65034  41.995  44.469  10.935
 1091W        W65035  41.395  44.319   0.375
 1092W        W65036   6.876  32.475  14.769
 1093W        W65037  34.995  15.731  11.389
 1094W        W65038  34.050   9.662  13.966
 1095W        W65039  32.599  29.943  14.500
 1096W        W65040  29.614  31.047  11.114
 1097W        W65041  18.084  24.649   4.122
 1098W        W65042   4.433  31.930  14.436
 1099W        W65043   7.365  24.080   4.142
 1100W        W65044   3.811  25.166  11.082
 1101W        W65045  13.714  36.902  13.827
 1102W        W65046  41.869  41.524  10.510
 1103W        W65047   3.405  27.968   0.419
 1104W        W65048   9.192  29.068  11.031
 1105W        W65049  22.702  40.834  13.037
 1106W        W65050  31.488  44.282  10.477
 1107W        W65051  25.568   4.840  11.124
 1108W        W65052  31.018  40.844   1.757
 1109W        W65053  35.908  16.573   2.252
 1110W        W65054   8.772  43.344  13.354
 1111W        W65055  30.567  10.832   2.202
 1112W        W65056  40.447   7.229   0.411
 1113W        W65057  38.472  37.360   4.826
 1114W        W65058   1.312  14.318  14.292
 1115W        W65059   4.394  40.508   0.454
 1116W        W65060   3.396  36.368  13.904
 1117W        W65061  23.110  29.627   4.811
 1118W        W65062  34.437  22.737   1.395
 1119W        W65063  30.635  19.683  10.521
 1120W        W65064  13.713  38.027  12.993
 1121W        W65065   1.908  23.125  13.931
 1122W        W65066  26.657  10.157   0.903
 1123W        W65067  21.577  14.159   2.250
 1124W        W65068   7.388   0.382   3.208
 1125W        W65069  18.166   3.445   4.680
 1126W        W65070  18.733   4.718  11.913
 1127W        W65071  19.735   7.345   2.727
 1128W        W65072  18.120  36.585   3.262
 1129W        W65073  16.281  13.199   0.404
 1130W        W65074   9.773  23.098   3.651
 1131W        W65075  35.576  17.663   3.244
 1132W        W65076  39.905  37.037  12.959
 1133W        W65077   6.268  38.486   1.260
 1134W        W65078  22.718   6.387   2.403
 1135W        W65079  33.387  42.367  12.577
 1136W        W65080  31.585  20.178   3.252
 1137W        W65081  10.266   6.327  13.852
 1138W        W65082  36.994  34.904  14.281
 1139W        W65083  18.559  39.896   0.874
 1140W        W65084  28.680  40.863  13.027
 1141W        W65085  25.058  17.280  12.064
 1142W        W65086  36.937  40.525  11.876
 1143W        W65087  41.007  12.333  10.549
 1144W        W65088  23.522   9.850  10.496
 1145W        W65089  11.805  42.912   2.876
 1146W        W65090  43.980  32.394   3.369
 1147W        W65091  16.719   3.314   0.788
 1148W        W65092  38.938  26.983   4.826
 1149W        W65093   6.287   8.357  14.878
 1150W        W65094  27.963  42.913   5.095
 1151W        W65095  42.975  18.063  12.863
 1152W        W65096  40.419   4.407   3.230
 1153W        W65097   5.282  22.123  12.947
 1154W        W65098  44.387   7.403   0.253
 1155W        W65099  27.137  38.389  14.482
 1156W        W65100  15.619  27.659   4.617
 1157W        W65101  12.287   1.917   3.338
 1158W        W65102  28.446  18.099  14.998
 1159W        W65103  19.731  32.566   3.712
 1160W        W65104   2.366  40.353   3.177
 1161W        W65105  26.468  33.596   3.219
 1162W        W65106  12.705  19.081   2.299
 1163W        W65107  38.369  21.075   3.224
 1164W        W65108   6.416  31.064   0.956
 1165W        W65109   4.375  20.127  12.485
 1166W        W65110  26.012  43.852   3.704
 1167W        W65111  22.599  38.040   4.804
 1168W        W65112  34.959  28.106   2.182
 1169W        W65113  34.479  32.579   0.378
 1170W        W65114   4.832  21.198  12.068
 1171W        W65115  19.728  41.027   4.287
 1172W        W65116   3.300   4.246  10.161
 1173W        W65117  41.851  43.308  11.987
 1174W        W65118  18.677   7.263  11.080
 1175W        W65119   7.396   6.279  10.589
 1176W        W65120  12.712  31.580   1.381
 1177W        W65121   8.661  25.174   3.864
 1178W        W65122   9.348   9.204   3.672
 1179W        W65123  34.433   6.885   3.843
 1180W        W65124  44.772  16.199   0.459
 1181W        W65125  18.563  31.047  10.467
 1182W        W65126  10.375  29.954  12.479
 1183W        W65127  17.640  16.141  11.456
 1184W        W65128  33.946  27.509  11.511
 1185W        W65129  38.571  24.228   1.805
 1186W        W65130  20.071  38.482  10.936
 1187W        W65131  37.444  13.312  13.453
 1188W        W65132  11.764  28.576   1.402
 1189W        W65133  15.190  37.544   3.325
 1190W        W65134  33.106   1.341  13.484
 1191W        W65135  37.883  22.022  13.900
 1192W        W65136  14.260   2.276   1.718
 1193W        W65137   8.215   2.240  13.475
 1194W        W65138  42.499  19.039  12.490
 1195W        W65139  39.336  28.980  14.946
 1196W        W65140   0.443   0.743   0.862
 1197W        W65141  13.303  12.163  11.505
 1198W        W65142  23.678  43.313  12.561
 1199W        W65143  28.944  37.456   2.268
 1200W        W65144  38.962  27.532  14.901
 1201W        W65145  15.710   4.418   0.388
 1202W        W65146   1.273  42.836  13.460
 1203W        W65147  38.475   5.898  10.008
 1204W        W65148  24.524  27.143  12.579
 1205W        W65149  13.678  23.681  10.960
 1206W        W65150   6.268   8.206   1.744
 1207W        W65151  22.529   9.672   2.299
 1208W        W65152  19.133  40.955   4.298
 1209W        W65153  18.115  11.836  10.146
 1210W        W65154  23.610  19.760   0.398
 1211W        W65155  37.490  13.764   3.163
 1212W        W65156  42.814  14.242   0.963
 1213W        W65157  43.371  26.172   4.239
 1214W        W65158  18.202  31.949  14.463
 1215W        W65159   3.256  11.697  11.470
 1216W        W65160  11.233  38.933   4.696
 1217W        W65161   1.240   7.271   9.503
 1218W        W65162  29.479  38.345   2.881
 1219W        W65163  34.972  19.742   1.725
 1220W        W65164  14.332   8.359   4.115
 1221W        W65165  40.438  22.684   3.685
 1222W        W65166   2.258  34.989  13.380
 1223W        W65167  12.667  32.526   0.308
 1224W        W65168  14.599  29.491  14.890
 1225W        W65169  40.494  24.692   4.789
 1226W        W65170  23.241  11.751  13.464
 1227W        W65171  29.508  25.966  10.887
 1228W        W65172  21.559  31.498   4.679
 1229W        W65173  31.631   7.812  11.447
 1230W        W65174  21.103   6.681  14.857
 1231W        W65175  37.513  31.042   2.403
 1232W        W65176  43.867   0.972   1.443
 1233W        W65177  43.987   3.720  13.012
 1234W        W65178  22.232  21.060   3.151
 1235W        W65179  12.704  20.264   2.836
 1236W        W65180   0.923  18.567  14.841
 1237W        W65181  36.037   7.678   2.320
 1238W        W65182   1.463  24.589   0.463
 1239W        W65183  25.588  34.936  12.865
 1240W        W65184  24.107  21.628  11.929
 1241W        W65185  23.204  43.424   2.729
 1242W        W65186  32.454  22.010   2.666
 1243W        W65187  24.218   4.323  11.417
 1244W        W65188   9.200  22.529   4.273
 1245W        W65189   2.297  37.070   2.692
 1246W        W65190  32.976  19.676   0.769
 1247W        W65191   9.356  33.387  14.968
 1248W        W65192   8.276  19.152   1.406
 1249W        W65193  42.390  19.055   2.841
 1250W        W65194  25.095  11.721  12.906
 1251W        W65195   5.777  30.563   0.866
 1252W        W65196  15.299  37.919  14.837
 1253W        W65197  21.073  14.663   3.253
 1254W        W65198  37.010  28.071  13.383
 1255W        W65199   8.258  27.034   1.214
 1256W        W65200  25.046   6.264   0.415
 1257W        W65201  32.091  11.301  12.504
 1258W        W65202  20.672  32.888  13.509
 1259W        W65203  35.521  19.746  13.931
 1260W        W65204  27.119   8.806   3.661
 1261W        W65205  29.565   6.796  11.087
 1262W        W65206  43.349  42.882   5.317
 1263W        W65207   3.277  21.526   3.329
 1264W        W65208   0.936  38.434   0.403
 1265W        W65209  30.598  29.112  13.050
 1266W        W65210  36.060  11.172  14.836
 1267W        W65211  28.611  14.591  13.988
 1268W        W65212  18.188  22.241   5.181
 1269W        W65213  16.209  34.408   1.700
 1270W        W65214  17.170  22.172  14.009
 1271W        W65215  30.635   0.781  13.467
 1272W        W65216  23.079   7.714   1.223
 1273W        W65217  38.420   0.394   4.726
 1274W        W65218  33.996   7.714  11.593
 1275W        W65219  18.157  41.020  14.023
 1276W        W65220  28.520  29.603   4.242
 1277W        W65221  29.159  34.960   2.258
 1278W        W65222  42.367   4.223   0.858
 1279W        W65223   0.396  30.472  11.581
 1280W        W65224  43.838  15.327  10.897
 1281W        W65225  19.249  25.615  14.291
 1282W        W65226  21.640   8.405  11.068
 1283W        W65227  43.513   6.761  11.990
 1284W        W65228  23.680  21.160  12.949
 1285W        W65229  23.220   5.806   2.342
 1286W        W65230  33.476  13.253   3.862
 1287W        W65231  30.958  25.490   2.238
 1288W        W65232   4.790  24.614  10.423
 1289W        W65233  41.517   5.792   4.305
 1290W        W65234  32.601  42.817   1.261
 1291W        W65235   1.403  12.184  11.089
 1292W        W65236  24.674  38.353   2.779
 1293W        W65237  25.125  15.294  12.543
 1294W        W65238  21.574  18.086  10.631
 1295W        W65239  37.522  33.569   2.279
 1296W        W65240   5.818  30.025   2.727
 1297W        W65241  17.707  40.967   1.341
 1298W        W65242   8.850  17.626   4.662
 1299W        W65243  34.940  10.632   4.639
 1300W        W65244  29.506  34.030   1.793
 1301W        W65245  28.948  19.643  10.116
 1302W        W65246  12.130  16.631   2.744
 1303W        W65247   3.814  33.085   1.276
 1304W        W65248  17.133   1.240  14.415
 1305W        W65249  31.460  18.773  10.607
 1306W        W65250  13.625   7.866   4.167
 1307W        W65251  29.002  18.111  12.892
 1308W        W65252  26.064  21.030  11.403
 1309W        W65253  37.051  29.573   2.377
 1310W        W65254  14.228  27.546   3.324
 1311W        W65255  18.609   0.427   1.745
 1312W        W65256  35.542  37.506  11.389
 1313W        W65257  25.672  39.887   0.956
 1314W        W65258  34.960  26.503  13.062
 1315W        W65259  39.829  20.563   0.786
 1316W        W65260  12.685  12.726   4.137
 1317W        W65261  23.073  14.828   3.210
 1318W        W65262  32.525  26.095   0.372
 1319W        W65263  36.842  18.133  13.383
 1320W        W65264  12.620  27.681   0.810
 1321W        W65265  15.595  22.054   4.783
 1322W        W65266   1.905  24.681  11.494
 1323W        W65267  22.177  15.265  11.100
 1324W        W65268  13.624  26.655   2.292
 1325W        W65269   4.911  35.041  12.391
 1326W        W65270  40.373   5.727   3.753
 1327W        W65271  36.996  37.877   0.797
 1328W        W65272  43.014  22.646  14.279
 1329W        W65273  15.687  38.067   3.378
 1330W        W65274  33.392  44.413   3.705
 1331W        W65275  43.851  30.623  12.848
 1332W        W65276  41.970  32.476  12.346
 1333W        W65277  14.215  24.139  11.978
 1334W        W65278   7.220   3.254   2.413
 1335W        W65279  37.931  44.374  13.975
 1336W        W65280  38.410  29.632   3.860
 1337W        W65281  43.332  27.507   0.300
 1338W        W65282   4.352  31.517  13.825
 1339W        W65283  30.142   0.366  14.936
 1340W        W65284  41.839   8.274   0.394
 1341W        W65285  37.367  22.540  11.415
 1342W        W65286   2.258  32.971  11.610
 1343W        W65287  28.998   0.768  13.347
 1344W        W65288   8.834   6.286  14.479
 1345W        W65289   2.403  34.088  10.481
 1346W        W65290  42.806  20.760  12.920
 1347W        W65291  12.770  24.037  14.319
 1348W        W65292   6.368  27.942  12.861
 1349W        W65293   1.931   9.734   2.876
 1350W        W65294  22.113  26.618   0.878
 1351W        W65295   9.864  34.867   1.752
 1352W        W65296  39.392   9.221   0.415
 1353W        W65297  38.492   1.925  10.119
 1354W        W65298   1.801  30.059  12.469
 1355W        W65299  17.732   1.885  11.569
 1356W        W65300  16.803   0.255  14.848
 1357W        W65301  30.465  25.997  12.977
 1358W        W65302   0.780  33.055   3.198
 1359W        W65303  28.459  43.770   2.291
 1360W        W65304   7.729   4.308  12.388
 1361W        W65305   9.689  33.427  13.870
 1362W        W65306  15.791   9.175  11.962
 1363W        W65307  37.065   5.926  11.587
 1364W        W65308  25.098  15.307  13.799
 1365W        W65309  39.905  34.597   4.829
 1366W        W65310  44.944  10.304   4.244
 1367W        W65311  14.801  28.032  10.509
 1368W        W65312   1.950  14.631  11.858
 1369W        W65313  33.020   3.816  11.979
 1370W        W65314  29.516  42.895  13.424
 1371W        W65315   2.387  33.538   2.336
 1372W        W65316  34.944  43.504   3.194
 1373W        W65317  12.255   9.808   2.245
 1374W        W65318  14.234  36.080   2.880
 1375W        W65319  43.290  30.445  11.898
 1376W        W65320  43.800  21.065   1.233
 1377W        W65321  25.155   5.278   0.960
 1378W        W65322  22.737  19.534   4.317
 1379W        W65323  43.894  26.517  11.943
 1380W        W65324  40.978  22.743   1.344
 1381W        W65325  42.801  18.781  12.064
 1382W        W65326  10.874  20.226   0.945
 1383W        W65327  38.409  12.180  12.463
 1384W        W65328  44.352  32.999  13.036
 1385W        W65329  13.764  10.211  13.317
 1386W        W65330   5.751   0.982   2.212
 1387W        W65331  25.477  31.943  14.905
 1388W        W65332  39.834   8.202  12.401
 1389W        W65333  43.421  32.581  14.348
 1390W        W65334  35.914  37.887  11.517
 1391W        W65335  36.943  38.057   2.760
 1392W        W65336   8.266   8.400  14.929
 1393W        W65337  37.990   7.313   1.382
 1394W        W65338  25.178  21.692  13.976
 1395W        W65339  13.131   5.218  12.540
 1396W        W65340  30.037  42.334   0.442
 1397W        W65341  28.664  22.181  13.880
 1398W        W65342  33.921  41.867  10.988
 1399W        W65343  13.112   6.246  10.518
 1400W        W65344  16.595  16.717   1.750
 1401W        W65345  16.615   3.817   3.200
 1402W        W65346  36.353   6.342  14.976
 1403W        W65347   2.301  41.948   1.872
 1404W        W65348   1.854  43.986   0.846
 1405W        W65349  32.066  26.552   1.226
 1406W        W65350   1.975  32.456  14.833
 1407W        W65351  21.593  44.894  14.488
 1408W        W65352  21.523  43.809   1.311
 1409W        W65353  13.203  27.505  13.350
 1410W        W65354  35.517  38.462   2.782
 1411W        W65355  39.972  32.071  13.367
 1412W        W65356   9.850  10.879  12.383
 1413W        W65357  17.795  18.573  10.476
 1414W        W65358   6.904  11.136  12.024
 1415W        W65359   0.476  13.229  11.581
 1416W        W65360  26.960  23.090  14.894
 1417W        W65361  37.862  22.061  12.415
 1418W        W65362  40.308  32.404   2.662
 1419W        W65363  26.127  24.037   4.241
 1420W        W65364  15.104  13.269   1.236
 1421W        W65365  10.291   9.754   1.382
 1422W        W65366  21.221   6.820  10.582
 1423W        W65367  36.979  34.954  12.826
 1424W        W65368   8.286  39.477  14.364
 1425W        W65369   7.250  12.155   2.720
 1426W        W65370  26.508  11.784   0.356
 1427W        W65371   6.703   8.845   0.857
 1428W        W65372   7.876   7.847   0.348
 1429W        W65373   4.765  20.255  11.547
 1430W        W65374  33.612  35.951  11.063
 1431W        W65375  41.370  37.842  11.427
 1432W        W65376   0.922  30.433  11.374
 1433W        W65377  24.649  19.650   4.309
 1434W        W65378   1.351  41.387  14.387
 1435W        W65379  43.475  13.272  10.632
 1436W        W65380  17.207  25.157  12.441
 1437W        W65381  30.037  28.675   1.403
 1438W        W65382  12.349  16.685   3.361
 1439W        W65383  36.360  31.511   4.271
 1440W        W65384  18.257  27.647   0.965
 1441W        W65385  32.562  40.310   4.224
 1442W        W65386  29.483  15.704   2.185
 1443W        W65387  27.973  41.792  12.345
 1444W        W65388  35.854  34.066   1.765
 1445W        W65389  10.718  42.009   1.720
 1446W        W65390  39.013  34.554   9.980
 1447W        W65391  32.620   0.324   1.349
 1448W        W65392  43.789  14.620  13.428
 1449W        W65393   9.314  31.494   4.670
 1450W        W65394   0.432   6.418   2.269
 1451W        W65395   7.352   1.345   2.293
 1452W        W65396  27.486   9.255  12.479
 1453W        W65397  39.932   5.415  14.413
 1454W        W65398   2.892  42.469   0.290
 1455W        W65399  12.830  37.516  10.522
 1456W        W65400  40.920  15.189   1.829
 1457W        W65401  28.621  14.630   1.402
 1458W        W65402   7.197  20.756   1.425
 1459W        W65403  11.745   2.879   3.836
 1460W        W65404  10.349   7.790  10.910
 1461W        W65405  38.842   0.875   4.225
 1462W        W65406   1.795  22.746   3.205
 1463W        W65407  30.442   2.360  13.470
 1464W        W65408  33.401   0.916  13.826
 1465W        W65409  28.564  36.352  13.887
 1466W        W65410  41.000  35.374  11.877
 1467W        W65411  29.609  26.590  10.640
 1468W        W65412  18.575  10.843  13.845
 1469W        W65413   5.359   8.669  12.508
 1470W        W65414  25.215  41.801   1.429
 1471W        W65415  38.934  35.914   3.667
 1472W        W65416  17.667  34.958   4.144
 1473W        W65417  26.073  41.464  14.293
 1474W        W65418  23.615  13.344   3.768
 1475W        W65419  38.994  25.118   2.319
 1476W        W65420   7.404  28.038  14.465
 1477W        W65421   4.817   8.875  12.452
 1478W        W65422  29.568  12.347   2.685
 1479W        W65423   6.268  13.190   4.319
 1480W        W65424  18.111  27.566  11.536
 1481W        W65425  22.583  15.738   4.716
 1482W        W65426  11.703  10.660  13.524
 1483W        W65427  13.337  42.404   1.387
 1484W        W65428  26.595   4.883  10.642
 1485W        W65429  22.663  10.363  10.462
 1486W        W65430   5.845  32.918   3.177
 1487W        W65431  25.130   0.985   3.160
 1488W        W65432  15.660   6.219  14.015
 1489W        W65433  41.869  32.569   1.724
 1490W        W65434  31.494  22.157   4.789
 1491W        W65435  28.655  30.020  13.800
 1492W        W65436  10.241  33.103  11.064
 1493W        W65437  12.755  13.112   3.701
 1494W        W65438  11.247   6.279   4.162
 1495W        W65439  34.076   0.430  10.498
 1496W        W65440  15.150  28.636   1.897
 1497W        W65441   3.303  39.452  12.950
 1498W        W65442  33.938   4.815   4.125
 1499W        W65443  42.445   6.395   3.342
 1500W        W65444  12.679   1.441  12.867
 1501W        W65445  33.454  10.851  14.764
 1502W        W65446  20.618  23.988   4.597
 1503W        W65447  28.001  28.521   2.333
 1504W        W65448   0.759  27.458   4.737
 1505W        W65449  33.049   6.761   2.794
 1506W        W65450  24.216  38.042  14.343
 1507W        W65451  35.437   4.365  11.612
 1508W        W65452  43.380  39.458   0.363
 1509W        W65453  37.930   9.873   3.837
 1510W        W65454  14.660   8.264  12.849
 1511W        W65455  39.833   0.798  10.539
 1512W        W65456  38.378  31.099  11.859
 1513W        W65457  21.110   4.440   3.796
 1514W        W65458  39.359  36.373   1.769
 1515W        W65459   8.311   5.193  10.425
 1516W        W65460  16.242   5.874  10.959
 1517W        W65461  12.664  44.328   2.830
 1518W        W65462  18.618  36.983  11.023
 1519W        W65463  36.870   0.362   1.718
 1520W        W65464  39.456  43.826   3.750
 1521W        W65465  26.029  18.133  14.330
 1522W        W65466  42.914  29.934  12.389
 1523W        W65467   7.412  24.550  14.979
 1524W        W65468  28.572  10.152   0.324
 1525W        W65469  17.714   1.390  14.766
 1526W        W65470  36.931  17.648  12.012
 1527W        W65471  41.485  23.709  10.500
 1528W        W65472  11.794  44.922   3.377
 1529W        W65473  34.508   7.708   4.309
 1530W        W65474  20.673   5.380   0.299
 1531W        W65475  16.699  31.897  12.041
 1532W        W65476  31.460  27.130   3.336
 1533W        W65477  12.256  11.815   4.718
 1534W        W65478   5.380  21.528   0.423
 1535W        W65479   0.411  42.379   3.773
 1536W        W65480  28.953  36.002   4.709
 1537W        W65481  34.393  14.779   0.312
 1538W        W65482  13.206  32.920  12.873
 1539W        W65483  36.451  28.591   4.763
 1540W        W65484  28.576   4.268   4.618
 1541W        W65485   7.275   0.278  12.372
 1542W        W65486   7.869  44.269  10.003
 1543W        W65487  25.179  26.164   4.252
 1544W        W65488  41.038  15.609  11.540
 1545W        W65489  31.077  28.944  12.341
 1546W        W65490   8.380  26.106  13.903
 1547W        W65491   5.836  29.057  11.987
 1548W        W65492  37.495  11.372  11.129
 1549W        W65493  44.382  31.412  14.018
 1550W        W65494  27.097  12.271   4.827
 1551W        W65495   5.851  34.035  14.829
 1552W        W65496  36.857  42.902   0.875
 1553W        W65497  43.429  29.941   3.832
 1554W        W65498   0.760   4.713  13.449
 1555W        W65499   9.211   4.337  11.972
 1556W        W65500   8.880   2.395  12.006
 1557W        W65501  20.139  40.442  10.582
 1558W        W65502  12.756  41.016  11.578
 1559W        W65503  17.282  11.852   3.217
 1560W        W65504  27.600  32.538   1.903
 1561W        W65505  44.953   0.852  11.558
 1562W        W65506  26.635   7.800   0.936
 1563W        W65507  37.507  18.664   0.332
 1564W        W65508   3.232  31.531   0.783
 1565W        W65509  38.040  18.702   2.185
 1566W        W65510  26.637   7.896  13.448
 1567W        W65511  31.126  33.463   2.732
 1568W        W65512  39.472  40.541  14.326
 1569W        W65513  14.726  35.384   3.176
 1570W        W65514  30.444  19.743   3.355
 1571W        W65515  16.644  25.140  11.963
 1572W        W65516  31.953   2.387  10.504
 1573W        W65517   5.913  13.792   4.304
 1574W        W65518   5.838  37.031   2.726
 1575W        W65519  28.158  31.131  13.531
 1576W        W65520  18.636   2.883  11.481
 1577W        W65521  25.035  16.223   4.809
 1578W        W65522   8.369  21.141   0.964
 1579W        W65523  34.470   7.817  11.080
 1580W        W65524  40.887  12.277   4.720
 1581W        W65525   5.886  32.102  14.959
 1582W        W65526  19.137   8.219  10.916
 1583W        W65527   9.209  31.942   5.189
 1584W        W65528  24.063  36.379  11.418
 1585W        W65529  44.838  43.844  12.470
 1586W        W65530  14.221   3.459  14.775
 1587W        W65531  18.100  37.426   3.824
 1588W        W65532  43.502   8.701   2.270
 1589W        W65533  42.448   3.411   1.233
 1590W        W65534   2.756   1.379  10.934
 1591W        W65535  12.145  17.155   4.663
 1592W        W65536  26.585  36.370   3.275
 1593W        W65537   2.344  41.867  12.539
 1594W        W65538   5.878  20.620  13.530
 1595W        W65539  20.041  18.232   0.804
 1596W        W65540  11.718  27.537  11.081
 1597W        W65541  20.720  43.892  13.018
 1598W        W65542  23.631   9.741   4.666
 1599W        W65543  15.692  28.160   0.355
 1600W        W65544  11.709  39.374   2.723
 1601W        W65545  42.878  43.499   2.390
 1602W        W65546  24.533   5.706   1.252
 1603W        W65547  32.543  11.799  11.427
 1604W        W65548  20.251  23.152   2.765
 1605W        W65549  29.098  13.832  11.377
 1606W        W65550  27.514  32.450  11.954
 1607W        W65551   0.975   5.919   9.674
 1608W        W65552  14.308  17.610  12.923
 1609W        W65553   4.887  13.766  10.437
 1610W        W65554   4.699   4.306  11.855
 1611W        W65555  29.051  31.538   2.703
 1612W        W65556  10.841  43.412  13.013
 1613W        W65557   8.785  27.574   2.677
 1614W        W65558  26.102   4.309   3.361
 1615W        W65559   3.324  35.997  13.012
 1616W        W65560  10.719  33.018   1.444
 1617W        W65561  26.595  12.772   1.699
 1618W        W65562  23.576  12.239  10.567
 1619W        W65563  18.747  13.280   3.717
 1620W        W65564  24.974  26.463  14.845
 1621W        W65565  18.566  42.883   4.644
 1622W        W65566  36.425   3.739   4.678
 1623W        W65567  43.007  31.947   0.387
 1624W        W65568  37.043  39.514   0.291
 1625W        W65569  33.976  34.371   2.833
 1626W        W65570  26.093  37.891  10.949
 1627W        W65571  29.616  12.715   3.794
 1628W        W65572  15.783   9.227   1.861
 1629W        W65573  25.140  19.165   1.710
 1630W        W65574  20.272   7.263   4.838
 1631W        W65575  10.221  38.489   1.445
 1632W        W65576  16.163   3.938  14.353
 1633W        W65577  13.281  41.887   0.732
 1634W        W65578  29.620   6.249  14.827
 1635W        W65579  22.510  27.564  12.421
 1636W        W65580   7.732  17.703  14.453
 1637W        W65581  17.222  18.655   4.751
 1638W        W65582   7.772   0.296   2.718
 1639W        W65583  26.957  12.739   1.782
 1640W        W65584  35.910  27.547   3.823
 1641W        W65585  22.654  15.157  12.861
 1642W        W65586  37.508  29.472   5.186
 1643W        W65587  13.238   3.745   0.798
 1644W        W65588  32.026  19.635   4.655
 1645W        W65589  21.130  22.165  14.844
 1646W        W65590  21.218  18.586  13.343
 1647W        W65591  42.325   8.778  10.606
 1648W        W65592   0.316  40.803   4.353
 1649W        W65593  22.717  19.192   2.833
 1650W        W65594  13.348  27.982   4.690
 1651W        W65595  44.872  11.206   1.219
 1652W        W65596  43.837  15.821  11.020
 1653W        W65597  29.176  34.050  10.965
 1654W        W65598  21.641   1.441   2.780
 1655W        W65599  20.731  14.815  14.367
 1656W        W65600   2.731  19.623   0.761
 1657W        W65601  42.787   2.440  14.014
 1658W        W65602  27.679  19.582   1.798
 1659W        W65603  11.372  39.993  10.906
 1660W        W65604  20.029  35.493   4.809
 1661W        W65605  21.692  34.482   1.930
 1662W        W65606  15.809   5.844   0.874
 1663W        W65607  26.653  27.558  10.625
 1664W        W65608  22.583  10.831   4.344
 1665W        W65609  26.106   3.353   4.180
 1666W        W65610  14.741  29.632   0.861
 1667W        W65611  17.075  27.494   0.817
 1668W        W65612  32.586  19.558   3.750
 1669W        W65613  36.986   7.339  10.924
 1670W        W65614   9.744   0.357   2.781
 1671W        W65615  43.877  23.161  12.360
 1672W        W65616   7.350  11.739   0.881
 1673W        W65617  42.470  41.428   2.189
 1674W        W65618   3.398   5.433  13.937
 1675W        W65619  34.403   1.424   2.841
 1676W        W65620  23.151  35.370   3.382
 1677W        W65621  16.770   5.918   5.613
 1678W        W65622  20.097   4.335   3.725
 1679W        W65623  31.427  23.515   4.313
 1680W        W65624  24.700  19.209  12.064
 1681W        W65625  19.174  29.922   4.316
 1682W        W65626   1.407  29.515   4.208
 1683W        W65627  29.039  12.724  14.984
 1684W        W65628  35.058   2.330   1.792
 1685W        W65629  30.584   7.769   0.364
 1686W        W65630   7.864  33.908  12.460
 1687W        W65631  30.974  19.117   0.292
 1688W        W65632  25.614  44.505   2.758
 1689W        W65633  18.553  11.651  13.464
 1690W        W65634  30.150  34.531  10.613
 1691W        W65635   4.316   6.223  11.529
 1692W        W65636  36.479  28.493  14.920
 1693W        W65637  33.512   1.890   0.328
 1694W        W65638  11.299   1.960  12.387
 1695W        W65639  39.049   5.342   5.156
 1696W        W65640  18.109  23.725   3.822
 1697W        W65641  10.327  42.468   1.759
 1698W        W65642   6.412  25.556  14.775
 1699W        W65643  37.502  26.150   3.233
 1700W        W65644  10.753  32.929   3.172
 1701W        W65645  37.358  29.601  13.874
 1702W        W65646  25.624   5.252  13.918
 1703W        W65647  40.799  21.742   0.879
 1704W        W65648  11.835  19.535   0.966
 1705W        W65649   6.335  44.495  13.914
 1706W        W65650  26.133  43.859  14.960
 1707W        W65651  32.976  39.883   3.321
 1708W        W65652  40.819  35.392  12.373
 1709W        W65653  41.836  15.268   2.798
 1710W        W65654  30.463  19.733   2.206
 1711W        W65655  26.050  28.045  14.932
 1712W        W65656   4.368  39.896  10.501
 1713W        W65657  37.514  33.385  12.924
 1714W        W65658  44.430   5.423   4.690
 1715W        W65659   0.407  40.370  12.866
 1716W        W65660  35.553  35.502  14.930
 1717W        W65661  35.905   3.849  10.633
 1718W        W65662  44.502  35.508   0.390
 1719W        W65663  19.673  21.214   2.873
 1720W        W65664  28.935  44.402   4.195
 1721W        W65665  24.723  37.389   5.122
 1722W        W65666  16.713   9.822   4.339
 1723W        W65667  30.586   0.871   0.264
 1724W        W65668   1.820  41.301  13.865
 1725W        W65669  43.450  19.637  14.993
 1726W        W65670  10.279   3.331   3.169
 1727W        W65671  19.140  24.548   4.257
 1728W        W65672   5.199   7.810   0.736
 1729W        W65673  16.766  35.369  11.477
 1730W        W65674  11.814  35.999   4.261
 1731W        W65675  23.652  31.602  14.811
 1732W        W65676  28.184  34.560   4.276
 1733W        W65677   3.871  10.715   0.924
 1734W        W65678  36.471   0.379  12.072
 1735W        W65679  16.695  36.573   4.627
 1736W        W65680  18.137  39.825  10.979
 1737W        W65681  37.391  12.767  14.795
 1738W        W65682   1.279   7.365  14.989
 1739W        W65683  27.516  30.559  14.908
 1740W        W65684  14.228  18.126   3.704
 1741W        W65685  34.983  27.162   2.188
 1742W        W65686  37.919  19.150  12.870
 1743W        W65687  18.577  30.039   4.607
 1744W        W65688   8.759  22.183  10.585
 1745W        W65689  13.140  12.325   1.822
 1746W        W65690   2.910  27.560  13.926
 1747W        W65691  34.957  41.418   4.294
 1748W        W65692   2.753  44.296  11.127
 1749W        W65693  26.160  11.255   4.156
 1750W        W65694  15.237  44.324  11.915
 1751W        W65695  42.841  31.018   2.824
 1752W        W65696  43.009  13.742  11.031
 1753W        W65697   6.330   2.355  12.404
 1754W        W65698  16.660   9.191   4.127
 1755W        W65699  31.972  37.885   4.772
 1756W        W65700  33.551   8.883   0.919
 1757W        W65701  28.072  10.178  13.061
 1758W        W65702  27.528   8.765  12.937
 1759W        W65703  17.213  24.505   2.367
 1760W        W65704  21.049  30.417  13.974
 1761W        W65705  44.915  39.425   3.673
 1762W        W65706  44.420   4.739  12.851
 1763W        W65707  15.093  10.382   0.312
 1764W        W65708  42.339  10.151   0.415
 1765W        W65709  20.071  12.843   4.176
 1766W        W65710  39.441  32.900   1.330
 1767W        W65711  28.495  39.515   5.148
 1768W        W65712  32.994  42.856  13.392
 1769W        W65713  21.673  29.973   3.270
 1770W        W65714  19.282  30.927  10.641
 1771W        W65715  24.029  21.229   1.871
 1772W        W65716  23.504  11.199  13.041
 1773W        W65717  11.833  21.180  10.900
 1774W        W65718   2.758  12.282  12.830
 1775W        W65719  24.682   0.761   0.338
 1776W        W65720   2.742  32.549   2.281
 1777W        W65721  11.723   3.371  11.490
 1778W        W65722  21.648  27.176   3.675
 1779W        W65723   6.855  26.063  11.504
 1780W        W65724  21.642  20.735   0.296
 1781W        W65725  30.908   9.203   2.335
 1782W        W65726  16.767  28.155   3.176
 1783W        W65727  39.314  28.017   0.922
 1784W        W65728  37.054  19.193  12.897
 1785W        W65729   6.919  44.963  13.472
 1786W        W65730   6.801  27.636   4.302
 1787W        W65731  23.014   7.282  12.558
 1788W        W65732  10.677  18.629   3.643
 1789W        W65733   4.328  37.342  13.814
 1790W        W65734  34.514  11.200   3.651
 1791W        W65735  40.991  17.295   2.202
 1792W        W65736  21.755  25.042  11.062
 1793W        W65737  23.540  44.982  12.871
 1794W        W65738   8.873  28.143   0.862
 1795W        W65739  40.474  44.811  11.464
 1796W        W65740   6.206  35.455  11.582
 1797W        W65741  36.943   2.814   3.706
 1798W        W65742  23.521  17.621   3.797
 1799W        W65743  32.630   6.856  12.458
 1800W        W65744   6.362   8.832   4.331
 1801W        W65745  25.091  36.407   4.819
 1802W        W65746  19.261   9.768   2.222
 1803W        W65747  10.359  35.604   4.699
 1804W        W65748   2.802   2.886   3.681
 1805W        W65749  27.018  10.343   1.800
 1806W        W65750   3.841  28.975  13.912
 1807W        W65751  42.324  14.206   0.825
 1808W        W65752  13.349   3.294  12.969
 1809W        W65753   6.316  24.990   4.756
 1810W        W65754  38.863  20.626   1.385
 1811W        W65755  42.498  41.977   0.849
 1812W        W65756   1.264  27.681  13.902
 1813W        W65757  26.536  30.045  13.329
 1814W        W65758  15.593  21.694  14.795
 1815W        W65759  27.961  13.688   3.299
 1816W        W65760  28.047  37.457  10.444
 1817W        W65761  19.185  10.331   1.903
 1818W        W65762  33.880  10.744  12.367
 1819W        W65763  35.096   3.255  12.380
 1820W        W65764  26.024   2.320   2.212
 1821W        W65765  31.517  23.096   4.278
 1822W        W65766   3.895  20.076   3.792
 1823W        W65767  16.138  28.107  12.053
 1824W        W65768  10.298   5.757   4.166
 1825W        W65769  31.402  40.518   0.781
 1826W        W65770   7.894  41.820  11.064
 1827W        W65771  39.487  12.840   3.345
 1828W        W65772   0.838  20.553  14.793
 1829W        W65773  30.499  29.436  10.470
 1830W        W65774   8.823   1.939   1.353
 1831W        W65775   0.926  23.058   4.282
 1832W        W65776  37.087   9.158   1.887
 1833W        W65777   7.873  15.823   5.276
 1834W        W65778  27.606  37.947   1.280
 1835W        W65779  34.561  41.381  11.605
 1836W        W65780  10.363  11.769   4.618
 1837W        W65781  12.763  36.429  11.933
 1838W        W65782   9.704  20.178   2.180
 1839W        W65783  27.643  34.104  12.481
 1840W        W65784  17.730  13.609   0.842
 1841W        W65785  43.417  39.006   1.351
 1842W        W65786  35.550  39.507   3.630
 1843W        W65787  35.038  32.052   2.193
 1844W        W65788   3.435  43.274   4.224
 1845W        W65789  23.014   3.252  11.125
 1846W        W65790  26.067  15.654  11.571
 1847W        W65791   4.875  42.469  12.450
 1848W        W65792  34.875   3.413   0.387
 1849W        W65793  32.056  33.438   0.902
 1850W        W65794  43.790  18.619  13.834
 1851W        W65795   5.804  43.505  12.531
 1852W        W65796  27.576  22.603  10.488
 1853W        W65797  43.782   6.807  12.039
 1854W        W65798  41.507  34.985   1.912
 1855W        W65799   9.752  36.999  14.855
 1856W        W65800   7.847  16.715   2.714
 1857W        W65801   8.872  40.405  14.383
 1858W        W65802  40.353  43.940   3.245
 1859W        W65803   0.332   4.426   3.747
 1860W        W65804  11.797  40.807   2.202
 1861W        W65805  17.102  30.434  10.948
 1862W        W65806   3.803  32.024  14.338
 1863W        W65807  26.995  26.131   2.378
 1864W        W65808   7.865  10.253  13.957
 1865W        W65809  22.681  38.883  12.046
 1866W        W65810   2.924  21.108   3.307
 1867W        W65811  30.083   2.353   4.715
 1868W        W65812  35.570  44.914  11.441
 1869W        W65813  26.180  29.937  10.645
 1870W        W65814  15.684  25.072   3.711
 1871W        W65815  42.839   0.857  11.533
 1872W        W65816  32.890  39.486   0.891
 1873W        W65817   1.756  28.616  10.622
 1874W        W65818  44.774  42.406  13.855
 1875W        W65819  38.388  12.133   3.145
 1876W        W65820   7.397   7.726  14.500
 1877W        W65821  15.588  29.082   9.983
 1878W        W65822  40.509  23.618  10.567
 1879W        W65823  22.525  22.180   2.808
 1880W        W65824  32.627  21.035  14.442
 1881W        W65825  20.599   7.216  11.453
 1882W        W65826  16.623  40.051   4.278
 1883W        W65827  31.470  31.474  13.442
 1884W        W65828  32.038   4.219   0.730
 1885W        W65829  11.354  42.843   4.235
 1886W        W65830  40.991  42.954  14.405
 1887W        W65831  42.384  11.262   4.157
 1888W        W65832  38.878  42.329  12.354
 1889W        W65833  30.628  35.596   1.864
 1890W        W65834  24.724  26.128  10.450
 1891W        W65835   3.809  40.340   0.452
 1892W        W65836  23.727   6.395   4.173
 1893W        W65837  12.741  12.647  13.822
 1894W        W65838   0.866  15.738   0.954
 1895W        W65839  23.692  25.551   0.882
 1896W        W65840   1.932  44.371   9.960
 1897W        W65841   3.868  20.247  12.009
 1898W        W65842  43.363   6.185  14.903
 1899W        W65843  27.082  37.414   1.792
 1900W        W65844  30.949  23.624  14.451
 1901W        W65845  41.403  17.111  14.933
 1902W        W65846  26.653  14.665  13.339
 1903W        W65847  24.978  40.893   2.867
 1904W        W65848   5.927  28.050  10.956
 1905W        W65849  14.656  36.917   4.203
 1906W        W65850  31.949  14.113  12.885
 1907W        W65851  25.097  43.989   1.238
 1908W        W65852  18.602   7.807   2.261
 1909W        W65853  17.655  21.590   1.359
 1910W        W65854  33.563  11.311  11.458
 1911W        W65855  24.617  42.461  14.311
 1912W        W65856   7.839  30.484   0.889
 1913W        W65857  13.772   3.340   1.279
 1914W        W65858  19.252  31.143   3.713
 1915W        W65859  23.003   7.184   1.408
 1916W        W65860  39.966  18.256   2.812
 1917W        W65861  19.080  32.119   5.303
 1918W        W65862  40.388  23.071  10.550
 1919W        W65863   5.353   3.350  12.388
 1920W        W65864  10.209  16.144  12.399
 1921W        W65865  41.802  29.491  10.534
 1922W        W65866  29.555  23.587  12.518
 1923W        W65867   8.787  36.044   1.818
 1924W        W65868  30.567  16.180   4.690
 1925W        W65869   4.388  43.918   1.215
 1926W        W65870  21.163  35.050   1.824
 1927W        W65871  32.396  30.161   1.323
 1928W        W65872  13.348  40.398  10.562
 1929W        W65873  13.789  36.858  11.463
 1930W        W65874  14.319   8.689   3.764
 1931W        W65875  43.392  12.259  10.961
 1932W        W65876  10.151   6.309  11.399
 1933W        W65877  33.550   5.788   4.126
 1934W        W65878  20.710  34.965   0.909
 1935W        W65879  32.947   2.957  11.587
 1936W        W65880   9.373  11.200   3.769
 1937W        W65881  44.436   7.761   1.433
 1938W        W65882   8.671  39.827  10.456
 1939W        W65883  32.635   4.305  10.418
 1940W        W65884  20.222  26.993  10.432
 1941W        W65885  28.474  22.687  11.002
 1942W        W65886   0.269  27.979   2.699
 1943W        W65887  10.721  21.138   2.893
 1944W        W65888   7.385  29.169  10.914
 1945W        W65889   8.218  31.489  11.860
 1946W        W65890  36.045  37.336  12.906
 1947W        W65891  17.573  20.113   1.694
 1948W        W65892  34.891  41.804   4.700
 1949W        W65893  15.194  15.672   1.836
 1950W        W65894   2.933   4.732  13.458
 1951W        W65895  30.124   5.332  13.542
 1952W        W65896  16.743  21.263   3.833
 1953W        W65897  35.572  38.856   1.910
 1954W        W65898  20.053   1.970   4.250
 1955W        W65899  10.143   9.361  11.449
 1956W        W65900   9.202  31.584  10.422
 1957W        W65901  11.265  11.643   2.214
 1958W        W65902  35.391  37.557  14.990
 1959W        W65903  34.904  10.650  14.877
 1960W        W65904   0.275   4.918  12.892
 1961W        W65905   9.828   5.253  14.311
 1962W        W65906  44.441  19.198   0.868
 1963W        W65907  31.050   8.838  12.451
 1964W        W65908  25.109  44.379  12.359
 1965W        W65909  13.748   8.818  13.510
 1966W        W65910   1.734  22.110  11.024
 1967W        W65911  20.192  21.136   5.267
 1968W        W65912   2.351  11.181  11.961
 1969W        W65913   0.815  15.785   4.262
 1970W        W65914  41.292  27.515   0.892
 1971W        W65915  30.076  16.594   1.327
 1972W        W65916  28.136   6.844   0.871
 1973W        W65917  31.622  16.073   1.701
 1974W        W65918  28.614   6.304  11.398
 1975W        W65919  11.175  19.664   1.770
 1976W        W65920  20.033  19.217   2.874
 1977W        W65921  13.740  13.625   0.817
 1978W        W65922  21.123  36.862   1.806
 1979W        W65923  38.528  25.714  11.551
 1980W        W65924  24.623  41.865  15.000
 1981W        W65925  36.511  31.983   2.357
 1982W        W65926  27.508  13.349   0.806
 1983W        W65927   5.211  29.552   3.342
 1984W        W65928   3.255  21.703  13.484
 1985W        W65929  39.913  37.486   1.343
 1986W        W65930  10.732  11.314  11.866
 1987W        W65931   1.796  22.015  13.048
 1988W        W65932  23.708  31.053  13.880
 1989W        W65933  16.186   6.910  14.509
 1990W        W65934  22.234  20.099  13.328
 1991W        W65935  44.944  32.890   4.797
 1992W        W65936  24.535   2.452  10.904
 1993W        W65937  15.314  33.569  12.071
 1994W        W65938  10.850  33.593   2.740
 1995W        W65939  41.532  15.660  10.558
 1996W        W65940  11.173  25.622  10.503
 1997W        W65941  35.883  34.876  11.500
 1998W        W65942  36.028   8.302   1.760
 1999W        W65943  30.066  14.617  12.984
 2000W        W65944  21.725  24.189   1.245
 2001W        W65945  43.850  36.489   3.683
 2002W        W65946  37.428  24.225  13.821
 2003W        W65947  12.776  37.496   1.767
 2004W        W65948  20.727  25.706   4.742
 2005W        W65949  39.060  19.727  11.429
 2006W        W65950  24.653  12.807  11.391
 2007W        W65951  44.785  25.989  10.513
 2008W        W65952  11.866  15.109  14.936
 2009W        W65953   1.849  12.297  14.330
 2010W        W65954  25.205   7.356  14.984
 2011W        W65955  21.177   7.711   3.288
 2012W        W65956  26.569   0.889  12.425
 2013W        W65957  22.164  12.845   4.253
 2014W        W65958   4.810  24.132  11.033
 2015W        W65959  31.463  35.410   4.727
 2016W        W65960  15.769  33.391  10.617
 2017W        W65961  28.996  35.407  12.343
 2018W        W65962  39.043   8.168  13.790
 2019W        W65963  19.169  10.752   5.638
 2020W        W65964  37.908  18.127  11.430
 2021W        W65965  39.044  19.735   1.418
 2022W        W65966   6.735  40.802   4.168
 2023W        W65967   0.924   8.792   2.823
 2024W        W65968   4.324  10.196  12.942
 2025W        W65969  29.577  42.376  12.901
 2026W        W65970  16.080  43.907   0.296
 2027W        W65971  23.999  36.906   2.205
 2028W        W65972   5.872  26.198   1.783
 2029W        W65973  34.528  23.494  13.972
 2030W        W65974  11.810  31.591   1.807
 2031W        W65975  24.102  27.505   2.277
 2032W        W65976   8.295  44.321  14.373
 2033W        W65977  19.567  12.293   0.858
 2034W        W65978   5.742   4.401   3.320
 2035W        W65979  10.219  19.083   1.818
 2036W        W65980  41.537  41.791  14.300
 2037W        W65981  13.632  20.235  10.986
 2038W        W65982  42.910  42.325  12.973
 2039W        W65983   8.809  42.343   2.222
 2040W        W65984  21.084  24.610   3.310
 2041W        W65985  29.509  28.541   0.748
 2042W        W65986  27.455  15.208   1.274
 2043W        W65987  36.036  28.964  12.388
 2044W        W65988   2.314  37.037   3.340
 2045W        W65989  31.425  10.334   0.871
 2046W        W65990   2.817  36.537   1.789
 2047W        W65991  30.143  37.969  10.998
 2048W        W65992  40.023  13.723  13.414
 2049W        W65993  26.581   6.354  14.018
 2050W        W65994  35.081  38.472   1.329
 2051W        W65995  28.675  22.029   1.855
 2052W        W65996   1.812  20.522  11.127
 2053W        W65997   3.913  30.030  12.078
 2054W        W65998   7.389   7.888   4.254
 2055W        W65999  10.746  27.559   4.297
 2056W        W66000  11.815  20.602  13.478
 2057W        W66001   2.363  27.166   2.368
 2058W        W66002  26.467   6.217   1.832
 2059W        W66003   9.346  11.793   1.853
 2060W        W66004  13.110  25.602  11.956
 2061W        W66005  35.982  36.893  11.877
 2062W        W66006  22.033   1.751  14.280
 2063W        W66007   2.446  22.732  13.884
 2064W        W66008   6.245  40.996   2.779
 2065W        W66009  12.662  31.059  14.005
 2066W        W66010  31.475  25.091  13.424
 2067W        W66011  11.800  42.958   0.949
 2068W        W66012  28.964  27.477  13.354
 2069W        W66013  44.322  43.471   4.134
 2070W        W66014  37.946  10.822   3.762
 2071W        W66015  24.649  40.920  14.848
 2072W        W66016   8.217  21.573   0.383
 2073W        W66017  25.650   4.886  12.930
 2074W        W66018  26.475   6.839  10.905
 2075W        W66019  38.446   8.876   4.717
 2076W        W66020  31.030  26.032  14.383
 2077W        W66021  15.799  21.225  14.457
 2078W        W66022  38.350  29.632  10.480
 2079W        W66023  29.061  15.306  11.869
 2080W        W66024  12.294  41.858   4.609
 2081W        W66025  30.011  33.581   2.244
 2082W        W66026  16.639  29.584   0.883
 2083W        W66027   6.764   0.876   3.192
 2084W        W66028   3.425   9.673   0.443
 2085W        W66029  33.918   5.361  12.482
 2086W        W66030  19.104  17.303  11.483
 2087W        W66031   9.207  20.130  12.872
 2088W        W66032  22.674   8.304   0.749
 2089W        W66033  11.789  30.522   1.329
 2090W        W66034  43.409  23.685  12.085
 2091W        W66035   8.237  37.533  12.826
 2092W        W66036  42.785  20.131  11.117
 2093W        W66037  38.397   1.796  14.859
 2094W        W66038  12.334  13.245  11.613
 2095W        W66039  12.634  11.276   3.752
 2096W        W66040   0.887  28.011  12.976
 2097W        W66041  11.145  32.117   2.247
 2098W        W66042  25.592  43.852   3.308
 2099W        W66043  28.634  31.029  13.857
 2100W        W66044  23.052  23.058  11.025
 2101W        W66045  21.169  18.180  10.972
 2102W        W66046  10.720   6.743   3.765
 2103W        W66047   6.810   1.461   4.663
 2104W        W66048   3.931  26.955   4.720
 2105W        W66049  34.893  24.676  11.092
 2106W        W66050  34.557   9.250   3.161
 2107W        W66051  18.673  28.627   3.720
 2108W        W66052  19.674  20.117  13.515
 2109W        W66053   2.349   3.790   4.283
 2110W        W66054  42.434  38.538   2.345
 2111W        W66055  38.505  13.653  10.509
 2112W        W66056  34.544   1.867  13.925
 2113W        W66057  10.342  25.055   0.785
 2114W        W66058  22.678  12.164  14.803
 2115W        W66059  42.424   4.834  13.487
 2116W        W66060  37.406  27.691  12.083
 2117W        W66061  40.953  16.657  10.431
 2118W        W66062  40.336  44.433  12.353
 2119W        W66063  41.994   3.850  12.497
 2120W        W66064  36.516  38.533   4.313
 2121W        W66065  23.239  29.604  14.286
 2122W        W66066   1.341   1.969  13.370
 2123W        W66067  43.453  23.569   1.337
 2124W        W66068  11.287   2.891   2.720
 2125W        W66069  42.811  17.098   2.334
 2126W        W66070  35.479  32.418   4.715
 2127W        W66071   6.397  15.804   9.925
 2128W        W66072  35.865   7.390  11.538
 2129W        W66073  22.069  16.214  11.481
 2130W        W66074   3.305  16.304   1.794
 2131W        W66075   8.316  38.359   4.306
 2132W        W66076  28.632   6.405  14.975
 2133W        W66077  34.486  42.382  10.967
 2134W        W66078  35.902  32.553   4.315
 2135W        W66079  34.592  33.386  11.876
 2136W        W66080   7.848  10.280   4.239
 2137W        W66081  16.598  38.921   0.806
 2138W        W66082  37.396  22.228   4.152
 2139W        W66083   1.801  35.476  11.116
 2140W        W66084   2.310  37.881   0.891
 2141W        W66085   3.721  15.759  13.984
 2142W        W66086  40.810  32.529   0.424
 2143W        W66087  29.092   2.390   4.113
 2144W        W66088   5.253  16.760  11.550
 2145W        W66089  11.308  28.985  14.364
 2146W        W66090  23.227  16.240  14.468
 2147W        W66091   5.368  32.015  14.799
 2148W        W66092  10.303  32.958  12.531
 2149W        W66093   4.832  31.453   4.700
 2150W        W66094  18.173  12.811  14.792
 2151W        W66095   4.311   5.831  10.445
 2152W        W66096  10.370  43.325  14.975
 2153W        W66097  43.435  29.053   0.908
 2154W        W66098  29.528  22.610  10.639
 2155W        W66099   2.386  12.781   9.930
 2156W        W66100  30.145   4.287   4.323
 2157W        W66101   0.455   0.490   1.904
 2158W        W66102  31.044  36.465   4.314
 2159W        W66103  30.455  29.170   1.891
 2160W        W66104  13.610  25.693  13.834
 2161W        W66105  18.124  22.590   4.762
 2162W        W66106  35.937   1.770  12.386
 2163W        W66107  21.671  12.137  13.357
 2164W        W66108  41.971  37.971   4.324
 2165W        W66109  24.989  23.632  10.921
 2166W        W66110  40.408  20.136   0.961
 2167W        W66111  29.567  27.615   3.280
 2168W        W66112  43.508  18.677   1.334
 2169W        W66113   9.235  26.605  13.886
 2170W        W66114  22.682  22.621   0.818
 2171W        W66115  41.943  42.830  11.459
 2172W        W66116  16.792   1.322  10.599
 2173W        W66117   5.325  41.368   3.357
 2174W        W66118   5.832  19.184   0.886
 2175W        W66119  28.011  40.989  14.299
 2176W        W66120  14.321  21.523  12.893
 2177W        W66121  35.044  16.298   2.396
 2178W        W66122   8.654  14.642  11.116
 2179W        W66123  20.247  33.919   4.243
 2180W        W66124  29.495  35.882  13.847
 2181W        W66125   1.449  27.576   1.843
 2182W        W66126  20.600  42.472   2.223
 2183W        W66127  28.968  19.665  14.786
 2184W        W66128  16.235  16.150  14.966
 2185W        W66129  34.414  28.989   1.234
 2186W        W66130  13.239  11.731   3.833
 2187W        W66131  41.459   6.407   4.293
 2188W        W66132  35.017  24.585  11.942
 2189W        W66133   6.785  22.597  10.972
 2190W        W66134  26.055  38.556  14.001
 2191W        W66135  20.694  36.885   2.245
 2192W        W66136  15.205  14.627  10.974
 2193W        W66137  40.523  24.673   2.693
 2194W        W66138  34.604  29.626  13.012
 2195W        W66139  20.148  11.741   1.927
 2196W        W66140  40.468  33.609  11.972
 2197W        W66141  17.569   6.922  10.471
 2198W        W66142  21.718  18.599  13.920
 2199W        W66143  29.106  11.225  12.372
 2200W        W66144  10.324  32.548  14.966
 2201W        W66145  32.507  22.614  10.061
 2202W        W66146  25.580  37.566   4.114
 2203W        W66147  42.378   4.783  12.919
 2204W        W66148  44.491  25.993   1.369
 2205W        W66149   2.261  21.566   1.874
 2206W        W66150   6.426  31.574   4.182
 2207W        W66151   5.336   6.287   9.921
 2208W        W66152  37.964  17.103  10.991
 2209W        W66153  16.301  36.060  10.456
 2210W        W66154  28.548  18.742  10.503
 2211W        W66155  12.170  11.773   3.329
 2212W        W66156  22.730  18.774   0.401
 2213W        W66157  19.751   3.249   1.797
 2214W        W66158  34.058  33.997  12.451
 2215W        W66159  10.241  13.223  14.433
 2216W        W66160   1.740  19.685  11.082
 2217W        W66161  39.556  31.025  13.958
 2218W        W66162  16.613  25.583  10.577
 2219W        W66163  18.220  27.613  12.501
 2220W        W66164  17.572  28.939   0.398
 2221W        W66165   5.410  21.085  12.017
 2222W        W66166  17.230  17.565  14.345
 2223W        W66167  38.528  43.776  13.981
 2224W        W66168   2.366  12.346   1.897
 2225W        W66169  11.356  37.975  14.877
 2226W        W66170  36.409  14.611   1.287
 2227W        W66171  34.049  14.611   2.760
 2228W        W66172   7.791   9.338  13.545
 2229W        W66173  12.348  41.457   3.789
 2230W        W66174  16.671  34.496   3.807
 2231W        W66175  32.395  43.277  10.892
 2232W        W66176  20.604  14.698  13.530
 2233W        W66177  34.917   3.787  11.973
 2234W        W66178  25.542   6.219  12.920
 2235W        W66179  38.061   0.410   1.264
 2236W        W66180  31.636  15.695   2.852
 2237W        W66181   7.811  19.062   3.663
 2238W        W66182  38.042   3.215   1.712
 2239W        W66183  14.193   1.310  13.947
 2240W        W66184  40.480   5.865   0.783
 2241W        W66185  31.491   0.270   0.335
 2242W        W66186  44.336  39.430   1.794
 2243W        W66187  39.936   2.337   0.868
 2244W        W66188  28.959   6.911  12.046
 2245W        W66189  14.765  15.297  12.049
 2246W        W66190   8.336  16.763  12.500
 2247W        W66191  34.383   8.893  10.631
 2248W        W66192  18.258  10.336   3.212
 2249W        W66193  18.571   5.348  14.835
 2250W        W66194   1.906  40.971   2.692
 2251W        W66195  32.549  11.150  14.378
 2252W        W66196  28.010  14.608  10.497
 2253W        W66197  29.593  23.645  11.929
 2254W        W66198  29.555  32.058   5.308
 2255W        W66199  28.043  10.841   2.783
 2256W        W66200  22.198  28.651  14.357
 2257W        W66201  20.154  29.078   4.202
 2258W        W66202  42.367  29.077  11.117
 2259W        W66203   6.403   5.859   1.817
 2260W        W66204  34.107   1.285   2.219
 2261W        W66205  39.865  24.611   4.135
 2262W        W66206  20.751  36.076  13.008
 2263W        W66207  19.767  12.708   2.724
 2264W        W66208  32.113   9.882  12.032
 2265W        W66209  42.505   0.959  12.842
 2266W        W66210   1.479  41.327   1.236
 2267W        W66211  14.132   5.917  10.905
 2268W        W66212  29.563  25.600  10.919
 2269W        W66213  13.601  15.314  10.985
 2270W        W66214  37.536   1.432  14.445
 2271W        W66215  14.792   2.399  10.109
 2272W        W66216  37.485  20.039  14.384
 2273W        W66217  28.936  30.443  11.606
 2274W        W66218   4.786  27.095   0.463
 2275W        W66219  16.235  21.124  10.611
 2276W        W66220   3.711  43.818   2.217
 2277W        W66221  41.816  33.883   4.196
 2278W        W66222  37.873  22.600   1.210
 2279W        W66223  35.889  13.684   1.796
 2280W        W66224  10.141  16.188  11.453
 2281W        W66225  42.417  41.327   2.760
 2282W        W66226  24.005  36.021  12.579
 2283W        W66227  44.295  17.773   5.084
 2284W        W66228  31.909  24.515   2.399
 2285W        W66229   4.730   8.246  12.949
 2286W        W66230   1.426   7.912   3.635
 2287W        W66231  31.133   9.305  12.488
 2288W        W66232  35.381  26.143  13.446
 2289W        W66233  30.605  31.610   4.681
 2290W        W66234  12.786  23.613  10.918
 2291W        W66235  14.609  39.476  14.401
 2292W        W66236   9.732  34.866   2.759
 2293W        W66237  39.556   4.757  12.547
 2294W        W66238  36.007   9.765   0.860
 2295W        W66239   5.923  18.123  10.551
 2296W        W66240   0.859  24.007  12.071
 2297W        W66241   4.767   0.791  13.879
 2298W        W66242  39.541  15.711   2.255
 2299W        W66243  28.549  33.068  11.435
 2300W        W66244  39.018  12.280  12.349
 2301W        W66245  30.567  11.203   0.305
 2302W        W66246  16.252  30.981   3.848
 2303W        W66247  41.452   4.845  14.484
 2304W        W66248  38.555  41.002   0.880
 2305W        W66249  30.451  11.629  11.610
 2306W        W66250  19.551  20.593  12.443
 2307W        W66251   2.299  32.448  12.068
 2308W        W66252  34.518  40.008   2.833
 2309W        W66253   8.205  14.150   2.855
 2310W        W66254  15.732  28.087  11.899
 2311W        W66255  23.210  12.855  13.519
 2312W        W66256   3.325  21.590  14.324
 2313W        W66257  35.934  38.395  13.871
 2314W        W66258  40.938  11.331  12.947
 2315W        W66259   6.797  29.623   5.604
 2316W        W66260  29.069  15.750  13.852
 2317W        W66261   0.322  44.498   0.378
 2318W        W66262  25.171  37.513  13.055
 2319W        W66263  19.249  20.140   4.167
 2320W        W66264   3.774  34.575   3.802
 2321W        W66265  32.069  15.609  12.965
 2322W        W66266  30.548  42.993   1.436
 2323W        W66267   2.349  20.663   4.660
 2324W        W66268  39.320   5.905   0.790
 2325W        W66269   2.861  19.121   4.803
 2326W        W66270   0.413  33.024   4.618
 2327W        W66271  25.610  29.041   4.736
 2328W        W66272  12.118  43.516  10.551
 2329W        W66273  25.038  13.327   2.396
 2330W        W66274  26.598   1.764  14.908
 2331W        W66275   2.851   1.383  10.420
 2332W        W66276  17.631  33.473   3.306
 2333W        W66277  10.241   0.361   9.932
 2334W        W66278  31.416  28.574  13.884
 2335W        W66279  34.562  15.761   4.818
 2336W        W66280  43.774  34.399  13.989
 2337W        W66281  10.647  10.866   2.738
 2338W        W66282  32.128  37.079   3.317
 2339W        W66283   3.298  36.885   4.347
 2340W        W66284  24.561  38.344  13.520
 2341W        W66285   8.395  28.473  11.026
 2342W        W66286   0.953  18.181   1.228
 2343W        W66287  25.160  26.053   1.320
 2344W        W66288  42.495  27.496   1.424
 2345W        W66289  32.929   9.810   1.336
 2346W        W66290  19.760  16.138   4.816
 2347W        W66291  10.263  26.504   0.760
 2348W        W66292   4.204  38.047   1.403
 2349W        W66293   6.230  19.740  11.120
 2350W        W66294   8.846   2.455  12.871
 2351W        W66295  29.924   8.874  13.853
 2352W        W66296  23.552  15.158  10.472
 2353W        W66297  16.276  18.753  11.032
 2354W        W66298   9.823  16.708   0.332
 2355W        W66299  32.133   7.267   3.640
 2356W        W66300  41.470  34.046  11.945
 2357W        W66301  32.483   8.900   4.303
 2358W        W66302  42.879  42.411   4.745
 2359W        W66303  44.314  23.226   2.204
 2360W        W66304  35.873   9.163   1.901
 2361W        W66305   8.359  10.294  11.493
 2362W        W66306   9.759  20.270   1.841
 2363W        W66307  26.129  39.053  12.958
 2364W        W66308  21.538   4.837   3.261
 2365W        W66309  18.614  36.076  10.491
 2366W        W66310  42.394   0.411  13.393
 2367W        W66311  18.197   3.739  13.892
 2368W        W66312  19.769  14.833   4.674
 2369W        W66313   2.445  23.156  13.357
 2370W        W66314  11.237   1.275  11.534
 2371W        W66315   0.352  12.642   2.197
 2372W        W66316  43.860  17.672   4.800
 2373W        W66317  23.001   9.779  14.766
 2374W        W66318   1.853  17.294  12.909
 2375W        W66319  14.278   1.944  13.046
 2376W        W66320   4.208  26.611  13.377
 2377W        W66321  29.025  12.816   2.264
 2378W        W66322  41.973  37.843   1.365
 2379W        W66323  20.223  34.112  12.537
 2380W        W66324  12.151  14.823  12.941
 2381W        W66325  38.384   4.402  11.071
 2382W        W66326   8.204   9.158   1.397
 2383W        W66327  36.513  35.989   3.188
 2384W        W66328   7.240   3.821   4.785
 2385W        W66329  27.613  23.489  12.581
 2386W        W66330  12.324   5.257  11.448
 2387W        W66331  37.964   9.356   1.239
 2388W        W66332  44.469  33.490  12.841
 2389W        W66333  32.973  11.193   2.252
 2390W        W66334  34.570  23.515  14.484
 2391W        W66335   3.296  33.566  13.487
 2392W        W66336  40.502   9.309   4.153
 2393W        W66337  22.529  27.087   4.190
 2394W        W66338   2.339  24.217   1.384
 2395W        W66339   5.384  41.811   2.279
 2396W        W66340   3.366   1.746  14.823
 2397W        W66341   1.756  16.142   0.250
 2398W        W66342  34.492  43.785   0.388
 2399W        W66343  17.652  29.978   4.635
 2400W        W66344  21.584  18.759  12.575
 2401W        W66345  13.294  35.011   4.349
 2402W        W66346  41.299  33.523   1.892
 2403W        W66347  10.802  26.548  10.129
 2404W        W66348  14.235  23.026   0.359
 2405W        W66349  15.744  10.199  13.921
 2406W        W66350  10.355  37.869   3.342
 2407W        W66351   8.829  14.693  14.883
 2408W        W66352  34.119  28.056  13.316
 2409W        W66353  28.045  24.155  13.998
 2410W        W66354   8.798   3.295   1.909
 2411W        W66355  15.097  42.864   0.854
 2412W        W66356  24.111  35.398  10.408
 2413W        W66357  17.725  42.789  11.531
 2414W        W66358  37.849  16.703   2.196
 2415W        W66359  13.642  39.473  12.085
 2416W        W66360  40.959  11.744  11.555
 2417W        W66361  18.747   4.806  11.091
 2418W        W66362   4.812   8.826   3.684
 2419W        W66363  18.759  36.371  13.924
 2420W        W66364  14.149   0.374   4.266
 2421W        W66365   6.741  31.071   3.684
 2422W        W66366  11.867   1.900  11.096
 2423W        W66367   4.784  21.737  14.945
 2424W        W66368  21.148  39.885  11.083
 2425W        W66369   5.837  11.164   3.310
 2426W        W66370  17.275  16.180  10.464
 2427W        W66371  32.563  44.931  13.842
 2428W        W66372   1.432  38.458   2.406
 2429W        W66373  23.234   5.335   3.816
 2430W        W66374  43.859  34.027   4.818
 2431W        W66375  30.418  42.381   4.743
 2432W        W66376  39.936  40.001   4.126
 2433W        W66377  27.038  41.994   3.171
 2434W        W66378  41.795  31.966  12.422
 2435W        W66379   1.368  12.238  13.511
 2436W        W66380  34.077  12.798   4.760
 2437W        W66381  14.798   7.716  14.925
 2438W        W66382  24.228  25.565  12.375
 2439W        W66383  19.702   9.389  13.904
 2440W        W66384   9.738   8.779  13.474
 2441W        W66385  40.342   5.852  10.430
 2442W        W66386  39.477   4.272  14.997
 2443W        W66387  22.649  35.529   4.640
 2444W        W66388  44.418  35.036  12.393
 2445W        W66389  31.965  17.638   1.932
 2446W        W66390  10.182  43.430  12.011
 2447W        W66391   8.218  39.370   4.345
 2448W        W66392  17.606  37.379   3.259
 2449W        W66393   0.452  32.599  11.572
 2450W        W66394  28.663  24.061   3.337
 2451W        W66395  15.271   9.343   0.927
 2452W        W66396  37.390   3.862  13.461
 2453W        W66397  14.185  42.015   4.119
 2454W        W66398  44.431  12.334  14.948
 2455W        W66399  28.937  35.474   2.823
 2456W        W66400  43.314  43.829   0.314
 2457W        W66401   8.865   4.770   4.224
 2458W        W66402  43.271  30.986   3.362
 2459W        W66403   0.387  22.559   3.240
 2460W        W66404  26.098  36.521   2.352
 2461W        W66405  26.206  26.622  10.582
 2462W        W66406  23.007  12.351   1.748
 2463W        W66407  35.373  30.491   1.260
 2464W        W66408  18.658  21.022   5.747
 2465W        W66409  30.093   6.274   3.683
 2466W        W66410  24.122   9.746   1.757
 2467W        W66411   4.757  26.606   3.728
 2468W        W66412  37.844  29.601  12.414
 2469W        W66413  24.198  25.537   3.756
 2470W        W66414  29.148  41.378   3.763
 2471W        W66415  37.072  18.725  14.008
 2472W        W66416  32.985  31.115   4.160
 2473W        W66417  13.773  33.616  12.024
 2474W        W66418  38.472  35.396  12.045
 2475W        W66419  44.394  15.108  11.981
 2476W        W66420  24.558  15.275  12.458
 2477W        W66421   8.342  28.986   1.740
 2478W        W66422  18.604  11.146  11.453
 2479W        W66423  12.681  19.587  11.107
 2480W        W66424  29.648   6.689  10.632
 2481W        W66425  42.948  40.924  13.856
 2482W        W66426  31.989  19.755  10.569
 2483W        W66427  13.305  38.837  10.947
 2484W        W66428   0.870  26.164  13.987
 2485W        W66429   6.711  38.423  12.551
 2486W        W66430  41.801   2.327   4.143
 2487W        W66431  11.713   7.684   0.877
 2488W        W66432  41.797  28.948   3.382
 2489W        W66433  27.532  28.440  14.422
 2490W        W66434  43.986   4.258  14.381
 2491W        W66435  34.065  27.668  10.928
 2492W        W66436  26.187   1.290   3.757
 2493W        W66437  10.692  10.690  13.882
 2494W        W66438  10.177   9.856   3.720
 2495W        W66439  17.098  39.485   3.865
 2496W        W66440  14.658  43.947  10.930
 2497W        W66441  12.810  38.420  12.399
 2498W        W66442  37.538  36.434   0.945
 2499W        W66443  18.743   4.875   2.332
 2500W        W66444  39.385  28.979  11.544
 2501W        W66445  22.116  31.101   0.961
 2502W        W66446  29.574  22.650   0.287
 2503W        W66447   7.668  27.089  14.291
 2504W        W66448  29.425  19.231   3.304
 2505W        W66449   9.236  37.403   9.985
 2506W        W66450  14.319  39.477   4.284
 2507W        W66451  34.423  16.629  11.125
 2508W        W66452  31.113  29.170   2.213
 2509W        W66453  41.379  24.056  13.316
 2510W        W66454  29.115  13.292  11.445
 2511W        W66455  18.095   0.770  10.550
 2512W        W66456  21.183  28.536   0.391
 2513W        W66457  39.881  20.180  14.904
 2514W        W66458  39.342  40.451   4.237
 2515W        W66459  10.651  24.083  11.574
 2516W        W66460  15.260   6.913  10.457
 2517W        W66461   6.313  14.654   4.119
 2518W        W66462  10.824  12.252   1.803
 2519W        W66463   7.870  16.571   0.323
 2520W        W66464   1.465  18.575  12.574
 2521W        W66465  11.175  15.638   2.392
 2522W        W66466  15.777  42.938  14.408
 2523W        W66467  40.960  34.100   1.842
 2524W        W66468  12.221   5.797  12.370
 2525W        W66469  10.736  28.578  14.833
 2526W        W66470   7.222  15.728  10.627
 2527W        W66471   6.736  20.250   2.772
 2528W        W66472   0.410   9.721   0.468
 2529W        W66473   6.319  15.669  14.764
 2530W        W66474  41.339   2.228   3.369
 2531W        W66475  40.832  14.180  11.012
 2532W        W66476  39.498   7.357  12.424
 2533W        W66477  30.105  36.074  13.885
 2534W        W66478   5.885  38.480  12.568
 2535W        W66479  34.894  13.319  14.762
 2536W        W66480  44.345  29.059   4.832
 2537W        W66481  44.359  42.827  11.491
 2538W        W66482  39.044  23.075   4.186
 2539W        W66483  30.483  24.000   5.294
 2540W        W66484   9.186  39.843   0.780
 2541W        W66485  21.693  20.525   0.758
 2542W        W66486  22.182  32.448  14.348
 2543W        W66487  12.852  39.478   4.707
 2544W        W66488  31.587  31.134   1.362
 2545W        W66489   2.411  42.498  13.004
 2546W        W66490  36.885  35.505   4.687
 2547W        W66491  13.245  12.667  12.468
 2548W        W66492   1.863  22.654  14.438
 2549W        W66493  18.630  18.108   4.243
 2550W        W66494  11.787   2.951   4.635
 2551W        W66495  19.244   1.969  13.470
 2552W        W66496  37.900  33.608  10.511
 2553W        W66497  29.170   0.328   2.287
 2554W        W66498  14.310   1.902  12.516
 2555W        W66499   7.669  19.166   1.431
 2556W        W66500  11.662  15.669  12.947
 2557W        W66501  29.584  33.005  13.308
 2558W        W66502  12.325  20.161   2.694
 2559W        W66503  29.121   2.432  13.949
 2560W        W66504  29.525  27.046   1.343
 2561W        W66505  44.431   0.933  12.905
 2562W        W66506  17.762  33.122   0.367
 2563W        W66507   3.947  41.331   1.824
 2564W        W66508  33.588  34.917   5.311
 2565W        W66509  19.198  14.218  11.468
 2566W        W66510  44.907  29.009   0.729
 2567W        W66511  25.707  27.059  14.457
 2568W        W66512  34.396  32.520  10.518
 2569W        W66513  26.458   4.922  13.891
 2570W        W66514  42.898  28.615   2.187
 2571W        W66515  12.361  19.156  14.907
 2572W        W66516   2.300  43.426   2.739
 2573W        W66517  23.201   1.478  10.484
 2574W        W66518   5.193  30.636  11.409
 2575W        W66519  22.230  18.248  10.964
 2576W        W66520   5.286  29.643  12.851
 2577W        W66521  40.481  38.935   4.266
 2578W        W66522   6.876  23.635  14.966
 2579W        W66523   9.267  11.764  13.858
 2580W        W66524  24.118   6.890   0.818
 2581W        W66525  34.979  25.202   1.417
 2582W        W66526   8.341   9.690   2.815
 2583W        W66527   0.916  10.676  12.966
 2584W        W66528  16.767   1.747   3.174
 2585W        W66529  30.475  18.661  12.924
 2586W        W66530  27.084  19.218  14.891
 2587W        W66531  21.678   0.853   4.218
 2588W        W66532  40.043   5.267   1.306
 2589W        W66533  25.104  31.600  11.515
 2590W        W66534  11.815   7.726   4.806
 2591W        W66535   6.753  12.613  12.518
 2592W        W66536  15.199   1.844   0.910
 2593W        W66537  26.080  22.162  13.909
 2594W        W66538  33.028   6.719   4.333
 2595W        W66539  29.546  33.469   4.833
 2596W        W66540  42.298  28.019  11.506
 2597W        W66541   5.348  28.078  10.904
 2598W        W66542  11.274  34.036  10.492
 2599W        W66543  28.124  23.615  10.444
 2600W        W66544  40.303  31.589   2.325
 2601W        W66545  15.652  11.838   2.216
 2602W        W66546  30.633   2.304   1.738
 2603W        W66547  44.268  36.361   4.599
 2604W        W66548   0.961   5.393   0.759
 2605W        W66549   5.704  39.338   4.795
 2606W        W66550  23.666  29.476  12.944
 2607W        W66551  29.528  28.442  13.953
 2608W        W66552  41.506  37.392  12.037
 2609W        W66553  30.643  22.657   1.238
 2610W        W66554  35.972  35.562  11.939
 2611W        W66555  26.641  36.350   4.148
 2612W        W66556  44.826  39.429   4.791
 2613W        W66557  33.078  37.351  13.835
 2614W        W66558   7.848  29.079   4.143
 2615W        W66559  33.517  11.127  14.839
 2616W        W66560   5.884  23.163  13.046
 2617W        W66561  34.417  15.738   0.942
 2618W        W66562  12.237  29.666  12.511
 2619W        W66563   2.912   3.256   2.889
 2620W        W66564  29.463  27.461  11.594
 2621W        W66565  35.938   7.684  10.572
 2622W        W66566  22.199  34.479  12.960
 2623W        W66567  34.406   1.734  12.984
 2624W        W66568  12.769  33.011   3.665
 2625W        W66569  19.705  10.151   1.290
 2626W        W66570  40.495   7.896  11.052
 2627W        W66571  32.453  14.650  13.842
 2628W        W66572  31.510  31.966   4.833
 2629W        W66573  36.857  18.747   2.286
 2630W        W66574  39.983   1.375   0.800
 2631W        W66575   9.842  32.053  13.898
 2632W        W66576  25.070  21.223   4.827
 2633W        W66577  26.140  32.432   3.678
 2634W        W66578  10.639  30.618  14.830
 2635W        W66579  19.700  18.060  12.475
 2636W        W66580  23.067   6.297   4.125
 2637W        W66581  12.738   3.844  12.376
 2638W        W66582  29.013   4.704  14.343
 2639W        W66583  15.313  36.431   3.846
 2640W        W66584   9.654  42.909  12.568
 2641W        W66585   1.342  23.218  12.934
 2642W        W66586  23.705   6.838   2.185
 2643W        W66587  19.712   4.220   4.313
 2644W        W66588  43.965  10.209   1.219
 2645W        W66589  22.075  23.144   1.774
 2646W        W66590   9.652  40.355  14.825
 2647W        W66591   4.375  17.619   0.878
 2648W        W66592   9.735  24.689  13.515
 2649W        W66593   4.353  28.598  13.310
 2650W        W66594  16.575   0.292   2.344
 2651W        W66595  22.589  16.119   0.732
 2652W        W66596  34.381   8.180  12.936
 2653W        W66597  16.142  12.668  14.991
 2654W        W66598  25.471   9.889  10.514
 2655W        W66599  30.057  13.646  10.903
 2656W        W66600  30.586  16.229   2.896
 2657W        W66601  37.357  12.644   3.151
 2658W        W66602  31.540  32.526   0.385
 2659W        W66603  30.584  26.467   5.178
 2660W        W66604  40.330  37.993  13.327
 2661W        W66605  21.690  22.657   3.855
 2662W        W66606   5.908  38.941  11.477
 2663W        W66607  13.153  31.463  10.968
 2664W        W66608  34.900   5.901  14.837
 2665W        W66609  10.796  24.980   3.303
 2666W        W66610  31.928  22.062  13.402
 2667W        W66611   9.675  35.452   2.720
 2668W        W66612  11.814   6.229  10.989
 2669W        W66613  38.521  21.725  13.391
 2670W        W66614  23.654  27.988   2.791
 2671W        W66615   7.699  16.809  13.004
 2672W        W66616  35.982  31.982   4.307
 2673W        W66617  19.108   7.670   3.737
 2674W        W66618  20.189  21.122  10.020
 2675W        W66619   1.776  10.271   2.746
 2676W        W66620  30.609  41.983   5.263
 2677W        W66621  44.309  29.516   3.350
 2678W        W66622  19.616  19.210  13.931
 2679W        W66623  43.462  19.077  13.484
 2680W        W66624  34.032  43.872  14.768
 2681W        W66625  10.212  24.163   0.384
 2682W        W66626  23.546  36.889   1.722
 2683W        W66627  12.633   9.336   0.763
 2684W        W66628  15.753  10.870   4.626
 2685W        W66629  40.887  29.089  12.445
 2686W        W66630  39.046  38.415  10.950
 2687W        W66631  33.900  29.647  13.401
 2688W        W66632  26.609  22.520   4.836
 2689W        W66633  39.919  27.974  13.901
 2690W        W66634  12.244  41.028  11.401
 2691W        W66635   7.873   1.747  11.052
 2692W        W66636  11.158  16.154   0.311
 2693W        W66637   1.931  37.565   0.251
 2694W        W66638   8.741  17.085   2.879
 2695W        W66639   3.727  28.930  12.037
 2696W        W66640  33.091  43.461  11.020
 2697W        W66641  23.501  21.063  11.535
 2698W        W66642   1.353  43.810   0.749
 2699W        W66643  11.794   1.305   3.241
 2700W        W66644   0.477  35.498   0.962
 2701W        W66645   3.742  38.889   3.251
 2702W        W66646  32.034  15.323   1.888
 2703W        W66647  17.306   8.899  11.914
 2704W        W66648  27.497  35.090  13.394
 2705W        W66649  14.818  22.521  12.528
 2706W        W66650   8.801  35.960   4.690
 2707W        W66651  18.206  38.969  14.771
 2708W        W66652  22.620  12.134  13.413
 2709W        W66653  36.957   8.893   4.687
 2710W        W66654   3.425  29.636   4.239
 2711W        W66655  23.688   9.870  14.905
 2712W        W66656   8.767  30.946  14.958
 2713W        W66657  24.167  18.237   2.769
 2714W        W66658  24.194   6.745  13.400
 2715W        W66659  15.723  19.745  11.123
 2716W        W66660  35.383  11.676  11.074
 2717W        W66661  28.529  22.546  11.414
 2718W        W66662  13.737  34.044   4.185
 2719W        W66663  36.866  39.852  12.497
 2720W        W66664  38.989  31.115   0.299
 2721W        W66665  41.516  26.057   3.206
 2722W        W66666  37.866   2.400   4.687
 2723W        W66667   4.367  21.534   1.888
 2724W        W66668  16.242   2.880   4.184
 2725W        W66669  25.112  25.198  13.387
 2726W        W66670   3.457  43.808   4.122
 2727W        W66671  16.309  42.399   2.284
 2728W        W66672  36.947  21.141  12.494
 2729W        W66673  20.245   6.362  12.521
 2730W        W66674   3.919   4.443   1.298
 2731W        W66675  27.521  24.090  12.019
 2732W        W66676  43.870  15.706   0.405
 2733W        W66677   9.161  43.904   2.233
 2734W        W66678  18.735  18.589   0.837
 2735W        W66679   4.708  22.704  11.897
 2736W        W66680   5.786  15.317   3.864
 2737W        W66681  21.225  32.468  12.915
 2738W        W66682  34.910  30.033   3.154
 2739W        W66683  31.450  20.753   4.341
 2740W        W66684  44.777  21.639   3.351
 2741W        W66685  12.622   2.416  11.399
 2742W        W66686   2.886   6.288   0.319
 2743W        W66687  24.603   3.841   2.792
 2744W        W66688   6.252  35.434   0.891
 2745W        W66689  43.324  40.448  11.375
 2746W        W66690  28.070  34.940  14.376
 2747W        W66691  12.833   4.760  12.861
 2748W        W66692   0.352   7.831   4.202
 2749W        W66693   1.357  11.268   1.799
 2750W        W66694  36.911  17.250  10.935
 2751W        W66695  29.541   7.800   3.271
 2752W        W66696   7.336  42.905   4.649
 2753W        W66697  35.376  43.999   2.817
 2754W        W66698  26.485  28.166  12.902
 2755W        W66699  13.152   2.338   2.877
 2756W        W66700  11.199  44.984  12.979
 2757W        W66701  42.418  43.843  14.915
 2758W        W66702  29.948  37.360   0.734
 2759W        W66703  21.206  36.093  10.908
 2760W        W66704   0.345  22.087  14.926
 2761W        W66705  29.593  40.978   0.408
 2762W        W66706  40.942   0.984  13.511
 2763W        W66707  39.820  25.082  10.974
 2764W        W66708  26.119  17.736  11.921
 2765W        W66709  23.095  10.327   1.331
 2766W        W66710  41.879  39.418   2.319
 2767W        W66711  35.877   1.276  14.466
 2768W        W66712   1.927   2.397   1.730
 2769W        W66713  22.501  26.201  14.358
 2770W        W66714  31.491  20.187   2.757
 2771W        W66715  29.966  10.770  14.428
 2772W        W66716  23.011  44.845  14.922
 2773W        W66717  40.033  27.647   3.865
 2774W        W66718   0.313  41.003   1.771
 2775W        W66719  28.577  13.265   0.303
 2776W        W66720  22.235  31.111   3.710
 2777W        W66721  43.805   6.749   2.759
 2778W        W66722  41.495   6.678   0.908
 2779W        W66723  27.950  38.925   5.199
 2780W        W66724  32.990  19.705   2.772
 2781W        W66725   5.404  41.508  14.847
 2782W        W66726  39.971  28.972   0.448
 2783W        W66727  43.943  18.260  12.440
 2784W        W66728  14.245  25.577  14.813
 2785W        W66729   7.749  14.123  14.826
 2786W        W66730  25.178   6.759  10.585
 2787W        W66731  15.110   8.342   3.338
 2788W        W66732  29.468  19.285   1.403
 2789W        W66733  29.434   5.215   1.257
 2790W        W66734  32.076  29.144   0.283
 2791W        W66735  29.137  37.058  11.392
 2792W        W66736   0.940  37.377   4.827
 2793W        W66737  32.608  18.714   0.824
 2794W        W66738  11.651  29.455  14.331
 2795W        W66739   7.895  29.040   0.881
 2796W        W66740  19.279  25.665   3.354
 2797W        W66741  12.303  38.037   1.409
 2798W        W66742  28.951  23.662   0.927
 2799W        W66743  22.550  32.909  14.307
 2800W        W66744   8.236  20.621   3.844
 2801W        W66745   5.790  14.801   0.945
 2802W        W66746  44.494  36.379   5.193
 2803W        W66747  13.811   3.328   5.587
 2804W        W66748  37.853  15.288  12.950
 2805W        W66749  19.285  35.494  11.034
 2806W        W66750  11.315  18.776  12.827
 2807W        W66751   3.929   2.723  14.959
 2808W        W66752  42.290  21.077  12.449
 2809W        W66753  12.159   0.902  14.816
 2810W        W66754   6.911  41.459   1.838
 2811W        W66755  27.681  28.539  10.941
 2812W        W66756  11.844  21.581   2.283
 2813W        W66757   3.952  26.065   3.672
 2814W        W66758   5.765  16.692  14.387
 2815W        W66759  33.986  39.475  11.097
 2816W        W66760   6.424  36.097  10.085
 2817W        W66761  41.834  43.957   4.821
 2818W        W66762  26.135  28.989   0.941
 2819W        W66763   5.703  39.423   3.761
 2820W        W66764  30.138   7.869   0.246
 2821W        W66765  27.169  23.725   4.347
 2822W        W66766   1.833   5.207   0.316
 2823W        W66767  23.037   0.865   4.647
 2824W        W66768  39.469  19.584  11.600
 2825W        W66769   4.803  40.902  12.036
 2826W        W66770  35.876  29.969  10.540
 2827W        W66771  35.951  40.362   4.238
 2828W        W66772  12.272  15.116  14.423
 2829W        W66773  22.747   1.471   0.245
 2830W        W66774  41.389  26.653   3.351
 2831W        W66775  19.615  34.892   2.820
 2832W        W66776  18.156  33.479  13.482
 2833W        W66777  31.416   6.188  13.063
 2834W        W66778  31.137   7.345   3.230
 2835W        W66779  10.870  36.347  11.427
 2836W        W66780   7.394  44.825   1.932
 2837W        W66781  32.602   6.775  10.424
 2838W        W66782  41.515  19.606   1.388
 2839W        W66783  41.896  23.592   4.717
 2840W        W66784  31.614  38.420  13.856
 2841W        W66785  22.154  13.219  14.999
 2842W        W66786   3.385  28.143   4.789
 2843W        W66787   9.827  32.037   4.116
 2844W        W66788  44.003  13.752   4.725
 2845W        W66789   3.242  20.743   4.799
 2846W        W66790   9.206  13.158  13.457
 2847W        W66791  42.471   1.808   4.348
 2848W        W66792  37.933  20.100  13.892
 2849W        W66793  11.835  16.255  13.546
 2850W        W66794   4.742  17.178  13.830
 2851W        W66795  32.137  24.047  13.348
 2852W        W66796  33.541  25.694   1.365
 2853W        W66797  10.207  43.945  11.920
 2854W        W66798  30.025   7.219  13.009
 2855W        W66799  16.175  21.227  12.352
 2856W        W66800  16.198  18.584  12.570
 2857W        W66801  42.995  16.208  10.569
 2858W        W66802  43.414  27.147   0.449
 2859W        W66803  44.429  24.652   1.430
 2860W        W66804   1.851  27.107  10.525
 2861W        W66805  11.708  13.634   4.761
 2862W        W66806  25.531   8.200   4.722
 2863W        W66807  35.886  23.986  14.354
 2864W        W66808  29.570  42.830   9.628
 2865W        W66809   6.339  15.643   0.937
 2866W        W66810   2.876   1.468  14.011
 2867W        W66811  33.006   6.893   4.632
 2868W        W66812  16.702  44.414   1.365
 2869W        W66813  31.472   3.930   3.773
 2870W        W66814  18.189  15.764  10.634
 2871W        W66815   6.696   7.376   1.814
 2872W        W66816  14.134  39.893   4.308
 2873W        W66817  41.309  32.961   1.856
 2874W        W66818   5.231   1.778   2.204
 2875W        W66819  20.709   6.404  11.400
 2876W        W66820  37.005  43.400  10.484
 2877W        W66821  21.090  40.842  14.368
 2878W        W66822  34.443  43.288  13.328
 2879W        W66823  14.769  35.939   1.250
 2880W        W66824  24.675  25.969   1.754
 2881W        W66825  36.354   0.939   3.686
 2882W        W66826   2.232   9.245   5.093
 2883W        W66827   4.208  34.374  12.085
 2884W        W66828  15.762  36.356  14.016
 2885W        W66829   4.851  43.891   2.855
 2886W        W66830  43.015  29.932  11.513
 2887W        W66831  22.035  23.986  14.804
 2888W        W66832   1.254  30.480   1.346
 2889W        W66833  28.980   0.843  14.502
 2890W        W66834   6.311  22.571   0.250
 2891W        W66835  21.587  21.045  13.420
 2892W        W66836  14.330  37.063   4.775
 2893W        W66837  32.908  37.418  14.859
 2894W        W66838  27.001  20.660   1.241
 2895W        W66839   7.392   2.825  14.362
 2896W        W66840   0.977  19.124   1.405
 2897W        W66841   2.338  19.660  13.382
 2898W        W66842  25.647  17.802   0.306
 2899W        W66843   6.710  40.806  14.470
 2900W        W66844   7.278   3.770   0.411
 2901W        W66845  16.672  28.972  12.014
 2902W        W66846  39.888  11.861  13.378
 2903W        W66847  35.037  36.450  14.308
 2904W        W66848   9.394  23.507  14.888
 2905W        W66849  39.350  16.750   2.362
 2906W        W66850   6.345  10.729  12.495
 2907W        W66851  31.410  37.846  12.076
 2908W        W66852  31.630  36.072  10.517
 2909W        W66853  34.442  44.756  14.015
 2910W        W66854  29.133   0.415  11.432
 2911W        W66855  38.930   5.776  11.874
 2912W        W66856  22.196  16.716  13.798
 2913W        W66857  39.552  35.537  13.317
 2914W        W66858  34.394  36.092  14.332
 2915W        W66859  22.570  36.930  10.989
 2916W        W66860  25.577  14.321  12.857
 2917W        W66861  35.444   8.774   2.276
 2918W        W66862  16.694  16.586   0.924
 2919W        W66863  37.945  38.508   3.174
 2920W        W66864  38.448  34.578  14.812
 2921W        W66865  30.942  35.897  10.490
 2922W        W66866   1.818  21.061   1.333
 2923W        W66867  24.497  44.993  11.444
 2924W        W66868  20.731  26.043   1.380
 2925W        W66869   7.836  19.173  13.904
 2926W        W66870  17.241   3.270   5.083
 2927W        W66871  23.702  27.033   3.331
 2928W        W66872  11.225   9.723  11.894
 2929W        W66873  44.820  44.262  12.355
 2930W        W66874  43.022  36.065  10.071
 2931W        W66875  37.936  27.469   0.377
 2932W        W66876  14.201  42.380  12.907
 2933W        W66877   1.881   9.836  12.964
 2934W        W66878  23.196  31.556   4.314
 2935W        W66879   9.714   1.850   4.218
 2936W        W66880  44.007  30.631   2.346
 2937W        W66881   6.676  34.080  12.827
 2938W        W66882  20.604   4.786   0.884
 2939W        W66883  38.541  25.491  14.027
 2940W        W66884  16.240   5.369   3.228
 2941W        W66885  36.984   3.425   5.168
 2942W        W66886  10.849  11.214  14.430
 2943W        W66887  22.640   2.231   1.436
 2944W        W66888  35.046  27.089  12.409
 2945W        W66889  12.322  16.581  12.487
 2946W        W66890  14.620  10.846   2.299
 2947W        W66891  36.419  23.534  10.964
 2948W        W66892   4.931   3.336   2.774
 2949W        W66893  25.680  16.621  12.353
 2950W        W66894   3.772  18.697  12.426
 2951W        W66895  21.175  27.957  10.921
 2952W        W66896   9.324  28.046   4.823
 2953W        W66897  21.231  39.340  10.986
 2954W        W66898  11.174  39.990  12.959
 2955W        W66899  27.566  31.970   2.222
 2956W        W66900  21.645  39.371  11.888
 2957W        W66901  10.832  18.579  11.904
 2958W        W66902  39.479  36.911   0.280
 2959W        W66903  42.982  16.708   4.664
 2960W        W66904  41.510   8.837  11.065
 2961W        W66905   0.985   9.225  14.012
 2962W        W66906  14.776   0.348   0.391
 2963W        W66907  31.441  38.331   0.740
 2964W        W66908   7.388  27.147  12.015
 2965W        W66909  19.111  44.261   3.248
 2966W        W66910   2.742  42.290  10.934
 2967W        W66911  16.810  29.646   3.752
 2968W        W66912  33.546  27.562   0.270
 2969W        W66913  19.093  12.208   4.135
 2970W        W66914   9.178   2.266  14.297
 2971W        W66915  18.568   6.311  12.833
 2972W        W66916  27.090   9.681   1.708
 2973W        W66917  22.196  21.530  13.476
 2974W        W66918  26.638   7.353  11.561
 2975W        W66919  31.041  11.313   1.728
 2976W        W66920  15.173  13.169  11.521
 2977W        W66921  32.575   2.352   4.811
 2978W        W66922  18.088  16.700   3.286
 2979W        W66923  41.943  26.525  12.943
 2980W        W66924  35.028  23.695  14.812
 2981W        W66925   9.249   5.217  10.413
 2982W        W66926  35.448  17.077  12.836
 2983W        W66927   2.332  17.742  11.526
 2984W        W66928   5.714   4.280   0.357
 2985W        W66929   7.900  31.613  12.459
 2986W        W66930  17.671  30.111  11.534
 2987W        W66931  40.477   7.184   3.163
 2988W        W66932  40.488   2.237  14.462
 2989W        W66933  15.313  40.940   4.718
 2990W        W66934   8.255  33.094   2.742
 2991W        W66935  30.654  12.184  13.889
 2992W        W66936  39.409  26.067  11.427
 2993W        W66937  39.937  41.468   4.727
 2994W        W66938   9.843  30.099  12.004
 2995W        W66939  18.663   1.369   4.189
 2996W        W66940  35.920  22.743  14.477
 2997W        W66941  41.365  35.442   2.283
 2998W        W66942  27.065  39.451   4.205
 2999W        W66943  10.782   8.331   3.651
 3000W        W66944   0.259  17.608  11.875
 3001W        W66945   3.745   4.427  11.593
 3002W        W66946  30.623  35.399  12.934
 3003W        W66947  26.595   0.866  14.389
 3004W        W66948  42.896  24.716   2.336
 3005W        W66949   3.240  24.231  13.902
 3006W        W66950   8.337  27.553  14.903
 3007W        W66951  42.868  15.669  11.383
 3008W        W66952  23.065  42.918  10.889
 3009W        W66953  34.064  10.188  11.922
 3010W        W66954  35.463  13.723  11.050
 3011W        W66955  14.664   8.372   2.844
 3012W        W66956  26.174  28.138  12.992
 3013W        W66957  38.528   4.371   0.272
 3014W        W66958  44.472  38.398   3.256
 3015W        W66959  35.956  18.681  14.029
 3016W        W66960  44.001  12.129   4.797
 3017W        W66961  17.089  15.580  11.581
 3018W        W66962  19.211  16.656   1.925
 3019W        W66963  13.240  24.634  11.391
 3020W        W66964   9.790  10.753   1.282
 3021W        W66965  35.046  20.266   2.242
 3022W        W66966  44.326  31.459   2.319
 3023W        W66967  21.741  19.127  14.359
 3024W        W66968  12.267  29.607  12.966
 3025W        W66969   2.294  22.654  11.018
 3026W        W66970  26.006  39.032   0.256
 3027W        W66971  35.461   4.306   1.734
 3028W        W66972  35.917  24.007  11.874
 3029W        W66973  43.794  17.622   3.724
 3030W        W66974  12.773   1.830  14.501
 3031W        W66975  22.147  34.101  11.887
 3032W        W66976   2.375  17.077  12.059
 3033W        W66977  20.599  29.120  12.830
 3034W        W66978   7.181  21.567   2.262
 3035W        W66979   3.918  33.586  11.445
 3036W        W66980  37.008  42.397   2.885
 3037W        W66981  33.452  30.612  13.356
 3038W        W66982  29.145  34.054   0.469
 3039W        W66983   8.669  39.536  13.514
 3040W        W66984  20.222  27.476  11.481
 3041W        W66985  13.739  12.647  12.405
 3042W        W66986  42.411  39.489  14.952
 3043W        W66987  17.064  25.168  12.019
 3044W        W66988  43.964  37.862   0.868
 3045W        W66989   1.745   0.879   3.679
 3046W        W66990  41.858   3.766   1.434
 3047W        W66991  40.859  30.937  12.500
 3048W        W66992  26.554  26.539   3.362
 3049W        W66993  40.019  30.937  13.323
 3050W        W66994  13.127  35.927   0.764
 3051W        W66995  13.653  39.019   4.296
 3052W        W66996  28.096  29.586  12.095
 3053W        W66997   3.901  27.688   4.707
 3054W        W66998  43.402  43.879  13.923
 3055W        W66999  41.795  21.539   2.867
 3056W        W67000  14.625  36.511   1.805
 3057W        W67001  19.571  15.177  10.565
 3058W        W67002  23.506   1.910  11.514
 3059W        W67003  40.822  38.413  13.986
 3060W        W67004  24.567  16.279  10.888
 3061W        W67005  43.932  37.564   0.741
 3062W        W67006  29.429  30.106  11.442
 3063W        W67007   3.738   4.318   4.166
 3064W        W67008  37.546   4.901   4.297
 3065W        W67009  16.622  11.633   5.223
 3066W        W67010  13.276  34.068  12.842
 3067W        W67011   2.285  42.477   2.343
 3068W        W67012   4.293  33.436  10.498
 3069W        W67013  15.686  21.147  11.456
 3070W        W67014  21.250   6.273   3.758
 3071W        W67015  43.361  19.718  10.567
 3072W        W67016   9.343  14.595   3.707
 3073W        W67017  19.061  26.609  10.639
 3074W        W67018   9.297  26.091  12.452
 3075W        W67019   2.367  38.903   3.665
 3076W        W67020   7.737  30.023  10.952
 3077W        W67021  10.668  30.476  12.856
 3078W        W67022   9.160  37.948   1.700
 3079W        W67023   7.703  10.653  13.501
 3080W        W67024  36.049   3.313   1.793
 3081W        W67025  41.471   9.226   3.829
 3082W        W67026  43.841  24.204   4.120
 3083W        W67027  31.638  38.524   0.326
 3084W        W67028  18.121  34.499   1.297
 3085W        W67029  13.623  26.604  11.418
 3086W        W67030   6.204   9.320  10.992
 3087W        W67031   3.378   0.352   1.367
 3088W        W67032  17.623  21.197  11.881
 3089W        W67033  10.230  44.476  13.484
 3090W        W67034   8.295  39.477   3.384
 3091W        W67035   5.787  39.882   2.741
 3092W        W67036  16.089  22.196   2.798
 3093W        W67037  21.214  19.672   2.889
 3094W        W67038  13.743  33.397   5.739
 3095W        W67039   1.267  42.930   1.371
 3096W        W67040  30.547  30.414   2.295
 3097W        W67041  17.728   8.743  10.628
 3098W        W67042   3.711  14.812   0.316
 3099W        W67043  10.302  14.255  10.589
 3100W        W67044   0.866  43.342   2.221
 3101W        W67045  27.455  30.990   3.871
 3102W        W67046  28.966  44.992   2.310
 3103W        W67047  25.971  32.990   2.395
 3104W        W67048  11.826  12.135   0.908
 3105W        W67049  27.445   5.343  10.995
 3106W        W67050  22.704  42.914   1.291
 3107W        W67051  30.516   7.767  12.436
 3108W        W67052  11.152   1.877  14.455
 3109W        W67053  32.091  27.625   1.839
 3110W        W67054   3.798  43.976   2.788
 3111W        W67055  35.488  28.018   2.394
 3112W        W67056  41.354  14.819  13.501
 3113W        W67057   8.846   4.251  13.971
 3114W        W67058  31.552   3.772  13.936
 3115W        W67059  11.183  11.757   2.770
 3116W        W67060  25.621  20.085  10.986
 3117W        W67061   1.348  24.503   4.273
 3118W        W67062  42.402  20.238   2.297
 3119W        W67063  24.994  41.999  13.866
 3120W        W67064   9.343  28.650   1.750
 3121W        W67065  42.804  12.750   2.822
 3122W        W67066  27.620  10.279  12.488
 3123W        W67067  20.733  13.633   0.366
 3124W        W67068  38.371  11.688   2.182
 3125W        W67069  20.727  15.698  11.975
 3126W        W67070   8.739  14.224   4.123
 3127W        W67071  43.499  34.896   3.815
 3128W        W67072  17.580   6.787   4.182
 3129W        W67073  32.598  24.508  12.982
 3130W        W67074   8.747  39.047  14.796
 3131W        W67075   5.400  20.124   2.790
 3132W        W67076   5.213  27.595  12.071
 3133W        W67077   6.793   1.890  14.926
 3134W        W67078  26.539  20.030   4.281
 3135W        W67079  33.945   3.301  11.881
 3136W        W67080  19.262  25.549  12.572
 3137W        W67081  12.738  24.154  10.444
 3138W        W67082   0.805  31.043  11.419
 3139W        W67083  25.070  22.030  12.474
 3140W        W67084  28.446   9.676   0.314
 3141W        W67085  10.163   6.695  11.011
 3142W        W67086  15.329  27.555  14.488
 3143W        W67087  19.172  23.240   1.370
 3144W        W67088   7.767   2.816   3.662
 3145W        W67089   0.472  39.923   3.289
 3146W        W67090  36.040   1.375  10.579
 3147W        W67091  41.380  16.642   4.638
 3148W        W67092  29.170  24.545  13.817
 3149W        W67093  16.611  12.805  14.774
 3150W        W67094  31.013   3.790   2.769
 3151W        W67095   4.778  23.174  12.401
 3152W        W67096  36.002   0.821  11.000
 3153W        W67097  14.293  23.692  12.459
 3154W        W67098  42.884  12.747  12.542
 3155W        W67099  12.658  40.549   1.313
 3156W        W67100  39.994  36.916  12.526
 3157W        W67101  31.043   8.719   1.925
 3158W        W67102  42.371  17.272   3.836
 3159W        W67103  24.676  30.503   2.299
 3160W        W67104  29.486  19.704  13.536
 3161W        W67105  16.570   7.729   4.134
 3162W        W67106  24.217  14.676  10.483
 3163W        W67107   1.261   9.720   0.314
 3164W        W67108  36.571  13.711   2.266
 3165W        W67109  29.463  40.910   0.734
 3166W        W67110  28.954   2.276   3.690
 3167W        W67111   1.793  35.526  14.391
 3168W        W67112  14.180   5.277  12.089
 3169W        W67113  15.107  13.640  11.388
 3170W        W67114  24.679  23.710   0.360
 3171W        W67115   3.298  28.152   3.698
 3172W        W67116  40.955  24.674   0.833
 3173W        W67117  41.017  11.367   2.383
 3174W        W67118  13.708  33.928  11.032
 3175W        W67119  11.761  24.090  14.284
 3176W        W67120   7.683  43.880  14.290
 3177W        W67121  39.361  44.305  10.945
 3178W        W67122  15.196  13.825  13.424
 3179W        W67123  26.184   6.816  12.490
 3180W        W67124  40.431  17.655  14.911
 3181W        W67125  27.125   8.802   4.626
 3182W        W67126  32.888   0.986  14.416
 3183W        W67127  23.566  29.118  11.519
 3184W        W67128  18.730  26.591  11.083
 3185W        W67129  44.810   7.717   4.788
 3186W        W67130  10.148  21.047  11.399
 3187W        W67131   1.888   3.267  12.084
 3188W        W67132  15.202  38.549  12.069
 3189W        W67133   2.364   7.765  13.903
 3190W        W67134  17.067  39.942   1.325
 3191W        W67135  17.295  28.013   0.352
 3192W        W67136  14.122  11.792   1.393
 3193W        W67137  26.522   8.722   0.355
 3194W        W67138  17.262   6.184  14.028
 3195W        W67139  40.987  35.958  13.495
 3196W        W67140  29.540   6.321   4.781
 3197W        W67141  20.114  16.609   1.764
 3198W        W67142  38.439   7.840  11.379
 3199W        W67143  36.944   7.836   1.349
 3200W        W67144  40.323   0.862  14.908
 3201W        W67145   9.259  20.584  12.546
 3202W        W67146  12.346  36.570  12.351
 3203W        W67147  39.883  11.841  13.801
 3204W        W67148  30.632   1.957  11.478
 3205W        W67149  17.117  26.121   3.175
 3206W        W67150  14.677  27.579  14.953
 3207W        W67151  39.451   0.768  11.429
 3208W        W67152  23.507   4.286  14.437
 3209W        W67153  32.441  42.356   2.265
 3210W        W67154  26.682  26.184   0.251
 3211W        W67155  40.840  32.926  13.830
 3212W        W67156  37.361  39.540   4.269
 3213W        W67157   7.826  20.523  12.403
 3214W        W67158  28.943  41.970   1.789
 3215W        W67159  11.843   8.732  12.002
 3216W        W67160  15.808   7.173  10.939
 3217W        W67161   4.339  25.599   0.819
 3218W        W67162  17.163  18.161  12.489
 3219W        W67163  39.512  33.480  14.419
 3220W        W67164  11.631   8.365   3.150
 3221W        W67165  14.703  29.486   2.897
 3222W        W67166  43.022  38.891   4.821
 3223W        W67167  37.899  38.360   4.671
 3224W        W67168  31.478  26.695   2.308
 3225W        W67169  19.533  44.259   0.830
 3226W        W67170  26.516  19.130   4.347
 3227W        W67171   5.387  11.850  12.361
 3228W        W67172  26.597   5.353   2.709
 3229W        W67173  44.846  25.212   1.867
 3230W        W67174   3.738  22.553  11.425
 3231W        W67175  44.449  20.123   0.918
 3232W        W67176  41.882  43.447   2.181
 3233W        W67177  32.885  42.403  10.968
 3234W        W67178   7.733  15.823   5.618
 3235W        W67179  36.061  24.607  13.383
 3236W        W67180  39.337  39.554   1.800
 3237W        W67181   2.443   6.241   4.800
 3238W        W67182  25.071  34.106   2.317
 3239W        W67183  36.876  33.482  13.917
 3240W        W67184  15.607  18.552   3.680
 3241W        W67185  39.007  13.813  14.346
 3242W        W67186  11.313   2.250  12.563
 3243W        W67187  42.482  41.030  12.056
 3244W        W67188  27.161  14.803  14.984
 3245W        W67189  40.016  14.720   4.678
 3246W        W67190  34.931  29.571  12.360
 3247W        W67191   7.704  40.328  12.094
 3248W        W67192  11.159  33.926   2.412
 3249W        W67193  26.577  28.147  13.542
 3250W        W67194  38.502  37.910   1.222
 3251W        W67195   9.157  33.072   4.236
 3252W        W67196   4.318  38.934  14.290
 3253W        W67197  26.131   8.677   5.226
 3254W        W67198  44.849  21.738  14.310
 3255W        W67199  17.221   2.384  11.002
 3256W        W67200  38.960  38.354  13.033
 3257W        W67201  33.936  22.114   3.689
 3258W        W67202  33.535  35.040   1.352
 3259W        W67203  17.615  30.142  12.883
 3260W        W67204   3.834  11.796  13.861
 3261W        W67205  19.108  31.632   2.223
 3262W        W67206  37.516   8.767   0.952
 3263W        W67207  34.094  18.683  11.904
 3264W        W67208  21.678  25.487   4.166
 3265W        W67209  21.568   2.414  12.988
 3266W        W67210   8.192   6.193  11.055
 3267W        W67211  25.018  40.436  12.952
 3268W        W67212  11.685  16.704   3.848
 3269W        W67213  27.047  21.605   4.117
 3270W        W67214  40.330  41.024  12.047
 3271W        W67215  44.789   2.240  11.967
 3272W        W67216  19.630  29.658  11.564
 3273W        W67217  15.218  41.462   0.756
 3274W        W67218   0.470  32.574   2.181
 3275W        W67219  13.343  19.628  12.010
 3276W        W67220  38.846  43.285  14.368
 3277W        W67221  22.729  22.018   4.232
 3278W        W67222  42.942  14.151   3.190
 3279W        W67223  36.381  44.341   3.803
 3280W        W67224  31.539  12.751  12.881
 3281W        W67225  28.560  32.944  12.896
 3282W        W67226  36.943  37.460  12.474
 3283W        W67227  35.951  10.229   4.645
 3284W        W67228  35.997  22.045   2.207
 3285W        W67229  26.200   0.786   1.719
 3286W        W67230  12.260  23.030  14.870
 3287W        W67231  27.464  35.449  10.918
 3288W        W67232  40.885   4.227  12.094
 3289W        W67233  28.511  18.147   1.702
 3290W        W67234  26.691   2.284   4.136
 3291W        W67235  18.181  24.500   5.570
 3292W        W67236   5.262  15.240   4.657
 3293W        W67237  41.517  26.675   3.838
 3294W        W67238  15.679   7.805   2.779
 3295W        W67239  10.266  43.897   3.273
 3296W        W67240  14.833  34.864  11.442
 3297W        W67241  15.593  23.610  11.040
 3298W        W67242   0.283  38.827   2.353
 3299W        W67243  12.805  37.954  12.479
 3300W        W67244  26.666  28.100  14.352
 3301W        W67245   0.874  33.904   3.705
 3302W        W67246  23.990   9.296  10.915
 3303W        W67247  12.681   3.253   0.900
 3304W        W67248  30.477   3.730  12.536
 3305W        W67249  15.639   6.697   3.721
 3306W        W67250   2.470  14.794   0.456
 3307W        W67251   9.257  29.042  12.521
 3308W        W67252  31.037   1.808  10.608
 3309W        W67253   0.262  15.236   0.845
 3310W        W67254  26.099   7.251  12.916
 3311W        W67255  43.829  14.627   1.388
 3312W        W67256   1.812  18.128  13.522
 3313W        W67257  38.937  44.801   1.916
 3314W        W67258  21.588  38.940  10.887
 3315W        W67259  25.625  27.163   3.663
 3316W        W67260   5.702  26.550   1.932
 3317W        W67261  29.035  32.558  14.332
 3318W        W67262  24.566  17.252  14.337
 3319W        W67263   0.445  40.522  11.857
 3320W        W67264  22.724  21.137   3.827
 3321W        W67265  13.746   6.274  11.065
 3322W        W67266  39.541  28.025   2.219
 3323W        W67267  29.498  28.092   0.440
 3324W        W67268  30.447  42.521  14.936
 3325W        W67269  36.085  29.551   2.239
 3326W        W67270  33.470   5.378  12.862
 3327W        W67271  34.549  25.538  13.867
 3328W        W67272  26.534  23.552   1.247
 3329W        W67273   9.305  37.909  10.416
 3330W        W67274   9.182   7.717  11.073
 3331W        W67275  25.041  17.682  13.807
 3332W        W67276  30.968  25.121  14.759
 3333W        W67277  18.607  31.591   3.219
 3334W        W67278  24.484   4.834   4.607
 3335W        W67279  26.557  24.157  11.401
 3336W        W67280  11.252  33.926  12.920
 3337W        W67281  26.670  43.905   3.742
 3338W        W67282  19.156   3.225  10.104
 3339W        W67283  17.113  36.354  12.532
 3340W        W67284  28.545  39.477  11.437
 3341W        W67285  36.868   1.313  11.565
 3342W        W67286  26.019  15.131  10.423
 3343W        W67287  16.272   8.890  11.455
 3344W        W67288  17.565  15.822   2.872
 3345W        W67289   4.268  16.312   2.826
 3346W        W67290  41.458  34.891   0.254
 3347W        W67291  29.106  29.570  13.013
 3348W        W67292  14.711  43.903  14.773
 3349W        W67293  28.069  15.161   5.247
 3350W        W67294   5.783   8.243   2.814
 3351W        W67295   6.368  29.124   3.733
 3352W        W67296  44.808  33.004  11.892
 3353W        W67297  11.823  32.955  11.513
 3354W        W67298   2.756  41.852   2.865
 3355W        W67299   5.244  21.626   0.810
 3356W        W67300  20.184  40.463   1.770
 3357W        W67301  15.671  15.132  13.957
 3358W        W67302  23.046  40.399  12.983
 3359W        W67303   9.225  17.669  10.470
 3360W        W67304   8.366   7.896   1.881
 3361W        W67305  21.644  11.356  14.514
 3362W        W67306   2.391  18.057   3.798
 3363W        W67307  25.190  38.058   2.278
 3364W        W67308   2.455  41.393  12.467
 3365W        W67309  25.158  20.607   3.234
 3366W        W67310  12.715  29.076   3.264
 3367W        W67311  28.532  41.313   1.220
 3368W        W67312  28.649  28.666  14.305
 3369W        W67313  17.270  36.957   0.846
 3370W        W67314  32.469  10.366   0.297
 3371W        W67315   7.281  42.905  14.026
 3372W        W67316   9.772   0.447   0.948
 3373W        W67317  35.550   7.831  13.830
 3374W        W67318   3.952  31.034   1.386
 3375W        W67319  21.079  28.619   0.833
 3376W        W67320  20.105  20.561  12.076
 3377W        W67321   0.298  15.692   2.728
 3378W        W67322   2.724  43.346   3.797
 3379W        W67323  37.863  38.011   0.290
 3380W        W67324  42.347  43.998   0.834
 3381W        W67325  13.238  18.615  10.454
 3382W        W67326  16.241   3.742   0.337
 3383W        W67327  23.140  13.136  10.434
 3384W        W67328  41.418   3.426   4.269
 3385W        W67329   0.277  11.163  12.390
 3386W        W67330  17.275  29.118  14.999
 3387W        W67331  36.054  33.015   4.329
 3388W        W67332  24.553  28.057  14.405
 3389W        W67333  18.129  33.436  12.096
 3390W        W67334   2.739  44.342  14.899
 3391W        W67335  19.123  30.461  12.910
 3392W        W67336   4.924  10.820   2.329
 3393W        W67337   0.331  14.312   3.342
 3394W        W67338  13.327   3.756   2.777
 3395W        W67339  33.130  27.558  14.862
 3396W        W67340   7.690  42.833   3.188
 3397W        W67341  21.651  28.667   3.179
 3398W        W67342   0.349  31.440   1.830
 3399W        W67343   2.855  32.043  14.437
 3400W        W67344  36.884   4.703   9.626
 3401W        W67345  38.000   5.266   0.265
 3402W        W67346  30.132  15.166  12.388
 3403W        W67347  19.172  42.347  12.999
 3404W        W67348  27.569  30.159  13.972
 3405W        W67349  14.733  18.614  11.880
 3406W        W67350  32.500   8.887   2.279
 3407W        W67351  41.334  27.116   2.680
 3408W        W67352   7.202  17.099  10.095
 3409W        W67353  26.988  44.771   0.386
 3410W        W67354  21.161  43.406  14.508
 3411W        W67355  29.135  38.560   1.914
 3412W        W67356  13.744   3.878   5.183
 3413W        W67357   5.828  24.183   0.377
 3414W        W67358  15.225  41.868   4.612
 3415W        W67359   1.745   8.209   1.243
 3416W        W67360  28.097  21.682   3.301
 3417W        W67361   6.296   4.398   3.740
 3418W        W67362  41.021  12.798  13.513
 3419W        W67363   6.895   4.223   3.169
 3420W        W67364  33.948  41.383   4.286
 3421W        W67365  41.495  20.602  14.507
 3422W        W67366   9.682  13.778   3.738
 3423W        W67367  26.142  10.171   1.420
 3424W        W67368   7.677  21.588   1.819
 3425W        W67369  22.701   0.274  13.983
 3426W        W67370  29.009   1.455   3.832
 3427W        W67371  23.193  18.721  12.567
 3428W        W67372  35.417   1.952   2.727
 3429W        W67373  32.108   5.409  10.578
 3430W        W67374  43.373  40.317   3.210
 3431W        W67375  14.224  13.174   4.337
 3432W        W67376  42.810  35.493   2.881
 3433W        W67377  29.110  29.446   3.679
 3434W        W67378   0.865  38.983  10.112
 3435W        W67379  13.203   4.874   9.954
 3436W        W67380   6.237  21.027   4.233
 3437W        W67381  43.436  43.286  10.637
 3438W        W67382  29.154  11.285   0.954
 3439W        W67383   8.391  16.100  13.426
 3440W        W67384  32.436   6.680  13.538
 3441W        W67385  29.483  23.573   1.859
 3442W        W67386  30.595  25.095   2.266
 3443W        W67387  30.450  33.040   4.186
 3444W        W67388   4.303  38.044  14.487
 3445W        W67389  37.350  39.417   2.339
 3446W        W67390  15.142  34.929   4.707
 3447W        W67391  25.476  38.493  11.930
 3448W        W67392  35.930   3.291   0.759
 3449W        W67393  26.015   5.726  11.109
 3450W        W67394  44.936   1.338  12.431
 3451W        W67395  40.381  17.627  13.989
 3452W        W67396  24.138  15.154   1.255
 3453W        W67397  44.966   6.900  11.460
 3454W        W67398  33.495   0.886  14.355
 3455W        W67399   0.979  19.749   2.880
 3456W        W67400   6.682  43.979   4.797
 3457W        W67401   8.836  34.009   3.745
 3458W        W67402  11.365  18.222   4.121
 3459W        W67403   1.370  34.412  13.871
 3460W        W67404  42.374  35.583   4.308
 3461W        W67405  23.073  34.962   0.301
 3462W        W67406  21.122  28.106  13.006
 3463W        W67407  40.923  44.841  12.959
 3464W        W67408  14.735  37.875   1.745
 3465W        W67409   9.691  14.237  13.379
 3466W        W67410  23.562  11.337  10.404
 3467W        W67411  15.122  19.100  10.469
 3468W        W67412  42.303  41.965   1.927
 3469W        W67413  10.347  37.548   3.350
 3470W        W67414  28.651  38.864   2.743
 3471W        W67415  25.071  20.625  12.076
 3472W        W67416  23.213  40.485   2.384
 3473W        W67417  10.261  29.437  11.060
 3474W        W67418  31.611  14.115   3.228
 3475W        W67419  23.499  26.143   3.802
 3476W        W67420  23.984  10.797  12.038
 3477W        W67421  19.651  13.692   1.814
 3478W        W67422  17.150  15.285  13.842
 3479W        W67423   6.897  30.592  11.119
 3480W        W67424  22.008  29.984   1.760
 3481W        W67425  36.491  15.758   5.251
 3482W        W67426  13.633   6.231  12.403
 3483W        W67427  19.267   7.367  11.457
 3484W        W67428  25.058  42.401   2.703
 3485W        W67429  14.649  27.175  11.560
 3486W        W67430  44.339  26.090  11.906
 3487W        W67431  26.044  32.911  13.400
 3488W        W67432  25.010  31.083  11.075
 3489W        W67433  25.115   3.270   1.343
 3490W        W67434   2.915  17.212  12.926
 3491W        W67435  15.086  12.214  14.762
 3492W        W67436  31.121   4.443  11.911
 3493W        W67437  38.920  21.178  12.907
 3494W        W67438  27.667   8.211   0.885
 3495W        W67439  11.344   4.841   1.897
 3496W        W67440  39.466   1.400   2.204
 3497W        W67441  27.194  38.455  13.977
 3498W        W67442   7.705  10.792  11.108
 3499W        W67443   7.344  41.808  10.561
 3500W        W67444  34.883   7.754  12.353
 3501W        W67445  15.202  14.168   4.691
 3502W        W67446  20.183   4.338   4.327
 3503W        W67447  13.602  20.621   1.324
 3504W        W67448   5.718  36.993  13.948
 3505W        W67449   5.787  43.985   3.696
 3506W        W67450   1.273  25.667   3.818
 3507W        W67451  40.498  20.132  11.014
 3508W        W67452  39.526  21.552  12.832
 3509W        W67453   2.913   0.956  14.759
 3510W        W67454  42.438   9.182  13.936
 3511W        W67455  16.283  19.156  10.419
 3512W        W67456  10.678  37.550  14.376
 3513W        W67457  19.147   0.885   0.917
 3514W        W67458   6.402  44.310  14.947
 3515W        W67459  30.084   2.391  12.942
 3516W        W67460  39.028  15.205  10.954
 3517W        W67461  23.021  26.057   0.906
 3518W        W67462  25.045  24.038  10.890
 3519W        W67463  35.948  37.993   3.163
 3520W        W67464  15.323  21.096  13.333
 3521W        W67465  16.799  22.145   2.303
 3522W        W67466   0.874  39.978   1.903
 3523W        W67467  41.417  36.544  13.365
 3524W        W67468  32.521  17.605  12.911
 3525W        W67469   4.448  11.658  14.287
 3526W        W67470  17.626  32.120  10.006
 3527W        W67471  30.496  26.021   3.191
 3528W        W67472  13.839  42.943  10.931
 3529W        W67473   2.859  17.565  10.570
 3530W        W67474  14.796   8.829  10.975
 3531W        W67475  22.664  40.312   0.355
 3532W        W67476  41.947  38.858   1.697
 3533W        W67477   2.915   3.308   2.348
 3534W        W67478  40.909  35.496  10.904
 3535W        W67479  10.176   9.231   1.389
 3536W        W67480  13.825  24.511  14.935
 3537W        W67481  25.477  10.320  11.393
 3538W        W67482  11.187  38.412   0.350
 3539W        W67483  41.981  28.672  14.401
 3540W        W67484  37.522   4.723   2.350
 3541W        W67485   3.723   3.857  14.829
 3542W        W67486   2.966  25.000  11.401
 3543W        W67487  29.569  12.660  10.490
 3544W        W67488  36.008  44.352  14.890
 3545W        W67489  36.437  10.225   0.892
 3546W        W67490  20.255  41.040  13.832
 3547W        W67491  24.659  19.257  13.875
 3548W        W67492  18.606   4.712  10.129
 3549W        W67493  36.879  17.304  14.470
 3550W        W67494  30.935  37.491   2.750
 3551W        W67495  19.723  38.416  13.454
 3552W        W67496  30.062  40.501   2.768
 3553W        W67497   7.300   8.283   3.310
 3554W        W67498   4.813  43.508  10.967
 3555W        W67499   4.444  22.117  10.418
 3556W        W67500  19.597  23.237  10.949
 3557W        W67501   5.302  27.568  12.465
 3558W        W67502  33.027  17.146  14.986
 3559W        W67503  33.418   8.862  12.916
 3560W        W67504  22.670  23.061  10.505
 3561W        W67505  15.814   5.800   3.145
 3562W        W67506  18.624  22.566  13.042
 3563W        W67507  30.533   4.930  14.490
 3564W        W67508  14.764   5.385  14.380
 3565W        W67509  32.106  15.151  10.509
 3566W        W67510  21.546  26.690  14.964
 3567W        W67511  43.290  20.246   1.301
 3568W        W67512  27.952  15.582  10.075
 3569W        W67513   3.229  43.855   2.181
 3570W        W67514  23.554  44.855   2.352
 3571W        W67515   0.750  16.672  10.558
 3572W        W67516  43.505   4.322   2.254
 3573W        W67517  32.052  43.947   1.449
 3574W        W67518  13.346  43.511   4.293
 3575W        W67519  40.470  40.431  14.889
 3576W        W67520  39.875  21.109  11.445
 3577W        W67521  27.632  33.083   4.681
 3578W        W67522  17.564   2.905  14.758
 3579W        W67523   4.323  20.613  12.959
 3580W        W67524  36.873   7.180   4.172
 3581W        W67525  32.887  24.558   4.194
 3582W        W67526   4.242   7.791   3.743
 3583W        W67527  11.243  30.543  10.943
 3584W        W67528  41.919  12.240   4.759
 3585W        W67529  27.691   5.744   3.673
 3586W        W67530  22.178  40.804   1.309
 3587W        W67531  21.240  32.545   3.149
 3588W        W67532  37.906   2.227  14.289
 3589W        W67533  35.360  18.726  12.360
 3590W        W67534  10.236  19.703   1.345
 3591W        W67535  22.506  37.087   4.681
 3592W        W67536  19.659  28.551  12.871
 3593W        W67537   7.889  10.166  13.461
 3594W        W67538  11.174  41.345   3.669
 3595W        W67539  11.297  41.956  14.366
 3596W        W67540  18.783  11.782   9.942
 3597W        W67541  16.761  28.628  13.468
 3598W        W67542  39.844  13.674   0.278
 3599W        W67543  17.794  16.238  13.484
 3600W        W67544  42.904  11.186  11.391
 3601W        W67545  25.587  42.781   1.815
 3602W        W67546  26.627   7.329  12.945
 3603W        W67547  35.094  13.650  14.985
 3604W        W67548   5.230  10.351  10.954
 3605W        W67549  41.503  38.549  11.090
 3606W        W67550  43.015  19.695   1.296
 3607W        W67551  20.229  43.770  10.504
 3608W        W67552  20.183   9.345   1.911
 3609W        W67553  10.244  15.132  12.887
 3610W        W67554   8.737  12.194  13.034
 3611W        W67555  34.907  10.745   4.125
 3612W        W67556  20.245  15.302  12.844
 3613W        W67557   8.235  43.830  14.325
 3614W        W67558  36.411   3.457   1.933
 3615W        W67559  18.604  30.490   1.308
 3616W        W67560  40.404  41.936  14.388
 3617W        W67561   5.327  35.882   2.783
 3618W        W67562  18.212  34.064   5.661
 3619W        W67563   9.359  13.696   5.197
 3620W        W67564  25.709  34.537   1.725
 3621W        W67565  25.500   4.825  13.459
 3622W        W67566  30.656   3.229  12.351
 3623W        W67567  37.558  25.643   3.722
 3624W        W67568   6.293  13.156  13.022
 3625W        W67569  20.164   5.233   0.749
 3626W        W67570  13.130  31.033  12.942
 3627W        W67571  16.303  11.675   3.648
 3628W        W67572  42.855  14.133  13.445
 3629W        W67573  21.043  11.158   0.448
 3630W        W67574  44.930   6.699  13.050
 3631W        W67575  28.094   6.706   2.741
 3632W        W67576  22.692  19.580  12.535
 3633W        W67577   9.678  13.789  13.927
 3634W        W67578  27.025  19.676   3.260
 3635W        W67579  42.371  42.407  13.036
 3636W        W67580   5.312  32.933   2.287
 3637W        W67581   2.836  21.254   2.186
 3638W        W67582  35.460   4.715  11.094
 3639W        W67583  23.142  12.285   0.933
 3640W        W67584  25.630   8.770  10.643
 3641W        W67585  14.250  18.156   0.740
 3642W        W67586  27.140  42.840  10.558
 3643W        W67587  12.150  11.243  14.448
 3644W        W67588   5.706  43.396   3.671
 3645W        W67589  13.343   6.820  14.954
 3646W        W67590  44.273   9.665  13.047
 3647W        W67591   4.302  40.411  12.906
 3648W        W67592  20.699  12.346   2.212
 3649W        W67593  22.704  35.071   3.348
 3650W        W67594  34.400   8.667   0.351
 3651W        W67595   5.436  11.637  11.089
 3652W        W67596  18.628  20.679  13.468
 3653W        W67597  27.121  14.729   4.281
 3654W        W67598  25.084  43.977   2.748
 3655W        W67599  24.038   8.892   0.431
 3656W        W67600  24.624  41.460  14.772
 3657W        W67601  27.168  11.693   0.298
 3658W        W67602  33.068  20.129   0.438
 3659W        W67603  39.467  14.299   1.241
 3660W        W67604  25.491   8.791  12.929
 3661W        W67605  43.997   0.829   0.747
 3662W        W67606  38.384  36.539   1.342
 3663W        W67607   8.655   4.211  13.509
 3664W        W67608  42.390  32.073   2.796
 3665W        W67609   1.847  13.666  11.554
 3666W        W67610  15.709   8.809   3.711
 3667W        W67611  21.615  23.062  14.902
 3668W        W67612   9.841  14.195  13.833
 3669W        W67613  24.999  40.913   3.786
 3670W        W67614  14.248  25.034  12.360
 3671W        W67615  31.406  20.126  12.411
 3672W        W67616  31.975  13.265  13.819
 3673W        W67617   9.796  12.634   2.197
 3674W        W67618  26.131   2.948  11.428
 3675W        W67619   0.805  42.412  14.461
 3676W        W67620  29.618  23.604   5.177
 3677W        W67621  42.958  43.006   0.931
 3678W        W67622   6.678  17.171   2.197
 3679W        W67623  37.558   4.788   0.878
 3680W        W67624  35.481  41.509  11.026
 3681W        W67625  11.689   3.390  14.488
 3682W        W67626  36.509  29.574  14.861
 3683W        W67627  40.431   1.815  12.475
 3684W        W67628  37.447  21.151  12.343
 3685W        W67629   9.305   3.331   4.338
 3686W        W67630  42.834  24.049   1.721
 3687W        W67631  34.949  31.507   1.384
 3688W        W67632  13.182  30.104   4.174
 3689W        W67633  11.238   0.257  14.422
 3690W        W67634  42.806  20.611  13.898
 3691W        W67635  36.971  38.022  13.055
 3692W        W67636  20.120  33.119   0.397
 3693W        W67637  16.170  17.685  10.983
 3694W        W67638  25.976  35.376   0.387
 3695W        W67639  25.684  44.434   2.388
 3696W        W67640  11.252  26.674  12.014
 3697W        W67641  21.604   1.386   1.792
 3698W        W67642  28.024   2.457  13.829
 3699W        W67643  16.079  43.806   1.791
 3700W        W67644  44.314   0.492  14.833
 3701W        W67645  41.038  44.459   1.695
 3702W        W67646   5.920  42.496   3.342
 3703W        W67647  23.531  29.468  12.400
 3704W        W67648   8.813  14.757   2.725
 3705W        W67649  44.825  19.279  12.966
 3706W        W67650  12.316  22.534   4.598
 3707W        W67651   7.695   5.344  12.893
 3708W        W67652  34.094   4.734  14.804
 3709W        W67653  33.962  10.348  12.884
 3710W        W67654  32.610   2.932   2.298
 3711W        W67655  16.614   5.429   4.716
 3712W        W67656  25.521  22.085  14.806
 3713W        W67657  25.627  38.926  10.015
 3714W        W67658  22.667   9.343  14.395
 3715W        W67659  17.647  19.683  11.444
 3716W        W67660  36.354  25.181   0.749
 3717W        W67661  14.295  40.494   4.348
 3718W        W67662  35.593  16.139   3.339
 3719W        W67663   8.799  35.879  14.944
 3720W        W67664  26.013  18.730   4.150
 3721W        W67665  37.917  40.880   4.701
 3722W        W67666  28.493  17.190  14.334
 3723W        W67667  42.361  31.488   4.228
 3724W        W67668  23.074  29.109   0.819
 3725W        W67669  41.836  31.521   3.291
 3726W        W67670  29.114  12.305   3.759
 3727W        W67671  12.271  17.294   1.865
 3728W        W67672   7.820  44.444  11.100
 3729W        W67673   8.713  17.626  14.389
 3730W        W67674  34.909  16.146   2.761
 3731W        W67675  36.083  38.562  14.838
 3732W        W67676  24.086  12.288  11.612
 3733W        W67677  26.571  37.401   4.152
 3734W        W67678  41.529  38.017  12.009
 3735W        W67679   9.869  35.109  11.875
 3736W        W67680  36.586   0.390   3.694
 3737W        W67681  34.090   4.736  13.863
 3738W        W67682  28.458  18.574  13.036
 3739W        W67683  17.704   9.862  10.037
 3740W        W67684  15.138  27.462  14.853
 3741W        W67685  12.116  23.615   1.315
 3742W        W67686  18.733   0.389   2.794
 3743W        W67687  21.160  11.136  12.827
 3744W        W67688  21.711  25.079  14.498
 3745W        W67689  20.695   4.907   3.367
 3746W        W67690  38.532  32.614   2.826
 3747W        W67691   7.348  15.157   2.345
 3748W        W67692  38.551   8.314  11.521
 3749W        W67693  31.963  22.049   1.246
 3750W        W67694   3.338  10.232   3.795
 3751W        W67695   0.926  43.926  11.596
 3752W        W67696  39.386  10.334   1.326
 3753W        W67697  18.583  17.121   4.820
 3754W        W67698  41.043  19.625  13.810
 3755W        W67699   0.790  25.065   3.259
 3756W        W67700  14.635  17.648  12.380
 3757W        W67701  26.506  37.420  13.330
 3758W        W67702  18.711  21.261   5.216
 3759W        W67703  44.964   1.899   2.887
 3760W        W67704   8.330  11.721  13.350
 3761W        W67705  32.142  19.703   2.227
 3762W        W67706  42.325  16.699   1.392
 3763W        W67707  39.843  43.332   1.276
 3764W        W67708   0.318  23.062  14.857
 3765W        W67709  19.153   6.282   4.782
 3766W        W67710  33.473  26.096   2.839
 3767W        W67711   5.226  35.877   1.258
 3768W        W67712   9.819  32.432  12.978
 3769W        W67713  24.616  38.923  11.950
 3770W        W67714  37.986  34.376   2.826
 3771W        W67715  32.030  19.594   3.675
 3772W        W67716  43.361  29.067   2.299
 3773W        W67717  24.684  34.900  12.542
 3774W        W67718   0.869  10.335  13.910
 3775W        W67719  13.678  22.165   2.228
 3776W        W67720  32.047  14.134   3.708
 3777W        W67721   1.877   8.274   2.752
 3778W        W67722  11.773  29.659  13.932
 3779W        W67723  23.645   2.730  11.597
 3780W        W67724  10.784  27.081   0.754
 3781W        W67725  42.886  16.282   1.236
 3782W        W67726  11.258  41.938  12.371
 3783W        W67727   5.934   1.438  12.920
 3784W        W67728  30.005  27.501  12.072
 3785W        W67729  40.436  37.372  14.949
 3786W        W67730  31.149   5.354   0.786
 3787W        W67731  41.456  15.785  13.390
 3788W        W67732   3.456  40.913  12.437
 3789W        W67733  43.379  21.216   1.711
 3790W        W67734   4.904  37.542  12.382
 3791W        W67735  23.999  25.016  10.541
 3792W        W67736  36.898  24.165   4.337
 3793W        W67737  19.169  30.085  11.436
 3794W        W67738  30.541  32.010  12.469
 3795W        W67739   7.378   7.747  14.827
 3796W        W67740  22.522  38.549  13.436
 3797W        W67741  25.988  12.688  12.901
 3798W        W67742  23.017  42.361   4.758
 3799W        W67743   3.906  30.060   3.736
 3800W        W67744  10.689  26.954  14.838
 3801W        W67745   0.265  44.000   3.336
 3802W        W67746  20.656  34.931  12.007
 3803W        W67747  40.853   9.211   2.334
 3804W        W67748   0.464   4.909  13.496
 3805W        W67749  23.106  10.147   9.955
 3806W        W67750  28.480   7.383   0.312
 3807W        W67751  38.894  41.997   2.304
 3808W        W67752  27.142  26.555  14.776
 3809W        W67753  43.974  36.502  13.884
 3810W        W67754  17.257   7.849   0.879
 3811W        W67755  27.595   6.811   3.234
 3812W        W67756  19.540  22.505  12.526
 3813W        W67757  21.177  29.086   1.349
 3814W        W67758  18.752   9.220  13.051
 3815W        W67759   2.329  33.895   4.738
 3816W        W67760   6.334  25.131  13.398
 3817W        W67761   0.406  24.578  11.858
 3818W        W67762  40.981  14.610   4.745
 3819W        W67763   8.317  38.342  11.879
 3820W        W67764  25.604  20.036   1.723
 3821W        W67765  42.964  12.708   3.178
 3822W        W67766  43.006  19.552   0.255
 3823W        W67767  23.079  44.412   3.713
 3824W        W67768   8.260  41.813   0.351
 3825W        W67769   8.733  26.592   2.784
 3826W        W67770  29.486  21.718   4.149
 3827W        W67771  18.178  35.583  12.016
 3828W        W67772  26.523  23.001  14.363
 3829W        W67773  40.423  14.232  10.968
 3830W        W67774  34.479  41.828   1.248
 3831W        W67775  24.219  29.460  14.442
 3832W        W67776   4.421  26.184  11.451
 3833W        W67777  21.606  44.959   1.322
 3834W        W67778  14.784  18.221  10.476
 3835W        W67779  40.399  13.349  11.939
 3836W        W67780  30.934  15.094  12.090
 3837W        W67781  13.730  20.625   2.709
 3838W        W67782  26.131  28.988  14.000
 3839W        W67783  20.249  44.957  11.409
 3840W        W67784  34.569  10.874  11.929
 3841W        W67785  29.548  36.554   3.148
 3842W        W67786  25.052  17.092   0.772
 3843W        W67787  18.116  39.536   3.185
 3844W        W67788  40.833  27.469  13.491
 3845W        W67789  44.393  11.685   0.753
 3846W        W67790   1.481  17.076   4.699
 3847W        W67791  25.706  35.441   3.670
 3848W        W67792  39.868  40.523   1.362
 3849W        W67793  29.158   6.804   2.193
 3850W        W67794  22.707  14.232   2.311
 3851W        W67795  28.103   9.316  12.094
 3852W        W67796  25.581  11.763   2.665
 3853W        W67797  34.903  22.545   1.227
 3854W        W67798   5.700  32.483  11.874
 3855W        W67799   4.900  30.422   0.342
 3856W        W67800  14.166  12.154  13.493
 3857W        W67801  22.056  19.206   3.387
 3858W        W67802  30.008   8.172  12.399
 3859W        W67803  29.489  43.307   0.903
 3860W        W67804  26.588  25.982   4.669
 3861W        W67805   1.297  12.821  11.515
 3862W        W67806  39.958  17.125   1.345
 3863W        W67807   9.228  15.158  13.309
 3864W        W67808   1.837   4.262   2.770
 3865W        W67809  36.359  41.314   3.148
 3866W        W67810  15.170  30.089   1.299
 3867W        W67811  26.650  33.423   1.750
 3868W        W67812   2.742   2.239   2.278
 3869W        W67813   0.254  40.882  13.504
 3870W        W67814  19.642  16.157   1.427
 3871W        W67815  23.591  33.874  13.320
 3872W        W67816  28.442  35.388  14.991
 3873W        W67817  40.931  22.030  13.983
 3874W        W67818  26.209  19.166   9.469
 3875W        W67819  16.650  43.489  11.514
 3876W        W67820   8.389   2.858   1.279
 3877W        W67821  33.973  18.139  11.972
 3878W        W67822  28.968  13.275   3.323
 3879W        W67823  18.125  23.214  13.488
 3880W        W67824   6.871  16.171   0.908
 3881W        W67825   5.900   2.792  12.349
 3882W        W67826   7.761  24.019  11.989
 3883W        W67827  25.642  14.159  11.881
 3884W        W67828  44.382   5.311   0.834
 3885W        W67829   1.838  34.903   2.352
 3886W        W67830  30.969  21.124  13.971
 3887W        W67831   7.738   1.287  10.495
 3888W        W67832  36.383  16.654  12.928
 3889W        W67833  12.326  24.684  11.900
 3890W        W67834  39.402  18.243   3.201
 3891W        W67835   5.817   4.707   3.736
 3892W        W67836   1.937  20.218  11.860
 3893W        W67837   2.962  28.134  11.479
 3894W        W67838  43.972   5.865  14.016
 3895W        W67839  33.943  43.398   4.832
 3896W        W67840  31.469  37.866   1.378
 3897W        W67841  44.287  23.076   3.228
 3898W        W67842  26.175  36.899  12.054
 3899W        W67843  18.702  13.279   0.320
 3900W        W67844  44.911  37.837  11.029
 3901W        W67845  31.457  38.492   3.225
 3902W        W67846   7.904  39.438  14.462
 3903W        W67847  26.703  15.693  11.999
 3904W        W67848  16.596  12.698  13.310
 3905W        W67849  28.040  37.531   5.132
 3906W        W67850  42.433   7.384  11.571
 3907W        W67851  12.689  27.584  11.470
 3908W        W67852  40.990   6.200   9.935
 3909W        W67853  10.669  21.525  12.844
 3910W        W67854  26.476  37.082  14.495
 3911W        W67855   7.300  18.759  10.542
 3912W        W67856   1.320  33.102  11.918
 3913W        W67857   9.195  31.085  12.473
 3914W        W67858  40.890  25.694   4.735
 3915W        W67859  11.157   2.266   2.848
 3916W        W67860  35.578  29.089  14.850
 3917W        W67861   9.868  26.046  13.337
 3918W        W67862  25.485  31.499  13.896
 3919W        W67863  39.390  28.449   0.461
 3920W        W67864  22.504  17.183   5.230
 3921W        W67865  34.909  33.445  13.032
 3922W        W67866  36.557  20.106   2.816
 3923W        W67867  44.441   1.933   3.321
 3924W        W67868  42.405  16.735   3.725
 3925W        W67869  29.623   3.826   2.726
 3926W        W67870   3.758   1.365   2.391
 3927W        W67871   1.401  21.103  11.914
 3928W        W67872  18.170  19.254   0.964
 3929W        W67873  18.172  37.443  10.932
 3930W        W67874  30.148  35.507  14.937
 3931W        W67875  10.729  44.360  12.381
 3932W        W67876  28.479  15.100   4.250
 3933W        W67877  26.509  39.843  14.348
 3934W        W67878   3.449  39.886   2.387
 3935W        W67879  38.387  37.415   1.225
 3936W        W67880  37.350  16.315   0.398
 3937W        W67881  36.035  33.593   3.365
 3938W        W67882  34.578   2.387  13.421
 3939W        W67883  36.001   1.780  14.335
 3940W        W67884  12.651  25.491  13.530
 3941W        W67885   4.910  34.536  14.395
 3942W        W67886   2.384  26.029  12.016
 3943W        W67887  43.290  33.052  13.513
 3944W        W67888  35.984  23.190  12.432
 3945W        W67889   7.247  44.973   3.212
 3946W        W67890  37.075  27.538  11.610
 3947W        W67891  43.891  21.099   2.312
 3948W        W67892  17.154  21.036  11.954
 3949W        W67893  30.506  11.299  10.892
 3950W        W67894  33.897  10.850   3.306
 3951W        W67895  22.616  18.269  14.779
 3952W        W67896  22.558  17.672   0.738
 3953W        W67897  37.465  41.872   3.796
 3954W        W67898  41.404  29.584  10.529
 3955W        W67899  24.977   0.344   3.377
 3956W        W67900  21.696  15.776   0.244
 3957W        W67901  42.331  42.451  14.514
 3958W        W67902  37.833  38.910   2.777
 3959W        W67903   0.308  11.677  13.470
 3960W        W67904  29.028  18.756   5.121
 3961W        W67905  30.615  35.588   2.393
 3962W        W67906  12.183  31.994  14.277
 3963W        W67907  40.887  32.628  13.845
 3964W        W67908  35.027  34.376   1.301
 3965W        W67909  40.869  15.741   0.923
 3966W        W67910  23.709  38.841  11.436
 3967W        W67911   9.347   5.712   1.324
 3968W        W67912  22.107  37.474  14.843
 3969W        W67913  33.404  34.929   3.282
 3970W        W67914  18.051   6.713  11.382
 3971W        W67915  25.697  27.159   4.810
 3972W        W67916   2.838  31.553  11.129
 3973W        W67917  17.067  25.569  11.519
 3974W        W67918  19.693  33.405  13.441
 3975W        W67919  11.654  28.590   3.386
 3976W        W67920  36.882   8.804   2.277
 3977W        W67921  41.520  28.034   2.864
 3978W        W67922  19.195  35.974   0.395
 3979W        W67923  30.502  13.281  14.813
 3980W        W67924   5.708  17.229   2.859
 3981W        W67925  39.992   1.966  12.942
 3982W        W67926  22.088  15.590  13.379
 3983W        W67927  26.027  11.762  14.959
 3984W        W67928   5.741  33.587   1.855
 3985W        W67929  41.311  37.549  13.541
 3986W        W67930  25.126  24.158  10.634
 3987W        W67931  19.241  39.887  12.025
 3988W        W67932  27.943  22.177  13.838
 3989W        W67933   0.490  40.428  14.967
 3990W        W67934  44.764  10.302  11.040
 3991W        W67935  13.150   4.231  13.348
 3992W        W67936   9.701  38.850   2.285
 3993W        W67937   4.405   4.230   3.770
 3994W        W67938   7.770  35.421   3.183
 3995W        W67939  31.410  13.216  11.074
 3996W        W67940   4.223  36.458  11.462
 3997W        W67941  36.457  27.488   2.320
 3998W        W67942  29.148  25.602  12.542
 3999W        W67943  20.104  37.342   4.700
 4000W        W67944  21.167  20.157  13.345
 4001W        W67945  29.436  11.148  12.067
 4002W        W67946  38.470   9.352   2.692
 4003W        W67947  11.227   7.176   1.875
 4004W        W67948   1.899  36.429   4.170
 4005W        W67949  29.142  30.492  11.905
 4006W        W67950  26.082   7.416   3.205
 4007W        W67951  36.041  18.081  11.396
 4008W        W67952  21.517   2.278  10.547
 4009W        W67953  35.596  38.531   3.321
 4010W        W67954  21.727   8.827  12.017
 4011W        W67955  32.600  14.618  11.085
 4012W        W67956  19.730  12.732  12.846
 4013W        W67957  16.766   6.368  13.405
 4014W        W67958   8.223  33.962  14.821
 4015W        W67959   3.765  16.136  13.308
 4016W        W67960  11.298  31.463  12.368
 4017W        W67961  19.059  28.977  12.903
 4018W        W67962  29.628  32.952   2.332
 4019W        W67963   8.252   7.859   1.426
 4020W        W67964  15.762  34.531   2.824
 4021W        W67965  43.325  44.341   0.376
 4022W        W67966  19.610  30.057  14.798
 4023W        W67967  44.857  27.985  13.048
 4024W        W67968   7.733  34.456   1.436
 4025W        W67969   6.362  40.359   0.318
 4026W        W67970  23.074  39.413  11.099
 4027W        W67971  11.154   4.840  13.396
 4028W        W67972  14.653  40.378   0.389
 4029W        W67973  39.543  38.469   2.242
 4030W        W67974   7.297  37.429   0.769
 4031W        W67975  20.554  44.501  14.023
 4032W        W67976  39.528  21.170  12.492
 4033W        W67977  22.543  40.406  11.425
 4034W        W67978  22.663  14.269   0.919
 4035W        W67979  20.560   0.265   1.801
 4036W        W67980  38.358   2.872  12.860
 4037W        W67981  32.948   0.325   0.912
 4038W        W67982  22.524  32.928   3.387
 4039W        W67983  31.910  41.358   1.407
 4040W        W67984  18.783  36.442  13.511
 4041W        W67985   0.419   0.932   2.364
 4042W        W67986  25.064  20.581   4.267
 4043W        W67987  12.147  36.355  13.893
 4044W        W67988  26.563  26.008   4.179
 4045W        W67989   5.281   9.164  14.971
 4046W        W67990  25.102  14.253   1.301
 4047W        W67991  42.941  22.541   2.755
 4048W        W67992  13.342  31.935  13.965
 4049W        W67993  19.653   3.823  11.611
 4050W        W67994   5.831  35.956  13.528
 4051W        W67995  16.682   1.274  13.311
 4052W        W67996  30.092   4.792   3.809
 4053W        W67997  42.787   7.759  14.358
 4054W        W67998  32.135  25.604   0.320
 4055W        W67999  35.540  15.731   4.175
 4056W        W68000  21.690  41.518  12.867
 4057W        W68001   8.227  19.763  11.015
 4058W        W68002  14.278  36.846   1.237
 4059W        W68003  22.565  40.479   1.327
 4060W        W68004   8.261   4.441   0.248
 4061W        W68005   5.689   7.695  11.419
 4062W        W68006  37.889   5.695  12.006
 4063W        W68007  32.898  34.074   2.852
 4064W        W68008  30.151  20.540  14.935
 4065W        W68009  10.708  19.565   4.836
 4066W        W68010   6.707   4.925   0.964
 4067W        W68011  33.963  17.069  12.077
 4068W        W68012  16.601  28.969  10.637
 4069W        W68013  14.805   1.769   2.709
 4070W        W68014  29.608  43.427  10.006
 4071W        W68015  41.867  37.078  14.832
 4072W        W68016   7.389  33.879   1.825
 4073W        W68017   5.862  13.115   1.841
 4074W        W68018  32.964  20.109   3.859
 4075W        W68019  42.011   5.260  13.930
 4076W        W68020  13.740   0.445   3.209
 4077W        W68021  43.437  26.966   4.624
 4078W        W68022   8.679  18.194  11.531
 4079W        W68023  30.557  31.580   3.310
 4080W        W68024  30.912  20.627  10.622
 4081W        W68025  16.570   3.294   4.153
 4082W        W68026   8.797  23.185   0.776
 4083W        W68027  13.714  15.749  12.446
 4084W        W68028  22.163   2.878   3.271
 4085W        W68029  28.012  43.998  13.851
 4086W        W68030  42.383  43.776  13.330
 4087W        W68031   8.833   6.743   2.764
 4088W        W68032  13.180  35.469  11.892
 4089W        W68033  37.452  39.972   1.432
 4090W        W68034  30.971  44.937  11.576
 4091W        W68035  36.912   0.247  12.487
 4092W        W68036  41.391  41.799   1.802
 4093W        W68037   3.820  23.636   0.246
 4094W        W68038  34.106   7.738   2.838
 4095W        W68039  24.677  28.039   2.252
 4096W        W68040   3.886  24.672   2.662
 4097W        W68041  38.925   3.397   4.823
 4098W        W68042  17.252   1.350  11.535
 4099W        W68043  10.192  33.538  12.991
 4100W        W68044  28.973   2.337  12.005
 4101W        W68045  19.218  41.404  12.050
 4102W        W68046  19.089   3.316   4.329
 4103W        W68047  10.773  13.743  12.031
 4104W        W68048  32.906  40.878   1.441
 4105W        W68049  44.336  17.184  12.963
 4106W        W68050  40.447  20.578  13.823
 4107W        W68051  28.664  38.418   1.349
 4108W        W68052   6.886  20.727  11.589
 4109W        W68053  32.131  15.614   5.111
 4110W        W68054  22.738   9.818   0.954
 4111W        W68055  28.171  42.402  14.420
 4112W        W68056  27.575  23.056  10.528
 4113W        W68057   4.322   4.874   3.177
 4114W        W68058  41.447   1.461   1.249
 4115W        W68059  26.614   4.734   1.909
 4116W        W68060  43.795  15.590   4.247
 4117W        W68061  30.024   8.704  13.444
 4118W        W68062  10.866  40.014  14.446
 4119W        W68063  27.092  30.417  13.010
 4120W        W68064  37.407  31.056  11.524
 4121W        W68065  25.142  25.611  14.838
 4122W        W68066   2.359   3.724   0.265
 4123W        W68067  13.350   6.759   0.812
 4124W        W68068  29.484   1.825   2.719
 4125W        W68069   8.377   9.765   0.892
 4126W        W68070  38.898  22.508   4.282
 4127W        W68071  11.685  33.570  11.596
 4128W        W68072  26.953  39.044   1.927
 4129W        W68073  13.715  11.704   4.132
 4130W        W68074  16.725  34.974  14.815
 4131W        W68075   5.375   6.213   4.304
 4132W        W68076  14.223  26.531  13.929
 4133W        W68077  41.371  21.696   1.270
 4134W        W68078  16.215  19.110  13.495
 4135W        W68079  27.682  34.600   1.445
 4136W        W68080  44.452  30.528   2.824
 4137W        W68081  22.140  15.135  10.561
 4138W        W68082  34.104  44.477  12.072
 4139W        W68083  24.157  18.770   1.436
 4140W        W68084  12.852  15.211   0.767
 4141W        W68085  21.102   9.340  12.512
 4142W        W68086  18.225   5.760  14.862
 4143W        W68087   7.825   7.845  11.879
 4144W        W68088  31.970   4.245  11.000
 4145W        W68089  30.141  21.069  13.447
 4146W        W68090  13.675  21.190   0.876
 4147W        W68091  35.884  27.190  13.932
 4148W        W68092  24.109  23.002  10.973
 4149W        W68093  42.858  11.845   4.162
 4150W        W68094  15.299  24.643   3.266
 4151W        W68095  13.126  31.456  12.830
 4152W        W68096  24.532  30.123  13.323
 4153W        W68097  20.682   6.826   2.238
 4154W        W68098  34.082  26.596   3.773
 4155W        W68099  10.236  39.321   2.758
 4156W        W68100  33.905  17.162  14.022
 4157W        W68101  25.032  28.520  14.905
 4158W        W68102  23.173  30.062   1.235
 4159W        W68103   0.804  42.442  12.918
 4160W        W68104  29.151  25.088   3.687
 4161W        W68105   3.293  17.604  13.888
 4162W        W68106  40.402  24.507   1.218
 4163W        W68107  36.866   3.388  13.540
 4164W        W68108  29.008   0.969  12.443
 4165W        W68109  12.765  25.984  13.882
 4166W        W68110  23.033  35.513  11.039
 4167W        W68111  17.766  32.919  14.777
 4168W        W68112  35.475  30.659   2.880
 4169W        W68113  16.659  39.330   2.346
 4170W        W68114  10.175   8.816  13.064
 4171W        W68115  13.116  28.453  14.479
 4172W        W68116   5.193  17.692  14.512
 4173W        W68117  18.192  14.709   2.361
 4174W        W68118  20.743  32.979   4.609
 4175W        W68119  32.049  30.600  13.922
 4176W        W68120  25.057   2.258  11.912
 4177W        W68121  23.569   9.251  12.531
 4178W        W68122   4.874   5.300  12.012
 4179W        W68123   8.703  42.964   4.646
 4180W        W68124  22.515  41.318  11.541
 4181W        W68125  10.680  42.526   3.791
 4182W        W68126  21.118   5.385   4.241
 4183W        W68127  33.434   2.750  10.435
 4184W        W68128   6.321   9.393  13.040
 4185W        W68129   7.300  32.930   2.670
 4186W        W68130  26.103  39.358  11.896
 4187W        W68131  23.601  13.672  13.345
 4188W        W68132  41.422  26.963   4.193
 4189W        W68133  21.734  18.186  11.444
 4190W        W68134  30.500  28.673   0.300
 4191W        W68135   9.380  14.329  14.424
 4192W        W68136   8.366  21.560  13.976
 4193W        W68137  11.675  43.019   9.978
 4194W        W68138  36.863  44.343  14.350
 4195W        W68139  38.408  26.559   2.304
 4196W        W68140  11.259  16.639   4.145
 4197W        W68141  24.481  38.350   3.158
 4198W        W68142   6.853  13.136  14.942
 4199W        W68143  34.059  24.229  11.926
 4200W        W68144  34.889  15.323   0.887
 4201W        W68145   1.388  30.087   2.281
 4202W        W68146  14.685  30.582   1.431
 4203W        W68147  19.683  43.411  12.062
 4204W        W68148  41.921  11.806  12.477
 4205W        W68149  37.004  43.998  11.590
 4206W        W68150   7.708   5.886  14.512
 4207W        W68151  18.669  23.116   3.161
 4208W        W68152  36.877  21.251  11.107
 4209W        W68153  29.667  34.506  14.770
 4210W        W68154   7.872   3.232   2.828
 4211W        W68155  19.250  13.621   0.960
 4212W        W68156  13.172  37.035   4.225
 4213W        W68157  24.652   5.722   4.310
 4214W        W68158  41.413  32.450  12.548
 4215W        W68159  38.503   3.929  12.473
 4216W        W68160  11.629  26.614   4.646
 4217W        W68161   2.267  26.553   4.314
 4218W        W68162  24.486  44.968   0.806
 4219W        W68163  39.532  35.478  14.366
 4220W        W68164   7.191  21.532  12.083
 4221W        W68165   1.272   8.344  14.326
 4222W        W68166   8.785  37.968   3.686
 4223W        W68167   6.275  38.429   2.401
 4224W        W68168   6.808   8.716   2.319
 4225W        W68169  14.738  42.438   3.301
 4226W        W68170  34.107  12.646  14.777
 4227W        W68171  24.191  19.613   2.755
 4228W        W68172  28.960  14.803   1.405
 4229W        W68173  34.882   4.848   3.830
 4230W        W68174   8.365  14.252   2.246
 4231W        W68175  19.168   2.314  12.908
 4232W        W68176  28.529   1.290  12.075
 4233W        W68177  31.057  13.195   3.238
 4234W        W68178  17.678  20.271   1.326
 4235W        W68179  38.921  38.986   4.333
 4236W        W68180  25.698  25.205  10.124
 4237W        W68181  33.095  36.381   3.326
 4238W        W68182  36.499   0.755   2.350
 4239W        W68183  41.827   2.769  13.968
 4240W        W68184  28.534   6.820  10.607
 4241W        W68185  25.987  15.274   2.405
 4242W        W68186  35.410  26.179  12.393
 4243W        W68187  37.898  40.386   1.790
 4244W        W68188  10.323  28.952   1.212
 4245W        W68189   9.802  15.245  10.567
 4246W        W68190  26.014  35.995  10.998
 4247W        W68191  12.684  36.027  13.892
 4248W        W68192  23.023   9.883   4.833
 4249W        W68193  28.633  34.874  14.976
 4250W        W68194   2.433  25.537   2.376
 4251W        W68195  16.229   9.776  14.335
 4252W        W68196   1.437  14.588  10.974
 4253W        W68197   1.865  41.827   1.728
 4254W        W68198  17.566  23.704  14.870
 4255W        W68199  22.117  20.195   1.770
 4256W        W68200  27.637  15.111   5.277
 4257W        W68201  33.613  12.337  14.433
 4258W        W68202  14.613   2.232   0.780
 4259W        W68203  13.153  34.006   2.260
 4260W        W68204  17.303  28.631  14.940
 4261W        W68205  39.038  30.604  11.085
 4262W        W68206   4.416  19.778   4.736
 4263W        W68207  39.005   0.777   2.792
 4264W        W68208  33.019   2.359  14.784
 4265W        W68209  41.373  13.625   3.213
 4266W        W68210  32.510  16.688  14.789
 4267W        W68211   9.847  17.292   0.964
 4268W        W68212  31.043   9.227   1.401
 4269W        W68213  19.676  40.424  11.542
 4270W        W68214  10.797  21.169  14.275
 4271W        W68215  31.555   9.788   3.655
 4272W        W68216  14.608  22.629  14.798
 4273W        W68217  12.342  19.054  12.385
 4274W        W68218  44.270  33.589   5.283
 4275W        W68219  28.078  21.138  13.487
 4276W        W68220  40.350  32.030   2.706
 4277W        W68221  22.593  40.038  12.070
 4278W        W68222  14.321  28.572  10.899
 4279W        W68223  31.957  31.555   4.281
 4280W        W68224   7.903  40.448  12.974
 4281W        W68225  41.995  27.082   0.459
 4282W        W68226  12.617   7.364   0.427
 4283W        W68227  29.922  30.009   3.835
 4284W        W68228  33.596  14.703  11.403
 4285W        W68229  39.014  10.783   0.902
 4286W        W68230   2.879   7.245  13.041
 4287W        W68231  24.019  18.646  11.976
 4288W        W68232  37.876  26.064   2.891
 4289W        W68233   3.735  20.716  14.933
 4290W        W68234  12.279  42.281   1.771
 4291W        W68235  24.003  10.232  12.859
 4292W        W68236  14.228   1.772   9.665
 4293W        W68237   5.775   5.922  12.978
 4294W        W68238  44.937   3.887  14.808
 4295W        W68239   5.260  28.588  13.864
 4296W        W68240  36.413  19.771   4.798
 4297W        W68241  17.680   0.859   4.350
 4298W        W68242   6.428  32.431   1.355
 4299W        W68243  31.151  18.720   2.860
 4300W        W68244   6.249  21.121  12.377
 4301W        W68245  11.325   8.871  13.345
 4302W        W68246  43.940  26.615  13.952
 4303W        W68247  37.039  16.782   0.885
 4304W        W68248  22.633   0.340   4.610
 4305W        W68249  17.760  10.867   2.736
 4306W        W68250   7.352   2.854  13.906
 4307W        W68251  18.219  40.371   1.307
 4308W        W68252  26.475  11.321   0.918
 4309W        W68253  26.648  23.211  12.512
 4310W        W68254  35.908  21.563   3.761
 4311W        W68255  16.617   2.350  13.989
 4312W        W68256  31.030  38.370  14.801
 4313W        W68257  43.853  36.057   4.228
 4314W        W68258   8.898  19.722   3.650
 4315W        W68259  18.545  27.043   1.706
 4316W        W68260  43.919  42.318  13.882
 4317W        W68261  37.833  28.602   2.188
 4318W        W68262  44.794  40.449  14.883
 4319W        W68263   3.220  38.031  14.382
 4320W        W68264  28.563  42.801   3.702
 4321W        W68265  13.211  29.108  10.527
 4322W        W68266  32.925  41.353  11.032
 4323W        W68267  38.486   6.693   2.712
 4324W        W68268  23.204  16.178   3.711
 4325W        W68269   3.760   7.884  14.850
 4326W        W68270  40.463  17.141   2.764
 4327W        W68271  24.676  12.288   2.693
 4328W        W68272  34.960  31.978   0.726
 4329W        W68273  35.105  24.660   2.244
 4330W        W68274  33.435  43.420  11.127
 4331W        W68275  18.737   3.393   4.201
 4332W        W68276  24.991   2.808  14.961
 4333W        W68277  21.644  12.824  10.412
 4334W        W68278  13.232  37.999   2.745
 4335W        W68279  30.089  39.335  10.144
 4336W        W68280  14.306  34.474   5.092
 4337W        W68281  38.042  25.000  13.801
 4338W        W68282  24.566   3.311   3.207
 4339W        W68283  42.808   6.812   0.476
 4340W        W68284   6.792  44.370  13.915
 4341W        W68285  29.428  22.095  14.850
 4342W        W68286   0.360  31.990   1.306
 4343W        W68287  44.336  34.084   2.222
 4344W        W68288  28.103   1.749   3.218
 4345W        W68289  42.826  39.849  12.486
 4346W        W68290  35.527  37.517   2.707
 4347W        W68291   9.312   7.293  12.918
 4348W        W68292  37.944   0.823   2.796
 4349W        W68293   1.846  18.069  12.456
 4350W        W68294  13.232  11.693   0.829
 4351W        W68295  23.689  13.743   4.691
 4352W        W68296  30.088  33.467   1.831
 4353W        W68297  20.767  28.624   3.654
 4354W        W68298   3.765  11.807   0.850
 4355W        W68299  42.383  33.980  11.517
 4356W        W68300  42.032  17.704  10.503
 4357W        W68301  43.968  38.980  12.069
 4358W        W68302  19.674  29.571  14.970
 4359W        W68303  43.424  15.775   0.795
 4360W        W68304  11.312   7.828   1.767
 4361W        W68305   7.201  30.596   0.960
 4362W        W68306   5.824   2.929  11.482
 4363W        W68307   7.802  40.309  14.818
 4364W        W68308   8.287  40.421  11.943
 4365W        W68309   6.367  42.915  13.054
 4366W        W68310  27.004  43.397   3.738
 4367W        W68311  23.038  29.432   2.341
 4368W        W68312  44.943  40.915  12.446
 4369W        W68313   6.690  36.001   2.722
 4370W        W68314  25.984  31.949   4.345
 4371W        W68315  26.538  15.220   0.430
 4372W        W68316   4.315  14.647   4.742
 4373W        W68317  25.482  19.057   1.915
 4374W        W68318  21.103  42.979  12.537
 4375W        W68319  39.340   7.230   0.812
 4376W        W68320  25.489  25.100   0.406
 4377W        W68321   7.702   8.828   2.753
 4378W        W68322  28.984  42.315  11.473
 4379W        W68323  10.866  37.830  11.378
 4380W        W68324  10.380   4.210   2.680
 4381W        W68325   8.302   4.858   0.245
 4382W        W68326  36.564  26.491   0.355
 4383W        W68327   6.919   8.748   1.802
 4384W        W68328  25.576  40.549  12.572
 4385W        W68329  11.701  13.740  10.409
 4386W        W68330  26.060   1.249   2.237
 4387W        W68331  39.402  42.489   1.920
 4388W        W68332  17.092  26.627   4.228
 4389W        W68333  18.122  17.095   4.608
 4390W        W68334  13.121  32.520   1.355
 4391W        W68335  20.223  35.994  10.598
 4392W        W68336   1.414  33.553  11.481
 4393W        W68337  21.548  18.761   3.313
 4394W        W68338  27.016  38.346   4.322
 4395W        W68339  24.163  11.762   2.763
 4396W        W68340  27.074  44.324   3.840
 4397W        W68341  34.461  36.864  11.479
 4398W        W68342  43.404   2.342  14.509
 4399W        W68343  38.482  37.932  11.505
 4400W        W68344  38.837  11.166  10.957
 4401W        W68345  21.022   2.414   2.902
 4402W        W68346  12.626  10.188   4.778
 4403W        W68347  25.175  36.448   0.416
 4404W        W68348  42.418   2.443   2.725
 4405W        W68349  19.545  42.324   4.217
 4406W        W68350  44.929  23.016  13.934
 4407W        W68351  22.009  35.083   1.251
 4408W        W68352  28.625  20.579  10.559
 4409W        W68353  33.589  43.914   3.692
 4410W        W68354  41.926  31.453  10.523
 4411W        W68355  32.066  15.680  11.537
 4412W        W68356  15.196  35.894   4.137
 4413W        W68357  36.090   3.834   3.851
 4414W        W68358   5.403  39.844   3.158
 4415W        W68359   4.217  16.767   0.354
 4416W        W68360  15.250  21.118   2.290
 4417W        W68361  39.887  16.791   1.447
 4418W        W68362  15.768  39.373   0.303
 4419W        W68363  21.065   8.361  14.835
 4420W        W68364  28.089   7.274   1.280
 4421W        W68365  27.160  32.548  11.005
 4422W        W68366   7.250  24.520  14.479
 4423W        W68367  44.266   7.406   2.246
 4424W        W68368   6.302  36.475  13.982
 4425W        W68369  24.184   7.887   2.670
 4426W        W68370  19.279  25.021   4.691
 4427W        W68371   0.363  37.980   4.115
 4428W        W68372  39.915  30.066  11.570
 4429W        W68373  19.684  14.195   1.915
 4430W        W68374  37.016  29.486  14.403
 4431W        W68375  16.077   5.924   4.685
 4432W        W68376  36.519   1.418   0.405
 4433W        W68377   8.841   7.310   0.376
 4434W        W68378  19.684  31.642  12.444
 4435W        W68379  15.628   3.215  11.411
 4436W        W68380  20.075  38.890   3.694
 4437W        W68381  35.866  25.685   0.910
 4438W        W68382  26.624  37.001   4.281
 4439W        W68383  12.652  32.906   2.340
 4440W        W68384  30.578  38.493  14.868
 4441W        W68385  38.068  35.402  13.358
 4442W        W68386  32.024   8.293  13.901
 4443W        W68387  12.199  20.683  10.562
 4444W        W68388  29.005  40.890   1.234
 4445W        W68389  24.998  26.021   2.903
 4446W        W68390  38.064  11.674   3.293
 4447W        W68391   3.912  43.875   1.743
 4448W        W68392  33.408   7.292  10.050
 4449W        W68393  11.673  24.153   2.694
 4450W        W68394  10.749  40.018  13.844
 4451W        W68395  13.294  37.037   2.322
 4452W        W68396   4.270  42.794  11.373
 4453W        W68397  25.604  40.519  14.412
 4454W        W68398  11.346  29.471   0.305
 4455W        W68399  31.548  23.992   3.288
 4456W        W68400  37.002   6.881   1.350
 4457W        W68401  18.127  29.475  14.882
 4458W        W68402  42.917   6.240   1.303
 4459W        W68403  18.191  38.502   1.233
 4460W        W68404  19.183  29.603  14.337
 4461W        W68405  32.626   1.888   3.763
 4462W        W68406  27.052  39.838  11.604
 4463W        W68407  23.149  11.268   4.694
 4464W        W68408   7.704  16.174   4.292
 4465W        W68409  39.339  37.873   0.394
 4466W        W68410  20.656  15.775   2.416
 4467W        W68411   3.879  15.610  12.430
 4468W        W68412  21.205  23.529   1.346
 4469W        W68413  23.526  30.633   1.886
 4470W        W68414  28.179  40.937   0.814
 4471W        W68415  37.842  37.907  12.506
 4472W        W68416  36.039  17.698  12.011
 4473W        W68417  22.030  36.438  11.929
 4474W        W68418  20.729  44.778  14.443
 4475W        W68419  22.517  41.040   0.816
 4476W        W68420  13.278  10.872   4.658
 4477W        W68421  17.234  10.249   5.215
 4478W        W68422  29.941  26.685  11.513
 4479W        W68423  29.009  13.735   2.348
 4480W        W68424  14.341  39.034  11.052
 4481W        W68425  24.020   5.352   0.394
 4482W        W68426  26.127  16.185   4.254
 4483W        W68427  29.005  27.947   2.867
 4484W        W68428   0.355   3.879   3.764
 4485W        W68429  24.209  33.536  14.810
 4486W        W68430  42.425  44.935   3.720
 4487W        W68431  30.578   5.421  12.954
 4488W        W68432  29.537  21.710   3.346
 4489W        W68433  22.705  19.150   0.898
 4490W        W68434  13.611   8.237  11.601
 4491W        W68435   4.302   5.879  14.786
 4492W        W68436  18.133  32.544   0.441
 4493W        W68437  30.026  20.184  10.946
 4494W        W68438   5.202   8.824  13.916
 4495W        W68439   7.198  35.959   3.155
 4496W        W68440   9.823   4.242   1.793
 4497W        W68441   9.239  21.526  14.455
 4498W        W68442  28.171  16.574  12.835
 4499W        W68443  11.226  18.257  10.142
 4500W        W68444  18.639   9.693   4.119
 4501W        W68445  27.682   4.836  14.831
 4502W        W68446  15.236   0.978   2.664
 4503W        W68447   3.249  32.551  10.533
 4504W        W68448  35.885  31.977   1.738
 4505W        W68449   2.828  28.992   3.814
 4506W        W68450   2.761  42.491  14.973
 4507W        W68451  24.057  20.604  12.066
 4508W        W68452   0.392  36.073   4.726
 4509W        W68453   8.179  12.187   2.234
 4510W        W68454  43.868  33.109   4.821
 4511W        W68455  26.606  24.076   2.731
 4512W        W68456  14.832  17.558   4.703
 4513W        W68457  30.490  25.555  12.354
 4514W        W68458  19.102  41.861  12.920
 4515W        W68459  39.868   8.826   4.779
 4516W        W68460  39.993  36.374   1.848
 4517W        W68461  29.425  26.186  12.831
 4518W        W68462  37.582   0.292  13.318
 4519W        W68463  32.944  12.169  12.901
 4520W        W68464  27.613  23.184  13.950
 4521W        W68465  40.337  41.354  11.899
 4522W        W68466  30.485   4.316   3.289
 4523W        W68467  38.859  32.399  11.071
 4524W        W68468   7.250   6.757  14.977
 4525W        W68469  11.633   7.385  12.497
 4526W        W68470  16.253  18.576   3.195
 4527W        W68471  11.253  13.155  11.924
 4528W        W68472  23.223  33.503   4.644
 4529W        W68473  17.577  28.637   0.774
 4530W        W68474   7.368  13.791  13.461
 4531W        W68475  36.563  27.541   0.865
 4532W        W68476   4.899  12.237   4.757
 4533W        W68477   7.315  12.831  14.848
 4534W        W68478  16.278  26.517   4.291
 4535W        W68479  19.261   2.887   1.905
 4536W        W68480   6.872  31.945   2.393
 4537W        W68481   6.360   9.694  10.618
 4538W        W68482  29.924  26.683   1.234
 4539W        W68483  23.079  25.640  12.092
 4540W        W68484  35.949  20.602   0.389
 4541W        W68485  28.513   8.192  14.415
 4542W        W68486  14.641  30.624   5.116
 4543W        W68487   8.754   7.413   1.362
 4544W        W68488  30.007  18.238  11.023
 4545W        W68489   0.273   3.806   2.692
 4546W        W68490   9.883   5.289  13.002
 4547W        W68491  38.846  13.712  14.004
 4548W        W68492  32.889  12.178   3.257
 4549W        W68493  31.152  40.489  13.806
 4550W        W68494  40.415   0.440  13.419
 4551W        W68495  15.615   3.404  13.452
 4552W        W68496  10.226   1.384  13.062
 4553W        W68497  42.950   7.315  13.794
 4554W        W68498  17.267   4.239   1.838
 4555W        W68499   4.363   6.909  12.454
 4556W        W68500   8.862  40.396  14.922
 4557W        W68501  13.163   5.902  13.369
 4558W        W68502  24.120  26.500   4.324
 4559W        W68503  41.298  12.698   0.367
 4560W        W68504  23.013  19.153   0.760
 4561W        W68505  43.971  21.066   2.772
 4562W        W68506  17.730  40.961  10.936
 4563W        W68507  35.923   1.768   1.707
 4564W        W68508   5.439  32.901   4.130
 4565W        W68509  34.014  33.539   3.188
 4566W        W68510  23.132  16.721  10.951
 4567W        W68511  24.098   5.277   2.312
 4568W        W68512  39.363   1.337   3.866
 4569W        W68513   8.248  24.617   0.327
 4570W        W68514  44.865   4.420  12.963
 4571W        W68515  11.186  14.264   4.695
 4572W        W68516   6.329  11.707  10.547
 4573W        W68517  43.875  10.668   3.163
 4574W        W68518  36.393   2.341  13.030
 4575W        W68519  29.979  31.140   1.330
 4576W        W68520  30.477   9.355   2.271
 4577W        W68521  13.264  30.102   2.383
 4578W        W68522  27.548  10.836   4.805
 4579W        W68523  29.520  43.966  12.991
 4580W        W68524  30.445  20.128  11.570
 4581W        W68525  39.421   2.378  11.423
 4582W        W68526   5.849  32.943   4.196
 4583W        W68527   6.847  20.266  11.533
 4584W        W68528  11.269  12.333  14.861
 4585W        W68529  43.462   5.382   2.742
 4586W        W68530  11.702  11.344  14.941
 4587W        W68531  30.062  39.558  13.847
 4588W        W68532  28.674  20.725   2.762
 4589W        W68533   9.269  15.186   2.240
 4590W        W68534  34.544   1.860   1.874
 4591W        W68535   4.893  29.155  11.894
 4592W        W68536  44.820  34.097   1.252
 4593W        W68537  24.499   0.969   2.234
 4594W        W68538  17.227  41.992  11.432
 4595W        W68539  42.781  12.248  14.946
 4596W        W68540  32.956  36.474   1.719
 4597W        W68541  34.947   6.305  13.493
 4598W        W68542   4.259  35.987   1.448
 4599W        W68543   8.722  39.326  13.036
 4600W        W68544  13.767  29.614   1.252
 4601W        W68545  31.604   6.852   3.731
 4602W        W68546  18.271  33.417  10.504
 4603W        W68547   8.203  41.888   1.766
 4604W        W68548  19.543  24.637  14.889
 4605W        W68549  13.685  37.559  13.805
 4606W        W68550   1.364  17.285  13.842
 4607W        W68551  24.230  14.318  10.958
 4608W        W68552  13.294   9.824  13.514
 4609W        W68553  41.022  26.580  13.318
 4610W        W68554  22.686  12.283   4.226
 4611W        W68555  39.051  22.604  13.528
 4612W        W68556  22.085  31.103   4.617
 4613W        W68557   3.834  22.742   9.926
 4614W        W68558   4.396  28.106   3.341
 4615W        W68559   5.761  19.191  14.393
 4616W        W68560   8.888  40.805  10.533
 4617W        W68561  18.708  22.643  12.474
 4618W        W68562   6.919  11.820  11.883
 4619W        W68563   0.332   5.775  10.102
 4620W        W68564   1.322  10.206  12.482
 4621W        W68565  22.735  15.620   2.246
 4622W        W68566  19.769  14.657   2.229
 4623W        W68567  35.474   4.411   3.184
 4624W        W68568  26.644   2.853   1.917
 4625W        W68569  15.318  41.343   4.234
 4626W        W68570   9.389  38.994  12.491
 4627W        W68571  12.722  39.418  14.493
 4628W        W68572  44.267  33.593  14.375
 4629W        W68573  41.338  36.419   4.196
 4630W        W68574  11.206  14.334  11.575
 4631W        W68575  41.418  19.094  14.487
 4632W        W68576   4.877  19.079   1.931
 4633W        W68577   4.226   1.883   2.802
 4634W        W68578  33.563  34.112  12.502
 4635W        W68579  31.977  33.402   5.309
 4636W        W68580   2.292  28.052  10.898
 4637W        W68581  13.235  26.059   1.886
 4638W        W68582  26.049  20.229  14.902
 4639W        W68583  34.584  32.522  13.891
 4640W        W68584  14.334  12.836  10.558
 4641W        W68585  41.524  13.723  12.995
 4642W        W68586  42.381   6.714   2.829
 4643W        W68587  11.770  34.481  10.411
 4644W        W68588  41.342  37.341   2.278
 4645W        W68589   5.799  30.987  14.300
 4646W        W68590   7.191   8.340  13.412
 4647W        W68591  26.123  16.575   9.644
 4648W        W68592  10.148  29.538  14.465
 4649W        W68593  35.855  11.183   1.449
 4650W        W68594  12.694   2.269   1.220
 4651W        W68595  24.509  31.449   2.897
 4652W        W68596  43.395   6.808   3.294
 4653W        W68597  11.337  34.383   3.387
 4654W        W68598   7.813  35.486   0.319
 4655W        W68599  30.479  18.104  11.524
 4656W        W68600  11.359  21.028   1.353
 4657W        W68601  16.168   7.754   4.251
 4658W        W68602  38.906   7.852   0.816
 4659W        W68603  37.500   5.326   0.964
 4660W        W68604  24.111  22.072  11.061
 4661W        W68605   1.322  27.097   2.307
 4662W        W68606  26.639  27.677   1.293
 4663W        W68607  26.067   9.830  10.616
 4664W        W68608  19.765   2.924   3.698
 4665W        W68609  17.680  16.732  13.460
 4666W        W68610  34.868  13.141   0.936
 4667W        W68611  27.192   4.834   0.379
 4668W        W68612   2.374   2.903  12.518
 4669W        W68613  44.440  43.301   1.721
 4670W        W68614  12.165  36.533   1.875
 4671W        W68615   6.232  44.275   3.630
 4672W        W68616  19.265  14.242   3.715
 4673W        W68617  13.809  23.985   0.474
 4674W        W68618  43.862   6.721   3.343
 4675W        W68619  44.268   2.812  12.059
 4676W        W68620  22.077   3.956   2.299
 4677W        W68621   6.289  15.705  11.926
 4678W        W68622  39.498  38.832  12.517
 4679W        W68623  15.706  18.270   2.756
 4680W        W68624  44.483  30.499  11.090
 4681W        W68625  32.475  32.138  13.020
 4682W        W68626  19.239   5.913   9.979
 4683W        W68627  42.436   1.451   0.901
 4684W        W68628  17.702   1.255  12.861
 4685W        W68629  37.845  16.111  13.946
 4686W        W68630  28.093  11.700   4.772
 4687W        W68631  25.603  20.120   2.346
 4688W        W68632  39.432  40.971   3.649
 4689W        W68633  16.611  12.244  12.512
 4690W        W68634   4.274  10.669   0.307
 4691W        W68635  35.603  19.744  11.040
 4692W        W68636  20.594  13.629  11.097
 4693W        W68637  23.102  36.974   0.832
 4694W        W68638  20.275  35.957   4.206
 4695W        W68639  37.468  33.517   3.191
 4696W        W68640  15.261   6.371  10.632
 4697W        W68641  22.123  40.417   0.404
 4698W        W68642  39.901  36.062  14.500
 4699W        W68643  17.660   8.198   2.876
 4700W        W68644  10.290  25.058   3.209
 4701W        W68645  44.786  25.980  11.095
 4702W        W68646  19.273  36.863  14.324
 4703W        W68647   3.735  14.603  10.474
 4704W        W68648  37.472  13.259   5.172
 4705W        W68649  26.951  31.632   0.445
 4706W        W68650  20.744  29.547  13.930
 4707W        W68651  23.537  21.688   1.279
 4708W        W68652  29.992  41.440   4.263
 4709W        W68653  11.863  14.827   2.269
 4710W        W68654   3.432   5.815   4.316
 4711W        W68655  39.961  38.825   0.888
 4712W        W68656  29.635  35.517  13.835
 4713W        W68657  14.755   6.428   3.244
 4714W        W68658  19.744  21.051   4.670
 4715W        W68659  32.630  16.310   2.775
 4716W        W68660  14.772  33.020   0.885
 4717W        W68661  14.317  16.796  13.377
 4718W        W68662  33.933  40.822  12.452
 4719W        W68663   0.460  15.126  13.490
 4720W        W68664  12.257  20.699   3.220
 4721W        W68665  35.533  30.573  13.496
 4722W        W68666  36.936  10.736  10.954
 4723W        W68667  43.993  22.056   2.225
 4724W        W68668  14.792  27.946   4.670
 4725W        W68669  34.423   4.392   4.216
 4726W        W68670   8.735  35.586  12.834
 4727W        W68671  33.068  40.377   4.176
 4728W        W68672  15.770  43.939  14.938
 4729W        W68673  34.375  36.061   4.655
 4730W        W68674  30.036  44.953   3.254
 4731W        W68675  23.068  41.518  13.876
 4732W        W68676   7.907  27.095   4.816
 4733W        W68677  27.973  39.020   0.891
 4734W        W68678  14.598  37.951   1.411
 4735W        W68679   6.232  20.238   4.285
 4736W        W68680  36.973  17.597  13.043
 4737W        W68681  37.940  40.488   1.419
 4738W        W68682  34.554   2.944  11.468
 4739W        W68683   3.433  42.317  13.907
 4740W        W68684  21.513  34.945   4.798
 4741W        W68685  13.745  37.839   1.900
 4742W        W68686  26.646  33.926   1.343
 4743W        W68687  36.956  28.102  12.881
 4744W        W68688   6.760  43.330   4.270
 4745W        W68689  32.938  20.598   0.252
 4746W        W68690  35.946   0.421   3.704
 4747W        W68691   4.205  20.065   1.809
 4748W        W68692  15.660  10.183   3.286
 4749W        W68693  26.678   5.756  11.012
 4750W        W68694  16.222   7.809  13.054
 4751W        W68695  28.495  41.970  12.580
 4752W        W68696  32.917  32.138   0.740
 4753W        W68697   4.397  32.914   4.318
 4754W        W68698   8.704  18.078  14.892
 4755W        W68699   1.804  21.256   3.820
 4756W        W68700  25.475  23.497  13.915
 4757W        W68701  20.637  16.792  13.858
 4758W        W68702  37.038   9.670   4.137
 4759W        W68703  22.696  11.779  12.909
 4760W        W68704  26.138  32.055   3.252
 4761W        W68705  25.629  10.242   1.862
 4762W        W68706   3.919  29.588  10.045
 4763W        W68707  35.529  21.196   3.718
 4764W        W68708  25.153  34.894  12.047
 4765W        W68709  26.523  33.022   3.270
 4766W        W68710  34.005   2.319   0.253
 4767W        W68711  38.530   5.226  14.398
 4768W        W68712  31.627  15.205   2.416
 4769W        W68713  33.412   8.673  10.899
 4770W        W68714  23.215  21.070  12.444
 4771W        W68715  15.632   0.359  13.830
 4772W        W68716  21.111   6.921  11.922
 4773W        W68717  12.725  15.750   3.267
 4774W        W68718   3.424  30.445  14.883
 4775W        W68719  29.476  24.994   1.307
 4776W        W68720  25.194  16.130   4.312
 4777W        W68721  44.774  41.303  13.512
 4778W        W68722  22.527  32.927   1.381
 4779W        W68723  39.484  31.085   4.692
 4780W        W68724   0.252  44.342  14.822
 4781W        W68725  16.079   7.782   2.882
 4782W        W68726  44.873  18.266   5.206
 4783W        W68727  13.835  38.412  14.513
 4784W        W68728   3.813  37.465   3.810
 4785W        W68729  30.458  29.564   2.293
 4786W        W68730  26.656  14.314  11.508
 4787W        W68731   7.897  31.410  14.412
 4788W        W68732   8.894  29.567  12.864
 4789W        W68733   3.728  30.020   3.220
 4790W        W68734  23.671  33.975   4.717
 4791W        W68735  40.016  19.050   1.247
 4792W        W68736  34.103   9.183   4.724
 4793W        W68737  40.940  42.345   1.431
 4794W        W68738  40.334  42.945  10.490
 4795W        W68739  25.487  18.711   4.652
 4796W        W68740  24.662  14.711  10.894
 4797W        W68741  36.497   6.839   4.180
 4798W        W68742  43.812  25.070  12.569
 4799W        W68743   5.317  31.094  14.802
 4800W        W68744  25.972   1.433  14.869
 4801W        W68745  34.982  19.708   2.328
 4802W        W68746  26.560  26.629  10.638
 4803W        W68747  37.411  11.683  13.852
 4804W        W68748  22.713  34.114  11.912
 4805W        W68749  36.385   8.375   0.755
 4806W        W68750   3.844  10.231  10.028
 4807W        W68751  37.360   3.277  10.943
 4808W        W68752  31.126  21.724  14.360
 4809W        W68753  37.532  30.627  14.301
 4810W        W68754  36.435  23.597   2.181
 4811W        W68755   4.313  23.014   3.686
 4812W        W68756  24.670  33.916   3.346
 4813W        W68757  37.926  40.991   4.117
 4814W        W68758  42.523  35.520  10.511
 4815W        W68759  26.658   0.829   4.610
 4816W        W68760  25.483  16.177   0.750
 4817W        W68761   3.874  11.262   0.961
 4818W        W68762   7.717  23.496   1.890
 4819W        W68763  27.603   6.239  11.896
 4820W        W68764  12.359  13.123   3.312
 4821W        W68765  17.079  23.617  12.964
 4822W        W68766  13.250  25.613   4.133
 4823W        W68767   8.383  34.431   1.231
 4824W        W68768   6.419  44.271   2.419
 4825W        W68769   7.848  42.791   1.869
 4826W        W68770   7.739   8.762  14.956
 4827W        W68771   2.830  16.681  11.919
 4828W        W68772  38.949   5.861  13.062
 4829W        W68773  42.860  32.018  10.587
 4830W        W68774  19.766  29.541  14.426
 4831W        W68775   1.367   1.299  13.314
 4832W        W68776  29.569   6.874   2.806
 4833W        W68777  31.613   8.693  12.968
 4834W        W68778   2.858  35.368  14.431
 4835W        W68779  33.386  12.149   0.472
 4836W        W68780  32.943   2.323   0.379
 4837W        W68781  32.084  30.574   1.371
 4838W        W68782  17.270   1.340  10.520
 4839W        W68783  30.019  43.785  12.491
 4840W        W68784   5.223  37.500  12.885
 4841W        W68785  29.073  32.136   0.401
 4842W        W68786  16.240  26.976   0.758
 4843W        W68787  37.893  20.207   2.361
 4844W        W68788  43.367  43.422  13.535
 4845W        W68789   8.814  12.779   0.756
 4846W        W68790   6.298  31.990   2.699
 4847W        W68791  16.210  29.662  12.067
 4848W        W68792  25.005   6.340   3.150
 4849W        W68793   3.386   9.750   4.808
 4850W        W68794   2.861  10.823   0.378
 4851W        W68795  12.224  34.471  14.771
 4852W        W68796  20.145  10.233   5.126
 4853W        W68797  43.851  13.237  12.508
 4854W        W68798   2.361  10.670   1.927
 4855W        W68799  20.104   5.266  13.859
 4856W        W68800  30.927  19.609  10.933
 4857W        W68801   7.900  22.662   2.728
 4858W        W68802   1.302   2.824  12.956
 4859W        W68803   0.310  38.043   2.734
 4860W        W68804  18.697  21.744   1.703
 4861W        W68805   1.809   4.208  10.990
 4862W        W68806  10.758  33.919  13.475
 4863W        W68807  42.316  12.704  12.963
 4864W        W68808  19.077  31.593  12.390
 4865W        W68809  28.049  28.114   3.229
 4866W        W68810  43.941  19.634  13.063
 4867W        W68811  38.455  15.755   5.247
 4868W        W68812   2.425   8.691   2.771
 4869W        W68813   8.332  19.669   0.812
 4870W        W68814  43.845   5.734   4.790
 4871W        W68815  40.032  26.117  10.933
 4872W        W68816  15.585  15.676   3.644
 4873W        W68817  39.346  32.614  14.442
 4874W        W68818  40.472  41.933   3.808
 4875W        W68819  26.984  31.567  12.049
 4876W        W68820  37.450  17.740   4.275
 4877W        W68821  29.514  15.295  12.957
 4878W        W68822   5.861  33.901   4.713
 4879W        W68823  18.282  21.522   3.284
 4880W        W68824  35.083  29.060  14.365
 4881W        W68825   3.440  28.936  11.584
 4882W        W68826   3.332  32.528   3.707
 4883W        W68827   4.878  32.564  10.912
 4884W        W68828   7.293   3.426   1.850
 4885W        W68829   2.955  25.520   2.237
 4886W        W68830  29.173  36.081  12.021
 4887W        W68831  15.218  19.593   1.921
 4888W        W68832  28.951   8.723   0.399
 4889W        W68833   0.861  27.076  12.987
 4890W        W68834  38.912  10.788   2.189
 4891W        W68835  31.564  29.431  12.896
 4892W        W68836   5.721  36.043   3.305
 4893W        W68837   9.827  22.575  10.905
 4894W        W68838   4.857  31.479   2.889
 4895W        W68839  23.071   9.728   3.842
 4896W        W68840  20.172  10.177  13.888
 4897W        W68841  17.637  18.073   1.833
 4898W        W68842  26.101  42.928  10.536
 4899W        W68843   2.302  10.815   3.733
 4900W        W68844   6.781  23.592  12.863
 4901W        W68845  38.898  33.061  14.391
 4902W        W68846  27.644  15.311   4.731
 4903W        W68847  30.126   7.765  11.378
 4904W        W68848  35.917  44.399  10.555
 4905W        W68849  43.842  41.370  14.853
 4906W        W68850  28.564   8.718  12.385
 4907W        W68851   7.840   9.331   1.815
 4908W        W68852   7.222  13.643   1.254
 4909W        W68853   0.281   7.858  12.422
 4910W        W68854  26.695  42.895   4.835
 4911W        W68855  15.271  43.425   3.766
 4912W        W68856   8.398  20.676   0.335
 4913W        W68857  18.132   0.415   0.890
 4914W        W68858  31.973   4.797   4.149
 4915W        W68859  36.355   3.354   3.671
 4916W        W68860  12.845  35.457   1.744
 4917W        W68861  19.670  37.080   2.873
 4918W        W68862  34.960  42.325   1.448
 4919W        W68863   0.411  14.696   1.247
 4920W        W68864  11.793  16.283   0.336
 4921W        W68865  18.180  39.459   1.325
 4922W        W68866   9.661  32.492   3.722
 4923W        W68867  41.862   1.789   4.730
 4924W        W68868  41.953  33.471   4.269
 4925W        W68869  27.475  10.856   3.212
 4926W        W68870  37.498  12.117   2.682
 4927W        W68871   0.782  11.671  14.768
 4928W        W68872  38.504  34.947  11.968
 4929W        W68873   9.883  25.467  14.915
 4930W        W68874   3.393   7.229   0.261
 4931W        W68875  28.161  17.582  11.409
 4932W        W68876   3.269  19.211   0.471
 4933W        W68877  15.256  33.621   2.339
 4934W        W68878   7.332  21.198   2.837
 4935W        W68879  16.205   5.195  11.882
 4936W        W68880  24.974  28.036  14.885
 4937W        W68881   7.666  25.076  14.028
 4938W        W68882  33.557  10.699  11.483
 4939W        W68883  13.769  13.679  13.978
 4940W        W68884  43.438  10.732  11.032
 4941W        W68885  32.025  27.997  11.603
 4942W        W68886  40.358  35.091  12.553
 4943W        W68887   2.930   8.255  11.987
 4944W        W68888  42.411  21.591   0.346
 4945W        W68889  37.865   4.933  14.876
 4946W        W68890  35.540  15.629  13.379
 4947W        W68891   7.389  33.972   0.950
 4948W        W68892  21.257  24.499   2.754
 4949W        W68893  33.056  34.399  14.425
 4950W        W68894  14.204   9.772   3.633
 4951W        W68895   8.260   7.746  10.478
 4952W        W68896  37.959  30.589   3.195
 4953W        W68897  10.775  16.259   2.265
 4954W        W68898  12.746  33.113   2.865
 4955W        W68899  35.562  25.042  12.429
 4956W        W68900  28.141  28.177   2.801
 4957W        W68901  11.293  12.240   4.342
 4958W        W68902  29.966  27.075  10.954
 4959W        W68903  40.432  44.318   1.444
 4960W        W68904  37.511  14.692   0.795
 4961W        W68905  43.442  17.093   3.759
 4962W        W68906   2.862  13.307   1.815
 4963W        W68907  42.381  37.890  13.338
 4964W        W68908  30.094  43.362   0.863
 4965W        W68909   0.791  13.628   2.846
 4966W        W68910  14.150   8.838   4.304
 4967W        W68911  42.990  33.543   5.278
 4968W        W68912  36.525  21.554   0.364
 4969W        W68913  43.767  43.457  12.553
 4970W        W68914  28.568   6.411  10.425
 4971W        W68915   4.869  39.823   1.422
 4972W        W68916  26.578  17.155  14.828
 4973W        W68917  44.297  13.755  11.432
 4974W        W68918   7.294  25.053   0.455
 4975W        W68919  39.381   5.197   2.765
 4976W        W68920  36.587   6.309   4.338
 4977W        W68921   0.821   0.970   4.802
 4978W        W68922  36.023  10.147  10.959
 4979W        W68923  39.890   3.286  12.469
 4980W        W68924  32.564  23.573   2.296
 4981W        W68925  32.887   4.263  10.929
 4982W        W68926  36.847  39.480  13.029
 4983W        W68927  32.525  37.439  12.499
 4984W        W68928   1.482  19.080   2.821
 4985W        W68929   3.904  20.041   1.251
 4986W        W68930  44.446   2.935  14.324
 4987W        W68931  32.521  42.319  13.966
 4988W        W68932  35.005  40.320   3.296
 4989W        W68933  23.571  23.013   1.915
 4990W        W68934  33.603   7.197   2.662
 4991W        W68935  23.545  15.668   1.226
 4992W        W68936  44.486  43.382  11.071
 4993W        W68937  28.069   0.850  11.410
 4994W        W68938  22.722  13.219   1.245
 4995W        W68939  32.576  35.888   4.263
 4996W        W68940  30.933  33.063  13.520
 4997W        W68941   3.729  34.571  13.367
 4998W        W68942  33.451  32.620  14.949
 4999W        W68943  11.156  26.060  11.582
 5000W        W68944  21.562  43.888  13.036
 5001W        W68945  24.529  40.876  12.951
 5002W        W68946  29.501   8.386  10.999
 5003W        W68947   7.258  38.845  13.047
 5004W        W68948  43.515  34.897  13.809
 5005W        W68949  33.546  24.160  13.516
 5006W        W68950  26.594  39.418  11.931
 5007W        W68951  14.159  36.564   1.287
 5008W        W68952  17.779   6.883   2.790
 5009W        W68953  23.553  43.003  11.472
 5010W        W68954  25.472   5.247  12.353
 5011W        W68955  12.689  16.636  12.938
 5012W        W68956   9.235  38.943   1.743
 5013W        W68957   8.365  17.280  11.395
 5014W        W68958  14.715  38.446   0.268
 5015W        W68959  43.434  33.535   3.146
 5016W        W68960  30.966  28.030  13.396
 5017W        W68961  13.779   4.358  11.908
 5018W        W68962  20.099  28.503   2.760
 5019W        W68963   1.749  19.071   1.754
 5020W        W68964   4.428  15.328   2.876
 5021W        W68965  12.783   9.791   4.352
 5022W        W68966  20.186   2.895   1.360
 5023W        W68967   9.241  29.161   2.803
 5024W        W68968  13.778  14.752   2.184
 5025W        W68969   6.297  38.888   3.294
 5026W        W68970  23.116  18.255   0.957
 5027W        W68971   9.169   4.712  10.966
 5028W        W68972  36.423  24.039  12.414
 5029W        W68973  17.766  37.557   1.902
 5030W        W68974  40.833  26.079   2.889
 5031W        W68975  35.502  18.130   1.270
 5032W        W68976  22.737  27.458   1.795
 5033W        W68977  24.110  39.898  14.804
 5034W        W68978  39.014  13.806  11.926
 5035W        W68979  17.203  25.121  14.031
 5036W        W68980  15.635  37.381   3.188
 5037W        W68981   4.438  43.829  12.971
 5038W        W68982  35.467  30.062  12.402
 5039W        W68983  43.298  37.412   3.158
 5040W        W68984  14.118  43.339  12.030
 5041W        W68985   0.287  15.303  11.890
 5042W        W68986  19.754  34.004   2.200
 5043W        W68987  19.172  16.239  11.871
 5044W        W68988   0.331  23.004  11.577
 5045W        W68989  37.560   3.374   2.685
 5046W        W68990  23.059  30.623  14.411
 5047W        W68991   4.754  39.878   1.743
 5048W        W68992   5.431   6.385  12.373
 5049W        W68993  28.952  23.504   2.320
 5050W        W68994  13.320  21.643   2.759
 5051W        W68995  16.685   2.373   0.779
 5052W        W68996  31.981  27.164  10.458
 5053W        W68997   9.765   2.775  11.111
 5054W        W68998  13.624   3.395   0.297
 5055W        W68999  12.290  42.855   1.223
 5056W        W69000  39.908  21.187   2.416
 5057W        W69001  36.410  28.534   1.891
 5058W        W69002  32.516  24.171  10.938
 5059W        W69003  39.847  37.541  12.426
 5060W        W69004  14.592  44.266  14.798
 5061W        W69005  35.921  11.684   5.155
 5062W        W69006   5.830  35.000  13.444
 5063W        W69007  31.467  38.840  14.452
 5064W        W69008   1.289  35.051   0.321
 5065W        W69009  38.028   4.214   2.736
 5066W        W69010  24.060  23.536  12.547
 5067W        W69011  28.942  40.959   2.286
 5068W        W69012  19.575  43.841   0.313
 5069W        W69013  44.908  26.556  14.297
 5070W        W69014  32.016  30.078   4.825
 5071W        W69015  41.963   5.322   3.804
 5072W        W69016  41.333   4.288  12.847
 5073W        W69017  37.900  44.843  13.062
 5074W        W69018   8.399  25.117  12.040
 5075W        W69019  25.699   7.231   4.642
 5076W        W69020  19.194  27.527  13.826
 5077W        W69021  27.107  11.727   0.946
 5078W        W69022  20.646   2.796   1.774
 5079W        W69023  21.537   1.767   3.635
 5080W        W69024  24.569  27.669  12.492
 5081W        W69025  37.939  23.099  14.317
 5082W        W69026  11.797  13.236  12.440
 5083W        W69027   6.815  18.211   0.317
 5084W        W69028   1.909  22.077  11.971
 5085W        W69029  23.038  38.984   3.754
 5086W        W69030   5.769  34.524  11.124
 5087W        W69031  42.342  31.513  13.407
 5088W        W69032  10.742  19.040   0.966
 5089W        W69033  22.741  24.160   3.377
 5090W        W69034   1.784  14.668  10.603
 5091W        W69035  23.205  17.153   3.204
 5092W        W69036  30.927   7.779  14.513
 5093W        W69037   3.302   1.384   4.160
 5094W        W69038   7.182  21.216  10.968
 5095W        W69039  12.213  38.555  12.580
 5096W        W69040  37.355  36.079  14.007
 5097W        W69041  15.620  23.075   4.791
 5098W        W69042   4.248   4.786   1.346
 5099W        W69043  35.072  35.600  10.494
 5100W        W69044  14.281  25.714   2.192
 5101W        W69045  25.975  14.790  12.954
 5102W        W69046  35.446  29.536   3.344
 5103W        W69047   2.453  43.275  14.479
 5104W        W69048  40.505  18.168   3.806
 5105W        W69049   3.843   9.360  13.489
 5106W        W69050  29.044   3.901   2.190
 5107W        W69051  34.984  13.168  13.983
 5108W        W69052  36.509  23.205  11.023
 5109W        W69053  35.927  16.316   2.877
 5110W        W69054   4.790  11.775  13.446
 5111W        W69055  36.405  25.565   2.215
 5112W        W69056  30.585   9.854   2.404
 5113W        W69057  43.442   1.808  13.962
 5114W        W69058  44.976  21.573  14.759
 5115W        W69059  38.021  38.440  14.855
 5116W        W69060  24.056  22.249   2.362
 5117W        W69061  28.934   5.853   0.309
 5118W        W69062  40.959  31.928   1.724
 5119W        W69063  26.983   6.683   3.723
 5120W        W69064  14.624   0.945   4.305
 5121W        W69065  40.448  29.668   0.457
 5122W        W69066   3.731  21.128  14.466
 5123W        W69067  12.621  21.593   1.805
 5124W        W69068  20.245  39.898  13.957
 5125W        W69069  30.643  28.035   1.267
 5126W        W69070   0.461  23.541   1.830
 5127W        W69071  42.427  34.530   1.325
 5128W        W69072   5.890   1.299  12.024
 5129W        W69073  18.561  24.482   2.893
 5130W        W69074  25.579  19.670   1.731
 5131W        W69075  41.878   0.307   2.853
 5132W        W69076  20.203  41.491  10.916
 5133W        W69077   1.945   5.346   3.806
 5134W        W69078  26.005   2.957   1.929
 5135W        W69079   8.759  18.210   3.710
 5136W        W69080  28.473  39.441  13.880
 5137W        W69081   5.817  31.497  12.859
 5138W        W69082  22.744  40.839   4.611
 5139W        W69083  27.578  43.799  13.947
 5140W        W69084  29.492  25.099   4.605
 5141W        W69085  43.386  25.474  12.845
 5142W        W69086  38.882  18.282  10.568
 5143W        W69087  26.019  37.439  13.038
 5144W        W69088  26.054  13.124   3.292
 5145W        W69089  17.298  39.911   2.200
 5146W        W69090  36.858  24.052  12.534
 5147W        W69091   1.481  43.867   4.150
 5148W        W69092   9.227   7.309   2.346
 5149W        W69093  23.113  27.623  11.077
 5150W        W69094  10.710  30.080  10.465
 5151W        W69095  42.348   3.842   2.374
 5152W        W69096  27.173  23.997  14.501
 5153W        W69097   2.898  37.833  14.443
 5154W        W69098  17.111   2.799  14.299
 5155W        W69099  32.572  16.310   4.742
 5156W        W69100  42.445  36.479  14.780
 5157W        W69101  15.804   1.301   3.774
 5158W        W69102  25.520   7.826   0.956
 5159W        W69103  27.042  41.417   0.269
 5160W        W69104  31.118  26.105  11.404
 5161W        W69105  13.792  25.094   1.728
 5162W        W69106  39.529   1.831   3.840
 5163W        W69107  41.478   4.428  10.638
 5164W        W69108  12.783  44.831  11.974
 5165W        W69109  17.597  30.054   1.226
 5166W        W69110   7.790  32.114  12.048
 5167W        W69111  26.552   8.283   2.687
 5168W        W69112  24.606  43.810   3.289
 5169W        W69113  17.798   8.295  11.525
 5170W        W69114  38.399  20.635  11.089
 5171W        W69115  32.064  16.779   4.230
 5172W        W69116  38.899  29.606   4.688
 5173W        W69117   4.918  23.633  11.611
 5174W        W69118  18.265  35.990   0.270
 5175W        W69119  23.644  41.993   4.189
 5176W        W69120   6.182  26.109  14.297
 5177W        W69121  10.720  31.415   0.749
 5178W        W69122   7.358  25.576   2.900
 5179W        W69123  21.753   2.730  11.600
 5180W        W69124   0.381  35.858  10.522
 5181W        W69125  31.596  27.617  14.881
 5182W        W69126  36.584  14.211   2.375
 5183W        W69127   0.947   3.438   4.621
 5184W        W69128  33.429   9.299  11.076
 5185W        W69129  34.047   6.425   2.216
 5186W        W69130  22.717  37.840  14.441
 5187W        W69131  22.623   2.414   4.301
 5188W        W69132  44.821  39.427   0.794
 5189W        W69133  21.637  26.067   4.298
 5190W        W69134  25.039  44.794   1.700
 5191W        W69135  25.067  16.582   3.323
 5192W        W69136  36.888  42.488   3.365
 5193W        W69137  18.685   8.793  14.932
 5194W        W69138  14.778  39.943   3.228
 5195W        W69139  33.596  24.625   3.250
 5196W        W69140   3.315   9.250   2.318
 5197W        W69141  19.110  19.641   2.891
 5198W        W69142  38.827  15.124  11.473
 5199W        W69143  28.598  10.731   4.641
 5200W        W69144   6.766  38.516   2.229
 5201W        W69145  42.294  44.979   2.816
 5202W        W69146  33.561  44.776   1.232
 5203W        W69147  26.695   3.361  11.075
 5204W        W69148  16.214  16.131   3.253
 5205W        W69149  21.121  43.323  13.545
 5206W        W69150  16.576  19.208   3.747
 5207W        W69151  22.248  30.465   2.664
 5208W        W69152  10.778  35.068   3.236
 5209W        W69153  30.654  38.977   4.253
 5210W        W69154  41.022  24.988   3.301
 5211W        W69155  38.509  34.449  13.440
 5212W        W69156   7.259  33.535   4.136
 5213W        W69157   1.884  35.094   2.700
 5214W        W69158  33.501  17.750   4.218
 5215W        W69159   9.266  18.644   2.697
 5216W        W69160  34.041   0.949  14.419
 5217W        W69161  10.175  22.153  12.000
 5218W        W69162  14.273  38.528  11.987
 5219W        W69163  23.221  43.863  10.956
 5220W        W69164  24.586  22.524   3.684
 5221W        W69165  38.935  34.973  11.917
 5222W        W69166  30.438  27.029  11.048
 5223W        W69167  15.100   5.932   3.375
 5224W        W69168  35.370  42.807   4.157
 5225W        W69169  27.112  41.432  12.870
 5226W        W69170   4.239   7.378  13.315
 5227W        W69171  18.084   0.767   2.742
 5228W        W69172  30.521  17.585  14.513
 5229W        W69173  43.997  12.315   0.779
 5230W        W69174  27.142  22.247   4.666
 5231W        W69175  29.137  33.426   3.235
 5232W        W69176  22.723  37.520   4.632
 5233W        W69177   3.412  38.873   3.641
 5234W        W69178  22.662   1.736   5.124
 5235W        W69179   0.894  26.483   5.193
 5236W        W69180  33.005  24.666   3.283
 5237W        W69181  31.130  15.101  13.987
 5238W        W69182  43.475   2.408  13.457
 5239W        W69183   7.874  11.744   0.744
 5240W        W69184  13.740   0.252   0.416
 5241W        W69185  23.987  25.481   4.195
 5242W        W69186  33.128  29.063   0.949
 5243W        W69187  30.967   1.410  11.996
 5244W        W69188  27.066  44.501   4.119
 5245W        W69189   4.223  19.242   0.318
 5246W        W69190   1.245  13.719   4.238
 5247W        W69191  24.678   3.307   0.966
 5248W        W69192  19.686  31.501  11.959
 5249W        W69193   3.345  15.189   1.740
 5250W        W69194  17.158  43.916  11.442
 5251W        W69195  15.644  27.597  12.839
 5252W        W69196  14.731   7.234  10.037
 5253W        W69197  17.189   2.312   3.201
 5254W        W69198  36.350  26.697   1.357
 5255W        W69199  31.597  36.084   2.197
 5256W        W69200  30.586   7.273  11.562
 5257W        W69201  10.268   8.670   4.606
 5258W        W69202  31.616  44.968   4.747
 5259W        W69203  19.168  42.507   3.736
 5260W        W69204  17.569  32.415  10.598
 5261W        W69205  20.051  37.429  13.006
 5262W        W69206  16.716   6.214  14.359
 5263W        W69207  42.862   8.230   0.447
 5264W        W69208  40.963  31.460   0.943
 5265W        W69209  39.898  21.029  12.853
 5266W        W69210  25.140   3.939   1.363
 5267W        W69211  27.592  23.996   3.810
 5268W        W69212  27.050  41.460   3.818
 5269W        W69213  32.097  29.552  12.377
 5270W        W69214  37.581  25.644  12.504
 5271W        W69215  14.710  42.032   3.705
 5272W        W69216  26.176  13.788   2.744
 5273W        W69217  11.752  28.440   1.784
 5274W        W69218   2.258  14.830  13.347
 5275W        W69219  21.755  44.880  13.795
 5276W        W69220  44.280  16.659  12.006
 5277W        W69221  19.182  22.010  10.045
 5278W        W69222  28.555   6.733   1.248
 5279W        W69223  31.105  28.994   1.234
 5280W        W69224  11.229  43.344   4.750
 5281W        W69225   8.326  28.537  13.793
 5282W        W69226  34.368  11.663   1.750
 5283W        W69227  25.487  39.405  11.938
 5284W        W69228  17.247  20.691   4.614
 5285W        W69229  12.185  28.674   3.783
 5286W        W69230  33.540  31.132  12.513
 5287W        W69231   3.267  34.473  10.160
 5288W        W69232  14.623  12.245  11.392
 5289W        W69233  31.967   7.406  11.490
 5290W        W69234   7.333   0.926   3.351
 5291W        W69235   0.881   3.348  12.077
 5292W        W69236  31.110  22.093   4.637
 5293W        W69237  39.974  28.091  13.406
 5294W        W69238  25.057  11.240  14.414
 5295W        W69239   8.793  16.742  13.365
 5296W        W69240  23.521  35.911  10.636
 5297W        W69241  15.219  44.940   2.262
 5298W        W69242   2.344  38.328   2.383
 5299W        W69243  43.974  13.135   2.318
 5300W        W69244   9.229  44.492   4.763
 5301W        W69245  25.694  10.795  14.471
 5302W        W69246  22.086  28.049  10.925
 5303W        W69247  30.960  31.584  11.414
 5304W        W69248  24.600   0.389   3.172
 5305W        W69249  25.029  27.649  12.970
 5306W        W69250   3.739  19.133   3.781
 5307W        W69251  11.825  18.712   3.146
 5308W        W69252   4.379  40.463   3.212
 5309W        W69253  13.186  14.269  10.982
 5310W        W69254  24.599  41.006  12.401
 5311W        W69255  21.659   1.372  12.401
 5312W        W69256  31.104  34.598  13.905
 5313W        W69257   9.346  28.456  13.822
 5314W        W69258  13.723  35.973  11.378
 5315W        W69259  39.476   6.406  13.406
 5316W        W69260  12.232   4.724  13.881
 5317W        W69261   1.817  30.647   3.868
 5318W        W69262  33.542  19.268   3.262
 5319W        W69263  38.407  19.142   1.729
 5320W        W69264  33.030   8.843   2.277
 5321W        W69265  14.195  21.585   2.395
 5322W        W69266   3.805  29.657   4.198
 5323W        W69267  23.683  12.696  12.356
 5324W        W69268  27.957  36.428  10.103
 5325W        W69269  19.143  35.029   0.362
 5326W        W69270   8.201  44.774   1.904
 5327W        W69271  32.038   4.422  13.874
 5328W        W69272  18.065  11.668   0.810
 5329W        W69273   4.751  21.615   1.874
 5330W        W69274   7.714   1.317   0.788
 5331W        W69275  32.067  24.167   3.854
 5332W        W69276   2.958  30.620   4.689
 5333W        W69277  24.524  37.038  11.886
 5334W        W69278  38.065  34.901  10.938
 5335W        W69279  32.451   0.971  14.854
 5336W        W69280  27.193  25.016  13.340
 5337W        W69281  25.677  37.845  14.979
 5338W        W69282  11.258  15.215  14.483
 5339W        W69283  36.950   0.837   1.302
 5340W        W69284   0.917  42.503   0.252
 5341W        W69285  15.771  20.233  14.814
 5342W        W69286  31.425  18.151  12.371
 5343W        W69287  21.254  28.601  14.790
 5344W        W69288  25.604   5.710   1.438
 5345W        W69289  39.869  28.628   4.749
 5346W        W69290  17.766  17.729  10.457
 5347W        W69291  14.612   1.923   3.840
 5348W        W69292   1.325  21.692   0.414
 5349W        W69293  16.309   6.311   3.859
 5350W        W69294  20.166  36.943   0.405
 5351W        W69295  31.125  34.104   3.228
 5352W        W69296  22.179  23.210   3.174
 5353W        W69297   4.268  22.615  11.052
 5354W        W69298  22.161  14.752  10.607
 5355W        W69299  39.435   3.332  11.868
 5356W        W69300   7.812   5.324   4.229
 5357W        W69301   7.775  18.590  10.409
 5358W        W69302  28.587  40.036  14.292
 5359W        W69303  37.339  34.406   2.365
 5360W        W69304  12.664  15.733  14.770
 5361W        W69305  44.799   5.874   0.385
 5362W        W69306  39.551  43.483   0.344
 5363W        W69307  16.650  31.433  13.868
 5364W        W69308   3.309  30.954   2.669
 5365W        W69309  15.329   8.656  12.993
 5366W        W69310  38.353  28.502   3.294
 5367W        W69311  36.382  10.290  13.494
 5368W        W69312  30.535   5.855  13.499
 5369W        W69313  12.835  25.167  13.390
 5370W        W69314  38.489  32.563  13.855
 5371W        W69315  14.738  25.978   1.926
 5372W        W69316  27.542   0.857  10.955
 5373W        W69317   8.715  28.107   0.410
 5374W        W69318  24.548  20.046  14.486
 5375W        W69319  22.622  34.608   3.728
 5376W        W69320  38.473   0.344   2.753
 5377W        W69321   7.829  28.534  14.763
 5378W        W69322  28.136  21.036   3.372
 5379W        W69323   9.673  14.140  10.597
 5380W        W69324  10.270  23.687   1.251
 5381W        W69325  42.868  10.773  10.585
 5382W        W69326  28.022  11.650   1.429
 5383W        W69327   0.917   7.911   2.252
 5384W        W69328  16.118   1.452   1.214
 5385W        W69329  35.928  13.248   2.311
 5386W        W69330   9.211  39.823   3.222
 5387W        W69331   0.481  15.800   1.266
 5388W        W69332  37.962   6.800  14.504
 5389W        W69333   8.699   6.792  10.510
 5390W        W69334  34.925   9.736   0.275
 5391W        W69335   8.199  12.715  12.576
 5392W        W69336  35.509  42.921  11.073
 5393W        W69337  13.730  27.015   4.647
 5394W        W69338  10.648  10.690   3.799
 5395W        W69339  44.477   8.796  13.800
 5396W        W69340  27.617  38.325   9.555
 5397W        W69341  41.991  14.643  13.466
 5398W        W69342  34.048  13.726  14.004
 5399W        W69343  28.499  34.913   4.266
 5400W        W69344  11.676   9.307  14.348
 5401W        W69345  19.082   9.392   2.811
 5402W        W69346   5.822  23.986  10.449
 5403W        W69347  34.938  43.917   1.846
 5404W        W69348  21.524  35.390   2.761
 5405W        W69349   6.897   6.769  11.503
 5406W        W69350  28.498  35.472   3.672
 5407W        W69351  23.117  29.140   4.785
 5408W        W69352  21.218  14.770   2.378
 5409W        W69353  27.596  11.855   2.891
 5410W        W69354  12.287  44.448  10.440
 5411W        W69355  10.229  25.535   2.371
 5412W        W69356  14.267  17.306   3.378
 5413W        W69357  22.126  12.727  13.533
 5414W        W69358   9.255   4.699  14.011
 5415W        W69359   7.811  20.229   1.386
 5416W        W69360   9.162  32.017   2.317
 5417W        W69361  11.758  40.049  13.434
 5418W        W69362  35.928  18.695  10.482
 5419W        W69363  28.960  13.720  10.984
 5420W        W69364   6.227  37.025  10.619
 5421W        W69365  24.155  38.546   0.344
 5422W        W69366  18.076   3.331  14.453
 5423W        W69367   7.237  20.762   3.233
 5424W        W69368  39.976  31.462  11.975
 5425W        W69369  39.909   9.222   0.430
 5426W        W69370  27.581  11.670   4.194
 5427W        W69371   0.821   5.817   1.290
 5428W        W69372   7.832  17.154  12.356
 5429W        W69373  10.290  21.589   4.771
 5430W        W69374  40.414  40.863  12.975
 5431W        W69375  41.039  42.934  12.549
 5432W        W69376   9.653  10.760  13.061
 5433W        W69377  15.727  23.987   4.201
 5434W        W69378  44.928   6.788  13.373
 5435W        W69379  40.860  30.423  12.960
 5436W        W69380   6.214  12.747  11.501
 5437W        W69381  19.193  39.443  10.638
 5438W        W69382  31.503  13.645   0.365
 5439W        W69383  14.301  18.123   4.257
 5440W        W69384   2.372  31.064   1.368
 5441W        W69385  26.512   0.880   0.759
 5442W        W69386   4.811  29.996   1.875
 5443W        W69387  33.464  42.374   2.315
 5444W        W69388  37.347  21.732  14.789
 5445W        W69389  15.242  35.886  14.776
 5446W        W69390   0.817  40.463   3.325
 5447W        W69391  15.205  36.495   2.767
 5448W        W69392   5.309  33.993   4.623
 5449W        W69393  16.796   1.959   1.857
 5450W        W69394  44.761  10.267  13.449
 5451W        W69395  24.634   2.427  13.888
 5452W        W69396  34.949  21.056  13.835
 5453W        W69397  27.141   5.388  14.342
 5454W        W69398   5.773  29.105   4.728
 5455W        W69399  39.846  21.091  13.459
 5456W        W69400  31.925  32.592   3.337
 5457W        W69401  11.660  21.590  14.369
 5458W        W69402   1.342  15.787   2.250
 5459W        W69403  31.612  17.291  11.118
 5460W        W69404   2.273  38.990  10.906
 5461W        W69405  34.077   6.290   1.312
 5462W        W69406  27.664  42.448  14.870
 5463W        W69407  13.782  15.266  13.056
 5464W        W69408  17.111  14.231   1.334
 5465W        W69409  41.523  19.242   2.331
 5466W        W69410  39.449  10.835  10.912
 5467W        W69411  34.450  44.459  11.906
 5468W        W69412  36.063  10.790   0.299
 5469W        W69413  16.120  40.841   4.822
 5470W        W69414   4.370   3.432   3.333
 5471W        W69415  22.521  26.039   0.301
 5472W        W69416  11.366  31.570   0.436
 5473W        W69417  13.709  25.631   0.397
 5474W        W69418   1.380   1.821  12.096
 5475W        W69419  13.688   1.817   2.186
 5476W        W69420  18.578   2.460   0.905
 5477W        W69421   3.711   2.851   2.854
 5478W        W69422  34.963   5.920   2.208
 5479W        W69423   1.441  37.568   1.827
 5480W        W69424  41.814   8.728  10.539
 5481W        W69425   3.887  34.380   2.201
 5482W        W69426   2.453  21.552   2.790
 5483W        W69427  27.634  38.380   0.375
 5484W        W69428  10.371  37.003  12.464
 5485W        W69429  28.574  22.707   0.954
 5486W        W69430  38.876   3.345  10.624
 5487W        W69431  25.629  29.976   3.214
 5488W        W69432  19.168   1.392   0.309
 5489W        W69433  40.363  22.080  13.028
 5490W        W69434   7.764   9.236  11.993
 5491W        W69435  25.085  35.470   0.284
 5492W        W69436  20.651  38.457   0.793
 5493W        W69437  10.818  42.839  10.509
 5494W        W69438  30.969  28.135  11.054
 5495W        W69439  41.468   7.281  11.403
 5496W        W69440  21.062  42.012   5.283
 5497W        W69441  23.031   5.731  12.496
 5498W        W69442  14.110  26.463   1.304
 5499W        W69443  31.593  41.393   0.730
 5500W        W69444  38.007  40.050  14.456
 5501W        W69445  17.274   0.334   2.237
 5502W        W69446  41.831  35.985  10.482
 5503W        W69447   2.453  31.422  10.918
 5504W        W69448  17.772  33.889  14.392
 5505W        W69449   5.753  19.628   1.809
 5506W        W69450   3.831  13.774   1.928
 5507W        W69451  21.096  25.541  10.469
 5508W        W69452  12.669  30.584   1.450
 5509W        W69453  43.862  35.497   2.309
 5510W        W69454  26.066  30.447  12.842
 5511W        W69455  16.308  43.000  10.954
 5512W        W69456  27.999  22.529   0.878
 5513W        W69457  13.106  22.635   3.190
 5514W        W69458  24.101  13.171   4.728
 5515W        W69459  11.667   3.345   0.383
 5516W        W69460  31.053  40.011  12.950
 5517W        W69461   7.371  26.987  12.340
 5518W        W69462  25.499  28.154  10.078
 5519W        W69463  41.329  12.778   1.818
 5520W        W69464  27.686   7.704   3.282
 5521W        W69465  37.528  16.609  13.838
 5522W        W69466  34.610  15.111  12.482
 5523W        W69467   3.366  27.479  11.573
 5524W        W69468  12.246  43.389  11.459
 5525W        W69469  15.694   7.689   9.992
 5526W        W69470   4.298  32.408  12.835
 5527W        W69471   4.941  43.329  13.973
 5528W        W69472   7.219  31.629  13.913
 5529W        W69473  25.148  34.027   2.759
 5530W        W69474  15.317  40.885  10.559
 5531W        W69475  36.866  33.875  10.427
 5532W        W69476  38.054   4.791  11.418
 5533W        W69477  14.820  38.518  14.836
 5534W        W69478  11.706   1.396   4.222
 5535W        W69479   1.850  15.242  10.540
 5536W        W69480  32.001  12.158   1.290
 5537W        W69481   3.282  34.982   3.180
 5538W        W69482   6.746  20.059   3.796
 5539W        W69483  11.695  42.889   4.314
 5540W        W69484   9.221  42.855  14.982
 5541W        W69485  43.939  27.516   4.285
 5542W        W69486  22.538  43.279   3.386
 5543W        W69487  10.738  29.931  13.400
 5544W        W69488   0.774  34.545   2.706
 5545W        W69489   3.343   7.806   2.413
 5546W        W69490  10.836   0.756  10.085
 5547W        W69491  10.784  34.086  10.432
 5548W        W69492  39.895  40.481  12.534
 5549W        W69493  27.075  39.883  11.913
 5550W        W69494  44.804  13.835   0.959
 5551W        W69495  37.344  12.118   2.389
 5552W        W69496  34.882  26.485   1.275
 5553W        W69497  18.585   6.327  11.990
 5554W        W69498  42.994  22.701  10.438
 5555W        W69499  19.182  28.183  12.574
 5556W        W69500  36.959   0.340  10.499
 5557W        W69501  40.891  13.731  10.961
 5558W        W69502  38.826  22.611   2.771
 5559W        W69503   2.784  35.383  13.340
 5560W        W69504  21.578  29.165  11.391
 5561W        W69505  18.261  25.551   0.301
 5562W        W69506  25.183  18.268  14.441
 5563W        W69507  42.025  26.653   2.374
 5564W        W69508  29.445   4.223  14.861
 5565W        W69509  13.334  19.747   5.300
 5566W        W69510  14.720  42.928   3.331
 5567W        W69511  20.763  21.234  14.961
 5568W        W69512  14.707  43.286   3.831
 5569W        W69513  22.146   4.408  10.908
 5570W        W69514  12.707  32.948  12.374
 5571W        W69515  17.247  18.602  14.964
 5572W        W69516   1.314  13.666   1.368
 5573W        W69517   8.680  30.601   4.609
 5574W        W69518  16.589  10.679  12.861
 5575W        W69519  36.847  16.289  10.459
 5576W        W69520  18.780  38.378   3.677
 5577W        W69521  40.490  42.402  14.808
 5578W        W69522  28.941  33.963  14.817
 5579W        W69523  44.999   6.363   5.182
 5580W        W69524  26.551  31.409  11.919
 5581W        W69525  20.046  14.725  14.328
 5582W        W69526  37.428  23.215   0.897
 5583W        W69527  22.080  15.129  12.557
 5584W        W69528  38.879  13.676  14.763
 5585W        W69529  15.659  28.143  11.083
 5586W        W69530  35.037  13.668  12.570
 5587W        W69531   6.363  41.845  13.313
 5588W        W69532  39.497  36.892  10.496
 5589W        W69533  41.014  39.873  12.961
 5590W        W69534  22.623  25.527   1.795
 5591W        W69535  14.667  15.094  10.624
 5592W        W69536   8.697  16.759  14.503
 5593W        W69537  40.967  13.281   1.220
 5594W        W69538   7.784  12.189  14.295
 5595W        W69539  35.994   1.819   4.832
 5596W        W69540  17.143  40.406  10.962
 5597W        W69541  36.425  39.872  14.881
 5598W        W69542  27.514  34.505  13.806
 5599W        W69543  18.209   5.410   1.403
 5600W        W69544   8.297  38.347   3.811
 5601W        W69545  29.467  17.189  12.498
 5602W        W69546   4.341  30.448   1.789
 5603W        W69547  33.466  43.958  14.489
 5604W        W69548  30.532  25.671  10.611
 5605W        W69549  13.265  37.522   2.395
 5606W        W69550  23.675  44.896  11.376
 5607W        W69551  24.088  14.097   2.900
 5608W        W69552  35.055  17.272  13.432
 5609W        W69553  19.709  17.192   4.652
 5610W        W69554  32.980  32.575   1.699
 5611W        W69555  12.695  23.020   3.789
 5612W        W69556  38.334  26.517   3.181
 5613W        W69557  39.981  16.749   3.268
 5614W        W69558   4.317  32.034   3.303
 5615W        W69559  19.617   2.261  11.889
 5616W        W69560  40.521  24.546  12.001
 5617W        W69561  40.844   4.436   0.812
 5618W        W69562  22.111  25.687  12.007
 5619W        W69563   9.879   4.394   0.434
 5620W        W69564  25.534   1.827   5.262
 5621W        W69565   5.905  40.471  14.881
 5622W        W69566  27.674  44.823   3.316
 5623W        W69567  22.171   9.347   2.821
 5624W        W69568   8.806   8.826  13.522
 5625W        W69569  29.571  27.051  11.506
 5626W        W69570   9.392  13.335  12.001
 5627W        W69571  44.989  27.611   0.425
 5628W        W69572  28.014  25.012   2.688
 5629W        W69573  38.866  34.504   1.385
 5630W        W69574   4.250  28.982   2.867
 5631W        W69575  30.052  35.376   2.274
 5632W        W69576  22.144  26.519   9.966
 5633W        W69577  24.514  21.026  14.815
 5634W        W69578  21.152   2.456   0.864
 5635W        W69579  13.601  15.774  11.603
 5636W        W69580  35.046   5.291  11.125
 5637W        W69581  33.595  44.938  10.590
 5638W        W69582  35.990  37.420   1.285
 5639W        W69583  35.462  28.150  10.534
 5640W        W69584   9.343  28.167   3.235
 5641W        W69585  19.565  41.494   2.900
 5642W        W69586  43.465  10.251  12.017
 5643W        W69587  34.892  27.481   4.294
 5644W        W69588  10.756  23.096   4.332
 5645W        W69589  15.233  16.638  13.003
 5646W        W69590  23.007  27.013  13.931
 5647W        W69591   5.298  40.870  14.877
 5648W        W69592  35.391  24.974   1.897
 5649W        W69593  36.898  38.466  10.902
 5650W        W69594  24.558  32.103  12.504
 5651W        W69595  35.527  16.708  11.027
 5652W        W69596  42.441  21.058   2.890
 5653W        W69597  39.517  27.155  10.530
 5654W        W69598  16.802   4.363   2.280
 5655W        W69599  14.611  43.379  12.907
 5656W        W69600  38.466   3.895   2.186
 5657W        W69601   7.875   4.225  11.556
 5658W        W69602   9.179  22.654  13.525
 5659W        W69603  40.528  10.198  14.791
 5660W        W69604  22.596  12.641  12.921
 5661W        W69605   5.815  12.294   4.647
 5662W        W69606  32.886  41.461   3.851
 5663W        W69607  17.599  33.928   2.178
 5664W        W69608  38.040  13.825   1.403
 5665W        W69609  41.977   0.971  13.004
 5666W        W69610   3.214   2.848   4.622
 5667W        W69611  23.133  29.472   1.309
 5668W        W69612  42.377  26.601  13.397
 5669W        W69613  20.562  10.760   3.735
 5670W        W69614  15.173  36.570  13.902
 5671W        W69615  42.451   9.734  10.493
 5672W        W69616  29.639  22.022  13.332
 5673W        W69617  13.823   6.780   4.314
 5674W        W69618  31.068   5.797   2.336
 5675W        W69619  12.755  43.019  14.508
 5676W        W69620   1.320  34.991   0.731
 5677W        W69621  35.997  14.201   2.330
 5678W        W69622  34.084  33.132   0.367
 5679W        W69623   9.371   1.769  14.436
 5680W        W69624  30.956  17.577   0.439
 5681W        W69625  34.375   8.655  14.006
 5682W        W69626  32.960  38.981   2.801
 5683W        W69627  20.730  34.031  12.538
 5684W        W69628  20.196   1.358   4.197
 5685W        W69629  39.445  24.590   1.863
 5686W        W69630   3.840  29.482   3.282
 5687W        W69631  21.657   1.385  13.866
 5688W        W69632  17.603  20.651  11.107
 5689W        W69633  19.669   0.257   3.198
 5690W        W69634  26.199  15.714   1.876
 5691W        W69635  25.606   1.834   2.399
 5692W        W69636  19.779  30.490   1.307
 5693W        W69637  13.654  43.457   4.327
 5694W        W69638  40.825  15.266  12.420
 5695W        W69639  12.273   7.350   1.274
 5696W        W69640   1.809   8.879  13.323
 5697W        W69641  17.588  16.317  10.566
 5698W        W69642   9.308  27.497   0.278
 5699W        W69643  40.005  38.453   1.411
 5700W        W69644  33.577  25.495  11.126
 5701W        W69645  24.700  19.080  14.820
 5702W        W69646  28.573  34.985  12.425
 5703W        W69647  43.419  34.037   1.378
 5704W        W69648  38.914  30.582   4.218
 5705W        W69649   6.348  20.082  13.422
 5706W        W69650   9.254  20.115  14.912
 5707W        W69651  34.868  10.376  13.880
 5708W        W69652  30.516  36.490  10.509
 5709W        W69653   6.191   9.655  13.902
 5710W        W69654  44.948  19.209   2.183
 5711W        W69655  10.292   3.827   0.927
 5712W        W69656  17.100  11.782  14.994
 5713W        W69657   5.739  15.181   3.207
 5714W        W69658  20.030  35.921  11.406
 5715W        W69659  39.370  24.072   3.781
 5716W        W69660  22.666  39.028  13.867
 5717W        W69661  21.091   2.820  14.313
 5718W        W69662  40.416  41.381  12.463
 5719W        W69663  40.875  13.770  13.483
 5720W        W69664  17.558  43.797   4.716
 5721W        W69665  31.034  41.023  10.984
 5722W        W69666  24.608  19.114   2.893
 5723W        W69667  19.544  37.499  12.946
 5724W        W69668  38.973  33.004  12.555
 5725W        W69669  19.144   1.803   0.762
 5726W        W69670  28.963  39.538  13.985
 5727W        W69671  39.425   5.735  14.412
 5728W        W69672  31.095  38.022   0.904
 5729W        W69673   6.301   7.368   4.264
 5730W        W69674  11.807  20.269  10.634
 5731W        W69675  32.011  21.652   2.698
 5732W        W69676   5.714  24.578   1.291
 5733W        W69677  23.995  35.026   1.792
 5734W        W69678  21.668  38.839   4.718
 5735W        W69679  39.387  35.464   4.212
 5736W        W69680  23.643   1.348   3.285
 5737W        W69681  12.144  20.720  12.011
 5738W        W69682  43.443  39.881  12.904
 5739W        W69683  27.610  31.976  13.991
 5740W        W69684  41.020  16.228   2.196
 5741W        W69685  20.612  33.014   0.851
 5742W        W69686  17.205  28.006   0.914
 5743W        W69687  20.268  39.861   3.646
 5744W        W69688  10.165  11.369  14.374
 5745W        W69689  42.840  16.752  14.989
 5746W        W69690  17.681  34.921   5.139
 5747W        W69691  19.601  38.963   4.753
 5748W        W69692  44.938   9.869   3.823
 5749W        W69693  23.726  28.969   4.331
 5750W        W69694  29.589  10.141   3.339
 5751W        W69695  16.085   1.435  13.358
 5752W        W69696   5.840  22.693  14.944
 5753W        W69697  20.183   0.327   4.752
 5754W        W69698  14.125   8.312  13.913
 5755W        W69699  30.027  44.894  13.879
 5756W        W69700  28.975  44.293   2.714
 5757W        W69701  41.864  20.054   3.738
 5758W        W69702  41.353   8.207  13.888
 5759W        W69703  27.512  27.159  12.080
 5760W        W69704   4.889  35.572  12.854
 5761W        W69705  37.499  17.151  12.939
 5762W        W69706  20.160  32.011   4.812
 5763W        W69707  39.465  26.458  11.060
 5764W        W69708  42.397  10.176  10.913
 5765W        W69709  18.775  43.806   1.415
 5766W        W69710  10.756   7.858   4.687
 5767W        W69711   5.375  44.891  12.083
 5768W        W69712  27.042  38.019   3.182
 5769W        W69713   3.248  36.578   0.307
 5770W        W69714  41.487  21.726   0.964
 5771W        W69715  30.431  12.252  14.880
 5772W        W69716  19.569  17.622  13.992
 5773W        W69717  16.209  36.498  12.572
 5774W        W69718  28.539  22.730   2.699
 5775W        W69719   2.444  15.807   0.377
 5776W        W69720  37.972  37.544   4.216
 5777W        W69721   9.778   7.829  14.297
 5778W        W69722  15.778   4.336   3.707
 5779W        W69723  22.184  25.469   2.822
 5780W        W69724  16.624  35.375  14.893
 5781W        W69725   3.868   9.233  14.987
 5782W        W69726  33.112  18.703   4.237
 5783W        W69727  40.893  39.433  12.989
 5784W        W69728  17.178  36.382  13.489
 5785W        W69729  20.156  28.492  13.841
 5786W        W69730  25.024  43.482   1.869
 5787W        W69731  31.135  21.721   2.901
 5788W        W69732  21.094  10.740   4.704
 5789W        W69733  33.399  40.017   1.382
 5790W        W69734   5.434  23.044  12.964
 5791W        W69735  30.123  34.434   2.714
 5792W        W69736  21.030   2.366   3.187
 5793W        W69737  26.168  30.479  10.946
 5794W        W69738  16.279  35.452   5.568
 5795W        W69739  34.395  39.506   0.440
 5796W        W69740   1.897   4.400   5.187
 5797W        W69741  43.281  42.865   3.229
 5798W        W69742  25.514  41.451   3.745
 5799W        W69743  30.137  10.240  13.916
 5800W        W69744  32.061  27.682   2.390
 5801W        W69745  10.316  10.169  10.518
 5802W        W69746  41.020  32.010  13.841
 5803W        W69747  29.594  12.700   1.301
 5804W        W69748  39.422  30.107  10.491
 5805W        W69749  10.715   5.755   1.253
 5806W        W69750  38.867   0.453  14.787
 5807W        W69751  41.815  25.665   1.277
 5808W        W69752  32.403   1.845   4.204
 5809W        W69753  43.877  37.951  14.510
 5810W        W69754  38.381  10.660   4.736
 5811W        W69755  20.214  43.896  13.848
 5812W        W69756  41.875  35.595   3.247
 5813W        W69757  44.908  44.989  13.950
 5814W        W69758  27.167  40.893   0.422
 5815W        W69759  39.467  37.520   1.261
 5816W        W69760   5.860   5.788   2.323
 5817W        W69761  35.566  28.954   1.724
 5818W        W69762  38.009  34.471   3.172
 5819W        W69763  25.610  22.199  13.483
 5820W        W69764  34.105  41.833   1.423
 5821W        W69765  44.928  15.816  12.969
 5822W        W69766   7.280  19.249  14.976
 5823W        W69767   8.842  17.620  11.049
 5824W        W69768  19.637   4.445  10.963
 5825W        W69769   6.796  19.758  12.864
 5826W        W69770  17.093  30.544  12.940
 5827W        W69771  23.025   9.825   3.347
 5828W        W69772  44.333  33.924   5.306
 5829W        W69773  31.052   3.743  13.827
 5830W        W69774   8.246  21.033   3.300
 5831W        W69775  25.665  19.739  11.977
 5832W        W69776  29.005  22.565  13.468
 5833W        W69777   5.840  44.288  11.007
 5834W        W69778  35.908  25.651   3.727
 5835W        W69779   4.763   6.391   3.779
 5836W        W69780   3.868   8.290   1.252
 5837W        W69781  30.915  23.201  14.327
 5838W        W69782  19.757  21.751  14.810
 5839W        W69783  33.554  24.978  10.514
 5840W        W69784  21.163  14.788  13.045
 5841W        W69785  39.543  34.397   4.608
 5842W        W69786  28.640  21.740   0.842
 5843W        W69787  14.110  23.530   3.813
 5844W        W69788  33.451  36.347   3.214
 5845W        W69789   5.725  12.784  10.585
 5846W        W69790  41.813  28.994  13.954
 5847W        W69791   6.371  15.266  13.310
 5848W        W69792  22.010   7.271   1.307
 5849W        W69793  20.096   1.782  14.969
 5850W        W69794   7.298  40.842  14.770
 5851W        W69795  10.699   9.323  14.956
 5852W        W69796  42.291   3.888  14.907
 5853W        W69797  28.946  34.050   2.409
 5854W        W69798  32.599   2.374   3.288
 5855W        W69799   5.231  17.141  10.984
 5856W        W69800  42.483  30.929   0.850
 5857W        W69801  41.811  34.544   4.144
 5858W        W69802  18.628   5.884  10.592
 5859W        W69803   7.707  17.597  13.007
 5860W        W69804  14.286  33.478  11.050
 5861W        W69805  21.233  44.892   0.886
 5862W        W69806  44.397  11.198   2.252
 5863W        W69807  15.797  35.016   1.298
 5864W        W69808  34.992  17.205  12.510
 5865W        W69809  15.202  39.858   1.218
 5866W        W69810  25.616  30.437   2.370
 5867W        W69811  14.822   8.897   3.715
 5868W        W69812   9.279  44.418   0.440
 5869W        W69813  27.499  33.080  13.979
 5870W        W69814  25.145  26.152   3.742
 5871W        W69815  24.499   8.304  14.822
 5872W        W69816   5.439   3.454   4.739
 5873W        W69817  21.697  16.188   2.735
 5874W        W69818  32.900  16.279   0.414
 5875W        W69819  20.679  20.606  11.896
 5876W        W69820  32.416  31.144   1.699
 5877W        W69821  28.551   6.189  12.555
 5878W        W69822  12.673   8.210  14.399
 5879W        W69823   6.765   3.265  14.994
 5880W        W69824   9.855  20.076   0.885
 5881W        W69825  13.191  38.338   0.791
 5882W        W69826  15.813  28.619   2.323
 5883W        W69827  30.948  16.115   3.801
 5884W        W69828  28.544  24.006  10.630
 5885W        W69829  40.971  30.956   2.803
 5886W        W69830  32.028   0.396  14.850
 5887W        W69831   8.191  14.709   1.706
 5888W        W69832   7.296   2.931  11.489
 5889W        W69833   1.266  29.119   3.814
 5890W        W69834  15.135  41.882  12.998
 5891W        W69835  28.611  26.025   4.787
 5892W        W69836  21.021   3.235   3.814
 5893W        W69837  34.403  43.921  14.384
 5894W        W69838  35.975   0.471   1.244
 5895W        W69839  19.619  24.171   1.384
 5896W        W69840   1.344  36.581   1.870
 5897W        W69841  14.268  40.901   1.318
 5898W        W69842   9.877  23.643   4.735
 5899W        W69843  26.599  19.770  10.137
 5900W        W69844   3.274  16.759   0.371
 5901W        W69845  28.148  29.124  12.847
 5902W        W69846  20.082  36.550   1.931
 5903W        W69847  18.103  44.438  10.580
 5904W        W69848  31.495   1.775  13.485
 5905W        W69849  36.398  25.976   3.839
 5906W        W69850  20.260   8.280   2.668
 5907W        W69851   5.890  23.236   3.362
 5908W        W69852   0.931  15.090   4.672
 5909W        W69853  21.045   1.392   1.788
 5910W        W69854  15.129  41.444  12.015
 5911W        W69855  13.325  24.024   1.901
 5912W        W69856   1.917  13.703   3.349
 5913W        W69857  28.496  18.569  10.157
 5914W        W69858   2.739   3.710   5.102
 5915W        W69859  16.640  30.111   2.857
 5916W        W69860  36.035   2.304  14.408
 5917W        W69861  36.507  17.566  11.531
 5918W        W69862  11.833  43.316  10.943
 5919W        W69863   3.802  24.617   1.818
 5920W        W69864  30.025  31.066  13.961
 5921W        W69865  28.496  25.482  12.920
 5922W        W69866  18.726  38.485   4.225
 5923W        W69867  29.540  12.829  14.808
 5924W        W69868  24.591   6.400  12.892
 5925W        W69869  30.008   5.429   4.316
 5926W        W69870  15.197   9.853  11.398
 5927W        W69871   6.187  31.495  14.335
 5928W        W69872  17.185   1.972   2.823
 5929W        W69873   5.307  39.981  12.974
 5930W        W69874  16.746   2.466  10.960
 5931W        W69875  38.435   3.323  10.912
 5932W        W69876  13.349  41.314  14.885
 5933W        W69877  17.100  29.975   4.333
 5934W        W69878  36.550   1.434  13.314
 5935W        W69879  27.596   2.353  11.399
 5936W        W69880   2.898  25.134   4.811
 5937W        W69881  24.632   3.892   2.336
 5938W        W69882   0.935  18.075   0.808
 5939W        W69883  27.577  37.393   5.088
 5940W        W69884   5.248  27.155   3.840
 5941W        W69885   1.236  12.671  14.908
 5942W        W69886  21.248  34.996   5.092
 5943W        W69887   0.308  25.965  12.372
 5944W        W69888  43.334  14.828   3.836
 5945W        W69889  38.363  42.401  13.999
 5946W        W69890  18.690   9.253   2.665
 5947W        W69891   1.290   3.802   1.794
 5948W        W69892  42.011  21.598  13.449
 5949W        W69893  40.407  12.708   2.189
 5950W        W69894   1.745   1.953  13.829
 5951W        W69895  42.309  24.146   0.482
 5952W        W69896  29.566   1.415   1.767
 5953W        W69897   5.691  38.341   3.685
 5954W        W69898  29.622  15.769   0.928
 5955W        W69899  13.319  38.074  14.346
 5956W        W69900  24.011  18.098   1.352
 5957W        W69901  43.842  44.810  12.474
 5958W        W69902  19.618   9.249  10.019
 5959W        W69903  36.521  32.412   4.834
 5960W        W69904  20.120  38.931  11.113
 5961W        W69905  33.121  11.250  14.800
 5962W        W69906  19.744  11.309   2.864
 5963W        W69907  35.945  44.447   1.801
 5964W        W69908   6.427   3.373   2.725
 5965W        W69909  29.574  30.492   5.256
 5966W        W69910  27.563  12.710  12.580
 5967W        W69911   0.821  25.202  10.573
 5968W        W69912  25.101  20.179   0.275
 5969W        W69913  16.637   5.233  10.132
 5970W        W69914  29.082  39.860   3.379
 5971W        W69915   0.305  29.108  10.563
 5972W        W69916  26.033  26.491  11.612
 5973W        W69917  29.011  42.459   9.652
 5974W        W69918  14.299   0.336   1.264
 5975W        W69919  35.919  18.186   0.399
 5976W        W69920  41.004  26.666   4.320
 5977W        W69921   8.782  30.522  14.923
 5978W        W69922  21.068   8.897   1.322
 5979W        W69923  22.035  34.583  13.804
 5980W        W69924  20.701  25.159  10.972
 5981W        W69925  43.330  33.915  14.393
 5982W        W69926  30.985  24.568   1.335
 5983W        W69927  16.310  39.383   2.215
 5984W        W69928   0.370  20.637   2.281
 5985W        W69929  32.050  24.649  13.015
 5986W        W69930   0.462  36.972   1.851
 5987W        W69931  40.858  21.211   1.918
 5988W        W69932  15.751  39.051  14.405
 5989W        W69933   5.879   6.795   4.663
 5990W        W69934   7.185   5.915   2.899
 5991W        W69935  24.053  31.612  10.520
 5992W        W69936  36.957  42.357   4.602
 5993W        W69937   9.216  40.837  11.969
 5994W        W69938  10.240  20.626  13.518
 5995W        W69939  43.810  12.675  11.912
 5996W        W69940  24.214  42.460   1.449
 5997W        W69941  15.288  16.258   4.717
 5998W        W69942   9.190  22.196   1.893
 5999W        W69943  35.049  23.675  10.453
 6000W        W69944  17.105  38.877   4.188
 6001W        W69945  28.062  14.759   9.519
 6002W        W69946   0.450  18.070  14.009
 6003W        W69947  32.453  39.038  14.483
 6004W        W69948  42.867   2.375   2.766
 6005W        W69949  35.933  33.041  10.911
 6006W        W69950   6.270  44.909  12.388
 6007W        W69951  23.066  23.135   2.773
 6008W        W69952  37.571  34.457  14.435
 6009W        W69953   7.223  29.002  13.982
 6010W        W69954  20.176   6.703  11.118
 6011W        W69955  44.452  16.776  12.576
 6012W        W69956  26.953   7.267   3.698
 6013W        W69957  29.592  16.783   4.299
 6014W        W69958  24.113  12.785   0.429
 6015W        W69959  12.205   1.318  12.526
 6016W        W69960  20.658  13.786  11.981
 6017W        W69961  37.080  22.629   4.647
 6018W        W69962  14.320   4.447   3.842
 6019W        W69963  34.969  21.222   4.223
 6020W        W69964  23.731  40.421   1.302
 6021W        W69965  32.098  29.031   3.339
 6022W        W69966  24.043  37.519  12.365
 6023W        W69967  27.482  27.505   3.629
 6024W        W69968   3.363  11.817  13.945
 6025W        W69969   0.416  38.007  11.076
 6026W        W69970  28.637  12.324   0.320
 6027W        W69971  11.748  17.558   1.353
 6028W        W69972  12.266  36.373  10.980
 6029W        W69973   8.845   3.763   2.675
 6030W        W69974   9.786   0.375  11.588
 6031W        W69975  36.075  21.185   3.698
 6032W        W69976   2.792  18.551   1.215
 6033W        W69977  42.293  19.694   4.675
 6034W        W69978  16.778   5.799  12.054
 6035W        W69979  18.053  26.086  14.321
 6036W        W69980  43.932   3.825   1.744
 6037W        W69981  44.272   9.700  12.070
 6038W        W69982  37.998   1.394  11.511
 6039W        W69983  41.436  42.471   2.784
 6040W        W69984   3.405  38.356  11.078
 6041W        W69985  17.218  16.737  13.369
 6042W        W69986  17.274   6.366   4.309
 6043W        W69987  40.349  23.099   4.768
 6044W        W69988  40.043  42.830  11.588
 6045W        W69989   5.895  39.372  14.815
 6046W        W69990  11.780   9.241   2.411
 6047W        W69991  43.467  25.599  11.564
 6048W        W69992  31.991  22.228   3.305
 6049W        W69993   2.384  21.630  11.115
 6050W        W69994  14.646  38.886   9.972
 6051W        W69995  21.570  25.476  12.392
 6052W        W69996  18.718  24.497   4.741
 6053W        W69997   2.252   1.350  12.993
 6054W        W69998  15.695  37.033   2.342
 6055W        W69999  21.107  13.781  13.324
 6056W        W70000  39.951  14.178   4.192
 6057W        W70001  42.851   8.829   3.325
 6058W        W70002  12.752   5.322  10.581
 6059W        W70003  39.049  28.546   1.842
 6060W        W70004  25.546  12.790  13.950
 6061W        W70005   9.687  35.084   3.208
 6062W        W70006  37.478  42.420  13.482
 6063W        W70007   8.351  28.164  10.619
 6064W        W70008  40.317  42.334   3.809
 6065W        W70009   5.848   0.262  13.051
 6066W        W70010  27.616  19.756   3.720
 6067W        W70011  23.142   6.918  11.080
 6068W        W70012  44.953  23.162  14.852
 6069W        W70013   7.901  43.964  12.374
 6070W        W70014  25.515   0.414  14.786
 6071W        W70015  22.695  30.969  13.893
 6072W        W70016  32.617  36.570   2.264
 6073W        W70017   1.792  28.434  11.054
 6074W        W70018  16.126   9.205  12.458
 6075W        W70019  35.492  11.188  13.032
 6076W        W70020   2.307   2.343  14.843
 6077W        W70021  10.858   2.413  14.344
 6078W        W70022  26.070  29.632   0.286
 6079W        W70023  36.435  26.619  11.543
 6080W        W70024   2.731  33.483  11.921
 6081W        W70025   3.275  37.888  12.561
 6082W        W70026   7.675  30.974  10.593
 6083W        W70027  36.520   3.915  11.109
 6084W        W70028  40.376   4.248   2.354
 6085W        W70029   8.826  11.277  13.345
 6086W        W70030  27.580  15.583  12.473
 6087W        W70031  40.456  24.982   3.244
 6088W        W70032  23.535  26.172  11.976
 6089W        W70033  42.292  24.567   1.269
 6090W        W70034  20.566  39.962   3.358
 6091W        W70035  15.315   6.283   3.766
 6092W        W70036   1.238  13.794  13.813
 6093W        W70037  18.662  12.857  13.534
 6094W        W70038  30.105  28.499   0.463
 6095W        W70039  27.460   7.257   4.713
 6096W        W70040  39.989  36.056  14.784
 6097W        W70041  34.568  26.528  11.446
 6098W        W70042  13.213   9.859  10.941
 6099W        W70043  44.798   1.743   4.748
 6100W        W70044  41.788  32.027   0.420
 6101W        W70045  18.716  14.733   3.843
 6102W        W70046  12.323  11.252   0.936
 6103W        W70047  18.207  37.003   3.229
 6104W        W70048  27.038  23.649  14.976
 6105W        W70049  29.987  16.777  12.358
 6106W        W70050  31.411  18.641   5.181
 6107W        W70051  26.604  20.536  11.408
 6108W        W70052  40.389  36.841  13.903
 6109W        W70053  27.454  33.448   4.813
 6110W        W70054  22.008   2.263   4.308
 6111W        W70055  44.329  34.918   0.760
 6112W        W70056  23.705  18.772  13.390
 6113W        W70057  32.531  26.627   0.437
 6114W        W70058  11.130  36.962  10.486
 6115W        W70059  34.584  17.772  14.925
 6116W        W70060  44.919  31.546   2.199
 6117W        W70061   1.918  20.633  13.434
 6118W        W70062  28.930   9.744   1.900
 6119W        W70063  10.307   7.833   1.219
 6120W        W70064  33.613  14.264  14.373
 6121W        W70065   7.698  17.092  12.863
 6122W        W70066  25.994  16.172  14.913
 6123W        W70067  21.719  11.700   2.367
 6124W        W70068  21.631  29.473   1.220
 6125W        W70069  44.356  19.703  10.519
 6126W        W70070  20.674  20.652  14.396
 6127W        W70071  33.073  34.601   4.790
 6128W        W70072  36.448  13.180   3.297
 6129W        W70073  12.800  38.533   4.670
 6130W        W70074   0.960  24.563   4.641
 6131W        W70075  16.703   5.821   3.373
 6132W        W70076   2.311  32.081  12.840
 6133W        W70077  37.430  16.186  12.074
 6134W        W70078  32.572  32.462  11.515
 6135W        W70079  18.290   6.801   1.894
 6136W        W70080   5.738  27.489  13.519
 6137W        W70081   1.273  36.444   0.251
 6138W        W70082  31.452  30.569   1.734
 6139W        W70083  15.770  39.525   0.782
 6140W        W70084   7.860   1.947   4.277
 6141W        W70085  38.842  32.471   2.252
 6142W        W70086  41.363  26.955  11.081
 6143W        W70087  40.491  39.538  13.014
 6144W        W70088   4.909  36.077   4.291
 6145W        W70089   5.696   0.963  10.438
 6146W        W70090  17.796   4.931  12.070
 6147W        W70091  22.181  43.295  12.925
 6148W        W70092  37.063  43.460  12.485
 6149W        W70093   7.394   3.942   0.783
 6150W        W70094  30.648   9.311   0.247
 6151W        W70095  16.198  40.467  14.372
 6152W        W70096  22.546  25.638  11.495
 6153W        W70097  14.707  25.986  14.473
 6154W        W70098  21.659  43.004  14.906
 6155W        W70099  38.369  42.353   4.715
 6156W        W70100  11.688   0.935   2.243
 6157W        W70101  29.635   2.806   2.813
 6158W        W70102  36.922   8.258   4.175
 6159W        W70103  35.939  37.465   3.242
 6160W        W70104  44.259  44.962   3.370
 6161W        W70105  29.501  33.444   1.753
 6162W        W70106  38.488  12.704   2.195
 6163W        W70107   6.394  22.566   5.202
 6164W        W70108  19.684  14.734   2.670
 6165W        W70109  32.574  17.142   1.933
 6166W        W70110  43.929  21.157  13.385
 6167W        W70111  39.547   3.354  11.032
 6168W        W70112   7.405  30.624  11.062
 6169W        W70113  10.648  34.038  11.531
 6170W        W70114  14.643   2.236   1.261
 6171W        W70115  32.009   3.770  14.835
 6172W        W70116  43.879  27.524   4.609
 6173W        W70117   6.251  36.563   0.824
 6174W        W70118  24.711   6.399   4.787
 6175W        W70119  21.039  34.492  10.588
 6176W        W70120   3.290  40.831   1.858
 6177W        W70121  20.221  39.919   1.399
 6178W        W70122  13.336   6.694  11.555
 6179W        W70123  43.830  10.798  13.918
 6180W        W70124  24.558   4.246   0.950
 6181W        W70125  27.079  24.156   4.277
 6182W        W70126  44.382  16.174  13.545
 6183W        W70127  18.661  38.918   4.649
 6184W        W70128  36.931   7.841   3.807
 6185W        W70129   4.705   8.826   2.884
 6186W        W70130  36.076   3.360   0.476
 6187W        W70131   7.238  34.887   4.709
 6188W        W70132  40.466  34.373  13.915
 6189W        W70133  25.653  43.503  13.442
 6190W        W70134  27.668   4.785   0.377
 6191W        W70135  19.105   5.896   4.299
 6192W        W70136  30.449  29.983  11.496
 6193W        W70137  18.081  26.490  14.493
 6194W        W70138  41.004  42.797   3.668
 6195W        W70139  44.263  15.320   4.180
 6196W        W70140  23.711  27.514   0.289
 6197W        W70141   1.819  32.037  13.936
 6198W        W70142  29.650   0.261  12.906
 6199W        W70143  17.791  29.067  12.519
 6200W        W70144  37.933  14.746   3.733
 6201W        W70145  17.156   5.291   4.213
 6202W        W70146  12.830   5.840   1.887
 6203W        W70147  38.373  36.059   2.297
 6204W        W70148  27.178  36.416   4.772
 6205W        W70149  36.411  41.916  14.933
 6206W        W70150  29.020  24.210  12.502
 6207W        W70151  21.696  18.596   4.681
 6208W        W70152  34.911  34.549  10.426
 6209W        W70153  14.707  34.069  11.930
 6210W        W70154  26.029  34.889  13.888
 6211W        W70155   8.267  44.270  13.926
 6212W        W70156   8.778  32.491   0.342
 6213W        W70157  36.442  22.190  11.942
 6214W        W70158  17.645  27.632  13.834
 6215W        W70159  33.531  36.930  10.555
 6216W        W70160  22.663  20.063  12.017
 6217W        W70161  35.419   7.350  13.471
 6218W        W70162  11.689   1.342   0.293
 6219W        W70163   7.253  21.661   3.632
 6220W        W70164  39.377   9.369  12.490
 6221W        W70165  20.052  33.493  10.889
 6222W        W70166  10.163   0.832  10.138
 6223W        W70167  35.558  11.663   4.747
 6224W        W70168  23.511  12.319   1.279
 6225W        W70169  19.186  23.082  13.503
 6226W        W70170  29.522  22.173   0.759
 6227W        W70171  19.203  26.530  12.533
 6228W        W70172  18.103  26.994   3.866
 6229W        W70173  41.449  39.935   3.727
 6230W        W70174  19.654  17.757  10.920
 6231W        W70175  36.934  27.141  11.960
 6232W        W70176  25.026  16.669  13.884
 6233W        W70177  20.689  29.426   0.303
 6234W        W70178   5.242  17.704  13.429
 6235W        W70179  32.908  23.538   0.860
 6236W        W70180  44.288  28.053  13.002
 6237W        W70181  24.044  11.698  11.872
 6238W        W70182  14.671   4.820   2.264
 6239W        W70183  38.941  38.517  12.389
 6240W        W70184   8.386  20.693  11.397
 6241W        W70185  27.153  31.046  10.645
 6242W        W70186  20.158  30.630  10.483
 6243W        W70187  16.089  13.838  13.336
 6244W        W70188  28.637  34.114  14.312
 6245W        W70189  15.183  42.931   4.295
 6246W        W70190  25.978  36.567  11.105
 6247W        W70191  18.169  26.672   2.381
 6248W        W70192  22.110   1.819   3.301
 6249W        W70193  10.833  21.623   1.442
 6250W        W70194   6.720   3.218  10.888
 6251W        W70195   0.348  24.082  14.457
 6252W        W70196  29.157  23.996   1.423
 6253W        W70197  17.672  11.190   1.761
 6254W        W70198  40.024  39.556  14.502
 6255W        W70199   3.433  14.741  13.311
 6256W        W70200  27.480  11.708  13.881
 6257W        W70201   5.344  13.672  12.531
 6258W        W70202   7.327  16.302   0.276
 6259W        W70203  22.243  27.642  11.942
 6260W        W70204  15.742  40.987  14.805
 6261W        W70205  16.798   1.387  14.503
 6262W        W70206  26.519  32.974   5.205
 6263W        W70207   0.366   9.823  13.906
 6264W        W70208  17.653  17.752  13.886
 6265W        W70209  36.038  17.716   0.475
 6266W        W70210   8.391  30.980   2.300
 6267W        W70211  21.154  30.002  11.086
 6268W        W70212  43.963   5.697   3.822
 6269W        W70213   4.812   3.920  13.991
 6270W        W70214  40.479  14.193   9.980
 6271W        W70215   1.790  43.973  10.625
 6272W        W70216  29.486  15.733  12.903
 6273W        W70217   0.837   9.770   4.317
 6274W        W70218  41.382  15.763  13.835
 6275W        W70219  11.271  22.577   4.719
 6276W        W70220  18.733   3.765   4.260
 6277W        W70221   2.354  16.312  13.948
 6278W        W70222  21.682  11.785   2.803
 6279W        W70223  23.608  38.047   1.762
 6280W        W70224   0.429  32.503   4.690
 6281W        W70225   9.390  44.914  13.794
 6282W        W70226  11.673  16.653   0.753
 6283W        W70227  10.857  14.599   1.249
 6284W        W70228   9.255  16.103   3.382
 6285W        W70229   6.227  17.787  10.031
 6286W        W70230  21.540  20.717  11.899
 6287W        W70231   5.740   2.361  10.578
 6288W        W70232  34.518  21.197  14.378
 6289W        W70233  24.150   7.322  10.407
 6290W        W70234   9.756  34.448  12.850
 6291W        W70235  16.603  14.737   4.127
 6292W        W70236   6.797   5.344  12.040
 6293W        W70237  12.123  34.090   3.187
 6294W        W70238  36.934  28.577  14.476
 6295W        W70239   0.788  31.462  13.485
 6296W        W70240   0.261  29.497  13.977
 6297W        W70241  23.633  24.594  11.491
 6298W        W70242  39.320   1.806  14.486
 6299W        W70243  16.813   7.404   2.842
 6300W        W70244  18.660  40.542  10.422
 6301W        W70245  43.851   8.332  11.965
 6302W        W70246   8.232  18.203  14.929
 6303W        W70247   1.471  41.947  14.827
 6304W        W70248  39.316   9.646  14.799
 6305W        W70249  42.526   2.824  14.868
 6306W        W70250  40.508   8.836  14.983
 6307W        W70251  42.990  20.094  13.476
 6308W        W70252  36.066   8.795  13.997
 6309W        W70253  14.609  22.500   4.346
 6310W        W70254  35.410  41.451   0.364
 6311W        W70255  36.959  25.640   1.446
 6312W        W70256  28.507  29.528  12.934
 6313W        W70257  33.532  22.029   4.289
 6314W        W70258  17.698  40.860  10.443
 6315W        W70259  44.908  18.622  11.490
 6316W        W70260  22.713  43.867   3.312
 6317W        W70261   4.237  38.515   2.862
 6318W        W70262  37.492  25.652   0.459
 6319W        W70263  16.288  28.636   4.314
 6320W        W70264  40.906   2.870  11.579
 6321W        W70265   9.666  40.367   1.444
 6322W        W70266  17.692   2.919   2.375
 6323W        W70267  11.221  39.405  12.380
 6324W        W70268  12.798   1.285   0.784
 6325W        W70269  35.927  18.560   1.758
 6326W        W70270  19.228  44.846  12.469
 6327W        W70271  25.573  26.488  13.495
 6328W        W70272   5.691  41.331   0.317
 6329W        W70273  36.851   9.268  10.457
 6330W        W70274  28.592  29.035   2.670
 6331W        W70275  27.009  19.692  12.432
 6332W        W70276  38.456  18.725  14.904
 6333W        W70277  16.672  44.427   3.277
 6334W        W70278  24.120  11.640   4.337
 6335W        W70279  25.016   7.788   4.659
 6336W        W70280   9.728   0.901  13.480
 6337W        W70281  36.481  22.714   4.659
 6338W        W70282   4.349  24.581  11.112
 6339W        W70283  34.485  27.011  12.878
 6340W        W70284  21.669  17.169   1.400
 6341W        W70285   1.323   7.359   1.350
 6342W        W70286  24.578  12.246  13.528
 6343W        W70287  16.257  10.695  11.602
 6344W        W70288  14.631  33.973   0.850
 6345W        W70289  13.606   7.767  13.958
 6346W        W70290  28.117  12.789  12.064
 6347W        W70291  30.981  23.621   3.822
 6348W        W70292  32.032  34.079   0.903
 6349W        W70293  21.185   0.889   0.457
 6350W        W70294  11.347  43.491   2.751
 6351W        W70295  31.012  20.082   3.274
 6352W        W70296  33.582   3.742  14.794
 6353W        W70297   6.323  30.093   2.824
 6354W        W70298   9.251  29.564  13.922
 6355W        W70299  31.607  43.947  10.472
 6356W        W70300   8.222  15.102   1.275
 6357W        W70301  36.538  39.987  12.495
 6358W        W70302   3.893   7.278  14.782
 6359W        W70303  14.697   5.329   4.272
 6360W        W70304  26.547  10.263   4.236
 6361W        W70305  35.852  37.517  14.766
 6362W        W70306  43.321  21.094  12.381
 6363W        W70307  25.063  24.667  10.547
 6364W        W70308  44.776   0.857  10.944
 6365W        W70309  33.002  33.130  12.462
 6366W        W70310   8.286  32.489  10.639
 6367W        W70311  27.024   8.314   0.440
 6368W        W70312  23.608  30.960   4.125
 6369W        W70313  12.744   4.921  10.930
 6370W        W70314   9.250  30.548  11.020
 6371W        W70315  29.579  35.501   2.773
 6372W        W70316  22.572  30.576   3.211
 6373W        W70317  29.476  26.959   2.723
 6374W        W70318  32.122  12.122   2.739
 6375W        W70319  36.859  39.934   4.161
 6376W        W70320   5.765  43.777  13.546
 6377W        W70321  23.516  15.764   0.325
 6378W        W70322  31.064  34.462   3.367
 6379W        W70323   4.303  33.394  13.892
 6380W        W70324  13.207  30.999  11.527
 6381W        W70325   6.901   6.425  14.888
 6382W        W70326  26.526  36.979  10.404
 6383W        W70327   4.862  30.627  10.470
 6384W        W70328  40.002   7.851   0.928
 6385W        W70329  32.887   9.882   2.817
 6386W        W70330  30.533  26.687   3.164
 6387W        W70331  38.337   8.339  10.631
 6388W        W70332  12.275  20.067  14.947
 6389W        W70333  41.011   8.377   2.196
 6390W        W70334  17.265  17.783   3.678
 6391W        W70335  40.913  13.254  14.760
 6392W        W70336  30.936  20.104   3.777
 6393W        W70337   0.265  32.096  11.435
 6394W        W70338  32.909  40.930  14.884
 6395W        W70339  15.596  11.267  12.402
 6396W        W70340   1.842  43.764   3.268
 6397W        W70341  22.203  41.432  12.052
 6398W        W70342  15.647  24.642  13.484
 6399W        W70343   7.911  39.866  10.129
 6400W        W70344   2.262   3.344   3.330
 6401W        W70345  40.992  36.894  12.018
 6402W        W70346  15.315  41.011   0.901
 6403W        W70347  25.487  38.073  11.466
 6404W        W70348   3.237  16.187  10.599
 6405W        W70349  10.149  35.068  14.945
 6406W        W70350  17.121  11.827   4.828
 6407W        W70351  10.869   8.326  14.928
 6408W        W70352  12.181  34.869   4.297
 6409W        W70353  21.566   6.906   2.891
 6410W        W70354  23.206  35.927  12.937
 6411W        W70355  28.930  38.462  13.856
 6412W        W70356  36.490  19.644   4.344
 6413W        W70357  35.031  42.314   1.734
 6414W        W70358  13.278  13.696  10.917
 6415W        W70359  12.837   2.403  14.964
 6416W        W70360  17.073   3.378  12.524
 6417W        W70361   3.372  34.010   0.735
 6418W        W70362  17.294   7.415   3.638
 6419W        W70363  42.372  16.679  10.418
 6420W        W70364  43.879  25.996  14.280
 6421W        W70365  31.414   1.311  10.461
 6422W        W70366   6.846  35.942   0.743
 6423W        W70367  25.963   6.787  14.932
 6424W        W70368  37.437  43.898  10.509
 6425W        W70369   0.318  24.198   1.896
 6426W        W70370   1.913   1.366  11.371
 6427W        W70371  18.270  21.647   9.615
 6428W        W70372  35.473  35.961   2.242
 6429W        W70373   7.667  25.962  10.998
 6430W        W70374  43.972  14.106  11.543
 6431W        W70375  17.286  39.339   0.949
 6432W        W70376  27.534  40.963  11.946
 6433W        W70377  10.866  14.301   4.182
 6434W        W70378  21.063  19.253  10.525
 6435W        W70379   7.208  32.120   3.723
 6436W        W70380  20.185  39.054  10.573
 6437W        W70381  32.127  20.581   2.867
 6438W        W70382  10.237  13.172  10.909
 6439W        W70383  22.230  38.552   1.430
 6440W        W70384  41.942  29.055  10.105
 6441W        W70385  14.733  31.983  14.933
 6442W        W70386  42.289  38.063   1.354
 6443W        W70387  10.756  16.129   0.459
 6444W        W70388  38.359  40.890  12.008
 6445W        W70389   4.817  15.645   5.235
 6446W        W70390  33.446  43.005   5.277
 6447W        W70391  19.218  23.687  11.457
 6448W        W70392   4.227  32.999   0.416
 6449W        W70393  20.151   9.170  12.904
 6450W        W70394  12.182  28.444   1.351
 6451W        W70395  41.857  13.750  11.500
 6452W        W70396   1.872  34.422   4.700
 6453W        W70397  17.272  41.864   1.222
 6454W        W70398   0.941   3.849   1.901
 6455W        W70399  16.255  14.680  14.893
 6456W        W70400  21.179  31.596   3.335
 6457W        W70401  37.891  34.040   3.746
 6458W        W70402   9.833  44.355  11.999
 6459W        W70403  34.008  10.207  12.540
 6460W        W70404  40.427  19.151   2.265
 6461W        W70405  29.124  31.150  14.954
 6462W        W70406  22.038  44.425  10.572
 6463W        W70407  17.135  44.486  12.849
 6464W        W70408  41.015  30.425   2.225
 6465W        W70409  41.527  42.810  13.898
 6466W        W70410  29.081  16.608  14.992
 6467W        W70411   3.286   0.277   0.449
 6468W        W70412  25.066  26.983   3.264
 6469W        W70413  17.190  31.500  12.420
 6470W        W70414   7.344  10.843   4.786
 6471W        W70415  41.817   7.225  12.494
 6472W        W70416  12.357  32.600   3.718
 6473W        W70417  42.419  22.147  14.763
 6474W        W70418  25.694  28.513   0.841
 6475W        W70419  42.953   1.239   1.787
 6476W        W70420  29.974   8.358  14.865
 6477W        W70421   8.234  41.375  13.810
 6478W        W70422  27.541   2.377   2.364
 6479W        W70423   2.256   5.708  10.097
 6480W        W70424  15.317  10.195  11.860
 6481W        W70425  19.610  41.424   4.644
 6482W        W70426  27.121  28.528   3.345
 6483W        W70427  41.430   7.173  13.019
 6484W        W70428  15.813  44.828  13.886
 6485W        W70429   7.780  24.025   3.661
 6486W        W70430  27.640  37.022  14.781
 6487W        W70431  38.834  14.215  12.931
 6488W        W70432   6.886  34.987   0.415
 6489W        W70433   0.313   3.402  11.858
 6490W        W70434  36.538   1.868  13.522
 6491W        W70435  38.907  14.132  11.446
 6492W        W70436  16.080  19.151  10.921
 6493W        W70437  19.613   4.885  14.291
 6494W        W70438  13.240   2.373  14.810
 6495W        W70439  36.374  35.454   2.866
 6496W        W70440  22.061   7.414   4.716
 6497W        W70441  37.401  26.558  10.591
 6498W        W70442   4.204  30.108   2.376
 6499W        W70443  16.666  32.082  11.379
 6500W        W70444  19.544   0.940   4.228
 6501W        W70445  11.187  33.884   0.250
 6502W        W70446  29.168  40.457   2.195
 6503W        W70447  33.568  25.699  12.553
 6504W        W70448  36.017  29.524  12.052
 6505W        W70449  32.594  43.967  10.611
 6506W        W70450  38.041  27.571   1.444
 6507W        W70451   0.476  44.327  11.557
 6508W        W70452  38.931  32.014  11.123
 6509W        W70453  17.083  27.041   0.760
 6510W        W70454  29.661  43.795   4.612
 6511W        W70455   7.828   4.820  14.968
 6512W        W70456  32.963  23.624  13.324
 6513W        W70457  40.892  33.613   1.923
 6514W        W70458   5.918   4.321  11.395
 6515W        W70459  12.206  33.083   1.428
 6516W        W70460  16.115  15.698   4.131
 6517W        W70461  31.486  20.112  11.574
 6518W        W70462   9.190  39.014  13.458
 6519W        W70463  38.419  44.907   1.257
 6520W        W70464  29.624  29.473   3.701
 6521W        W70465   3.221   0.373   4.187
 6522W        W70466  13.777   0.934  11.377
 6523W        W70467  18.131   8.230  10.891
 6524W        W70468  20.680   1.847   4.249
 6525W        W70469  32.541   4.793  10.490
 6526W        W70470  41.305  11.151  12.939
 6527W        W70471  12.242  30.072   1.386
 6528W        W70472  11.264  34.467  10.928
 6529W        W70473   0.913  14.219  12.848
 6530W        W70474   9.823   6.330   3.753
 6531W        W70475  19.735  25.584  11.915
 6532W        W70476  28.988  32.971   0.910
 6533W        W70477   7.401  31.630   3.287
 6534W        W70478  41.937  14.310  13.012
 6535W        W70479  12.173  23.538   3.184
 6536W        W70480  12.173  15.285  12.551
 6537W        W70481  41.358  24.182  11.905
 6538W        W70482  15.225  17.687   3.306
 6539W        W70483  34.087  35.365  12.029
 6540W        W70484  44.948  16.273   1.255
 6541W        W70485  36.894   5.423   1.296
 6542W        W70486  41.000  27.548   3.248
 6543W        W70487  34.887   7.321   1.423
 6544W        W70488   3.265   7.309  14.362
 6545W        W70489   7.323  21.050   3.230
 6546W        W70490  35.530   6.702  11.386
 6547W        W70491   1.792   4.241  11.936
 6548W        W70492  23.111  11.809   4.259
 6549W        W70493  37.967  29.987   1.424
 6550W        W70494  43.929  10.363  12.396
 6551W        W70495  19.231  22.562   1.887
 6552W        W70496   1.261  24.114   1.272
 6553W        W70497  34.549  31.002   1.244
 6554W        W70498  17.725   0.444   4.216
 6555W        W70499  35.881  23.549  12.023
 6556W        W70500  27.615  34.079   0.254
 6557W        W70501  21.756  23.516   3.270
 6558W        W70502   0.778  24.607   0.307
 6559W        W70503  26.606   2.288   3.213
 6560W        W70504   4.926   8.756  13.796
 6561W        W70505  36.357   5.306  12.414
 6562W        W70506   7.378  21.608   1.290
 6563W        W70507  41.942  37.418   1.890
 6564W        W70508  15.625  13.787   3.779
 6565W        W70509  33.021   0.852   0.835
 6566W        W70510  20.156  37.488  14.950
 6567W        W70511  25.560   8.405  12.373
 6568W        W70512  29.939  10.725   0.774
 6569W        W70513  43.419  30.111   2.790
 6570W        W70514  14.696  10.187   4.654
 6571W        W70515  16.092  11.749  13.905
 6572W        W70516  36.923  30.471  10.913
 6573W        W70517  10.350  20.118  11.867
 6574W        W70518  22.197  27.149  14.337
 6575W        W70519  12.761  31.529   1.753
 6576W        W70520  38.544   8.221  10.974
 6577W        W70521  28.656  15.251   9.463
 6578W        W70522  22.121   7.693  12.539
 6579W        W70523  15.722  29.004  13.043
 6580W        W70524  29.478  34.509  14.480
 6581W        W70525  38.978  37.519  13.876
 6582W        W70526  27.496  41.480   3.202
 6583W        W70527   3.847  10.647  12.369
 6584W        W70528  39.449  31.984  10.422
 6585W        W70529  25.497  29.952   1.849
 6586W        W70530  13.287  29.492   4.351
 6587W        W70531  25.183  43.860   3.225
 6588W        W70532  11.236  17.183   4.168
 6589W        W70533  23.159   4.813  12.920
 6590W        W70534   0.295  12.715  11.018
 6591W        W70535  19.204  26.536  11.966
 6592W        W70536  17.062  14.660  13.471
 6593W        W70537  19.713  24.526  10.419
 6594W        W70538   8.168  12.694   1.412
 6595W        W70539   7.746  14.703   0.730
 6596W        W70540  16.617  31.453   2.339
 6597W        W70541  14.094  37.417   1.229
 6598W        W70542   5.819  26.973  11.895
 6599W        W70543  13.835  29.026   4.815
 6600W        W70544  26.546   9.172  11.067
 6601W        W70545   8.251   6.820   4.349
 6602W        W70546   5.791  25.968   2.897
 6603W        W70547   1.374  15.128  14.302
 6604W        W70548  35.367  10.198   3.310
 6605W        W70549  42.999  21.222   0.373
 6606W        W70550  21.139   2.735  13.021
 6607W        W70551   2.894  16.813  11.097
 6608W        W70552  22.021  10.753  14.848
 6609W        W70553   8.300  28.030  13.944
 6610W        W70554  34.883  20.758  14.973
 6611W        W70555  33.452  23.015   1.364
 6612W        W70556  42.839   0.986   1.296
 6613W        W70557  15.205  33.106  14.323
 6614W        W70558  41.536  35.883  13.932
 6615W        W70559  43.429   9.707  12.994
 6616W        W70560  29.467  19.273   4.304
 6617W        W70561  10.784  16.091  14.998
 6618W        W70562  24.725  21.512  14.443
 6619W        W70563  29.964  37.528   2.776
 6620W        W70564  25.054  19.670   3.702
 6621W        W70565  32.618  42.497  12.924
 6622W        W70566  36.559  23.641   5.162
 6623W        W70567  37.941  12.818   1.925
 6624W        W70568   9.708   1.947   0.755
 6625W        W70569  36.433  18.220  12.993
 6626W        W70570  41.429  39.466   1.879
 6627W        W70571  37.453  23.025  12.403
 6628W        W70572  18.685  28.076  11.418
 6629W        W70573  33.438  13.743  11.916
 6630W        W70574  24.597  33.126   3.736
 6631W        W70575  26.613   7.835  12.466
 6632W        W70576  31.422  34.043  13.409
 6633W        W70577  38.822   5.216   3.299
 6634W        W70578  28.526  39.840  11.571
 6635W        W70579  22.209  29.598   1.340
 6636W        W70580  41.932  21.708  11.036
 6637W        W70581  44.269  14.192   0.956
 6638W        W70582  38.412  39.353   1.306
 6639W        W70583   7.186   6.750  12.397
 6640W        W70584  10.815  28.088   4.282
 6641W        W70585  24.185   4.212   3.655
 6642W        W70586  42.795  22.170   1.805
 6643W        W70587   9.394  40.458   0.410
 6644W        W70588   1.400  30.083  13.466
 6645W        W70589  18.197  12.774   4.161
 6646W        W70590   4.871  27.966   1.381
 6647W        W70591  28.163  28.486   4.801
 6648W        W70592  24.543  23.170   1.802
 6649W        W70593  10.344  25.530  13.969
 6650W        W70594  40.983  38.429  14.939
 6651W        W70595  42.466  10.650  10.983
 6652W        W70596  44.908  14.595   0.435
 6653W        W70597  22.233  31.485  11.561
 6654W        W70598  39.823  27.952   0.441
 6655W        W70599  15.109  30.008  10.987
 6656W        W70600  43.874  11.859   4.836
 6657W        W70601  38.513   2.286  13.453
 6658W        W70602  43.886  27.111   4.777
 6659W        W70603   6.246  31.450  10.895
 6660W        W70604   1.897  17.240   3.792
 6661W        W70605  43.927  28.953   1.355
 6662W        W70606   9.766   8.734  13.885
 6663W        W70607  26.207  23.138  12.094
 6664W        W70608  24.127  43.885  12.452
 6665W        W70609  10.287  35.488   3.681
 6666W        W70610  23.222  21.673  14.417
 6667W        W70611  39.362  43.448   4.790
 6668W        W70612   5.840  42.858  10.046
 6669W        W70613   6.696  16.726  14.977
 6670W        W70614  22.200  12.678   4.655
 6671W        W70615  29.576   8.793   5.123
 6672W        W70616  38.527  13.342  14.391
 6673W        W70617  36.470  28.446  10.601
 6674W        W70618  18.752  38.439   1.381
 6675W        W70619  40.541  10.310  13.430
 6676W        W70620  28.967  12.741   0.457
 6677W        W70621  16.182  43.881  11.605
 6678W        W70622  15.199   3.453  10.139
 6679W        W70623  11.284  14.252   0.472
 6680W        W70624  24.718  26.642  11.471
 6681W        W70625  32.580   0.922  12.343
 6682W        W70626  27.615  13.174  13.952
 6683W        W70627  39.448   0.790   2.328
 6684W        W70628  33.389  44.503   1.232
 6685W        W70629  31.571  14.688   1.329
 6686W        W70630  42.982  11.182   0.732
 6687W        W70631  11.815  20.532   1.850
 6688W        W70632  17.787   2.835  13.798
 6689W        W70633  31.440  10.768  11.573
 6690W        W70634  15.267   2.810  10.440
 6691W        W70635  26.155  23.016   1.890
 6692W        W70636  10.823   1.347   1.383
 6693W        W70637   4.872  10.346   3.169
 6694W        W70638  13.290  33.036  10.629
 6695W        W70639  36.383   5.817  11.054
 6696W        W70640  25.508  38.387   1.726
 6697W        W70641  34.055  19.089   2.342
 6698W        W70642   6.420  30.020   0.776
 6699W        W70643  40.483   7.207   2.776
 6700W        W70644  37.377  35.395   0.475
 6701W        W70645  25.590  30.014  14.449
 6702W        W70646   7.378  27.968   2.373
 6703W        W70647  12.799  21.101  12.530
 6704W        W70648  15.804  16.192  11.410
 6705W        W70649  40.508   5.282   1.214
 6706W        W70650  34.094  44.923  11.494
 6707W        W70651  31.442   8.338   4.771
 6708W        W70652  13.786  25.049   0.758
 6709W        W70653  44.285  41.937  10.439
 6710W        W70654  29.637   5.912   3.291
 6711W        W70655  35.536   7.294  12.935
 6712W        W70656  15.153  38.422  10.989
 6713W        W70657   0.858   4.294  14.023
 6714W        W70658   0.375   3.873   3.166
 6715W        W70659  34.037   5.895  10.421
 6716W        W70660  36.433  22.573   1.702
 6717W        W70661  40.448   6.814   0.385
 6718W        W70662  15.681   2.302   9.972
 6719W        W70663   1.314  35.029   2.717
 6720W        W70664  30.119  13.708  10.551
 6721W        W70665  12.746  25.103   0.798
 6722W        W70666  22.700  28.490  13.986
 6723W        W70667   9.216  43.005   2.316
 6724W        W70668  15.248   6.212   4.772
 6725W        W70669   7.696  15.089   4.614
 6726W        W70670  35.586  33.896  12.913
 6727W        W70671   4.370  13.830  12.394
 6728W        W70672  20.676  30.038  12.571
 6729W        W70673  25.123  38.901  12.850
 6730W        W70674  28.979  25.644  11.498
 6731W        W70675   3.431   2.454   2.194
 6732W        W70676   4.882  21.681  12.836
 6733W        W70677  31.433  43.378   2.238
 6734W        W70678   9.270   8.165  10.431
 6735W        W70679  42.281   9.203   4.676
 6736W        W70680   4.944   8.382  10.996
 6737W        W70681   8.330  24.686   3.359
 6738W        W70682  42.834   6.917  14.777
 6739W        W70683   2.803  24.577   2.373
 6740W        W70684  21.121  20.705   4.269
 6741W        W70685  26.013  33.465  11.971
 6742W        W70686   7.686   3.742  13.015
 6743W        W70687  22.556  40.313  13.897
 6744W        W70688  17.123   3.303   0.476
 6745W        W70689  37.501  36.999   1.914
 6746W        W70690  37.473   7.833   0.765
 6747W        W70691   0.415  26.178   3.773
 6748W        W70692  40.037  37.427   1.790
 6749W        W70693  23.136  35.008  11.947
 6750W        W70694   7.895   8.265   2.346
 6751W        W70695  28.056   1.763   3.765
 6752W        W70696  34.369  32.131  14.840
 6753W        W70697  34.993  16.695  11.470
 6754W        W70698   6.331  22.058  12.410
 6755W        W70699  32.459  18.293  10.441
 6756W        W70700  25.186  14.628   3.223
 6757W        W70701   5.784   9.198   2.413
 6758W        W70702  24.618   4.817   1.789
 6759W        W70703  24.692   8.783  12.894
 6760W        W70704   0.304  15.610   4.687
 6761W        W70705   8.204  41.311   2.338
 6762W        W70706  25.585  16.647   3.294
 6763W        W70707   8.326  21.173  10.004
 6764W        W70708   7.388  23.558   3.211
 6765W        W70709  33.971  37.344  11.108
 6766W        W70710  39.371  35.373   1.849
 6767W        W70711  43.943  38.461  10.641
 6768W        W70712  44.807  10.195   4.634
 6769W        W70713   8.854   3.223  11.907
 6770W        W70714   3.917   9.651  12.467
 6771W        W70715  28.980   7.306  13.307
 6772W        W70716  35.093  12.178   1.765
 6773W        W70717   2.750  34.477   3.250
 6774W        W70718  32.013   1.324   1.219
 6775W        W70719  39.940  29.036  13.857
 6776W        W70720  41.912  17.165   0.369
 6777W        W70721  43.833  25.672   3.738
 6778W        W70722  43.021  23.673  14.311
 6779W        W70723   8.848   9.278  11.105
 6780W        W70724   1.334  41.019   1.805
 6781W        W70725   5.435  35.384   0.319
 6782W        W70726  15.821  12.226  11.978
 6783W        W70727  39.036  42.792  12.349
 6784W        W70728  10.636  34.076  14.428
 6785W        W70729  20.199  38.496   3.147
 6786W        W70730  23.210   7.724   1.838
 6787W        W70731  13.723  21.733  14.493
 6788W        W70732  26.089  11.720   4.120
 6789W        W70733  23.709  10.228   4.671
 6790W        W70734  34.080  10.733   2.777
 6791W        W70735  20.051  25.688   5.140
 6792W        W70736  42.474  22.083  10.556
 6793W        W70737   3.853  12.710  11.082
 6794W        W70738  38.491  34.921   0.484
 6795W        W70739   5.769  36.032   1.412
 6796W        W70740   3.275   7.704  12.378
 6797W        W70741  37.988  25.572  13.495
 6798W        W70742  20.751  41.042   0.910
 6799W        W70743  37.083   5.410   3.164
 6800W        W70744  12.239   6.387   4.669
 6801W        W70745  39.437  37.017  13.489
 6802W        W70746  17.140  24.135   9.628
 6803W        W70747  31.131  23.617  11.063
 6804W        W70748  15.106  26.568  14.885
 6805W        W70749  29.486   7.750   1.282
 6806W        W70750  19.168  26.203  13.006
 6807W        W70751  32.538  34.921   1.286
 6808W        W70752  18.611  31.132  11.549
 6809W        W70753  38.017  11.205   3.637
 6810W        W70754  18.260  17.263  11.897
 6811W        W70755  42.948  21.249   4.205
 6812W        W70756  40.401  26.499  12.874
 6813W        W70757  38.970   0.331   2.713
 6814W        W70758  38.021  27.668   4.600
 6815W        W70759  36.534  27.124   1.430
 6816W        W70760  13.701  22.690   3.370
 6817W        W70761  22.019  43.785   2.826
 6818W        W70762  30.622  21.568  14.391
 6819W        W70763  26.984  44.776  14.854
 6820W        W70764  23.195  31.488   2.226
 6821W        W70765  43.382  40.014  13.834
 6822W        W70766   1.793  13.262  12.343
 6823W        W70767  10.772   6.814  14.890
 6824W        W70768  28.536   3.761  10.470
 6825W        W70769  21.080  32.126   3.185
 6826W        W70770  35.856   2.764   2.348
 6827W        W70771  29.155  34.379  11.038
 6828W        W70772  11.816   4.298   4.324
 6829W        W70773  22.608   6.888  13.941
 6830W        W70774  12.847  28.177   1.809
 6831W        W70775   0.342  12.658   1.805
 6832W        W70776  29.508  18.586  11.567
 6833W        W70777  42.347  43.840  14.024
 6834W        W70778   0.383  33.966   0.464
 6835W        W70779  41.926   9.377   1.846
 6836W        W70780  40.958   0.308   2.201
 6837W        W70781  15.719  27.048  10.105
 6838W        W70782   6.282  23.613  10.516
 6839W        W70783  36.423  40.493   0.858
 6840W        W70784  41.800  43.885   1.897
 6841W        W70785   3.272  43.501  12.487
 6842W        W70786  14.778  15.264   2.664
 6843W        W70787  29.104  41.459  12.374
 6844W        W70788  12.628  10.256  12.828
 6845W        W70789  13.674  22.233   4.729
 6846W        W70790  31.971  38.429   0.370
 6847W        W70791  13.121  24.060   0.909
 6848W        W70792  42.993  35.600   1.783
 6849W        W70793   3.440  17.798   0.303
 6850W        W70794   1.317  10.856   1.390
 6851W        W70795  31.471  25.104   4.156
 6852W        W70796  43.423  32.014   0.759
 6853W        W70797  33.068  26.155   1.899
 6854W        W70798  35.093  43.465   3.708
 6855W        W70799   1.841  11.695   2.225
 6856W        W70800  14.650  42.914   0.957
 6857W        W70801  12.179  18.642   1.428
 6858W        W70802  11.789  13.702   3.349
 6859W        W70803  24.708  30.931   2.743
 6860W        W70804   4.374  22.583  11.959
 6861W        W70805  41.431  27.083   3.692
 6862W        W70806  40.810  30.957   1.795
 6863W        W70807  20.231  44.951   2.890
 6864W        W70808  30.512  29.492  14.277
 6865W        W70809  28.548  26.017  14.293
 6866W        W70810  27.561  35.603  14.457
 6867W        W70811  13.305  30.536  12.545
 6868W        W70812  20.652  18.578   1.799
 6869W        W70813  33.117  14.651   0.310
 6870W        W70814  34.435  39.526  11.014
 6871W        W70815  25.186  15.255  14.410
 6872W        W70816  44.293  27.940  10.098
 6873W        W70817  40.494  41.877   2.324
 6874W        W70818   1.351  26.091   2.181
 6875W        W70819  36.034  38.825   3.171
 6876W        W70820  11.705   7.198   1.332
 6877W        W70821  39.028  10.850   2.666
 6878W        W70822  33.619  43.975   0.435
 6879W        W70823  14.721  34.540  10.501
 6880W        W70824  29.654   1.384  11.062
 6881W        W70825  24.004  22.151   4.720
 6882W        W70826  37.942   0.778  10.482
 6883W        W70827   0.436  15.142  10.962
 6884W        W70828  19.603  30.483  12.858
 6885W        W70829  13.820  25.492   2.418
 6886W        W70830  25.704  43.005  14.928
 6887W        W70831   7.301  35.371  13.016
 6888W        W70832   9.246  34.885  12.892
 6889W        W70833  13.642  22.601   2.385
 6890W        W70834  10.823  42.394   4.322
 6891W        W70835   7.752  44.966   0.351
 6892W        W70836  15.734  33.956  12.527
 6893W        W70837   7.864  23.076   2.841
 6894W        W70838  31.034   2.370  12.518
 6895W        W70839  22.539  28.611  13.340
 6896W        W70840   9.182  44.349   4.268
 6897W        W70841   2.459  29.611  10.558
 6898W        W70842  35.073  29.969  13.875
 6899W        W70843  16.212   5.805  11.439
 6900W        W70844  35.496  10.176   1.261
 6901W        W70845  29.521  44.862  10.522
 6902W        W70846  43.923  23.229   1.835
 6903W        W70847   1.944  39.399   2.302
 6904W        W70848  25.175  14.106  12.383
 6905W        W70849  23.668  31.593  13.911
 6906W        W70850   4.765  43.944   1.764
 6907W        W70851   9.876  43.946  11.049
 6908W        W70852  36.883  11.736   2.286
 6909W        W70853  37.846  27.552  12.045
 6910W        W70854  15.617  21.533   2.197
 6911W        W70855  37.944  25.074   4.665
 6912W        W70856  12.833  44.882   1.905
 6913W        W70857  24.195  18.179   2.229
 6914W        W70858  38.401  42.899  14.020
 6915W        W70859  16.674  21.691  12.047
 6916W        W70860   9.236   9.718   0.253
 6917W        W70861   3.331  27.115   0.477
 6918W        W70862  11.348   8.719   3.381
 6919W        W70863  38.867  39.865  12.385
 6920W        W70864  40.034   8.894   1.293
 6921W        W70865  15.090  31.999   4.608
 6922W        W70866  33.446  20.549  10.944
 6923W        W70867  25.571  35.408   1.708
 6924W        W70868  19.754  37.517   2.902
 6925W        W70869  11.203   1.318  13.373
 6926W        W70870   5.340  31.040   2.761
 6927W        W70871  42.942  25.500   0.961
 6928W        W70872  26.470   7.394  11.092
 6929W        W70873  12.751  42.367  10.494
 6930W        W70874   2.848   9.259   1.433
 6931W        W70875  24.137  32.989  14.360
 6932W        W70876  39.051  21.693  14.882
 6933W        W70877   8.731  23.084  14.470
 6934W        W70878   0.277  40.506   3.845
 6935W        W70879  34.372  44.458  11.120
 6936W        W70880  34.490  10.269  13.336
 6937W        W70881  10.264  29.467  10.535
 6938W        W70882   4.866  31.108  14.439
 6939W        W70883  27.141  34.521   2.791
 6940W        W70884  17.195  19.099  14.802
 6941W        W70885  30.612  26.669  11.978
 6942W        W70886  28.541  25.990   3.798
 6943W        W70887  15.124  23.629   1.313
 6944W        W70888  10.834  23.042  14.276
 6945W        W70889  25.600  34.914   3.829
 6946W        W70890   4.889  40.540  11.438
 6947W        W70891  25.510  12.182   0.759
 6948W        W70892   9.362  43.826   1.738
 6949W        W70893   0.866   5.712   3.775
 6950W        W70894  26.091   6.247  14.936
 6951W        W70895  36.997  31.951  10.994
 6952W        W70896  10.701  39.856   3.802
 6953W        W70897   6.273   7.391   2.685
 6954W        W70898   5.723  17.584   4.738
 6955W        W70899  37.961   8.850   0.397
 6956W        W70900   0.423  24.092   2.179
 6957W        W70901  26.959  35.008   3.311
 6958W        W70902   8.764  22.599  11.508
 6959W        W70903  32.085  30.567  14.343
 6960W        W70904   4.299  18.680   1.425
 6961W        W70905  29.088  31.991  12.857
 6962W        W70906  32.628  30.921  11.051
 6963W        W70907  16.773  33.611  12.566
 6964W        W70908  27.037  43.393  11.451
 6965W        W70909  38.863   4.923   5.656
 6966W        W70910  38.384  35.444  12.941
 6967W        W70911  38.849  29.630   3.281
 6968W        W70912  10.221  24.545  12.971
 6969W        W70913  20.757   3.331   0.808
 6970W        W70914   9.876  39.556  13.886
 6971W        W70915   4.772  42.818   0.783
 6972W        W70916  34.542  40.412   4.699
 6973W        W70917  41.383  22.105   4.331
 6974W        W70918  22.165  43.310   3.850
 6975W        W70919  35.085   6.914  11.035
 6976W        W70920   8.277  29.589   1.832
 6977W        W70921  34.921  20.732  12.871
 6978W        W70922  39.371  24.556   2.221
 6979W        W70923  18.062   6.185   0.419
 6980W        W70924  22.723  19.222  12.478
 6981W        W70925  42.430   8.285  11.878
 6982W        W70926  20.176  19.571  13.438
 6983W        W70927  34.578  44.003  10.945
 6984W        W70928   2.881   6.316   2.711
 6985W        W70929  21.171  26.098  11.991
 6986W        W70930   4.819   1.320  11.922
 6987W        W70931  28.112  40.884  13.026
 6988W        W70932   3.942  32.914  13.894
 6989W        W70933  26.062  38.568   4.294
 6990W        W70934  20.702  33.003  10.957
 6991W        W70935  37.887  29.141   4.824
 6992W        W70936  16.268  34.970  13.022
 6993W        W70937   5.896  10.349  11.953
 6994W        W70938   3.309  18.757  12.465
 6995W        W70939  24.084  12.124   2.395
 6996W        W70940  44.483   7.768  13.809
 6997W        W70941  25.543  29.461  11.047
 6998W        W70942  32.127   9.647  13.441
 6999W        W70943   5.285  37.534   1.315
 7000W        W70944   5.732   2.827   2.318
 7001W        W70945  23.539   3.815   4.638
 7002W        W70946  29.567   1.879   3.277
 7003W        W70947  25.688  23.614  11.505
 7004W        W70948   4.753  22.186   0.956
 7005W        W70949   7.848  38.835   3.172
 7006W        W70950  38.031  32.028  14.314
 7007W        W70951  26.553   7.890  14.348
 7008W        W70952  10.850   7.682  12.945
 7009W        W70953  23.545  35.378  14.785
 7010W        W70954  35.422   1.285  10.499
 7011W        W70955  42.777  39.506  11.507
 7012W        W70956  27.643  19.554  13.050
 7013W        W70957   3.924  43.876  13.818
 7014W        W70958  41.387  20.089   1.878
 7015W        W70959  20.041  26.478   1.746
 7016W        W70960  29.071  37.434   3.721
 7017W        W70961   1.376  26.583  12.417
 7018W        W70962  39.862  38.832  14.850
 7019W        W70963   9.262  37.394   3.156
 7020W        W70964  35.601  23.064   2.692
 7021W        W70965  23.116  27.008  11.003
 7022W        W70966  27.572   2.870  10.533
 7023W        W70967  28.021  43.401  12.482
 7024W        W70968  28.538  17.650  10.993
 7025W        W70969   3.439  27.488   0.356
 7026W        W70970  22.148  40.822  11.406
 7027W        W70971  12.343  34.506  11.517
 7028W        W70972  35.909   6.275   5.097
 7029W        W70973   4.725  14.224  10.023
 7030W        W70974  44.354  25.073   0.766
 7031W        W70975  38.071  11.709  13.499
 7032W        W70976   3.363  44.822  12.977
 7033W        W70977  40.050  43.298   2.326
 7034W        W70978  26.641  40.895  12.851
 7035W        W70979  27.963  43.017  14.951
 7036W        W70980  36.453  15.605  11.519
 7037W        W70981  11.335  22.598   0.344
 7038W        W70982  24.495  29.436   0.779
 7039W        W70983  31.153  43.473  11.860
 7040W        W70984   1.814  17.204   0.753
 7041W        W70985  17.064  22.236  11.903
 7042W        W70986   3.916  21.616   2.220
 7043W        W70987  41.883  22.120  10.452
 7044W        W70988  32.980  41.864  14.025
 7045W        W70989  13.793  13.120   0.862
 7046W        W70990  34.938  17.793  12.942
 7047W        W70991  33.996  11.196  13.498
 7048W        W70992   6.375  44.809  13.357
 7049W        W70993  35.067  28.964   2.400
 7050W        W70994   3.319   3.784   0.732
 7051W        W70995  15.603  18.230   1.225
 7052W        W70996  18.268  33.549   3.291
 7053W        W70997  26.461  39.348  10.975
 7054W        W70998  42.468  43.838   1.235
 7055W        W70999   2.291  43.447  11.522
 7056W        W71000  30.020  10.312  12.502
 7057W        W71001  31.477   9.741  14.400
 7058W        W71002  15.293  40.371   4.750
 7059W        W71003  18.768   7.334  10.120
 7060W        W71004   8.756  25.018   4.685
 7061W        W71005  12.312   7.294  13.433
 7062W        W71006  40.868  41.450  12.051
 7063W        W71007  27.663  39.466   9.632
 7064W        W71008  34.473  10.183   3.848
 7065W        W71009  25.144  26.589   0.880
 7066W        W71010  37.380   6.710   2.814
 7067W        W71011  34.061  13.619  10.415
 7068W        W71012   7.811  28.960  12.578
 7069W        W71013  22.670  14.320   4.769
 7070W        W71014  35.052  24.583   2.764
 7071W        W71015  41.012   0.872  11.505
 7072W        W71016  31.454   8.363   2.799
 7073W        W71017   0.481  12.119   0.891
 7074W        W71018  36.979  16.171  13.466
 7075W        W71019  10.258  16.580  14.511
 7076W        W71020   0.305  12.242  11.999
 7077W        W71021  22.139  19.595   2.351
 7078W        W71022  35.871  37.549  10.623
 7079W        W71023  22.565  10.173   1.795
 7080W        W71024   9.333   1.447   2.405
 7081W        W71025  41.358  27.010   1.825
 7082W        W71026  36.497  33.998   4.268
 7083W        W71027   2.858  29.585  11.404
 7084W        W71028   0.874  22.704   0.736
 7085W        W71029  42.991  23.168  13.522
 7086W        W71030  21.260   3.262  14.377
 7087W        W71031   5.370   7.752   0.409
 7088W        W71032  13.247  10.288  10.524
 7089W        W71033  33.479   6.275  11.006
 7090W        W71034  22.535  44.796  11.416
 7091W        W71035  27.517   0.746  13.913
 7092W        W71036  42.972  27.486   1.250
 7093W        W71037  31.507   7.377   1.330
 7094W        W71038  39.462  31.970  14.409
 7095W        W71039   6.327  43.468   3.289
 7096W        W71040  29.655  36.920  11.966
 7097W        W71041   3.777  39.977  13.916
 7098W        W71042   3.390  26.530   4.714
 7099W        W71043  20.547   5.920  10.529
 7100W        W71044  10.264  40.425  11.928
 7101W        W71045  33.075  22.176  11.573
 7102W        W71046  17.125  30.997   3.288
 7103W        W71047  26.057  34.096  11.549
 7104W        W71048  21.227  17.686  14.780
 7105W        W71049  30.154  23.674  14.950
 7106W        W71050   2.757   5.737   1.780
 7107W        W71051   5.735  11.190  14.351
 7108W        W71052  34.907  41.355  13.881
 7109W        W71053  40.321  17.670   2.841
 7110W        W71054  40.467   4.772   4.221
 7111W        W71055  42.842   0.788   4.193
 7112W        W71056  34.400  43.277  12.997
 7113W        W71057  18.641  32.520  14.005
 7114W        W71058  21.515   4.879   2.722
 7115W        W71059  38.910  21.710   4.771
 7116W        W71060   2.401   8.192   4.322
 7117W        W71061  21.516  23.576   4.684
 7118W        W71062  16.172  10.300  14.824
 7119W        W71063   3.442   0.830   4.293
 7120W        W71064  30.594  16.081  14.929
 7121W        W71065  14.198  32.081  10.124
 7122W        W71066  40.975   3.910  14.968
 7123W        W71067  30.586  28.517   0.887
 7124W        W71068  38.448  33.484  13.376
 7125W        W71069  43.977  41.955   1.874
 7126W        W71070  39.534  10.290   3.841
 7127W        W71071  26.083  30.525  10.497
 7128W        W71072  23.607  13.153   1.760
 7129W        W71073  22.601  28.014   0.343
 7130W        W71074   8.740  39.819   3.765
 7131W        W71075  26.049  20.157   1.892
 7132W        W71076  10.286  27.637   1.302
 7133W        W71077  28.097  11.341   0.458
 7134W        W71078  11.770   2.235  13.324
 7135W        W71079   1.844   7.720  10.429
 7136W        W71080  17.644  20.245  14.904
 7137W        W71081  21.033  44.294  12.437
 7138W        W71082  22.663  19.704  13.437
 7139W        W71083  16.781  19.123  10.610
 7140W        W71084  18.214  21.171  11.563
 7141W        W71085  36.578  23.157  14.471
 7142W        W71086   2.370   1.319   3.642
 7143W        W71087  20.728  20.237  13.493
 7144W        W71088  23.725  28.088  13.866
 7145W        W71089  28.943  43.327  11.566
 7146W        W71090  18.112  13.748   0.280
 7147W        W71091  25.543   5.784  13.539
 7148W        W71092   1.786  33.400  14.785
 7149W        W71093  29.049  25.164   2.321
 7150W        W71094  20.181  42.784   0.810
 7151W        W71095   2.344  39.443   3.645
 7152W        W71096  21.526  12.716  13.310
 7153W        W71097  20.623  13.275  10.481
 7154W        W71098  19.665   7.284  13.958
 7155W        W71099   6.725  40.967  12.097
 7156W        W71100  28.152  26.143  10.565
 7157W        W71101   8.193  27.178  11.890
 7158W        W71102  25.175  14.331   0.456
 7159W        W71103  32.070  35.419   1.868
 7160W        W71104  17.781   7.719   2.360
 7161W        W71105  10.312   0.834   0.900
 7162W        W71106  39.321  16.110  11.923
 7163W        W71107  27.598  26.155   1.311
 7164W        W71108  40.910  31.551   1.885
 7165W        W71109  20.241   6.851   3.145
 7166W        W71110   0.801   2.301  12.455
 7167W        W71111   4.346  10.228   4.217
 7168W        W71112  36.364  23.619   1.292
 7169W        W71113  17.090  10.843  13.843
 7170W        W71114  14.159   4.878   3.363
 7171W        W71115  10.342  37.395   0.281
 7172W        W71116   6.358  18.782   4.622
 7173W        W71117  23.491  24.988   0.274
 7174W        W71118  38.868  27.490  10.469
 7175W        W71119  44.465   0.357   2.721
 7176W        W71120   2.757  21.673   0.856
 7177W        W71121  14.768  32.081  13.456
 7178W        W71122  44.314  29.550   0.851
 7179W        W71123  10.878  37.004   2.827
 7180W        W71124   0.432  24.980   2.375
 7181W        W71125  19.755  27.607   0.934
 7182W        W71126  11.676  12.847   2.204
 7183W        W71127  44.458  24.526  11.374
 7184W        W71128  23.688  10.650  13.907
 7185W        W71129  13.826  19.222   2.897
 7186W        W71130  23.553  30.101   1.833
 7187W        W71131  42.829  10.771  14.827
 7188W        W71132   2.752  38.387  14.292
 7189W        W71133  15.741  22.570   2.707
 7190W        W71134  20.608  21.532   0.905
 7191W        W71135  31.083  20.144   1.345
 7192W        W71136  29.036  12.116  12.484
 7193W        W71137  31.625   6.822   2.344
 7194W        W71138   1.455  37.889   2.697
 7195W        W71139  38.870   3.813  10.004
 7196W        W71140  31.598  25.566   1.808
 7197W        W71141  39.848   9.305   2.387
 7198W        W71142   3.935  13.728   0.457
 7199W        W71143  31.029  36.881   1.813
 7200W        W71144  16.697  28.119   0.407
 7201W        W71145  14.175  36.978  14.001
 7202W        W71146  10.634  29.149   2.399
 7203W        W71147  11.153   5.339  10.482
 7204W        W71148  37.486  39.909   3.188
 7205W        W71149  40.044  31.409   4.647
 7206W        W71150  10.177  29.924   1.451
 7207W        W71151  25.011  40.944   2.229
 7208W        W71152  25.974   8.241   4.242
 7209W        W71153  38.339  13.122   2.765
 7210W        W71154   3.925   6.701   3.647
 7211W        W71155  25.509  31.600  14.456
 7212W        W71156  27.567   3.799   2.674
 7213W        W71157  14.258  20.608  10.008
 7214W        W71158   3.238  31.052  13.911
 7215W        W71159  27.119   6.757   2.809
 7216W        W71160  14.296  28.133   2.409
 7217W        W71161  39.055  17.675   2.212
 7218W        W71162  29.425  21.748  12.920
 7219W        W71163   8.824   8.712  11.043
 7220W        W71164  20.064  33.437  14.401
 7221W        W71165  44.800  27.063  12.885
 7222W        W71166  15.594  28.143   3.289
 7223W        W71167  32.036   4.214   3.783
 7224W        W71168  21.076  18.731  12.991
 7225W        W71169  44.498  24.112  10.989
 7226W        W71170  44.827   4.414  14.907
 7227W        W71171  36.394  20.634   2.380
 7228W        W71172  11.827   8.261  12.453
 7229W        W71173  37.033  18.628  14.890
 7230W        W71174  31.092  38.945   2.309
 7231W        W71175  39.936  36.024   4.206
 7232W        W71176  13.191   3.723  13.385
 7233W        W71177  33.001  37.079  12.467
 7234W        W71178  18.183   6.688  14.840
 7235W        W71179  12.257  18.241  10.410
 7236W        W71180  37.425   0.883  12.952
 7237W        W71181  35.538  18.179  10.539
 7238W        W71182  26.475  29.585   2.755
 7239W        W71183  24.067  41.486   3.685
 7240W        W71184   9.208  26.025  10.446
 7241W        W71185  33.384  28.121   1.289
 7242W        W71186  37.349  21.563  12.453
 7243W        W71187   8.250  19.134  13.380
 7244W        W71188  15.260  27.537   0.797
 7245W        W71189  32.925  10.201   0.402
 7246W        W71190   3.815  33.065  11.379
 7247W        W71191  20.557  15.319   1.855
 7248W        W71192  12.670  35.067  13.973
 7249W        W71193   9.779  37.436  12.400
 7250W        W71194  31.997   8.773   4.127
 7251W        W71195  26.617  28.454  10.903
 7252W        W71196   8.280   9.164  11.057
 7253W        W71197  43.886   9.307   1.704
 7254W        W71198  20.267   3.346  13.966
 7255W        W71199  29.092   9.810  13.850
 7256W        W71200  18.123   3.321  11.100
 7257W        W71201  21.593  13.188   0.792
 7258W        W71202   6.383  27.124  13.947
 7259W        W71203  36.559  20.567  12.845
 7260W        W71204  19.186  33.551  14.983
 7261W        W71205  13.616  34.512  14.452
 7262W        W71206  19.635  32.948  10.565
 7263W        W71207  33.027  23.690   2.345
 7264W        W71208  42.949  42.809   0.288
 7265W        W71209  35.080  13.624  11.080
 7266W        W71210   3.902   0.770  13.535
 7267W        W71211  19.768  42.032   0.465
 7268W        W71212   1.916  21.224  12.461
 7269W        W71213   0.326  14.685  11.436
 7270W        W71214  36.533  40.041   0.856
 7271W        W71215   7.261  14.222  13.996
 7272W        W71216   5.766  28.506  11.483
 7273W        W71217   3.799   1.249   1.309
 7274W        W71218  23.528  40.389   0.335
 7275W        W71219   5.715   6.397  10.431
 7276W        W71220   0.979  15.704   3.729
 7277W        W71221   9.860  44.465  10.999
 7278W        W71222  34.986   1.741  14.947
 7279W        W71223   9.715  35.438   0.409
 7280W        W71224  11.787  21.263   4.691
 7281W        W71225  17.787  35.389   4.239
 7282W        W71226  34.058   9.197   4.136
 7283W        W71227   7.361  10.356  13.864
 7284W        W71228  39.890  27.042  14.921
 7285W        W71229   5.244  37.064  14.371
 7286W        W71230  26.497   8.670   5.280
 7287W        W71231  36.023  21.032  11.892
 7288W        W71232  37.838  34.120  14.434
 7289W        W71233  14.651  31.103  14.482
 7290W        W71234   3.790  33.937   1.331
 7291W        W71235  16.734   0.922  14.506
 7292W        W71236   5.770  36.005  14.402
 7293W        W71237  13.188  11.321   2.753
 7294W        W71238  27.136  43.320   2.312
 7295W        W71239   2.257   9.659  11.012
 7296W        W71240  39.924  27.544  10.452
 7297W        W71241  12.708  14.674   1.843
 7298W        W71242  13.716  18.788  14.432
 7299W        W71243   0.432  42.920   3.178
 7300W        W71244  26.679  27.541  12.347
 7301W        W71245   3.261  11.767   4.240
 7302W        W71246  41.854  32.447   4.754
 7303W        W71247  16.232  41.837   4.179
 7304W        W71248  21.647  12.311   0.293
 7305W        W71249  21.719  42.779  11.528
 7306W        W71250  22.021   5.250   1.706
 7307W        W71251  16.197  35.958  12.400
 7308W        W71252  24.226  14.324  13.980
 7309W        W71253   4.715  12.243   2.203
 7310W        W71254  31.562   4.216  13.314
 7311W        W71255  17.644   0.471   2.304
 7312W        W71256  22.526  20.033  12.344
 7313W        W71257  35.576   4.414  14.431
 7314W        W71258  38.965  15.295   2.757
 7315W        W71259  40.925  34.559  12.031
 7316W        W71260   9.386   1.444  14.447
 7317W        W71261  29.561  24.111  13.402
 7318W        W71262  43.391  15.289  14.294
 7319W        W71263  23.038  20.084   4.264
 7320W        W71264  35.879  19.680   5.158
 7321W        W71265  24.001  44.911   0.406
 7322W        W71266  31.041  10.235   0.424
 7323W        W71267  15.681  27.012   2.670
 7324W        W71268  38.362  24.502   1.301
 7325W        W71269  30.616  19.627   0.429
 7326W        W71270  12.644  32.587   9.954
 7327W        W71271  39.556  22.555   4.172
 7328W        W71272  32.536  24.495   4.236
 7329W        W71273  31.424  21.566  10.441
 7330W        W71274   6.289   0.316   3.867
 7331W        W71275   7.797  13.297   0.473
 7332W        W71276   9.246  28.633   2.671
 7333W        W71277  15.155   3.310   5.214
 7334W        W71278   1.834  14.263   1.259
 7335W        W71279  41.328  41.440   4.242
 7336W        W71280  39.456   7.687  13.417
 7337W        W71281  18.695  13.804  12.427
 7338W        W71282  10.302  19.715  14.787
 7339W        W71283  36.404  18.635   2.380
 7340W        W71284  34.926   6.417   3.299
 7341W        W71285   6.913  25.038  12.076
 7342W        W71286  41.845  19.722  11.100
 7343W        W71287  37.082  25.701  14.018
 7344W        W71288  34.469  39.999   3.285
 7345W        W71289   0.476   3.449   1.288
 7346W        W71290  17.264  25.484   2.842
 7347W        W71291  18.295  10.822   1.781
 7348W        W71292  28.546  16.627   2.329
 7349W        W71293  31.087  20.529   2.883
 7350W        W71294  26.986   4.430   0.395
 7351W        W71295  43.929  22.134   0.347
 7352W        W71296  25.106  36.057  12.828
 7353W        W71297  28.012  22.146   4.654
 7354W        W71298  44.451  40.935   1.429
 7355W        W71299   0.396   4.847  11.006
 7356W        W71300   7.219  43.306   4.697
 7357W        W71301   6.733  43.951  10.998
 7358W        W71302   2.322  30.533   1.339
 7359W        W71303  41.793  24.168  13.449
 7360W        W71304  36.891  18.066  13.042
 7361W        W71305  22.029  22.123  12.572
 7362W        W71306  25.524  20.726   3.337
 7363W        W71307   8.887  35.999  13.403
 7364W        W71308  13.158  39.061   1.348
 7365W        W71309  18.140   2.442  11.056
 7366W        W71310  16.184  30.514   0.963
 7367W        W71311   5.225  12.676  14.349
 7368W        W71312  20.640  22.560   0.733
 7369W        W71313  40.885   6.855   2.237
 7370W        W71314  43.928  27.589  11.492
 7371W        W71315  23.516   3.315  13.546
 7372W        W71316  31.084  37.343   1.309
 7373W        W71317  42.400  11.744  12.565
 7374W        W71318  43.350  26.174   2.236
 7375W        W71319  15.795  37.484   3.741
 7376W        W71320   2.847   4.739   3.240
 7377W        W71321  37.059   1.937   0.397
 7378W        W71322  11.810  34.477  11.596
 7379W        W71323  12.172  22.040  11.504
 7380W        W71324  14.789  37.072   4.603
 7381W        W71325  17.181  10.695  11.411
 7382W        W71326  11.699  40.864  12.008
 7383W        W71327   9.177  16.128   1.857
 7384W        W71328   9.379  15.302   0.874
 7385W        W71329  42.998  13.618  10.572
 7386W        W71330  34.068   6.373   4.720
 7387W        W71331  31.477  13.248   4.196
 7388W        W71332   0.968  23.622  12.054
 7389W        W71333  42.502   0.894  12.577
 7390W        W71334  26.971  15.587  14.991
 7391W        W71335  18.773  15.099   2.207
 7392W        W71336  25.670   0.926  14.881
 7393W        W71337  21.117  16.726   3.380
 7394W        W71338  19.560  28.995  10.469
 7395W        W71339   6.423  30.956   1.278
 7396W        W71340  29.096  13.319   4.129
 7397W        W71341  44.298  26.111  14.357
 7398W        W71342  16.790  44.489  10.040
 7399W        W71343  40.894  44.505   2.333
 7400W        W71344  35.024  37.057   2.847
 7401W        W71345  39.062  37.463   0.828
 7402W        W71346  43.338  41.513   0.246
 7403W        W71347  36.538   5.305  13.360
 7404W        W71348  15.706  20.252   4.261
 7405W        W71349  23.113  30.956  14.925
 7406W        W71350  37.348  13.195   1.262
 7407W        W71351  42.866  35.066   1.842
 7408W        W71352   2.252  41.516  10.439
 7409W        W71353  18.209  33.483  13.934
 7410W        W71354  10.155  17.740  10.485
 7411W        W71355  43.829  37.524   4.116
 7412W        W71356  17.273  23.548  12.438
 7413W        W71357   9.235  40.427  10.426
 7414W        W71358  43.982  41.813   3.811
 7415W        W71359  30.947  31.996  13.042
 7416W        W71360  16.257  35.942  14.357
 7417W        W71361  19.164  38.457  10.516
 7418W        W71362  23.157  26.516  10.927
 7419W        W71363   6.262   4.729   0.359
 7420W        W71364  25.691   9.379  11.450
 7421W        W71365  33.000  18.726  10.975
 7422W        W71366  17.788   5.784   5.261
 7423W        W71367  26.050   7.197   3.718
 7424W        W71368  37.565   6.389   3.771
 7425W        W71369  32.068  32.421   0.793
 7426W        W71370  37.378  17.774  13.979
 7427W        W71371  16.258   9.273  10.611
 7428W        W71372  34.076  15.272  12.349
 7429W        W71373  39.002  34.879   1.930
 7430W        W71374   5.389  41.998   2.863
 7431W        W71375  35.045  40.481  14.334
 7432W        W71376  33.484  36.082   1.725
 7433W        W71377  32.445   7.202  13.919
 7434W        W71378  36.523  13.173   0.442
 7435W        W71379  33.936  18.079  13.404
 7436W        W71380  43.803  18.051   1.814
 7437W        W71381  24.717  30.495   2.670
 7438W        W71382  17.105   8.274  11.518
 7439W        W71383  19.225  15.313   3.865
 7440W        W71384   7.672  30.476  12.362
 7441W        W71385  34.411  25.504   4.308
 7442W        W71386  39.387  27.652  12.008
 7443W        W71387   2.365  23.230  10.580
 7444W        W71388   9.859  37.943  14.337
 7445W        W71389   4.449  10.156  14.382
 7446W        W71390  33.456  42.525   9.989
 7447W        W71391  10.249  17.255   0.936
 7448W        W71392  29.998   6.765   2.723
 7449W        W71393  29.640  14.337  11.583
 7450W        W71394   6.412  34.062  13.961
 7451W        W71395  43.495   1.377   4.353
 7452W        W71396  26.966   6.690  13.886
 7453W        W71397  42.965  19.542  11.593
 7454W        W71398  27.641  10.163   2.326
 7455W        W71399   3.432  20.622  13.993
 7456W        W71400  16.780  22.017   4.632
 7457W        W71401  13.835  43.006   1.929
 7458W        W71402  28.521  15.104  14.857
 7459W        W71403  38.370  15.815  11.877
 7460W        W71404  16.110  44.825   1.778
 7461W        W71405  39.390  24.002  14.421
 7462W        W71406  30.453  33.526  13.831
 7463W        W71407  17.752  23.587   0.930
 7464W        W71408  38.428  35.406  14.412
 7465W        W71409   4.730  35.855  11.507
 7466W        W71410  25.112  12.839   0.400
 7467W        W71411  27.098  38.875  12.992
 7468W        W71412  20.683  15.135   4.338
 7469W        W71413   4.738  18.605   4.675
 7470W        W71414   6.830  17.248  13.912
 7471W        W71415   4.343   0.494  12.988
 7472W        W71416  43.457   5.205   0.463
 7473W        W71417  20.067  21.134   1.412
 7474W        W71418  31.013  40.449   1.347
 7475W        W71419  31.606  14.135  11.475
 7476W        W71420  35.011  13.202  13.431
 7477W        W71421  40.020  14.612  13.377
 7478W        W71422  44.910  40.860   1.932
 7479W        W71423  20.734  24.693  10.079
 7480W        W71424  24.534  44.327  14.024
 7481W        W71425  21.038  26.619   1.830
 7482W        W71426  39.387  36.003   3.365
 7483W        W71427  28.536  30.934  10.941
 7484W        W71428   4.786  15.719  13.903
 7485W        W71429  15.178  10.826   1.759
 7486W        W71430  43.462  21.056   0.257
 7487W        W71431  29.506  21.686   4.663
 7488W        W71432  31.548  11.702  12.068
 7489W        W71433  30.125  25.143  14.824
 7490W        W71434  36.504  28.164   1.387
 7491W        W71435   4.771  35.474   3.375
 7492W        W71436   6.814  11.808  14.841
 7493W        W71437  17.740  36.960  14.370
 7494W        W71438  44.760  20.526   3.813
 7495W        W71439  28.164  33.124   3.673
 7496W        W71440  27.536  12.694   3.844
 7497W        W71441   8.403  42.478  14.845
 7498W        W71442  28.063   0.954  13.522
 7499W        W71443  23.618  22.672  12.579
 7500W        W71444  18.253  28.051   4.236
 7501W        W71445  30.651   3.770   0.888
 7502W        W71446  36.501  18.737  13.048
 7503W        W71447  19.588  28.465   4.806
 7504W        W71448  32.465  11.199  11.882
 7505W        W71449   7.709  17.145  14.890
 7506W        W71450  34.384  12.814   3.659
 7507W        W71451  32.399  20.071  10.969
 7508W        W71452  44.890  24.572  12.444
 7509W        W71453  43.902  13.281   3.672
 7510W        W71454   6.276  40.525  10.596
 7511W        W71455  11.233  42.392   0.851
 7512W        W71456  31.944  18.260   2.293
 7513W        W71457  13.687   4.383   9.532
 7514W        W71458  20.226  33.086   2.270
 7515W        W71459  15.214  24.210  13.802
 7516W        W71460  35.071  32.064  11.867
 7517W        W71461   7.262  37.398  14.891
 7518W        W71462  19.109  33.067   0.412
 7519W        W71463  42.347  25.586   0.281
 7520W        W71464  25.533  10.152   4.346
 7521W        W71465  38.458  24.534   1.856
 7522W        W71466  16.299   7.350   3.192
 7523W        W71467  10.751  34.963  12.387
 7524W        W71468  12.779   9.669  14.502
 7525W        W71469  34.044  41.788  12.964
 7526W        W71470  21.110   2.919   4.116
 7527W        W71471  42.959  40.870   2.271
 7528W        W71472  11.217   7.238  13.053
 7529W        W71473   5.217  40.946   4.666
 7530W        W71474  16.130  18.613  10.488
 7531W        W71475   4.252  44.975   2.811
 7532W        W71476   9.784  44.956  14.841
 7533W        W71477   7.235  14.687   0.331
 7534W        W71478  21.708  27.643  10.497
 7535W        W71479  42.778   2.834  14.888
 7536W        W71480  27.612   4.308  13.002
 7537W        W71481  29.465   2.932   0.905
 7538W        W71482  20.033  14.790   0.393
 7539W        W71483  17.627  18.645   4.805
 7540W        W71484  36.846  41.815   4.219
 7541W        W71485  37.078  11.648   3.741
 7542W        W71486  10.296  43.479  14.510
 7543W        W71487  29.993  40.453   0.458
 7544W        W71488  38.944  23.626   2.810
 7545W        W71489  17.599  17.094  12.020
 7546W        W71490   7.811   2.403   1.716
 7547W        W71491  36.508   8.253   3.166
 7548W        W71492  24.081  11.129  13.386
 7549W        W71493  38.027  31.145   2.337
 7550W        W71494  25.976  36.095  11.932
 7551W        W71495  30.165  27.506  13.510
 7552W        W71496  41.887   3.399  13.866
 7553W        W71497  11.806  39.955  14.308
 7554W        W71498  26.592  26.636  12.522
 7555W        W71499   6.322  16.585   3.843
 7556W        W71500  43.376  39.887   4.254
 7557W        W71501  21.174  30.931   0.274
 7558W        W71502  19.772  30.948   3.208
 7559W        W71503  13.634  18.098  11.518
 7560W        W71504  16.662  31.553  14.494
 7561W        W71505  16.072  17.729   0.756
 7562W        W71506  25.531  11.186  11.085
 7563W        W71507  16.301  10.150   1.791
 7564W        W71508  16.087  23.622  13.916
 7565W        W71509   2.789   3.732  12.501
 7566W        W71510   3.260  26.184  10.545
 7567W        W71511  20.537  37.077  13.884
 7568W        W71512  34.113  37.567  12.023
 7569W        W71513  21.082  24.171   3.225
 7570W        W71514   6.710  20.746   0.438
 7571W        W71515  37.406  15.253  12.569
 7572W        W71516  33.539  36.961   3.818
 7573W        W71517  16.680  22.191  14.821
 7574W        W71518  30.087  35.936  12.550
 7575W        W71519   3.445  31.100  11.864
 7576W        W71520  25.105  32.564   3.372
 7577W        W71521  21.045  44.915  11.103
 7578W        W71522  39.041  32.107  13.463
 7579W        W71523  30.435  32.472   0.350
 7580W        W71524  27.147  18.788   1.774
 7581W        W71525   5.698  26.139   3.199
 7582W        W71526   9.196  15.294  12.854
 7583W        W71527  14.280  40.999  10.495
 7584W        W71528   9.198  31.648   0.344
 7585W        W71529   4.348  37.996   2.243
 7586W        W71530  23.992   9.762   4.697
 7587W        W71531  33.975  30.947  14.848
 7588W        W71532   6.348  10.357   0.399
 7589W        W71533  28.068  38.528  14.956
 7590W        W71534  31.118   4.910  11.022
 7591W        W71535  24.121  24.638  12.363
 7592W        W71536  21.111  21.075  11.545
 7593W        W71537  37.529   0.911   3.780
 7594W        W71538  21.137  33.403  12.387
 7595W        W71539  39.909  19.178  13.334
 7596W        W71540  13.225  44.890  10.120
 7597W        W71541   0.880  17.087   3.768
 7598W        W71542  26.572   4.926  13.476
 7599W        W71543   9.176  10.314  11.598
 7600W        W71544  15.298  30.445  14.501
 7601W        W71545  23.087  18.620  14.906
 7602W        W71546   3.712   8.237   2.846
 7603W        W71547  36.911   4.779  10.036
 7604W        W71548  11.272  25.092   1.449
 7605W        W71549  27.154  43.505   2.816
 7606W        W71550  11.303  17.575   0.816
 7607W        W71551  36.350   3.926   5.711
 7608W        W71552   5.806  24.107  11.973
 7609W        W71553  41.454  19.077  10.625
 7610W        W71554  35.471  23.084  10.549
 7611W        W71555  10.659  16.173   3.249
 7612W        W71556  19.668  29.514   0.886
 7613W        W71557  32.623  41.329  13.819
 7614W        W71558  38.916   1.436  12.525
 7615W        W71559  26.150   8.867  13.461
 7616W        W71560   3.770  25.205   1.762
 7617W        W71561  16.292  26.473   3.661
 7618W        W71562   7.233  34.484  11.479
 7619W        W71563  17.787  32.518   4.697
 7620W        W71564  13.662  34.867   3.633
 7621W        W71565   3.830  31.614   2.810
 7622W        W71566  27.565  43.787   4.166
 7623W        W71567  11.180  39.333  11.058
 7624W        W71568  41.949  36.516  12.528
 7625W        W71569  17.271  21.623   2.694
 7626W        W71570  20.533  17.719   1.731
 7627W        W71571   3.717   2.410   3.629
 7628W        W71572  39.433  41.976   4.284
 7629W        W71573   7.396  29.089  14.372
 7630W        W71574  24.992  39.339   1.760
 7631W        W71575  17.801  11.211  10.423
 7632W        W71576   9.839  15.315   5.130
 7633W        W71577  27.097  27.496  11.599
 7634W        W71578  36.921  34.958  14.830
 7635W        W71579  20.719   8.714  13.818
 7636W        W71580  11.218  33.540  10.465
 7637W        W71581  43.863   7.248  12.347
 7638W        W71582  33.055  28.520  11.543
 7639W        W71583  37.340  18.111  10.084
 7640W        W71584  17.555  19.084  13.468
 7641W        W71585  38.501   3.917  13.967
 7642W        W71586  11.143  27.038  11.602
 7643W        W71587   7.688  33.938  14.922
 7644W        W71588  43.868   8.783  11.088
 7645W        W71589  39.909  11.269   4.603
 7646W        W71590  14.800   2.433   0.410
 7647W        W71591  35.537  20.265  11.912
 7648W        W71592  33.445  41.849   0.832
 7649W        W71593  35.880  31.079  12.405
 7650W        W71594   2.262  41.936  13.045
 7651W        W71595  33.455   6.351   0.874
 7652W        W71596  44.943   7.763   0.840
 7653W        W71597   9.230  41.324   2.217
 7654W        W71598  17.618   7.773   3.761
 7655W        W71599  20.233  36.498  10.892
 7656W        W71600  29.158  31.140   3.734
 7657W        W71601  14.634  16.156  11.519
 7658W        W71602  42.981  33.588   3.381
 7659W        W71603  17.556  38.857   2.328
 7660W        W71604  21.081  40.365  11.554
 7661W        W71605  11.272  12.284  10.935
 7662W        W71606  28.440  30.492   2.315
 7663W        W71607  26.048  40.896  12.346
 7664W        W71608  24.641  36.007   3.248
 7665W        W71609  25.482   8.364  13.958
 7666W        W71610   6.801   0.253  11.603
 7667W        W71611  11.323  30.161   1.308
 7668W        W71612  19.162  38.935  11.075
 7669W        W71613   3.743  11.215  11.543
 7670W        W71614  16.707  18.058  14.470
 7671W        W71615  44.982  10.735   1.832
 7672W        W71616  17.715  23.186  11.007
 7673W        W71617  21.231  15.241  11.087
 7674W        W71618  11.359  26.683  11.536
 7675W        W71619   6.343  39.847   1.860
 7676W        W71620  12.692  40.913   4.169
 7677W        W71621  11.642   9.228   0.924
 7678W        W71622  38.462   4.294  13.024
 7679W        W71623  22.602  33.533   1.290
 7680W        W71624   8.769  29.055   2.394
 7681W        W71625  31.082  24.155  11.903
 7682W        W71626  13.189  32.529  10.478
 7683W        W71627  34.966  10.224  13.026
 7684W        W71628  33.092  37.454  14.502
 7685W        W71629   3.907  43.357  13.960
 7686W        W71630  35.921  13.770  10.442
 7687W        W71631  10.772  30.423  11.461
 7688W        W71632  27.083  23.135  14.472
 7689W        W71633  12.233   4.274   1.795
 7690W        W71634  20.125  14.733  11.128
 7691W        W71635  25.177  17.643   4.797
 7692W        W71636   7.794  41.503   0.844
 7693W        W71637  18.616   3.773   2.903
 7694W        W71638   8.668   0.275   3.668
 7695W        W71639  44.343   0.396  10.630
 7696W        W71640   4.275   9.872  14.899
 7697W        W71641   6.804  32.038   5.127
 7698W        W71642   7.406  21.610  12.345
 7699W        W71643  38.477  41.440   3.807
 7700W        W71644  33.497  40.858  14.926
 7701W        W71645  19.676   6.318  14.425
 7702W        W71646  14.717  10.846  11.087
 7703W        W71647  14.596  32.942  11.876
 7704W        W71648  11.739  27.187  10.071
 7705W        W71649   8.351  17.608  13.976
 7706W        W71650  19.733   2.924  11.953
 7707W        W71651  25.488  26.652   1.698
 7708W        W71652   7.848  26.992  11.021
 7709W        W71653  25.618  11.772  10.131
 7710W        W71654  19.661  21.722  13.997
 7711W        W71655  27.569   9.351   3.306
 7712W        W71656  21.093  25.974   2.724
 7713W        W71657  41.308  33.060   2.269
 7714W        W71658   2.726  32.892  14.973
 7715W        W71659   9.686   5.888  10.537
 7716W        W71660  38.981  28.626   2.315
 7717W        W71661  34.053  16.275   4.135
 7718W        W71662  43.363  32.501   1.906
 7719W        W71663  34.490   4.220  12.911
 7720W        W71664  24.529  36.444  14.990
 7721W        W71665  44.984   8.164  11.114
 7722W        W71666  36.908   4.755  13.433
 7723W        W71667  29.035  15.615   0.440
 7724W        W71668  17.729  31.997   2.203
 7725W        W71669  16.690  28.492  13.950
 7726W        W71670  31.515  23.729   0.321
 7727W        W71671   6.230   7.907  14.841
 7728W        W71672  43.786  16.147   0.465
 7729W        W71673  34.384  10.793   3.656
 7730W        W71674  25.573   8.655   5.088
 7731W        W71675  10.207  18.214  14.397
 7732W        W71676  37.500  21.609   3.734
 7733W        W71677  39.417  16.112  14.311
 7734W        W71678  44.891  42.868  12.865
 7735W        W71679  11.707   7.902  10.904
 7736W        W71680  10.337  24.151  11.045
 7737W        W71681   5.243  20.227  12.406
 7738W        W71682  19.240  11.744  13.807
 7739W        W71683  31.482   5.361  13.353
 7740W        W71684   2.927  24.094   2.888
 7741W        W71685  27.141  23.995   1.786
 7742W        W71686  22.105   9.353  12.437
 7743W        W71687  24.568  36.003   4.667
 7744W        W71688  26.636   1.307   3.384
 7745W        W71689  15.265  14.758   2.762
 7746W        W71690  33.122  10.850   1.267
 7747W        W71691  33.967  38.058  13.056
 7748W        W71692  13.316  18.169   2.208
 7749W        W71693  33.611  39.537   0.258
 7750W        W71694  36.512  38.501  10.994
 7751W        W71695  35.910  26.148   1.793
 7752W        W71696  43.340  16.631   4.187
 7753W        W71697  30.945  25.562   3.239
 7754W        W71698  42.398   4.837  14.344
 7755W        W71699   1.831  37.039   2.805
 7756W        W71700  24.673  24.612   3.212
 7757W        W71701  26.488  34.416   1.834
 7758W        W71702  14.210   1.385  12.029
 7759W        W71703  14.167  11.164  11.075
 7760W        W71704  18.192  24.539   2.890
 7761W        W71705  12.306  41.482   2.339
 7762W        W71706  12.281  27.457   1.700
 7763W        W71707  31.917  20.524  10.134
 7764W        W71708  17.709  25.185  14.289
 7765W        W71709  20.082  13.786  11.048
 7766W        W71710  32.122   0.318   2.671
 7767W        W71711   7.867  26.018   0.860
 7768W        W71712  37.860  41.970   3.646
 7769W        W71713  24.093   5.861  12.048
 7770W        W71714   2.882   0.305  10.949
 7771W        W71715  42.841  36.860   0.853
 7772W        W71716   0.412  25.097  13.496
 7773W        W71717   1.437  34.872  13.486
 7774W        W71718  30.143   8.896   4.348
 7775W        W71719   5.918  38.474   4.675
 7776W        W71720  38.386  20.161   3.765
 7777W        W71721   0.439  25.070  10.942
 7778W        W71722  44.990  12.226   0.766
 7779W        W71723  26.478   7.180  13.311
 7780W        W71724  23.540  35.371   2.698
 7781W        W71725   2.804  30.443   2.378
 7782W        W71726   8.292  33.581   3.733
 7783W        W71727  14.176  32.578  13.401
 7784W        W71728  43.412  32.098  11.506
 7785W        W71729  19.655  26.491   2.889
 7786W        W71730   8.886   6.795  14.801
 7787W        W71731   1.731  17.671   1.431
 7788W        W71732  10.176  29.151  12.835
 7789W        W71733  12.812  14.690  14.918
 7790W        W71734  40.314   9.741   4.728
 7791W        W71735  18.222  37.377  13.892
 7792W        W71736  36.578  44.002   2.215
 7793W        W71737  30.037  42.345  13.033
 7794W        W71738  28.516  39.380   1.450
 7795W        W71739  23.217  38.456  12.496
 7796W        W71740  34.941  41.994   4.137
 7797W        W71741  22.503  36.366  13.534
 7798W        W71742  25.203  29.462  11.547
 7799W        W71743  14.267  27.529  12.941
 7800W        W71744  34.460   3.345  14.364
 7801W        W71745   1.902  31.592  10.910
 7802W        W71746  26.553   1.431  11.036
 7803W        W71747   4.370  26.624   4.811
 7804W        W71748  13.343  26.015   0.392
 7805W        W71749   3.824  13.344  11.025
 7806W        W71750  39.519  10.786   4.123
 7807W        W71751  12.823   2.883   5.672
 7808W        W71752  13.290  10.370  13.436
 7809W        W71753  30.032  13.736   0.768
 7810W        W71754   6.857  38.073   2.236
 7811W        W71755   9.380  40.999   2.901
 7812W        W71756  28.487  39.882   3.670
 7813W        W71757  11.261  22.096   3.753
 7814W        W71758  14.274  13.770  13.355
 7815W        W71759  24.084  23.216  12.529
 7816W        W71760  28.562  14.745  12.941
 7817W        W71761   1.310  21.567   1.807
 7818W        W71762  44.425   6.812   3.750
 7819W        W71763  25.121  26.152   1.823
 7820W        W71764  14.810  43.005  10.409
 7821W        W71765   1.369  41.380   0.884
 7822W        W71766  20.229   0.435  14.905
 7823W        W71767  30.488   5.270  11.489
 7824W        W71768  20.707  38.475   0.292
 7825W        W71769  27.143  17.763  12.927
 7826W        W71770   5.432  42.031  11.934
 7827W        W71771   5.357  18.545  14.764
 7828W        W71772  10.350  21.043   1.727
 7829W        W71773  20.046  27.011  11.449
 7830W        W71774  23.726  33.600   4.351
 7831W        W71775  37.360  28.646  13.487
 7832W        W71776  25.681  43.878  12.473
 7833W        W71777  31.461  35.568  13.471
 7834W        W71778  21.581  39.442   1.903
 7835W        W71779  17.663  35.544  12.424
 7836W        W71780  39.417   6.686   4.326
 7837W        W71781  37.032  10.260   3.812
 7838W        W71782  22.511  27.129   1.399
 7839W        W71783  18.692  15.133   1.252
 7840W        W71784  34.393  12.150   4.331
 7841W        W71785  21.611  43.357   4.773
 7842W        W71786   0.411  14.719   2.309
 7843W        W71787  27.501  33.523  10.536
 7844W        W71788  34.103  44.902   2.414
 7845W        W71789  34.109  38.334  10.541
 7846W        W71790  13.260  36.911   0.448
 7847W        W71791  31.461  31.926   1.885
 7848W        W71792  18.571   6.745  14.442
 7849W        W71793  31.409  40.351  14.932
 7850W        W71794  28.500  11.290   1.920
 7851W        W71795  26.166  21.679   0.781
 7852W        W71796  13.264  38.455  13.942
 7853W        W71797  44.920  41.995  11.019
 7854W        W71798  31.569  44.355  12.939
 7855W        W71799  43.833  24.975  12.869
 7856W        W71800  30.434  30.142  11.921
 7857W        W71801   2.274  42.009  12.036
 7858W        W71802   2.351  15.329   2.776
 7859W        W71803  16.076  35.517   4.117
 7860W        W71804  13.685  44.981   1.857
 7861W        W71805  36.456   9.320   1.296
 7862W        W71806  18.134  10.357   3.779
 7863W        W71807  44.351  21.757  12.438
 7864W        W71808  34.599  37.895   1.700
 7865W        W71809  36.043  36.985   4.321
 7866W        W71810  37.959  31.606   4.290
 7867W        W71811  33.948   9.812  11.427
 7868W        W71812  40.809  14.321  14.873
 7869W        W71813  11.664  43.866  13.830
 7870W        W71814   0.344  23.666  13.978
 7871W        W71815   7.870  20.568   3.776
 7872W        W71816  40.898  44.321  11.428
 7873W        W71817  18.610  27.139  12.558
 7874W        W71818   1.752   6.793   1.900
 7875W        W71819  26.980  44.284   3.159
 7876W        W71820  42.925  40.408  14.968
 7877W        W71821   2.866  32.936  11.016
 7878W        W71822   3.894  44.399   2.832
 7879W        W71823  30.499  42.871  12.838
 7880W        W71824  12.278  14.714   1.805
 7881W        W71825  35.884   5.435   2.827
 7882W        W71826  24.603  44.778   3.192
 7883W        W71827  15.295  26.588   3.758
 7884W        W71828   0.787  35.101  10.536
 7885W        W71829  28.467  31.622  12.862
 7886W        W71830  27.122   8.251  11.469
 7887W        W71831   5.885   2.356   2.780
 7888W        W71832  31.418  28.020  12.362
 7889W        W71833  17.563  15.782  14.759
 7890W        W71834  19.755  15.216  13.311
 7891W        W71835  29.028  26.485   1.780
 7892W        W71836  15.636  20.241   1.397
 7893W        W71837  27.623  44.905  12.573
 7894W        W71838   6.686  32.916   2.351
 7895W        W71839  18.129   2.862   2.286
 7896W        W71840  42.932  29.631   5.206
 7897W        W71841   1.742  16.073  12.344
 7898W        W71842  26.671  40.498  14.375
 7899W        W71843  34.401  37.832   4.325
 7900W        W71844   2.366   8.240  10.499
 7901W        W71845  24.689  31.083   0.800
 7902W        W71846  18.621  17.179   5.239
 7903W        W71847  26.648  11.242  13.482
 7904W        W71848  24.188  29.056  10.608
 7905W        W71849   5.769  29.617   0.446
 7906W        W71850  22.085  39.049   1.223
 7907W        W71851  19.082  17.742   0.357
 7908W        W71852  34.072   2.325  11.878
 7909W        W71853  35.097  17.746  14.801
 7910W        W71854  18.258  10.370  13.972
 7911W        W71855  12.747   1.775   3.758
 7912W        W71856   8.684  22.673   1.287
 7913W        W71857  15.735  37.023   2.800
 7914W        W71858   9.643  25.116  10.887
 7915W        W71859  25.660  14.809  11.959
 7916W        W71860  38.029   5.747   3.806
 7917W        W71861  44.861   5.889  11.406
 7918W        W71862   7.803  44.820   2.311
 7919W        W71863   9.208  40.521  12.515
 7920W        W71864  23.732  10.723   4.627
 7921W        W71865  30.157   2.301   0.465
 7922W        W71866  29.561  29.507  14.437
 7923W        W71867  20.574  16.782  11.913
 7924W        W71868  30.005  10.688   2.271
 7925W        W71869  25.508  36.521   0.837
 7926W        W71870   7.373  37.505  13.477
 7927W        W71871  27.531  41.404  13.968
 7928W        W71872  37.969   7.206   2.179
 7929W        W71873  17.164  19.234   4.246
 7930W        W71874  30.153  18.053  14.952
 7931W        W71875  40.323  37.848  10.926
 7932W        W71876  24.554  36.899  13.532
 7933W        W71877  16.260  15.106  12.833
 7934W        W71878  10.707  13.764  13.004
 7935W        W71879  42.321   1.952  11.896
 7936W        W71880  20.274  18.566   0.887
 7937W        W71881  38.341  33.605   4.797
 7938W        W71882  16.741  30.442  12.919
 7939W        W71883   8.806  42.968  10.469
 7940W        W71884  12.266   0.345  12.947
 7941W        W71885  30.924  30.936  10.462
 7942W        W71886   7.823  34.407  13.327
 7943W        W71887  27.551   4.238   4.709
 7944W        W71888  44.341  21.034   0.859
 7945W        W71889  33.963  28.947   4.767
 7946W        W71890  24.645  15.256   4.782
 7947W        W71891  37.456  10.825   4.125
 7948W        W71892   5.217  12.795   1.376
 7949W        W71893  29.494   9.839  13.871
 7950W        W71894   9.784  11.866   2.382
 7951W        W71895   8.177  15.328   0.323
 7952W        W71896  30.642  40.956  10.073
 7953W        W71897  35.570  14.254  10.951
 7954W        W71898   4.703  42.896   4.714
 7955W        W71899  30.005  20.210   2.768
 7956W        W71900  34.422   5.851   4.708
 7957W        W71901  10.680  35.935  12.400
 7958W        W71902  21.197  38.390  13.989
 7959W        W71903  41.902   6.854  12.033
 7960W        W71904  20.165  29.114  10.600
 7961W        W71905  32.447  18.551  11.411
 7962W        W71906  20.042  10.654  11.497
 7963W        W71907  33.515  20.116  10.442
 7964W        W71908  17.757  22.136   3.199
 7965W        W71909  12.286  16.284  13.343
 7966W        W71910   4.292  22.516  11.563
 7967W        W71911   7.673  23.519  14.841
 7968W        W71912   4.239  21.634  13.514
 7969W        W71913  29.652  36.380   4.613
 7970W        W71914  41.511  44.480   3.787
 7971W        W71915  21.078  23.711  10.912
 7972W        W71916  22.105  19.040  10.492
 7973W        W71917  26.633  40.873  13.454
 7974W        W71918  25.150  30.015  10.895
 7975W        W71919  28.534  16.228   1.839
 7976W        W71920  19.082  36.385   1.847
 7977W        W71921  41.415  25.021   2.859
 7978W        W71922  33.897   4.914  11.971
 7979W        W71923   8.401  19.706  14.003
 7980W        W71924  29.482   1.444  11.919
 7981W        W71925  42.500  31.002  13.993
 7982W        W71926  32.415  39.893  11.016
 7983W        W71927  25.493   0.301  11.981
 7984W        W71928  31.637  39.530  10.594
 7985W        W71929  24.221  35.082  10.937
 7986W        W71930   5.876  26.535  10.528
 7987W        W71931  30.462  11.697   2.193
 7988W        W71932  35.099  34.453  13.891
 7989W        W71933   2.761  44.938   4.332
 7990W        W71934  39.473   4.207  11.503
 7991W        W71935  12.158  28.503  13.352
 7992W        W71936  30.638  21.576   1.929
 7993W        W71937  13.270  13.284  12.932
 7994W        W71938   2.370  20.633  12.976
 7995W        W71939  33.113  29.104  10.919
 7996W        W71940  36.364   0.915   4.607
 7997W        W71941  16.641  12.361   0.795
 7998W        W71942   6.764  41.505   3.267
 7999W        W71943  14.281  36.980  12.540
 8000W        W71944  29.526  30.642   3.212
 8001W        W71945  31.139  26.067   1.747
 8002W        W71946  41.381  29.972   4.244
 8003W        W71947  33.622  34.870  12.918
 8004W        W71948  10.870  27.107   5.797
 8005W        W71949  43.894  19.621  10.451
 8006W        W71950   7.225  39.458  13.792
 8007W        W71951  23.059  26.179  10.557
 8008W        W71952  32.899   1.422   4.231
 8009W        W71953  18.203  18.617  11.872
 8010W        W71954  41.826   6.401  14.897
 8011W        W71955  44.453  15.663  11.418
 8012W        W71956   9.674  32.615  14.922
 8013W        W71957   9.648   2.835   1.933
 8014W        W71958  29.067  10.240   3.751
 8015W        W71959  20.742  12.237  11.530
 8016W        W71960  23.562  40.387   3.734
 8017W        W71961  44.372  17.633   3.629
 8018W        W71962  21.052  31.597  13.961
 8019W        W71963  19.211  11.243  13.417
 8020W        W71964  41.998  10.271   4.788
 8021W        W71965  37.456  20.200  13.939
 8022W        W71966   1.901  41.974  13.356
 8023W        W71967  39.031  10.195   3.648
 8024W        W71968  24.200  32.605   4.320
 8025W        W71969  21.694   6.382  14.414
 8026W        W71970  27.586   8.198   0.464
 8027W        W71971  16.726  19.578  12.565
 8028W        W71972   8.177   3.460  12.347
 8029W        W71973  22.051  11.723   2.846
 8030W        W71974  39.466   4.239   4.255
 8031W        W71975   7.277  13.743   1.817
 8032W        W71976  18.135  13.630  14.919
 8033W        W71977  27.685  24.190   0.355
 8034W        W71978  44.420  21.068  11.565
 8035W        W71979  17.676   6.206  10.414
 8036W        W71980  30.070  27.484   1.776
 8037W        W71981  22.720   1.929   0.944
 8038W        W71982   4.313   4.853  13.894
 8039W        W71983   1.237  27.658   4.759
 8040W        W71984  15.158  18.117   3.865
 8041W        W71985  41.497  26.965   1.342
 8042W        W71986  20.630  36.964  11.892
 8043W        W71987  23.721  43.889   4.246
 8044W        W71988   7.237   8.798   2.208
 8045W        W71989  11.194  30.986   2.690
 8046W        W71990  11.280  30.626  10.626
 8047W        W71991  30.617  16.618   0.457
 8048W        W71992  41.344  14.695   4.803
 8049W        W71993   9.294  26.479   4.722
 8050W        W71994   9.185  23.078  11.579
 8051W        W71995  23.499  15.763  11.472
 8052W        W71996  27.162  43.273   0.315
 8053W        W71997  32.407  18.226  10.995
 8054W        W71998  43.356   9.221   1.866
 8055W        W71999  35.006  29.084  13.794
 8056W        W72000  38.976  20.247   0.886
 8057W        W72001  29.958  14.218   4.699
 8058W        W72002  14.320  41.497   2.875
 8059W        W72003  15.166   1.737   5.084
 8060W        W72004  24.169  26.029   4.294
 8061W        W72005  33.037   2.432   2.275
 8062W        W72006  11.127  19.742  14.826
 8063W        W72007  34.607  22.067  12.868
 8064W        W72008  41.836  16.158  13.963
 8065W        W72009  40.501  25.160  13.965
 8066W        W72010  40.419  23.152  14.357
 8067W        W72011  35.890  42.523   4.722
 8068W        W72012  33.534   9.202  10.468
 8069W        W72013  17.243  25.647   1.906
 8070W        W72014  39.037  23.190  13.323
 8071W        W72015  20.759  23.671  10.448
 8072W        W72016  26.060  11.355  13.951
 8073W        W72017  30.084   2.321   1.285
 8074W        W72018  17.686  30.146  10.506
 8075W        W72019   4.936  19.635  10.548
 8076W        W72020  21.516  44.954  11.057
 8077W        W72021  29.954   2.790   2.210
 8078W        W72022  23.675  36.560   1.356
 8079W        W72023  37.015  32.402  11.433
 8080W        W72024  19.698  42.292  13.379
 8081W        W72025   3.236  14.835   1.422
 8082W        W72026  10.666  13.644   0.924
 8083W        W72027   3.749  13.192   3.300
 8084W        W72028  37.467  22.166   9.957
 8085W        W72029  11.661  43.307   1.264
 8086W        W72030  26.082  28.640   1.348
 8087W        W72031  26.089  11.159   0.852
 8088W        W72032  43.349  44.836  11.532
 8089W        W72033  12.332   6.277  10.897
 8090W        W72034  34.074  13.261  14.512
 8091W        W72035   6.366  25.013   0.464
 8092W        W72036  26.499  26.676   1.880
 8093W        W72037  35.406  26.621   1.709
 8094W        W72038  23.094  31.403  14.374
 8095W        W72039   4.929  23.732   2.360
 8096W        W72040  17.157  11.175  13.051
 8097W        W72041  25.678  16.708   1.252
 8098W        W72042  12.768  17.587   4.775
 8099W        W72043  16.618  17.703   0.962
 8100W        W72044  20.095  24.624   4.653
 8101W        W72045  42.515   2.300  13.387
 8102W        W72046  28.139  18.251  11.092
 8103W        W72047   3.869  31.420  10.498
 8104W        W72048   5.273  20.681   4.293
 8105W        W72049   7.866  10.666   2.744
 8106W        W72050   9.366   1.844   3.253
 8107W        W72051  43.990   1.335  13.006
 8108W        W72052   9.693   6.739  11.098
 8109W        W72053  40.851   8.700  11.495
 8110W        W72054  34.906  22.600   2.377
 8111W        W72055   0.325  43.907   2.722
 8112W        W72056  18.685  34.552   3.783
 8113W        W72057  19.647   4.336  11.573
 8114W        W72058  34.045  16.631  14.006
 8115W        W72059  26.558   3.315  12.544
 8116W        W72060  42.794  44.441   3.843
 8117W        W72061  43.425  11.742   3.218
 8118W        W72062   9.341  40.883  10.513
 8119W        W72063  30.143   1.779   0.306
 8120W        W72064  33.475  19.579   1.354
 8121W        W72065  25.013   7.348   2.758
 8122W        W72066   3.944  18.785  10.983
 8123W        W72067   6.694   0.969   2.896
 8124W        W72068  33.573   6.327  13.462
 8125W        W72069   3.836  26.540   4.741
 8126W        W72070  41.372   2.312  11.910
 8127W        W72071   0.301  15.286   3.301
 8128W        W72072  22.219  24.634  12.508
 8129W        W72073   0.449  17.269   3.245
 8130W        W72074  42.883  32.958   3.148
 8131W        W72075  11.146  44.009   3.355
 8132W        W72076  31.497  33.903  14.974
 8133W        W72077  26.151  31.917   0.732
 8134W        W72078   7.890  33.943  10.932
 8135W        W72079  25.141  37.946   2.710
 8136W        W72080  40.957  37.882   4.125
 8137W        W72081  30.025   4.407  13.912
 8138W        W72082  18.734  17.305  11.057
 8139W        W72083   2.740  26.986   0.409
 8140W        W72084  29.954  34.509   1.910
 8141W        W72085  11.285  31.102  10.029
 8142W        W72086  11.130  43.769   1.294
 8143W        W72087   4.401   1.836  12.387
 8144W        W72088  37.402  17.700  10.561
 8145W        W72089  39.843  16.087  14.486
 8146W        W72090  16.794   1.289  13.855
 8147W        W72091  36.532  14.162   4.739
 8148W        W72092  39.003   5.702  10.889
 8149W        W72093  26.149  30.067  10.946
 8150W        W72094   2.889  41.922   3.378
 8151W        W72095   2.395  38.025   1.307
 8152W        W72096  24.553   0.343  13.470
 8153W        W72097  16.571  40.915   4.766
 8154W        W72098  23.020  42.997  12.862
 8155W        W72099  33.477  11.654  14.783
 8156W        W72100   8.820   1.751  14.958
 8157W        W72101  18.685  21.558   5.601
 8158W        W72102  17.118   4.320   3.664
 8159W        W72103  10.758  43.357  11.431
 8160W        W72104  18.737  32.112   2.795
 8161W        W72105  17.280  31.626  14.973
 8162W        W72106  24.160   6.289  11.500
 8163W        W72107   4.351   9.651   2.805
 8164W        W72108   4.433   5.810   1.721
 8165W        W72109  31.636  21.585  12.486
 8166W        W72110   1.864  22.709   2.772
 8167W        W72111  35.098   2.461  12.958
 8168W        W72112  41.804  16.583   0.277
 8169W        W72113  17.680  25.538  13.342
 8170W        W72114  29.628  18.126  11.512
 8171W        W72115  27.180  13.295   3.359
 8172W        W72116  16.709  20.045   1.739
 8173W        W72117  43.408  12.288   2.705
 8174W        W72118  41.391  25.665   0.776
 8175W        W72119  14.222  35.593  10.597
 8176W        W72120  32.554  36.069  13.795
 8177W        W72121  24.599  15.215   2.677
 8178W        W72122  26.068  15.657   2.772
 8179W        W72123  21.019  10.289  12.947
 8180W        W72124  38.351  20.171  12.483
 8181W        W72125   6.743  42.797  14.799
 8182W        W72126  26.143  22.236   4.314
 8183W        W72127  27.529   4.205  12.438
 8184W        W72128   6.259   1.784  10.598
 8185W        W72129  17.183  38.898   9.975
 8186W        W72130   3.768   5.339   0.329
 8187W        W72131  37.442  20.541  13.467
 8188W        W72132  39.058  18.662   3.341
 8189W        W72133   1.757   3.377   3.857
 8190W        W72134  25.083   1.299   1.744
 8191W        W72135   5.763   7.244  13.053
 8192W        W72136  21.091  28.068   2.285
 8193W        W72137   6.854  15.685   4.826
 8194W        W72138  18.050  17.615   0.887
 8195W        W72139  32.993  17.286   2.205
 8196W        W72140   2.342  17.598   3.724
 8197W        W72141  27.072  37.455  14.923
 8198W        W72142  30.105  24.165  14.514
 8199W        W72143  29.920   8.743  13.000
 8200W        W72144  32.070   7.385  13.411
 8201W        W72145   5.198  34.028   3.208
 8202W        W72146   2.376  12.132  12.523
 8203W        W72147  11.164  30.160   5.259
 8204W        W72148  29.069  19.587   4.222
 8205W        W72149  30.960  40.962   4.693
 8206W        W72150  42.839  20.526  11.925
 8207W        W72151   7.279  22.508   4.133
 8208W        W72152  30.150  37.990  10.556
 8209W        W72153  24.586  32.123  10.556
 8210W        W72154  12.281   4.924  11.522
 8211W        W72155  13.790  11.820  10.449
 8212W        W72156  32.390  23.629  11.392
 8213W        W72157  33.026   5.770  11.544
 8214W        W72158  42.978  38.054  10.553
 8215W        W72159   6.251  24.196  12.465
 8216W        W72160  20.206   0.469  12.367
 8217W        W72161  35.456  31.014   2.711
 8218W        W72162  40.846  10.841   1.719
 8219W        W72163   9.679   4.852  12.429
 8220W        W72164  26.653  18.735   0.344
 8221W        W72165  33.086  31.024  14.512
 8222W        W72166  19.069   3.793  11.902
 8223W        W72167  39.519  39.887  14.974
 8224W        W72168  41.808  38.998  14.853
 8225W        W72169  10.672   6.813   4.225
 8226W        W72170  11.704  27.574  13.936
 8227W        W72171  20.542  34.494   1.395
 8228W        W72172  22.079  10.355   4.713
 8229W        W72173  24.976  36.487  11.377
 8230W        W72174   3.947  14.808  13.969
 8231W        W72175  28.617  16.139  11.607
 8232W        W72176   3.239  27.659  13.962
 8233W        W72177  21.639  38.867  10.069
 8234W        W72178  13.178  27.123   1.363
 8235W        W72179  20.111   4.204   3.371
 8236W        W72180  11.223  38.021   4.221
 8237W        W72181  34.101  40.814   0.396
 8238W        W72182   4.383  44.861  13.426
 8239W        W72183  36.460  19.221  14.954
 8240W        W72184   7.860   8.807  12.016
 8241W        W72185   7.402   7.202   4.337
 8242W        W72186  17.745  28.572   4.771
 8243W        W72187  13.614  33.585   3.262
 8244W        W72188  17.711  39.364  14.510
 8245W        W72189  43.342  10.823   3.211
 8246W        W72190  23.128  27.176  12.541
 8247W        W72191  32.132   8.719  10.984
 8248W        W72192  19.085  42.973  10.896
 8249W        W72193  36.449   2.460  11.073
 8250W        W72194  30.610  39.992   2.360
 8251W        W72195  28.134  16.229   2.790
 8252W        W72196  38.825  36.066   5.100
 8253W        W72197  24.642   9.228  13.997
 8254W        W72198  32.513  28.974  11.945
 8255W        W72199  26.136  34.567   0.279
 8256W        W72200   6.758  36.908   1.815
 8257W        W72201  18.751  37.394  13.401
 8258W        W72202  11.295  29.993  12.864
 8259W        W72203  39.511  19.233  12.085
 8260W        W72204  29.614  41.855  13.815
 8261W        W72205  10.792  15.758   2.386
 8262W        W72206  33.921  15.292   4.221
 8263W        W72207  13.836   1.266  12.491
 8264W        W72208  13.720  22.509  10.604
 8265W        W72209   7.869  41.466   5.091
 8266W        W72210  40.969   6.278   5.228
 8267W        W72211  40.014  35.107   0.483
 8268W        W72212   0.412   3.942   1.265
 8269W        W72213  26.963   2.421   1.883
 8270W        W72214   4.934   4.319  11.395
 8271W        W72215   5.835  28.030  14.917
 8272W        W72216  33.610   3.276   1.797
 8273W        W72217  26.669  18.187  10.492
 8274W        W72218  22.632  32.392   0.447
 8275W        W72219  32.100  16.197  13.421
 8276W        W72220  17.599  43.984  14.511
 8277W        W72221  22.739  38.912   3.869
 8278W        W72222  31.422  36.860   1.236
 8279W        W72223  16.251  37.443   4.165
 8280W        W72224  27.060  24.620  14.293
 8281W        W72225  10.145   4.755  11.527
 8282W        W72226  30.552  30.980  11.890
 8283W        W72227  24.013  15.127  10.608
 8284W        W72228   5.857  17.563  12.032
 8285W        W72229  26.599  11.802  13.406
 8286W        W72230   7.253   7.351  13.024
 8287W        W72231   9.220  13.305   2.189
 8288W        W72232   8.164   0.847  12.823
 8289W        W72233  27.548   9.857  14.468
 8290W        W72234  35.895  22.126  11.400
 8291W        W72235  38.049   6.852  10.590
 8292W        W72236  36.375  29.039  12.415
 8293W        W72237  22.710  12.279  13.001
 8294W        W72238  37.840  31.417   0.934
 8295W        W72239   6.830  31.135  10.617
 8296W        W72240  23.985  14.297  13.307
 8297W        W72241  35.915  44.962   1.362
 8298W        W72242  17.686  39.964  10.916
 8299W        W72243  39.313  16.289  12.990
 8300W        W72244  14.205  40.355  10.999
 8301W        W72245   7.215  22.672   3.634
 8302W        W72246  44.901   9.731  14.452
 8303W        W72247  17.746  10.688   4.333
 8304W        W72248  32.442  43.846  14.810
 8305W        W72249  21.690  42.420   0.469
 8306W        W72250  43.779  14.800   4.659
 8307W        W72251  15.654  31.439   3.260
 8308W        W72252  41.986  40.517   1.406
 8309W        W72253   5.369  39.954   0.743
 8310W        W72254  33.072  14.112   2.236
 8311W        W72255  33.490  18.731   3.645
 8312W        W72256  36.482  14.747  11.371
 8313W        W72257  22.181  20.540   0.787
 8314W        W72258   7.382  10.174   2.303
 8315W        W72259  10.328  41.949   3.345
 8316W        W72260   9.256  39.462   1.384
 8317W        W72261  21.243  37.031  13.918
 8318W        W72262  16.615  31.940   1.902
 8319W        W72263   1.755  15.328   0.299
 8320W        W72264  39.322   0.869  13.516
 8321W        W72265  31.092  32.615   2.720
 8322W        W72266  20.102  31.519  11.891
 8323W        W72267   6.920  18.111   1.371
 8324W        W72268   1.735  35.957   4.664
 8325W        W72269  28.546  42.432   1.225
 8326W        W72270  44.984  39.029   2.207
 8327W        W72271  23.606  21.724  13.491
 8328W        W72272  27.668  29.991  10.491
 8329W        W72273  32.109  33.002  10.606
 8330W        W72274  43.380  36.881   3.234
 8331W        W72275   6.237  38.954  11.462
 8332W        W72276  41.453  25.568   2.798
 8333W        W72277  42.345  32.446  13.314
 8334W        W72278  28.473   4.212  13.863
 8335W        W72279  19.636  43.861  12.057
 8336W        W72280  31.990  19.220   3.673
 8337W        W72281   4.367  27.619   3.791
 8338W        W72282  27.052  20.265  13.938
 8339W        W72283   6.300  43.843  12.039
 8340W        W72284   4.222  43.838   1.928
 8341W        W72285   8.710  41.437  10.919
 8342W        W72286  30.049  26.101  11.938
 8343W        W72287  28.957  19.172  11.379
 8344W        W72288  27.457  32.578   2.203
 8345W        W72289   2.250  16.709   3.275
 8346W        W72290  34.490   2.842  14.399
 8347W        W72291  26.624   4.208   1.829
 8348W        W72292   2.889  41.997   1.231
 8349W        W72293  44.867  30.075   4.746
 8350W        W72294  19.767  40.029   3.181
 8351W        W72295  16.620  26.531   3.630
 8352W        W72296  35.069  20.535   0.895
 8353W        W72297  18.173  15.698  13.436
 8354W        W72298  12.237  10.838  13.519
 8355W        W72299  22.043  27.999   4.189
 8356W        W72300  18.225  20.683   1.770
 8357W        W72301  13.121  25.187  12.402
 8358W        W72302   4.844  27.092  12.459
 8359W        W72303  29.568   1.816  13.395
 8360W        W72304  25.578  31.031  12.416
 8361W        W72305  40.485  17.677   0.256
 8362W        W72306  31.111   0.865   1.333
 8363W        W72307  10.650  24.989   0.813
 8364W        W72308  17.691  25.506   1.304
 8365W        W72309   9.661  10.656   3.730
 8366W        W72310  42.025  33.620   1.261
 8367W        W72311   0.361  13.803  11.596
 8368W        W72312  21.094  28.167  14.761
 8369W        W72313  26.622   2.359  14.307
 8370W        W72314  32.551  21.664   1.371
 8371W        W72315  22.238  31.648   4.206
 8372W        W72316  28.128  21.559  13.346
 8373W        W72317  15.721  42.299   3.750
 8374W        W72318  10.219   4.944  13.039
 8375W        W72319  37.361  40.319   0.797
 8376W        W72320  30.113   8.749  10.934
 8377W        W72321   7.213  23.651  10.463
 8378W        W72322  36.449  15.252   1.292
 8379W        W72323  23.056  21.545   4.228
 8380W        W72324  16.675  22.716  10.929
 8381W        W72325  21.649  21.261   0.902
 8382W        W72326  29.950   0.486  11.921
 8383W        W72327  10.813  42.349   4.744
 8384W        W72328  27.642   7.272  13.812
 8385W        W72329  40.834  26.047  13.511
 8386W        W72330  25.559   2.829   2.895
 8387W        W72331  13.749   8.334  13.010
 8388W        W72332  36.351   9.311  12.949
 8389W        W72333   8.323  11.838  12.496
 8390W        W72334   5.809  14.706   1.222
 8391W        W72335  30.457  20.611   0.852
 8392W        W72336  44.502  17.601  14.302
 8393W        W72337  21.593  13.238   2.815
 8394W        W72338  40.544  41.028  14.957
 8395W        W72339  24.595  40.006  14.762
 8396W        W72340  39.828  41.033   0.945
 8397W        W72341  27.665  15.312   4.165
 8398W        W72342  42.388   7.784  14.775
 8399W        W72343  22.180  40.826   2.353
 8400W        W72344  24.524  16.124   1.328
 8401W        W72345  44.796   8.398   4.171
 8402W        W72346  37.040  15.215  12.539
 8403W        W72347  38.887  37.471   1.342
 8404W        W72348   0.909  16.715  14.988
 8405W        W72349  39.972   1.921  12.455
 8406W        W72350  31.054  21.747   0.740
 8407W        W72351  23.143  37.573  11.927
 8408W        W72352  26.043  36.982  12.521
 8409W        W72353  34.022  13.228  12.929
 8410W        W72354   5.319   2.879  11.052
 8411W        W72355  36.072  16.108   2.384
 8412W        W72356  38.407  34.081  13.515
 8413W        W72357  12.802  29.170   2.820
 8414W        W72358  32.631   1.251  12.555
 8415W        W72359   6.310  30.994   3.844
 8416W        W72360  26.085  29.656  11.513
 8417W        W72361  42.401  16.293  12.560
 8418W        W72362  19.679  27.127  11.101
 8419W        W72363  34.054   0.324  11.501
 8420W        W72364   0.834  26.577   1.340
 8421W        W72365  22.205  39.552   3.146
 8422W        W72366  16.128  37.560   3.235
 8423W        W72367   5.364  34.538   1.834
 8424W        W72368  30.146  17.707   3.693
 8425W        W72369  34.543  24.635  11.052
 8426W        W72370  41.810  37.894  13.937
 8427W        W72371  10.644  10.269  12.445
 8428W        W72372  14.301  31.949  13.326
 8429W        W72373  12.235  13.827  11.382
 8430W        W72374   6.701  22.576  11.984
 8431W        W72375  29.493  23.061  13.436
 8432W        W72376   4.801  17.143   3.719
 8433W        W72377   4.764   8.727   2.231
 8434W        W72378  23.123  36.891  14.855
 8435W        W72379  18.249  15.585  13.839
 8436W        W72380   1.291  37.981  11.075
 8437W        W72381  27.121  29.589  13.883
 8438W        W72382  25.117  37.459   0.829
 8439W        W72383   4.330  19.080  13.846
 8440W        W72384  30.507  25.095   1.284
 8441W        W72385  12.150  18.666   3.690
 8442W        W72386  33.508  11.753   0.420
 8443W        W72387   0.313  10.277  10.479
 8444W        W72388  19.744  14.772  14.359
 8445W        W72389   1.859  20.536  12.372
 8446W        W72390   8.297  16.284   1.709
 8447W        W72391  36.002   8.744   1.253
 8448W        W72392  33.072   3.782   4.671
 8449W        W72393  18.214  42.339  14.786
 8450W        W72394  20.663  28.003  12.929
 8451W        W72395   8.693  11.799  13.894
 8452W        W72396  42.840  19.539  11.123
 8453W        W72397  12.309  35.998  11.490
 8454W        W72398   4.868  35.000   0.928
 8455W        W72399  31.988   9.850   4.658
 8456W        W72400  28.052  25.189  13.420
 8457W        W72401  37.552  25.190  10.549
 8458W        W72402  25.134  39.424  14.397
 8459W        W72403  13.290  34.397  10.512
 8460W        W72404  25.497  28.938   2.392
 8461W        W72405  14.752  11.806  10.501
 8462W        W72406  12.799  24.702  10.888
 8463W        W72407  24.194  36.051  11.996
 8464W        W72408  33.017  34.982  10.411
 8465W        W72409   2.377  27.569   0.739
 8466W        W72410   3.421  16.103  14.489
 8467W        W72411  31.419   2.929   0.335
 8468W        W72412   6.848  27.984   3.203
 8469W        W72413  35.010  38.406  11.384
 8470W        W72414  33.968  37.550   1.261
 8471W        W72415  16.609  21.627   1.220
 8472W        W72416  40.040  31.535  10.954
 8473W        W72417   1.958   2.894  14.988
 8474W        W72418   7.901  10.268   1.292
 8475W        W72419  40.333  34.945   3.209
 8476W        W72420  20.158  33.506   3.255
 8477W        W72421   4.748  44.446   1.284
 8478W        W72422  31.645  16.599   9.579
 8479W        W72423   3.871   5.281  14.878
 8480W        W72424  35.539  33.525   3.816
 8481W        W72425  11.740  35.424   1.848
 8482W        W72426  13.730  19.562   4.255
 8483W        W72427  27.948  32.615   2.816
 8484W        W72428  16.251  23.597   1.751
 8485W        W72429  15.202  20.138   4.138
 8486W        W72430   5.884  30.651   3.315
 8487W        W72431  40.853  37.499  10.641
 8488W        W72432  26.666  21.575  14.413
 8489W        W72433  37.063  16.787   2.212
 8490W        W72434  27.515  32.069  11.412
 8491W        W72435  24.685  30.096  10.464
 8492W        W72436  39.324  12.826  12.874
 8493W        W72437   1.266  29.955   0.360
 8494W        W72438  39.878   2.873   1.261
 8495W        W72439  22.626  12.738   4.165
 8496W        W72440   9.675  37.539   1.796
 8497W        W72441  16.146  35.509  12.527
 8498W        W72442  15.150   9.650  13.471
 8499W        W72443  30.976  38.900  13.947
 8500W        W72444  27.526  31.061   3.168
 8501W        W72445  42.385  37.009  14.279
 8502W        W72446   7.744  32.596  10.511
 8503W        W72447  14.816  37.414  14.860
 8504W        W72448  27.125  40.915  11.475
 8505W        W72449  11.798  21.180  13.347
 8506W        W72450  39.902  36.076   1.743
 8507W        W72451  27.179   7.189  11.573
 8508W        W72452   2.255  17.727  10.468
 8509W        W72453  14.616  12.711   0.252
 8510W        W72454  34.984  36.977  11.603
 8511W        W72455  41.445  14.710   3.242
 8512W        W72456  30.032  30.153  14.847
 8513W        W72457  42.789  20.034  14.905
 8514W        W72458  17.781  22.706   0.881
 8515W        W72459  42.301  23.054  14.415
 8516W        W72460   2.855  30.052  11.100
 8517W        W72461  44.325  14.741   0.376
 8518W        W72462   7.221  19.541  11.129
 8519W        W72463  44.885   5.895  12.997
 8520W        W72464   2.412  36.566  13.457
 8521W        W72465  40.938  42.444   4.709
 8522W        W72466  17.254  18.183   4.797
 8523W        W72467  30.137  13.777  14.437
 8524W        W72468  43.337   4.766  11.911
 8525W        W72469   5.227  27.518   3.869
 8526W        W72470  27.989   4.844  13.035
 8527W        W72471  41.019  36.475  12.884
 8528W        W72472  24.009  41.341   5.293
 8529W        W72473   7.278  40.866  12.407
 8530W        W72474   5.263  12.209   0.355
 8531W        W72475   4.875  35.073  14.020
 8532W        W72476   8.858  39.411   4.619
 8533W        W72477  10.798   8.894   4.791
 8534W        W72478  36.374  15.246   4.117
 8535W        W72479  36.087  10.380  12.385
 8536W        W72480  19.602  16.270   2.239
 8537W        W72481   0.444  26.677  11.898
 8538W        W72482  24.542   8.364   3.858
 8539W        W72483  33.960  43.435  13.824
 8540W        W72484  10.308  32.463   3.670
 8541W        W72485   8.215  42.294   2.288
 8542W        W72486  13.193  34.524   1.297
 8543W        W72487  39.518  28.573  14.462
 8544W        W72488  39.064   5.867  13.540
 8545W        W72489  33.897  23.522  11.861
 8546W        W72490  13.299  34.409   4.165
 8547W        W72491  19.243  26.029   4.189
 8548W        W72492   2.958  21.196   0.828
 8549W        W72493  41.936  29.452  11.471
 8550W        W72494  25.217  16.636   5.128
 8551W        W72495  43.796  36.375   2.331
 8552W        W72496  31.520  12.845   3.226
 8553W        W72497  32.548  13.217  10.564
 8554W        W72498   3.253  19.746  12.842
 8555W        W72499   9.267  15.184   3.333
 8556W        W72500  40.455   9.682  10.900
 8557W        W72501  29.425  32.088   3.855
 8558W        W72502   5.813  43.426  14.305
 8559W        W72503  39.041  35.519  14.877
 8560W        W72504   1.821  19.040  13.833
 8561W        W72505   5.892   4.722  13.352
 8562W        W72506  10.733   6.312  14.858
 8563W        W72507  22.170  41.332  12.854
 8564W        W72508  15.602   2.440  13.339
 8565W        W72509  24.659   1.261  13.314
 8566W        W72510   8.807  35.454  13.831
 8567W        W72511   0.921  22.013   4.176
 8568W        W72512  36.432  12.354  10.507
 8569W        W72513   6.701  22.627  14.987
 8570W        W72514  28.549  11.362   4.631
 8571W        W72515  26.536  27.557  13.875
 8572W        W72516  18.757  25.020   5.750
 8573W        W72517  25.087  13.184  13.458
 8574W        W72518  40.892  14.733  11.968
 8575W        W72519   0.816  36.080  12.443
 8576W        W72520  10.776  25.029  14.022
 8577W        W72521  22.113  36.356  14.284
 8578W        W72522  15.714  12.816  11.450
 8579W        W72523   3.737  13.842   1.449
 8580W        W72524  27.634  31.492  11.373
 8581W        W72525   2.316  25.149   1.302
 8582W        W72526   8.300   8.719  13.482
 8583W        W72527   9.702  42.007  14.469
 8584W        W72528  27.659  16.645   2.400
 8585W        W72529  44.340  27.631   4.810
 8586W        W72530  25.501  33.079   2.283
 8587W        W72531  14.599  31.966   5.214
 8588W        W72532  34.892  33.887   1.331
 8589W        W72533  35.584   7.417  14.294
 8590W        W72534  44.478  12.856  14.443
 8591W        W72535  28.090  37.915  11.450
 8592W        W72536  38.059  28.649   4.230
 8593W        W72537  25.064  39.395   0.738
 8594W        W72538  32.893  10.354  11.553
 8595W        W72539  31.616  32.980   4.329
 8596W        W72540  23.590   3.921   2.390
 8597W        W72541  21.196  18.651  10.507
 8598W        W72542  37.077  39.990   4.670
 8599W        W72543  22.173   3.742   0.914
 8600W        W72544  32.977   2.899   1.383
 8601W        W72545   1.483   0.436   0.866
 8602W        W72546  28.933  11.692  14.435
 8603W        W72547  38.985  22.083   1.260
 8604W        W72548   6.751  19.649   0.270
 8605W        W72549  13.640  31.411   4.816
 8606W        W72550  24.485  11.263  13.982
 8607W        W72551  33.936  39.962  10.422
 8608W        W72552  22.525  34.388  12.867
 8609W        W72553  33.560  35.949  10.517
 8610W        W72554   9.271  17.085   2.871
 8611W        W72555  42.900  18.627   0.356
 8612W        W72556  42.312  29.174  14.789
 8613W        W72557  13.748  22.104   1.412
 8614W        W72558  21.031  36.428  13.347
 8615W        W72559  37.574  18.241  13.407
 8616W        W72560  19.234  32.588  12.459
 8617W        W72561  41.036  39.857   0.774
 8618W        W72562  41.446   0.850  11.598
 8619W        W72563  23.623  16.706  12.081
 8620W        W72564  44.799   6.196  10.547
 8621W        W72565   8.797  15.226   3.185
 8622W        W72566   4.714  38.465  13.823
 8623W        W72567  17.243   2.844  10.564
 8624W        W72568  30.113  30.954  10.633
 8625W        W72569  30.047   6.412  12.380
 8626W        W72570  11.371  27.019  13.022
 8627W        W72571  16.792  32.535   5.692
 8628W        W72572  10.769   5.266   2.222
 8629W        W72573   3.835  15.303  14.011
 8630W        W72574  16.122  20.250  12.895
 8631W        W72575   7.887  38.371   2.335
 8632W        W72576  16.220  24.515  13.473
 8633W        W72577   0.806  35.042   1.234
 8634W        W72578  28.674   7.907  13.491
 8635W        W72579   3.368  16.759   3.853
 8636W        W72580   5.273  17.205   1.304
 8637W        W72581  25.202  36.515   3.300
 8638W        W72582  30.587   2.785   1.751
 8639W        W72583  32.600  15.755   2.382
 8640W        W72584   5.391  28.509   4.649
 8641W        W72585   4.815  34.000   4.672
 8642W        W72586  17.240  19.210  10.910
 8643W        W72587  12.124  37.911  13.974
 8644W        W72588  41.521  17.091   1.335
 8645W        W72589  21.225  24.230  12.427
 8646W        W72590  12.187  24.196  12.406
 8647W        W72591  34.974  10.207   3.708
 8648W        W72592  35.999  42.478   2.368
 8649W        W72593  36.018  16.078   0.937
 8650W        W72594  29.510  20.082  13.911
 8651W        W72595  31.033  12.614   0.316
 8652W        W72596  42.429  27.168  10.581
 8653W        W72597   0.863  26.575   3.708
 8654W        W72598  21.111   2.364  13.822
 8655W        W72599  12.717  40.548  10.512
 8656W        W72600  41.961  34.503  11.992
 8657W        W72601   6.385   0.384  11.007
 8658W        W72602   9.184   7.812   2.794
 8659W        W72603  39.552  18.652   2.305
 8660W        W72604  39.465  14.754   2.417
 8661W        W72605  16.630  35.991   3.842
 8662W        W72606  13.675  18.590  11.504
 8663W        W72607   9.367  36.957   3.332
 8664W        W72608  36.996  43.886  12.857
 8665W        W72609  42.782  36.351  13.040
 8666W        W72610  41.836  22.587   5.092
 8667W        W72611  39.326   9.246   2.674
 8668W        W72612  30.052  10.192   0.878
 8669W        W72613  12.729   3.220  14.450
 8670W        W72614  14.296   9.354  13.508
 8671W        W72615  12.212  24.199  11.894
 8672W        W72616   3.798  23.147   3.800
 8673W        W72617  13.283   5.416  11.069
 8674W        W72618  12.668  10.360  13.987
 8675W        W72619  18.707  27.068  12.969
 8676W        W72620  18.163   1.376  11.056
 8677W        W72621  30.040   5.721  13.796
 8678W        W72622  34.575  13.649   3.672
 8679W        W72623  41.799   7.226   4.687
 8680W        W72624   0.463  10.363  12.354
 8681W        W72625   9.835   3.847  11.580
 8682W        W72626  38.438   3.903   4.263
 8683W        W72627   3.356  16.288   3.847
 8684W        W72628   7.388  29.060   4.208
 8685W        W72629  11.152  31.020   0.829
 8686W        W72630  14.755  38.051   3.196
 8687W        W72631   5.295  41.296   4.267
 8688W        W72632  13.837  23.223  13.345
 8689W        W72633  10.722  25.469  11.073
 8690W        W72634   4.724  40.868  10.948
 8691W        W72635  12.262  17.660  13.986
 8692W        W72636   3.755  23.189  10.411
 8693W        W72637  39.021   4.790  12.041
 8694W        W72638  34.899  21.108   2.759
 8695W        W72639  13.761  23.688  10.454
 8696W        W72640   4.300  16.768   0.915
 8697W        W72641  21.055   1.946   4.619
 8698W        W72642   6.771  24.017   4.224
 8699W        W72643   2.388  39.385   4.195
 8700W        W72644  11.843  27.130  12.856
 8701W        W72645  27.648   3.796  11.032
 8702W        W72646  43.779  38.566   3.704
 8703W        W72647  22.088  33.876   3.367
 8704W        W72648  21.528  28.041   3.694
 8705W        W72649  43.982   1.337  11.510
 8706W        W72650  27.566  24.182  12.948
 8707W        W72651  24.620  39.387   3.631
 8708W        W72652  36.970   4.449   0.965
 8709W        W72653   6.842  41.017   4.635
 8710W        W72654  18.753  23.578  11.062
 8711W        W72655  34.064  38.927   1.827
 8712W        W72656   7.749  40.500   4.231
 8713W        W72657  35.572  25.636  13.053
 8714W        W72658  11.325  25.039  12.969
 8715W        W72659   1.957  21.147  10.958
 8716W        W72660  18.166  18.587   3.366
 8717W        W72661  16.636  40.481   2.343
 8718W        W72662  43.894   4.747   2.820
 8719W        W72663  28.636   6.268   0.946
 8720W        W72664  24.140  22.693   2.390
 8721W        W72665   1.883   0.820   0.813
 8722W        W72666  42.416  11.336  13.986
 8723W        W72667  10.839  36.395  12.083
 8724W        W72668  34.898   8.404   3.215
 8725W        W72669   1.272  34.392   0.847
 8726W        W72670  20.117  40.516  13.851
 8727W        W72671  16.079  13.214   0.902
 8728W        W72672  15.776   3.845   0.807
 8729W        W72673   5.406  30.029   0.309
 8730W        W72674   9.189   3.271   1.766
 8731W        W72675  14.752  42.426   0.398
 8732W        W72676  25.631  36.942  13.889
 8733W        W72677  37.385  20.651   1.249
 8734W        W72678  25.554  25.066  11.997
 8735W        W72679  41.824  35.483  11.891
 8736W        W72680  27.959  41.016  11.962
 8737W        W72681  37.961  16.166  14.402
 8738W        W72682  11.630  30.567  10.110
 8739W        W72683  37.887  12.838  13.381
 8740W        W72684  33.031  18.758   1.843
 8741W        W72685   1.272  23.236  14.483
 8742W        W72686   0.901  20.114   0.753
 8743W        W72687  25.987   1.902   2.228
 8744W        W72688  33.010  16.735  14.023
 8745W        W72689  10.232  14.655  13.532
 8746W        W72690   1.317  18.150  14.957
 8747W        W72691  14.755  28.088   1.836
 8748W        W72692  15.316  12.243   3.787
 8749W        W72693  32.487  36.488   1.746
 8750W        W72694   3.833  30.920  12.066
 8751W        W72695  13.204  18.071  11.123
 8752W        W72696   3.802  21.131   3.756
 8753W        W72697   7.399   4.392  13.831
 8754W        W72698   7.673   9.339  14.359
 8755W        W72699  32.394   5.351  14.023
 8756W        W72700  43.816  20.042   4.230
 8757W        W72701  12.625  11.232   4.820
 8758W        W72702  20.738   4.393  12.003
 8759W        W72703  17.796   3.343  11.485
 8760W        W72704   3.940  31.995  11.091
 8761W        W72705   4.943  15.685   0.316
 8762W        W72706  10.744  22.713   2.737
 8763W        W72707  25.984   6.804   2.716
 8764W        W72708   2.390   3.842   1.400
 8765W        W72709  17.207   8.666  14.350
 8766W        W72710  38.845  29.926   1.425
 8767W        W72711  34.594  39.521   2.800
 8768W        W72712  34.891  27.541   4.803
 8769W        W72713   1.860  18.571  14.793
 8770W        W72714  12.125  12.179  12.084
 8771W        W72715   2.387  15.095   1.305
 8772W        W72716  11.278  19.169   1.852
 8773W        W72717  18.264  10.775   2.726
 8774W        W72718  21.548  35.453  13.399
 8775W        W72719  28.468  30.032   0.834
 8776W        W72720  43.021  17.670  12.470
 8777W        W72721   2.411   8.735   0.379
 8778W        W72722  16.661  19.619   3.316
 8779W        W72723  42.845  29.124   4.154
 8780W        W72724  13.769  13.257  10.501
 8781W        W72725   2.312  29.995  12.040
 8782W        W72726  42.461   7.328  14.446
 8783W        W72727  14.771   4.849   2.694
 8784W        W72728  28.483   5.281  13.886
 8785W        W72729  44.811  23.039  10.508
 8786W        W72730  15.119  23.219   4.229
 8787W        W72731   5.439  22.137   3.267
 8788W        W72732  33.597  43.395  14.792
 8789W        W72733  14.104  34.117  13.012
 8790W        W72734  44.983  11.128   3.261
 8791W        W72735   4.361   7.881   1.703
 8792W        W72736   6.849  25.605   3.717
 8793W        W72737  10.157   9.800   4.134
 8794W        W72738  44.455  21.106  14.300
 8795W        W72739  22.673  42.969   4.239
 8796W        W72740  10.785  34.424  13.919
 8797W        W72741  17.695  42.799   1.311
 8798W        W72742  42.001   9.259   0.957
 8799W        W72743   8.334  16.266   3.845
 8800W        W72744  26.191  21.604  11.422
 8801W        W72745  23.515  40.342   4.615
 8802W        W72746  12.856   3.784   2.185
 8803W        W72747   5.332  26.611   0.908
 8804W        W72748  28.678  29.613   2.807
 8805W        W72749  35.943  39.347  14.972
 8806W        W72750  44.856  13.188   0.870
 8807W        W72751  23.121   5.746  12.887
 8808W        W72752  34.566   6.192  14.928
 8809W        W72753  26.523  21.527  14.821
 8810W        W72754  10.380  44.968  14.419
 8811W        W72755  31.049  21.205   3.686
 8812W        W72756  24.643   1.749   1.737
 8813W        W72757  40.328  38.452   0.967
 8814W        W72758   5.702  12.303  14.798
 8815W        W72759  17.780  26.550  11.507
 8816W        W72760   2.353  33.514  12.370
 8817W        W72761  16.763  14.178   0.393
 8818W        W72762  42.383  32.885   0.878
 8819W        W72763  41.506  14.215   0.762
 8820W        W72764   7.905  10.867   1.255
 8821W        W72765  21.246  40.935  11.920
 8822W        W72766  10.336  34.972  11.867
 8823W        W72767   3.847  40.401  12.542
 8824W        W72768   9.377   1.896   3.821
 8825W        W72769  44.278  15.277   0.322
 8826W        W72770  15.806   3.415   5.306
 8827W        W72771  23.491   1.802   4.745
 8828W        W72772  33.429   3.828   1.236
 8829W        W72773   0.786  34.031  13.950
 8830W        W72774  11.764   1.845  13.925
 8831W        W72775  11.759  38.063   2.716
 8832W        W72776   2.287  42.963  12.997
 8833W        W72777  37.383  19.552  14.845
 8834W        W72778  44.932  11.677  13.859
 8835W        W72779  43.787  43.779  14.287
 8836W        W72780  39.420   7.198   2.748
 8837W        W72781   3.390   0.748   5.161
 8838W        W72782  27.041   4.241   4.231
 8839W        W72783   2.255   9.795  12.078
 8840W        W72784  31.957  37.011   4.602
 8841W        W72785  44.827  18.239   2.218
 8842W        W72786  11.863  22.220   0.398
 8843W        W72787  43.372  34.867  11.435
 8844W        W72788  12.302   8.834   2.230
 8845W        W72789  38.505  29.537  14.829
 8846W        W72790   9.817  19.644   1.829
 8847W        W72791   0.821  27.512   3.153
 8848W        W72792  12.119  13.271  12.404
 8849W        W72793  34.999  11.865   5.209
 8850W        W72794  34.600   6.678  14.308
 8851W        W72795  15.667   0.851   4.719
 8852W        W72796  18.072  32.511   9.596
 8853W        W72797   1.454  38.897  13.921
 8854W        W72798   6.886  39.826   1.354
 8855W        W72799   0.937  43.804   3.339
 8856W        W72800   2.246  27.167   3.227
 8857W        W72801  19.643  22.501  11.867
 8858W        W72802   7.892  34.944   3.331
 8859W        W72803  23.491   6.356   1.713
 8860W        W72804  18.221   2.429   0.384
 8861W        W72805  12.338  18.594   2.358
 8862W        W72806  19.176  37.511   1.767
 8863W        W72807  18.271  34.582   0.764
 8864W        W72808   5.884  13.743  11.014
 8865W        W72809   0.818  11.702  14.512
 8866W        W72810  26.205  16.266   2.873
 8867W        W72811  28.540   9.367  13.531
 8868W        W72812  11.690  10.257   3.310
 8869W        W72813  39.467   0.412   1.353
 8870W        W72814  33.131  40.960  11.017
 8871W        W72815  12.172  15.802  13.881
 8872W        W72816  40.998   8.191   0.895
 8873W        W72817  20.610   0.291   3.336
 8874W        W72818  17.595  44.918  14.331
 8875W        W72819  20.095  13.676  13.449
 8876W        W72820   3.810  20.251  13.433
 8877W        W72821  33.451  26.641   0.739
 8878W        W72822  38.875  15.618  11.947
 8879W        W72823  33.412  35.521   1.865
 8880W        W72824  40.522  25.656   1.296
 8881W        W72825  14.114  42.482   1.733
 8882W        W72826  40.382   5.393  12.034
 8883W        W72827  11.697  41.976   2.903
 8884W        W72828  26.103  21.578   2.713
 8885W        W72829   1.343  19.761   4.803
 8886W        W72830  15.810  40.516  11.556
 8887W        W72831   1.264  27.064   3.227
 8888W        W72832  38.415  42.471  11.932
 8889W        W72833  22.674  36.024   3.265
 8890W        W72834  30.506  16.599  10.931
 8891W        W72835  20.579  21.753   4.328
 8892W        W72836   5.349   0.326  14.295
 8893W        W72837  27.515  22.717   3.248
 8894W        W72838   1.939  17.134  10.967
 8895W        W72839  10.367  11.800  14.917
 8896W        W72840  25.598   6.419   2.831
 8897W        W72841   7.301   7.775  10.568
 8898W        W72842   7.277   9.390  10.611
 8899W        W72843  29.057  34.433  11.869
 8900W        W72844  15.226   8.705  12.527
 8901W        W72845  20.051  28.090   1.347
 8902W        W72846  18.221  18.137  14.845
 8903W        W72847   7.808  24.085   0.801
 8904W        W72848  34.553  35.466   3.275
 8905W        W72849  35.974   8.784   0.252
 8906W        W72850  32.958  31.105   3.857
 8907W        W72851   3.870  20.157  12.960
 8908W        W72852  13.731  33.906  14.011
 8909W        W72853  31.977  41.323   2.342
 8910W        W72854  44.783  38.476   0.903
 8911W        W72855  15.632  25.205  13.949
 8912W        W72856   7.357   8.814  11.071
 8913W        W72857  42.298  35.374  12.960
 8914W        W72858  40.421  39.410  12.377
 8915W        W72859  17.187  13.718  14.846
 8916W        W72860  41.920  44.480   0.243
 8917W        W72861  28.636  15.228   4.724
 8918W        W72862  32.417   6.752   3.277
 8919W        W72863  40.395  15.215   1.776
 8920W        W72864  10.230  35.480   0.344
 8921W        W72865   4.734  11.147   0.829
 8922W        W72866   6.420   4.928   5.292
 8923W        W72867  12.160   9.182   2.241
 8924W        W72868  40.495   1.757   1.213
 8925W        W72869   9.253  37.414   0.375
 8926W        W72870   0.895  20.052   1.316
 8927W        W72871  20.239   6.255   3.321
 8928W        W72872  40.027  15.792   0.432
 8929W        W72873  13.734  21.516   3.247
 8930W        W72874  17.095   9.830   4.677
 8931W        W72875   0.407  28.129  12.374
 8932W        W72876  32.969  14.296   0.268
 8933W        W72877  25.468  19.746   3.796
 8934W        W72878  31.994  43.859  13.033
 8935W        W72879  44.905  41.032  14.966
 8936W        W72880  30.479  12.167  10.596
 8937W        W72881  27.065  10.673  12.396
 8938W        W72882  44.901  43.405  12.508
 8939W        W72883  35.874   1.963   0.915
 8940W        W72884  34.565  32.484   1.238
 8941W        W72885  42.980  12.139  11.482
 8942W        W72886  43.847  22.244   2.698
 8943W        W72887  28.452  40.932   1.226
 8944W        W72888  27.507  13.778  13.460
 8945W        W72889  11.172   1.401   1.210
 8946W        W72890  42.389  40.454  11.989
 8947W        W72891  14.598  20.673  10.584
 8948W        W72892  29.924  28.130  13.506
 8949W        W72893  32.465  32.562   3.816
 8950W        W72894   6.200  42.848  14.510
 8951W        W72895   7.744  11.748   4.350
 8952W        W72896  36.377  39.440   4.831
 8953W        W72897  38.430  39.844   0.297
 8954W        W72898   5.787  39.948   2.294
 8955W        W72899  26.625   3.716  11.916
 8956W        W72900  36.975   1.826   1.275
 8957W        W72901  39.553  17.682  10.431
 8958W        W72902  40.846  38.979   4.188
 8959W        W72903  44.773  44.449  12.027
 8960W        W72904   1.243  19.552   2.207
 8961W        W72905  34.924  44.477   1.787
 8962W        W72906  13.273  37.869  10.461
 8963W        W72907  42.502   5.403   2.664
 8964W        W72908  34.597  11.270   2.868
 8965W        W72909  19.098  20.246  11.010
 8966W        W72910  34.005  39.888   4.770
 8967W        W72911  18.609  17.283   1.292
 8968W        W72912   0.330   6.291   4.734
 8969W        W72913  20.081   3.274   3.783
 8970W        W72914  30.624  29.486   4.675
 8971W        W72915   8.859   9.805  10.631
 8972W        W72916  25.037   9.736  12.889
 8973W        W72917  43.909  27.169   0.867
 8974W        W72918   8.291  22.055  10.496
 8975W        W72919  43.001  29.952   3.358
 8976W        W72920   8.169   3.936  11.513
 8977W        W72921   4.285  31.009   0.935
 8978W        W72922   6.785  24.194  13.038
 8979W        W72923   5.342   9.371   2.220
 8980W        W72924  34.028  22.215  13.339
 8981W        W72925   0.879  25.076   4.311
 8982W        W72926  13.211  39.377   2.341
 8983W        W72927  25.581  38.970  10.598
 8984W        W72928   0.492  43.302   4.160
 8985W        W72929  10.360  13.752   4.307
 8986W        W72930  19.045  34.972   3.679
 8987W        W72931  23.192  10.349  11.512
 8988W        W72932  31.484  33.499   1.443
 8989W        W72933   5.275  34.936   1.761
 8990W        W72934  17.077  11.181   3.304
 8991W        W72935  41.455  21.019  14.998
 8992W        W72936  32.096  42.342  10.909
 8993W        W72937  32.058   6.813   3.745
 8994W        W72938  30.516  15.726   4.802
 8995W        W72939  40.996  25.972  11.098
 8996W        W72940  20.087  16.077  12.892
 8997W        W72941   4.939  35.603  13.458
 8998W        W72942  33.606  13.613   1.324
 8999W        W72943  41.370  31.532  13.321
 9000W        W72944   4.760   1.330  14.447
 9001W        W72945  34.392  28.177   0.789
 9002W        W72946  34.900  28.585   3.682
 9003W        W72947  31.933  37.544   0.250
 9004W        W72948   1.311   9.828  12.825
 9005W        W72949  21.636  28.670  10.550
 9006W        W72950  13.799  35.465   1.826
 9007W        W72951  33.946  28.172   0.731
 9008W        W72952  41.438  25.014   4.221
 9009W        W72953  12.625  15.116   4.303
 9010W        W72954   4.425  24.623   4.753
 9011W        W72955  38.967  40.862  14.885
 9012W        W72956  30.116   4.289   0.757
 9013W        W72957  44.269  10.822  13.872
 9014W        W72958  29.638  42.859   3.212
 9015W        W72959  21.221  12.297  10.950
 9016W        W72960  38.041  43.814  10.513
 9017W        W72961  19.762  31.532  10.645
 9018W        W72962  28.635  44.462  13.836
 9019W        W72963  24.719  36.911   4.835
 9020W        W72964  24.065   4.204   0.736
 9021W        W72965  17.660  14.625   2.334
 9022W        W72966  25.632  39.447   3.765
 9023W        W72967  18.576  20.620   3.711
 9024W        W72968  19.043   8.362  12.516
 9025W        W72969  21.119  28.990  13.010
 9026W        W72970   9.155  25.215   0.434
 9027W        W72971  34.543  24.657   1.276
 9028W        W72972  31.597  43.877   1.842
 9029W        W72973   0.960   5.199  10.433
 9030W        W72974  32.053   3.887   1.885
 9031W        W72975   2.259   4.843  11.530
 9032W        W72976  27.683  23.559   0.340
 9033W        W72977  15.615  35.906  12.354
 9034W        W72978   7.394  38.569  12.484
 9035W        W72979  16.123  30.646  13.983
 9036W        W72980  21.117   0.922   3.741
 9037W        W72981  22.999  44.927   2.409
 9038W        W72982  42.865   1.370  11.860
 9039W        W72983  44.899   7.889  14.432
 9040W        W72984  38.539  11.140   4.726
 9041W        W72985  16.722  27.452   0.362
 9042W        W72986   8.753  30.931   0.771
 9043W        W72987  12.185   0.816   2.781
 9044W        W72988  12.130   8.805  13.538
 9045W        W72989  38.869  35.380  12.899
 9046W        W72990  19.574  17.596  14.992
 9047W        W72991  27.508  28.067   2.319
 9048W        W72992   9.655   6.902  11.883
 9049W        W72993   6.792  22.161  12.437
 9050W        W72994  25.171  27.556  14.760
 9051W        W72995  25.538  33.892  11.450
 9052W        W72996  34.485   1.831  10.560
 9053W        W72997  28.055  29.008  14.029
 9054W        W72998  44.338   4.868   3.190
 9055W        W72999  15.794  16.704   4.200
 9056W        W73000   0.468  30.474  14.420
 9057W        W73001   6.426  15.119   2.696
 9058W        W73002  44.011  36.042  13.875
 9059W        W73003  32.034  27.182   3.857
 9060W        W73004  40.340   0.386  14.992
 9061W        W73005   3.437   8.198  10.630
 9062W        W73006  24.577  10.317   2.901
 9063W        W73007  26.519  22.076  10.644
 9064W        W73008  32.923  13.194  11.864
 9065W        W73009  35.464  26.027  12.924
 9066W        W73010   7.684  15.243   3.329
 9067W        W73011  26.057  39.826  12.864
 9068W        W73012  21.595   2.790   2.315
 9069W        W73013  37.368   0.323   4.712
 9070W        W73014   2.233  19.734   1.237
 9071W        W73015  19.079  43.809  11.997
 9072W        W73016  38.436  36.392  12.060
 9073W        W73017  13.846  20.223  14.812
 9074W        W73018  10.677  32.131  10.624
 9075W        W73019   3.410  13.318  14.844
 9076W        W73020  23.496   0.264   1.338
 9077W        W73021  44.356   0.471   2.365
 9078W        W73022  36.407  28.047  12.880
 9079W        W73023   0.393  25.092  12.901
 9080W        W73024   7.785  31.137  14.339
 9081W        W73025  18.749   8.214  14.932
 9082W        W73026  11.720  42.296  12.060
 9083W        W73027  21.189  29.553   5.227
 9084W        W73028  43.840  38.976  10.431
 9085W        W73029  42.489  29.486  11.905
 9086W        W73030  17.665  29.150  12.871
 9087W        W73031  11.312  12.684   1.695
 9088W        W73032  22.633  44.891  13.370
 9089W        W73033  31.088  17.698   2.839
 9090W        W73034  12.728  35.505   2.887
 9091W        W73035  21.099  33.549   5.119
 9092W        W73036  38.507   4.715   2.270
 9093W        W73037  44.939   2.879  11.558
 9094W        W73038  39.863  32.494   1.312
 9095W        W73039  27.499  39.510   0.783
 9096W        W73040   4.775   4.717  10.110
 9097W        W73041  34.935   4.371   2.191
 9098W        W73042  14.140  22.221  14.410
 9099W        W73043   8.395   5.284  14.896
 9100W        W73044   0.961  34.528   5.309
 9101W        W73045  24.591  42.301  13.468
 9102W        W73046   0.779   0.417  10.640
 9103W        W73047   9.820  21.255  13.983
 9104W        W73048  41.910  16.225   0.418
 9105W        W73049  26.594  26.700   4.188
 9106W        W73050  21.116  30.949   1.268
 9107W        W73051   2.891  26.203   4.241
 9108W        W73052   9.742  44.911   4.633
 9109W        W73053  41.498  30.162   2.294
 9110W        W73054   8.785  21.255  14.935
 9111W        W73055  39.867  11.734   2.383
 9112W        W73056   1.930   9.770  10.033
 9113W        W73057   0.945  36.532  11.508
 9114W        W73058  26.505  36.443   2.805
 9115W        W73059  39.315   4.321   0.861
 9116W        W73060   4.403  39.906   0.849
 9117W        W73061  12.120  19.719   0.789
 9118W        W73062  30.642   9.181  13.332
 9119W        W73063   5.694  28.671  11.962
 9120W        W73064   8.869   5.806  13.458
 9121W        W73065  18.184  41.792   0.928
 9122W        W73066  26.122  21.201  10.616
 9123W        W73067   2.921  41.536  11.047
 9124W        W73068  20.540  38.865  12.368
 9125W        W73069  20.535  15.655   1.931
 9126W        W73070   4.760   3.405   9.969
 9127W        W73071   6.254  24.690  11.555
 9128W        W73072  28.551  43.485  13.875
 9129W        W73073  23.608   9.318  11.104
 9130W        W73074   0.356  22.694  12.022
 9131W        W73075  27.446  32.057  10.060
 9132W        W73076   9.302   9.818  11.112
 9133W        W73077  25.978   1.293  13.312
 9134W        W73078  37.050  20.190   4.331
 9135W        W73079  10.864  15.749  14.426
 9136W        W73080  19.183  43.449  14.810
 9137W        W73081  27.183  39.871  14.479
 9138W        W73082   5.718  25.705  10.602
 9139W        W73083  36.519  25.029  11.889
 9140W        W73084  14.833   9.365   3.632
 9141W        W73085  16.795  28.159  10.456
 9142W        W73086  30.070  32.429  11.077
 9143W        W73087   3.379  33.579  14.944
 9144W        W73088  36.430  16.227   1.794
 9145W        W73089  30.466  35.530   1.318
 9146W        W73090  13.113   8.285   4.603
 9147W        W73091  15.767  37.443   5.321
 9148W        W73092  12.778  14.167  14.428
 9149W        W73093  31.032  33.592  13.410
 9150W        W73094  24.604  18.257  14.360
 9151W        W73095   2.329   6.424  11.552
 9152W        W73096  27.651  13.273   0.474
 9153W        W73097   2.318  26.015  13.831
 9154W        W73098   3.382   0.743  12.053
 9155W        W73099  30.153  27.548  14.369
 9156W        W73100  22.611  33.621  10.454
 9157W        W73101  42.306  24.606  10.443
 9158W        W73102  27.977  26.996  14.381
 9159W        W73103  32.428   0.933  12.050
 9160W        W73104  36.952  44.456  13.482
 9161W        W73105  15.155  17.790   0.858
 9162W        W73106  40.514  28.631  14.786
 9163W        W73107  16.620  27.022   1.414
 9164W        W73108   5.878  40.386   0.456
 9165W        W73109  17.285  11.743   0.297
 9166W        W73110  28.538  40.344   1.336
 9167W        W73111  43.798  36.896   2.848
 9168W        W73112  11.741  10.175  12.842
 9169W        W73113  29.506  14.134  10.412
 9170W        W73114   6.428  31.142   2.182
 9171W        W73115  34.014  22.242  12.942
 9172W        W73116  19.261   6.771  14.800
 9173W        W73117  32.471  37.534   0.834
 9174W        W73118  20.028  42.378   1.223
 9175W        W73119  16.245  25.536  13.999
 9176W        W73120   5.352   7.805   1.341
 9177W        W73121  23.042  13.261   3.742
 9178W        W73122  25.138  40.407   4.271
 9179W        W73123  37.960  22.067  14.447
 9180W        W73124  37.886   2.361   2.222
 9181W        W73125   7.686  14.113  13.949
 9182W        W73126  32.466  18.211  13.049
 9183W        W73127  41.024  36.592  14.976
 9184W        W73128   0.488  20.221   0.291
 9185W        W73129  36.488  10.274   1.716
 9186W        W73130  15.295   0.384  12.084
 9187W        W73131  42.942   5.857  11.126
 9188W        W73132  32.909  22.662   3.316
 9189W        W73133  18.064  37.836   3.281
 9190W        W73134   6.872  24.021   0.266
 9191W        W73135  31.473  22.201  13.415
 9192W        W73136  43.505  31.015  14.882
 9193W        W73137  14.169  22.512   1.932
 9194W        W73138   6.832   4.394   2.774
 9195W        W73139  26.071  41.525   0.800
 9196W        W73140   9.823   6.336   3.164
 9197W        W73141   4.212  38.425  10.584
 9198W        W73142   2.879  13.205   3.789
 9199W        W73143  27.643  34.900   3.763
 9200W        W73144  27.191  22.734   1.883
 9201W        W73145  22.694  28.935   2.852
 9202W        W73146  15.228  22.536   0.915
 9203W        W73147   4.404  41.431  11.424
 9204W        W73148  18.192  41.804  12.890
 9205W        W73149  37.527  14.172   1.384
 9206W        W73150  37.420  38.456   0.378
 9207W        W73151  21.610  26.542  12.027
 9208W        W73152  32.099  30.083  12.946
 9209W        W73153  36.056  16.610   3.316
 9210W        W73154  13.221  14.802   2.871
 9211W        W73155  18.615  43.341   0.956
 9212W        W73156  40.399  32.058  11.498
 9213W        W73157  21.184  22.692   1.312
 9214W        W73158  21.032   3.268  12.427
 9215W        W73159  40.811  36.409  10.450
 9216W        W73160  19.587  39.314  10.576
 9217W        W73161  14.335  10.346  11.572
 9218W        W73162  12.179  14.331  12.502
 9219W        W73163   5.772  33.933  13.820
 9220W        W73164   3.855  19.565  14.890
 9221W        W73165  23.562  13.748  14.779
 9222W        W73166  36.934  41.444  14.293
 9223W        W73167  14.609  28.184   0.441
 9224W        W73168  21.533   2.881   0.345
 9225W        W73169   0.461  20.634  12.044
 9226W        W73170  15.302   6.816   1.913
 9227W        W73171  35.990   8.345  12.521
 9228W        W73172  41.308  21.556   4.657
 9229W        W73173   4.887  13.845  11.098
 9230W        W73174  29.502   4.825   0.938
 9231W        W73175  25.127  21.247   3.321
 9232W        W73176  30.514  21.022   4.334
 9233W        W73177  36.442  38.038  14.282
 9234W        W73178  36.990  30.627   3.659
 9235W        W73179  29.002  38.493   3.850
 9236W        W73180  37.011  44.275   0.829
 9237W        W73181  29.475  22.197   2.331
 9238W        W73182   9.688   7.384  12.826
 9239W        W73183  42.488  38.046   0.889
 9240W        W73184  12.180  34.900  11.883
 9241W        W73185  36.517   4.384   4.672
 9242W        W73186  17.677  24.721   2.768
 9243W        W73187   2.436  32.505   3.195
 9244W        W73188  26.026   6.882  13.326
 9245W        W73189  43.922  27.155   3.644
 9246W        W73190  37.079  14.151  12.006
 9247W        W73191  42.502  13.283  13.938
 9248W        W73192   9.316  38.384  11.411
 9249W        W73193   1.284  41.452  13.949
 9250W        W73194  18.268   9.275  13.880
 9251W        W73195  40.317   6.315  13.851
 9252W        W73196  19.694  27.469  11.956
 9253W        W73197  43.360  32.552  14.790
 9254W        W73198  20.553  30.413   4.618
 9255W        W73199   9.880   0.466  14.493
 9256W        W73200  12.649  37.476  12.970
 9257W        W73201  22.516  23.986   1.242
 9258W        W73202   9.374  20.756   2.320
 9259W        W73203  43.444   9.339  12.005
 9260W        W73204   6.220  24.568  10.416
 9261W        W73205  44.303  40.436   0.412
 9262W        W73206   4.759  30.970   1.369
 9263W        W73207  10.762   1.905   3.294
 9264W        W73208   4.787   1.442   3.681
 9265W        W73209   1.885  44.318  11.563
 9266W        W73210   7.213   6.763  12.992
 9267W        W73211  39.471  38.521  12.508
 9268W        W73212  34.094  25.691  10.540
 9269W        W73213  38.394  41.821   3.243
 9270W        W73214   1.866  29.073  13.026
 9271W        W73215  14.832   3.949  14.022
 9272W        W73216  33.087   9.286  13.378
 9273W        W73217  32.548  24.096  10.566
 9274W        W73218  30.003  30.031   2.757
 9275W        W73219   0.331  23.578  12.864
 9276W        W73220   8.772  10.256   1.788
 9277W        W73221  33.051  16.692   0.910
 9278W        W73222   0.352  21.658   2.693
 9279W        W73223  10.850   1.871   5.234
 9280W        W73224   0.393  26.689   4.769
 9281W        W73225  27.643  16.724   1.827
 9282W        W73226   1.296  43.013   0.813
 9283W        W73227   4.346  43.897  12.037
 9284W        W73228  28.634  44.805  13.483
 9285W        W73229  41.406  26.054  13.353
 9286W        W73230  44.292  31.622   2.883
 9287W        W73231  22.080  33.109   1.773
 9288W        W73232  18.163   4.263   1.428
 9289W        W73233   6.374  35.561   0.476
 9290W        W73234  23.033  11.320  14.957
 9291W        W73235   5.885   6.393   0.958
 9292W        W73236  23.697  18.092   2.673
 9293W        W73237  43.356   0.944  11.903
 9294W        W73238   0.283   7.239   5.095
 9295W        W73239  26.616  35.941  13.819
 9296W        W73240  28.125  10.246  10.965
 9297W        W73241  44.827   5.228  14.827
 9298W        W73242  21.711  14.181   0.327
 9299W        W73243  21.153  16.695  10.568
 9300W        W73244  41.479  13.296  12.449
 9301W        W73245  42.471  39.043  11.057
 9302W        W73246   7.887   0.387  14.926
 9303W        W73247  43.471  27.465  13.045
 9304W        W73248   5.360  31.049   2.222
 9305W        W73249  17.273  35.533   4.693
 9306W        W73250  40.902  18.224   2.406
 9307W        W73251  32.064   6.399  12.426
 9308W        W73252  40.833  23.657  13.792
 9309W        W73253  36.097  38.480  10.617
 9310W        W73254  36.019   8.391  11.125
 9311W        W73255  40.900  33.035   3.815
 9312W        W73256  30.954  28.127  12.344
 9313W        W73257  10.727   9.846  11.004
 9314W        W73258  20.716  18.091  10.570
 9315W        W73259  21.073  20.608  14.852
 9316W        W73260  38.860   0.274   4.153
 9317W        W73261  28.653  24.208  12.507
 9318W        W73262  43.012   2.850  12.963
 9319W        W73263  40.952  17.558   4.778
 9320W        W73264  35.860  32.901   0.452
 9321W        W73265   2.289  19.557  14.293
 9322W        W73266  20.093  40.976  12.846
 9323W        W73267  26.672  14.807   0.958
 9324W        W73268  18.123  17.676   4.777
 9325W        W73269  34.027  42.454   0.853
 9326W        W73270  23.036  27.089   3.306
 9327W        W73271  29.451  39.897   0.739
 9328W        W73272  21.096  21.108   4.621
 9329W        W73273   6.191  25.063   3.721
 9330W        W73274  42.307  41.532   3.680
 9331W        W73275  42.505  26.582   0.263
 9332W        W73276  34.614  41.370   4.665
 9333W        W73277   3.277  35.424   4.262
 9334W        W73278  32.984  43.005   0.802
 9335W        W73279  24.126  37.037   0.912
 9336W        W73280  13.220   5.252  11.488
 9337W        W73281  12.320  22.012  12.449
 9338W        W73282   9.247  22.610   3.154
 9339W        W73283  27.654  18.133  11.884
 9340W        W73284  28.463   4.266   4.125
 9341W        W73285  18.554  24.576  13.486
 9342W        W73286   5.778  20.751   1.761
 9343W        W73287  36.443  14.739  10.966
 9344W        W73288  43.914  14.155   4.760
 9345W        W73289  11.195  18.715   4.751
 9346W        W73290  33.102  11.656  14.833
 9347W        W73291  37.086  16.609  12.576
 9348W        W73292  12.198  37.558  11.090
 9349W        W73293  39.360   9.285  13.406
 9350W        W73294  34.038  40.520  13.014
 9351W        W73295  35.471  41.346  12.097
 9352W        W73296  12.125   4.940  10.933
 9353W        W73297  44.376  20.577  10.640
 9354W        W73298  32.951   8.742   4.198
 9355W        W73299  36.400  31.560  11.446
 9356W        W73300   8.193  32.960  12.391
 9357W        W73301  38.445  34.480  11.128
 9358W        W73302  34.605  27.061   2.872
 9359W        W73303  16.317   7.849   1.809
 9360W        W73304  24.127  21.708  12.841
 9361W        W73305   0.952  44.792  11.986
 9362W        W73306  21.616  40.502  13.414
 9363W        W73307  33.055  26.157   4.138
 9364W        W73308   6.306  40.885   3.344
 9365W        W73309  33.482  30.107  12.835
 9366W        W73310  26.605  37.405  10.129
 9367W        W73311  23.565  18.166  11.556
 9368W        W73312   6.861   6.233   4.639
 9369W        W73313  33.939  43.987  10.505
 9370W        W73314  29.474   4.280  10.596
 9371W        W73315  44.763   5.289   0.476
 9372W        W73316  33.111  42.836   4.808
 9373W        W73317   0.441  38.991   0.947
 9374W        W73318  40.014  14.643   1.809
 9375W        W73319   3.857  33.071   3.338
 9376W        W73320  42.800  20.602  11.600
 9377W        W73321   4.940  10.184   4.353
 9378W        W73322  23.033   6.787  11.547
 9379W        W73323  31.906  20.178   5.199
 9380W        W73324  36.442  35.362  12.910
 9381W        W73325   7.717  23.102  11.086
 9382W        W73326  26.046  42.833  12.034
 9383W        W73327  40.962  34.868   2.829
 9384W        W73328  42.297  30.531  11.544
 9385W        W73329   3.814  20.714  11.522
 9386W        W73330  36.072  21.138   0.794
 9387W        W73331  29.165  20.680   3.695
 9388W        W73332  16.752  18.288   1.215
 9389W        W73333  28.486  17.276   2.849
 9390W        W73334  18.550  44.860   3.758
 9391W        W73335   0.452   6.759  14.465
 9392W        W73336  16.623   4.909   4.157
 9393W        W73337  16.710  25.012  12.342
 9394W        W73338   9.785  33.530  14.825
 9395W        W73339  28.050  40.375  11.901
 9396W        W73340  40.981   7.736  13.413
 9397W        W73341  36.082   8.330   0.946
 9398W        W73342  34.933   9.377   1.441
 9399W        W73343  23.187  30.645   0.355
 9400W        W73344  16.230  25.675   4.725
 9401W        W73345  35.367   0.424  10.914
 9402W        W73346  10.345  31.416   4.250
 9403W        W73347  26.183  44.798   2.387
 9404W        W73348  25.579  36.002   5.182
 9405W        W73349  10.262  17.678   2.265
 9406W        W73350  10.654  40.439   4.795
 9407W        W73351  18.192  13.650   3.264
 9408W        W73352  27.159  21.546  14.974
 9409W        W73353  42.317  19.589   1.753
 9410W        W73354  39.452  16.188  10.413
 9411W        W73355   5.247  37.971   1.338
 9412W        W73356  18.782  35.371  14.972
 9413W        W73357  36.525   6.858   3.743
 9414W        W73358  33.608  33.432  13.009
 9415W        W73359  22.720  25.478  12.559
 9416W        W73360  24.553  26.522  12.075
 9417W        W73361  44.846  14.646  10.619
 9418W        W73362  40.484  25.089  14.478
 9419W        W73363  19.778  32.095   0.245
 9420W        W73364  37.977  44.293  12.976
 9421W        W73365  11.742  14.265  10.624
 9422W        W73366  26.527  23.590   2.845
 9423W        W73367  14.184  31.120  14.854
 9424W        W73368   7.206  43.852  12.046
 9425W        W73369  14.646  21.076   4.334
 9426W        W73370  22.121  23.175  11.950
 9427W        W73371  30.037  28.999  12.050
 9428W        W73372  10.634  34.423   2.759
 9429W        W73373  14.632  14.674   4.619
 9430W        W73374   5.387  12.817   4.643
 9431W        W73375  22.168  26.573   3.864
 9432W        W73376   5.234  38.513  11.876
 9433W        W73377  11.237  16.299   0.842
 9434W        W73378  12.735  22.082   2.886
 9435W        W73379  37.396  20.183  14.994
 9436W        W73380   3.381  32.581   4.837
 9437W        W73381  26.575  14.699  10.421
 9438W        W73382  20.265  29.939  12.832
 9439W        W73383  21.147  43.988  12.426
 9440W        W73384   0.280  16.740  12.870
 9441W        W73385  26.077  11.136   1.336
 9442W        W73386   1.255  36.982  10.461
 9443W        W73387  40.303  15.255   0.956
 9444W        W73388  12.628   5.405  12.472
 9445W        W73389  16.745   9.695   2.893
 9446W        W73390  18.559  22.219   4.672
 9447W        W73391  24.198  12.835   3.678
 9448W        W73392  17.279  17.136  10.521
 9449W        W73393  13.844   4.745   0.380
 9450W        W73394  22.705  29.969  12.077
 9451W        W73395  42.866  30.466  12.008
 9452W        W73396  21.514  23.989   4.228
 9453W        W73397   5.236   0.394   0.288
 9454W        W73398  30.972   7.236   4.210
 9455W        W73399  27.568   1.765   4.798
 9456W        W73400  42.915   4.359  11.568
 9457W        W73401  15.272  17.781  11.894
 9458W        W73402  14.791   7.384   4.663
 9459W        W73403  25.626   7.257   1.835
 9460W        W73404  32.035  43.271  13.855
 9461W        W73405   7.217  22.028  12.900
 9462W        W73406  39.456  21.240  11.028
 9463W        W73407  17.693  24.028  14.324
 9464W        W73408  28.180   1.971   1.898
 9465W        W73409  28.030  12.331  14.442
 9466W        W73410  35.540  33.917  12.506
 9467W        W73411  13.192   2.261   3.852
 9468W        W73412  25.018   7.696   0.350
 9469W        W73413   3.288  11.198  13.388
 9470W        W73414  42.846   5.815   2.811
 9471W        W73415  34.052  22.215  10.901
 9472W        W73416   1.363   0.358  12.944
 9473W        W73417   0.461  28.102   0.367
 9474W        W73418  36.386  31.571   3.282
 9475W        W73419   8.373   1.355  12.031
 9476W        W73420   4.867  10.836  12.439
 9477W        W73421  41.508   8.166   3.741
 9478W        W73422  36.587  37.895  13.996
 9479W        W73423  13.174  22.598  11.504
 9480W        W73424  16.149  36.965   1.785
 9481W        W73425  13.719  23.564   2.781
 9482W        W73426  11.330  16.282   2.185
 9483W        W73427   7.866  41.012   2.710
 9484W        W73428  42.313  42.815  12.476
 9485W        W73429  43.935   2.299  12.995
 9486W        W73430   2.303  25.652   3.771
 9487W        W73431   3.751   0.951   3.230
 9488W        W73432  40.847  44.819   4.269
 9489W        W73433  23.683   9.824   4.245
 9490W        W73434   5.789  39.471   1.212
 9491W        W73435   6.239  33.970   2.679
 9492W        W73436  31.984  41.486  12.058
 9493W        W73437  29.957  15.292  13.961
 9494W        W73438   6.687  24.690  12.472
 9495W        W73439  27.482  32.606  12.571
 9496W        W73440  20.161  37.555  10.072
 9497W        W73441  29.459  30.948   4.599
 9498W        W73442   5.857   6.340   0.350
 9499W        W73443  16.569   9.788  11.083
 9500W        W73444   0.761  39.379  12.452
 9501W        W73445  24.491  20.078  13.368
 9502W        W73446  44.378   2.240  10.444
 9503W        W73447   1.842  42.456  13.415
 9504W        W73448   9.868  40.012  13.043
 9505W        W73449  25.638  30.500   1.829
 9506W        W73450  19.568   7.748  13.930
 9507W        W73451  37.386  40.814  11.543
 9508W        W73452  29.986  21.725  12.007
 9509W        W73453  11.716  17.298   3.644
 9510W        W73454  29.116  35.063   3.344
 9511W        W73455  17.197  21.112   2.396
 9512W        W73456  30.160  16.166  10.096
 9513W        W73457  36.485  26.476   2.767
 9514W        W73458  36.468  19.780   2.752
 9515W        W73459   8.288   4.423   2.713
 9516W        W73460  31.494  34.889   2.756
 9517W        W73461  34.986  39.859   3.800
 9518W        W73462  43.999  37.027  12.573
 9519W        W73463  32.896  17.072   0.784
 9520W        W73464  11.637  29.443   0.793
 9521W        W73465  20.731   8.788  10.970
 9522W        W73466  16.657   0.778   4.279
 9523W        W73467  17.233  44.896  14.014
 9524W        W73468   0.883   3.859  11.095
 9525W        W73469  34.373   0.461   1.259
 9526W        W73470  31.508   9.369   0.481
 9527W        W73471   8.397  40.819  14.819
 9528W        W73472  28.462  12.802   4.822
 9529W        W73473  20.078  33.118  12.840
 9530W        W73474  17.264   1.802  14.407
 9531W        W73475  31.012  10.323   4.220
 9532W        W73476  33.072  14.705  14.830
 9533W        W73477   2.899  30.435   4.126
 9534W        W73478  19.753   0.912  13.469
 9535W        W73479  36.513  24.056   1.868
 9536W        W73480  44.341  13.214  12.495
 9537W        W73481   4.326   9.736  11.595
 9538W        W73482   6.224  25.992   4.802
 9539W        W73483  25.133  15.250   2.785
 9540W        W73484  34.076  38.999   4.209
 9541W        W73485  18.550  24.149   2.784
 9542W        W73486  33.949   1.445   3.729
 9543W        W73487  33.541  41.358  11.420
 9544W        W73488  20.212   0.450   3.640
 9545W        W73489   9.754  25.643  13.325
 9546W        W73490  43.809  39.389  11.509
 9547W        W73491  18.201   4.853   2.188
 9548W        W73492  44.268  22.546  13.504
 9549W        W73493  22.187  19.764   1.258
 9550W        W73494  38.505   7.262  14.282
 9551W        W73495  37.850   6.321  13.431
 9552W        W73496  40.377  28.104  11.410
 9553W        W73497  27.611  26.605   4.344
 9554W        W73498  22.681  39.908   0.877
 9555W        W73499  14.793  43.848  13.387
 9556W        W73500  36.912  30.065  11.429
 9557W        W73501  34.962  18.144   5.282
 9558W        W73502   1.778  15.620   0.382
 9559W        W73503  36.952  19.042   0.276
 9560W        W73504  19.095   2.377   0.815
 9561W        W73505  38.941  34.926  13.328
 9562W        W73506  31.422  19.765  14.791
 9563W        W73507   4.783  26.118  11.089
 9564W        W73508  18.119  11.184   3.243
 9565W        W73509  24.132  15.279  13.519
 9566W        W73510   9.286   1.339  10.953
 9567W        W73511   5.263  43.468  13.450
 9568W        W73512  16.210  36.539   5.150
 9569W        W73513  30.057  29.017   2.689
 9570W        W73514  12.741  41.968   3.725
 9571W        W73515  44.776  37.425   0.384
 9572W        W73516  30.155  22.573   3.278
 9573W        W73517  35.028  35.588  11.373
 9574W        W73518  27.161  33.917   1.320
 9575W        W73519  12.825  35.545   4.178
 9576W        W73520   9.198  31.008   2.773
 9577W        W73521  33.598  12.238  13.520
 9578W        W73522   7.760   8.675   1.741
 9579W        W73523  19.269   2.962   3.681
 9580W        W73524  41.930  12.237  11.084
 9581W        W73525   3.224  18.124  12.955
 9582W        W73526   7.296  44.833   0.824
 9583W        W73527  36.096  16.670  11.602
 9584W        W73528   6.865  17.294  14.893
 9585W        W73529  14.715  28.640  14.844
 9586W        W73530   0.283  34.600   0.825
 9587W        W73531  40.855  39.426   1.363
 9588W        W73532  26.030  25.630  14.932
 9589W        W73533  11.840   0.486  12.889
 9590W        W73534   6.741  39.497   1.889
 9591W        W73535  19.737  30.094   1.318
 9592W        W73536  36.005  20.619   4.118
 9593W        W73537   9.192  35.404  10.990
 9594W        W73538  24.199  23.673  14.370
 9595W        W73539  19.105  31.513  11.437
 9596W        W73540  15.605   2.896   4.182
 9597W        W73541  14.287  27.133   1.801
 9598W        W73542  15.644  29.522   4.739
 9599W        W73543  25.543  39.004   1.809
 9600W        W73544  35.372   2.416   2.265
 9601W        W73545  16.182  29.992   1.902
 9602W        W73546  33.053  42.495  10.591
 9603W        W73547  23.082  26.516  12.874
 9604W        W73548  35.944   4.831  12.000
 9605W        W73549  21.683  11.751   4.752
 9606W        W73550  37.994  27.951  12.015
 9607W        W73551  34.388  22.241   1.772
 9608W        W73552  33.529  35.547  11.941
 9609W        W73553  28.454  17.670   9.947
 9610W        W73554  22.703   2.755   1.786
 9611W        W73555  31.618  36.535   4.272
 9612W        W73556  15.584  40.872  13.932
 9613W        W73557   4.429   6.922  11.921
 9614W        W73558  27.118  26.089   3.350
 9615W        W73559   3.283  42.784   5.187
 9616W        W73560  43.910   5.319  11.604
 9617W        W73561  27.011  21.646  11.911
 9618W        W73562  28.464  21.258  14.971
 9619W        W73563  19.071  25.095   2.323
 9620W        W73564  28.542  23.986   0.403
 9621W        W73565  13.719  43.344  10.645
 9622W        W73566  20.653  10.789   3.268
 9623W        W73567  15.584  39.916   5.087
 9624W        W73568  39.419  29.644   1.933
 9625W        W73569  11.812  31.629   1.363
 9626W        W73570  27.186   6.188   4.613
 9627W        W73571  17.269  37.350  14.946
 9628W        W73572  41.510  27.998   3.191
 9629W        W73573  26.054  21.563  11.071
 9630W        W73574  34.073   0.367  12.516
 9631W        W73575  22.045  20.573   0.399
 9632W        W73576  16.588  15.655  13.354
 9633W        W73577  34.386  12.798  11.472
 9634W        W73578  23.102  32.909  12.826
 9635W        W73579  18.620  17.293  13.873
 9636W        W73580  19.041  40.838  12.563
 9637W        W73581  35.943   9.206   0.349
 9638W        W73582  34.896  27.972  14.316
 9639W        W73583   4.279  36.372   3.688
 9640W        W73584  17.584   1.368   1.915
 9641W        W73585  18.202  18.725   1.329
 9642W        W73586   0.887   5.350  14.963
 9643W        W73587  26.990  38.565   0.728
 9644W        W73588  42.811  17.183   4.277
 9645W        W73589  26.017  13.177  11.976
 9646W        W73590   8.725   3.759  10.612
 9647W        W73591  18.612  26.678   2.290
 9648W        W73592  35.396  22.519   2.723
 9649W        W73593  37.549  19.106  13.832
 9650W        W73594   5.803  31.133  10.499
 9651W        W73595  37.962  10.810  13.854
 9652W        W73596   5.416  33.031   4.821
 9653W        W73597  36.957  13.243  11.902
 9654W        W73598  43.951   1.301   2.225
 9655W        W73599   2.911  22.712  14.830
 9656W        W73600  17.765  26.588  14.839
 9657W        W73601  29.095  33.623   3.797
 9658W        W73602  34.501  23.219   0.244
 9659W        W73603   0.489  32.947   3.264
 9660W        W73604  22.192  30.030   0.414
 9661W        W73605  38.493  41.995  13.388
 9662W        W73606  39.329  43.935  12.372
 9663W        W73607  42.845  39.816   4.176
 9664W        W73608  16.155  36.903   2.853
 9665W        W73609  24.712  39.411   3.242
 9666W        W73610  30.627  13.665  13.502
 9667W        W73611  23.624  19.197  14.857
 9668W        W73612  32.525  36.946  14.402
 9669W        W73613  11.227  25.978  13.532
 9670W        W73614   0.330  27.178   3.166
 9671W        W73615  44.879  44.271   2.863
 9672W        W73616  15.180  24.630  12.359
 9673W        W73617  22.239  13.805  13.926
 9674W        W73618  12.241  38.868  14.810
 9675W        W73619  26.158  25.011   1.874
 9676W        W73620   7.173  15.324   3.841
 9677W        W73621  12.174  27.613  14.348
 9678W        W73622  23.513  12.179   2.308
 9679W        W73623  13.137  26.992  10.512
 9680W        W73624  23.038  19.098  11.895
 9681W        W73625  37.912  12.160  12.485
 9682W        W73626   0.300  42.304  10.413
 9683W        W73627  19.194  13.327  11.513
 9684W        W73628  28.605   0.883   3.279
 9685W        W73629  19.637  15.793  13.415
 9686W        W73630   5.809  39.863   3.715
 9687W        W73631  43.306  33.975  13.060
 9688W        W73632  18.254  19.662   0.732
 9689W        W73633  28.064  35.464   0.422
 9690W        W73634  36.081  39.859   2.261
 9691W        W73635  16.722  27.989  12.963
 9692W        W73636  15.683   7.366   5.312
 9693W        W73637   6.188  30.484   4.605
 9694W        W73638  36.089  41.038   4.173
 9695W        W73639   3.842  44.852   4.295
 9696W        W73640  28.623  32.457  10.556
 9697W        W73641  20.121  40.819  13.364
 9698W        W73642   6.217   9.707   4.159
 9699W        W73643  13.804  16.578  10.580
 9700W        W73644  18.211  28.065   4.610
 9701W        W73645  18.753   1.265  11.478
 9702W        W73646   6.918   5.338  11.411
 9703W        W73647   6.419  37.485   2.796
 9704W        W73648   6.893  27.468   3.734
 9705W        W73649  33.055  25.021  14.777
 9706W        W73650  21.519  39.421   0.259
 9707W        W73651  14.634   4.801  11.001
 9708W        W73652  31.494   5.263   4.660
 9709W        W73653   9.700  31.098   2.282
 9710W        W73654  11.318   2.776  12.490
 9711W        W73655  28.931   1.882   3.163
 9712W        W73656  38.420  42.785   2.285
 9713W        W73657  12.360  30.089   0.751
 9714W        W73658  38.463  28.554  10.988
 9715W        W73659  26.669  31.151  13.896
 9716W        W73660  40.525  39.866  11.041
 9717W        W73661   7.349  41.917   1.369
 9718W        W73662  29.984   7.771   4.220
 9719W        W73663  14.112  16.686   4.657
 9720W        W73664   7.216  44.773  12.455
 9721W        W73665   3.951  39.496  13.851
 9722W        W73666  22.141   6.793  14.416
 9723W        W73667  40.022  24.610  12.954
 9724W        W73668   8.351   1.825   1.897
 9725W        W73669  34.563  38.054  13.448
 9726W        W73670  14.619  24.485   0.479
 9727W        W73671   8.719   6.704  11.085
 9728W        W73672  12.831  33.061   0.428
 9729W        W73673   3.269  33.914   2.696
 9730W        W73674  25.658  12.800   1.250
 9731W        W73675  19.730  22.645  14.317
 9732W        W73676  41.006  41.383  14.891
 9733W        W73677  18.561  27.530  13.008
 9734W        W73678  10.769  28.639  12.092
 9735W        W73679  33.121  39.061  13.872
 9736W        W73680   6.678  14.596   2.824
 9737W        W73681   7.311  18.637   3.226
 9738W        W73682  20.261  39.509   0.455
 9739W        W73683  38.026  27.618  12.453
 9740W        W73684  23.186  11.833  12.987
 9741W        W73685  30.908  22.627   2.279
 9742W        W73686   5.280   8.306  13.356
 9743W        W73687  21.101   0.950  13.355
 9744W        W73688  15.188  41.340   3.189
 9745W        W73689   1.789  40.438   0.750
 9746W        W73690  35.007  21.652  13.436
 9747W        W73691  44.490  20.115  14.942
 9748W        W73692  41.451   1.937  13.541
 9749W        W73693  26.574  38.344   2.833
 9750W        W73694  15.734  33.542   3.787
 9751W        W73695  13.673  10.337   0.755
 9752W        W73696  20.525   2.433  10.458
 9753W        W73697  17.244  35.451  12.827
 9754W        W73698  44.456  11.705  14.309
 9755W        W73699  28.498  27.598   0.352
 9756W        W73700  29.618  33.478   2.738
 9757W        W73701  29.064  36.558  13.045
 9758W        W73702  31.422  43.959  13.390
 9759W        W73703   9.382  12.180   2.885
 9760W        W73704   1.407  16.250  11.883
 9761W        W73705  38.569  14.778   0.947
 9762W        W73706  37.855  12.702  12.044
 9763W        W73707  21.022  10.312  13.941
 9764W        W73708   0.407  16.787   3.688
 9765W        W73709  44.824  38.539   1.347
 9766W        W73710   7.798  38.898  13.996
 9767W        W73711  40.821  22.220   2.672
 9768W        W73712   0.867  13.138   1.810
 9769W        W73713  30.641  27.658   2.296
 9770W        W73714  19.066  34.373   0.902
 9771W        W73715   1.912  31.006  14.762
 9772W        W73716  28.482  33.112   3.297
 9773W        W73717  32.508   4.324  12.567
 9774W        W73718   4.834  33.999   2.865
 9775W        W73719  13.283   8.228   2.867
 9776W        W73720  35.078  11.702   2.395
 9777W        W73721  42.427  32.965   2.781
 9778W        W73722  26.204  33.948   2.737
 9779W        W73723  44.500  19.139  11.489
 9780W        W73724  19.156  19.553   1.298
 9781W        W73725   6.315  17.184   2.804
 9782W        W73726  44.405   0.966  14.399
 9783W        W73727  18.626  44.337  14.419
 9784W        W73728   6.313  37.916   4.791
 9785W        W73729  10.869  18.260  10.977
 9786W        W73730  11.282  19.097   0.918
 9787W        W73731  20.553   5.408  13.039
 9788W        W73732  38.504  28.442  14.976
 9789W        W73733  28.173  42.512  10.609
 9790W        W73734  42.905  40.405  12.879
 9791W        W73735  15.209  36.883  12.505
 9792W        W73736  34.003   0.453  11.919
 9793W        W73737   6.846  27.097  13.384
 9794W        W73738  24.668  27.537  11.990
 9795W        W73739  14.681  35.476   4.182
 9796W        W73740  14.834  13.710   0.808
 9797W        W73741  30.548   3.917   4.693
 9798W        W73742  34.611  20.241   2.778
 9799W        W73743  13.787  19.550  13.883
 9800W        W73744   2.776   1.857  13.502
 9801W        W73745  36.077  25.163   4.629
 9802W        W73746  10.299   6.874   1.289
 9803W        W73747  23.525  13.214   2.834
 9804W        W73748  24.045  25.968   2.391
 9805W        W73749  14.602  28.549   3.334
 9806W        W73750   3.415  32.395  12.028
 9807W        W73751   3.794  44.767  10.502
 9808W        W73752   3.340  44.849   1.307
 9809W        W73753  37.031   6.744  11.470
 9810W        W73754  34.894  43.820   4.815
 9811W        W73755  17.665   5.691  14.851
 9812W        W73756   2.812  38.515  11.998
 9813W        W73757  14.122  18.206   2.727
 9814W        W73758  41.836  30.008   3.743
 9815W        W73759  29.933  29.013  12.947
 9816W        W73760  40.531   6.850  10.625
 9817W        W73761   0.967  29.458  13.528
 9818W        W73762  43.396  27.032  13.510
 9819W        W73763  19.626  27.103   3.721
 9820W        W73764  30.489  34.431   0.760
 9821W        W73765  38.940  41.399  12.398
 9822W        W73766  37.518  38.570   1.774
 9823W        W73767  24.675   9.376  14.985
 9824W        W73768  32.636  33.987  10.501
 9825W        W73769  13.802  24.713  13.446
 9826W        W73770  21.607   1.964  11.597
 9827W        W73771  34.912   4.246  10.947
 9828W        W73772  36.399   9.378   3.362
 9829W        W73773   4.304   5.756   0.916
 9830W        W73774  25.182  11.860  11.452
 9831W        W73775  34.461   5.346  14.383
 9832W        W73776  28.639  32.402   2.829
 9833W        W73777   7.345  33.096  12.456
 9834W        W73778   2.756   7.865   2.890
 9835W        W73779  15.129  22.745   3.151
 9836W        W73780  24.077  19.079  10.481
 9837W        W73781   6.911  26.112  10.601
 9838W        W73782  37.037  17.235   4.746
 9839W        W73783  41.302  14.150   4.301
 9840W        W73784  23.024   0.903   2.872
 9841W        W73785  43.980   1.742  10.969
 9842W        W73786  42.857   5.378  13.425
 9843W        W73787  14.781  21.197   2.889
 9844W        W73788  27.578   6.317  11.502
 9845W        W73789   5.736   2.332  13.387
 9846W        W73790  34.515   0.293  10.575
 9847W        W73791  16.270  12.718   1.307
 9848W        W73792  24.211  32.493  11.907
 9849W        W73793  35.539  40.961  11.983
 9850W        W73794  39.910  12.293  14.825
 9851W        W73795  11.265  17.160  12.422
 9852W        W73796  32.548  39.034   1.740
 9853W        W73797  22.214  29.517  11.593
 9854W        W73798  19.181  25.507   2.667
 9855W        W73799  14.176  35.095   1.305
 9856W        W73800   1.460  40.040  12.354
 9857W        W73801  38.862  20.585  13.053
 9858W        W73802   4.279  39.488   4.330
 9859W        W73803   6.866  36.516   0.772
 9860W        W73804  10.230   9.295  14.372
 9861W        W73805  16.647  28.011  11.094
 9862W        W73806   7.329  18.584   2.882
 9863W        W73807  19.722  26.020   0.881
 9864W        W73808  28.140  16.083   1.232
 9865W        W73809  33.993  10.825  14.908
 9866W        W73810  22.504  26.672   9.987
 9867W        W73811  21.191  40.837  14.031
 9868W        W73812  41.041  23.141   2.726
 9869W        W73813  39.483   8.745   0.745
 9870W        W73814  26.475  15.155   4.335
 9871W        W73815  22.074  25.594  13.380
 9872W        W73816  16.621  40.896  12.963
 9873W        W73817  20.712  34.063  14.928
 9874W        W73818  34.913  30.107   2.810
 9875W        W73819   3.798  32.624  12.880
 9876W        W73820  11.808  40.549   3.200
 9877W        W73821   6.286  18.292  11.856
 9878W        W73822  10.792  43.486   1.443
 9879W        W73823  22.695  43.315   0.353
 9880W        W73824  33.496  15.126  11.597
 9881W        W73825  24.984  23.684   4.699
 9882W        W73826  37.405  31.538  10.555
 9883W        W73827  35.545  11.341   1.803
 9884W        W73828  40.535   9.201   0.281
 9885W        W73829  35.926   2.405  13.447
 9886W        W73830   0.262  19.765   0.254
 9887W        W73831  24.985  39.966  12.484
 9888W        W73832  32.010  18.074  10.534
 9889W        W73833  33.102  17.675  12.878
 9890W        W73834  35.005  41.438  13.378
 9891W        W73835  19.216  30.129   2.851
 9892W        W73836  24.147  15.653  11.104
 9893W        W73837  33.003  16.252  10.484
 9894W        W73838   6.685  12.641  11.073
 9895W        W73839  23.564  26.649  13.812
 9896W        W73840   9.370  22.716   2.738
 9897W        W73841  19.165  24.035  13.452
 9898W        W73842  31.055  43.510  10.420
 9899W        W73843  28.087  36.442   3.743
 9900W        W73844  18.657   1.451   2.807
 9901W        W73845  19.108  33.091  11.014
 9902W        W73846  32.427  10.370  13.046
 9903W        W73847  41.809  31.603   3.630
 9904W        W73848  20.609  11.248  11.076
 9905W        W73849  22.216  19.150   4.239
 9906W        W73850  37.061  28.553  13.416
 9907W        W73851  16.072   5.918   3.275
 9908W        W73852  28.634  26.501   0.806
 9909W        W73853  35.979  15.133   3.659
 9910W        W73854  27.522  13.662   4.187
 9911W        W73855  24.128  33.131   3.812
 9912W        W73856  23.045  16.300   4.214
 9913W        W73857  30.520   5.270   4.303
 9914W        W73858   5.869  30.136  11.120
 9915W        W73859  11.649  32.531  11.092
 9916W        W73860   6.833  26.149   3.841
 9917W        W73861  24.086  29.990   1.265
 9918W        W73862  42.815  38.413   0.362
 9919W        W73863  26.478  12.636  12.860
 9920W        W73864   5.421  15.202  11.393
 9921W        W73865  14.249  16.156   0.863
 9922W        W73866  31.525  15.229  10.943
 9923W        W73867  23.731  38.403   0.758
 9924W        W73868   9.811  33.485   4.292
 9925W        W73869  12.702  28.474   3.771
 9926W        W73870   5.744  24.037  13.965
 9927W        W73871  25.524  21.754  12.880
 9928W        W73872  29.460   4.915  12.905
 9929W        W73873  16.608  28.154  12.362
 9930W        W73874   8.218  11.177  14.815
 9931W        W73875   6.870  18.627  12.989
 9932W        W73876  33.046  31.115   2.310
 9933W        W73877  35.047  21.143   3.693
 9934W        W73878  24.571  21.701  13.850
 9935W        W73879  20.196  37.516  13.378
 9936W        W73880  20.680  19.609   0.959
 9937W        W73881  29.995  28.560   2.405
 9938W        W73882  21.697  26.693  12.536
 9939W        W73883  38.828  25.544  13.504
 9940W        W73884   3.217   6.328   1.322
 9941W        W73885   5.748  28.971   3.227
 9942W        W73886  38.057  23.543   0.360
 9943W        W73887   7.676  31.905  14.427
 9944W        W73888  38.899  36.441  11.497
 9945W        W73889  18.163  23.122  12.447
 9946W        W73890  40.494  11.198  11.114
 9947W        W73891  38.822  33.877   0.386
 9948W        W73892  43.322  19.175   2.840
 9949W        W73893  20.063  22.723  10.498
 9950W        W73894  28.044  26.129  14.798
 9951W        W73895  22.672  33.940   2.359
 9952W        W73896   7.402  41.037   3.249
 9953W        W73897  21.664  35.966  11.492
 9954W        W73898   2.429  21.554  14.994
 9955W        W73899  15.264  17.063  14.785
 9956W        W73900   3.278   0.390  14.834
 9957W        W73901  19.632  19.551  10.411
 9958W        W73902   7.886  23.669   4.827
 9959W        W73903  13.216  17.734  12.539
 9960W        W73904  25.096  24.620  12.452
 9961W        W73905  32.121  20.759   3.762
 9962W        W73906   1.793  42.011   1.345
 9963W        W73907   3.381  36.939  11.981
 9964W        W73908  12.642  18.199  12.890
 9965W        W73909  11.835  44.826  14.825
 9966W        W73910  22.533  23.997   4.660
 9967W        W73911  36.844  17.761   2.388
 9968W        W73912  35.429  20.524   4.147
 9969W        W73913  40.306  15.646   1.233
 9970W        W73914   1.796  38.495  11.563
 9971W        W73915  33.392  21.023   0.795
 9972W        W73916  31.002   3.830  12.880
 9973W        W73917  10.817  43.288   4.149
 9974W        W73918  22.203  19.166   2.301
 9975W        W73919  34.030   1.447  11.908
 9976W        W73920  15.324  43.392  14.866
 9977W        W73921  20.039  18.690   4.342
 9978W        W73922   1.328  25.996  10.920
 9979W        W73923   7.281  15.763   2.855
 9980W        W73924  22.147   6.746   4.336
 9981W        W73925  41.801  14.625   1.338
 9982W        W73926  34.478  35.584   4.288
 9983W        W73927   0.862  22.043   1.791
 9984W        W73928   1.352  29.928  13.943
 9985W        W73929  20.635  10.781   2.332
 9986W        W73930  27.987  40.329  11.001
 9987W        W73931   3.229  27.964   4.213
 9988W        W73932  15.219   1.286  11.506
 9989W        W73933  13.827  33.060  11.108
 9990W        W73934  25.507  13.283  11.598
 9991W        W73935   0.380   2.892  13.865
 9992W        W73936  36.456  17.721   4.240
 9993W        W73937  19.773  15.695   0.337
 9994W        W73938  26.008  37.482  13.488
 9995W        W73939  39.558  31.024  11.064
 9996W        W73940  25.059  41.404  14.856
 9997W        W73941   4.858  44.964   1.302
 9998W        W73942  22.672  23.135   4.723
 9999W        W73943  41.537  17.638  12.995
10000W        W73944  13.167  38.049   1.834
10001W        W73945   7.311  40.365  10.556
10002W        W73946  20.191  23.189  14.290
10003W        W73947  12.845  22.599  13.929
10004W        W73948  40.859   0.762  10.511
10005W        W73949  32.478  25.181  12.385
10006W        W73950  32.083   6.211   0.794
10007W        W73951  27.181  19.690   3.723
10008W        W73952  42.910  26.495  14.787
10009W        W73953  20.670  20.068  11.383
10010W        W73954  27.535  25.184   0.444
10011W        W73955   8.892  28.145  11.083
10012W        W73956  12.177   5.902  10.966
10013W        W73957  39.551  31.481  11.432
10014W        W73958  18.576  32.034  12.857
10015W        W73959  29.601   0.948  11.999
10016W        W73960  29.440  21.580   2.358
10017W        W73961  38.543   6.912  14.456
10018W        W73962  39.021  37.885  11.913
10019W        W73963  18.595  12.237   4.244
10020W        W73964   7.672  43.295   0.759
10021W        W73965   9.163  30.613  11.400
10022W        W73966   2.342   3.345  12.402
10023W        W73967  14.245  23.549   0.307
10024W        W73968  35.897  39.438  10.558
10025W        W73969  26.458  31.074   3.636
10026W        W73970  21.519  17.685  14.771
10027W        W73971   7.879  13.222   2.730
10028W        W73972   0.929  15.747  10.643
10029W        W73973  32.533  33.596  14.437
10030W        W73974  35.994  36.049  12.086
10031W        W73975  39.011  19.580  13.378
10032W        W73976  38.954   4.740  11.040
10033W        W73977  40.532   7.853  11.947
10034W        W73978   0.341  14.824   3.829
10035W        W73979   6.296   9.312  11.896
10036W        W73980  29.551  37.025  11.395
10037W        W73981  35.500  14.634   2.735
10038W        W73982   0.465  43.976   2.204
10039W        W73983  23.172  44.395  14.859
10040W        W73984  11.250   0.462   1.325
10041W        W73985  31.592   0.447  12.916
10042W        W73986   8.825  36.021   2.895
10043W        W73987   3.413  10.358  12.862
10044W        W73988  40.510  17.137  13.021
10045W        W73989  40.477  13.828  11.414
10046W        W73990  28.946  38.941  11.985
10047W        W73991   0.466  15.753  10.922
10048W        W73992  13.202  39.844   2.899
10049W        W73993  16.768  42.506   2.240
10050W        W73994   4.857  15.300  13.443
10051W        W73995   1.419   8.280  11.936
10052W        W73996  14.677  21.043  12.939
10053W        W73997   1.271   6.915   4.342
10054W        W73998  36.936  31.974   4.278
10055W        W73999  11.684  23.233  10.490
10056W        W74000  36.404   6.299   3.385
10057W        W74001  24.554  16.120   4.672
10058W        W74002  39.528  10.715  14.868
10059W        W74003   8.755  43.019   4.235
10060W        W74004   2.946  15.793  10.903
10061W        W74005   8.374  10.207  13.490
10062W        W74006   4.367   6.863   0.258
10063W        W74007  10.635  24.103  12.545
10064W        W74008   8.374   6.279   1.785
10065W        W74009   5.424  41.835   0.818
10066W        W74010  19.686  10.666   2.887
10067W        W74011  35.866  20.567   3.161
10068W        W74012  43.294  38.834  13.472
10069W        W74013  22.110  10.877  14.401
10070W        W74014  20.626  11.141  12.431
10071W        W74015   3.842  43.400  14.510
10072W        W74016   1.919  36.500  14.426
10073W        W74017  35.886  25.501  14.468
10074W        W74018  14.127  35.568   3.825
10075W        W74019  27.975   6.705  14.278
10076W        W74020  37.527   7.394   3.829
10077W        W74021  38.862  34.972   5.318
10078W        W74022  12.632   4.261   3.147
10079W        W74023  33.599  33.949   1.773
10080W        W74024  35.408  36.472   4.312
10081W        W74025   1.421   4.380  11.413
10082W        W74026  23.631  30.428  12.913
10083W        W74027  14.663  31.000  13.005
10084W        W74028  26.679  22.192  12.860
10085W        W74029  23.231   4.352  13.876
10086W        W74030  40.989  37.536  11.900
10087W        W74031  35.407  38.998   4.355
10088W        W74032   2.393   8.853   5.233
10089W        W74033  18.236  25.669  11.602
10090W        W74034   6.699  12.645  11.968
10091W        W74035   8.338  38.330   4.665
10092W        W74036   7.813  37.438  13.454
10093W        W74037  16.569   4.274  14.436
10094W        W74038  19.251  11.821  11.943
10095W        W74039  15.608  39.383   2.411
10096W        W74040  27.593  41.852   0.817
10097W        W74041  18.566  35.005   1.804
10098W        W74042  42.506  37.553   2.720
10099W        W74043  20.613  27.480   4.824
10100W        W74044  19.548   1.942  14.499
10101W        W74045  41.841  17.105  11.873
10102W        W74046  23.074  23.187  13.371
10103W        W74047   1.372   3.880  14.447
10104W        W74048   7.737   6.878   1.932
10105W        W74049  28.457  23.053  12.556
10106W        W74050  14.702  43.942   0.374
10107W        W74051  21.742  25.105  14.770
10108W        W74052  13.210  36.408   4.256
10109W        W74053   6.284   2.800  12.890
10110W        W74054  10.304  25.610   1.306
10111W        W74055   6.784  34.064   1.240
10112W        W74056  26.638  29.463  10.458
10113W        W74057  32.575   5.224   0.326
10114W        W74058  29.034  32.001  14.915
10115W        W74059  35.554  25.046   3.274
10116W        W74060  24.167   4.934   9.996
10117W        W74061  29.565  42.938   4.251
10118W        W74062  38.410  24.599  14.297
10119W        W74063  43.375  33.616  11.549
10120W        W74064  23.096  15.744   1.404
10121W        W74065  37.035  40.905  12.042
10122W        W74066  38.534   6.860   0.404
10123W        W74067  31.042  40.894  12.864
10124W        W74068   5.859   0.263  14.493
10125W        W74069  27.574  21.120   0.802
10126W        W74070  29.020   8.206  12.489
10127W        W74071  31.994  32.444  11.503
10128W        W74072  23.683  36.369  12.986
10129W        W74073  35.028  22.687  14.010
10130W        W74074  21.180   9.207  14.474
10131W        W74075  36.999   5.395   0.728
10132W        W74076  10.820  33.493   4.669
10133W        W74077  30.565   4.262   4.677
10134W        W74078  18.109  39.339  12.061
10135W        W74079  17.281   8.208  12.090
10136W        W74080  19.073  27.056   4.348
10137W        W74081  13.755  25.191   4.656
10138W        W74082  17.557  35.397   2.237
10139W        W74083  16.316   9.678   4.769
10140W        W74084  23.212   1.426   1.232
10141W        W74085  21.695  20.159  11.056
10142W        W74086   3.323  33.408  12.444
10143W        W74087  34.581  36.409   2.679
10144W        W74088  33.974   5.304  11.945
10145W        W74089  14.764  20.059  13.396
10146W        W74090  35.373   4.917   4.790
10147W        W74091  20.765  31.555  12.375
10148W        W74092  33.508  22.559   2.683
10149W        W74093  44.760  41.432   3.322
10150W        W74094   4.252   6.257  14.515
10151W        W74095  32.904  15.769  14.386
10152W        W74096   2.467  20.709   0.400
10153W        W74097  24.166  19.207   0.966
10154W        W74098   3.880  31.972   9.947
10155W        W74099  31.477   1.370   4.786
10156W        W74100   1.792  29.668   3.833
10157W        W74101  29.662   3.865  13.950
10158W        W74102  38.876   5.287  13.466
10159W        W74103  43.295  24.490  12.400
10160W        W74104  31.462   5.229  14.351
10161W        W74105  34.498  15.265   3.822
10162W        W74106  40.933  37.572   2.886
10163W        W74107  24.708  13.773   4.118
10164W        W74108   0.344   5.375  14.301
10165W        W74109  34.076  33.620   3.848
10166W        W74110   3.719   6.847  11.374
10167W        W74111  24.067   4.805  10.504
10168W        W74112  28.120  16.316   0.753
10169W        W74113  13.154  31.534  13.875
10170W        W74114  25.004  21.047   1.775
10171W        W74115  20.264  43.877   4.206
10172W        W74116   6.351  37.902   2.270
10173W        W74117   2.914  26.529  13.848
10174W        W74118  41.875   1.382   0.749
10175W        W74119  39.044  19.543   2.415
10176W        W74120  25.984  40.347   1.338
10177W        W74121  44.902  14.690  11.080
10178W        W74122  24.505  31.635  14.322
10179W        W74123  13.301  21.517   1.361
10180W        W74124  13.624   4.883   4.271
10181W        W74125  26.585  10.638  13.961
10182W        W74126  30.531  44.294   1.412
10183W        W74127   6.238  17.585   3.717
10184W        W74128   1.906   2.836   3.717
10185W        W74129  38.029  27.972  14.282
10186W        W74130  21.599  32.413  11.064
10187W        W74131  17.724   4.323  13.046
10188W        W74132  38.492  26.590   2.807
10189W        W74133  16.651  20.226  10.526
10190W        W74134  24.509  40.816   3.145
10191W        W74135   7.260   4.707  12.426
10192W        W74136  33.904  42.803   1.434
10193W        W74137  34.890  21.754  13.881
10194W        W74138  18.267  44.841  13.989
10195W        W74139  35.010  27.648  14.931
10196W        W74140   7.825  38.388   1.841
10197W        W74141  24.054  22.078  14.929
10198W        W74142   8.687   6.709   4.611
10199W        W74143   1.260  33.121   4.332
10200W        W74144  37.913  19.741  12.915
10201W        W74145  18.229  31.630   9.957
10202W        W74146  39.867  10.339  10.631
10203W        W74147   5.825   8.719  13.860
10204W        W74148  37.456  25.568   2.297
10205W        W74149   0.389  38.418  11.955
10206W        W74150  20.215  38.006   2.835
10207W        W74151  23.728  30.138  11.445
10208W        W74152  26.512   7.808   1.769
10209W        W74153  39.518  30.029  10.890
10210W        W74154   6.217  31.919  10.999
10211W        W74155   8.717   9.229   4.712
10212W        W74156   3.342  32.528  14.014
10213W        W74157  21.548   6.394  12.457
10214W        W74158  16.140  16.282  12.451
10215W        W74159  24.618  44.314   4.737
10216W        W74160  22.596  32.523  13.052
10217W        W74161  25.141  17.217  13.809
10218W        W74162  21.212  35.374   4.189
10219W        W74163  33.402   3.719   2.713
10220W        W74164  13.347  14.293  13.996
10221W        W74165  41.820   5.765   2.755
10222W        W74166  29.479  44.413  12.838
10223W        W74167  13.235  12.271   4.796
10224W        W74168  42.318  35.939   1.840
10225W        W74169  35.070  20.229  14.371
10226W        W74170  43.391  14.829   0.454
10227W        W74171  28.128  17.283  12.031
10228W        W74172  18.296  32.626  10.586
10229W        W74173  34.097  12.154   3.348
10230W        W74174  33.380  44.279  13.484
10231W        W74175  21.115  27.671  11.890
10232W        W74176  34.563  40.317  10.446
10233W        W74177  14.596  18.151   0.917
10234W        W74178  33.416   2.390  14.011
10235W        W74179  18.127   9.321   0.832
10236W        W74180  13.121   6.282   5.209
10237W        W74181  34.379  30.619   0.350
10238W        W74182  28.163  31.438   4.668
10239W        W74183  25.710  10.258  13.060
10240W        W74184  42.336  22.569   1.754
10241W        W74185  19.536  31.972  10.599
10242W        W74186   1.779  44.467  10.577
10243W        W74187  14.723  14.696  12.890
10244W        W74188  20.142  37.536   0.811
10245W        W74189  42.329   7.244   4.178
10246W        W74190  40.821  22.692   4.614
10247W        W74191  15.276  33.538   1.860
10248W        W74192   6.380  13.344   0.395
10249W        W74193  40.031  27.672  14.830
10250W        W74194  11.159  26.623  13.007
10251W        W74195  24.493  30.603  14.319
10252W        W74196  15.622  10.847  14.947
10253W        W74197  18.734  28.676  11.437
10254W        W74198  16.156  13.211  13.353
10255W        W74199  37.068  39.373   2.661
10256W        W74200  36.021  17.687  13.356
10257W        W74201  34.427  17.592  11.396
10258W        W74202  42.464  35.555  11.079
10259W        W74203  39.333  39.045  11.471
10260W        W74204  18.774  27.687  12.070
10261W        W74205  18.737  26.535  13.018
10262W        W74206  24.639   3.225   1.403
10263W        W74207  16.101  20.059   2.261
10264W        W74208  11.201  16.735   3.760
10265W        W74209   2.235  39.065  10.473
10266W        W74210  39.968  26.468   4.836
10267W        W74211  11.679  39.919   0.960
10268W        W74212  33.494  35.059   0.297
10269W        W74213   5.319   3.739   0.264
10270W        W74214  35.901  33.428  14.301
10271W        W74215   0.484  33.984   1.699
10272W        W74216  27.472  12.189   3.809
10273W        W74217   5.695   1.849  12.927
10274W        W74218  36.936   2.868  10.026
10275W        W74219  18.221  37.058  11.950
10276W        W74220  13.660  35.055  12.477
10277W        W74221  11.721  42.504  12.828
10278W        W74222  29.052  32.012  11.454
10279W        W74223  34.495  24.179  11.449
10280W        W74224  34.561  33.979   3.320
10281W        W74225  15.652  34.449   3.833
10282W        W74226   5.352  42.453  11.451
10283W        W74227  24.518  17.721  12.356
10284W        W74228  23.667  43.907   2.855
10285W        W74229   9.882  21.147  12.580
10286W        W74230   3.888  14.720  14.479
10287W        W74231  12.290  33.509  12.575
10288W        W74232  12.219  37.348   2.716
10289W        W74233   7.403  39.940  11.967
10290W        W74234  24.561  38.921  12.510
10291W        W74235  27.569   3.256  12.385
10292W        W74236  33.932   2.883  13.854
10293W        W74237  19.179  29.101  10.465
10294W        W74238  41.017  27.668  12.526
10295W        W74239   6.777  29.928  14.858
10296W        W74240   9.201  34.445  14.915
10297W        W74241  22.231  43.312   2.244
10298W        W74242  23.559  21.623   3.721
10299W        W74243  25.504  27.556   3.229
10300W        W74244  13.806   7.736   1.221
10301W        W74245   5.330  14.647  12.989
10302W        W74246  44.910  34.944  13.859
10303W        W74247  37.854  35.964   0.459
10304W        W74248  15.659  30.947  12.883
10305W        W74249  12.325  40.411  10.602
10306W        W74250  36.520  26.056  13.816
10307W        W74251  34.520  30.978  12.824
10308W        W74252   4.329  30.558  13.995
10309W        W74253  15.823  32.465  14.929
10310W        W74254  41.035  13.151   0.249
10311W        W74255  28.005  13.327   3.167
10312W        W74256  41.512  14.789  11.003
10313W        W74257  44.266  41.867   3.698
10314W        W74258  26.045  25.530  12.446
10315W        W74259   8.339  27.521  11.577
10316W        W74260  33.612  14.222   1.837
10317W        W74261  35.359   4.866   0.408
10318W        W74262  19.217  18.706  12.885
10319W        W74263   3.801  39.446  11.500
10320W        W74264  28.082  40.536   3.756
10321W        W74265   1.341  14.240   0.376
10322W        W74266  44.294  31.034  11.491
10323W        W74267  27.671  10.746   3.742
10324W        W74268  40.473   8.237   4.635
10325W        W74269  36.858  44.420   3.829
10326W        W74270  15.645  42.305   2.771
10327W        W74271  24.619  24.158  13.380
10328W        W74272  40.315   4.869  10.948
10329W        W74273  39.994  40.976   1.349
10330W        W74274  27.617  42.949  11.442
10331W        W74275  15.676  40.909  14.403
10332W        W74276  10.669  30.439   2.296
10333W        W74277  42.840  10.855   3.293
10334W        W74278  40.439  12.650   3.309
10335W        W74279  19.155  10.289   1.299
10336W        W74280  33.429  20.545   0.943
10337W        W74281   7.389  26.499   4.209
10338W        W74282  11.699   1.806  11.610
10339W        W74283  42.338  28.049   1.232
10340W        W74284  30.494  32.552  14.516
10341W        W74285  21.199   0.428  10.985
10342W        W74286  41.920   3.416  11.474
10343W        W74287  40.421  40.810   0.920
10344W        W74288   2.345  10.773   4.724
10345W        W74289   4.781  19.266  12.578
10346W        W74290  25.212  34.070   3.228
10347W        W74291  43.829  19.581  11.976
10348W        W74292  25.521  39.480  10.409
10349W        W74293  37.992  41.480  13.024
10350W        W74294  42.802  37.376   0.271
10351W        W74295  36.520  22.545  14.762
10352W        W74296  14.632  44.389  11.105
10353W        W74297  39.997  22.509  14.828
10354W        W74298  30.009   7.814  10.531
10355W        W74299   6.250   5.701  13.417
10356W        W74300  12.159  22.215   2.239
10357W        W74301  30.913  21.557  13.822
10358W        W74302  19.578  27.964  13.489
10359W        W74303  30.439  44.341  12.958
10360W        W74304  43.811  30.638  12.558
10361W        W74305  15.780  43.321  12.011
10362W        W74306  28.155   5.693  12.343
10363W        W74307   9.804  36.353  13.853
10364W        W74308  36.408  44.496  10.488
10365W        W74309  39.901  31.561   3.204
10366W        W74310  35.385   8.791   0.363
10367W        W74311  32.441  37.460   3.809
10368W        W74312  28.968   6.727   1.768
10369W        W74313  22.078   9.727  14.484
10370W        W74314   0.336   0.381  14.868
10371W        W74315   8.822  18.064   2.306
10372W        W74316  37.489  38.928  12.825
10373W        W74317  43.327  11.747  13.426
10374W        W74318   9.675   7.756  13.454
10375W        W74319  36.914  11.200  12.966
10376W        W74320  42.460   5.394   1.860
10377W        W74321  30.581   7.287  10.131
10378W        W74322  16.748  21.156  14.391
10379W        W74323  27.651  39.373   4.291
10380W        W74324  38.920   2.875  13.971
10381W        W74325  38.456  28.568  13.368
10382W        W74326  20.544  33.515   4.162
10383W        W74327  12.132  24.677  12.942
10384W        W74328  20.578  21.183  11.572
10385W        W74329  38.440  34.466   1.411
10386W        W74330  26.542  14.322  14.944
10387W        W74331  30.630   5.835  11.447
10388W        W74332  44.287  16.679   4.726
10389W        W74333  36.392  18.118   3.803
10390W        W74334  44.312  35.370   1.714
10391W        W74335  19.272  37.471  11.563
10392W        W74336  17.146  21.047  11.403
10393W        W74337  41.493   3.340   2.381
10394W        W74338   9.378  22.230   0.926
10395W        W74339  26.202  40.003   9.631
10396W        W74340  11.625  36.947  14.979
10397W        W74341  18.667  14.143   0.805
10398W        W74342  40.025  11.224  14.324
10399W        W74343  38.534  43.506   2.766
10400W        W74344  43.360  11.267   1.761
10401W        W74345   7.694  16.745  11.466
10402W        W74346  18.182   2.361   3.643
10403W        W74347  31.124  38.884   0.939
10404W        W74348  24.156  20.091  10.513
10405W        W74349  20.688  31.639   0.820
10406W        W74350  44.005   8.256   1.298
10407W        W74351  25.662  15.700   2.883
10408W        W74352  36.498   2.737   1.851
10409W        W74353  23.141  37.018  14.437
10410W        W74354  27.499  34.512   0.307
10411W        W74355  28.071  32.464   0.444
10412W        W74356   1.479  32.111  13.057
10413W        W74357  23.520  35.547  13.950
10414W        W74358  27.953   4.744   3.370
10415W        W74359  19.074  36.990   2.406
10416W        W74360  13.170  37.487   3.725
10417W        W74361  33.099  28.510   1.709
10418W        W74362  28.138  38.479   1.276
10419W        W74363  38.404  19.618  12.094
10420W        W74364   6.409  25.479   3.201
10421W        W74365   0.251  24.562  13.887
10422W        W74366  21.139  15.588  12.453
10423W        W74367  10.782  19.180   3.258
10424W        W74368  14.644  29.142  11.985
10425W        W74369  44.981  12.701   1.320
10426W        W74370  31.131  33.034  10.582
10427W        W74371  10.213   5.255  13.959
10428W        W74372   9.683  44.362   4.320
10429W        W74373  32.421  14.700  11.921
10430W        W74374   2.787  44.773   2.848
10431W        W74375  37.456  14.112   4.316
10432W        W74376  31.114  30.513   0.436
10433W        W74377  22.197  19.072  12.391
10434W        W74378  28.660  26.010  11.538
10435W        W74379  17.255  36.425  10.574
10436W        W74380  26.591  33.074  11.967
10437W        W74381  38.025  27.510   2.897
10438W        W74382   0.282   5.323   1.827
10439W        W74383  34.065  10.327  13.484
10440W        W74384  21.616   0.375   4.778
10441W        W74385   7.376  17.152  13.451
10442W        W74386  17.142  22.676   0.310
10443W        W74387  24.616   7.699  12.042
10444W        W74388  31.056  19.695  13.977
10445W        W74389  29.999  30.136  10.888
10446W        W74390  24.509  35.094   1.282
10447W        W74391  40.475  17.563   1.795
10448W        W74392  12.755   0.843   1.355
10449W        W74393  15.109  26.069   0.483
10450W        W74394  18.058  20.572  14.970
10451W        W74395  44.963  12.621  12.360
10452W        W74396  15.310  23.578   4.310
10453W        W74397  40.899  41.954   1.268
10454W        W74398  29.446  21.118   4.306
10455W        W74399  15.816  11.233   3.747
10456W        W74400   1.815  31.557   2.856
10457W        W74401  27.964  28.177   3.743
10458W        W74402   5.756  19.122   4.204
10459W        W74403   5.333  15.650  13.892
10460W        W74404   5.271  27.558   0.263
10461W        W74405  35.862  22.518  10.428
10462W        W74406  23.064  11.258  12.360
10463W        W74407  33.100  38.456  12.024
10464W        W74408   3.740  18.148   1.932
10465W        W74409  34.985   8.243   2.770
10466W        W74410   2.856  44.783  12.358
10467W        W74411  32.629  20.672  11.606
10468W        W74412  31.512  25.634   0.426
10469W        W74413  10.372  19.247   3.758
10470W        W74414  42.822  16.129   3.228
10471W        W74415  26.093  23.199   2.246
10472W        W74416  16.616  31.907   2.759
10473W        W74417  12.727  22.700   3.702
10474W        W74418   5.714   1.269  12.537
10475W        W74419   4.854  35.471  10.967
10476W        W74420  16.594  23.543  13.862
10477W        W74421  13.787   1.836   2.833
10478W        W74422  14.644   5.750  14.475
10479W        W74423  31.557  12.748  12.562
10480W        W74424   9.774  27.143   2.846
10481W        W74425   4.214  11.316   0.934
10482W        W74426  15.092  38.913   3.305
10483W        W74427   9.676  27.958  12.043
10484W        W74428  12.800  17.176  13.483
10485W        W74429   0.431  29.609   0.826
10486W        W74430  17.154  29.629   2.770
10487W        W74431  27.038  18.151  10.155
10488W        W74432  34.466   2.721   1.333
10489W        W74433  32.519   3.425   1.714
10490W        W74434  20.203  41.009   0.390
10491W        W74435  35.424  35.459   2.385
10492W        W74436  12.833   4.854   4.245
10493W        W74437   0.852  11.131   0.474
10494W        W74438  42.326  15.686  14.423
10495W        W74439  10.302  25.587  12.869
10496W        W74440   6.724  42.828   3.738
10497W        W74441  27.154  21.091   0.327
10498W        W74442  30.073   3.219  12.496
10499W        W74443  26.655  25.128   1.214
10500W        W74444   8.326  31.601   3.358
10501W        W74445  10.258  19.202   4.643
10502W        W74446  13.132  19.222  14.508
10503W        W74447  37.861  10.238   0.802
10504W        W74448   8.356  25.647  11.104
10505W        W74449  25.705  18.580  11.523
10506W        W74450  13.140  35.916  13.450
10507W        W74451   7.389  38.905  14.908
10508W        W74452  35.365  18.069  14.772
10509W        W74453  15.291  16.134   0.816
10510W        W74454  22.204  25.709  13.006
10511W        W74455   8.775  36.451   0.927
10512W        W74456  44.792  31.492  11.415
10513W        W74457   1.919  31.636  14.989
10514W        W74458  26.028  25.654  11.967
10515W        W74459  22.023  42.864  12.934
10516W        W74460  12.774  21.655   2.254
10517W        W74461  32.017  30.134  13.904
10518W        W74462  25.475  28.051   1.314
10519W        W74463   7.773  32.585   4.740
10520W        W74464  25.671  19.745  12.848
10521W        W74465  29.573  35.937   0.329
10522W        W74466   5.910   6.283  14.479
10523W        W74467  44.990   0.905  13.311
10524W        W74468  16.795  16.655  13.425
10525W        W74469  23.120  19.678   1.912
10526W        W74470   4.827   4.369   0.416
10527W        W74471  22.104  33.570   1.353
10528W        W74472   7.193  43.775  14.377
10529W        W74473  23.606  41.476   4.272
10530W        W74474  22.022  16.679  11.058
10531W        W74475  40.926  43.486   0.757
10532W        W74476   9.841  28.566  14.803
10533W        W74477  25.026  12.197   2.670
10534W        W74478  16.271  10.803   9.489
10535W        W74479  39.397  27.134  11.875
10536W        W74480  20.151  42.503  12.450
10537W        W74481  30.550  13.839   4.170
10538W        W74482  19.251  29.579   1.304
10539W        W74483  32.008   8.749   1.875
10540W        W74484   0.814  37.087   3.711
10541W        W74485  14.311  37.976   3.757
10542W        W74486  28.476  34.531   4.830
10543W        W74487   8.774  29.637   2.869
10544W        W74488  10.826  42.467  12.392
10545W        W74489  27.993  22.666  12.867
10546W        W74490   0.377   0.336  14.411
10547W        W74491  38.828  38.982   0.255
10548W        W74492  29.010  44.785   4.813
10549W        W74493   2.934  15.299   0.871
10550W        W74494   1.448   4.776   3.732
10551W        W74495  29.587   3.386   4.201
10552W        W74496  17.085  39.458  10.148
10553W        W74497  17.568  16.279  13.821
10554W        W74498  41.361  41.840  13.995
10555W        W74499  16.733   6.913  13.398
10556W        W74500   7.844  39.970   0.322
10557W        W74501   2.470  43.931   0.926
10558W        W74502  26.160   2.843  11.883
10559W        W74503  33.018  21.193  12.526
10560W        W74504   2.373  22.032   4.144
10561W        W74505  36.518  33.913  14.823
10562W        W74506  15.619  43.925  10.564
10563W        W74507  20.200  21.641   2.801
10564W        W74508  30.598  34.401   2.242
10565W        W74509  43.419  10.379   4.688
10566W        W74510  26.631  37.410   1.906
10567W        W74511   7.724  41.345  11.939
10568W        W74512  25.090  22.689   1.242
10569W        W74513  28.625   9.327  10.452
10570W        W74514   5.906  33.106   2.233
10571W        W74515  39.511  10.689  14.397
10572W        W74516   1.385  22.109  13.426
10573W        W74517  14.835  13.832   1.420
10574W        W74518  44.399  27.064  12.387
10575W        W74519   8.371  40.418   1.229
10576W        W74520  32.491  27.495  12.509
10577W        W74521   1.403   7.320  13.384
10578W        W74522   8.222  24.721  12.870
10579W        W74523  14.613  27.633  11.518
10580W        W74524  34.976  38.856  10.512
10581W        W74525  36.377  12.637  10.494
10582W        W74526  16.216  44.278   4.681
10583W        W74527  34.073   3.872  12.001
10584W        W74528  30.520  43.338   4.165
10585W        W74529   4.791   1.951  11.414
10586W        W74530  27.184  38.037   2.278
10587W        W74531  22.646  41.445  11.935
10588W        W74532  41.512   6.421  13.812
10589W        W74533  24.725  20.687   1.341
10590W        W74534  10.744  38.564  11.007
10591W        W74535  39.854  15.642  14.030
10592W        W74536  14.329  34.046  10.465
10593W        W74537  40.390  31.063  14.333
10594W        W74538  30.445   2.822   4.240
10595W        W74539  19.678  10.656   0.280
10596W        W74540  33.972  13.699   2.876
10597W        W74541  38.877  43.855  11.483
10598W        W74542  39.929  23.091   4.235
10599W        W74543  43.939  18.154  14.392
10600W        W74544  40.497  21.723   1.760
10601W        W74545  30.639  18.546  12.024
10602W        W74546  13.810  11.322  11.861
10603W        W74547   9.710  13.123  11.939
10604W        W74548  25.208  36.985  10.943
10605W        W74549   3.798  37.947  12.005
10606W        W74550  14.609   3.265   4.813
10607W        W74551  37.008  38.898   3.666
10608W        W74552  10.816  30.023   4.680
10609W        W74553   2.274  17.273  13.831
10610W        W74554  28.108  30.088  12.443
10611W        W74555  35.922  43.395   4.137
10612W        W74556  40.369  35.061   5.145
10613W        W74557  12.821  23.685   2.183
10614W        W74558   4.922   6.798  14.935
10615W        W74559  25.690   3.358   5.157
10616W        W74560  44.944  16.085  11.960
10617W        W74561  42.875  42.026   3.850
10618W        W74562  44.477  17.255  12.010
10619W        W74563  18.592   4.933  11.593
10620W        W74564  36.578  27.125  12.051
10621W        W74565   4.882  11.712  12.359
10622W        W74566  39.049  23.574  13.019
10623W        W74567  42.350  32.069  12.419
10624W        W74568   2.302  12.362   0.957
10625W        W74569  27.168  17.784   3.786
10626W        W74570  19.599  13.698  12.947
10627W        W74571  35.092   1.283   0.967
10628W        W74572  19.139  42.830   2.341
10629W        W74573  28.182  16.127   4.216
10630W        W74574  40.364  19.733  12.863
10631W        W74575  38.004   9.369   3.766
10632W        W74576  25.114  18.618  11.474
10633W        W74577  42.004  17.260  14.456
10634W        W74578  38.937  26.973   0.424
10635W        W74579   3.274  32.470  13.380
10636W        W74580  19.098  28.101   0.751
10637W        W74581  25.200  14.183   4.239
10638W        W74582   2.858  24.169   0.874
10639W        W74583  44.849  14.153  13.937
10640W        W74584  31.002   3.918  12.525
10641W        W74585  34.002  25.118  10.903
10642W        W74586  21.122  33.498   4.810
10643W        W74587  24.684  28.677   0.396
10644W        W74588   8.822  24.642   3.649
10645W        W74589  30.077  31.069  13.399
10646W        W74590  12.158  40.397   3.756
10647W        W74591  20.167  19.661   1.293
10648W        W74592  44.766  31.066  14.347
10649W        W74593  28.657  38.904   5.586
10650W        W74594  27.555  26.968   3.217
10651W        W74595  41.040  35.440  14.885
10652W        W74596  31.544  36.033  10.912
10653W        W74597  34.495  32.454   3.336
10654W        W74598  15.600  10.866  13.438
10655W        W74599  38.402  14.738  12.083
10656W        W74600  34.115  24.619  11.463
10657W        W74601  35.035  30.490  10.005
10658W        W74602  30.510  35.858   1.379
10659W        W74603  40.413  15.724  14.914
10660W        W74604  23.229  21.721   0.415
10661W        W74605  14.243   0.799   4.306
10662W        W74606   9.699  24.614   1.314
10663W        W74607  12.775   2.962  13.819
10664W        W74608  30.954  10.706   0.320
10665W        W74609   7.823  38.564   2.885
10666W        W74610  40.047  26.196   0.902
10667W        W74611  35.974   2.741  13.814
10668W        W74612  39.441  15.818   3.367
10669W        W74613   4.835   8.680  11.493
10670W        W74614  24.187  32.033  11.546
10671W        W74615   7.773   7.864   2.814
10672W        W74616  38.935  12.225   4.260
10673W        W74617  25.133  30.479   0.918
10674W        W74618  10.303  26.596  12.965
10675W        W74619  40.494   6.245  12.412
10676W        W74620  44.391   7.852  10.515
10677W        W74621   4.924   9.661   5.138
10678W        W74622  22.570  32.015  11.516
10679W        W74623  44.846  44.918  10.606
10680W        W74624   4.905   5.820  11.993
10681W        W74625   6.312  37.374  12.451
10682W        W74626  37.367   7.359   3.216
10683W        W74627   0.312  25.548   0.820
10684W        W74628  39.045  25.046  10.604
10685W        W74629  37.018  16.806   4.214
10686W        W74630   4.811  31.117  14.841
10687W        W74631  35.874  42.289   3.809
10688W        W74632  37.959  18.702  13.807
10689W        W74633  39.924  20.546  13.882
10690W        W74634   7.804  17.697  11.907
10691W        W74635  14.604   5.811  14.900
10692W        W74636   6.677  17.583   3.656
10693W        W74637  30.075   3.373   1.736
10694W        W74638  19.149  22.182   2.766
10695W        W74639  40.303  33.406  13.824
10696W        W74640  38.379  35.854  13.462
10697W        W74641  33.448  12.716   1.437
10698W        W74642  24.188  30.997  14.300
10699W        W74643  21.229   7.234  12.502
10700W        W74644   6.851  39.976  14.418
10701W        W74645  27.019   2.767   2.712
10702W        W74646  17.210  10.666   2.797
10703W        W74647  20.528  38.075   4.227
10704W        W74648  26.977  30.582   0.778
10705W        W74649   8.296   8.183   2.230
10706W        W74650  26.471  32.938   0.346
10707W        W74651  24.224   5.812  10.594
10708W        W74652  29.972   1.253   2.717
10709W        W74653  38.978  14.151   0.330
10710W        W74654  34.600  11.626  13.862
10711W        W74655  26.168  16.767   3.307
10712W        W74656  27.188   1.909   1.832
10713W        W74657  25.115  40.043  14.788
10714W        W74658  21.234  10.214   0.790
10715W        W74659  41.300  41.014   4.648
10716W        W74660   1.383  40.932  12.430
10717W        W74661  19.581  16.658   1.929
10718W        W74662  18.576  29.051  11.602
10719W        W74663  35.464  39.921   1.911
10720W        W74664  31.131  43.356   2.900
10721W        W74665  32.423   8.705  11.406
10722W        W74666  29.470   4.229   3.694
10723W        W74667  37.996  37.554   1.756
10724W        W74668   6.734   5.924  14.763
10725W        W74669  36.921  37.432   2.337
10726W        W74670  44.961  39.327   1.703
10727W        W74671  19.696  29.512   2.355
10728W        W74672  42.288  27.115  14.976
10729W        W74673  39.358  15.223   0.923
10730W        W74674   8.165  32.435   0.850
10731W        W74675  12.332  16.188   1.214
10732W        W74676  21.690  13.780  14.016
10733W        W74677   3.279   1.828   0.405
10734W        W74678   3.939   5.291  14.014
10735W        W74679  23.560  21.228   3.157
10736W        W74680  17.571  20.580   5.089
10737W        W74681  14.642   6.311   2.764
10738W        W74682  25.041  10.273  11.020
10739W        W74683  19.158  42.981   4.834
10740W        W74684  38.017  23.585  11.399
10741W        W74685   2.343  38.356   1.703
10742W        W74686   0.295  17.127  12.554
10743W        W74687  23.495  18.064   4.623
10744W        W74688  36.970   8.254  12.420
10745W        W74689  31.972  27.033  14.427
10746W        W74690  43.435   1.367  14.368
10747W        W74691  25.082  15.812  12.095
10748W        W74692  12.636  39.433   3.235
10749W        W74693  25.118  40.508  10.444
10750W        W74694  24.169   9.654   3.156
10751W        W74695  29.028  34.983   1.342
10752W        W74696  41.436  42.903  10.893
10753W        W74697  21.566  19.653  12.399
10754W        W74698   8.807  29.440  11.374
10755W        W74699   3.859  28.662   1.808
10756W        W74700  19.698  41.325  10.560
10757W        W74701  13.195  44.875  11.537
10758W        W74702  25.522  34.484  13.855
10759W        W74703   1.837  14.197   3.245
10760W        W74704  14.144  13.722  11.555
10761W        W74705  22.239  10.224  10.121
10762W        W74706  44.930  14.296   3.387
10763W        W74707   1.469  43.456   0.814
10764W        W74708  29.426  44.439   0.307
10765W        W74709  19.775  31.593  14.372
10766W        W74710  12.146  29.480   0.461
10767W        W74711   8.659  34.547   1.871
10768W        W74712  24.980  19.544   3.266
10769W        W74713   6.213  17.244   1.697
10770W        W74714  39.359  37.874  13.396
10771W        W74715  38.449  11.135  11.444
10772W        W74716  43.469   6.891  11.097
10773W        W74717  23.035  29.067  14.871
10774W        W74718  12.747   7.688  11.971
10775W        W74719  31.972  24.647   1.417
10776W        W74720  44.446  43.808  12.571
10777W        W74721  12.270  14.197   1.325
10778W        W74722   2.892  29.069  14.910
10779W        W74723  12.342  26.043   0.261
10780W        W74724  29.638  34.510  11.993
10781W        W74725  14.820  41.520   2.772
10782W        W74726  21.515  19.174   3.370
10783W        W74727   2.449  18.051  14.778
10784W        W74728   1.739  25.503  14.882
10785W        W74729  31.504  29.007  11.998
10786W        W74730  24.214   3.362  11.030
10787W        W74731  19.616  12.275   0.314
10788W        W74732  10.755  25.502  12.383
10789W        W74733  37.573  37.352   4.284
10790W        W74734   5.427  23.731  10.636
10791W        W74735  39.838  37.919  13.372
10792W        W74736   2.385  40.324   4.597
10793W        W74737  42.862  38.003  14.928
10794W        W74738  35.907  38.004  14.866
10795W        W74739  20.211   5.332   2.269
10796W        W74740  43.828  40.038   3.744
10797W        W74741  31.928   5.910   1.839
10798W        W74742  32.462   6.265   2.868
10799W        W74743  35.057  20.242   0.886
10800W        W74744  29.656  33.128  11.944
10801W        W74745   7.397  19.046  13.536
10802W        W74746  34.029  17.126   3.845
10803W        W74747   1.786  19.162   0.837
10804W        W74748  39.962  37.520   3.261
10805W        W74749  36.992  20.695  14.288
10806W        W74750  40.308  28.507   3.786
10807W        W74751  20.219  41.372  10.034
10808W        W74752  10.718  35.424  12.048
10809W        W74753   2.377  27.453  11.552
10810W        W74754  18.197  25.597  11.910
10811W        W74755  10.315   7.181  12.447
10812W        W74756   9.155  27.665  10.452
10813W        W74757  12.347  42.941   2.837
10814W        W74758  43.009   1.351   0.797
10815W        W74759  24.624  18.189  12.413
10816W        W74760   7.416  41.804   0.290
10817W        W74761  26.495  16.268   3.740
10818W        W74762  43.949  10.170  14.826
10819W        W74763   2.747  15.268   4.331
10820W        W74764   6.677  18.670   3.673
10821W        W74765  39.881  33.582   2.762
10822W        W74766  42.470  35.100  11.860
10823W        W74767  25.054   3.333   0.943
10824W        W74768  17.189  11.342   4.637
10825W        W74769  13.262  24.496  14.784
10826W        W74770  37.029  32.569   0.274
10827W        W74771  17.296   1.849   4.210
10828W        W74772  38.062  28.577   0.436
10829W        W74773  13.281  29.537   3.702
10830W        W74774  22.546  42.967   3.361
10831W        W74775  36.971  41.304   1.823
10832W        W74776  33.517  32.108   2.195
10833W        W74777   2.258   7.737   2.856
10834W        W74778   7.282  12.190  11.499
10835W        W74779  34.379   4.751  14.942
10836W        W74780  40.533   4.445  10.928
10837W        W74781  30.547  23.689  12.374
10838W        W74782  12.843  31.493  11.449
10839W        W74783   4.910  19.713   4.331
10840W        W74784  29.429   0.930  11.025
10841W        W74785   2.722  18.134   4.267
10842W        W74786  21.075  22.006  13.324
10843W        W74787  21.748  40.954  14.377
10844W        W74788   2.953   5.365   1.873
10845W        W74789  10.313  25.538  10.079
10846W        W74790  13.272   0.462   0.390
10847W        W74791  20.214  43.318  13.906
10848W        W74792  11.259  34.092  11.922
10849W        W74793  35.057  30.150   0.824
10850W        W74794  14.816  10.839   4.260
10851W        W74795  22.045   7.829   1.922
10852W        W74796  17.240  41.946  10.452
10853W        W74797  43.402  39.475  10.976
10854W        W74798  30.630  24.504  14.776
10855W        W74799  23.201  22.583  12.475
10856W        W74800  26.667  24.631   0.305
10857W        W74801   4.786  18.285   4.672
10858W        W74802  15.269  44.434   1.837
10859W        W74803  41.001  11.632  13.826
10860W        W74804  19.236  24.481  12.920
10861W        W74805  16.244  34.878   3.776
10862W        W74806  12.221  37.868   0.311
10863W        W74807  11.167  17.303  10.471
10864W        W74808  26.617  38.946   2.714
10865W        W74809  22.679  17.255  11.088
10866W        W74810  17.292   0.875   2.384
10867W        W74811  28.559  29.166  14.310
10868W        W74812   7.396  10.314  11.559
10869W        W74813   6.875  15.118   5.290
10870W        W74814  24.007  33.436   4.235
10871W        W74815   7.210  11.762   1.886
10872W        W74816   0.901  30.595   1.389
10873W        W74817  10.814  32.632   3.717
10874W        W74818   3.332  24.529  14.297
10875W        W74819  20.529  22.113   0.439
10876W        W74820  11.687  12.210  12.054
10877W        W74821  36.093  17.305   2.680
10878W        W74822  39.822  12.181  11.895
10879W        W74823   0.305  27.663   4.312
10880W        W74824   7.351   8.336   2.802
10881W        W74825  16.631  29.588   4.275
10882W        W74826  39.507  20.090   1.750
10883W        W74827  33.540  18.169  13.008
10884W        W74828  12.629  18.739  11.027
10885W        W74829   5.221  37.943  12.062
10886W        W74830  43.396  37.503   4.700
10887W        W74831   6.781  26.470   2.294
10888W        W74832   1.961  43.927   0.331
10889W        W74833  16.623   7.885   3.241
10890W        W74834  15.322  37.896   2.857
10891W        W74835  16.758  33.445   2.198
10892W        W74836  29.957  36.907   3.688
10893W        W74837   2.240   8.881   0.962
10894W        W74838   0.432  32.498  12.075
10895W        W74839  13.672   7.741  10.513
10896W        W74840  39.546  23.543   3.285
10897W        W74841  34.986  25.544  10.479
10898W        W74842   6.240  27.645  11.976
10899W        W74843  19.708  11.169   0.347
10900W        W74844  14.671  25.081  13.949
10901W        W74845  35.902   5.207   5.250
10902W        W74846  23.164  11.633   1.825
10903W        W74847  25.111  44.911  13.428
10904W        W74848  15.236  25.506   3.300
10905W        W74849  18.664  12.296   4.800
10906W        W74850  14.592  40.036   2.902
10907W        W74851  28.105   4.712  14.481
10908W        W74852  17.287  36.885  13.023
10909W        W74853  21.524  29.987   2.764
10910W        W74854  39.875  31.051   3.165
10911W        W74855  26.059  37.972  10.406
10912W        W74856  16.283   2.911  12.960
10913W        W74857   0.753  34.536  12.832
10914W        W74858  32.606  37.366   4.768
10915W        W74859  10.832  39.866   2.320
10916W        W74860  23.654   7.830  10.539
10917W        W74861  36.372  32.541  11.030
10918W        W74862   5.912   6.423  11.499
10919W        W74863  14.819  17.711   2.757
10920W        W74864  25.070   0.419  10.451
10921W        W74865  41.933  13.144  12.469
10922W        W74866  38.480  25.005  10.617
10923W        W74867  22.173  41.436   2.413
10924W        W74868   2.466  13.770   4.714
10925W        W74869  18.245  15.666   0.835
10926W        W74870  33.027  35.495  14.281
10927W        W74871   4.699  25.085   0.943
10928W        W74872   9.812  30.976  10.911
10929W        W74873  44.973  24.595   0.374
10930W        W74874  27.100  23.570  12.843
10931W        W74875  15.746  25.120  13.517
10932W        W74876   8.285   6.841  11.476
10933W        W74877  17.611   0.314   3.223
10934W        W74878  31.997  34.883   3.669
10935W        W74879  15.677   7.206  13.876
10936W        W74880  15.792  25.177   5.320
10937W        W74881   9.872   3.905  10.911
10938W        W74882  14.810  36.499  13.961
10939W        W74883  14.610  25.595   4.320
10940W        W74884   5.199  43.353   1.401
10941W        W74885   1.254  29.590  12.568
10942W        W74886  36.447  31.980   1.433
10943W        W74887  18.115   7.331  11.099
10944W        W74888   3.880  35.471   1.276
10945W        W74889  13.252  20.533   1.261
10946W        W74890  10.878  38.823  12.892
10947W        W74891  35.024  28.673  11.042
10948W        W74892  34.019  15.313   1.793
10949W        W74893  27.499  14.612   4.144
10950W        W74894  38.931  42.967   1.445
10951W        W74895  13.252  28.017  13.473
10952W        W74896  15.723  36.091  10.405
10953W        W74897  31.535   2.241  13.829
10954W        W74898   5.786  39.473   1.863
10955W        W74899  27.611  39.037   4.825
10956W        W74900   7.854  40.319  13.378
10957W        W74901   9.819  29.010  13.798
10958W        W74902  41.919   3.940   3.188
10959W        W74903  11.702  28.053   2.353
10960W        W74904   4.335   3.426  11.534
10961W        W74905   6.733  28.612   1.443
10962W        W74906  10.246  34.048   3.266
10963W        W74907  13.676  17.744   3.784
10964W        W74908  26.958  11.181   2.338
10965W        W74909  28.140   5.785   9.956
10966W        W74910   7.820  34.429   0.273
10967W        W74911  20.568  26.702  13.315
10968W        W74912  13.137  41.422  13.368
10969W        W74913   3.940  26.457  10.999
10970W        W74914   8.206  17.169  11.117
10971W        W74915   1.843  34.996  13.994
10972W        W74916   3.738  20.219  11.386
10973W        W74917  13.811  31.967  10.535
10974W        W74918  11.652  32.127   0.781
10975W        W74919  41.421   3.428  14.000
10976W        W74920  21.135   8.208   0.952
10977W        W74921  12.175  12.333  13.306
10978W        W74922  33.096  14.814   2.197
10979W        W74923  33.060  40.023  12.834
10980W        W74924  25.630  41.984   2.800
10981W        W74925  39.001  24.658  14.959
10982W        W74926  18.604   4.269  11.494
10983W        W74927  39.465  33.937  12.052
10984W        W74928  38.976  14.628  13.903
10985W        W74929  24.108  22.691  13.811
10986W        W74930   0.827  35.947   2.664
10987W        W74931  38.838  21.246   3.205
10988W        W74932  36.386  31.447  12.824
10989W        W74933  15.280   3.260   9.674
10990W        W74934  33.531   5.763  14.441
10991W        W74935  37.021  13.637  11.089
10992W        W74936  22.088  32.982  13.483
10993W        W74937   0.798  25.190   1.392
10994W        W74938  43.947  43.990  13.992
10995W        W74939   5.356  27.568  14.898
10996W        W74940   4.841  16.302   2.186
10997W        W74941   6.820   5.797   4.314
10998W        W74942  23.643  23.105  14.939
10999W        W74943   4.892  37.077  13.898
11000W        W74944   6.400  34.539   1.420
11001W        W74945  42.345  35.005   1.436
11002W        W74946  18.122  32.480   3.847
11003W        W74947  38.889  35.565  13.547
11004W        W74948  40.038  25.092   0.873
11005W        W74949  18.271  21.748   3.860
11006W        W74950  28.576  24.609   3.325
11007W        W74951  27.148  13.189  11.391
11008W        W74952  14.252  36.907  11.485
11009W        W74953   1.483   0.471   2.697
11010W        W74954  11.186  28.448  12.918
11011W        W74955  11.806  28.961   1.881
11012W        W74956   9.245  10.750   1.313
11013W        W74957   4.319   4.806  14.490
11014W        W74958  35.098  39.964   4.194
11015W        W74959  11.167   4.301   0.967
11016W        W74960   5.307   3.343   3.303
11017W        W74961  44.813  32.990  10.642
11018W        W74962  28.149  37.979  14.501
11019W        W74963  43.977  25.988  11.571
11020W        W74964  24.006  36.392  14.876
11021W        W74965  15.117  26.088   4.298
11022W        W74966   2.228  35.858   4.702
11023W        W74967  43.925  27.474   0.373
11024W        W74968   4.777   1.286   0.866
11025W        W74969   7.824  37.927   4.273
11026W        W74970  36.564  19.723  10.893
11027W        W74971  17.771   5.906  14.344
11028W        W74972  19.607  11.813  12.078
11029W        W74973  19.200   8.847   3.653
11030W        W74974  36.909  36.089  12.882
11031W        W74975   9.268  12.194  10.935
11032W        W74976   7.815  12.643   9.993
11033W        W74977  36.976  31.608   0.467
11034W        W74978  30.025  18.661   1.253
11035W        W74979  35.880  25.128   0.401
11036W        W74980  13.602  43.768  13.370
11037W        W74981   9.285   8.813  12.859
11038W        W74982  13.331  38.529   2.876
11039W        W74983   7.684  42.514  14.474
11040W        W74984  17.297  21.532   4.160
11041W        W74985  36.365  10.708   4.759
11042W        W74986  29.937  39.002  14.434
11043W        W74987   0.762   0.384   2.787
11044W        W74988   3.293   6.378   3.231
11045W        W74989  30.511  33.581  11.866
11046W        W74990  33.902  13.742   4.176
11047W        W74991  28.049  20.238  14.465
11048W        W74992  32.935  40.424   0.752
11049W        W74993  24.034  38.902   4.761
11050W        W74994  23.034  27.942  14.317
11051W        W74995  39.899   7.223   3.763
11052W        W74996  15.191  15.675   3.747
11053W        W74997  17.701   5.235  12.005
11054W        W74998  22.625  21.703   3.694
11055W        W74999  15.791  26.459  13.834
11056W        W75000  35.981  23.207  11.947
11057W        W75001   7.295   0.471   0.772
11058W        W75002  39.338   8.374  11.494
11059W        W75003  37.373   4.270  14.284
11060W        W75004   0.487  34.934  11.569
11061W        W75005  15.172  37.995   4.119
11062W        W75006  32.914  27.053  14.514
11063W        W75007  20.214  30.526  10.982
11064W        W75008  30.138  41.394   2.288
11065W        W75009  31.532  11.330  13.826
11066W        W75010  25.130  33.937  13.454
11067W        W75011   5.309  36.984  11.905
11068W        W75012   1.381   6.252  13.870
11069W        W75013   8.656  44.777  14.322
11070W        W75014   4.314  11.236  10.409
11071W        W75015  27.455  22.724   1.399
11072W        W75016  32.419  40.497  11.410
11073W        W75017   2.455  23.138   0.368
11074W        W75018  24.533  21.129  14.368
11075W        W75019  41.368  29.008  10.511
11076W        W75020  37.981  24.552   3.664
11077W        W75021  40.884  24.164   2.734
11078W        W75022  20.061  44.274   1.882
11079W        W75023  24.046  40.391   2.850
11080W        W75024  21.055  29.067   2.691
11081W        W75025  16.118  43.515   3.657
11082W        W75026  38.561  28.524  12.889
11083W        W75027  44.276  44.301  13.398
11084W        W75028  42.503  18.691   2.326
11085W        W75029  18.224  17.155   1.933
11086W        W75030   7.339   6.810   1.319
11087W        W75031  26.685  19.756   4.803
11088W        W75032   1.483   5.411   2.829
11089W        W75033   0.367   1.238   3.708
11090W        W75034   4.935  24.220  14.888
11091W        W75035  28.178  12.676   2.197
11092W        W75036  33.485  20.051   3.742
11093W        W75037   3.367  32.905  11.039
11094W        W75038  38.462  22.245  10.618
11095W        W75039  21.166  44.316   1.267
11096W        W75040  35.005   9.771  13.373
11097W        W75041  24.112  25.085   3.763
11098W        W75042  40.952   7.367   2.901
11099W        W75043   2.268  33.449   3.240
11100W        W75044  17.291  25.644   0.435
11101W        W75045  11.824   3.226  13.036
11102W        W75046   9.748   9.395  13.009
11103W        W75047  37.433  18.091  11.949
11104W        W75048  25.150  24.595   3.255
11105W        W75049   7.715  29.611  13.436
11106W        W75050  35.012  36.016   4.617
11107W        W75051  29.175   4.210  13.029
11108W        W75052  39.937   7.850  10.902
11109W        W75053  12.630   6.315  10.592
11110W        W75054  42.865  34.558  13.832
11111W        W75055  21.670  28.676  11.989
11112W        W75056  37.027  36.907   3.865
11113W        W75057  23.058  30.911   0.404
11114W        W75058  43.495  26.154  14.840
11115W        W75059  35.885  21.629  12.969
11116W        W75060   1.970  25.034  13.063
11117W        W75061   1.789  33.885  13.030
11118W        W75062   6.330  17.724   2.858
11119W        W75063  13.201  33.502   2.384
11120W        W75064   6.184  42.404  10.588
11121W        W75065  13.183  32.081   2.788
11122W        W75066  39.502  34.988   4.792
11123W        W75067  20.707  37.994  11.949
11124W        W75068  22.999  23.021   4.162
11125W        W75069  29.659  35.400   2.373
11126W        W75070   9.848  44.781   3.683
11127W        W75071  28.010  39.342   1.405
11128W        W75072  38.895  37.560  14.933
11129W        W75073   2.958  31.152  13.545
11130W        W75074   7.681  35.926   1.374
11131W        W75075  22.049  35.969  11.093
11132W        W75076  16.715  23.675   1.242
11133W        W75077   5.314  18.756  13.393
11134W        W75078  41.371  39.421  13.483
11135W        W75079  15.209  41.299   1.911
11136W        W75080  35.443  12.196  14.833
11137W        W75081  14.180  30.499  10.483
11138W        W75082  15.266  18.658  13.480
11139W        W75083   9.888  28.605  12.544
11140W        W75084  10.835  24.575   4.319
11141W        W75085  36.579  31.492   0.948
11142W        W75086  42.411   0.749   4.716
11143W        W75087   5.743   4.869  12.830
11144W        W75088  39.917  36.094   3.246
11145W        W75089  14.196  20.083   4.353
11146W        W75090  11.341   0.888  13.418
11147W        W75091   6.248  23.996   4.779
11148W        W75092  11.334  32.468   2.301
11149W        W75093  39.051  26.974  11.877
11150W        W75094  26.044  38.431  10.443
11151W        W75095  20.561  41.406   3.287
11152W        W75096  24.992  35.923   2.809
11153W        W75097  39.443  22.204  13.392
11154W        W75098  44.269   0.923   1.934
11155W        W75099  39.835  38.862   4.184
11156W        W75100  28.056  44.001  12.469
11157W        W75101  13.766  12.639   2.398
11158W        W75102   2.253  29.593  12.577
11159W        W75103  25.977  25.976  13.986
11160W        W75104  30.447  26.111   1.810
11161W        W75105  44.352  16.635   3.336
11162W        W75106  33.061   0.428   4.763
11163W        W75107  34.037  24.578   2.231
11164W        W75108  36.071   3.871   0.763
11165W        W75109  39.394  36.907  14.818
11166W        W75110   5.801  26.131  13.848
11167W        W75111  26.999  26.621  13.546
11168W        W75112   4.727  39.032  12.473
11169W        W75113   7.348  13.198  13.983
11170W        W75114  29.525  30.643  10.426
11171W        W75115  26.128  29.460  12.056
11172W        W75116  10.275  13.649  13.345
11173W        W75117  41.331  40.033   2.230
11174W        W75118   4.904  14.127  12.047
11175W        W75119   8.172  15.243  11.436
11176W        W75120  30.427   0.763  10.996
11177W        W75121  40.391   5.796   0.448
11178W        W75122  16.098  20.054  11.551
11179W        W75123   4.837  22.572  11.031
11180W        W75124  23.114  17.150   0.399
11181W        W75125  30.053  15.126   0.908
11182W        W75126  13.758  10.227  13.017
11183W        W75127  44.298  38.916  14.904
11184W        W75128  20.691  43.292   2.777
11185W        W75129   1.382  16.215  13.995
11186W        W75130  30.046   8.725   2.285
11187W        W75131  43.020   7.274  10.955
11188W        W75132   9.302  29.050   1.333
11189W        W75133  42.389   1.883   3.699
11190W        W75134  44.764  23.068  12.386
11191W        W75135   9.868  23.604  10.513
11192W        W75136  11.787  27.975   1.882
11193W        W75137  15.774  40.313   0.303
11194W        W75138  43.508  14.601   2.787
11195W        W75139  25.668  14.199  14.012
11196W        W75140  17.566  26.640   1.710
11197W        W75141  13.180  27.999  14.903
11198W        W75142   6.290   7.748   3.284
11199W        W75143  32.894  40.845  12.893
11200W        W75144   0.902   9.389   3.832
11201W        W75145  17.704  36.539   3.838
11202W        W75146  16.149  42.980   3.350
11203W        W75147  15.709  20.143   4.824
11204W        W75148  36.499  40.502  13.362
11205W        W75149  34.096  39.948  13.832
11206W        W75150   6.782  41.826   4.615
11207W        W75151  35.104  24.673  14.875
11208W        W75152   0.482   7.810   5.300
11209W        W75153  41.488   0.935   3.213
11210W        W75154  44.923  22.086  10.544
11211W        W75155  21.225  44.876  12.924
11212W        W75156  11.274  41.001  14.456
11213W        W75157  15.143  19.699  11.490
11214W        W75158  42.348  25.998  13.034
11215W        W75159  34.005  18.120  12.448
11216W        W75160  41.324  35.552  14.015
11217W        W75161   3.950  26.984  13.480
11218W        W75162   0.777  25.520   0.845
11219W        W75163  38.427   0.247  12.885
11220W        W75164  20.182  40.917   4.231
11221W        W75165  13.605  21.523  11.565
11222W        W75166  40.931  14.682   3.249
11223W        W75167  30.625  33.590  11.390
11224W        W75168  30.141  19.625  13.001
11225W        W75169   1.241  12.667   1.347
11226W        W75170  17.206  18.555  11.390
11227W        W75171  29.641  37.006   2.843
11228W        W75172   0.890  18.676   1.701
11229W        W75173   0.889   0.753  13.329
11230W        W75174  22.075  18.771  14.370
11231W        W75175   9.735  30.931  14.420
11232W        W75176  39.020  25.107   2.837
11233W        W75177  41.479  10.354  13.367
11234W        W75178   2.466   5.826   2.216
11235W        W75179  32.930  15.102   4.283
11236W        W75180  37.378   7.810  12.880
11237W        W75181  26.052   1.828  14.850
11238W        W75182  23.543   4.747  11.585
11239W        W75183  21.083  43.894   3.676
11240W        W75184  13.764  18.213   1.216
11241W        W75185  44.775  40.940   3.187
11242W        W75186  24.034  34.049  12.374
11243W        W75187  18.575  16.790   1.751
11244W        W75188  16.600   9.814   3.378
11245W        W75189   8.260   4.261  11.507
11246W        W75190  28.096   4.795   1.918
11247W        W75191   8.734  40.797   3.634
11248W        W75192  19.144  18.579  14.831
11249W        W75193  24.214  41.891   3.220
11250W        W75194  41.490  19.676   2.226
11251W        W75195  20.705  43.885   4.279
11252W        W75196  42.962   0.304  12.396
11253W        W75197  29.967   5.715   3.381
11254W        W75198   0.416   8.182  12.539
11255W        W75199   0.373  11.806  11.462
11256W        W75200  19.188  21.245   1.351
11257W        W75201  36.918   9.297  14.361
11258W        W75202   4.449  26.050  14.878
11259W        W75203  14.222  30.040  12.866
11260W        W75204   9.294  36.892   1.839
11261W        W75205  43.784  11.259   4.347
11262W        W75206  29.129  23.052  12.458
11263W        W75207  22.203  44.906   0.788
11264W        W75208  12.830  24.057  12.414
11265W        W75209   0.852  19.047  11.970
11266W        W75210   6.716  24.064  14.510
11267W        W75211  36.984  36.074   2.848
11268W        W75212   7.809  31.484  11.407
11269W        W75213  37.382  41.807  11.050
11270W        W75214   5.930  13.837   3.291
11271W        W75215  40.480  27.631  11.958
11272W        W75216  24.489  32.136   3.869
11273W        W75217   0.762   1.771   5.130
11274W        W75218  22.040  19.142   0.882
11275W        W75219  13.619   5.702   4.642
11276W        W75220  17.186   2.358  14.409
11277W        W75221  27.108  27.613   0.793
11278W        W75222  42.446  10.864   2.836
11279W        W75223  33.960  39.911   0.268
11280W        W75224  25.664  35.422  13.853
11281W        W75225  17.198  33.952  10.043
11282W        W75226  11.632  26.004   3.197
11283W        W75227   2.385  25.990   3.805
11284W        W75228   4.417  26.528  13.982
11285W        W75229  27.094   7.798  13.344
11286W        W75230  35.971  28.975  13.423
11287W        W75231  42.783  20.197   2.306
11288W        W75232  26.191   9.176  12.561
11289W        W75233   3.856  13.333   2.879
11290W        W75234  40.307  25.667  12.529
11291W        W75235  34.562  25.519   3.766
11292W        W75236   2.326  19.076   4.219
11293W        W75237  21.577  36.493  10.947
11294W        W75238   5.235  29.985  12.913
11295W        W75239  21.070  27.623  10.079
11296W        W75240  43.798   7.304   2.411
11297W        W75241  15.235  27.500   2.334
11298W        W75242  17.791  23.163  11.584
11299W        W75243  31.057  31.948  14.414
11300W        W75244  20.523  39.369   4.745
11301W        W75245  37.528  28.096  11.893
11302W        W75246  15.783  43.916   3.806
11303W        W75247  17.167   7.677   3.728
11304W        W75248  15.253  19.704   4.664
11305W        W75249   8.365  26.577   1.220
11306W        W75250  32.885  12.796  11.448
11307W        W75251   3.300  25.989  13.318
11308W        W75252  21.196  44.801  14.797
11309W        W75253  34.511   3.237  11.101
11310W        W75254  32.604  35.865   0.418
11311W        W75255  13.207  24.978   0.247
11312W        W75256  27.159  34.600  14.864
11313W        W75257  27.642   3.883  10.629
11314W        W75258  37.490  35.917  14.816
11315W        W75259  17.786  39.542   1.210
11316W        W75260  26.105  18.108   0.451
11317W        W75261  34.938   8.725   0.731
11318W        W75262   2.296  17.690  11.069
11319W        W75263  16.135  31.465   1.214
11320W        W75264  18.169   4.394  13.832
11321W        W75265  43.784   7.876  12.065
11322W        W75266  26.986  26.476   3.788
11323W        W75267   2.256  20.149   3.318
11324W        W75268  31.453  12.277  10.969
11325W        W75269  13.709  35.969   0.365
11326W        W75270   4.303  42.473  13.054
11327W        W75271  27.597  10.170   9.966
11328W        W75272  18.121  34.535  11.919
11329W        W75273  42.009  11.252   4.124
11330W        W75274  40.023  24.612  11.474
11331W        W75275  17.296  13.291   2.701
11332W        W75276  18.604  34.435  13.890
11333W        W75277  25.574  14.327  10.104
11334W        W75278  41.491  36.854   3.636
11335W        W75279  40.875  40.801   1.378
11336W        W75280  42.890   9.771   4.628
11337W        W75281  40.408   7.801   3.685
11338W        W75282   7.359  41.033  14.369
11339W        W75283  38.948  16.097  12.917
11340W        W75284   4.928   0.919  10.404
11341W        W75285  24.231  30.587  10.985
11342W        W75286  37.884  11.725   4.135
11343W        W75287  28.593  11.820  11.579
11344W        W75288  28.552  27.187  10.942
11345W        W75289  40.335  24.671  13.935
11346W        W75290  28.599  40.929   4.824
11347W        W75291   6.273  42.942   1.900
11348W        W75292  40.040   3.405  14.457
11349W        W75293  28.991   0.826   2.206
11350W        W75294  19.245   7.703  11.861
11351W        W75295  44.473   4.282   1.244
11352W        W75296   2.762  19.729   1.716
11353W        W75297  23.492  22.597  14.842
11354W        W75298   1.270  13.207   3.259
11355W        W75299   6.844   5.768   2.229
11356W        W75300  31.906   8.717  14.873
11357W        W75301   5.864  40.807  11.488
11358W        W75302  43.832  44.291  13.525
11359W        W75303   1.755  37.910  12.834
11360W        W75304  21.199  26.134  13.857
11361W        W75305   6.273  44.345  12.947
11362W        W75306   4.782  29.135  14.987
11363W        W75307   8.387   6.189   2.763
11364W        W75308   1.774  39.957   3.732
11365W        W75309  29.070  38.330   4.219
11366W        W75310  18.747  22.100   9.588
11367W        W75311   4.891   7.791   9.988
11368W        W75312  33.496  42.852  11.096
11369W        W75313  24.599  24.082  10.960
11370W        W75314  26.518   2.775   4.758
11371W        W75315  18.588  15.232  13.350
11372W        W75316  29.065  34.938  14.794
11373W        W75317  25.531  14.822   3.683
11374W        W75318  17.774  31.591   0.879
11375W        W75319  34.883   9.365   2.705
11376W        W75320  27.501  19.189  11.482
11377W        W75321  12.275  25.988  12.034
11378W        W75322  34.947  31.985   5.127
11379W        W75323   9.690  24.712  14.844
11380W        W75324  44.291  33.494  10.519
11381W        W75325   6.356   3.288   3.709
11382W        W75326   5.756  14.138   4.347
11383W        W75327  22.728  35.416   1.741
11384W        W75328  14.766   1.736   5.264
11385W        W75329   9.770  33.113   2.794
11386W        W75330  17.120  21.259  14.809
11387W        W75331  43.877  35.489   3.863
11388W        W75332  38.446  30.062   1.919
11389W        W75333   4.272   2.282  11.982
11390W        W75334   8.784   4.894  12.565
11391W        W75335   0.905  17.303   4.301
11392W        W75336  13.749  21.604   4.262
11393W        W75337  11.313   5.329   0.810
11394W        W75338  27.465  21.660   4.762
11395W        W75339  19.583  22.541   3.239
11396W        W75340  15.664  20.046  14.317
11397W        W75341  11.789  16.119   3.862
11398W        W75342   8.794  44.484   3.331
11399W        W75343  24.701  21.052  12.869
11400W        W75344  10.175  34.986  13.034
11401W        W75345  44.423  14.259  10.074
11402W        W75346   7.684   4.434   2.693
11403W        W75347  24.122  29.095   2.324
11404W        W75348   9.853  25.493   1.738
11405W        W75349  43.859  37.540  13.945
11406W        W75350  23.098  25.530   0.301
11407W        W75351  42.819  19.713   1.866
11408W        W75352  29.649  35.518  13.387
11409W        W75353   0.458  34.068   4.265
11410W        W75354  19.768  23.071  12.004
11411W        W75355  15.701  32.060   0.442
11412W        W75356  33.510   5.752   2.220
11413W        W75357  22.583  38.399  14.453
11414W        W75358  17.253  25.175   1.839
11415W        W75359  22.173  22.134  12.059
11416W        W75360  22.083  37.073  14.867
11417W        W75361  16.196   9.201   4.145
11418W        W75362   1.965   6.356   2.775
11419W        W75363   3.266  27.085   1.849
11420W        W75364  40.979  34.997   0.880
11421W        W75365  43.402  37.362   4.157
11422W        W75366   0.317  31.150  14.449
11423W        W75367   8.253  39.823  11.548
11424W        W75368  10.185   9.228  14.930
11425W        W75369  37.865  42.938  10.449
11426W        W75370  13.690   3.413  10.942
11427W        W75371  27.995  21.610  10.439
11428W        W75372  24.185  10.188   2.258
11429W        W75373   6.206  22.223  13.037
11430W        W75374  35.930  14.593   3.182
11431W        W75375   2.818  24.648   0.321
11432W        W75376  37.504   0.870   4.231
11433W        W75377   0.295  30.615  10.561
11434W        W75378  26.020   4.929  10.430
11435W        W75379   7.672   3.801  11.431
11436W        W75380  13.299   2.922  13.333
11437W        W75381  40.457  20.232  12.474
11438W        W75382  16.103  30.012  11.858
11439W        W75383  22.020  33.129  12.865
11440W        W75384  20.103  25.604   3.365
11441W        W75385  36.451  30.084   0.289
11442W        W75386  43.880  19.676   3.156
11443W        W75387   6.768  27.977   2.895
11444W        W75388  38.927  20.657   2.859
11445W        W75389  44.443   2.960   0.258
11446W        W75390  33.409  36.061   1.444
11447W        W75391  17.619  19.780   3.231
11448W        W75392  12.725  43.301  11.867
11449W        W75393  40.386  44.825   4.626
11450W        W75394  11.857   5.262   2.222
11451W        W75395  12.805  12.136   1.739
11452W        W75396   8.244  13.764   2.737
11453W        W75397  27.060  12.169  14.771
11454W        W75398  17.106  16.696   4.709
11455W        W75399  26.677  37.472   2.732
11456W        W75400  37.428  14.293  11.997
11457W        W75401   9.858  12.847   3.847
11458W        W75402  32.038  33.912  13.793
11459W        W75403  44.931  31.520  12.981
11460W        W75404  33.510  13.624  11.477
11461W        W75405  15.750  43.498   0.392
11462W        W75406   7.208  44.264   2.242
11463W        W75407   2.929   7.772   5.613
11464W        W75408   8.196  33.517   0.302
11465W        W75409  44.796  36.084   3.243
11466W        W75410  35.947  43.994  11.901
11467W        W75411  10.733  24.502   2.849
11468W        W75412   9.698  13.136   4.810
11469W        W75413  25.034   4.329  14.028
11470W        W75414  43.354   6.745   1.814
11471W        W75415   3.281  40.388  14.001
11472W        W75416   8.202  33.897   2.705
11473W        W75417  31.427   0.408  11.875
11474W        W75418  14.338   7.875  10.961
11475W        W75419  35.426  12.822  10.586
11476W        W75420  33.407   0.304  13.483
11477W        W75421   8.758  38.075  12.365
11478W        W75422  27.587   7.712  11.463
11479W        W75423  22.095   4.313  14.330
11480W        W75424  43.887  40.882  10.562
11481W        W75425   6.910   7.810   4.215
11482W        W75426  33.070   9.267   0.342
11483W        W75427  21.114  41.881   3.287
11484W        W75428  17.250  18.572   4.305
11485W        W75429   3.881  29.575   0.426
11486W        W75430  20.602  28.608  14.841
11487W        W75431  28.649  31.599   1.816
11488W        W75432  36.871  25.983   0.933
11489W        W75433   9.156   8.685  10.979
11490W        W75434   1.288  35.865   0.880
11491W        W75435  35.480  17.658  12.878
11492W        W75436  34.527  32.579   0.784
11493W        W75437  33.623  24.639  12.865
11494W        W75438  10.296  18.660   1.283
11495W        W75439  43.419   9.863   4.310
11496W        W75440  40.470  19.226   0.778
11497W        W75441  29.089   6.736   1.396
11498W        W75442  37.885  19.563   0.771
11499W        W75443  25.983  30.651   1.251
11500W        W75444  36.966   5.389  13.336
11501W        W75445  32.001  42.461  12.987
11502W        W75446  13.698  20.108   4.298
11503W        W75447   9.774  32.409  11.398
11504W        W75448  18.784  41.884  14.780
11505W        W75449  26.587  25.032  14.817
11506W        W75450  21.237  22.133   0.787
11507W        W75451   4.242  35.493  13.435
11508W        W75452   0.892  38.449  14.291
11509W        W75453  38.384  23.687  13.023
11510W        W75454  17.771  24.639   3.718
11511W        W75455  14.658  43.855   4.623
11512W        W75456  32.916  42.428  12.089
11513W        W75457  27.471  18.718  14.862
11514W        W75458  42.390  34.522   3.376
11515W        W75459  41.983  32.087  11.546
11516W        W75460  31.478  16.251   2.739
11517W        W75461   1.330   3.764   3.164
11518W        W75462  35.416   0.401  10.438
11519W        W75463  13.277  10.815  13.813
11520W        W75464   4.339  38.838   2.688
11521W        W75465  24.579  16.801  13.469
11522W        W75466  20.230  27.524  12.520
11523W        W75467  41.362  18.184   2.267
11524W        W75468  24.152  26.035   1.242
11525W        W75469  21.022  19.626   3.218
11526W        W75470  26.044  30.122  12.463
11527W        W75471  44.417  16.115  11.062
11528W        W75472   4.230  41.302  11.094
11529W        W75473  22.714  36.384   3.735
11530W        W75474  11.689  11.859  12.424
11531W        W75475   4.308  22.135  11.098
11532W        W75476  43.319  27.141  13.862
11533W        W75477   7.261  33.467  10.495
11534W        W75478  39.859  27.658   0.929
11535W        W75479  38.451   4.876  11.496
11536W        W75480  13.247  35.523   9.548
11537W        W75481  27.972  15.253   3.259
11538W        W75482   5.839  27.197  10.594
11539W        W75483  40.540  23.034  13.047
11540W        W75484  20.686  21.517   4.661
11541W        W75485  10.153  28.177   0.732
11542W        W75486  17.560  27.670  10.464
11543W        W75487  39.885   6.880  14.313
11544W        W75488  31.647  41.531  11.381
11545W        W75489  23.996  12.296   4.297
11546W        W75490  17.652  44.004   0.450
11547W        W75491   7.229  42.791  14.952
11548W        W75492  40.038  17.696   4.642
11549W        W75493   3.296  19.642   0.863
11550W        W75494  16.124   0.267  13.918
11551W        W75495  27.554   3.728   3.222
11552W        W75496  41.863   2.445   1.724
11553W        W75497  10.649  29.109   1.397
11554W        W75498  43.862  42.371   1.749
11555W        W75499  20.105  13.296   1.725
11556W        W75500  42.444  43.871  11.545
11557W        W75501  14.283  20.127  14.001
11558W        W75502  16.146  31.008  12.962
11559W        W75503  27.162   9.672  13.983
11560W        W75504  10.249  26.116   0.248
11561W        W75505  41.790   7.869  13.973
11562W        W75506   3.344   5.879   3.333
11563W        W75507  14.109  36.553  13.387
11564W        W75508  14.814  41.484  11.952
11565W        W75509   6.365  34.909   0.345
11566W        W75510  13.290  20.259  11.916
11567W        W75511  26.483  42.967   0.895
11568W        W75512  27.527  14.229   2.724
11569W        W75513   8.725  21.514   2.686
11570W        W75514  11.318   3.386  12.866
11571W        W75515  37.356   1.757  13.454
11572W        W75516  11.185  16.628  12.527
11573W        W75517  19.690  37.995  14.998
11574W        W75518   0.757   8.373   4.266
11575W        W75519   7.251  34.977   1.791
11576W        W75520   2.896  35.905   4.825
11577W        W75521   3.839  36.945   1.832
11578W        W75522  35.080  34.502  12.962
11579W        W75523  37.020  14.599   0.832
11580W        W75524  43.782  12.286   2.187
11581W        W75525  26.192  23.724  12.494
11582W        W75526  10.763   2.386  10.919
11583W        W75527   1.317   5.880  13.454
11584W        W75528  30.611  27.592   4.773
11585W        W75529  42.958   6.752   2.757
11586W        W75530  33.075  43.926   0.848
11587W        W75531  34.005  44.500   4.747
11588W        W75532   0.459  12.663   0.832
11589W        W75533  20.138  37.956   4.735
11590W        W75534  16.573   0.335  10.635
11591W        W75535  31.909   7.401   0.418
11592W        W75536  10.784  18.595   0.358
11593W        W75537  39.439   7.884   4.637
11594W        W75538  18.748  30.164   0.917
11595W        W75539   5.348  34.939  13.872
11596W        W75540  11.861   7.366   3.211
11597W        W75541   7.792  42.380  12.024
11598W        W75542  10.195  34.044   1.310
11599W        W75543  15.676  18.733  14.771
11600W        W75544  12.812  26.124   2.344
11601W        W75545  18.729  36.049   0.814
11602W        W75546  14.154  43.290  13.547
11603W        W75547  25.978  19.234  10.421
11604W        W75548  32.985  30.431   0.920
11605W        W75549   1.369  28.123  13.003
11606W        W75550  23.061  24.031   2.747
11607W        W75551  18.616  25.653  14.515
11608W        W75552  39.917   4.720  10.916
11609W        W75553  15.228  18.159   4.318
11610W        W75554  32.447  22.203   4.261
11611W        W75555   5.730  36.082  10.904
11612W        W75556  38.539   3.405   3.738
11613W        W75557   1.734  27.018   0.310
11614W        W75558  10.786   9.730  11.889
11615W        W75559  22.569  23.023  14.425
11616W        W75560   0.844  34.460  10.462
11617W        W75561  18.752  35.375   1.802
11618W        W75562   6.885   4.919   2.347
11619W        W75563  18.786  16.226   4.326
11620W        W75564  15.184  38.493   2.843
11621W        W75565  44.756   6.684   4.348
11622W        W75566   2.245  44.370  13.314
11623W        W75567  34.416  43.452   0.914
11624W        W75568  35.452   4.870   0.954
11625W        W75569  34.524  44.459  10.609
11626W        W75570  15.676  29.585   1.410
11627W        W75571  33.033  32.082  10.540
11628W        W75572  17.666   7.263  11.550
11629W        W75573   4.836  33.499  12.976
11630W        W75574  28.110  30.529  12.894
11631W        W75575  37.419   7.748  13.450
11632W        W75576  35.393  43.836  10.451
11633W        W75577  26.675  11.812  11.491
11634W        W75578   3.945   7.900   1.863
11635W        W75579  32.508  21.050   1.863
11636W        W75580  24.056   0.254  10.906
11637W        W75581  16.766  34.007   0.276
11638W        W75582  10.255  38.474  11.566
11639W        W75583  41.917  37.847   3.278
11640W        W75584  27.638  13.700   4.782
11641W        W75585  27.987  17.196   0.958
11642W        W75586  33.965  39.944   4.196
11643W        W75587  33.071  40.427  12.883
11644W        W75588  39.959  35.930   3.671
11645W        W75589   4.847  17.649  13.805
11646W        W75590  36.904  27.966   2.279
11647W        W75591   9.269  39.343   3.678
11648W        W75592  18.620  43.021   0.431
11649W        W75593  43.336  12.139   1.356
11650W        W75594   3.296  40.827  10.478
11651W        W75595  30.114  36.854   4.705
11652W        W75596  27.649  17.202   0.480
11653W        W75597  27.460   0.361   2.838
11654W        W75598  35.009  40.404   2.665
11655W        W75599  31.005  37.938  14.500
11656W        W75600   7.850  25.039   4.664
11657W        W75601  11.775  33.544  10.580
11658W        W75602  12.142  16.093   4.681
11659W        W75603  11.235  10.158  14.461
11660W        W75604  17.080  34.492  11.565
11661W        W75605  30.517  22.174   3.729
11662W        W75606  43.785  35.008   0.472
11663W        W75607  37.870  28.445   1.708
11664W        W75608   6.711  31.596  10.546
11665W        W75609  16.104  36.862  12.568
11666W        W75610  24.099  13.260  12.552
11667W        W75611  14.289  44.955  13.366
11668W        W75612   3.952   0.320   0.753
11669W        W75613  40.852  10.675  10.448
11670W        W75614  44.309  13.135   3.837
11671W        W75615  35.599  36.402  14.841
11672W        W75616   1.977  29.169  11.512
11673W        W75617   2.389   3.313  11.956
11674W        W75618   8.355  44.334   0.276
11675W        W75619  11.769   5.793   1.302
11676W        W75620  14.760  18.621  11.451
11677W        W75621   8.812  16.763  12.841
11678W        W75622   1.438  25.599   2.707
11679W        W75623  31.033  38.829   4.208
11680W        W75624  38.836  17.781   2.716
11681W        W75625  28.496  34.395   1.211
11682W        W75626  14.661  37.947  13.537
11683W        W75627  26.997  20.710   1.802
11684W        W75628  12.234  11.184  14.837
11685W        W75629  13.687  19.605  14.896
11686W        W75630  27.132  44.871   3.681
11687W        W75631   1.426  23.094  10.553
11688W        W75632  20.131   1.382  11.562
11689W        W75633  22.057  27.160  12.907
11690W        W75634  42.799  30.944   4.188
11691W        W75635  27.535  37.574  14.019
11692W        W75636  43.338  11.210   4.606
11693W        W75637   9.760  17.206   2.706
11694W        W75638  39.845  43.814  11.439
11695W        W75639  44.381  32.634   2.195
11696W        W75640   3.364  17.103   2.869
11697W        W75641  37.469  22.221   1.370
11698W        W75642  44.924   3.228   0.950
11699W        W75643   9.745  34.439   0.458
11700W        W75644   2.429  34.392   1.380
11701W        W75645   4.945  21.553  11.395
11702W        W75646  37.942  40.994   1.910
11703W        W75647  19.585  22.682  11.425
11704W        W75648  24.226  35.554   3.189
11705W        W75649   0.417  34.440   2.774
11706W        W75650   1.970  30.161   4.622
11707W        W75651  27.193  12.161  12.027
11708W        W75652  18.188  29.134   3.199
11709W        W75653   1.845  17.147  14.428
11710W        W75654  21.756  24.190   0.814
11711W        W75655  11.676  16.142  10.468
11712W        W75656   7.899  11.841  11.027
11713W        W75657  18.761  15.578  10.955
11714W        W75658   3.908  14.120   2.668
11715W        W75659  25.064  41.841   0.821
11716W        W75660  37.388  15.237   0.906
11717W        W75661  15.323  38.993   2.408
11718W        W75662  37.968  10.233   1.245
11719W        W75663   5.805  32.954   4.617
11720W        W75664  33.113  20.768  12.580
11721W        W75665  40.031  33.398   9.997
11722W        W75666  39.368  11.249  14.426
11723W        W75667   4.304  32.060  11.931
11724W        W75668  10.307  22.744   4.267
11725W        W75669  34.020  42.354  14.332
11726W        W75670  40.907  34.904   3.150
11727W        W75671  40.462  42.506  10.925
11728W        W75672  21.674  26.689  13.433
11729W        W75673  17.161  38.517   3.745
11730W        W75674  13.171   4.330   1.746
11731W        W75675  43.514  37.079  12.425
11732W        W75676   7.801  12.120   1.329
11733W        W75677  35.425  44.437  10.561
11734W        W75678  35.548   4.831  12.453
11735W        W75679  44.493   8.853   4.198
11736W        W75680  17.726  26.026   0.772
11737W        W75681  22.121   4.836  13.498
11738W        W75682   5.288  15.267   2.663
11739W        W75683  41.890  42.914   1.413
11740W        W75684  22.042  23.494  11.556
11741W        W75685  38.957   6.919  11.901
11742W        W75686  32.021   3.814  12.911
11743W        W75687  22.708  10.197  11.495
11744W        W75688  15.628   8.793   0.409
11745W        W75689  14.660  16.081   3.723
11746W        W75690   9.196  32.011   4.301
11747W        W75691  22.516  30.512  13.310
11748W        W75692  13.721  22.148  10.624
11749W        W75693   8.342  20.242   3.753
11750W        W75694  18.682  10.147   1.872
11751W        W75695   9.858  34.406   1.375
11752W        W75696  13.317  35.529  12.924
11753W        W75697  41.840   3.772  14.995
11754W        W75698   2.399  16.720  12.528
11755W        W75699  15.108  35.495  13.883
11756W        W75700   1.314  39.974   0.375
11757W        W75701   0.964  31.566  14.347
11758W        W75702  27.062   9.384   2.276
11759W        W75703   8.216   0.786  14.920
11760W        W75704  24.482  21.101   2.717
11761W        W75705  17.109   4.401   0.478
11762W        W75706  44.798  33.034  14.026
11763W        W75707  44.952  10.710  14.854
11764W        W75708   9.299   0.940  11.999
11765W        W75709  20.044  29.960  11.419
11766W        W75710  17.667  40.455  10.948
11767W        W75711  12.161  36.400  13.004
11768W        W75712   1.839   4.401  14.780
11769W        W75713  37.374   9.361  14.894
11770W        W75714  33.614  18.762   1.394
11771W        W75715  31.636  16.260  11.605
11772W        W75716  16.103  19.740   4.629
11773W        W75717  44.295  24.163   2.233
11774W        W75718  28.949   4.735  12.046
11775W        W75719   2.915   5.414  10.521
11776W        W75720  21.161  24.158  13.917
11777W        W75721  19.166  39.447  14.904
11778W        W75722  36.040  25.061  10.943
11779W        W75723  23.655  25.125  11.596
11780W        W75724  25.186   9.792   0.966
11781W        W75725  40.994  35.570   3.385
11782W        W75726  34.905  15.139  13.059
11783W        W75727  14.627  29.092   0.829
11784W        W75728  24.673  42.911  13.987
11785W        W75729  10.697  23.535   4.744
11786W        W75730  30.520  41.007  12.458
11787W        W75731   6.726  28.618  14.930
11788W        W75732  37.087   8.686  11.984
11789W        W75733  44.283   0.880  12.516
11790W        W75734  32.082  14.744   4.288
11791W        W75735  26.516  18.058   4.802
11792W        W75736  41.811  36.561  13.851
11793W        W75737   3.254  18.084  13.870
11794W        W75738  34.494  41.406   1.890
11795W        W75739   8.832   1.967   2.761
11796W        W75740  41.299  18.076  12.544
11797W        W75741   9.836  23.527  14.911
11798W        W75742  12.235  36.953   2.759
11799W        W75743  29.161  40.037   2.358
11800W        W75744  23.718   2.443   1.697
11801W        W75745  26.680   9.341   3.860
11802W        W75746  11.857  12.317  10.922
11803W        W75747  44.858  33.494  12.539
11804W        W75748  39.061  43.834  14.925
11805W        W75749  24.546  18.193   0.332
11806W        W75750  27.072  29.072  14.806
11807W        W75751  10.191   0.810   1.860
11808W        W75752  19.743  34.868  11.944
11809W        W75753  19.135   0.758  14.768
11810W        W75754  30.034  16.625  13.038
11811W        W75755   8.370  30.129  14.390
11812W        W75756  40.039  41.435   0.267
11813W        W75757   4.815  11.769  12.067
11814W        W75758   8.160  18.719   2.713
11815W        W75759   5.325  28.028  13.319
11816W        W75760   9.294   3.770  11.547
11817W        W75761  33.495  24.982  12.044
11818W        W75762  18.565  18.791   4.752
11819W        W75763   4.717   9.176   2.689
11820W        W75764  40.322   3.821   2.413
11821W        W75765  38.345  41.299  14.787
11822W        W75766   5.891  31.509   2.854
11823W        W75767  41.789   1.771   3.865
11824W        W75768  31.981   3.354  11.005
11825W        W75769  30.467   0.456  10.435
11826W        W75770  31.144  17.261  10.970
11827W        W75771  11.354  22.627  14.972
11828W        W75772  39.523   1.366  10.900
11829W        W75773  22.515  17.139  11.923
11830W        W75774  14.703  27.102   2.827
11831W        W75775  23.649  41.907   0.291
11832W        W75776  32.955   0.853  14.844
11833W        W75777  21.632  41.855   4.706
11834W        W75778  30.499  25.962  12.542
11835W        W75779  35.865   0.915   0.967
11836W        W75780  24.090  15.579   3.734
11837W        W75781  30.138  32.504  14.885
11838W        W75782  30.625  12.353  12.948
11839W        W75783   2.891  37.906  14.870
11840W        W75784  16.719   5.279  14.824
11841W        W75785  17.086  17.731  13.456
11842W        W75786  14.258  34.962   0.820
11843W        W75787  21.042  20.528   1.437
11844W        W75788  22.242   7.676  11.933
11845W        W75789   6.210  39.560   1.321
11846W        W75790  37.849  11.217   0.410
11847W        W75791  43.506  38.351  12.478
11848W        W75792  16.272  39.520  11.978
11849W        W75793  25.641  40.414  10.155
11850W        W75794   3.277  23.140   3.701
11851W        W75795  42.439   9.660  11.462
11852W        W75796  32.886  32.576  10.623
11853W        W75797   1.305  15.775   3.750
11854W        W75798  34.540  24.596   4.603
11855W        W75799  23.177  18.197  13.512
11856W        W75800   9.733  15.791   2.852
11857W        W75801  27.615  29.965   3.836
11858W        W75802  34.115   0.382  10.960
11859W        W75803  30.048  33.880   3.656
11860W        W75804  12.126  41.939  10.555
11861W        W75805   0.320  13.695   3.184
11862W        W75806   5.229  25.557  12.446
11863W        W75807   8.244  10.807   4.699
11864W        W75808  16.801  20.610  13.058
11865W        W75809  25.515  14.123  14.914
11866W        W75810  13.280  18.664  10.945
11867W        W75811  15.613  24.045   5.319
11868W        W75812  28.515  37.485   3.673
11869W        W75813  12.786  13.282   4.279
11870W        W75814  34.037  41.005  13.465
11871W        W75815  32.448  44.492   0.966
11872W        W75816  14.195   9.243   2.305
11873W        W75817  29.137   9.818   0.464
11874W        W75818   2.765  26.523   3.632
11875W        W75819  12.622  12.131   2.212
11876W        W75820   6.278  40.025   2.269
11877W        W75821   4.876  13.235  14.377
11878W        W75822   6.293   3.454  13.454
11879W        W75823  17.091  11.864   5.246
11880W        W75824   5.293   4.731  11.408
11881W        W75825  13.726  33.982   1.347
11882W        W75826  44.435  40.503  13.935
11883W        W75827  11.174  13.114  12.357
11884W        W75828  29.932  15.673  11.890
11885W        W75829  18.608   3.857  14.282
11886W        W75830   1.337  14.128  11.910
11887W        W75831  11.290  31.414  12.081
11888W        W75832  37.396  36.367  14.488
11889W        W75833   5.716  29.589   4.626
11890W        W75834   3.405  40.492   4.154
11891W        W75835  44.920  18.698  10.921
11892W        W75836  37.860   4.804   2.227
11893W        W75837  30.515   4.266  12.889
11894W        W75838  31.605  13.211   3.690
11895W        W75839   5.917  28.665   2.235
11896W        W75840  24.724  24.552  10.589
11897W        W75841  26.972   8.286  13.541
11898W        W75842  10.709  40.438  11.457
11899W        W75843  12.130   3.787   4.733
11900W        W75844  11.237  32.949   1.325
11901W        W75845  37.959  22.024   3.226
11902W        W75846   2.850  34.911  12.873
11903W        W75847   6.279  32.511   1.722
11904W        W75848  29.624   4.795   1.745
11905W        W75849  30.444   8.383  14.285
11906W        W75850  44.391   8.163  13.962
11907W        W75851  28.095  21.554   2.814
11908W        W75852   8.740  21.725  12.399
11909W        W75853  34.460   2.268   0.849
11910W        W75854  32.006  41.919   2.849
11911W        W75855  42.985   8.872  11.012
11912W        W75856  15.811  33.427   5.284
11913W        W75857  15.108  12.269  14.020
11914W        W75858  33.887   1.959   0.287
11915W        W75859  22.111   5.375   3.699
11916W        W75860  28.538   7.245   4.762
11917W        W75861   0.331   0.437  13.027
11918W        W75862  43.312  33.009  10.460
11919W        W75863  19.189  31.934  10.524
11920W        W75864   1.348   3.384   2.902
11921W        W75865  31.601  18.742  13.811
11922W        W75866  44.261  27.578  10.409
11923W        W75867   4.747  17.221   0.783
11924W        W75868  39.029  20.746   2.347
11925W        W75869  31.534  41.831  13.511
11926W        W75870  28.140  28.605  10.404
11927W        W75871  41.534  27.555  12.859
11928W        W75872  43.318  44.332  11.868
11929W        W75873   3.238   0.405  10.160
11930W        W75874  14.679   1.444   4.172
11931W        W75875   5.835  36.531   1.811
11932W        W75876  34.450  13.246  12.422
11933W        W75877  39.972  22.189  14.959
11934W        W75878  25.674  43.500   3.364
11935W        W75879   8.723  25.554  12.965
11936W        W75880  37.881   0.863   0.850
11937W        W75881  27.559  14.787  10.086
11938W        W75882  41.440  26.157  11.021
11939W        W75883  31.065  35.994  11.973
11940W        W75884  31.945   9.689  13.046
11941W        W75885  27.583   0.332  11.443
11942W        W75886  29.131   4.316  11.928
11943W        W75887  30.915  43.902  12.898
11944W        W75888  28.437  18.553   5.184
11945W        W75889   6.698  37.363  13.996
11946W        W75890  43.297   0.273   4.330
11947W        W75891  29.080   7.298   3.345
11948W        W75892  22.219   4.301   1.741
11949W        W75893   6.702  13.803  13.933
11950W        W75894  34.612  28.677   4.157
11951W        W75895   0.955  24.132   4.717
11952W        W75896  17.204  27.048  10.593
11953W        W75897   1.920  33.626   4.683
11954W        W75898  11.349  10.273   4.626
11955W        W75899  10.787  40.414  12.487
11956W        W75900   1.450  33.495   0.385
11957W        W75901  32.889  19.570  11.607
11958W        W75902  23.729  41.526  13.059
11959W        W75903   9.182   3.356  12.539
11960W        W75904  28.460   3.868  14.930
11961W        W75905   3.916  41.969  11.881
11962W        W75906  13.216  36.361  10.590
11963W        W75907  14.789  20.128  12.868
11964W        W75908  17.659  33.446   1.357
11965W        W75909  44.367   3.735  13.370
11966W        W75910  29.997   1.303  14.031
11967W        W75911  43.484   4.286   4.629
11968W        W75912   6.269   9.376   4.631
11969W        W75913  22.636  12.218  12.073
11970W        W75914  34.907  11.210   1.835
11971W        W75915  33.878  39.913   2.673
11972W        W75916  38.448  24.716   3.773
11973W        W75917  43.324  33.386  12.011
11974W        W75918  29.604  38.961   1.786
11975W        W75919   4.942  23.091   3.372
11976W        W75920  43.383  36.082  13.916
11977W        W75921  10.814  33.502  13.481
11978W        W75922  18.673  28.993   3.151
11979W        W75923   0.292   3.752  13.995
11980W        W75924  23.045  25.963   3.705
11981W        W75925   6.356  23.124  11.390
11982W        W75926   6.736  39.983   4.203
11983W        W75927  26.986  35.021   1.720
11984W        W75928  11.349  40.425  11.076
11985W        W75929   9.797  35.485  14.786
11986W        W75930  25.015   8.232  11.055
11987W        W75931  28.072  34.443  13.902
11988W        W75932  16.806  44.768  14.303
11989W        W75933  16.776  27.510   3.860
11990W        W75934  44.885  25.010  11.475
11991W        W75935  10.861   3.374   1.750
11992W        W75936   1.393  33.414   1.805
11993W        W75937  29.557  35.384  14.895
11994W        W75938  26.070  37.397  11.927
11995W        W75939  24.620  34.555  12.000
11996W        W75940  42.288  34.551  14.858
11997W        W75941  31.143  31.553   2.231
11998W        W75942  42.384  34.592   0.391
11999W        W75943  29.509  23.649   1.304
12000W        W75944  38.867  32.082   5.256
12001W        W75945  27.453   2.350   3.319
12002W        W75946  33.518  27.647  10.961
12003W        W75947  29.023  19.095  14.020
12004W        W75948  15.593  18.646   4.698
12005W        W75949  19.762  36.565  10.916
12006W        W75950  10.656  36.076   0.466
12007W        W75951   5.343  26.513   2.412
12008W        W75952  40.367  10.286   4.628
12009W        W75953  21.132  29.632  14.892
12010W        W75954  27.486  17.179  14.353
12011W        W75955  42.469  19.636  11.858
12012W        W75956   2.898  39.901  13.820
12013W        W75957   5.296  37.467  11.106
12014W        W75958  23.644  39.471   2.895
12015W        W75959  27.500  29.659   3.357
12016W        W75960   9.856  39.533   4.704
12017W        W75961  21.650  44.333   0.753
12018W        W75962   8.176  36.997  14.770
12019W        W75963  13.148  16.220   4.805
12020W        W75964  44.348  25.564   5.197
12021W        W75965  11.759  37.031  11.546
12022W        W75966  12.692  31.588  13.422
12023W        W75967   5.872  40.525   1.781
12024W        W75968   6.386   4.422   2.685
12025W        W75969  20.730  11.810  12.849
12026W        W75970   2.952  21.532   3.324
12027W        W75971  12.263  42.408  11.083
12028W        W75972  25.648  13.130  10.934
12029W        W75973  30.550   1.336  14.995
12030W        W75974  24.652  24.991   3.263
12031W        W75975  19.064   5.877   9.448
12032W        W75976  27.677  32.505   4.303
12033W        W75977   7.674  42.515  11.492
12034W        W75978  25.498   5.921   0.329
12035W        W75979   6.353  37.055   3.846
12036W        W75980  32.028  27.080  12.521
12037W        W75981  29.071  24.687   3.222
12038W        W75982  31.573  43.768   4.154
12039W        W75983   8.350  44.779   4.793
12040W        W75984  19.121  13.294  12.523
12041W        W75985  21.730  43.427  13.992
12042W        W75986  35.984  12.673  13.453
12043W        W75987  16.663   9.185  10.051
12044W        W75988  17.695   5.825  11.441
12045W        W75989  13.716  37.471   2.291
12046W        W75990   6.412  15.255   4.726
12047W        W75991   2.855  12.776  10.638
12048W        W75992  25.556   6.725   1.327
12049W        W75993   8.827   0.469   2.842
12050W        W75994  20.201  42.865   4.770
12051W        W75995   1.279  37.034   2.248
12052W        W75996  23.651  23.057  12.575
12053W        W75997  42.457   0.320  10.950
12054W        W75998  17.654  29.532   4.312
12055W        W75999  37.900   9.189  10.563
12056W        W76000  13.240  41.493  11.485
12057W        W76001  31.634  15.124  10.606
12058W        W76002  32.569  19.690  10.518
12059W        W76003  23.502  31.076   0.284
12060W        W76004  21.705   7.265  11.894
12061W        W76005  40.992  43.399  13.506
12062W        W76006   4.228   6.416  12.003
12063W        W76007   4.268  27.151   0.406
12064W        W76008  18.283  31.562   3.855
12065W        W76009  28.009  43.900  10.031
12066W        W76010  36.909  11.850   4.159
12067W        W76011  10.233  42.348  11.991
12068W        W76012  37.530  19.227  14.311
12069W        W76013  20.706   7.270   1.369
12070W        W76014  38.023  24.724  11.082
12071W        W76015  16.117  17.184  13.520
12072W        W76016   5.882   1.289  11.379
12073W        W76017  37.909  34.517   5.269
12074W        W76018  23.221  17.148   2.729
12075W        W76019   0.480  19.242  12.062
12076W        W76020  25.537   2.808   1.861
12077W        W76021  32.593  38.342   3.672
12078W        W76022   4.816  27.948   4.266
12079W        W76023  18.789  13.771   0.752
12080W        W76024  31.605  39.397   3.746
12081W        W76025  11.735   8.168   3.774
12082W        W76026  14.664  23.100   0.931
12083W        W76027  12.206  19.654  11.573
12084W        W76028  32.513  28.000   2.216
12085W        W76029   9.173   0.848   3.207
12086W        W76030   8.398   2.402  11.966
12087W        W76031  37.035  13.669   4.237
12088W        W76032  19.751  35.599   2.764
12089W        W76033  32.469  19.238  13.329
12090W        W76034  31.106   7.302   1.826
12091W        W76035  19.182   7.263   3.198
12092W        W76036  16.302  29.081  14.277
12093W        W76037  28.171  26.543  12.486
12094W        W76038  38.335  11.803   1.404
12095W        W76039  22.550  10.810  11.915
12096W        W76040   9.792  29.650   2.859
12097W        W76041  36.402  24.592   2.716
12098W        W76042  36.999  21.157   1.861
12099W        W76043  41.518   0.316  13.820
12100W        W76044   3.451  32.966   2.238
12101W        W76045  36.069  34.494   3.836
12102W        W76046   7.240  34.586   3.685
12103W        W76047  33.129  15.149  14.970
12104W        W76048   1.869  12.799   4.233
12105W        W76049  42.382  18.628   0.955
12106W        W76050  14.157   0.335  10.969
12107W        W76051  35.435  13.737  13.460
12108W        W76052  26.552  43.022  12.948
12109W        W76053  12.653  28.577  14.479
12110W        W76054  16.183  27.494  14.322
12111W        W76055  42.874  19.540   0.730
12112W        W76056  37.344  38.871   3.799
12113W        W76057  20.628  43.305   4.686
12114W        W76058  12.615   1.863  12.492
12115W        W76059  42.819  26.600   2.319
12116W        W76060  19.623  20.617   0.315
12117W        W76061   7.834  34.955   0.453
12118W        W76062  38.330  13.793   2.353
12119W        W76063  10.177  13.222   0.470
12120W        W76064   9.153  31.927  14.905
12121W        W76065  13.723   4.327   0.893
12122W        W76066   9.760  14.330   5.276
12123W        W76067  38.504  18.642  14.368
12124W        W76068  31.519   1.758   0.380
12125W        W76069  26.624  20.715   4.701
12126W        W76070  17.627  30.626   4.339
12127W        W76071   6.884   2.819   2.201
12128W        W76072   6.799  29.585   1.393
12129W        W76073   2.363  23.222  14.278
12130W        W76074  12.614  35.462  11.097
12131W        W76075   2.876  34.447  13.793
12132W        W76076  16.128  30.022   4.318
12133W        W76077  16.629  17.646  13.808
12134W        W76078  11.270  21.659   4.793
12135W        W76079  38.026   5.411   3.323
12136W        W76080  30.024  10.203   0.263
12137W        W76081  13.289   4.291  13.829
12138W        W76082  22.103  22.696  13.949
12139W        W76083  22.641   8.865   0.939
12140W        W76084  24.225  34.943  10.486
12141W        W76085  36.423  20.274  10.641
12142W        W76086  32.014  32.059   9.939
12143W        W76087   3.302  34.027  13.380
12144W        W76088  24.157   3.773   2.890
12145W        W76089  19.779   0.369   3.799
12146W        W76090  27.495  20.177   3.329
12147W        W76091  16.679   2.325  10.438
12148W        W76092  14.170  19.650   2.757
12149W        W76093  14.123  19.250   4.763
12150W        W76094  21.620  37.482   4.803
12151W        W76095  35.870  19.739  12.406
12152W        W76096  40.329  27.062  14.904
12153W        W76097  39.554  18.068   4.617
12154W        W76098  14.179   5.333  13.040
12155W        W76099  31.412  34.458   0.350
12156W        W76100  15.617  13.799   3.203
12157W        W76101   8.176  34.881  10.410
12158W        W76102  14.190   5.387   1.329
12159W        W76103  42.333   5.296   2.333
12160W        W76104  34.407  16.208   4.732
12161W        W76105  16.686  39.448  14.013
12162W        W76106  16.632   8.268   2.324
12163W        W76107  23.105  34.011  13.955
12164W        W76108  16.217  23.715  14.294
12165W        W76109   0.285  22.717  13.029
12166W        W76110  43.987  25.661   4.251
12167W        W76111   2.281  42.516   1.712
12168W        W76112  41.396  23.166   1.864
12169W        W76113  24.198  35.427   4.181
12170W        W76114  16.163  27.449  11.436
12171W        W76115  28.506  19.606   0.280
12172W        W76116   3.846  38.027   4.309
12173W        W76117  31.477  18.624   9.560
12174W        W76118  34.568  14.615  14.418
12175W        W76119  34.581  29.649  10.992
12176W        W76120  40.475  18.176  11.563
12177W        W76121   1.944  34.373   0.266
12178W        W76122   5.794  30.614   3.705
12179W        W76123  38.911   1.911   0.368
12180W        W76124  28.479  39.988  14.019
12181W        W76125   3.711  22.113   1.362
12182W        W76126  34.408  14.734  12.018
12183W        W76127  39.834   5.760  11.005
12184W        W76128  37.440  23.736  11.397
12185W        W76129   7.731  19.235  10.890
12186W        W76130   2.861  42.450  12.918
12187W        W76131  40.439  15.108   4.605
12188W        W76132  30.092  31.483  13.398
12189W        W76133  43.962  28.134   0.820
12190W        W76134  35.012  18.222   0.940
12191W        W76135   6.257  34.038   0.244
12192W        W76136  37.531  37.483  11.920
12193W        W76137  30.992  33.112   2.318
12194W        W76138  35.529   9.868   2.863
12195W        W76139  12.259  21.197   0.946
12196W        W76140  38.064  14.802  11.546
12197W        W76141  25.019  29.100   0.765
12198W        W76142   9.815  29.070   0.888
12199W        W76143  44.303   9.655   3.713
12200W        W76144  16.171  41.839   0.457
12201W        W76145  29.069   7.413   0.258
12202W        W76146   3.294  13.819   0.786
12203W        W76147  34.066  38.046   0.442
12204W        W76148  41.465  18.708   0.312
12205W        W76149  17.567  15.296   1.931
12206W        W76150  24.637  22.242  13.986
12207W        W76151   3.405  27.688  14.783
12208W        W76152   4.320  36.940   4.788
12209W        W76153  16.316  40.000  12.005
12210W        W76154  37.420  15.821  12.932
12211W        W76155  24.098  16.295  11.060
12212W        W76156  16.722  31.407  11.400
12213W        W76157  23.725   3.792   3.829
12214W        W76158  42.780   5.287   0.908
12215W        W76159  33.438  27.668  10.519
12216W        W76160  32.567  41.849  11.396
12217W        W76161  19.052  33.458  12.471
12218W        W76162  34.086  33.918  11.041
12219W        W76163  40.304   4.943  12.943
12220W        W76164  41.314  21.640   2.723
12221W        W76165   4.747  28.514   0.750
12222W        W76166   7.224   1.369   2.811
12223W        W76167   0.965  43.334  11.910
12224W        W76168  18.611  39.396  14.507
12225W        W76169  32.595  17.645   4.690
12226W        W76170  40.809  19.740   3.867
12227W        W76171  18.127  23.497   2.793
12228W        W76172   2.789  12.175   2.803
12229W        W76173   3.346  40.434   3.836
12230W        W76174  35.959  25.105   0.729
12231W        W76175  36.533  12.287  14.290
12232W        W76176  10.258   2.731  13.984
12233W        W76177  13.269  34.481  11.860
12234W        W76178  42.303  11.271  14.919
12235W        W76179  22.629  42.026   4.680
12236W        W76180  34.461  21.533  14.471
12237W        W76181  25.689   1.808   4.281
12238W        W76182   5.740  19.644  11.553
12239W        W76183   2.363  26.646   5.197
12240W        W76184  25.573  22.125  14.515
12241W        W76185  10.283  33.021  11.496
12242W        W76186  29.123  26.152   2.868
12243W        W76187  26.105  33.488  13.831
12244W        W76188  19.178  14.597  13.444
12245W        W76189  27.067  28.974  12.864
12246W        W76190  19.042  41.481  14.027
12247W        W76191  37.581   4.802   5.760
12248W        W76192  41.916  39.854   4.246
12249W        W76193  14.117  42.366  11.949
12250W        W76194  29.600   9.217   0.951
12251W        W76195  17.584   2.290   1.348
12252W        W76196  29.935   2.811  12.385
12253W        W76197  10.668  15.581   0.443
12254W        W76198   5.368  36.575  10.627
12255W        W76199  13.207  20.551  11.379
12256W        W76200   3.814  14.327   1.719
12257W        W76201  31.912   5.258   1.301
12258W        W76202  10.379  33.116  12.927
12259W        W76203   5.810  28.500   4.278
12260W        W76204  43.881  20.646  12.072
12261W        W76205  34.998  13.237  14.457
12262W        W76206  26.996   9.723  12.550
12263W        W76207  42.410  27.042   4.295
12264W        W76208  22.689  22.064  12.416
12265W        W76209  33.483  18.707   2.274
12266W        W76210  17.629  15.692  13.825
12267W        W76211   0.789  19.187  12.934
12268W        W76212  22.019   9.884  14.975
12269W        W76213  19.634  18.564   0.293
12270W        W76214  20.247  23.508   1.218
12271W        W76215  35.001  17.297   4.681
12272W        W76216  42.358  11.734   1.415
12273W        W76217  23.719   1.789  13.468
12274W        W76218  11.193  14.835   1.815
12275W        W76219  30.519  27.034  12.875
12276W        W76220  16.085  13.845   2.269
12277W        W76221  19.684  25.628  11.036
12278W        W76222   1.857  18.568   1.842
12279W        W76223  12.650  40.364  13.857
12280W        W76224   2.760  44.966  11.078
12281W        W76225   4.776  19.112  13.450
12282W        W76226  27.052  18.278  12.532
12283W        W76227  40.012   3.774  13.868
12284W        W76228  28.542   5.218   4.832
12285W        W76229  17.297  39.944  14.359
12286W        W76230  29.427  15.319  10.897
12287W        W76231  44.975   5.418  11.050
12288W        W76232  35.980   8.663  14.291
12289W        W76233  26.527  43.827  14.895
12290W        W76234  22.183  28.464   0.841
12291W        W76235  32.977   3.351  13.427
12292W        W76236  21.516  39.387   3.677
12293W        W76237  26.564  28.943   0.459
12294W        W76238  16.102  18.678   0.923
12295W        W76239  18.578  20.029  12.345
12296W        W76240  10.865  38.563  11.513
12297W        W76241  23.012  39.488   4.296
12298W        W76242  35.448  13.213  13.938
12299W        W76243  34.917  30.627   2.191
12300W        W76244  23.134  43.409  10.580
12301W        W76245   4.736   2.874   3.752
12302W        W76246  39.891  12.159  12.478
12303W        W76247  33.131   9.161  11.500
12304W        W76248  32.549  20.133   0.780
12305W        W76249  10.380  22.146   0.754
12306W        W76250  23.133  11.330   1.410
12307W        W76251  10.797  29.102   4.278
12308W        W76252   4.258   6.315  10.935
12309W        W76253   9.248  22.074   2.705
12310W        W76254   7.382  13.155  13.455
12311W        W76255  22.629  20.125   4.700
12312W        W76256  25.018  44.335   0.315
12313W        W76257   5.887   9.832   2.408
12314W        W76258  41.432  26.091  10.537
12315W        W76259  41.894  37.898   4.634
12316W        W76260  26.951   8.262  12.929
12317W        W76261   8.884  38.439  14.863
12318W        W76262  15.606  27.476   1.764
12319W        W76263  17.238  44.773   4.168
12320W        W76264  28.468  16.581  12.095
12321W        W76265  44.766  18.203   4.242
12322W        W76266  40.350  18.700  14.774
12323W        W76267  39.012   4.422   1.400
12324W        W76268  27.166   8.851  14.984
12325W        W76269  21.056  36.523  11.530
12326W        W76270   5.776  33.395   2.713
12327W        W76271  30.551  40.939   0.845
12328W        W76272   8.750  33.084   2.208
12329W        W76273  27.489  39.921  13.421
12330W        W76274  20.622   9.850   4.618
12331W        W76275  37.070  21.727  10.473
12332W        W76276  31.491  41.817  11.434
12333W        W76277  41.397  11.684   3.634
12334W        W76278  19.192  24.494  11.417
12335W        W76279   3.881  44.473   0.363
12336W        W76280  17.188  27.655  12.950
12337W        W76281  27.518  39.885   3.643
12338W        W76282  24.974  35.921  11.573
12339W        W76283   6.742  15.603  14.485
12340W        W76284   0.928  14.723   1.399
12341W        W76285  44.775  41.931   4.244
12342W        W76286  11.665  18.083  13.342
12343W        W76287  21.244  27.638  14.015
12344W        W76288  36.014  11.707  11.031
12345W        W76289   1.947   5.302   5.220
12346W        W76290  44.817  36.399   2.883
12347W        W76291  43.857   7.320  10.916
12348W        W76292  38.895  22.072   3.184
12349W        W76293  11.727  22.662  14.369
12350W        W76294   0.789  15.730   1.908
12351W        W76295  38.386  17.277  12.993
12352W        W76296  29.073  42.299  10.039
12353W        W76297  33.384   8.668   3.370
12354W        W76298  25.047  36.986   3.792
12355W        W76299  44.936  28.595   1.818
12356W        W76300  12.335   8.822   4.229
12357W        W76301   3.903  27.462  11.410
12358W        W76302  26.585  41.902   3.384
12359W        W76303  34.599   4.799  12.531
12360W        W76304   3.902   3.877  13.464
12361W        W76305  19.086  18.251   1.427
12362W        W76306  41.019  19.201   3.786
12363W        W76307  10.366   5.691   0.326
12364W        W76308   2.235  10.363  14.851
12365W        W76309  18.565  26.696   1.346
12366W        W76310  31.088  18.672  12.997
12367W        W76311  32.119  44.994   3.334
12368W        W76312   1.378  18.666  11.908
12369W        W76313  33.124  20.649  13.023
12370W        W76314   2.362  41.846   0.830
12371W        W76315  43.765  40.352   2.345
12372W        W76316  38.969  19.274  14.501
12373W        W76317  30.095  21.520  10.409
12374W        W76318  40.051  21.083   2.825
12375W        W76319  21.557  43.798   2.693
12376W        W76320  22.186   4.271   3.329
12377W        W76321   2.375  38.367  11.911
12378W        W76322   3.263  34.602  14.447
12379W        W76323  14.724   3.240   3.689
12380W        W76324  43.375  25.196  13.368
12381W        W76325  30.048  16.145   5.206
12382W        W76326  41.481  22.021   1.429
12383W        W76327  12.276  37.480   0.936
12384W        W76328   8.737   9.290  12.885
12385W        W76329   1.476  33.131   1.227
12386W        W76330  13.748  29.120  12.891
12387W        W76331  28.473  26.516  10.503
12388W        W76332   2.448   3.944   3.303
12389W        W76333  25.584  42.476  14.310
12390W        W76334  39.902  41.304   2.350
12391W        W76335   1.878  29.431   1.225
12392W        W76336  23.176  14.318  12.918
12393W        W76337   3.369  16.665  12.025
12394W        W76338  38.043  39.019  11.485
12395W        W76339  38.887  31.053  11.996
12396W        W76340  10.666  41.345   3.768
12397W        W76341  39.928  13.719  12.414
12398W        W76342  12.797  39.543  12.482
12399W        W76343   9.739  18.210   2.707
12400W        W76344   0.274   5.419   3.303
12401W        W76345   4.846  18.560  11.524
12402W        W76346  19.567   3.356  14.985
12403W        W76347  35.490   8.183  13.314
12404W        W76348  28.438   8.224   3.843
12405W        W76349  12.209  23.197   4.266
12406W        W76350  31.956  32.047  11.427
12407W        W76351  25.042  39.522  12.339
12408W        W76352  22.066  41.910  13.884
12409W        W76353   2.292  17.733  12.876
12410W        W76354  23.993  24.219  14.764
12411W        W76355   0.801  11.179  11.499
12412W        W76356  37.481  13.740  13.035
12413W        W76357  35.365  32.577  14.494
12414W        W76358  19.115  29.633  10.633
12415W        W76359  25.650  26.491  10.512
12416W        W76360  35.443   9.183   3.722
12417W        W76361  21.583  19.284   2.219
12418W        W76362   1.966   2.850  13.949
12419W        W76363  23.730  40.408   1.761
12420W        W76364   5.692   8.397   4.691
12421W        W76365   9.344  44.991   2.283
12422W        W76366  30.656  16.210   1.291
12423W        W76367  10.341  11.754  10.961
12424W        W76368  39.467  22.528   2.366
12425W        W76369   0.321   7.176  13.831
12426W        W76370  39.044  22.615  10.545
12427W        W76371   2.302   9.356   3.774
12428W        W76372  14.833   1.740  13.810
12429W        W76373  12.772  26.667  12.884
12430W        W76374  17.108  20.190  10.536
12431W        W76375  11.670  39.876   2.400
12432W        W76376  35.990   4.928   0.390
12433W        W76377  38.408  27.583   2.257
12434W        W76378  18.170  13.329   0.805
12435W        W76379  21.118   9.380  12.010
12436W        W76380   4.868   9.734  14.834
12437W        W76381  10.700  25.582  14.365
12438W        W76382  16.138  37.970  10.454
12439W        W76383  20.678  26.642  11.507
12440W        W76384  19.257   6.777   1.718
12441W        W76385   2.368  15.732   1.315
12442W        W76386  33.459  36.436  14.805
12443W        W76387  23.171  21.095   3.678
12444W        W76388  31.604  13.842   2.738
12445W        W76389  35.033  26.206   0.732
12446W        W76390  12.805  16.124  13.965
12447W        W76391  37.056  17.063  11.482
12448W        W76392  42.361  41.504  12.431
12449W        W76393   0.418  21.136  10.500
12450W        W76394  35.019  14.265   1.355
12451W        W76395  38.403   7.678   5.225
12452W        W76396  44.833  23.088  13.381
12453W        W76397  38.942   4.279   3.661
12454W        W76398   2.820   6.241  13.369
12455W        W76399  31.493  26.528  12.915
12456W        W76400  43.852   2.878   2.808
12457W        W76401  41.413  35.392   0.309
12458W        W76402  10.319  14.793  11.875
12459W        W76403  15.206  22.689  12.500
12460W        W76404  12.722  28.111   0.931
12461W        W76405  14.818   0.362  11.490
12462W        W76406  22.078  14.660   4.679
12463W        W76407  33.565   3.346  12.513
12464W        W76408  32.001  30.508   3.785
12465W        W76409   9.823  26.027  10.932
12466W        W76410  32.992  21.087   2.860
12467W        W76411  18.573  10.240  11.533
12468W        W76412  25.072   7.725  11.959
12469W        W76413  11.743   2.269   4.721
12470W        W76414  16.679  19.607  13.408
12471W        W76415  36.064  40.350  12.546
12472W        W76416  41.974  19.609  13.873
12473W        W76417  15.143  23.215   0.785
12474W        W76418  13.271  30.635  13.355
12475W        W76419  18.241  40.975   0.427
12476W        W76420  12.313  29.117  10.434
12477W        W76421  27.163   7.332   4.237
12478W        W76422  22.144  32.143   1.224
12479W        W76423  32.012   8.794   0.326
12480W        W76424   9.231   5.920   0.846
12481W        W76425  35.387  25.588  13.393
12482W        W76426   1.409  30.578  10.480
12483W        W76427   3.268  14.781   5.262
12484W        W76428  39.871  36.904  14.501
12485W        W76429  17.664   9.247  13.952
12486W        W76430  44.785  31.101  12.998
12487W        W76431  43.344  36.374   2.729
12488W        W76432   6.182  12.817   1.342
12489W        W76433  31.907  19.095  12.539
12490W        W76434  27.623  31.444   3.274
12491W        W76435  32.451  18.605   0.355
12492W        W76436  17.780  38.445  11.869
12493W        W76437  21.527  23.063   3.241
12494W        W76438  19.117  28.681  13.366
12495W        W76439   6.726   4.300  13.402
12496W        W76440   2.868  14.163  11.403
12497W        W76441   9.342  11.266   4.348
12498W        W76442  15.585  42.815  11.501
12499W        W76443   7.804   2.327  14.858
12500W        W76444  13.185  23.524   1.891
12501W        W76445  22.626   0.780   5.130
12502W        W76446  36.076  37.052   2.181
12503W        W76447  35.474  15.100   1.806
12504W        W76448  18.214  17.659  13.318
12505W        W76449   9.869  23.521  12.003
12506W        W76450  39.823  15.268   4.836
12507W        W76451   1.339   8.329   2.252
12508W        W76452  21.564  15.706  13.951
12509W        W76453  25.034  39.342   0.380
12510W        W76454   1.469  36.439   2.797
12511W        W76455   3.356  26.083   0.309
12512W        W76456  15.112  12.273   4.275
12513W        W76457  20.041  42.004   1.401
12514W        W76458   8.708   5.249   0.760
12515W        W76459  22.045  37.578   3.668
12516W        W76460  37.508  33.037   3.279
12517W        W76461  12.636  30.589  12.065
12518W        W76462   4.842  40.428   5.092
12519W        W76463  40.429  35.523  12.044
12520W        W76464  26.583  31.518   4.793
12521W        W76465  36.388  34.031  10.989
12522W        W76466  30.002  33.461  13.412
12523W        W76467  34.560  18.154   1.439
12524W        W76468  12.157  31.644  10.538
12525W        W76469  13.666  12.676   1.289
12526W        W76470  12.666  34.424   2.850
12527W        W76471  25.483  25.038   3.386
12528W        W76472   5.431  27.987   3.328
12529W        W76473  13.237   4.859   5.094
12530W        W76474  13.200  34.001   0.847
12531W        W76475  17.184  27.582  14.828
12532W        W76476  34.546  41.521  11.865
12533W        W76477  21.627  18.750   0.310
12534W        W76478  28.982  36.378   2.264
12535W        W76479   0.791  12.765   4.326
12536W        W76480  31.134  23.728  12.432
12537W        W76481  39.402   6.425  12.028
12538W        W76482  10.322  11.334   3.202
12539W        W76483  14.826   6.721  11.555
12540W        W76484  26.161  19.285   4.730
12541W        W76485  22.017  44.484  12.830
12542W        W76486  39.904  38.458   4.236
12543W        W76487  19.135  19.627  13.548
12544W        W76488  29.959  29.652   0.890
12545W        W76489  12.361  11.284   1.437
12546W        W76490  16.614  37.070   4.624
12547W        W76491  24.544  18.673  10.938
12548W        W76492  37.424  26.105   3.748
12549W        W76493  42.981   0.298   2.384
12550W        W76494  20.197   0.858   3.677
12551W        W76495  14.284  29.516  14.315
12552W        W76496  18.283   3.356   4.196
12553W        W76497   0.816  20.687   1.795
12554W        W76498   1.857   2.766   1.775
12555W        W76499  17.644  23.211  14.280
12556W        W76500  38.396  40.824  10.488
12557W        W76501   3.907   6.693   1.850
12558W        W76502   1.734  34.110   4.239
12559W        W76503  19.219  21.707  12.035
12560W        W76504  36.475   5.759  11.535
12561W        W76505  12.265  22.519  13.457
12562W        W76506  35.419  39.436   0.295
12563W        W76507  20.080  16.763  14.492
12564W        W76508  35.051  31.102  13.841
12565W        W76509  41.430   9.712   0.463
12566W        W76510  23.202   0.282   4.645
12567W        W76511   0.932   2.887  10.978
12568W        W76512  20.629   7.900  11.473
12569W        W76513  12.344  10.241   3.696
12570W        W76514  42.321  30.574  14.473
12571W        W76515   1.428  25.001  14.435
12572W        W76516  19.700  15.146  14.016
12573W        W76517   2.779  17.151  13.971
12574W        W76518   1.474  19.182  14.942
12575W        W76519  16.142  28.565  14.900
12576W        W76520  17.192  26.070  11.495
12577W        W76521  32.594   8.246  11.111
12578W        W76522  32.139  26.180   3.643
12579W        W76523  24.528  35.557   4.733
12580W        W76524  17.277  14.751  12.977
12581W        W76525   1.819  10.294   3.347
12582W        W76526  25.102  15.809   4.627
12583W        W76527  26.206  23.094   4.325
12584W        W76528   8.838   6.185   0.292
12585W        W76529   4.785  43.970   4.133
12586W        W76530  44.379   9.367  12.546
12587W        W76531  38.933  35.529   4.738
12588W        W76532   9.680  17.746   5.117
12589W        W76533   8.754  44.961  10.464
12590W        W76534   4.820  43.835  11.876
12591W        W76535  16.139  28.970  11.597
12592W        W76536   0.766  20.582   3.709
12593W        W76537  22.054  27.586   2.761
12594W        W76538  22.027  40.471   1.746
12595W        W76539  28.670   1.470   0.340
12596W        W76540  12.172  33.496   2.817
12597W        W76541  29.090  15.668   0.921
12598W        W76542  33.003  27.459  12.412
12599W        W76543  33.471   7.206  14.930
12600W        W76544  27.545   2.257   0.954
12601W        W76545  38.007  20.192   2.687
12602W        W76546  17.268  12.628   2.252
12603W        W76547  25.120  13.105   5.183
12604W        W76548  38.888  10.190  12.957
12605W        W76549  16.800  15.811   0.464
12606W        W76550   3.278   8.286   3.218
12607W        W76551  44.393   0.918   4.814
12608W        W76552   6.718  20.735   2.866
12609W        W76553  42.914   9.863  10.555
12610W        W76554  40.936  10.839  14.367
12611W        W76555   3.452  18.180  14.789
12612W        W76556  20.257  27.110  13.038
12613W        W76557  44.995  14.106   5.081
12614W        W76558  41.369  33.504   3.817
12615W        W76559  11.865  29.967   3.654
12616W        W76560  12.116  15.815   1.340
12617W        W76561  18.111  35.034  12.012
12618W        W76562  10.662  34.473   1.889
12619W        W76563  30.572  35.037  11.105
12620W        W76564  10.678  22.176  13.826
12621W        W76565  35.861  33.024  13.880
12622W        W76566  19.755  32.484  13.384
12623W        W76567  18.052   7.739   4.337
12624W        W76568  26.070  11.294  11.592
12625W        W76569  33.414   2.935   4.607
12626W        W76570  35.027  17.247   2.683
12627W        W76571   9.244   4.873  10.497
12628W        W76572   7.402  20.613   2.879
12629W        W76573  22.021  15.823  12.857
12630W        W76574  16.636  44.953   1.744
12631W        W76575  22.567   9.787  13.321
12632W        W76576  43.816   3.814   2.751
12633W        W76577   4.300   8.869   3.271
12634W        W76578  31.466  36.424   4.623
12635W        W76579  37.452  24.034  14.818
12636W        W76580  25.035  17.753   2.868
12637W        W76581  28.994  40.518  14.382
12638W        W76582  25.044  32.107  14.761
12639W        W76583  39.382  12.255  12.419
12640W        W76584  15.228  26.052  12.484
12641W        W76585  34.093  25.002   3.680
12642W        W76586  11.349   2.287   2.309
12643W        W76587   5.712  21.661   4.690
12644W        W76588  13.317   3.759   5.320
12645W        W76589  29.162  27.058   4.608
12646W        W76590  37.508  27.677  13.840
12647W        W76591  12.341  40.034  12.001
12648W        W76592  40.333  38.361  14.823
12649W        W76593  24.699  13.785   1.723
12650W        W76594   0.253   1.969   1.745
12651W        W76595   6.891  20.589   2.208
12652W        W76596  26.496   7.298   3.244
12653W        W76597   0.292  41.814   1.224
12654W        W76598   9.829   9.375  12.432
12655W        W76599   5.714  44.827   4.727
12656W        W76600  15.171   2.347  11.104
12657W        W76601   2.379  42.788  12.523
12658W        W76602  20.745  17.617   2.418
12659W        W76603  34.967  21.544   4.794
12660W        W76604  38.966  11.863   4.638
12661W        W76605  10.206  14.140  14.019
12662W        W76606  16.140  16.129  11.579
12663W        W76607   2.802   9.326   4.316
12664W        W76608  17.754   2.235   4.308
12665W        W76609  38.921  28.536  12.412
12666W        W76610  38.899  13.289  11.409
12667W        W76611  29.119  20.051  10.115
12668W        W76612  27.083  40.429  12.462
12669W        W76613   7.172  27.530   4.707
12670W        W76614   4.207  38.494   0.774
12671W        W76615  21.068  14.727  12.536
12672W        W76616   7.204  28.652  13.896
12673W        W76617  38.000  35.435  13.850
12674W        W76618  42.431  12.633  13.833
12675W        W76619  36.535  43.768   4.758
12676W        W76620  13.670  20.602   4.330
12677W        W76621   6.793   5.411  10.558
12678W        W76622  11.237  36.988   0.833
12679W        W76623  14.288   9.262  13.816
12680W        W76624  36.979   1.443   2.406
12681W        W76625  42.944  24.694  10.591
12682W        W76626  42.008   0.742   4.632
12683W        W76627  20.045   3.281  14.282
12684W        W76628  43.973  33.593  11.070
12685W        W76629  31.960  15.085  14.824
12686W        W76630  23.198  33.074  13.414
12687W        W76631   4.900   0.341  13.895
12688W        W76632  14.782  40.424  11.998
12689W        W76633  44.298  24.115   2.666
12690W        W76634   4.239   8.865  11.591
12691W        W76635  36.036  30.597  10.426
12692W        W76636   4.371  35.497   4.740
12693W        W76637  33.993  18.627   4.601
12694W        W76638   2.243  16.771  11.963
12695W        W76639  29.974  10.812   3.251
12696W        W76640  14.132  39.558  10.972
12697W        W76641  17.082  43.785  11.957
12698W        W76642  37.487  14.616   1.242
12699W        W76643  10.190  35.580  13.380
12700W        W76644  42.460  19.077   4.654
12701W        W76645  10.684  30.115  12.062
12702W        W76646   6.420  10.689  14.898
12703W        W76647  15.776  26.495   1.430
12704W        W76648  29.028   2.418  14.300
12705W        W76649  21.043  36.365   1.769
12706W        W76650  31.066  33.547   1.224
12707W        W76651  12.130   9.212  11.045
12708W        W76652   6.229  23.598  11.914
12709W        W76653  43.316  10.682  11.499
12710W        W76654  43.825   0.945   1.887
12711W        W76655  30.955  44.838  11.897
12712W        W76656  10.280  32.096  12.900
12713W        W76657   0.337  26.519  13.880
12714W        W76658  35.002  44.281  13.814
12715W        W76659   5.371  12.722  11.884
12716W        W76660  44.860  29.940   4.321
12717W        W76661  18.254   9.309   0.373
12718W        W76662  25.585   2.792  12.366
12719W        W76663  42.815  16.189  12.386
12720W        W76664   7.881  39.053  14.406
12721W        W76665   2.401  17.292   4.746
12722W        W76666  35.991  38.991  13.505
12723W        W76667  10.699   5.743  11.039
12724W        W76668  14.185  13.279  13.367
12725W        W76669  33.390  14.165  12.557
12726W        W76670  19.121  44.497   1.248
12727W        W76671  12.290  31.940  11.069
12728W        W76672  26.540  12.296  14.299
12729W        W76673  36.570  11.808   1.230
12730W        W76674  41.874  23.117  14.351
12731W        W76675  28.538  36.351   1.921
12732W        W76676  40.437   5.211  11.099
12733W        W76677   4.910  44.935   2.328
12734W        W76678   5.831  41.453   4.697
12735W        W76679  44.370  31.125  14.873
12736W        W76680  14.129  19.210  13.387
12737W        W76681   7.708  28.548   5.162
12738W        W76682  27.628  23.673   0.816
12739W        W76683  24.097  41.825  14.826
12740W        W76684  42.459   8.734  13.479
12741W        W76685  29.472   9.755  12.982
12742W        W76686  12.822  16.651  13.992
12743W        W76687  29.966   3.892  13.953
12744W        W76688   3.456  16.745  13.427
12745W        W76689   1.370  20.612  11.489
12746W        W76690  32.452   0.988  10.611
12747W        W76691  30.952  43.823   4.320
12748W        W76692  28.477  31.555   2.267
12749W        W76693  15.134  36.518  14.969
12750W        W76694  43.473  22.130   0.399
12751W        W76695  34.039  24.190   1.732
12752W        W76696   7.778   8.329  11.583
12753W        W76697   7.348  17.669  10.555
12754W        W76698  40.823   3.793   4.832
12755W        W76699  44.978  37.901   0.454
12756W        W76700  42.355  11.203  13.442
12757W        W76701  17.101  19.715  13.957
12758W        W76702  29.430   6.881  11.536
12759W        W76703  22.174  15.679   1.912
12760W        W76704  18.197   9.738  10.984
12761W        W76705  19.658  14.296  14.807
12762W        W76706   2.756   2.339   3.685
12763W        W76707  22.682  19.573  13.005
12764W        W76708  17.562  24.617   1.297
12765W        W76709   2.424   5.374   5.183
12766W        W76710   0.932  36.403   1.712
12767W        W76711  35.460   5.204   4.143
12768W        W76712  30.609  34.495   1.712
12769W        W76713  22.516  37.020   2.770
12770W        W76714  29.082  22.522  12.467
12771W        W76715  39.437  22.705  10.099
12772W        W76716  21.116  10.867  12.964
12773W        W76717  25.177  15.751  12.553
12774W        W76718  18.210  18.737   0.269
12775W        W76719  24.014  38.988   2.241
12776W        W76720   8.294  38.484   0.926
12777W        W76721  10.750  21.729   0.954
12778W        W76722  26.113  28.449   4.198
12779W        W76723  27.492  38.406   3.344
12780W        W76724  17.229  43.483   3.852
12781W        W76725  15.190  29.563  10.494
12782W        W76726  34.508   4.278  14.874
12783W        W76727  25.141   4.826  13.409
12784W        W76728  38.035  34.552  13.328
12785W        W76729  44.879  26.633  13.877
12786W        W76730   2.813  16.619   1.840
12787W        W76731  15.142   3.299  14.491
12788W        W76732  14.633  36.405  12.991
12789W        W76733  34.885  15.265   0.314
12790W        W76734  12.736  12.711   3.851
12791W        W76735  29.573  24.987   0.781
12792W        W76736  37.035   6.425   5.159
12793W        W76737  29.031  32.617  11.074
12794W        W76738  17.154  30.615  11.451
12795W        W76739  40.431  27.016  13.936
12796W        W76740  33.496   1.776  13.495
12797W        W76741   4.436  18.747   0.964
12798W        W76742  40.943   0.769   0.395
12799W        W76743   0.454  27.547   4.722
12800W        W76744   3.399  35.891   0.791
12801W        W76745  29.036  41.786   0.806
12802W        W76746  32.570  29.959  12.077
12803W        W76747  29.516   6.867  13.382
12804W        W76748   2.881  34.979  11.877
12805W        W76749  15.211  15.646   2.301
12806W        W76750  15.615  13.337   3.325
12807W        W76751  32.425  42.411  10.625
12808W        W76752  19.061   2.342  13.985
12809W        W76753  36.529  22.568   3.660
12810W        W76754   1.962   4.760  11.571
12811W        W76755   1.764   5.406   4.721
12812W        W76756  44.799   9.813   4.320
12813W        W76757  35.502  16.078   4.287
12814W        W76758   5.333   8.371   3.229
12815W        W76759   1.744   8.371  10.990
12816W        W76760  21.057  18.169   0.732
12817W        W76761  36.374  44.424  13.010
12818W        W76762  33.451  42.808   3.302
12819W        W76763  34.435  24.203  11.094
12820W        W76764   9.678   9.171   1.802
12821W        W76765  24.128  21.187  10.028
12822W        W76766  30.108   5.892   4.801
12823W        W76767  21.097  10.635  12.489
12824W        W76768   0.410  29.065   2.384
12825W        W76769  37.026  12.720  13.037
12826W        W76770   6.830  44.502   2.328
12827W        W76771  11.333  30.616   0.411
12828W        W76772  15.779  16.646  10.966
12829W        W76773   0.761  26.683  13.452
12830W        W76774   6.303  39.557  13.534
12831W        W76775  42.453  40.850  10.577
12832W        W76776  14.255  30.986  11.044
12833W        W76777  31.089  34.481   2.665
12834W        W76778  34.455  38.341   2.773
12835W        W76779  37.967  15.294   2.332
12836W        W76780  14.672  22.071   4.607
12837W        W76781  24.217  44.993   2.218
12838W        W76782  11.285  38.995   3.267
12839W        W76783  12.178  23.171   2.679
12840W        W76784  21.677  26.157  11.613
12841W        W76785  10.275  35.003   5.139
12842W        W76786  32.571  19.773   5.228
12843W        W76787  32.403  24.052   1.930
12844W        W76788  11.661   7.822  12.043
12845W        W76789  27.568  33.576   2.304
12846W        W76790   5.306  36.070  10.441
12847W        W76791   6.253   4.395  13.388
12848W        W76792  27.456  25.982  14.906
12849W        W76793   3.371  29.554   4.743
12850W        W76794  36.578   6.188   4.635
12851W        W76795  28.132  30.978   4.781
12852W        W76796  36.987  44.443  14.781
12853W        W76797   6.221  31.106   1.775
12854W        W76798  27.191  14.253   3.186
12855W        W76799  35.562  39.936   2.303
12856W        W76800  16.733  14.130   2.230
12857W        W76801   8.859  24.595  14.949
12858W        W76802  25.040  43.008  13.349
12859W        W76803  33.600   3.890   4.333
12860W        W76804  17.172  14.118  14.403
12861W        W76805  31.405  23.047  10.949
12862W        W76806  21.695  14.236  10.996
12863W        W76807  14.287  27.108  12.860
12864W        W76808  35.857  16.722   1.762
12865W        W76809  28.584  14.757  11.489
12866W        W76810   3.428  26.015  14.842
12867W        W76811  12.829  13.281  14.459
12868W        W76812  13.771  35.076   5.322
12869W        W76813  14.111  20.604  12.396
12870W        W76814  11.193  43.498   0.841
12871W        W76815  29.037  17.307  14.289
12872W        W76816   1.338  40.946  10.528
12873W        W76817  41.950  40.495   4.747
12874W        W76818  12.277   6.293  11.999
12875W        W76819  41.011  18.742   0.905
12876W        W76820   2.441   0.849   1.227
12877W        W76821  43.934  41.357  12.362
12878W        W76822   0.800   4.391  12.933
12879W        W76823   4.863   0.967  11.504
12880W        W76824  37.085  35.926  11.415
12881W        W76825  44.428  35.948  12.578
12882W        W76826  33.510   9.663  14.484
12883W        W76827   3.242  37.042  12.861
12884W        W76828   1.833  29.927  10.444
12885W        W76829  40.951   0.891   3.735
12886W        W76830  41.910  10.178   2.823
12887W        W76831  37.073  35.423  11.989
12888W        W76832  24.216  12.792  12.559
12889W        W76833  29.926  30.046   4.140
12890W        W76834  38.009  24.982   3.240
12891W        W76835   7.900  36.523  14.014
12892W        W76836  13.137  20.749  14.915
12893W        W76837   2.888  29.463   4.248
12894W        W76838  10.704  12.152  13.908
12895W        W76839  42.297   8.855  14.932
12896W        W76840  18.744   9.394   4.644
12897W        W76841   2.375   5.813  13.424
12898W        W76842  28.173   5.710   2.875
12899W        W76843  21.735   6.794  10.994
12900W        W76844   3.905  20.071   1.855
12901W        W76845  32.395  27.452  10.909
12902W        W76846  33.938  24.154  10.549
12903W        W76847  25.122  31.438   4.343
12904W        W76848  11.700   5.900  10.987
12905W        W76849  11.812  26.466   1.383
12906W        W76850   9.374  36.968  12.394
12907W        W76851  20.759   5.373  11.129
12908W        W76852   5.874  33.032  13.983
12909W        W76853  23.729  24.112   0.368
12910W        W76854  33.494  41.856   1.295
12911W        W76855  16.268   3.300   3.690
12912W        W76856  33.532  21.757   1.415
12913W        W76857   2.364   4.945  11.043
12914W        W76858  36.593  16.304   0.917
12915W        W76859  35.098  41.384   2.372
12916W        W76860  39.412   5.251   3.714
12917W        W76861  35.032  35.964   4.241
12918W        W76862  42.789  10.348  11.562
12919W        W76863  26.597  21.165  13.929
12920W        W76864  43.007  41.966  13.956
12921W        W76865  10.271  18.278   0.285
12922W        W76866   6.685   6.384   2.327
12923W        W76867  43.017  23.097   4.837
12924W        W76868  11.701  21.671  11.533
12925W        W76869  19.742   6.274   4.827
12926W        W76870  30.921  39.865  12.413
12927W        W76871  31.435  17.283   2.183
12928W        W76872  32.028   4.391  12.518
12929W        W76873  40.539  36.593  12.076
12930W        W76874  18.571  34.903  14.944
12931W        W76875  13.124  23.608  12.366
12932W        W76876  25.589  22.136   4.223
12933W        W76877  32.473  28.584  14.451
12934W        W76878   4.443  18.603   3.280
12935W        W76879  14.282  19.100   1.372
12936W        W76880   1.264  18.116   4.261
12937W        W76881   4.871  12.152   3.810
12938W        W76882  32.513  28.536  12.477
12939W        W76883  44.906  16.621  11.521
12940W        W76884   6.213  36.092   4.188
12941W        W76885  27.021  34.883  10.463
12942W        W76886  34.489  16.187   1.921
12943W        W76887   9.656   8.835  11.968
12944W        W76888  35.370  21.165   0.841
12945W        W76889   9.797  14.274  14.896
12946W        W76890  24.542   6.839   4.255
12947W        W76891  10.203  44.414  10.159
12948W        W76892  11.848   5.705  14.917
12949W        W76893   8.666  18.695  11.946
12950W        W76894  21.085  27.113   3.150
12951W        W76895  28.452  11.699   3.213
12952W        W76896  29.648  25.145   3.867
12953W        W76897  14.675  41.975  12.013
12954W        W76898  11.758  36.964  10.534
12955W        W76899  14.832  35.108   0.321
12956W        W76900  34.453  21.063   0.864
12957W        W76901  37.885   5.395   3.633
12958W        W76902   0.389  42.852  12.552
12959W        W76903  21.222  18.777   2.768
12960W        W76904   4.205  12.157  12.538
12961W        W76905  14.681  24.223   3.172
12962W        W76906  27.492  43.767   3.183
12963W        W76907  41.382  20.742   4.170
12964W        W76908  30.035   4.263   3.257
12965W        W76909   6.713  25.516  10.945
12966W        W76910  26.502   9.222   2.258
12967W        W76911  10.220  31.502   4.683
12968W        W76912   9.876  41.306  11.935
12969W        W76913  10.695  28.004  12.002
12970W        W76914  14.183  42.345   3.742
12971W        W76915   3.765  35.429  11.880
12972W        W76916   1.458  15.178  14.937
12973W        W76917   1.468   8.311  11.116
12974W        W76918  34.379  15.735  14.004
12975W        W76919  19.186  13.807  10.499
12976W        W76920  44.753   9.781   0.752
12977W        W76921  31.491  24.162   1.707
12978W        W76922   5.340  38.432   4.206
12979W        W76923  32.396   1.785   0.910
12980W        W76924  32.424  29.030   2.720
12981W        W76925  38.458  12.190   0.748
12982W        W76926  22.101   7.898   3.836
12983W        W76927  32.553  30.919  10.593
12984W        W76928  37.975  24.983   2.902
12985W        W76929   5.375   2.367  12.350
12986W        W76930  20.112  25.662   1.794
12987W        W76931   3.890   2.293  11.515
12988W        W76932  29.565  30.119   2.828
12989W        W76933  42.020  38.438   0.957
12990W        W76934  29.585  15.308   4.765
12991W        W76935  22.119  32.139   3.217
12992W        W76936  40.814   3.914  13.325
12993W        W76937   9.237  10.284   4.182
12994W        W76938  30.415   3.842   4.343
12995W        W76939   3.898  10.849  11.377
12996W        W76940  39.973  17.062  11.396
12997W        W76941  16.179  23.528   4.799
12998W        W76942  41.392  43.870   4.625
12999W        W76943  38.896   1.330   9.980
13000W        W76944  40.042  11.749  11.452
13001W        W76945  36.517   0.491  14.474
13002W        W76946  36.852  30.500  10.439
13003W        W76947  26.507  37.344  12.480
13004W        W76948  24.127   1.287  11.476
13005W        W76949  34.473  32.995  14.855
13006W        W76950  36.999  35.510  14.504
13007W        W76951  43.300  13.603  12.340
13008W        W76952   9.648  44.300  13.842
13009W        W76953  19.227  34.043  12.900
13010W        W76954  10.181   3.727  14.353
13011W        W76955  33.962  17.251  13.314
13012W        W76956  27.517  22.510   1.803
13013W        W76957  33.522   2.357   2.701
13014W        W76958  41.302  18.784  14.832
13015W        W76959   5.894  36.544   3.216
13016W        W76960  38.943  21.042  13.343
13017W        W76961  16.179  25.092  11.485
13018W        W76962  42.513  39.843  13.321
13019W        W76963  40.526  21.563  12.066
13020W        W76964  25.546  30.618   3.195
13021W        W76965  24.116  23.581  10.895
13022W        W76966  17.663  17.186  14.978
13023W        W76967  14.308   8.330  12.473
13024W        W76968  39.839  25.662   2.282
13025W        W76969  24.988  21.593   1.220
13026W        W76970  30.958  14.205  11.083
13027W        W76971   4.227  24.712   3.739
13028W        W76972  28.154  21.211   2.767
13029W        W76973   3.818  12.330  14.438
13030W        W76974  34.404  17.676  12.979
13031W        W76975   7.750   5.863  10.992
13032W        W76976   3.436  27.659  13.547
13033W        W76977  32.425   9.214   2.837
13034W        W76978  26.641  28.542   4.831
13035W        W76979   0.810   5.783   4.630
13036W        W76980  12.193  35.028  13.910
13037W        W76981  13.797  39.528   3.772
13038W        W76982   8.869  31.990  14.381
13039W        W76983  31.067  31.538  12.900
13040W        W76984  22.601  37.495  12.574
13041W        W76985  13.822  35.392  13.963
13042W        W76986   3.889  21.121   4.148
13043W        W76987  44.447  41.482   1.218
13044W        W76988  28.138  28.154  11.038
13045W        W76989  16.099  30.642  12.396
13046W        W76990  26.584  19.098   1.704
13047W        W76991   7.884   7.872   1.906
13048W        W76992   7.397  14.321  11.912
13049W        W76993   3.278  36.522  14.764
13050W        W76994  33.496  31.015  12.924
13051W        W76995  26.106  38.840   1.235
13052W        W76996  29.979  25.086   3.349
13053W        W76997  33.956  38.377   0.865
13054W        W76998  22.632   9.197   1.847
13055W        W76999  33.910  23.997  11.016
13056W        W77000  24.625   9.776  14.331
13057W        W77001  34.074  25.023   4.295
13058W        W77002  17.123   7.347   2.357
13059W        W77003  38.387  20.065   3.283
13060W        W77004   8.806  36.966  13.833
13061W        W77005   3.877   2.273   4.257
13062W        W77006  30.963  11.836   3.199
13063W        W77007  26.594  44.939   4.213
13064W        W77008  16.073  30.017   0.381
13065W        W77009  44.861   4.929  11.866
13066W        W77010  11.678  32.131   9.938
13067W        W77011  30.458  34.089  14.846
13068W        W77012   6.681  40.327   1.451
13069W        W77013  38.049  37.021   4.130
13070W        W77014   6.362   9.759   3.838
13071W        W77015  39.887  19.657   0.484
13072W        W77016  10.794  44.989  11.073
13073W        W77017  39.552  14.643   0.380
13074W        W77018  36.357   7.879   2.382
13075W        W77019  40.511  35.981   4.239
13076W        W77020  13.339  29.533  14.381
13077W        W77021   3.829  15.200   4.131
13078W        W77022  40.377  20.561   1.727
13079W        W77023  16.759  27.124   3.353
13080W        W77024  38.537  17.567  11.952
13081W        W77025  37.969   1.430  14.868
13082W        W77026   8.215  43.441   4.263
13083W        W77027  29.632  37.564   3.638
13084W        W77028  41.465  28.147  13.431
13085W        W77029  39.431  38.946   4.795
13086W        W77030  35.359  23.157   4.725
13087W        W77031  27.951  17.669   0.938
13088W        W77032  28.483  35.052  13.463
13089W        W77033  30.617   7.766   1.286
13090W        W77034   3.813  35.939  12.850
13091W        W77035   1.454  31.418   4.245
13092W        W77036  17.157  34.406   4.283
13093W        W77037   5.416   3.877  13.002
13094W        W77038  20.168  35.978   5.122
13095W        W77039   2.762   6.310  14.903
13096W        W77040  32.559  34.988   4.258
13097W        W77041  23.537  33.071   1.375
13098W        W77042  17.592  28.454  13.027
13099W        W77043   6.188   0.317  13.890
13100W        W77044  35.493  14.768   0.762
13101W        W77045  21.728  16.789  12.072
13102W        W77046  24.027  42.431  13.041
13103W        W77047  28.095  40.854  11.045
13104W        W77048  35.070   5.783   2.832
13105W        W77049  12.715  31.996  14.368
13106W        W77050  37.939  13.267  14.796
13107W        W77051   9.193   6.802  13.545
13108W        W77052   1.327  13.663  12.828
13109W        W77053  41.461  33.503  14.932
13110W        W77054   0.307   9.331   3.683
13111W        W77055  23.181  18.752   1.920
13112W        W77056   4.715  32.593   1.787
13113W        W77057  38.495  30.595  10.556
13114W        W77058   8.843  38.949   1.400
13115W        W77059  20.682  33.061   3.310
13116W        W77060  44.304  18.162   2.713
13117W        W77061  12.294  40.029   3.822
13118W        W77062  31.457  37.971  12.977
13119W        W77063   0.784   2.929  12.569
13120W        W77064  15.315  34.087  12.498
13121W        W77065   7.872  18.708   3.634
13122W        W77066  11.693  31.529   3.300
13123W        W77067   2.723  44.978  13.349
13124W        W77068  29.164  36.922  13.547
13125W        W77069   6.183  25.132  14.378
13126W        W77070  41.894   3.443  10.515
13127W        W77071  18.690   1.405  11.113
13128W        W77072  24.030  13.264  13.472
13129W        W77073  21.686  10.692  14.832
13130W        W77074   8.193  32.613  11.083
13131W        W77075  38.428  16.093  14.310
13132W        W77076   2.875  12.310  13.497
13133W        W77077  32.120  34.924  11.891
13134W        W77078  16.574  10.776   1.339
13135W        W77079  23.598  20.090   4.746
13136W        W77080   4.743  29.608   0.384
13137W        W77081   5.432  44.275  12.078
13138W        W77082  13.635  12.640   3.757
13139W        W77083   8.749  18.717   4.134
13140W        W77084  20.639  27.656  11.529
13141W        W77085  39.377   4.414   2.790
13142W        W77086  24.005  13.768   4.626
13143W        W77087  41.375   0.812   4.289
13144W        W77088   9.305  44.345  13.928
13145W        W77089  40.027  22.672  13.949
13146W        W77090  37.364  42.943   1.331
13147W        W77091  42.380  38.857  14.392
13148W        W77092  12.330   2.413  13.994
13149W        W77093  32.941  22.597  13.853
13150W        W77094   9.679  26.533   1.316
13151W        W77095  21.082  15.168  12.076
13152W        W77096  43.482  24.532   2.791
13153W        W77097   1.928  31.485   0.379
13154W        W77098  10.214  39.383   1.828
13155W        W77099  18.588  43.906  12.047
13156W        W77100  43.269  14.238  14.921
13157W        W77101  12.357  31.453   0.477
13158W        W77102  41.819  18.569  13.989
13159W        W77103   2.340  41.453  12.922
13160W        W77104  35.956  27.123   4.667
13161W        W77105  29.965  39.822  14.937
13162W        W77106  42.808  25.027   1.319
13163W        W77107  27.652   1.752  10.638
13164W        W77108   7.273  25.584  13.350
13165W        W77109   5.719  11.633  12.461
13166W        W77110   0.918  33.514   0.856
13167W        W77111  12.341  34.539  13.463
13168W        W77112  42.022  32.528  13.350
13169W        W77113  26.129  40.375  12.545
13170W        W77114  35.572  44.757  12.483
13171W        W77115  32.468  44.923   4.254
13172W        W77116  22.197  39.341  13.846
13173W        W77117  20.756  35.411  13.047
13174W        W77118  33.610  34.910   1.853
13175W        W77119  29.008  22.214  12.536
13176W        W77120  34.995   4.406   1.259
13177W        W77121  44.304  23.561  12.418
13178W        W77122   7.715   8.297   1.239
13179W        W77123  21.656  33.465  10.139
13180W        W77124  28.658  36.915   2.783
13181W        W77125  23.553  43.917  12.431
13182W        W77126  17.633   5.750   3.746
13183W        W77127   2.230  11.768   1.910
13184W        W77128  29.604  32.519  13.407
13185W        W77129  13.208  32.397  14.430
13186W        W77130   9.743  29.597  14.295
13187W        W77131  21.583   8.167   4.113
13188W        W77132  28.669   0.817  10.505
13189W        W77133   7.363  22.607  13.324
13190W        W77134  39.001   9.254   0.758
13191W        W77135  36.091  43.387  12.895
13192W        W77136  13.743  26.968  13.482
13193W        W77137  38.929   8.337  12.945
13194W        W77138   6.184   6.268  14.948
13195W        W77139  37.485  17.130  13.358
13196W        W77140  32.050  31.951  13.799
13197W        W77141  42.825  11.204  14.785
13198W        W77142  26.087  31.635  11.526
13199W        W77143  22.562  30.512   1.905
13200W        W77144  26.149   1.973   0.307
13201W        W77145  34.030   2.854  14.418
13202W        W77146   0.847  18.653   4.120
13203W        W77147   7.706   2.837  14.508
13204W        W77148  41.352   7.379   4.792
13205W        W77149  24.697   0.445  14.306
13206W        W77150  36.881   0.493   2.205
13207W        W77151  39.874   2.425   3.352
13208W        W77152   8.805  21.611  11.043
13209W        W77153  14.118   0.463   2.760
13210W        W77154   3.308  10.787   0.926
13211W        W77155  40.814  15.281   4.682
13212W        W77156  39.898   5.727  11.862
13213W        W77157  25.003  35.406   4.837
13214W        W77158   8.823   7.359   3.360
13215W        W77159  27.991  38.041   5.096
13216W        W77160  40.379  32.536   0.391
13217W        W77161  19.687   6.382  11.377
13218W        W77162  41.455   9.836  13.977
13219W        W77163  15.596  14.288  11.384
13220W        W77164  15.784  10.172  11.478
13221W        W77165  29.458  19.053  10.965
13222W        W77166  26.582  41.835  14.307
13223W        W77167   1.963  12.360  11.600
13224W        W77168  27.014  13.275   0.788
13225W        W77169  19.729  23.545  12.520
13226W        W77170   3.876  20.166   2.728
13227W        W77171  18.789  21.513  13.431
13228W        W77172   1.453  18.126   3.322
13229W        W77173   8.257   2.885  13.006
13230W        W77174   9.167   0.353  13.037
13231W        W77175  31.443  13.231   3.239
13232W        W77176  14.199  23.052   4.741
13233W        W77177  29.128  20.103   5.269
13234W        W77178  38.549  15.257  14.777
13235W        W77179  23.175  12.274   3.363
13236W        W77180  29.475   0.820   4.322
13237W        W77181  21.717  38.845  14.022
13238W        W77182  20.659   1.851  10.614
13239W        W77183  10.248  22.020   1.846
13240W        W77184  28.586  16.731  13.064
13241W        W77185  32.453  10.755  13.999
13242W        W77186   8.668  18.265  11.078
13243W        W77187  42.473  36.523  13.481
13244W        W77188   0.927   5.840   0.787
13245W        W77189  28.158  23.237   1.231
13246W        W77190   1.801  10.384   1.443
13247W        W77191   2.958  11.801  12.420
13248W        W77192  21.203  15.788  14.317
13249W        W77193  18.751  28.600   1.444
13250W        W77194  28.157   0.446   4.794
13251W        W77195  15.663  40.984  12.916
13252W        W77196  35.902  17.741  14.760
13253W        W77197   5.432  13.711  14.902
13254W        W77198  35.582  40.517   3.691
13255W        W77199  30.044   6.306  13.851
13256W        W77200  19.754   0.411   0.801
13257W        W77201  38.911  12.659  11.917
13258W        W77202  44.987  37.931  11.507
13259W        W77203  37.050  32.045   2.340
13260W        W77204  26.087  20.753  11.036
13261W        W77205  44.885  41.491  11.516
13262W        W77206  30.578  35.935   0.277
13263W        W77207  21.067  26.649   2.674
13264W        W77208   6.919  30.617  13.831
13265W        W77209  33.107  34.516   3.182
13266W        W77210  43.271  25.690   3.850
13267W        W77211  23.693  27.473   0.846
13268W        W77212  24.481  14.800  12.944
13269W        W77213  34.953   8.830  10.983
13270W        W77214  20.204  19.158  10.535
13271W        W77215  30.098  12.798   1.379
13272W        W77216  42.387  19.616  13.825
13273W        W77217   3.815   0.939  14.792
13274W        W77218  19.543  39.444   2.725
13275W        W77219  30.460   2.840  12.027
13276W        W77220  13.202  39.383  10.519
13277W        W77221   2.925  20.219  10.447
13278W        W77222  10.278   2.756  14.274
13279W        W77223  21.587  25.655  10.909
13280W        W77224  15.328  21.055  12.416
13281W        W77225  31.044   7.752  11.448
13282W        W77226   2.350   8.348   4.712
13283W        W77227   5.390  12.733   3.160
13284W        W77228  10.142   7.335   9.919
13285W        W77229  18.618  23.541   1.695
13286W        W77230   7.831  10.155  10.990
13287W        W77231  16.072  38.449   2.343
13288W        W77232  32.541  19.700   1.786
13289W        W77233  42.464  41.794  13.433
13290W        W77234  32.432  32.091  12.541
13291W        W77235  11.675  29.043  11.055
13292W        W77236  35.373  21.157  12.520
13293W        W77237  38.490  10.214   1.211
13294W        W77238  30.435  33.001  10.588
13295W        W77239  18.703  29.453  14.771
13296W        W77240  39.986   9.674  13.964
13297W        W77241  37.911  42.805   1.251
13298W        W77242  18.096  37.531   2.767
13299W        W77243  28.680   9.197   1.321
13300W        W77244  11.769   4.388   2.686
13301W        W77245  21.037  14.123  12.370
13302W        W77246  34.905  25.542  11.564
13303W        W77247   7.810   1.242   4.598
13304W        W77248  38.828  13.201   0.878
13305W        W77249  36.585  26.458  14.903
13306W        W77250   5.742   2.264   4.741
13307W        W77251  39.493  39.526   1.350
13308W        W77252  44.463  16.296  12.088
13309W        W77253  22.668  33.443  14.866
13310W        W77254  30.059  43.287   4.694
13311W        W77255  41.962  37.343   4.702
13312W        W77256  28.978  25.202   5.192
13313W        W77257  34.606  32.524   4.725
13314W        W77258  21.554  22.147   9.532
13315W        W77259  18.192  14.794   0.925
13316W        W77260  17.656  18.595  11.533
13317W        W77261  32.970  35.483  13.945
13318W        W77262  43.440   0.415   1.816
13319W        W77263  43.319  17.100   1.739
13320W        W77264  30.604  14.654  11.386
13321W        W77265  31.086  28.146  10.049
13322W        W77266   7.331  19.610   4.212
13323W        W77267   6.906   1.458  10.604
13324W        W77268  27.593  29.025   1.414
13325W        W77269  12.787  30.472  14.930
13326W        W77270  25.568  39.526  14.277
13327W        W77271  26.537  35.362  12.358
13328W        W77272  18.600  21.025  13.509
13329W        W77273  38.516  15.155   0.332
13330W        W77274   1.326  12.790   2.883
13331W        W77275   0.281  21.671   4.154
13332W        W77276  27.473  19.640  10.931
13333W        W77277  29.552  27.469  11.945
13334W        W77278   9.172   7.293  14.801
13335W        W77279  17.288  17.142  12.449
13336W        W77280  22.049  23.058  12.830
13337W        W77281   4.255  26.668  11.887
13338W        W77282  35.865  13.156  10.541
13339W        W77283  43.774  12.237  11.089
13340W        W77284  10.263  31.987  13.912
13341W        W77285   5.249   3.763  13.469
13342W        W77286  39.951  15.168   1.402
13343W        W77287   0.894  25.144   2.296
13344W        W77288  24.721  27.631  11.573
13345W        W77289  30.618  12.711  11.551
13346W        W77290  16.125  35.561   3.696
13347W        W77291   6.421  35.512  13.863
13348W        W77292  37.499   2.278   4.335
13349W        W77293  35.016  35.520  11.857
13350W        W77294  19.189  29.052  10.934
13351W        W77295   4.361   6.423   3.637
13352W        W77296  38.523  29.540   0.417
13353W        W77297  38.393  24.012   3.780
13354W        W77298  25.196  19.613   0.396
13355W        W77299   2.751  26.150  11.886
13356W        W77300  40.444  22.072   1.377
13357W        W77301   4.243  32.505   3.812
13358W        W77302  31.567  24.568   1.857
13359W        W77303  38.473  36.857  13.468
13360W        W77304   6.332  13.637   0.952
13361W        W77305  13.703  36.900  12.862
13362W        W77306  12.135  20.068  12.046
13363W        W77307  42.844  40.343   4.756
13364W        W77308  33.968  25.497   4.330
13365W        W77309  24.689   7.180   4.140
13366W        W77310  36.580   0.269   9.966
13367W        W77311  15.721   5.704   0.355
13368W        W77312  12.340  18.781   2.842
13369W        W77313   2.888  13.191   0.274
13370W        W77314  35.367   8.800  12.994
13371W        W77315  39.889  39.850  13.893
13372W        W77316  33.482  15.185   4.282
13373W        W77317  19.755  41.406   0.459
13374W        W77318   8.403   2.921   4.715
13375W        W77319  16.084  10.140  12.850
13376W        W77320  37.881   3.921  14.896
13377W        W77321  25.555  22.589  13.315
13378W        W77322  32.957   5.288   4.597
13379W        W77323  44.964  22.186   2.776
13380W        W77324  24.007  36.499   1.316
13381W        W77325  30.572  22.686  12.005
13382W        W77326  24.499  42.336   3.237
13383W        W77327   7.321  27.611   3.266
13384W        W77328  36.904  25.027   3.147
13385W        W77329   9.787  44.384   3.785
13386W        W77330  11.791   2.745  10.893
13387W        W77331  36.985   4.814   0.331
13388W        W77332  38.936  37.436   3.277
13389W        W77333  17.575  36.080  13.344
13390W        W77334   6.782  37.969  13.423
13391W        W77335  24.053  32.582   2.669
13392W        W77336  35.418   7.208  11.068
13393W        W77337   7.862  13.765   4.711
13394W        W77338   4.246  43.879  14.423
13395W        W77339  22.161  23.110   3.630
13396W        W77340  30.639  25.482   4.155
13397W        W77341   8.256  37.976  11.589
13398W        W77342   2.840  18.086  11.013
13399W        W77343  19.127  21.074  11.521
13400W        W77344  32.974  42.426   3.770
13401W        W77345  40.355  24.156  12.357
13402W        W77346  38.824   3.375   1.229
13403W        W77347  44.367   1.785  10.130
13404W        W77348  41.403  14.193  13.358
13405W        W77349  27.564  21.243  14.845
13406W        W77350  29.091  29.029   4.199
13407W        W77351   5.784   0.272  12.377
13408W        W77352  15.139  35.408   2.361
13409W        W77353   2.727  16.155  13.509
13410W        W77354  13.212  26.138   3.172
13411W        W77355  35.440  10.824   4.332
13412W        W77356  21.254  33.511  11.945
13413W        W77357   2.904  14.599  13.331
13414W        W77358  22.554  16.659  11.990
13415W        W77359  36.436  38.849   3.362
13416W        W77360  15.748   1.412   1.824
13417W        W77361  24.604   6.870  10.556
13418W        W77362   4.760  13.631   4.617
13419W        W77363   6.375  32.522   3.324
13420W        W77364   1.822  44.864   2.322
13421W        W77365  10.856  20.569   0.269
13422W        W77366  34.446  43.455  12.496
13423W        W77367  28.152  20.190  10.504
13424W        W77368  28.591   1.381   3.188
13425W        W77369  35.982   0.884  14.282
13426W        W77370  11.293  21.153  13.475
13427W        W77371  40.940  36.964   2.382
13428W        W77372  26.153  31.519   0.807
13429W        W77373  35.559   8.734  14.826
13430W        W77374  22.539  38.566   1.314
13431W        W77375  31.016  21.257  11.912
13432W        W77376  36.910  27.175  11.394
13433W        W77377  39.836  40.320  10.924
13434W        W77378  42.345   9.872  12.901
13435W        W77379  41.956   4.261  11.865
13436W        W77380  33.996   0.987  13.387
13437W        W77381  39.417  43.902  14.952
13438W        W77382   6.375  35.491   4.671
13439W        W77383  15.093   3.736   0.284
13440W        W77384  30.471  39.920   4.200
13441W        W77385  38.038  29.599   2.827
13442W        W77386   6.306  40.425  12.009
13443W        W77387  34.473  27.137  13.384
13444W        W77388  43.496  31.540   3.734
13445W        W77389  43.324  10.360  10.522
13446W        W77390   0.270   8.742  11.013
13447W        W77391  21.026  12.707   1.724
13448W        W77392  43.408  25.546   2.772
13449W        W77393  33.458  41.928  11.860
13450W        W77394  38.528   3.915   0.276
13451W        W77395   0.824  44.327  12.954
13452W        W77396   7.794  12.625   4.261
13453W        W77397  12.300  36.985  12.562
13454W        W77398  33.015   4.710   3.252
13455W        W77399  39.963  30.040   4.655
13456W        W77400  43.901  42.391   1.249
13457W        W77401  40.536  35.516   4.196
13458W        W77402  29.167   1.923  13.312
13459W        W77403  33.048  29.133   3.685
13460W        W77404  16.294  27.554  14.929
13461W        W77405  31.979   4.240   1.419
13462W        W77406  18.612  38.379   2.306
13463W        W77407  24.200  27.684  10.968
13464W        W77408  22.096  41.444   4.346
13465W        W77409  33.105  11.723   0.326
13466W        W77410  32.629  28.069   3.851
13467W        W77411  42.323  42.323   2.768
13468W        W77412  24.029  29.474  11.376
13469W        W77413  28.575  34.913  10.501
13470W        W77414  39.376  41.794   2.722
13471W        W77415  21.683   0.759   4.601
13472W        W77416  22.145   7.907  10.947
13473W        W77417   4.431  35.575   3.681
13474W        W77418  44.473  13.218  11.066
13475W        W77419   5.402  18.117  12.927
13476W        W77420  16.569  28.089  13.507
13477W        W77421  42.807  31.048   1.424
13478W        W77422  27.690  35.385   2.670
13479W        W77423  12.176  33.879   1.890
13480W        W77424  39.912  23.612   3.195
13481W        W77425  43.876   1.274   4.621
13482W        W77426  39.842  42.873   4.672
13483W        W77427  33.511  12.726   1.770
13484W        W77428  40.049  13.319   2.263
13485W        W77429  38.838  19.633   4.279
13486W        W77430  11.686  28.673   4.317
13487W        W77431  44.407   5.252   3.647
13488W        W77432  39.489   3.343   0.942
13489W        W77433  26.033  23.505  13.824
13490W        W77434  26.147  41.954  10.924
13491W        W77435  28.520  44.904  11.487
13492W        W77436  14.233  37.856  13.315
13493W        W77437  27.562  32.901   1.701
13494W        W77438  21.733  25.629   2.213
13495W        W77439  39.381  21.597   4.174
13496W        W77440  35.417  38.535  13.463
13497W        W77441  11.826  19.104   3.687
13498W        W77442  36.893  43.991  14.335
13499W        W77443   4.351  43.413   0.809
13500W        W77444   0.749   5.813   5.264
13501W        W77445  14.818   2.780   3.655
13502W        W77446   9.753  37.957  13.483
13503W        W77447  30.493  14.652  14.364
13504W        W77448   1.868  31.513  10.524
13505W        W77449  32.004  28.668  12.569
13506W        W77450   3.418  29.565  10.430
13507W        W77451  19.651   9.230   1.409
13508W        W77452  29.568  34.950  12.418
13509W        W77453  18.151  43.890  13.055
13510W        W77454  11.867  40.439   3.710
13511W        W77455  32.985  42.878   1.915
13512W        W77456  20.068  43.415  13.521
13513W        W77457  30.481  26.617  13.949
13514W        W77458  36.035  13.169  11.409
13515W        W77459  41.304   1.903  12.964
13516W        W77460   0.763  31.576   3.353
13517W        W77461  44.905  17.660  14.470
13518W        W77462  39.030   7.867  12.408
13519W        W77463  15.675  12.210  12.375
13520W        W77464  22.169   9.212  13.881
13521W        W77465  39.893   1.963   0.444
13522W        W77466  12.279  34.894  13.363
13523W        W77467  25.674   5.916   4.135
13524W        W77468  37.918  32.030   2.363
13525W        W77469  33.013   7.708   2.688
13526W        W77470  31.024  16.700   1.211
13527W        W77471  16.282  43.934  11.867
13528W        W77472  44.337  30.496  11.471
13529W        W77473  11.692  30.940   9.928
13530W        W77474  22.527  10.328  10.075
13531W        W77475  27.088  35.384  14.920
13532W        W77476  41.491  40.471   4.647
13533W        W77477  27.595  27.981  13.899
13534W        W77478  12.279  16.754  10.957
13535W        W77479  33.452  23.541   4.795
13536W        W77480  11.805   7.813  12.450
13537W        W77481  40.800  18.660   2.662
13538W        W77482  22.216   0.303   1.905
13539W        W77483  23.183  24.116  12.991
13540W        W77484   2.373   4.873  12.942
13541W        W77485  40.852  38.438   0.910
13542W        W77486  43.798  17.613   0.893
13543W        W77487  20.769  28.101   1.870
13544W        W77488  23.202  13.162   0.477
13545W        W77489   7.900  42.318   2.734
13546W        W77490  19.598  10.650   1.911
13547W        W77491  41.873  12.246   2.211
13548W        W77492  40.315  10.301   0.364
13549W        W77493  24.075   6.897   4.134
13550W        W77494   8.313  42.437  11.073
13551W        W77495  18.599  16.224  13.052
13552W        W77496  34.542  37.486  12.920
13553W        W77497  18.642   6.333   0.427
13554W        W77498   7.334  35.542  14.459
13555W        W77499  34.031   1.819  12.528
13556W        W77500  18.739  17.764   3.266
13557W        W77501  41.518  32.600   2.274
13558W        W77502  36.483   9.347   2.198
13559W        W77503  32.051  30.002   2.846
13560W        W77504   9.150   3.869   3.385
13561W        W77505  10.301  24.582  11.611
13562W        W77506  28.159   0.785   3.204
13563W        W77507  42.951  21.739  10.984
13564W        W77508  12.175  41.438   4.302
13565W        W77509   4.810  25.982   3.337
13566W        W77510  32.459  18.155  11.372
13567W        W77511  16.599  25.103  11.128
13568W        W77512  15.752  36.471  14.762
13569W        W77513   1.468  40.812  10.908
13570W        W77514   7.273  42.424  13.514
13571W        W77515  22.653  38.001  12.358
13572W        W77516  39.836  27.533   2.816
13573W        W77517  19.268  43.477  10.466
13574W        W77518   9.839   5.326   3.746
13575W        W77519  30.085  28.043   2.398
13576W        W77520   2.316  19.049  12.475
13577W        W77521  44.343  27.097   3.214
13578W        W77522  12.705  21.733   2.683
13579W        W77523  43.276  42.777   4.198
13580W        W77524   8.682  29.047  10.900
13581W        W77525  34.916  24.519   3.239
13582W        W77526  39.878  10.224   4.236
13583W        W77527  10.878  37.861   2.339
13584W        W77528  18.766   3.415  12.028
13585W        W77529  16.590  31.646  13.030
13586W        W77530  11.635  40.874   1.822
13587W        W77531  16.209  29.483   3.173
13588W        W77532   5.900  29.552   3.161
13589W        W77533  24.703  31.410  13.953
13590W        W77534  17.676   5.374   3.780
13591W        W77535   5.892  32.609  11.463
13592W        W77536  41.917  19.572   2.294
13593W        W77537  14.677   7.853  14.458
13594W        W77538  37.468   8.838  10.982
13595W        W77539  26.510   8.661   2.203
13596W        W77540  32.535  30.999   4.113
13597W        W77541  33.053  18.173  12.383
13598W        W77542  37.954  26.612  11.445
13599W        W77543   9.733  38.397  11.905
13600W        W77544  37.453   5.839  11.054
13601W        W77545  31.956   5.289   4.736
13602W        W77546  37.462  43.391   0.946
13603W        W77547  20.612  34.037   0.774
13604W        W77548  38.454  13.123   2.356
13605W        W77549  33.417  21.175  12.825
13606W        W77550   1.882  39.471   0.393
13607W        W77551  30.564   8.658  11.500
13608W        W77552  42.801  37.031   4.289
13609W        W77553  25.034   0.851  12.468
13610W        W77554  38.327  20.550   4.768
13611W        W77555  27.561  12.824   2.312
13612W        W77556  17.652   2.353   3.338
13613W        W77557  23.201  25.601  11.475
13614W        W77558  16.705   4.714   1.752
13615W        W77559  16.699   5.808   2.727
13616W        W77560  38.456   9.838  12.003
13617W        W77561  36.444  41.426   0.277
13618W        W77562  20.244   8.672  12.555
13619W        W77563  27.488  29.494  10.496
13620W        W77564   9.327   4.419   2.704
13621W        W77565   9.210  44.853  10.979
13622W        W77566  12.779  36.957   2.834
13623W        W77567   0.984   1.967  14.357
13624W        W77568   0.791  17.750  14.803
13625W        W77569  35.472  33.079  11.114
13626W        W77570  36.997  20.265   3.724
13627W        W77571  15.261  35.918   3.265
13628W        W77572  17.166  21.174   3.738
13629W        W77573  42.362  34.463  11.385
13630W        W77574  19.724   4.850   4.259
13631W        W77575   1.970  29.100   1.900
13632W        W77576  20.653  39.940   4.282
13633W        W77577   7.173  10.711  13.952
13634W        W77578   5.435   2.885  12.942
13635W        W77579   1.869   4.794   9.656
13636W        W77580  13.205  22.714   1.762
13637W        W77581   6.735  39.990   4.748
13638W        W77582  24.514  14.106  11.012
13639W        W77583   1.963  28.183   3.637
13640W        W77584  15.634  37.031   4.724
13641W        W77585  35.374  33.427   3.298
13642W        W77586   0.861  13.822  10.622
13643W        W77587   0.864  14.163  11.110
13644W        W77588  34.406  44.406   0.959
13645W        W77589   8.837   0.382   0.292
13646W        W77590  29.098  39.831   1.397
13647W        W77591  12.709   0.481   3.352
13648W        W77592  31.637  29.557   2.271
13649W        W77593  25.468   1.355  14.951
13650W        W77594  35.099  17.159  12.966
13651W        W77595   4.739  30.063  14.449
13652W        W77596  20.756  11.749   2.275
13653W        W77597  29.458   2.945  13.475
13654W        W77598  20.590   2.360   3.154
13655W        W77599  34.066  27.041  13.471
13656W        W77600  14.719  30.505  14.834
13657W        W77601  21.025  14.218   4.294
13658W        W77602  35.958  13.836  14.470
13659W        W77603  29.012   5.222   1.736
13660W        W77604  26.097  44.830   1.742
13661W        W77605   0.749  40.340   4.766
13662W        W77606  24.052  24.702  11.395
13663W        W77607   3.418  33.097   0.444
13664W        W77608   6.708  32.917   1.728
13665W        W77609  38.965  26.647   2.819
13666W        W77610  12.220  33.547  13.322
13667W        W77611  13.688  16.628   4.806
13668W        W77612   0.821   0.326   3.726
13669W        W77613  39.367   3.956  11.999
13670W        W77614  42.443  12.628   1.904
13671W        W77615  42.466  18.162   0.878
13672W        W77616   1.843   0.807  11.993
13673W        W77617  42.335  26.163   3.772
13674W        W77618   0.355  31.517   2.224
13675W        W77619  21.653  17.647  12.037
13676W        W77620   2.838   2.241  10.432
13677W        W77621   5.327  14.280  12.447
13678W        W77622  35.516  37.071  11.865
13679W        W77623   1.454  30.157   4.621
13680W        W77624  35.391   1.856  10.958
13681W        W77625  18.765  21.062   4.164
13682W        W77626  19.089  12.201  12.021
13683W        W77627  41.880  14.760   1.882
13684W        W77628  27.150  44.872   0.758
13685W        W77629  34.879  19.595  14.872
13686W        W77630   6.301   3.711  12.919
13687W        W77631   2.727  26.559   2.695
13688W        W77632   2.234  16.199  11.543
13689W        W77633   5.419  15.127  14.467
13690W        W77634  16.570   6.689   5.131
13691W        W77635  37.012  39.008  11.043
13692W        W77636  15.603  27.188  14.351
13693W        W77637  16.567  15.679  13.011
13694W        W77638  18.723  36.448  12.872
13695W        W77639  15.300  22.535  13.982
13696W        W77640  27.171  17.597   2.761
13697W        W77641  25.082  36.044   4.134
13698W        W77642  33.429  24.676  14.317
13699W        W77643  28.563  20.687  13.481
13700W        W77644  14.232  43.837   3.836
13701W        W77645  25.669   1.425   1.420
13702W        W77646  10.815  37.393  11.045
13703W        W77647   7.372  33.396  14.840
13704W        W77648  26.967  23.109  12.830
13705W        W77649  13.639  14.705  14.511
13706W        W77650  22.658  22.123  13.004
13707W        W77651  10.662  12.174   3.630
13708W        W77652   6.262  33.487   4.637
13709W        W77653  33.131  33.561   3.253
13710W        W77654  19.071  39.826   2.671
13711W        W77655  35.094  34.612   4.631
13712W        W77656  11.681  27.132  13.519
13713W        W77657  17.189  26.207   2.705
13714W        W77658  13.150   7.712  13.939
13715W        W77659  29.116  31.072   2.677
13716W        W77660  14.678  13.162  11.513
13717W        W77661  19.271   8.734  12.899
13718W        W77662  12.340  31.036  13.898
13719W        W77663   3.922  19.672   4.140
13720W        W77664  26.487   4.811  14.478
13721W        W77665  42.364  13.159   2.375
13722W        W77666  34.009  29.074   4.203
13723W        W77667   8.751  39.815  14.287
13724W        W77668  36.016  29.114  14.343
13725W        W77669  11.639  12.841   0.417
13726W        W77670  38.483  21.192   2.244
13727W        W77671  31.938  28.970  12.551
13728W        W77672  17.227  31.540   1.384
13729W        W77673  18.640  24.539  12.407
13730W        W77674  36.013  40.408  14.922
13731W        W77675  25.520  26.196   3.650
13732W        W77676  39.452   9.353   4.333
13733W        W77677  42.799  37.861   1.723
13734W        W77678  40.379  33.541  14.340
13735W        W77679  35.543  15.128   4.802
13736W        W77680  26.474  41.958   4.304
13737W        W77681   0.412  31.475  10.557
13738W        W77682  13.770  18.776   2.183
13739W        W77683   4.337  13.342  14.819
13740W        W77684  25.989   2.955   2.882
13741W        W77685  17.632  35.602   1.287
13742W        W77686   0.958  18.630   2.805
13743W        W77687  27.963  43.311  13.384
13744W        W77688   7.310  31.419   0.870
13745W        W77689  11.129  28.480   0.744
13746W        W77690  34.087  44.346   1.361
13747W        W77691   8.757  23.627  12.043
13748W        W77692  28.135  32.918   0.370
13749W        W77693  35.105  40.901  13.878
13750W        W77694  30.991   5.724   4.815
13751W        W77695  41.534  39.518   2.789
13752W        W77696  17.757   4.740  14.490
13753W        W77697  20.626  14.144   0.452
13754W        W77698  27.547   1.331   0.902
13755W        W77699  10.681   0.411   3.187
13756W        W77700  30.143  39.014  12.929
13757W        W77701  13.318  16.210  10.460
13758W        W77702  37.568   1.947   0.784
13759W        W77703  41.803   0.746  10.027
13760W        W77704  42.353   9.270   1.807
13761W        W77705  35.987  43.990   2.776
13762W        W77706  13.319  42.896   3.176
13763W        W77707  17.778  25.043  11.540
13764W        W77708  11.768  21.201   2.400
13765W        W77709  38.949  25.705  11.483
13766W        W77710  32.902  30.596   0.449
13767W        W77711  18.230  30.442   5.138
13768W        W77712  27.509  27.512   4.714
13769W        W77713   9.289  15.658   1.879
13770W        W77714  36.927  20.222  11.914
13771W        W77715   7.769  15.744  13.453
13772W        W77716  44.834  11.829   0.294
13773W        W77717  41.449  26.143   2.888
13774W        W77718   5.689  38.489   1.229
13775W        W77719  15.084  44.971  11.984
13776W        W77720  22.687   2.352   0.749
13777W        W77721  11.279  12.326   0.844
13778W        W77722  33.932   9.738   1.710
13779W        W77723  26.514  29.031  14.343
13780W        W77724  20.630  16.765  11.487
13781W        W77725  23.611  36.535  13.394
13782W        W77726  38.946  15.696   0.407
13783W        W77727   0.315  35.386   1.735
13784W        W77728  18.231  35.893  11.013
13785W        W77729  28.514  34.539   4.241
13786W        W77730  38.980   0.850  10.089
13787W        W77731  33.419  10.329   2.845
13788W        W77732  17.701   1.742   1.926
13789W        W77733  42.435  19.248  14.825
13790W        W77734  20.695   1.925   3.218
13791W        W77735   9.795  42.342   0.768
13792W        W77736  18.160  41.341   3.299
13793W        W77737  36.473  36.093   5.122
13794W        W77738  34.488  27.655   2.749
13795W        W77739  27.598  26.066   2.768
13796W        W77740  18.698  33.556   3.818
13797W        W77741  34.398   7.196  10.624
13798W        W77742   6.715  21.543  11.547
13799W        W77743  19.534  40.962  11.577
13800W        W77744  40.318   4.243  11.530
13801W        W77745  24.705  43.421   1.285
13802W        W77746  19.180  29.453   4.630
13803W        W77747  35.868  17.217  11.432
13804W        W77748  11.841  23.148   0.288
13805W        W77749   3.338  35.385  10.490
13806W        W77750  42.290   6.220  12.418
13807W        W77751  31.975  38.552  10.636
13808W        W77752  12.630  20.676   1.821
13809W        W77753   6.709  16.237  11.860
13810W        W77754  20.581  25.628  10.998
13811W        W77755  35.069  15.742   0.751
13812W        W77756  31.023  40.371   2.738
13813W        W77757   1.394  33.897   4.172
13814W        W77758  17.173  24.206   0.809
13815W        W77759   2.265  16.220  14.969
13816W        W77760  44.463  29.127   3.177
13817W        W77761  43.467  12.324  12.838
13818W        W77762   1.444   6.305   1.711
13819W        W77763  31.981  35.925   4.607
13820W        W77764  32.050  44.880  10.544
13821W        W77765   3.348  24.095  10.968
13822W        W77766  43.383   5.899   2.257
13823W        W77767  40.049  14.696  10.937
13824W        W77768  21.185  35.545   2.739
13825W        W77769  42.977  25.963  14.921
13826W        W77770   0.306  31.055  14.914
13827W        W77771  41.810   4.254  11.582
13828W        W77772   3.891  34.022  12.560
13829W        W77773  37.839  29.959   4.809
13830W        W77774  34.435   8.377  11.412
13831W        W77775  42.009   3.289   1.319
13832W        W77776  18.641  14.834   0.263
13833W        W77777  43.900  39.558  11.016
13834W        W77778  41.842  22.141  11.584
13835W        W77779  23.538  44.891   3.229
13836W        W77780  26.994   1.833  14.435
13837W        W77781  41.831  27.571  14.824
13838W        W77782  24.569  33.466   4.646
13839W        W77783   1.749  17.110   1.852
13840W        W77784  41.436  12.727  11.532
13841W        W77785  24.615  31.449  11.024
13842W        W77786  11.301  17.674   4.715
13843W        W77787  43.412   8.751  13.041
13844W        W77788  15.590  10.233  12.445
13845W        W77789  10.326   4.336   3.370
13846W        W77790  14.230  36.438  14.959
13847W        W77791  37.340  25.666   3.277
13848W        W77792  33.413   5.320   0.465
13849W        W77793  40.437  21.053  12.980
13850W        W77794  37.507  10.200   4.718
13851W        W77795  34.954  26.612  11.985
13852W        W77796  11.322   0.453   0.906
13853W        W77797  23.660  17.656  13.453
13854W        W77798   0.298   8.257   1.432
13855W        W77799  36.865   7.399  13.373
13856W        W77800  40.894  40.997  11.384
13857W        W77801  29.518   5.414  12.474
13858W        W77802   7.750  33.929   2.855
13859W        W77803  39.950  23.537  13.808
13860W        W77804  10.754   6.231  13.513
13861W        W77805  30.622  25.596   4.704
13862W        W77806  44.995  29.601  13.398
13863W        W77807   5.393   9.247  10.602
13864W        W77808  11.240  37.946  13.902
13865W        W77809  34.379  26.035   2.832
13866W        W77810  16.083  14.188  13.528
13867W        W77811  31.446  41.404  11.856
13868W        W77812  17.067  11.297   2.902
13869W        W77813  12.150   3.229   4.675
13870W        W77814  36.070   9.162  13.028
13871W        W77815  44.468  25.657   3.167
13872W        W77816  38.385  40.543  11.984
13873W        W77817  20.659  22.999   0.372
13874W        W77818  17.286  22.241  12.557
13875W        W77819  18.071  29.075   4.751
13876W        W77820  37.906  35.363   4.306
13877W        W77821   2.763  12.616   1.883
13878W        W77822  13.707  43.386   2.223
13879W        W77823  13.627  37.419  11.573
13880W        W77824  41.408   1.436  14.914
13881W        W77825  43.472   4.761   4.817
13882W        W77826  41.413   7.787  11.527
13883W        W77827  35.854   2.749  12.575
13884W        W77828  31.619  11.843  13.984
13885W        W77829  26.516  10.328  13.441
13886W        W77830  23.128  25.652   3.681
13887W        W77831  29.134  33.128   3.271
13888W        W77832  11.233  41.897  12.933
13889W        W77833  15.712  40.837   1.369
13890W        W77834  11.676  28.633  12.088
13891W        W77835  36.418  21.018   0.270
13892W        W77836  22.717   5.718  14.274
13893W        W77837  33.523  36.452   4.286
13894W        W77838  20.212  20.180  10.481
13895W        W77839  19.661  21.211  10.567
13896W        W77840  23.159   6.728  13.903
13897W        W77841  21.566   5.272   0.875
13898W        W77842  10.138  38.460   4.726
13899W        W77843   4.223  12.221   3.228
13900W        W77844  12.320  12.752  13.876
13901W        W77845   0.905  38.997  14.791
13902W        W77846   2.313  29.155  13.422
13903W        W77847   6.273  17.180   5.287
13904W        W77848   3.328  34.931  14.347
13905W        W77849  37.871  24.043   3.816
13906W        W77850  16.684   3.243  10.601
13907W        W77851   2.790   8.302   1.434
13908W        W77852   7.397  14.751   3.344
13909W        W77853  34.938   6.340  12.571
13910W        W77854   8.342  44.260  10.944
13911W        W77855  38.009  41.347   2.403
13912W        W77856   4.842  21.729  10.491
13913W        W77857  17.085  11.265  13.526
13914W        W77858  43.467   2.720   3.726
13915W        W77859  31.911  26.059  11.465
13916W        W77860  37.087  12.182  12.953
13917W        W77861  42.978   9.386   4.623
13918W        W77862  41.797  25.159   2.314
13919W        W77863  15.095  15.267   2.841
13920W        W77864  15.135  24.547   5.116
13921W        W77865   1.329   9.806  14.370
13922W        W77866  38.018  40.915  12.040
13923W        W77867  42.940   5.369   0.340
13924W        W77868   2.918  26.139  14.864
13925W        W77869   8.884  18.130  12.490
13926W        W77870  27.497   9.660   2.857
13927W        W77871  27.179  44.008  13.979
13928W        W77872  41.959   7.366  13.923
13929W        W77873  44.990  11.367  14.426
13930W        W77874  24.079  22.062   2.899
13931W        W77875  32.019  28.967  11.893
13932W        W77876  19.282   8.386   2.862
13933W        W77877  25.501  39.969   5.687
13934W        W77878  26.993  28.115  11.414
13935W        W77879  28.185  18.051   3.166
13936W        W77880   3.883  40.497   0.950
13937W        W77881  19.136  28.574  11.453
13938W        W77882  43.965  44.321   0.909
13939W        W77883  29.037  16.736  12.459
13940W        W77884  21.158  38.976   4.801
13941W        W77885  13.212  14.315   0.889
13942W        W77886  43.929  42.319   3.793
13943W        W77887  33.027  12.735  13.310
13944W        W77888  21.153   5.752   2.775
13945W        W77889  13.345   6.688   2.417
13946W        W77890  13.304  19.187  14.010
13947W        W77891  12.615   5.232  14.008
13948W        W77892   1.263   6.777  12.083
13949W        W77893  23.044  33.104  11.058
13950W        W77894   0.788  29.989  12.985
13951W        W77895  10.308  28.060   4.620
13952W        W77896  20.123  24.488  12.975
13953W        W77897   0.792  36.033   4.659
13954W        W77898   4.219   5.335   4.825
13955W        W77899   7.222  17.152  13.964
13956W        W77900   4.828  22.010  10.104
13957W        W77901  20.752   9.713  13.322
13958W        W77902  25.004  42.362   2.230
13959W        W77903  41.840  19.046  11.427
13960W        W77904  23.996  34.002  14.353
13961W        W77905   3.349  37.487   2.882
13962W        W77906  26.569  33.392   5.121
13963W        W77907  18.785   8.364   1.213
13964W        W77908  39.352  37.519   4.266
13965W        W77909  41.535  24.585   0.419
13966W        W77910   8.723  34.993  14.785
13967W        W77911  42.986  42.956   3.249
13968W        W77912  18.707   9.785  12.901
13969W        W77913   0.957  37.575  14.811
13970W        W77914  10.358  41.877  12.900
13971W        W77915  31.540   4.845   3.276
13972W        W77916  11.225  29.010   1.698
13973W        W77917   1.832  11.189   3.324
13974W        W77918  13.267  33.963   5.229
13975W        W77919  18.181  13.731   1.806
13976W        W77920  12.245  10.184  14.836
13977W        W77921  14.756  26.646  14.407
13978W        W77922  43.290  10.661   1.903
13979W        W77923   7.358  15.816  12.576
13980W        W77924  39.415  16.779  14.916
13981W        W77925   8.345   5.362   1.854
13982W        W77926   8.169  37.398  10.511
13983W        W77927  33.445  42.507   4.727
13984W        W77928  38.488  39.868   4.169
13985W        W77929  39.392  42.003  11.456
13986W        W77930   6.314  35.956   4.697
13987W        W77931  19.765  29.520  11.944
13988W        W77932  18.092  43.396   2.847
13989W        W77933  39.491  40.444   0.441
13990W        W77934  39.991  12.659   1.307
13991W        W77935   6.388  37.365  14.011
13992W        W77936  21.072   0.884   1.377
13993W        W77937  10.716   4.768   2.837
13994W        W77938  18.547   2.801   0.410
13995W        W77939  43.901  24.684  11.524
13996W        W77940  12.843  12.843   0.292
13997W        W77941  42.497  30.996   2.850
13998W        W77942  28.074   8.685  10.498
13999W        W77943  33.119   8.330   3.283
14000W        W77944  43.448   9.317  12.521
14001W        W77945   5.406  13.244  11.107
14002W        W77946  21.099  37.540  12.928
14003W        W77947  29.988   6.384   2.228
14004W        W77948  14.812   2.339   3.677
14005W        W77949  34.903   4.819   1.915
14006W        W77950   3.394  39.009  10.428
14007W        W77951   8.813  18.556  14.810
14008W        W77952  15.722  28.001   2.360
14009W        W77953  26.957  27.080  11.857
14010W        W77954  23.225  14.300   5.235
14011W        W77955  37.550  32.445  12.539
14012W        W77956  42.317  27.469   1.695
14013W        W77957  43.778   7.891  12.933
14014W        W77958  42.329  28.539   1.820
14015W        W77959  14.758  36.552  12.447
14016W        W77960  42.804  33.448  14.018
14017W        W77961  19.223  22.226  13.004
14018W        W77962  19.248  15.138  14.300
14019W        W77963  15.615  11.828   3.317
14020W        W77964  28.459  26.472  13.962
14021W        W77965   0.382  38.362   0.752
14022W        W77966  39.861  14.264  13.355
14023W        W77967  13.161  38.870  13.362
14024W        W77968   7.221  13.737   4.272
14025W        W77969  27.133  26.698   3.149
14026W        W77970  16.702  41.475  11.045
14027W        W77971  38.397   3.276  14.477
14028W        W77972   9.311  22.012  10.999
14029W        W77973  38.406  17.738   0.930
14030W        W77974  10.773  31.602   4.748
14031W        W77975  36.933  12.222   3.183
14032W        W77976   0.449  30.005   4.129
14033W        W77977   0.834  44.454  14.925
14034W        W77978  17.637  12.145   1.847
14035W        W77979  14.163   3.848   2.338
14036W        W77980   8.784  40.319   2.251
14037W        W77981  17.605  38.006   4.116
14038W        W77982  24.096  16.626   3.173
14039W        W77983  22.174  21.544  11.566
14040W        W77984   7.356  31.573   4.249
14041W        W77985  33.894  20.682  14.438
14042W        W77986   6.707  30.958  11.937
14043W        W77987  23.653  15.253  11.008
14044W        W77988   4.864  33.106   2.756
14045W        W77989  29.115  34.511  14.854
14046W        W77990  21.049  26.621  14.986
14047W        W77991  15.235  44.321  14.375
14048W        W77992  38.911   1.955  14.300
14049W        W77993   8.849   6.200   3.644
14050W        W77994  26.011  17.204   4.752
14051W        W77995  44.380  10.825  14.453
14052W        W77996   8.229  27.479   0.322
14053W        W77997  41.012   9.750   3.267
14054W        W77998  31.556   2.795   4.687
14055W        W77999  11.326  12.260   1.716
14056W        W78000  14.159  23.506   2.386
14057W        W78001  23.522  13.155  10.997
14058W        W78002   6.770  29.643  12.939
14059W        W78003   7.328  36.988   2.672
14060W        W78004   0.817  32.958   1.230
14061W        W78005  21.587   2.772  13.050
14062W        W78006  36.922  41.859   1.337
14063W        W78007  26.554  43.375  12.510
14064W        W78008   3.360  25.677  11.126
14065W        W78009  34.076  39.522  11.462
14066W        W78010   5.771   2.437   1.382
14067W        W78011  25.059  18.056   4.314
14068W        W78012  43.473  12.704  11.887
14069W        W78013  40.512   0.818  12.384
14070W        W78014  44.319  18.170   4.231
14071W        W78015  31.612   8.266   1.233
14072W        W78016  33.503  16.694   3.233
14073W        W78017  12.222   5.268  13.939
14074W        W78018  19.616  44.971  10.519
14075W        W78019  15.136  25.154  11.074
14076W        W78020  25.089  10.373   0.253
14077W        W78021   9.271  12.669  14.961
14078W        W78022   3.255  39.505   3.383
14079W        W78023  36.523  15.204  11.610
14080W        W78024  31.471  25.043  10.929
14081W        W78025  37.916  40.543  12.841
14082W        W78026  11.322  11.755  11.539
14083W        W78027  41.967  36.894  13.919
14084W        W78028  13.191  24.485   3.647
14085W        W78029   7.894  18.735  11.518
14086W        W78030  10.650  36.491  13.049
14087W        W78031   0.925  19.596   2.209
14088W        W78032   0.870  28.458   4.175
14089W        W78033  23.684  14.325  11.422
14090W        W78034  36.411  23.678  10.091
14091W        W78035  23.206   0.330  13.525
14092W        W78036  42.369  21.527  13.026
14093W        W78037   7.732  31.103  11.050
14094W        W78038  42.525   7.768   1.879
14095W        W78039  43.293  11.814  10.889
14096W        W78040  12.687  38.569   3.782
14097W        W78041   8.737  20.548   9.980
14098W        W78042  21.553  24.633  13.529
14099W        W78043  28.462  16.630  13.344
14100W        W78044  44.908  44.495  10.466
14101W        W78045  18.643  21.248  10.931
14102W        W78046  27.156   4.755  14.346
14103W        W78047  31.603  29.478  13.397
14104W        W78048   2.835  15.693   3.344
14105W        W78049   2.410  40.421   2.416
14106W        W78050   9.782  19.173  13.403
14107W        W78051  12.202  13.200   0.299
14108W        W78052   2.724  39.434  12.905
14109W        W78053   1.302  24.080   3.730
14110W        W78054  26.528  22.696   0.321
14111W        W78055   5.882  22.512  11.051
14112W        W78056  18.061   0.789   4.313
14113W        W78057   2.280  12.839   1.254
14114W        W78058   0.324  37.061  13.368
14115W        W78059   7.682  38.921   5.111
14116W        W78060  20.546  19.663   1.841
14117W        W78061  37.399  11.657   3.238
14118W        W78062   5.756  16.107   2.683
14119W        W78063  10.153  29.027   3.781
14120W        W78064   3.907  36.441  10.629
14121W        W78065  12.124   0.319  13.508
14122W        W78066   4.865  15.280   0.887
14123W        W78067  37.040  24.722   4.617
14124W        W78068  26.690  41.534  12.401
14125W        W78069  17.077   1.848   3.270
14126W        W78070  22.597  26.662   4.147
14127W        W78071  41.401  17.218  13.475
14128W        W78072  44.765  44.403  10.957
14129W        W78073  23.610  31.085  11.537
14130W        W78074  15.613  20.119  10.424
14131W        W78075   1.961  13.229  10.914
14132W        W78076  16.583  30.434   1.775
14133W        W78077   5.308  26.615   4.666
14134W        W78078   9.302   0.949  13.941
14135W        W78079  13.109  25.509  10.922
14136W        W78080   4.934   4.755  14.800
14137W        W78081  32.608  32.439  12.081
14138W        W78082  34.900   8.270  12.555
14139W        W78083  15.190  33.097   2.822
14140W        W78084  13.164  29.494  14.002
14141W        W78085  31.031  25.997   0.780
14142W        W78086  12.833   4.837  11.380
14143W        W78087  32.980  17.774   2.235
14144W        W78088  43.986  38.506   1.723
14145W        W78089  30.588  38.030  11.021
14146W        W78090  17.573  15.667   1.776
14147W        W78091  20.157   7.887   0.848
14148W        W78092  21.135  43.813  10.532
14149W        W78093  15.158  36.405  10.119
14150W        W78094   0.796  32.986   4.779
14151W        W78095  28.437  32.620  12.445
14152W        W78096  34.389  26.547   0.450
14153W        W78097  33.571  44.419   4.816
14154W        W78098  29.477  43.875   4.335
14155W        W78099   8.763  43.006  12.546
14156W        W78100  15.697  27.681  11.568
14157W        W78101   3.330  34.457   3.828
14158W        W78102  43.977  39.018   1.225
14159W        W78103  30.010  39.423   1.845
14160W        W78104  41.886  20.591   4.626
14161W        W78105   5.290  31.045   4.677
14162W        W78106  35.404  21.689  12.012
14163W        W78107  38.507   5.344   2.836
14164W        W78108  28.042  37.010  13.436
14165W        W78109  27.501  37.432   4.208
14166W        W78110  11.146  28.554  10.910
14167W        W78111  41.529  10.779  12.906
14168W        W78112   0.479  15.725   0.407
14169W        W78113  36.453  18.054   4.286
14170W        W78114  23.590  42.899   3.287
14171W        W78115   7.201  18.590   4.324
14172W        W78116  15.190  14.221  11.414
14173W        W78117  18.155   8.663   1.216
14174W        W78118   1.788  30.128   2.869
14175W        W78119  27.574   3.357  14.512
14176W        W78120  29.645  29.120  13.818
14177W        W78121  34.098  13.746   1.300
14178W        W78122  37.075  15.599   2.842
14179W        W78123  20.719  20.260  13.970
14180W        W78124   3.348  13.248  14.415
14181W        W78125  35.527  22.718  12.924
14182W        W78126  22.584  17.180   0.740
14183W        W78127  41.464  27.628  12.499
14184W        W78128   6.808  32.968  10.469
14185W        W78129   8.869  31.122  11.531
14186W        W78130  38.967  26.999  13.340
14187W        W78131  43.452  11.860   1.875
14188W        W78132   4.912  10.801  13.987
14189W        W78133  29.039  11.231   1.807
14190W        W78134  41.488   7.400  11.936
14191W        W78135  32.055  21.024   5.269
14192W        W78136   9.791  33.521  14.388
14193W        W78137   6.755  18.557  10.498
14194W        W78138  33.578  38.329  10.935
14195W        W78139  42.855   3.267   3.248
14196W        W78140  35.543   1.405  11.981
14197W        W78141  26.014  15.285   1.327
14198W        W78142  20.127  19.060   0.441
14199W        W78143  35.562  17.137   0.746
14200W        W78144  15.200   6.242  11.479
14201W        W78145  18.733  25.163   3.643
14202W        W78146  17.276  31.150   4.598
14203W        W78147  37.921  28.943  11.991
14204W        W78148   0.303   7.184   3.181
14205W        W78149  34.924  43.817   0.786
14206W        W78150   1.378  40.845  11.507
14207W        W78151   3.882   0.447   0.375
14208W        W78152  39.878  43.819   4.342
14209W        W78153   9.312  27.568  10.153
14210W        W78154   4.440  15.615   0.877
14211W        W78155   8.308  13.326   0.300
14212W        W78156  14.152  21.596   0.355
14213W        W78157   3.278   9.820  10.893
14214W        W78158   0.974  12.651   1.836
14215W        W78159  27.945  16.229  14.813
14216W        W78160  10.844  43.788  12.845
14217W        W78161  32.500  25.161  10.628
14218W        W78162  42.434  15.653  11.469
14219W        W78163  33.555  38.901   3.321
14220W        W78164  12.275  24.088   3.786
14221W        W78165  36.550  24.209  12.965
14222W        W78166   0.759   5.375   1.872
14223W        W78167  30.494  37.502  13.981
14224W        W78168  29.123  16.265   3.194
14225W        W78169  23.571  37.055  13.943
14226W        W78170  24.130  34.474   4.637
14227W        W78171   7.766   8.813   1.430
14228W        W78172   3.833  37.987  13.326
14229W        W78173   0.934   8.713  11.954
14230W        W78174  42.945  29.162   0.783
14231W        W78175  18.616  39.930   2.327
14232W        W78176  26.516  10.709  11.571
14233W        W78177  24.177  11.205  10.611
14234W        W78178  14.286  23.577  10.957
14235W        W78179  39.483  15.189  11.419
14236W        W78180  10.178  29.952  14.861
14237W        W78181  21.047  26.610  14.306
14238W        W78182  23.499  33.021  10.501
14239W        W78183  32.955   7.391  14.931
14240W        W78184  14.297  24.689  11.876
14241W        W78185  33.382   8.400   1.211
14242W        W78186  43.481  30.567  10.577
14243W        W78187   8.739  21.687   4.676
14244W        W78188  39.913  12.357   2.841
14245W        W78189  21.750  18.099  14.870
14246W        W78190  38.992  30.097   2.315
14247W        W78191  28.497  12.777   3.372
14248W        W78192  27.146   7.739  12.851
14249W        W78193  15.634  40.919   0.835
14250W        W78194   0.950  35.384   0.803
14251W        W78195  19.535  35.853   3.722
14252W        W78196  11.840  22.705   3.333
14253W        W78197  35.523   6.348  13.479
14254W        W78198   3.900  23.644   2.671
14255W        W78199  13.715  11.805   1.934
14256W        W78200  24.608  35.993  14.507
14257W        W78201  29.648  21.119   2.879
14258W        W78202  40.540   5.195   4.770
14259W        W78203   6.362   1.962   3.308
14260W        W78204  32.071  15.119   1.239
14261W        W78205   9.853  12.276   2.205
14262W        W78206  28.536   1.803  14.507
14263W        W78207   5.891  30.601  12.566
14264W        W78208  41.906  41.876  13.985
14265W        W78209  26.492  19.534   0.740
14266W        W78210   0.988   2.903   2.691
14267W        W78211   4.261  23.992   4.745
14268W        W78212  42.379  13.184   0.888
14269W        W78213  38.843  40.430  13.350
14270W        W78214  10.207  28.675  12.957
14271W        W78215  36.977   4.349   9.498
14272W        W78216  44.760  36.089  11.432
14273W        W78217  11.767  34.049   3.365
14274W        W78218   1.815  13.219   2.339
14275W        W78219  19.117  17.113   4.229
14276W        W78220  28.125   5.870  13.457
14277W        W78221  33.573  16.634   1.370
14278W        W78222  32.112  36.894  12.352
14279W        W78223   9.308  21.592   2.269
14280W        W78224  31.431   6.222  13.837
14281W        W78225  31.487   5.930   4.145
14282W        W78226  33.096  37.403   4.179
14283W        W78227   0.251   2.776   3.769
14284W        W78228  22.736  22.663  12.018
14285W        W78229  31.414  29.924   4.212
14286W        W78230  11.704  25.655   0.351
14287W        W78231  20.096  27.023   4.224
14288W        W78232   2.251   1.884  14.958
14289W        W78233   2.956   6.789  14.979
14290W        W78234  35.556  33.418   4.288
14291W        W78235  14.210  32.885   0.734
14292W        W78236  23.682  24.487   3.290
14293W        W78237  30.434  28.500  11.484
14294W        W78238  40.514  14.749  12.481
14295W        W78239  26.193  28.074   3.830
14296W        W78240  43.328  34.550   2.398
14297W        W78241   7.789   6.256  12.368
14298W        W78242  24.624  11.830   1.262
14299W        W78243  38.040  18.684   4.294
14300W        W78244  28.665  20.183   0.760
14301W        W78245  10.658   2.367  12.077
14302W        W78246  28.526  30.997  14.948
14303W        W78247  18.271  27.671  10.485
14304W        W78248  38.016  13.219   3.345
14305W        W78249  19.272   1.277  14.424
14306W        W78250  14.787  12.275   3.227
14307W        W78251  25.569  21.190  11.983
14308W        W78252  34.951  42.873   0.358
14309W        W78253  36.575  20.075  12.542
14310W        W78254  39.315  33.915  12.356
14311W        W78255  44.873  22.136   3.146
14312W        W78256   7.312  29.065   2.214
14313W        W78257   2.436  17.227  10.642
14314W        W78258  23.168  15.747  11.380
14315W        W78259  24.597   8.399  13.911
14316W        W78260  42.520  26.994  12.386
14317W        W78261   3.263  15.674   5.083
14318W        W78262  25.552  37.020  13.473
14319W        W78263  36.527   8.300   2.729
14320W        W78264  28.949  13.283  14.833
14321W        W78265   2.282  14.207   3.369
14322W        W78266  43.918  23.001  10.484
14323W        W78267  10.271  23.640   2.837
14324W        W78268   8.366  23.231   1.703
14325W        W78269  22.114  26.039  10.524
14326W        W78270  31.052   0.799  14.397
14327W        W78271  14.637   6.262  13.521
14328W        W78272  11.132   9.197   1.396
14329W        W78273   8.755  29.989  11.392
14330W        W78274  18.554   5.885   0.477
14331W        W78275  16.769   6.791   1.281
14332W        W78276  44.830  26.616  13.466
14333W        W78277  35.481  25.555  10.493
14334W        W78278  39.910   0.263  14.776
14335W        W78279  40.891  20.628   1.905
14336W        W78280  42.496  25.471   2.262
14337W        W78281  24.636  31.064   1.781
14338W        W78282  19.043  43.273  13.964
14339W        W78283  24.609  43.932  11.602
14340W        W78284  32.116   7.837   0.846
14341W        W78285  19.130  10.163   2.695
14342W        W78286   2.305   6.231   1.412
14343W        W78287  28.000  41.807   1.794
14344W        W78288   9.665  14.653  12.909
14345W        W78289  35.098  35.483  12.388
14346W        W78290  29.486   4.879  10.090
14347W        W78291  19.679   7.322  13.392
14348W        W78292  31.042   9.382  12.008
14349W        W78293  27.969  23.640  13.415
14350W        W78294  38.524  19.238  14.415
14351W        W78295   3.407  32.097  13.945
14352W        W78296  29.590   9.181  13.925
14353W        W78297  39.876  28.555  14.785
14354W        W78298  11.641  37.405  14.383
14355W        W78299  13.141  31.484   3.865
14356W        W78300  19.208  35.090  13.965
14357W        W78301  10.354  36.057  12.028
14358W        W78302  25.029   0.302  12.006
14359W        W78303  34.485  40.518   3.636
14360W        W78304   5.721   5.425  12.017
14361W        W78305   8.893  44.878  11.606
14362W        W78306   0.919   7.911  14.032
14363W        W78307  44.373  35.997   4.812
14364W        W78308   4.310  29.657  10.968
14365W        W78309  28.060  40.028  14.299
14366W        W78310   4.820  36.548   1.814
14367W        W78311  43.381   9.239   2.756
14368W        W78312  10.281   8.259  10.146
14369W        W78313  16.274  25.145   1.277
14370W        W78314  36.503  16.758  14.330
14371W        W78315   2.740  26.065  10.924
14372W        W78316  34.971  14.260  10.122
14373W        W78317  36.049  18.637  13.308
14374W        W78318  25.700  35.979   1.899
14375W        W78319  17.702  16.221   0.884
14376W        W78320  13.814  24.168  11.506
14377W        W78321  27.083   6.292  14.000
14378W        W78322   0.307   3.235   0.911
14379W        W78323  35.073  38.884  13.542
14380W        W78324  32.536   4.286   1.909
14381W        W78325  30.590  13.195   3.258
14382W        W78326  30.917  39.060   0.286
14383W        W78327  30.444  22.699  10.600
14384W        W78328  13.218  26.621  12.994
14385W        W78329   8.695  34.007  10.562
14386W        W78330  28.179  12.702  10.989
14387W        W78331  14.794  21.107   1.439
14388W        W78332  24.691  16.629   4.348
14389W        W78333  44.795  11.691   1.782
14390W        W78334  11.727   8.769   4.292
14391W        W78335  15.140  33.061  11.591
14392W        W78336  23.985  28.611  14.295
14393W        W78337  32.630  39.359  12.834
14394W        W78338  25.615  29.079  14.515
14395W        W78339  27.067   0.374   3.357
14396W        W78340  31.027  24.989  10.896
14397W        W78341  32.064   1.867   0.304
14398W        W78342   5.202   5.378  11.529
14399W        W78343  10.747  17.611   2.730
14400W        W78344  34.531  16.640   3.313
14401W        W78345  12.192  17.080   1.249
14402W        W78346   6.919  38.030   4.831
14403W        W78347  42.934  39.344   2.365
14404W        W78348   7.891   9.824  13.946
14405W        W78349  22.710  25.523  14.480
14406W        W78350  24.115  17.668  12.862
14407W        W78351   9.784  11.777   1.774
14408W        W78352  11.291  44.755   5.096
14409W        W78353  39.314  20.244  10.573
14410W        W78354  33.536  30.101  11.557
14411W        W78355  44.424  43.404   3.247
14412W        W78356  21.207   2.793   3.272
14413W        W78357   5.361  37.539  13.498
14414W        W78358  22.614  32.446  13.459
14415W        W78359  35.477  34.905   2.397
14416W        W78360  23.029  35.373  10.413
14417W        W78361  28.002  26.618  13.536
14418W        W78362  13.265  39.904   3.249
14419W        W78363  20.743   7.696  10.941
14420W        W78364   8.658  21.120  13.446
14421W        W78365   9.236  30.927   0.260
14422W        W78366   6.336  10.753  11.522
14423W        W78367   4.374  10.827  12.032
14424W        W78368  13.324  34.476  14.811
14425W        W78369   2.853  26.164   2.665
14426W        W78370   2.764   4.942   4.817
14427W        W78371  13.107   1.875   3.248
14428W        W78372  29.134  27.063   1.755
14429W        W78373  40.511  38.048   0.470
14430W        W78374  24.492   1.847  10.473
14431W        W78375  33.996  14.614   1.799
14432W        W78376  25.670  41.011   0.346
14433W        W78377  20.580  33.072   3.630
14434W        W78378  13.712  10.263  14.467
14435W        W78379  28.653  13.716   1.399
14436W        W78380  22.036  19.248   1.858
14437W        W78381   0.466  11.658  12.020
14438W        W78382  32.962   1.956   0.339
14439W        W78383  18.667  19.133   4.273
14440W        W78384  42.943  11.702   3.712
14441W        W78385   1.300   7.849   4.702
14442W        W78386  27.984  37.405   2.665
14443W        W78387  16.140  30.997   0.745
14444W        W78388  12.157  22.240   3.817
14445W        W78389   1.970  38.060   4.781
14446W        W78390   2.892  33.999   4.720
14447W        W78391  27.580  12.837   3.192
14448W        W78392  27.148  18.090  10.945
14449W        W78393   2.399  25.553  11.999
14450W        W78394  43.811  30.156   2.379
14451W        W78395  27.603  35.082  11.932
14452W        W78396  17.659  23.491   3.686
14453W        W78397  24.084  40.417  11.485
14454W        W78398  41.292  24.979  14.936
14455W        W78399  27.595  29.626   4.637
14456W        W78400  22.565  40.471  13.014
14457W        W78401  28.041  29.156   0.856
14458W        W78402  14.739   9.851  11.557
14459W        W78403  42.797  33.529  12.860
14460W        W78404  30.573  15.241   0.474
14461W        W78405  37.449   8.861   3.862
14462W        W78406  25.140   9.799   4.278
14463W        W78407  18.575  30.550  14.392
14464W        W78408   0.472   3.831  12.882
14465W        W78409  13.715  17.721   4.696
14466W        W78410   1.374   8.298  11.451
14467W        W78411  16.809   6.755   1.882
14468W        W78412   7.829  40.808  11.932
14469W        W78413  26.629   2.435  12.953
14470W        W78414   3.730   3.251  12.504
14471W        W78415  36.573  40.957   1.424
14472W        W78416   7.739   0.895   5.215
14473W        W78417   4.410  27.050  12.578
14474W        W78418  27.000  28.060  10.434
14475W        W78419  42.898  31.927   2.704
14476W        W78420  39.000   2.930   0.451
14477W        W78421  42.978  24.210   0.471
14478W        W78422  27.561  24.174  14.362
14479W        W78423  39.810  39.557   1.883
14480W        W78424  42.986   7.180  13.492
14481W        W78425  16.798  10.819  10.919
14482W        W78426  40.448  25.138   2.380
14483W        W78427  18.203  21.220  13.972
14484W        W78428   5.850  20.132  14.965
14485W        W78429  16.568  42.324  11.421
14486W        W78430   2.773   1.816   3.248
14487W        W78431  17.131  34.469   4.677
14488W        W78432  19.149   8.273   1.921
14489W        W78433   1.429  17.718   0.800
14490W        W78434  15.614  25.600  12.465
14491W        W78435  44.284  37.960   0.756
14492W        W78436  14.203  15.161  11.382
14493W        W78437   3.727  24.703  11.889
14494W        W78438  41.298  41.478   0.368
14495W        W78439  18.277  10.804  12.476
14496W        W78440   9.764   6.420   1.835
14497W        W78441   0.936  19.719  13.943
14498W        W78442   2.263  34.522  14.507
14499W        W78443  20.635  34.570   4.167
14500W        W78444  21.047  21.154   3.785
14501W        W78445  10.333  36.546   1.770
14502W        W78446  26.651  27.524   0.918
14503W        W78447   7.767  28.550   2.811
14504W        W78448   8.344  40.857   2.206
14505W        W78449   5.908   2.339   2.180
14506W        W78450  27.124  28.661  13.539
14507W        W78451  39.891  33.558  12.034
14508W        W78452  25.476  19.139   3.304
14509W        W78453  24.084  41.952  12.864
14510W        W78454  12.308   8.875  11.391
14511W        W78455  15.303   1.872  14.032
14512W        W78456  26.953   6.238  11.585
14513W        W78457  12.838  42.857   1.709
14514W        W78458   8.823  40.498   4.615
14515W        W78459  20.105   1.780   1.353
14516W        W78460  15.698  11.747   5.116
14517W        W78461  10.657   6.769  11.106
14518W        W78462  12.336  11.779  14.890
14519W        W78463  33.564  40.352  12.922
14520W        W78464  17.193   7.847   1.902
14521W        W78465  10.186  20.227  14.463
14522W        W78466  38.075  14.289  11.434
14523W        W78467  12.670  21.570  14.495
14524W        W78468   7.178   4.758  13.397
14525W        W78469  18.740  26.656   3.759
14526W        W78470   8.343  39.463  13.444
14527W        W78471  22.153  13.129  12.081
14528W        W78472  33.519  29.051   0.390
14529W        W78473  20.191  38.427   1.418
14530W        W78474   6.195   9.348   1.902
14531W        W78475  12.148  10.772   2.391
14532W        W78476  13.836  29.989  10.408
14533W        W78477  37.914   3.265  13.438
14534W        W78478  24.179  30.656   1.296
14535W        W78479  35.067  26.472   2.673
14536W        W78480  10.718  40.926   2.333
14537W        W78481  11.216  35.388   2.780
14538W        W78482  19.610  33.478   3.161
14539W        W78483  25.553  26.640  11.591
14540W        W78484  38.325  40.892   1.718
14541W        W78485  17.146  43.789   0.410
14542W        W78486  35.553  40.856   2.894
14543W        W78487  29.977  17.738  12.918
14544W        W78488  17.625  10.331  12.859
14545W        W78489  26.184   9.381  11.532
14546W        W78490  21.074   1.954   2.376
14547W        W78491  31.022  14.766   4.252
14548W        W78492  38.527  12.152  12.891
14549W        W78493  31.946   4.413  13.532
14550W        W78494  29.446   2.370  13.857
14551W        W78495  42.493  14.646  12.843
14552W        W78496  38.517  44.789   3.175
14553W        W78497   0.465  28.506   3.321
14554W        W78498   2.724   8.298   5.147
14555W        W78499  16.620  34.983   4.117
14556W        W78500  24.211  12.766  11.378
14557W        W78501  31.999  44.994   2.753
14558W        W78502  19.675  10.767  14.029
14559W        W78503  35.377  16.088  13.386
14560W        W78504  40.314  36.017  14.416
14561W        W78505   7.190  25.590  11.494
14562W        W78506  34.370  39.906  12.927
14563W        W78507   8.301   2.819  11.382
14564W        W78508  43.945  32.914  13.956
14565W        W78509   8.840  11.199   4.241
14566W        W78510   3.928  23.591  11.944
14567W        W78511  39.914  32.094  11.066
14568W        W78512  24.687  27.020  13.363
14569W        W78513  35.560   9.308   1.328
14570W        W78514  36.385  22.578   2.357
14571W        W78515  22.529   5.433   0.846
14572W        W78516   9.305  30.937   5.616
14573W        W78517  43.499  23.987   4.768
14574W        W78518  11.621  13.158   3.383
14575W        W78519  29.173  23.023   2.889
14576W        W78520  39.425  14.165   1.711
14577W        W78521  14.132  38.926   0.432
14578W        W78522  10.837   4.762  12.572
14579W        W78523  13.157  39.991   4.789
14580W        W78524  18.700  44.410   2.748
14581W        W78525  17.134  44.805  10.530
14582W        W78526  21.706  18.759   4.338
14583W        W78527  29.035  33.880  13.341
14584W        W78528  37.902   2.853   5.094
14585W        W78529   9.845  41.516  13.430
14586W        W78530   4.840  36.889  10.986
14587W        W78531  26.201  27.633   3.248
14588W        W78532  18.139  39.413   4.316
14589W        W78533  31.423  22.105  10.407
14590W        W78534  36.867  31.942  12.349
14591W        W78535  44.941  16.176  11.104
14592W        W78536  16.192  40.332  13.890
14593W        W78537  10.196  37.440   2.261
14594W        W78538  11.320  20.751  12.041
14595W        W78539  11.280   6.845  13.966
14596W        W78540  38.402  33.571  11.478
14597W        W78541  28.646  21.200  12.443
14598W        W78542  44.928  20.200   1.271
14599W        W78543  38.051  12.764   2.389
14600W        W78544  41.811  18.230   1.696
14601W        W78545  34.537   2.721   2.799
14602W        W78546  38.479  38.058  14.377
14603W        W78547  21.124   4.800  12.421
14604W        W78548  29.665  44.797   1.264
14605W        W78549  28.508  10.235  13.838
14606W        W78550   5.876  44.491  12.352
14607W        W78551  37.915  20.592   0.456
14608W        W78552  29.582  15.091   0.895
14609W        W78553   2.230  36.533  12.858
14610W        W78554   2.789  19.614  12.465
14611W        W78555  36.524   2.731   0.437
14612W        W78556  33.459  27.624  14.848
14613W        W78557  15.150  34.102   3.683
14614W        W78558  24.666  42.985  10.957
14615W        W78559  33.937  31.102  11.503
14616W        W78560  41.031   6.284  11.374
14617W        W78561   5.256   0.852  13.359
14618W        W78562  19.263  10.345  12.520
14619W        W78563   6.271  31.991   1.411
14620W        W78564  37.911  40.429   2.402
14621W        W78565  20.648   4.838  12.354
14622W        W78566  15.267  41.885   0.752
14623W        W78567   5.887  29.040   0.427
14624W        W78568  14.311  21.634  13.878
14625W        W78569   8.366   2.288  14.805
14626W        W78570  27.626  19.151  14.511
14627W        W78571   5.436  15.083  11.066
14628W        W78572  10.153  24.194   1.746
14629W        W78573   0.467  44.386   3.186
14630W        W78574  22.747  33.420   2.214
14631W        W78575  28.124  11.755  13.814
14632W        W78576  41.962  22.627  12.482
14633W        W78577  39.337  19.283   1.337
14634W        W78578   5.795  30.548   1.239
14635W        W78579  35.000  10.245  11.442
14636W        W78580  26.642  13.661   2.805
14637W        W78581  35.547  20.645  12.387
14638W        W78582  18.254  42.836  14.933
14639W        W78583   2.442   0.742  11.598
14640W        W78584  30.052   2.732   3.710
14641W        W78585  24.558  42.479  14.870
14642W        W78586  36.099  25.058  11.896
14643W        W78587  15.118  26.201   3.862
14644W        W78588  13.733  15.124   3.638
14645W        W78589   9.257  20.673   1.301
14646W        W78590  41.798  30.498   0.374
14647W        W78591  20.716  43.270  10.406
14648W        W78592  42.470  18.752  11.508
14649W        W78593  30.026  15.256   2.675
14650W        W78594  13.675  44.402  14.429
14651W        W78595  42.791  37.357  12.578
14652W        W78596  36.026  38.978  11.496
14653W        W78597  16.204  40.051  12.547
14654W        W78598   2.340  30.649   9.964
14655W        W78599  20.218   2.806  13.386
14656W        W78600  17.763  17.737  11.547
14657W        W78601  36.361   2.908  11.383
14658W        W78602  16.741  42.966   2.853
14659W        W78603  44.279  41.987  13.058
14660W        W78604   1.476  20.265  12.835
14661W        W78605  38.412  13.736   1.357
14662W        W78606  20.034  30.996   2.240
14663W        W78607   6.787   0.276  13.322
14664W        W78608  24.670  40.493  13.880
14665W        W78609  41.470  40.842  10.960
14666W        W78610  33.082  31.569   4.709
14667W        W78611  18.216   7.752  12.452
14668W        W78612  11.785   1.744   4.228
14669W        W78613  43.804  21.053   1.784
14670W        W78614  13.828  36.435  12.435
14671W        W78615  24.701  18.269   1.381
14672W        W78616  26.602   7.908   0.345
14673W        W78617  43.503   0.423   0.910
14674W        W78618   3.431   5.347  14.951
14675W        W78619   6.748   8.789   0.429
14676W        W78620  37.489  25.008   1.248
14677W        W78621  28.662  23.641  13.904
14678W        W78622  15.812   4.919  10.534
14679W        W78623  25.518  15.820   0.804
14680W        W78624  24.229   5.327  14.475
14681W        W78625  36.369  29.591   3.157
14682W        W78626  35.539  25.484   1.782
14683W        W78627  17.730  35.490   2.874
14684W        W78628  34.493  43.766   3.870
14685W        W78629  34.105  13.296   1.215
14686W        W78630   0.931  21.119   2.362
14687W        W78631  24.104   6.248  13.830
14688W        W78632  35.441  29.659   4.651
14689W        W78633  15.652  37.834  12.873
14690W        W78634   2.852  15.757  10.465
14691W        W78635  12.620  16.291   4.269
14692W        W78636   2.365   6.318  12.079
14693W        W78637  11.333  19.570  11.396
14694W        W78638  15.212   2.753  13.529
14695W        W78639  38.405  16.216   1.313
14696W        W78640  17.711   4.444   4.751
14697W        W78641  41.341  41.364   0.802
14698W        W78642  20.198   3.849  12.971
14699W        W78643  11.835  43.326  13.947
14700W        W78644   4.442   3.753  11.489
14701W        W78645  10.713  40.395   4.274
14702W        W78646  15.291  40.400  13.006
14703W        W78647  33.595  29.940   0.461
14704W        W78648   0.940  14.751  12.023
14705W        W78649  35.365  25.168  10.639
14706W        W78650  22.530  12.134   2.370
14707W        W78651  16.123  26.680   3.230
14708W        W78652  27.549  15.603   2.755
14709W        W78653  42.420   8.767  13.942
14710W        W78654  20.087  10.703   0.750
14711W        W78655  30.558   3.340   3.868
14712W        W78656  27.612  18.275  12.398
14713W        W78657  44.783  42.825   4.764
14714W        W78658  40.422   5.239  14.965
14715W        W78659  21.213  13.614   1.433
14716W        W78660   4.729  18.587   3.806
14717W        W78661  33.001  20.257  12.392
14718W        W78662  30.122  41.362   3.756
14719W        W78663  10.285  17.588  11.073
14720W        W78664  11.229  41.425   1.259
14721W        W78665   8.706   0.955  11.483
14722W        W78666  16.244  36.443   1.794
14723W        W78667  44.452  42.524  13.964
14724W        W78668   5.321  36.381   2.861
14725W        W78669   8.715  33.405   0.855
14726W        W78670  29.645   1.808   4.288
14727W        W78671  30.583  43.473  11.034
14728W        W78672  36.379  42.525   0.376
14729W        W78673   0.894  27.993   3.676
14730W        W78674   5.932  14.704  14.358
14731W        W78675  34.874   5.307   0.348
14732W        W78676  24.534  36.984  14.822
14733W        W78677  12.662  29.958   2.412
14734W        W78678   4.257  26.117  13.484
14735W        W78679  43.425   3.244  14.820
14736W        W78680  27.022   0.407   4.622
14737W        W78681   6.195  18.058   4.714
14738W        W78682   6.772  11.723  14.402
14739W        W78683   7.283  33.903  13.009
14740W        W78684  18.667  35.080  11.077
14741W        W78685   8.888   7.698  13.798
14742W        W78686  20.218   5.316  14.891
14743W        W78687  31.637  22.193   2.774
14744W        W78688  18.791  18.155   9.972
14745W        W78689  37.541   4.781   3.642
14746W        W78690  44.275  24.989  10.021
14747W        W78691  29.563  16.089  13.374
14748W        W78692  31.409   2.965   3.188
14749W        W78693  12.245  40.976  13.491
14750W        W78694  23.110  16.200  14.020
14751W        W78695  34.388  23.075   1.808
14752W        W78696  16.293  27.604  10.440
14753W        W78697   7.193   5.270  12.001
14754W        W78698  30.652  13.635  11.043
14755W        W78699  32.067  43.364   4.665
14756W        W78700  42.009   3.833  13.062
14757W        W78701   2.242  25.053  12.880
14758W        W78702   1.431  30.513  13.964
14759W        W78703  13.275   6.827  11.925
14760W        W78704   3.301  42.964  14.902
14761W        W78705  25.965  29.577   0.752
14762W        W78706  37.055  29.582  13.539
14763W        W78707  33.521   0.974  13.548
14764W        W78708  15.598   7.180   3.239
14765W        W78709  16.573  35.987   4.128
14766W        W78710  27.024  30.936  12.549
14767W        W78711  14.634  43.997   3.678
14768W        W78712   5.913  31.962  12.838
14769W        W78713  18.596  12.349  10.566
14770W        W78714   3.341  24.651   2.686
14771W        W78715  31.555  34.395   1.216
14772W        W78716  17.156  19.183   2.777
14773W        W78717   4.940   2.936  12.864
14774W        W78718  13.813  13.247  14.995
14775W        W78719  20.712  26.491   0.846
14776W        W78720  37.943  10.152  13.003
14777W        W78721   0.477  40.526  13.843
14778W        W78722   9.862  17.762  14.796
14779W        W78723  29.087   2.383  11.029
14780W        W78724  41.324  35.900   1.429
14781W        W78725  20.644   9.179   3.797
14782W        W78726  11.244  37.402  13.027
14783W        W78727  20.051  15.327  13.519
14784W        W78728  26.593  17.789   1.880
14785W        W78729  17.244  36.457   4.150
14786W        W78730  15.091  41.942  11.924
14787W        W78731   5.386   9.369   4.210
14788W        W78732  37.558   1.975   4.742
14789W        W78733  16.251  27.547  12.892
14790W        W78734   3.787  32.505  12.362
14791W        W78735  32.059  31.439  10.432
14792W        W78736   2.736  16.772  13.888
14793W        W78737   4.235  32.089  12.985
14794W        W78738  42.012   8.312  14.998
14795W        W78739  24.628   8.290   1.286
14796W        W78740  16.151  29.487  12.580
14797W        W78741  23.670  41.977  11.051
14798W        W78742  25.184   0.890  10.990
14799W        W78743  24.713  22.200   4.804
14800W        W78744   4.334   9.241   4.632
14801W        W78745   0.810  35.857   3.860
14802W        W78746  34.469  28.965   2.719
14803W        W78747  29.107  17.202  13.048
14804W        W78748  25.560  32.503   0.846
14805W        W78749  19.217   4.755  11.039
14806W        W78750  30.503   5.865  10.486
14807W        W78751  12.271  39.398   4.196
14808W        W78752  37.348   6.870   2.339
14809W        W78753  42.522  36.449   1.905
14810W        W78754   3.344  41.410  11.970
14811W        W78755   8.660   1.779  10.465
14812W        W78756  18.726  34.554  12.943
14813W        W78757  39.960  34.430  14.816
14814W        W78758  17.248  14.292   2.212
14815W        W78759   9.706   2.288  13.461
14816W        W78760   9.781   1.311   4.685
14817W        W78761  14.796   5.849   4.808
14818W        W78762  16.185  36.519   2.301
14819W        W78763  41.043  41.897  14.965
14820W        W78764  42.020  36.867  10.474
14821W        W78765  10.283   6.252   0.452
14822W        W78766  18.685  11.211   4.632
14823W        W78767   3.718  33.060  10.436
14824W        W78768  23.575  18.668   1.331
14825W        W78769   1.413   8.191   3.319
14826W        W78770  17.063  29.113   0.899
14827W        W78771   4.930  16.108  11.057
14828W        W78772  21.690  34.503  13.540
14829W        W78773   2.376  29.575  13.798
14830W        W78774   7.764  39.835   1.246
14831W        W78775  14.314   1.395   2.757
14832W        W78776  20.761  30.990  13.462
14833W        W78777  17.214   2.261   3.641
14834W        W78778  11.812  30.042  10.037
14835W        W78779  42.466   7.836  12.570
14836W        W78780  41.479  10.724  11.011
14837W        W78781  35.029  44.411  12.833
14838W        W78782  12.283   7.409  14.433
14839W        W78783  38.061  25.020   3.704
14840W        W78784  19.062   5.709   5.254
14841W        W78785   3.430  31.590  12.377
14842W        W78786  34.934  19.680   4.283
14843W        W78787  16.220  23.138  10.413
14844W        W78788  35.486  17.667   1.298
14845W        W78789  25.193  22.240   1.299
14846W        W78790  15.730   9.756  12.396
14847W        W78791  30.924  20.523  12.444
14848W        W78792  27.094  19.053   0.890
14849W        W78793  12.231  23.205   0.792
14850W        W78794  12.359  37.543  14.775
14851W        W78795  16.672  25.555   4.780
14852W        W78796   4.851  39.437   4.344
14853W        W78797  21.249   9.785  14.392
14854W        W78798   7.339  37.471  14.396
14855W        W78799   7.211  32.992   4.795
14856W        W78800  36.549  19.745  13.869
14857W        W78801  18.137  15.251   1.821
14858W        W78802  34.524  42.389  13.508
14859W        W78803   8.860  43.010   2.277
14860W        W78804  38.353  30.572   4.339
14861W        W78805  39.551  34.070  10.410
14862W        W78806  35.925  17.580   1.858
14863W        W78807  28.516  38.044   2.279
14864W        W78808  39.513  34.519  11.559
14865W        W78809   6.815   4.382  11.566
14866W        W78810   5.755   3.893  14.409
14867W        W78811  15.105  40.021   2.246
14868W        W78812  42.940  42.989  14.983
14869W        W78813  37.042  18.160   0.746
14870W        W78814  34.924   8.176  12.093
14871W        W78815  40.316   9.265  13.518
14872W        W78816   8.775  19.213  13.434
14873W        W78817  15.091  40.464  11.471
14874W        W78818  44.269  36.960  14.449
14875W        W78819  35.386  40.323  13.791
14876W        W78820  40.355  14.761  13.514
14877W        W78821   6.274  42.847  13.494
14878W        W78822  43.964  39.347  11.953
14879W        W78823  22.105  13.833   4.128
14880W        W78824   1.950  40.856  11.551
14881W        W78825  15.755  43.020  14.780
14882W        W78826  30.916  43.315  14.451
14883W        W78827  43.304  26.553  11.405
14884W        W78828  39.522  34.389  12.954
14885W        W78829  24.208  38.546   0.880
14886W        W78830   2.957  41.995  14.298
14887W        W78831  23.625  13.146  10.566
14888W        W78832  24.084   0.317  11.489
14889W        W78833  31.128   1.846  11.397
14890W        W78834  37.061  43.412   0.262
14891W        W78835  18.199  12.344   3.177
14892W        W78836  40.462  33.391   1.309
14893W        W78837   7.872   6.892   0.427
14894W        W78838   1.767   4.371  12.933
14895W        W78839  37.437  10.743  14.905
14896W        W78840  30.443  20.765  13.541
14897W        W78841  11.174  38.412   3.162
14898W        W78842   8.198  13.236  14.829
14899W        W78843   3.292  38.014  14.801
14900W        W78844  33.886  21.604  14.475
14901W        W78845  13.226  19.769   2.802
14902W        W78846  18.581  35.402   4.604
14903W        W78847   6.726  42.887  11.979
14904W        W78848  29.588   4.440  11.549
14905W        W78849  20.183  41.850  14.794
14906W        W78850  33.587   8.292  12.968
14907W        W78851  24.665  23.120  13.547
14908W        W78852  38.434  21.203  12.072
14909W        W78853  19.202  39.041   2.255
14910W        W78854  12.759   4.439   2.327
14911W        W78855  17.768  40.966  14.978
14912W        W78856  43.437  23.695   2.786
14913W        W78857   7.778  15.695   3.292
14914W        W78858  43.968  14.134  14.962
14915W        W78859  28.062  42.031  13.518
14916W        W78860  29.057  38.329  12.465
14917W        W78861  38.381  41.844   1.285
14918W        W78862  33.414   9.705  11.415
14919W        W78863  15.268  38.330   3.344
14920W        W78864  11.207  34.884  11.394
14921W        W78865  38.068  40.016  14.939
14922W        W78866  18.685  12.725  14.387
14923W        W78867  22.713  33.511  10.978
14924W        W78868   5.405  28.134  11.551
14925W        W78869  32.443  41.916  14.281
14926W        W78870   1.473   9.232  11.493
14927W        W78871  37.424  21.113   9.974
14928W        W78872   6.716  24.691  10.582
14929W        W78873  28.591   9.218   2.901
14930W        W78874  31.953   9.717  10.410
14931W        W78875  36.855  42.400   1.379
14932W        W78876  41.399  44.992   4.341
14933W        W78877  43.381  15.133   3.172
14934W        W78878  36.853  37.517  14.422
14935W        W78879  42.384  19.218  13.897
14936W        W78880   8.874  37.969  13.402
14937W        W78881  14.751  39.505   2.204
14938W        W78882  24.087  37.875   3.372
14939W        W78883  38.389   0.812  14.811
14940W        W78884  10.857  18.146   1.732
14941W        W78885   7.306  33.464  13.538
14942W        W78886  20.195  31.462   1.901
14943W        W78887  18.281  21.226  14.893
14944W        W78888  38.075  10.367  12.383
14945W        W78889  15.312  35.501   4.769
14946W        W78890  10.371  31.454   2.387
14947W        W78891  21.627   6.202  11.525
14948W        W78892  18.698  30.570   1.738
14949W        W78893  42.899   4.909  14.298
14950W        W78894  18.594   2.298   3.650
14951W        W78895  37.499  26.011  14.845
14952W        W78896  17.223   2.273  13.914
14953W        W78897  42.481  37.859   3.646
14954W        W78898  28.512  42.815  11.031
14955W        W78899  39.819  27.501   3.183
14956W        W78900   7.782  34.894  12.571
14957W        W78901   5.343  26.089  13.064
14958W        W78902  34.391  20.571  11.568
14959W        W78903  43.344  37.514  11.091
14960W        W78904  10.349  28.620   3.692
14961W        W78905   8.261  42.923   4.762
14962W        W78906  40.497  27.083  13.547
14963W        W78907  42.840  28.111   3.294
14964W        W78908  38.423  42.020  10.492
14965W        W78909  29.076  40.520  14.875
14966W        W78910  34.962   4.913  14.984
14967W        W78911  32.628  39.053   0.471
14968W        W78912   9.644  44.321  14.275
14969W        W78913  15.167   2.352  14.374
14970W        W78914  11.165  38.390  10.511
14971W        W78915   2.311  29.631   3.374
14972W        W78916  36.499  35.017  14.791
14973W        W78917  34.557  33.535   2.860
14974W        W78918  11.240  26.476  12.558
14975W        W78919  32.082  40.369   2.837
14976W        W78920  23.678  16.610  11.537
14977W        W78921  27.963  34.571   3.800
14978W        W78922  29.659  37.414   1.257
14979W        W78923  37.846  10.849   4.623
14980W        W78924  28.177  31.992   4.814
14981W        W78925  30.570  11.289  11.588
14982W        W78926  43.933   8.388  10.609
14983W        W78927  10.266   4.819  10.464
14984W        W78928  21.078  39.902   0.887
14985W        W78929  29.637   9.159  11.858
14986W        W78930  42.434  18.693   2.762
14987W        W78931  15.146  22.550  12.944
14988W        W78932  25.101  23.661  13.487
14989W        W78933  44.990  36.461  11.046
14990W        W78934   7.677  21.711  12.003
14991W        W78935  15.812  34.907   5.225
14992W        W78936  10.271  43.764   3.649
14993W        W78937   8.835  14.172  10.905
14994W        W78938  23.220   0.489  13.861
14995W        W78939  36.527   5.855  11.923
14996W        W78940   4.797  39.042  13.525
14997W        W78941  31.041  11.746  11.923
14998W        W78942   4.840  42.913   3.383
14999W        W78943   6.246  39.953   0.281
15000W        W78944  25.612   3.886  14.982
15001W        W78945  34.989   7.264   4.351
15002W        W78946  27.630  27.687  14.768
15003W        W78947  11.202  43.356  13.844
15004W        W78948   1.953  17.638  12.909
15005W        W78949  40.514  23.679  14.304
15006W        W78950  25.657   3.274   0.254
15007W        W78951   7.320   8.770  11.472
15008W        W78952  25.638   1.276  13.812
15009W        W78953   0.898  17.102  10.117
15010W        W78954   6.722  11.858  10.949
15011W        W78955  11.352  28.047   0.764
15012W        W78956  22.587  19.727  11.064
15013W        W78957  32.485  26.584  10.494
15014W        W78958  35.018  32.988   4.320
15015W        W78959  23.019   2.389   4.821
15016W        W78960  39.978   4.326   2.715
15017W        W78961  28.581  28.962   4.233
15018W        W78962  38.889  19.168   1.882
15019W        W78963  19.108  27.182  10.939
15020W        W78964  24.998   7.766  10.890
15021W        W78965   8.246  23.098   2.249
15022W        W78966  33.400  32.888   4.772
15023W        W78967  35.524  23.603  11.018
15024W        W78968  30.092  20.665   1.719
15025W        W78969  37.898   1.411   2.223
15026W        W78970   2.734  18.558  11.523
15027W        W78971  37.850   4.938  12.346
15028W        W78972  12.666  15.769   1.416
15029W        W78973  21.681  36.995   4.628
15030W        W78974  10.209  37.022  11.508
15031W        W78975  28.002  13.823  13.013
15032W        W78976  44.826  11.129   3.729
15033W        W78977  20.039  15.736  11.884
15034W        W78978  43.275  28.667  12.966
15035W        W78979  31.476  35.108  13.848
15036W        W78980  33.999  29.165   3.282
15037W        W78981  31.637  41.467  14.987
15038W        W78982  16.295  30.489  10.925
15039W        W78983  21.570  20.114   4.206
15040W        W78984  32.116  39.316  14.503
15041W        W78985   1.299   5.337   2.215
15042W        W78986  15.649  25.590  11.562
15043W        W78987  22.725  43.974   2.348
15044W        W78988   2.273  32.022   3.307
15045W        W78989  13.142   8.894  13.521
15046W        W78990  44.487  26.956  10.903
15047W        W78991   1.275  38.501  12.560
15048W        W78992   1.347   3.304   4.796
15049W        W78993   4.883  19.216   5.204
15050W        W78994  26.127  42.419  12.026
15051W        W78995  24.594  22.589   0.904
15052W        W78996  13.172  28.524   2.836
15053W        W78997  44.883  22.685  14.966
15054W        W78998   9.832   7.863   3.342
15055W        W78999  23.718  25.134   3.273
15056W        W79000  18.761  15.642   9.992
15057W        W79001   1.953  40.013  14.508
15058W        W79002  30.532  18.239   1.821
15059W        W79003  39.923  44.294   2.843
15060W        W79004  19.574   7.220   2.342
15061W        W79005   3.871  10.802   3.183
15062W        W79006  31.002  21.087  14.346
15063W        W79007   3.744  22.161  12.389
15064W        W79008  22.151   3.862   1.866
15065W        W79009  28.028  13.661   0.341
15066W        W79010  14.706   9.864  14.971
15067W        W79011  18.080  42.879   4.808
15068W        W79012  41.406  30.585   4.145
15069W        W79013  37.864   1.770   4.196
15070W        W79014   4.878  35.940  13.887
15071W        W79015  12.121  15.632  11.034
15072W        W79016  27.643  19.040  14.892
15073W        W79017  10.181  37.876  11.582
15074W        W79018  31.493   3.938   1.753
15075W        W79019  11.736   7.888   0.466
15076W        W79020  18.551  19.054  10.414
15077W        W79021  33.455  15.692   0.354
15078W        W79022  22.676  29.090   0.439
15079W        W79023   8.405  13.290   4.235
15080W        W79024  33.906  27.651  10.614
15081W        W79025  42.518  26.117  11.021
15082W        W79026  10.216   4.714  11.889
15083W        W79027  21.035  40.052  11.897
15084W        W79028  29.467  24.047   2.287
15085W        W79029  12.321  31.067   3.672
15086W        W79030  41.497  26.128  12.834
15087W        W79031   6.192  14.184  13.474
15088W        W79032  11.739   9.313   0.391
15089W        W79033  26.595   4.854   4.138
15090W        W79034  21.697  13.623  12.544
15091W        W79035  24.551  32.924  10.602
15092W        W79036  22.520  26.015  13.431
15093W        W79037  13.181  12.693   0.912
15094W        W79038  11.269  35.915  10.544
15095W        W79039   1.943  33.063   3.656
15096W        W79040  24.134  12.616  10.565
15097W        W79041  38.973  34.535   2.350
15098W        W79042  41.303  30.967  14.482
15099W        W79043  26.683  25.690  12.466
15100W        W79044  26.970   2.888  14.387
15101W        W79045  38.895  11.666  11.024
15102W        W79046  15.319  14.637  13.904
15103W        W79047  36.022  40.323   2.761
15104W        W79048  20.752  24.709  13.477
15105W        W79049  37.934  30.050  14.422
15106W        W79050  16.616  32.109  14.366
15107W        W79051  32.916  28.449   2.344
15108W        W79052  21.041  19.626   0.258
15109W        W79053  24.202  19.674  12.414
15110W        W79054  34.412   1.337  13.859
15111W        W79055   9.221   5.858  14.872
15112W        W79056  18.295  22.671  13.809
15113W        W79057  29.625  36.896  14.911
15114W        W79058  22.241  10.730  12.886
15115W        W79059  42.398   2.830   3.208
15116W        W79060  35.468  44.908  11.865
15117W        W79061  37.399  38.834   0.271
15118W        W79062  14.737  38.437   2.687
15119W        W79063  39.847  10.253   2.210
15120W        W79064  29.154  31.568  10.438
15121W        W79065  42.822  13.333  14.866
15122W        W79066  15.733  34.065  13.976
15123W        W79067  27.481   9.808  13.519
15124W        W79068  24.212  17.244   1.837
15125W        W79069  25.476  39.987   0.265
15126W        W79070  44.811  18.613   0.367
15127W        W79071  13.633   5.771  13.814
15128W        W79072  33.968  26.644   0.839
15129W        W79073  22.576  42.898   2.689
15130W        W79074  18.692  39.514  11.610
15131W        W79075  37.883  14.116  12.430
15132W        W79076  15.727  44.375   2.187
15133W        W79077  40.414  28.588   1.797
15134W        W79078   7.746  20.049  11.443
15135W        W79079  30.620  11.164   2.759
15136W        W79080  10.826   0.374  13.548
15137W        W79081  13.745  24.155   4.119
15138W        W79082  15.607  32.512   2.260
15139W        W79083  41.943   8.661  10.074
15140W        W79084  42.409   5.308   3.759
15141W        W79085  37.470   5.351   2.766
15142W        W79086  43.457  31.056   1.291
15143W        W79087  24.023   8.887  14.283
15144W        W79088  30.094   3.897   0.922
15145W        W79089  30.013   2.766   3.370
15146W        W79090   0.888  11.693   1.234
15147W        W79091  43.974  22.213   4.145
15148W        W79092   9.190  15.286   0.350
15149W        W79093  35.373  15.642   0.352
15150W        W79094   6.715  32.963   4.290
15151W        W79095  26.516   5.693  13.405
15152W        W79096  22.233  12.160  10.628
15153W        W79097   0.271  15.644  10.612
15154W        W79098  20.142  17.118   2.861
15155W        W79099  39.460  18.567  11.018
15156W        W79100  13.777   9.318   4.712
15157W        W79101  38.568  10.178  12.046
15158W        W79102  20.753  29.514  11.485
15159W        W79103  19.236  14.280  14.357
15160W        W79104  14.292  18.243   1.330
15161W        W79105  31.119  42.460  13.021
15162W        W79106  42.883  29.134  10.962
15163W        W79107   6.778  21.557  14.397
15164W        W79108   3.949  32.568  13.949
15165W        W79109   6.383  39.843  10.621
15166W        W79110  30.044   4.406  11.399
15167W        W79111  22.216  18.098  14.970
15168W        W79112  10.763  15.107  13.933
15169W        W79113  17.764   9.814   5.104
15170W        W79114  31.100   3.815   2.342
15171W        W79115  30.623   7.182   3.755
15172W        W79116  35.388  10.681   1.367
15173W        W79117  22.583  17.665  14.947
15174W        W79118  28.000   8.718   2.816
15175W        W79119  15.674  34.601   0.259
15176W        W79120  39.366  10.825   0.374
15177W        W79121  11.718  44.488  14.429
15178W        W79122   7.821   4.350   0.349
15179W        W79123  10.807   5.400   3.657
15180W        W79124   4.715  34.420   0.936
15181W        W79125  31.961  16.266   0.373
15182W        W79126  22.232  16.123  14.298
15183W        W79127   2.410  13.338  11.907
15184W        W79128  31.070  10.651  14.847
15185W        W79129  15.181   6.848   3.357
15186W        W79130  38.040   2.824  13.946
15187W        W79131  31.983   8.253  11.093
15188W        W79132   1.425  26.006  14.962
15189W        W79133  37.447  42.439  12.565
15190W        W79134  38.060  28.438   3.312
15191W        W79135  33.435  19.719  10.901
15192W        W79136  28.128  27.453   1.798
15193W        W79137  41.943   9.791  14.803
15194W        W79138  33.578   9.849  12.993
15195W        W79139   6.263  28.636   0.827
15196W        W79140  22.694  17.176  10.433
15197W        W79141   6.182  39.345  12.512
15198W        W79142  16.108   1.921   4.227
15199W        W79143  31.519   9.741  11.462
15200W        W79144  25.478  38.013   2.878
15201W        W79145  28.048  42.917  12.469
15202W        W79146  27.630  23.490   4.267
15203W        W79147   3.902   5.254  13.037
15204W        W79148  39.829  31.086  14.864
15205W        W79149  17.106  29.048  13.459
15206W        W79150  39.001  41.041  12.496
15207W        W79151   5.417  40.967   4.120
15208W        W79152  21.515   5.283   2.354
15209W        W79153   9.726  36.361  14.904
15210W        W79154  43.478  16.242   4.681
15211W        W79155  39.448  20.707  11.603
15212W        W79156   2.759  17.248  11.530
15213W        W79157  27.087  15.806  12.386
15214W        W79158  38.858  42.812   3.816
15215W        W79159  12.719  14.222  13.447
15216W        W79160  24.135  42.335   1.920
15217W        W79161  44.775  16.123  14.452
15218W        W79162  33.009  39.033  13.420
15219W        W79163  14.224  10.837  14.854
15220W        W79164  24.050  43.830  11.530
15221W        W79165  10.768   2.229   4.153
15222W        W79166  32.564  28.176   3.248
15223W        W79167   4.869   8.227  10.470
15224W        W79168  18.613  43.989  13.935
15225W        W79169  17.216  32.103   0.308
15226W        W79170  25.098  23.107   2.705
15227W        W79171  24.222   7.195  10.996
15228W        W79172  38.009   6.184  13.038
15229W        W79173  38.445   9.721   2.223
15230W        W79174  34.432  13.783  12.906
15231W        W79175  36.409  25.468   0.281
15232W        W79176  36.982  44.902   4.657
15233W        W79177  17.133  38.847  14.473
15234W        W79178  40.980  21.094   4.609
15235W        W79179  32.938  29.057   2.725
15236W        W79180  31.052  14.140   3.261
15237W        W79181  16.705   6.855   0.427
15238W        W79182   7.297   6.782  13.357
15239W        W79183  40.371  37.461   1.431
15240W        W79184  10.356  40.811   3.244
15241W        W79185  44.453  24.988  13.797
15242W        W79186  17.586  38.338   3.152
15243W        W79187  15.212  35.854  14.507
15244W        W79188  15.756  11.845  14.892
15245W        W79189   1.971   3.796  14.879
15246W        W79190   2.246  43.932   1.756
15247W        W79191  25.970  10.259  13.790
15248W        W79192   5.712  21.258  11.990
15249W        W79193  27.623  30.992  10.518
15250W        W79194  20.710  25.540  13.926
15251W        W79195  21.050  10.655   2.881
15252W        W79196  19.754  29.064   2.836
15253W        W79197   6.208  15.757   4.640
15254W        W79198   3.311  30.936   4.756
15255W        W79199  33.591  13.236  11.881
15256W        W79200  13.659  30.025  11.883
15257W        W79201   1.288  12.829  10.907
15258W        W79202  35.975  31.135   5.265
15259W        W79203  42.331  34.550  13.355
15260W        W79204  44.328  21.714   4.195
15261W        W79205  19.235   6.801   3.307
15262W        W79206  10.230  43.769  11.525
15263W        W79207  23.685  18.103   3.334
15264W        W79208  34.113  15.185   0.420
15265W        W79209   3.456   2.395  13.511
15266W        W79210   1.327  38.409   1.249
15267W        W79211   3.904  38.335   1.218
15268W        W79212  10.231  18.783  13.864
15269W        W79213  17.705  18.118   1.335
15270W        W79214  29.548  21.643  10.634
15271W        W79215  11.245   3.434  11.991
15272W        W79216   8.299  26.649  13.054
15273W        W79217  31.608  12.685   0.911
15274W        W79218  19.776  32.949  14.291
15275W        W79219   8.881  38.509  11.399
15276W        W79220   8.849  33.432   4.286
15277W        W79221  24.084   0.382  11.916
15278W        W79222   1.380  33.608   0.955
15279W        W79223  44.947   3.392  11.960
15280W        W79224   8.852  16.105   3.329
15281W        W79225   8.798   2.256   0.296
15282W        W79226  44.314  25.117  10.506
15283W        W79227  13.248  25.611   3.307
15284W        W79228  31.053  44.939   1.822
15285W        W79229  43.514  30.162  14.795
15286W        W79230  43.020  31.899   5.171
15287W        W79231  32.985  16.808   2.285
15288W        W79232  18.284  10.782   5.656
15289W        W79233  23.654  19.628  11.514
15290W        W79234  15.123   6.818  12.380
15291W        W79235  37.088   3.216  11.054
15292W        W79236   5.194  22.533   4.183
15293W        W79237  14.730  24.723  10.447
15294W        W79238   9.182  30.157   1.377
15295W        W79239  28.001  33.971   2.790
15296W        W79240  28.680   4.268   0.740
15297W        W79241  30.423  12.766  13.492
15298W        W79242  44.007  43.934  13.467
15299W        W79243  44.885  13.640  11.034
15300W        W79244  10.308  11.744   5.083
15301W        W79245  22.211  44.460  11.038
15302W        W79246   6.186  13.708  11.465
15303W        W79247  39.862  12.203  10.514
15304W        W79248  21.061  40.873   1.755
15305W        W79249  41.509  35.571  14.909
15306W        W79250   4.934  26.500   5.201
15307W        W79251  36.964  34.007  11.066
15308W        W79252  14.137   0.857   0.424
15309W        W79253  28.598  12.773   0.280
15310W        W79254   6.352   2.893   4.121
15311W        W79255  38.922  38.557   4.700
15312W        W79256   6.409  19.705  14.357
15313W        W79257  44.980  36.097  11.916
15314W        W79258  17.272  38.924   3.289
15315W        W79259  33.405   6.896  13.545
15316W        W79260   6.210   6.391   4.177
15317W        W79261   1.296  21.171  13.984
15318W        W79262  22.995  34.966  14.474
15319W        W79263  40.907  12.136  10.950
15320W        W79264  13.146   5.714   0.758
15321W        W79265  31.047  25.133  14.378
15322W        W79266  41.851  43.895   2.187
15323W        W79267   2.324  39.511  11.067
15324W        W79268   8.789   3.907  14.908
15325W        W79269   6.711  34.097   2.747
15326W        W79270  25.007  11.863  13.875
15327W        W79271  43.464  13.803  13.950
15328W        W79272  36.566  10.699   2.377
15329W        W79273  10.228  23.690   4.697
15330W        W79274  43.274   9.356  12.858
15331W        W79275  25.059  22.656   2.720
15332W        W79276  33.910  16.771   0.347
15333W        W79277  29.583  39.888   1.725
15334W        W79278  36.358  20.644  10.428
15335W        W79279  28.145   8.228  12.489
15336W        W79280  43.331   9.872   0.321
15337W        W79281  42.433  41.809   4.237
15338W        W79282   1.259  35.510  11.044
15339W        W79283  26.201  39.827  10.566
15340W        W79284  28.621   8.868   0.746
15341W        W79285   6.363  34.904  14.864
15342W        W79286  20.755  23.230  13.014
15343W        W79287  22.136  37.901   2.322
15344W        W79288  24.684  27.145  11.013
15345W        W79289   2.250   5.824  10.943
15346W        W79290   8.693  38.946   0.951
15347W        W79291  20.557  40.470   4.256
15348W        W79292  15.761  34.118   0.301
15349W        W79293  43.953   6.865  13.326
15350W        W79294   7.179  15.307   4.709
15351W        W79295  31.024  37.368  13.012
15352W        W79296  20.033   0.248  13.915
15353W        W79297  12.671  29.437   0.464
15354W        W79298  16.692  39.960  14.365
15355W        W79299   5.713  44.370   4.122
15356W        W79300   4.356  19.756   2.406
15357W        W79301  29.638  35.991  11.401
15358W        W79302  18.577  31.986   4.782
15359W        W79303  43.382  31.080   1.771
15360W        W79304  35.022   0.882   1.788
15361W        W79305  13.666  10.722  10.631
15362W        W79306  25.623  29.938   4.649
15363W        W79307  34.539   2.961  13.347
15364W        W79308  10.690  17.215  12.550
15365W        W79309  28.673  15.265  13.882
15366W        W79310  17.555  44.945  13.536
15367W        W79311  26.016   6.410   0.436
15368W        W79312   6.692  16.219  14.377
15369W        W79313   3.940   1.323  13.522
15370W        W79314  19.282  33.932   1.413
15371W        W79315  42.798   6.872  11.955
15372W        W79316  26.125  38.412   3.266
15373W        W79317  31.086  28.563   4.197
15374W        W79318  25.576  11.726  12.559
15375W        W79319  37.881   3.340   9.519
15376W        W79320  18.689  40.799   4.700
15377W        W79321   1.381  43.305  11.076
15378W        W79322  29.052  23.648  14.448
15379W        W79323  39.437  42.452  12.917
15380W        W79324  25.495  17.082  11.117
15381W        W79325  20.661  16.302   1.323
15382W        W79326  19.056  19.711  14.015
15383W        W79327  39.452  13.180   3.326
15384W        W79328   9.645  23.091  12.505
15385W        W79329  18.563  30.559  14.783
15386W        W79330  17.672  31.590  14.845
15387W        W79331  31.454  17.676  14.431
15388W        W79332  13.193  23.537  14.853
15389W        W79333   5.376   5.692  14.378
15390W        W79334  40.034  24.533  14.489
15391W        W79335   1.380  34.940  12.950
15392W        W79336  25.073  18.162   0.371
15393W        W79337  42.434   2.837   4.760
15394W        W79338   5.752  36.591   0.799
15395W        W79339  41.838   9.743   1.395
15396W        W79340  15.220   5.931   3.836
15397W        W79341  34.590  10.865  14.399
15398W        W79342   6.787  14.167  14.474
15399W        W79343  21.655  21.546   3.162
15400W        W79344   6.369  24.163   5.095
15401W        W79345  31.451  34.483   3.746
15402W        W79346  24.546   6.825   3.184
15403W        W79347   4.848  22.733   2.297
15404W        W79348  33.939  14.642  12.887
15405W        W79349  27.561  42.838   2.864
15406W        W79350   3.769  26.068   0.960
15407W        W79351  38.513  17.684   4.811
15408W        W79352  33.096  11.335   2.678
15409W        W79353  38.055  21.616   0.934
15410W        W79354  29.502   0.481   2.373
15411W        W79355  26.690  38.472   4.806
15412W        W79356  31.438  14.209  12.030
15413W        W79357   2.967  38.557   0.844
15414W        W79358   2.433  32.999  12.994
15415W        W79359  42.514   3.847  13.443
15416W        W79360  40.820  37.444  11.094
15417W        W79361  23.593  19.044   2.677
15418W        W79362  34.918  23.691   0.479
15419W        W79363  35.021  11.706  13.946
15420W        W79364   5.311  11.836   4.805
15421W        W79365  14.145  35.853   1.329
15422W        W79366  29.930  23.014  13.829
15423W        W79367  35.581   5.211  10.963
15424W        W79368  40.890  36.027  12.447
15425W        W79369   5.779   7.692  14.439
15426W        W79370   1.922  34.979   0.787
15427W        W79371  34.881  23.241   4.729
15428W        W79372  22.035   9.293  11.608
15429W        W79373   6.754  14.233  13.396
15430W        W79374  41.798  37.358  10.492
15431W        W79375  23.204  30.633   4.193
15432W        W79376  24.119  33.492   3.683
15433W        W79377  31.145  31.082   0.303
15434W        W79378  31.143  16.658  10.987
15435W        W79379  35.878   8.736  11.484
15436W        W79380  40.005  30.607   2.886
15437W        W79381  29.031  15.812  14.338
15438W        W79382  14.634  24.484  11.377
15439W        W79383  33.124  14.200  14.446
15440W        W79384  12.780  16.601   3.331
15441W        W79385   0.855  34.453   3.846
15442W        W79386   0.758  25.173  12.062
15443W        W79387  35.109  31.132   0.939
15444W        W79388  30.551  41.477   5.140
15445W        W79389  32.548  44.273  14.826
15446W        W79390  41.532  40.983  14.940
15447W        W79391  42.353  38.980  13.477
15448W        W79392  27.072  25.511   2.766
15449W        W79393  39.948  41.905  11.510
15450W        W79394  27.152  31.025  14.823
15451W        W79395  14.182  11.209  12.448
15452W        W79396  32.047  24.161   0.317
15453W        W79397   5.201  14.741   4.678
15454W        W79398  36.849  35.512  14.007
15455W        W79399  36.894  23.020   0.868
15456W        W79400  18.776  34.377   4.284
15457W        W79401  41.483  41.830  11.127
15458W        W79402  28.075  44.813  12.493
15459W        W79403  22.248  38.914   4.275
15460W        W79404  27.017  14.271   4.353
15461W        W79405  20.110  40.933  12.050
15462W        W79406  37.088  16.106  13.986
15463W        W79407  25.511  40.803   3.633
15464W        W79408  17.722  10.179   1.832
15465W        W79409   2.232  42.957   2.304
15466W        W79410  35.920  32.990  13.025
15467W        W79411  14.095  27.023  10.433
15468W        W79412  37.877  34.473   4.825
15469W        W79413  29.592  29.135   3.373
15470W        W79414  10.639  44.812  12.025
15471W        W79415  44.816  29.107   1.440
15472W        W79416  13.636  31.569   1.336
15473W        W79417   0.940  15.590  12.427
15474W        W79418  28.080   6.355   2.701
15475W        W79419   9.732   1.446  10.596
15476W        W79420  27.181  32.953  14.509
15477W        W79421   0.876  34.093   1.317
15478W        W79422  39.944  26.565  13.454
15479W        W79423   7.211   5.754  12.342
15480W        W79424  31.539  21.541   1.759
15481W        W79425   1.885  33.544   1.838
15482W        W79426  30.912  24.556  13.423
15483W        W79427  39.385  16.275   3.809
15484W        W79428  42.827   1.361   4.649
15485W        W79429  38.019   8.847   1.862
15486W        W79430   6.348  24.059   2.865
15487W        W79431  31.618   6.829   0.441
15488W        W79432  13.670  22.701   3.647
15489W        W79433   4.727  22.099  14.297
15490W        W79434  44.910   2.448   2.284
15491W        W79435   4.365   9.761   3.224
15492W        W79436  15.641  32.977   0.830
15493W        W79437   3.299   4.216  14.828
15494W        W79438  39.523   8.267   1.272
15495W        W79439  25.555  24.592   1.445
15496W        W79440  12.261  29.466  13.454
15497W        W79441   8.355  12.800  13.519
15498W        W79442  26.090  11.695   2.278
15499W        W79443   6.235   0.967  11.921
15500W        W79444  31.607  11.344   1.429
15501W        W79445  14.708  28.678   4.215
15502W        W79446   1.384  20.616  14.821
15503W        W79447  19.692  17.198  12.991
15504W        W79448  26.989  25.625  14.984
15505W        W79449  26.691  36.948  12.555
15506W        W79450  28.143  31.566  11.894
15507W        W79451   6.815  13.237  13.964
15508W        W79452  21.582  19.098  12.481
15509W        W79453   2.797  24.547   4.197
15510W        W79454   2.386  26.662  13.366
15511W        W79455   7.264   2.874   3.635
15512W        W79456  31.636  10.770   0.744
15513W        W79457  32.898  36.976   1.380
15514W        W79458   0.353   5.369   1.297
15515W        W79459  11.214  27.622  13.014
15516W        W79460  31.477  13.609  10.456
15517W        W79461  25.097  21.529  12.838
15518W        W79462  21.169  43.885  13.308
15519W        W79463  43.504   8.854   3.197
15520W        W79464  33.501  25.088  11.025
15521W        W79465  32.494  40.378  13.041
15522W        W79466  10.722   9.209  10.534
15523W        W79467  36.072  18.725   3.297
15524W        W79468  32.453  13.808   0.740
15525W        W79469   6.193  31.519  13.461
15526W        W79470  27.109   0.393   2.358
15527W        W79471  41.881  21.019   3.363
15528W        W79472  33.996  30.988  12.565
15529W        W79473  16.640   8.899  14.353
15530W        W79474  43.853  30.504   3.368
15531W        W79475  30.441  27.501   1.929
15532W        W79476   8.882   0.452   4.633
15533W        W79477  21.127  41.793   1.230
15534W        W79478   7.843  17.202  13.318
15535W        W79479  10.376  33.430   3.818
15536W        W79480  30.125  26.615  11.953
15537W        W79481   2.826  10.198   4.179
15538W        W79482   3.294  26.961  12.528
15539W        W79483  17.127  35.077   4.802
15540W        W79484   7.327  31.950   2.695
15541W        W79485  44.881  38.396  12.037
15542W        W79486  20.030  31.014  12.065
15543W        W79487   7.209  14.703  14.910
15544W        W79488  31.496  43.879  11.611
15545W        W79489  21.591  26.140   4.802
15546W        W79490  42.293   5.812   1.355
15547W        W79491  15.696  27.050  12.357
15548W        W79492  31.546   8.235  13.493
15549W        W79493  36.979  28.561  12.885
15550W        W79494  27.591  44.855   1.838
15551W        W79495  27.521   7.790   4.140
15552W        W79496   1.285  38.936   4.659
15553W        W79497   7.384  32.628   5.139
15554W        W79498   3.765  38.453   3.709
15555W        W79499  26.542  29.500  12.397
15556W        W79500   2.867  11.653  12.983
15557W        W79501  29.131   2.933   0.409
15558W        W79502  10.672  27.021   1.326
15559W        W79503  42.317  33.913   3.227
15560W        W79504  11.754  28.566  11.462
15561W        W79505  16.173   3.747   4.274
15562W        W79506  13.256  27.105  12.496
15563W        W79507  12.748   3.294   9.951
15564W        W79508   5.830  18.636  13.830
15565W        W79509  24.688  41.987  12.347
15566W        W79510  36.502  43.439   0.254
15567W        W79511   3.305  31.012   3.744
15568W        W79512   4.312  24.192   1.391
15569W        W79513  31.622  15.258   1.811
15570W        W79514  20.270   9.741  13.462
15571W        W79515   7.861  25.470  12.918
15572W        W79516  11.316   4.347   1.768
15573W        W79517  24.542   0.255  10.564
15574W        W79518   7.750  28.014  14.405
15575W        W79519  32.519  33.458  13.981
15576W        W79520  42.784  30.473   0.276
15577W        W79521   0.276  16.752   4.603
15578W        W79522  15.115  14.247  13.850
15579W        W79523  24.008  39.545   4.820
15580W        W79524  19.557  36.966   3.662
15581W        W79525   4.322  14.787  12.011
15582W        W79526  43.374  33.564   4.225
15583W        W79527   6.182  21.018  14.960
15584W        W79528   6.738  17.207   1.749
15585W        W79529  12.239   9.758  14.491
15586W        W79530  26.578  42.288   1.843
15587W        W79531  11.229   1.448   4.269
15588W        W79532  43.306   9.862   1.791
15589W        W79533   1.785  42.325  13.893
15590W        W79534  25.115  20.183   0.794
15591W        W79535   8.272  34.538   1.757
15592W        W79536  41.845  42.375  11.462
15593W        W79537  26.520  17.761   1.321
15594W        W79538   8.891  43.497   0.866
15595W        W79539  22.632   0.350  11.049
15596W        W79540  31.567  40.327   1.315
15597W        W79541   1.375   4.214  12.856
15598W        W79542  14.194   2.253  10.144
15599W        W79543   2.443  22.626   0.848
15600W        W79544  14.307  19.656  13.998
15601W        W79545  40.812   3.355   9.923
15602W        W79546  24.984   1.753  14.334
15603W        W79547  24.632  32.421   3.311
15604W        W79548  38.395  36.399  13.061
15605W        W79549  30.463  10.208   9.960
15606W        W79550  16.702  41.375   3.733
15607W        W79551  36.397  31.478   0.411
15608W        W79552  23.613  37.419   4.616
15609W        W79553  30.000  35.907   4.245
15610W        W79554  21.599  23.072   1.880
15611W        W79555  25.477  36.411  11.435
15612W        W79556  19.096  32.523   0.243
15613W        W79557   6.801  35.366  11.079
15614W        W79558  28.116  13.204  13.964
15615W        W79559   1.828   8.842   4.838
15616W        W79560   2.908   5.391  12.382
15617W        W79561  27.194   5.429  12.466
15618W        W79562  40.521   6.702   4.656
15619W        W79563  13.170  42.989  13.377
15620W        W79564  11.796  44.939  13.837
15621W        W79565  40.408   0.404  13.937
15622W        W79566  22.729   2.297  11.949
15623W        W79567  44.970  18.656   1.759
15624W        W79568  13.228  43.893  11.469
15625W        W79569   8.244  25.517   3.318
15626W        W79570  41.476  20.702   1.917
15627W        W79571  20.637  36.089   1.267
15628W        W79572  34.049   5.313  10.639
15629W        W79573  34.990  38.869   0.809
15630W        W79574  27.171  27.564   2.202
15631W        W79575  31.083  12.813  10.915
15632W        W79576   2.230  43.930   2.343
15633W        W79577   5.766  25.584  14.418
15634W        W79578  22.012  17.790  14.496
15635W        W79579  18.574  44.908   4.757
15636W        W79580  18.224  24.130   0.747
15637W        W79581   9.789  16.108  14.385
15638W        W79582  30.598  36.842   4.238
15639W        W79583  39.371  38.364   0.952
15640W        W79584  29.119  36.942   3.739
15641W        W79585  22.172  16.181   4.779
15642W        W79586  14.787  13.269   3.751
15643W        W79587  35.094  42.862  11.006
15644W        W79588  23.601  35.033   2.237
15645W        W79589  34.999  30.032  12.538
15646W        W79590  18.210  18.605  12.431
15647W        W79591   2.866   3.841   0.285
15648W        W79592  36.051  21.736   1.935
15649W        W79593  26.654  29.130   1.386
15650W        W79594  31.512  17.638  12.872
15651W        W79595  29.925   3.776   0.328
15652W        W79596  27.108  33.067   3.659
15653W        W79597  43.320   7.294   1.364
15654W        W79598  32.916   2.440  11.442
15655W        W79599  36.554  42.973   0.903
15656W        W79600  30.585   9.351   1.363
15657W        W79601  19.267   5.344  12.457
15658W        W79602  36.579  11.142  11.002
15659W        W79603   0.399  12.118  10.570
15660W        W79604  21.517  37.047  12.343
15661W        W79605   9.853   8.812  12.533
15662W        W79606  30.464  29.595   2.679
15663W        W79607  13.179   2.247  12.437
15664W        W79608   8.346  19.064  14.888
15665W        W79609  31.953  28.989  14.009
15666W        W79610  36.862  19.640   1.224
15667W        W79611  17.648  29.466   2.186
15668W        W79612  39.394  12.753  11.964
15669W        W79613  44.914  22.668   0.810
15670W        W79614  24.098  18.550  13.367
15671W        W79615  13.602  27.109  12.082
15672W        W79616  25.051  16.093   0.940
15673W        W79617  36.558  12.160   1.283
15674W        W79618  41.496  42.008  10.586
15675W        W79619  37.033  36.437   4.202
15676W        W79620   8.773  27.949   5.734
15677W        W79621  22.586  19.224  13.854
15678W        W79622  17.790  32.114  11.559
15679W        W79623  41.813  13.218  10.915
15680W        W79624  37.078   5.261   3.671
15681W        W79625  33.122  15.641   2.747
15682W        W79626  34.569  31.402   0.874
15683W        W79627  16.790  18.086   0.308
15684W        W79628  11.241  24.679   3.172
15685W        W79629   0.866  34.965   0.887
15686W        W79630   1.422  24.089  14.433
15687W        W79631  22.061  31.552  12.551
15688W        W79632  29.439  18.286  12.068
15689W        W79633  28.160   7.186  14.880
15690W        W79634  14.781  20.223  14.807
15691W        W79635  18.275  16.691  14.771
15692W        W79636   8.381  44.474   0.933
15693W        W79637  18.666  31.034  10.983
15694W        W79638  36.939  13.648   0.959
15695W        W79639  21.608   3.396   3.661
15696W        W79640  34.473  27.142   1.787
15697W        W79641  22.691   8.365  11.473
15698W        W79642  25.168  22.635   1.832
15699W        W79643  40.930  34.489  14.878
15700W        W79644  19.271   9.671   4.220
15701W        W79645  23.036   5.342   3.337
15702W        W79646  26.471   7.250  14.989
15703W        W79647  26.527  33.041   9.972
15704W        W79648   8.778  12.792  11.438
15705W        W79649  15.812   5.201  11.907
15706W        W79650   8.370  37.453   3.846
15707W        W79651   6.349   8.711  11.559
15708W        W79652  30.154  25.120   1.211
15709W        W79653  38.024   8.858   0.934
15710W        W79654  36.011  24.108  14.987
15711W        W79655   4.253  26.464   0.355
15712W        W79656  21.168   9.653   2.719
15713W        W79657   6.852   6.272  12.926
15714W        W79658  30.015  29.149  12.531
15715W        W79659  40.536   9.357  11.422
15716W        W79660  41.039  41.533   1.790
15717W        W79661  23.137  44.280   2.384
15718W        W79662  34.010  30.495   3.677
15719W        W79663  15.577  29.123   5.176
15720W        W79664  35.398  30.024  14.455
15721W        W79665  36.028  13.845  11.919
15722W        W79666  19.242  42.420  11.097
15723W        W79667  23.691   3.830   0.773
15724W        W79668  39.966   9.213  10.415
15725W        W79669   5.923  41.376  12.567
15726W        W79670  42.874  23.112  12.009
15727W        W79671  12.227  11.370   4.200
15728W        W79672  33.387  24.514  14.835
15729W        W79673  39.351  31.079   2.781
15730W        W79674  40.004  20.557  11.129
15731W        W79675  16.292  36.450   0.919
15732W        W79676   9.728  39.057  13.927
15733W        W79677  39.906  21.554  13.847
15734W        W79678   0.781  32.556  13.923
15735W        W79679   2.757  28.524  14.845
15736W        W79680  43.963  11.309  11.585
15737W        W79681  32.932  34.087  10.465
15738W        W79682  18.213  40.871   4.186
15739W        W79683   0.403  23.217  11.925
15740W        W79684  18.270   6.740  10.607
15741W        W79685  16.221  15.205   4.700
15742W        W79686  25.103  42.514  14.902
15743W        W79687  35.024   0.888  10.552
15744W        W79688  17.738   8.288  11.899
15745W        W79689  33.927  26.635  10.894
15746W        W79690  21.687  35.879   5.088
15747W        W79691  10.140  13.690   1.215
15748W        W79692   7.848  13.768  10.557
15749W        W79693  11.364  19.165  13.927
15750W        W79694  28.951  18.180   0.482
15751W        W79695  18.699  40.530  13.796
15752W        W79696   0.480  39.896   4.654
15753W        W79697  41.524  29.606   4.224
15754W        W79698  29.546  17.729  11.996
15755W        W79699  13.675   0.301   1.867
15756W        W79700  15.753  22.714  10.438
15757W        W79701  16.135  13.167   1.355
15758W        W79702  21.713  35.385  11.441
15759W        W79703  12.792  32.133  14.991
15760W        W79704  22.121  40.938   3.637
15761W        W79705   4.233  10.182   1.213
15762W        W79706  18.760  32.431  12.004
15763W        W79707  20.232  19.063   2.340
15764W        W79708  30.647  16.142   3.693
15765W        W79709  40.959  16.105   2.820
15766W        W79710   3.906  42.387  14.003
15767W        W79711  25.100  40.820  13.908
15768W        W79712  29.079  33.531   0.269
15769W        W79713  31.086  44.313   2.872
15770W        W79714  11.237  28.649  13.856
15771W        W79715   3.728   9.748  11.046
15772W        W79716  29.057  27.008   1.399
15773W        W79717  35.063  27.503  11.057
15774W        W79718  23.197   4.406   4.604
15775W        W79719   7.672   6.369   0.422
15776W        W79720  19.241  32.629  11.060
15777W        W79721  11.230  41.917   4.789
15778W        W79722   8.303  15.732  10.915
15779W        W79723  38.001  25.684   2.400
15780W        W79724  30.997  16.715  12.971
15781W        W79725  22.538   5.921   3.719
15782W        W79726  34.580  10.718  12.365
15783W        W79727   0.406  30.433  12.891
15784W        W79728  14.732  13.150   2.367
15785W        W79729  39.829  37.542  11.969
15786W        W79730  27.487  21.203  10.977
15787W        W79731  12.298  23.241  11.997
15788W        W79732   2.936  44.270  13.972
15789W        W79733   8.265  12.842  12.978
15790W        W79734  44.495  40.540  12.424
15791W        W79735  43.397  32.968   2.303
15792W        W79736  44.930   3.758  10.441
15793W        W79737   8.201  21.140   2.727
15794W        W79738  23.629   4.364  14.018
15795W        W79739  18.239   4.768  13.992
15796W        W79740   8.379  41.027   4.183
15797W        W79741  34.001  38.849   0.282
15798W        W79742  42.922  36.510   0.763
15799W        W79743  12.276   9.653   3.773
15800W        W79744  34.931  20.655   4.181
15801W        W79745  24.642   5.834  14.288
15802W        W79746  21.691  31.562   0.834
15803W        W79747  16.111  26.665   2.802
15804W        W79748   3.280  13.812  10.993
15805W        W79749  10.747  36.973   3.360
15806W        W79750   0.943   5.213   1.321
15807W        W79751  37.546   6.261  13.850
15808W        W79752   3.340  39.050   4.805
15809W        W79753  42.883  28.084   0.906
15810W        W79754   9.243   0.357  11.570
15811W        W79755  39.885  13.308  12.448
15812W        W79756  20.257   3.326   4.211
15813W        W79757  27.452  35.907   3.650
15814W        W79758  12.123  27.544   4.278
15815W        W79759  15.110  31.946   1.830
15816W        W79760  22.653  21.244  11.898
15817W        W79761   9.343  37.894   3.747
15818W        W79762  11.693  36.397   0.248
15819W        W79763  32.114  28.991  10.579
15820W        W79764  44.419  41.955  14.883
15821W        W79765  11.854  16.701  11.524
15822W        W79766  27.177   2.424   2.267
15823W        W79767  44.866  40.535   3.721
15824W        W79768  14.183  15.630  14.836
15825W        W79769  20.193  38.568   2.255
15826W        W79770  36.508  24.992   1.888
15827W        W79771  24.503  19.533  12.477
15828W        W79772  12.749   0.401   1.766
15829W        W79773   9.384  24.489   1.359
15830W        W79774  21.148  43.994   4.328
15831W        W79775   2.743   2.729  11.877
15832W        W79776   9.282  10.242   4.800
15833W        W79777  42.499  24.484   4.689
15834W        W79778   9.836  39.976  14.842
15835W        W79779  27.140  41.323  14.848
15836W        W79780  21.571  19.273   4.694
15837W        W79781   4.297  29.645   0.298
15838W        W79782   2.388  44.269   0.863
15839W        W79783  11.163  39.345  13.000
15840W        W79784  10.306  38.557  10.489
15841W        W79785  36.093  44.287  14.381
15842W        W79786  28.126  24.008  14.836
15843W        W79787  34.986   1.302   4.828
15844W        W79788  37.062   8.840  14.400
15845W        W79789  34.597  33.975   0.899
15846W        W79790   8.670  21.756   0.937
15847W        W79791  13.311  29.134   1.921
15848W        W79792  36.367   0.921  10.446
15849W        W79793  40.884  43.919   1.359
15850W        W79794  24.105  25.063  11.127
15851W        W79795   4.374  40.979  14.487
15852W        W79796  31.515  14.733  14.829
15853W        W79797  24.717  20.190   2.731
15854W        W79798  38.966  31.130   2.249
15855W        W79799  21.585   4.860   3.673
15856W        W79800  19.064  31.445  13.992
15857W        W79801  35.599  24.610  12.906
15858W        W79802  24.069   7.794   3.292
15859W        W79803  37.845   7.888   3.768
15860W        W79804   7.223  21.187   4.282
15861W        W79805   5.751  23.535  14.876
15862W        W79806  18.069  23.210   4.708
15863W        W79807  29.069  32.891   3.751
15864W        W79808  37.942  11.815   2.683
15865W        W79809  40.516  13.156   4.796
15866W        W79810  44.853  39.997  14.856
15867W        W79811   1.914  31.018  10.480
15868W        W79812  28.064  15.200   0.422
15869W        W79813  20.170  16.593   0.336
15870W        W79814   0.872  29.961   2.892
15871W        W79815  21.219  16.259   3.796
15872W        W79816  10.763  43.333  10.579
15873W        W79817  29.531  41.964  11.898
15874W        W79818  11.665  41.787   0.457
15875W        W79819  41.929   5.242   5.167
15876W        W79820   6.768  25.031  12.550
15877W        W79821  17.666  20.566   2.316
15878W        W79822  20.125   5.810   3.317
15879W        W79823  12.799  35.408   4.756
15880W        W79824  39.387  40.823   1.932
15881W        W79825  24.144  41.412  13.948
15882W        W79826   4.350  16.287  11.977
15883W        W79827  16.745  34.391   4.824
15884W        W79828  23.195  37.858   4.148
15885W        W79829  16.647  37.539   5.119
15886W        W79830  22.616   2.287   2.880
15887W        W79831  42.431  34.060  14.922
15888W        W79832  23.130  32.461   3.773
15889W        W79833   5.874  33.389   4.655
15890W        W79834  36.996  38.415   1.897
15891W        W79835  43.989  10.663   2.811
15892W        W79836  13.279  27.957  12.495
15893W        W79837  30.072  44.831  14.447
15894W        W79838  22.602   5.317  13.515
15895W        W79839  38.357  21.752  10.991
15896W        W79840   7.772  24.050   4.233
15897W        W79841  41.301  22.600   0.734
15898W        W79842   1.878  34.865   4.300
15899W        W79843  28.949  28.111  14.779
15900W        W79844   7.294   2.432   0.283
15901W        W79845   3.241  27.012  13.887
15902W        W79846  33.052  12.775  14.997
15903W        W79847   3.774  36.899   2.397
15904W        W79848  30.625  28.012   5.173
15905W        W79849  34.961  27.575  13.890
15906W        W79850  32.537  27.186  11.028
15907W        W79851  30.012   4.243   2.213
15908W        W79852  21.248  15.236  10.573
15909W        W79853   6.700  42.520  12.397
15910W        W79854  18.166  37.373  13.488
15911W        W79855  18.664  42.897  13.922
15912W        W79856   0.865  27.135   4.114
15913W        W79857   1.255  38.373   0.831
15914W        W79858  41.389  12.751   0.786
15915W        W79859   0.955  12.732  10.633
15916W        W79860  36.098  21.706  11.936
15917W        W79861  44.966   0.752   2.305
15918W        W79862  30.909  17.797  12.040
15919W        W79863  16.155  33.564  12.029
15920W        W79864  23.109  15.325   3.841
15921W        W79865  29.131  25.966  14.014
15922W        W79866  33.944   9.813   4.319
15923W        W79867   1.778  40.546  12.963
15924W        W79868  25.520  15.278   0.295
15925W        W79869  20.222   7.215   9.656
15926W        W79870  27.126  22.169   1.772
15927W        W79871  13.799  39.524  14.450
15928W        W79872  10.189   1.845  14.296
15929W        W79873  22.665  19.281   3.335
15930W        W79874  23.203  27.004  13.372
15931W        W79875  13.108  23.529  12.968
15932W        W79876  28.457  31.951   4.267
15933W        W79877  26.049  29.122   1.880
15934W        W79878  41.976  16.579  13.307
15935W        W79879  19.541  12.749   2.235
15936W        W79880  35.561  19.640   3.197
15937W        W79881  43.483  15.685  14.345
15938W        W79882   0.984  36.377  12.020
15939W        W79883  42.497  17.098   0.864
15940W        W79884  40.001  21.724   1.415
15941W        W79885  14.744  21.154  14.822
15942W        W79886  23.100   8.319   1.865
15943W        W79887  41.477  32.906  11.101
15944W        W79888  30.944  19.251   1.703
15945W        W79889  24.684  24.695  14.301
15946W        W79890  23.132   8.784  14.987
15947W        W79891  16.694  28.035   2.856
15948W        W79892  44.784  17.758   3.712
15949W        W79893  15.728   3.955   3.798
15950W        W79894  41.840  11.846  12.841
15951W        W79895  10.771  35.008   1.260
15952W        W79896  12.753  44.420   0.876
15953W        W79897  27.109   6.739   2.317
15954W        W79898  39.313  29.579   2.707
15955W        W79899  27.499  12.712  12.957
15956W        W79900  38.405  11.312  12.484
15957W        W79901  11.746  31.961   3.660
15958W        W79902  14.632   6.918  13.471
15959W        W79903  20.665  25.562   2.733
15960W        W79904  15.227  22.506   1.851
15961W        W79905  16.701  14.816   0.867
15962W        W79906  26.989  36.353   0.361
15963W        W79907  41.519   4.878  10.500
15964W        W79908  17.615  16.237   3.169
15965W        W79909  32.556  33.996   2.899
15966W        W79910  22.693  17.235  14.380
15967W        W79911   5.795  30.988  11.499
15968W        W79912  30.480  10.201  10.955
15969W        W79913  23.546   7.387   4.827
15970W        W79914  28.463  21.729  14.766
15971W        W79915   8.289  40.526   4.227
15972W        W79916  19.545  28.613   2.210
15973W        W79917  38.363  11.677   2.794
15974W        W79918  37.514  35.568  13.496
15975W        W79919  39.053   7.183  12.408
15976W        W79920  36.905  29.981  11.115
15977W        W79921  35.914  12.844   2.404
15978W        W79922   4.718   4.708   4.271
15979W        W79923  11.337  30.042   2.718
15980W        W79924  33.100  38.833   3.364
15981W        W79925  34.970  27.061   2.861
15982W        W79926  42.441   9.237  12.355
15983W        W79927   9.210   2.307  10.978
15984W        W79928  32.068  21.043  13.311
15985W        W79929  23.504  19.180   1.719
15986W        W79930   8.700  13.713   4.145
15987W        W79931  12.631   8.368  11.108
15988W        W79932  19.041  30.579   5.179
15989W        W79933  24.152  27.005  11.399
15990W        W79934   2.841   8.695  14.380
15991W        W79935  29.002  35.452   1.827
15992W        W79936  31.511   9.816  12.429
15993W        W79937   8.374  25.008  11.446
15994W        W79938   1.279  30.961  12.001
15995W        W79939  35.853   8.834  10.922
15996W        W79940  43.390  20.213  12.088
15997W        W79941  15.265  17.760  14.978
15998W        W79942  44.008   3.319   4.820
15999W        W79943  22.601  38.890  11.466
16000W        W79944   2.820   6.870  13.012
16001W        W79945  28.553  23.632  13.394
16002W        W79946   6.807   4.892  12.504
16003W        W79947  31.152  23.683   1.790
16004W        W79948   3.263  10.664  11.566
16005W        W79949  42.030  29.537   4.797
16006W        W79950  16.717  27.025   2.792
16007W        W79951  32.533  33.449   4.814
16008W        W79952  27.073  16.715   4.323
16009W        W79953  32.990  32.553   2.399
16010W        W79954  24.694   7.311  12.050
16011W        W79955   6.800  34.454  12.082
16012W        W79956   8.698  32.400  12.833
16013W        W79957  18.656  22.628  13.454
16014W        W79958   5.369  33.382   4.667
16015W        W79959  32.507  30.150   0.943
16016W        W79960  32.064   7.879   4.234
16017W        W79961  40.526  10.702   3.773
16018W        W79962  10.637  34.385  13.018
16019W        W79963  18.240  24.157   5.639
16020W        W79964  10.646  37.929   2.748
16021W        W79965  32.469  17.206  10.442
16022W        W79966   4.817  11.815   2.193
16023W        W79967  23.523   7.187   0.923
16024W        W79968  34.941   3.931   1.219
16025W        W79969  44.497  44.933  13.042
16026W        W79970  17.573   6.252   0.754
16027W        W79971  21.252  11.174  12.502
16028W        W79972  17.742  29.600   4.764
16029W        W79973  42.423  22.693   3.244
16030W        W79974   3.227   5.779  13.875
16031W        W79975  28.960   5.780  14.505
16032W        W79976  37.880  33.953   1.696
16033W        W79977  23.717  19.554  12.009
16034W        W79978   0.955  41.294   5.297
16035W        W79979  10.636  19.697   0.933
16036W        W79980  22.667  10.794  13.360
16037W        W79981  39.513  30.630  10.632
16038W        W79982  25.200  33.973   3.639
16039W        W79983  24.049   7.390   1.716
16040W        W79984  37.070  14.155   1.399
16041W        W79985   5.884  24.091   1.426
16042W        W79986  21.075  43.481   2.359
16043W        W79987   1.450  10.649   4.182
16044W        W79988   9.183  37.850   4.127
16045W        W79989  35.015  42.923   2.276
16046W        W79990  28.972  43.371  10.949
16047W        W79991  22.665   7.878   1.244
16048W        W79992  32.533   9.343   3.281
16049W        W79993  14.690  33.023   2.901
16050W        W79994  14.122  14.835  10.488
16051W        W79995   7.774   2.319  10.589
16052W        W79996  40.846  25.150   2.347
16053W        W79997  41.794  14.284   5.148
16054W        W79998  20.730   5.868   4.302
16055W        W79999  12.155  37.884  12.880
16056W        W80000  23.494  44.820   0.812
16057W        W80001  10.241  41.826  13.347
16058W        W80002   0.330  37.522   3.860
16059W        W80003   6.736   6.340   0.927
16060W        W80004  19.629  22.159   1.833
16061W        W80005  29.667  15.780   2.745
16062W        W80006   5.689  33.981   4.149
16063W        W80007  28.528  10.796  11.487
16064W        W80008  13.751  21.567   1.824
16065W        W80009  24.563  26.701   1.363
16066W        W80010  15.287  38.843  13.981
16067W        W80011  13.107  33.435  13.036
16068W        W80012  12.152   2.297  14.460
16069W        W80013   3.772   1.815  12.938
16070W        W80014  10.792  23.520   3.252
16071W        W80015  26.981  21.648  10.914
16072W        W80016  17.645  11.274  13.499
16073W        W80017  28.010   5.933  10.409
16074W        W80018  44.326   6.216   1.302
16075W        W80019  20.130  26.505   3.721
16076W        W80020  11.738  19.048   4.683
16077W        W80021  32.493   7.689  12.858
16078W        W80022  11.865   1.251  12.037
16079W        W80023  28.025  26.479   3.371
16080W        W80024  23.019  27.543   0.768
16081W        W80025  22.631  11.659   4.643
16082W        W80026  22.091  12.203  12.831
16083W        W80027  21.264  22.029  10.449
16084W        W80028  44.853  30.525  12.497
16085W        W80029  10.192   6.771  13.051
16086W        W80030  28.044  23.570  11.581
16087W        W80031  10.280  26.993   0.841
16088W        W80032  32.064  10.252   4.607
16089W        W80033  14.686  12.214   3.831
16090W        W80034  17.727   6.684  12.544
16091W        W80035  39.844   7.230   0.400
16092W        W80036   3.932   7.677  11.471
16093W        W80037  20.687  40.324   1.312
16094W        W80038  22.587  15.811   1.781
16095W        W80039  30.451  39.374  11.109
16096W        W80040  21.751   8.374   2.793
16097W        W80041  44.395  36.404  11.967
16098W        W80042   7.835  28.651  10.159
16099W        W80043   4.711  22.687   2.770
16100W        W80044  40.333  18.285   4.248
16101W        W80045  31.046   6.317   0.935
16102W        W80046   1.421  28.560   2.780
16103W        W80047   6.319  20.685  12.960
16104W        W80048   4.211  38.930  12.955
16105W        W80049  13.254  19.124   2.697
16106W        W80050  35.475  42.298   3.759
16107W        W80051  22.167  14.131   2.208
16108W        W80052  33.621  15.790  13.363
16109W        W80053  18.601  20.582  14.871
16110W        W80054  12.854   2.265   0.309
16111W        W80055  35.509  37.862   2.180
16112W        W80056  13.662   2.880  13.891
16113W        W80057   3.882   4.388   3.647
16114W        W80058   4.912  36.884   0.889
16115W        W80059  28.663  18.288   5.257
16116W        W80060  25.525   0.481  10.483
16117W        W80061  19.053  42.353  11.557
16118W        W80062  36.905  22.239  13.933
16119W        W80063  25.549  16.197  14.947
16120W        W80064  36.517  26.194   2.806
16121W        W80065  22.568  35.526  13.313
16122W        W80066  35.378  15.319  11.493
16123W        W80067   6.347  40.398   4.282
16124W        W80068  40.947   8.360   3.812
16125W        W80069   0.387  31.502  11.965
16126W        W80070   3.928   5.394  10.907
16127W        W80071  30.054  19.607   2.670
16128W        W80072  17.144   7.825   2.872
16129W        W80073  40.866   7.171  14.398
16130W        W80074  34.480  22.095  11.041
16131W        W80075  29.110  43.008   0.439
16132W        W80076  37.449  10.282   5.263
16133W        W80077  20.632  37.428   1.235
16134W        W80078   3.286   1.312   0.453
16135W        W80079   4.212  11.719   2.744
16136W        W80080  24.142   0.796  12.342
16137W        W80081   5.838  29.943  12.840
16138W        W80082  23.195  22.998  12.073
16139W        W80083   8.322  40.896   3.698
16140W        W80084  42.472  41.460   4.641
16141W        W80085   1.353   5.292  11.567
16142W        W80086   1.402  31.512   1.911
16143W        W80087  14.266  32.060  11.955
16144W        W80088  24.655  12.185   4.280
16145W        W80089   0.375  28.587   2.255
16146W        W80090  15.758  29.064  12.471
16147W        W80091  36.400   7.727   0.386
16148W        W80092  40.003  21.538  13.328
16149W        W80093  16.574   9.311  13.023
16150W        W80094  13.830   1.421  10.555
16151W        W80095  27.067  24.093   1.401
16152W        W80096   5.766  16.219   1.450
16153W        W80097  42.365  24.601  13.915
16154W        W80098  15.603  38.873   4.670
16155W        W80099   4.422  25.074   1.790
16156W        W80100   9.826   6.762  11.540
16157W        W80101  32.926  30.910  11.933
16158W        W80102  13.798  15.625   1.387
16159W        W80103  42.322  39.411  10.440
16160W        W80104  11.758  43.398   3.646
16161W        W80105  26.117  22.230  10.563
16162W        W80106  31.009   0.344  10.491
16163W        W80107  38.844  37.946   4.125
16164W        W80108  18.164  33.881   2.408
16165W        W80109  14.809  11.706   1.794
16166W        W80110  15.680  26.620  12.963
16167W        W80111  33.081   9.652  10.635
16168W        W80112  38.002  10.296  11.983
16169W        W80113  11.743  19.567  12.824
16170W        W80114  13.172  31.939   5.252
16171W        W80115  16.165  37.942   3.340
16172W        W80116  40.027  31.511   2.868
16173W        W80117  28.524  30.507  13.394
16174W        W80118  41.905  30.646  11.580
16175W        W80119   5.849  17.067  12.461
16176W        W80120  33.919  42.780  14.985
16177W        W80121   1.851  34.066   2.900
16178W        W80122  12.768   3.298   1.226
16179W        W80123  21.724  14.264  13.888
16180W        W80124   6.917  19.646  13.905
16181W        W80125  25.655  15.715  11.088
16182W        W80126  36.865  14.698   3.855
16183W        W80127  44.299  16.225   3.269
16184W        W80128  25.983  18.706  14.364
16185W        W80129  24.998  32.433   1.315
16186W        W80130  20.198   5.217   3.160
16187W        W80131  14.258   0.298  11.540
16188W        W80132   7.332  13.623  10.424
16189W        W80133  14.161  23.988   1.268
16190W        W80134  27.549  18.703   4.761
16191W        W80135  20.271  34.375   1.867
16192W        W80136  20.746   7.256  12.864
16193W        W80137  38.509  35.417  13.911
16194W        W80138  33.053  35.954  13.935
16195W        W80139  27.649   6.423   3.216
16196W        W80140  16.736   4.788   1.305
16197W        W80141  34.036  27.568  12.381
16198W        W80142  36.445  19.060   0.397
16199W        W80143  24.504  25.699   2.327
16200W        W80144   3.360  42.491   3.232
16201W        W80145   0.412  38.013  12.059
16202W        W80146  18.771  37.419  11.940
16203W        W80147  17.270  36.523   1.267
16204W        W80148   7.880  36.873   4.314
16205W        W80149  41.474  22.623   3.681
16206W        W80150  32.042  39.427  13.529
16207W        W80151  43.999  27.115  11.949
16208W        W80152  40.443  37.513  10.975
16209W        W80153   4.439   1.305   3.325
16210W        W80154  27.976  44.274   1.935
16211W        W80155  33.495  14.622  12.437
16212W        W80156  13.775  42.880  10.510
16213W        W80157   3.285   1.432  13.327
16214W        W80158  42.396   7.674  11.872
16215W        W80159  17.140  11.853  11.113
16216W        W80160  12.682   9.287   1.242
16217W        W80161  18.214  42.404   4.237
16218W        W80162  39.378  44.910   3.204
16219W        W80163  31.574  42.011  12.446
16220W        W80164   0.874  38.034   2.681
16221W        W80165  25.550   7.241  14.373
16222W        W80166  41.362  31.511   3.195
16223W        W80167  16.675   4.310  13.831
16224W        W80168  38.923  28.552   2.827
16225W        W80169  43.965  43.913   1.739
16226W        W80170  15.168  25.187   4.219
16227W        W80171  30.022   7.794  14.844
16228W        W80172   8.205  38.956   0.453
16229W        W80173   2.852  31.629   4.296
16230W        W80174  19.108  26.466   0.735
16231W        W80175  35.931  20.690  10.464
16232W        W80176  24.087  36.483  12.992
16233W        W80177   1.308  18.573   1.852
16234W        W80178  25.147  32.569   2.241
16235W        W80179   4.769  44.772  11.887
16236W        W80180   0.955  41.515  11.866
16237W        W80181  25.041  10.181  13.039
16238W        W80182  34.439   4.388   2.662
16239W        W80183  22.180  25.562  14.842
16240W        W80184   4.221  25.532  14.004
16241W        W80185  40.856   6.193  13.406
16242W        W80186  30.463  28.019  13.398
16243W        W80187  36.843  13.306  13.021
16244W        W80188  39.050  40.979  13.053
16245W        W80189  29.125  31.425  13.956
16246W        W80190  13.273  22.681   2.212
16247W        W80191  11.329  16.116  12.356
16248W        W80192  32.042   7.893  12.933
16249W        W80193  17.070  36.570  13.026
16250W        W80194  21.740  37.407  11.428
16251W        W80195   6.195  15.622  12.503
16252W        W80196  33.051  34.038  12.410
16253W        W80197  11.811  39.323   9.944
16254W        W80198  33.480   0.752   1.375
16255W        W80199  34.566  15.661   4.199
16256W        W80200  42.787  22.196  13.023
16257W        W80201  16.777  14.276  12.015
16258W        W80202  31.903  18.611   0.831
16259W        W80203   0.944   0.958  10.411
16260W        W80204  25.999   9.852  12.550
16261W        W80205  25.178   4.865   3.673
16262W        W80206  29.966  11.688  14.346
16263W        W80207   9.252  13.662  12.397
16264W        W80208  41.868  36.513   3.869
16265W        W80209  24.535  43.320  11.424
16266W        W80210  32.431   1.308   1.303
16267W        W80211   2.753  37.449  12.340
16268W        W80212  10.233  28.130   2.268
16269W        W80213  28.085  18.718   3.852
16270W        W80214  37.447   6.846   4.732
16271W        W80215  28.661  27.530   4.276
16272W        W80216  43.951  40.987  12.549
16273W        W80217  21.540  41.427  14.030
16274W        W80218  43.924  24.162  13.331
16275W        W80219  23.678   5.370   4.632
16276W        W80220   7.354   5.830  11.976
16277W        W80221  13.792  32.061   2.725
16278W        W80222  33.470  41.355   5.125
16279W        W80223  35.534   1.260   1.300
16280W        W80224  32.886   8.672  12.919
16281W        W80225  19.563  11.258  11.856
16282W        W80226  20.132  37.955  11.021
16283W        W80227  31.033  38.965  14.354
16284W        W80228  29.437   2.745  14.464
16285W        W80229  43.429  28.556  11.037
16286W        W80230   8.867   0.418   1.881
16287W        W80231   9.885  13.717  13.476
16288W        W80232  38.458   1.370  13.794
16289W        W80233  37.032  17.613  11.560
16290W        W80234  31.541  29.065   1.813
16291W        W80235  14.822  13.280  11.885
16292W        W80236   5.842   8.246   0.260
16293W        W80237   1.761  40.498   0.463
16294W        W80238  39.530  39.922  13.496
16295W        W80239  15.600  31.951  10.487
16296W        W80240  21.030  37.471  14.910
16297W        W80241  42.016   2.239  11.506
16298W        W80242  27.122  30.448   2.380
16299W        W80243  28.063  36.873   3.675
16300W        W80244  41.368  36.995   4.716
16301W        W80245  42.474   0.403   4.137
16302W        W80246  11.171  32.477  12.836
16303W        W80247  15.743   1.462  13.457
16304W        W80248  33.575  44.333   3.368
16305W        W80249  33.033  44.313   1.847
16306W        W80250  35.056   6.699  12.064
16307W        W80251  41.988   2.355  12.027
16308W        W80252  14.215  43.306   4.268
16309W        W80253  20.682  22.514   2.197
16310W        W80254  23.609  18.072  14.398
16311W        W80255  13.675  12.772  13.426
16312W        W80256   3.855  18.639   4.125
16313W        W80257  25.512  38.866  14.492
16314W        W80258  20.710  16.261   0.363
16315W        W80259  24.028  40.317  10.037
16316W        W80260  42.830  15.670   0.296
16317W        W80261   2.966  26.092  12.423
16318W        W80262  35.002  11.799  13.512
16319W        W80263  38.544  21.657  13.947
16320W        W80264   0.903  19.084   4.177
16321W        W80265  25.633  28.462  13.964
16322W        W80266  24.659  41.907   1.232
16323W        W80267   9.217  14.096   5.805
16324W        W80268   8.346   1.469   2.338
16325W        W80269  23.061  34.613  14.423
16326W        W80270  17.685  26.969   1.232
16327W        W80271   8.842  22.623   2.725
16328W        W80272  25.610  40.536  13.544
16329W        W80273  24.150  15.697  14.510
16330W        W80274  39.477  25.122   1.823
16331W        W80275  28.095  15.150   0.937
16332W        W80276  41.866  42.984  12.403
16333W        W80277   7.404   1.299   0.931
16334W        W80278  11.176  23.221  13.365
16335W        W80279  28.139   4.744   5.234
16336W        W80280   5.226  19.229  13.447
16337W        W80281   8.327   7.711   3.163
16338W        W80282  28.137  37.006   3.151
16339W        W80283  23.706  34.452   3.689
16340W        W80284  38.003  10.777  14.904
16341W        W80285   8.829  44.445  13.526
16342W        W80286  32.916  16.680  13.496
16343W        W80287  16.607  25.056   4.146
16344W        W80288  20.139  19.585  14.412
16345W        W80289   0.949  37.912  11.119
16346W        W80290  31.039  18.222   4.328
16347W        W80291  19.060  24.021   3.272
16348W        W80292   3.405  11.276  14.500
16349W        W80293  28.065  41.404   1.399
16350W        W80294   0.415   3.790  11.379
16351W        W80295  25.498  39.036  11.046
16352W        W80296  27.180  28.031  11.079
16353W        W80297  17.741  21.699   4.114
16354W        W80298   6.804   6.308  14.463
16355W        W80299  14.258  29.498  13.040
16356W        W80300  19.755  41.351   3.810
16357W        W80301  24.039  13.227  12.086
16358W        W80302  36.854  32.978  12.014
16359W        W80303  33.091  43.843   2.844
16360W        W80304   5.193  16.106   0.326
16361W        W80305  29.946  17.161  11.604
16362W        W80306  13.119  23.147  11.917
16363W        W80307  13.301  41.444  13.863
16364W        W80308  13.285  37.375   9.936
16365W        W80309  41.334  26.115   1.740
16366W        W80310  33.581   2.936  13.896
16367W        W80311   7.714  20.084  12.096
16368W        W80312  10.180  42.831  13.462
16369W        W80313   4.244  29.451   3.206
16370W        W80314  29.983  43.293   1.301
16371W        W80315  36.550   9.267   0.885
16372W        W80316  33.007  14.324  12.995
16373W        W80317   2.765  29.587  14.439
16374W        W80318  26.645   5.369  13.823
16375W        W80319  14.601  36.961   1.750
16376W        W80320  41.413  23.994   5.305
16377W        W80321  14.637  12.627   4.795
16378W        W80322  16.808   2.252  12.376
16379W        W80323  28.136  37.341  14.304
16380W        W80324  15.120  18.207  14.461
16381W        W80325   0.960  18.159  12.342
16382W        W80326  41.431  33.424   2.227
16383W        W80327  17.685  10.280   0.301
16384W        W80328  42.983  26.147  14.001
16385W        W80329  30.929  40.447   5.110
16386W        W80330  40.306  19.268   0.245
16387W        W80331   7.321  31.978  11.410
16388W        W80332  44.348  14.140   1.832
16389W        W80333   0.312  31.600   1.326
16390W        W80334  31.032  25.514   4.690
16391W        W80335  25.129  11.817   5.186
16392W        W80336  19.074   6.244  12.469
16393W        W80337   4.226   7.802  12.516
16394W        W80338   2.299  25.667  12.381
16395W        W80339  27.607  18.236   9.513
16396W        W80340  37.345  16.263  11.087
16397W        W80341   2.750  13.637   0.746
16398W        W80342  44.298  41.421   3.234
16399W        W80343  40.899  42.283  10.947
16400W        W80344  20.241   1.950  11.100
16401W        W80345  31.513   1.752  10.404
16402W        W80346  22.599  32.136   4.319
16403W        W80347  44.274  42.824   0.788
16404W        W80348   6.245   3.710   0.347
16405W        W80349   2.456  10.245   2.215
16406W        W80350  31.457  24.671  13.889
16407W        W80351  37.914  21.688   3.339
16408W        W80352  16.701  38.929  13.915
16409W        W80353  10.792   6.197  11.941
16410W        W80354  19.106  20.142  10.500
16411W        W80355  21.583  31.980   3.373
16412W        W80356  44.854  38.975   1.779
16413W        W80357   6.359  20.193   1.707
16414W        W80358  38.976  36.509   2.195
16415W        W80359   6.764   0.894   2.386
16416W        W80360  38.042  16.219  11.562
16417W        W80361   6.239  14.686  10.457
16418W        W80362  39.389  29.072   1.283
16419W        W80363  39.454  29.918  11.420
16420W        W80364  30.063  19.685  12.407
16421W        W80365  21.632  24.009  12.440
16422W        W80366  21.511  21.120   2.252
16423W        W80367  13.304  42.366   2.819
16424W        W80368  25.572  42.891   2.231
16425W        W80369  14.768  22.016   4.277
16426W        W80370  18.777  13.343  13.436
16427W        W80371  40.488  24.074   4.176
16428W        W80372   5.277   8.301  11.107
16429W        W80373  28.443  36.358  14.410
16430W        W80374  35.985   6.877  14.427
16431W        W80375  13.348  21.227   1.818
16432W        W80376  32.431  23.651   3.220
16433W        W80377  19.750   7.694  14.929
16434W        W80378   9.805  44.427   0.318
16435W        W80379   2.234  30.577  13.948
16436W        W80380   8.241  43.426   2.677
16437W        W80381  11.846  21.704  13.534
16438W        W80382  24.661  11.706  13.890
16439W        W80383  33.073   8.838   2.751
16440W        W80384  18.282  44.949  10.939
16441W        W80385  30.570   0.969  14.367
16442W        W80386  10.255  13.796  14.395
16443W        W80387  31.468   3.721  11.462
16444W        W80388  31.151  18.117   1.907
16445W        W80389  33.990  37.907   0.859
16446W        W80390  37.569  37.561  13.515
16447W        W80391  34.477  31.046  14.409
16448W        W80392  13.226  29.612  13.516
16449W        W80393  37.496  22.597  13.486
16450W        W80394  32.076  36.929   5.247
16451W        W80395   6.698  27.137  13.992
16452W        W80396  42.431  18.641   3.362
16453W        W80397  31.566  19.200   4.742
16454W        W80398  41.492   7.764  12.903
16455W        W80399  11.720  19.056  12.905
16456W        W80400  38.532  14.309  11.925
16457W        W80401  41.342  18.068  10.896
16458W        W80402  21.055  29.643   3.837
16459W        W80403  42.457  13.811  10.964
16460W        W80404  26.030  15.104  11.887
16461W        W80405   1.832  12.269  12.989
16462W        W80406   7.760  25.654  11.562
16463W        W80407   3.272  40.311   2.224
16464W        W80408  40.922   9.248  13.339
16465W        W80409   2.365   0.275  12.831
16466W        W80410  34.497  29.975   0.805
16467W        W80411  42.430  15.126  12.353
16468W        W80412  21.658  20.711  11.089
16469W        W80413  25.521  43.976  14.336
16470W        W80414  33.418  21.750  14.025
16471W        W80415  42.840  43.824  12.844
16472W        W80416  35.896  41.514  12.529
16473W        W80417  31.976  20.205  13.430
16474W        W80418  15.737  41.402   4.131
16475W        W80419  29.605  17.781   0.404
16476W        W80420  19.217   8.404   0.404
16477W        W80421   5.781  19.080   1.382
16478W        W80422   0.296  21.108  14.935
16479W        W80423  36.507  18.104  14.426
16480W        W80424  16.318  15.589   3.869
16481W        W80425  44.909   0.357   3.638
16482W        W80426  24.575  17.082  11.020
16483W        W80427  13.346   9.870  14.442
16484W        W80428  16.266  37.885  14.863
16485W        W80429  18.690   3.934  13.459
16486W        W80430  23.515  43.419   4.332
16487W        W80431  13.327  37.027   1.284
16488W        W80432  39.830  15.106  14.853
16489W        W80433  28.482  10.646   2.281
16490W        W80434  38.031   6.313  11.500
16491W        W80435  18.708  24.625  13.019
16492W        W80436   4.212  12.358  11.470
16493W        W80437  34.974   1.848   2.882
16494W        W80438   9.238   8.310   3.170
16495W        W80439   5.197  27.611  10.473
16496W        W80440  44.403  36.031   9.955
16497W        W80441  29.569   8.241   3.271
16498W        W80442  32.020  34.066   4.812
16499W        W80443   7.845   0.438   0.453
16500W        W80444  18.136  27.150  11.376
16501W        W80445  23.572   1.397  13.042
16502W        W80446   0.368  18.784  12.852
16503W        W80447  38.869  13.114   4.754
16504W        W80448   2.959  44.285  12.923
16505W        W80449  22.198  30.650   4.770
16506W        W80450  34.034  16.110  11.972
16507W        W80451  41.502  34.923   2.271
16508W        W80452   3.237  17.123  13.498
16509W        W80453  14.795  41.405  13.938
16510W        W80454  21.638   6.212  13.927
16511W        W80455  39.817  38.825   1.935
16512W        W80456  36.382   1.451   4.143
16513W        W80457   3.954   7.735   9.967
16514W        W80458  38.347   1.322  10.944
16515W        W80459  34.400  16.646   0.916
16516W        W80460  40.974  35.029  11.912
16517W        W80461  16.754   3.793  11.510
16518W        W80462  18.684  44.407   5.206
16519W        W80463   9.158  32.907  10.922
16520W        W80464  14.242   8.181   1.700
16521W        W80465  12.689   7.884  12.856
16522W        W80466  30.132  14.240  13.426
16523W        W80467  35.473  35.990  12.369
16524W        W80468  13.270  32.436  13.340
16525W        W80469  12.219   4.265   0.429
16526W        W80470   4.913  38.510   2.276
16527W        W80471  43.001  41.875   4.328
16528W        W80472  39.549  43.863  12.912
16529W        W80473   8.165  29.046  14.852
16530W        W80474  34.025  17.230   2.210
16531W        W80475  41.414  39.490  14.824
16532W        W80476  17.245  16.806  11.974
16533W        W80477  28.523  36.538  14.929
16534W        W80478  39.509  17.577  12.971
16535W        W80479  38.847  17.125   3.764
16536W        W80480  20.756  14.185   1.236
16537W        W80481  37.946   4.790   1.262
16538W        W80482  30.531  40.026   1.265
16539W        W80483  30.071  17.572  13.990
16540W        W80484  44.311  12.299   1.359
16541W        W80485   6.279  10.190  14.363
16542W        W80486  18.781  12.197  12.062
16543W        W80487  27.492  35.944   4.639
16544W        W80488  26.972  26.007   4.818
16545W        W80489   6.328  35.370  13.036
16546W        W80490  23.664   5.205   0.826
16547W        W80491  27.595  26.598   2.391
16548W        W80492  23.221  24.511  14.415
16549W        W80493   8.846   3.304  12.414
16550W        W80494  43.420  36.045  10.555
16551W        W80495  13.626  40.529  14.802
16552W        W80496  23.160  17.784  10.635
16553W        W80497  42.991  25.608  13.389
16554W        W80498   6.288   5.793   4.700
16555W        W80499  15.255  10.243   3.146
16556W        W80500  42.946   5.776   2.230
16557W        W80501  38.395  42.869   0.468
16558W        W80502  11.791  18.071  10.999
16559W        W80503   2.311  34.975   2.351
16560W        W80504   7.253  42.511   3.312
16561W        W80505  16.161  38.988  11.402
16562W        W80506  32.075  15.703   3.325
16563W        W80507  20.176  37.552  10.939
16564W        W80508  40.384  22.059   4.624
16565W        W80509  17.262  35.036  11.548
16566W        W80510  17.668  15.592  12.059
16567W        W80511  25.631  31.546   0.806
16568W        W80512  15.145  34.984  14.515
16569W        W80513   8.234  28.072   1.928
16570W        W80514  39.054  13.738   4.675
16571W        W80515  12.616  42.350   1.725
16572W        W80516   3.454  44.755  10.472
16573W        W80517  39.332  28.530   1.423
16574W        W80518  11.269  16.592  11.936
16575W        W80519  11.247   3.329  11.494
16576W        W80520  20.699  30.536  11.508
16577W        W80521  43.973  26.532   2.745
16578W        W80522   1.282  27.602   1.218
16579W        W80523  42.013  25.205  13.931
16580W        W80524  32.959   1.956  13.032
16581W        W80525   6.372   4.896  12.832
16582W        W80526  41.912  20.534  10.597
16583W        W80527  17.601  26.080  13.032
16584W        W80528  17.673   6.232   2.327
16585W        W80529  38.907  31.534   1.889
16586W        W80530  36.480  27.615  13.522
16587W        W80531  31.144  26.520  13.490
16588W        W80532  15.807  35.464   0.788
16589W        W80533  20.563  31.407   4.692
16590W        W80534  23.096  44.354   0.787
16591W        W80535  30.159  15.086  14.478
16592W        W80536   7.342  15.118  14.924
16593W        W80537  41.015  27.464  10.903
16594W        W80538  36.014  11.351  14.364
16595W        W80539   9.775   5.395  11.373
16596W        W80540  27.038  28.169   3.276
16597W        W80541   4.804  12.810  13.050
16598W        W80542  44.919  37.430  12.981
16599W        W80543  22.702  22.011  11.120
16600W        W80544   5.877  18.584  11.396
16601W        W80545  14.270  20.551  10.510
16602W        W80546  25.543   0.402   2.403
16603W        W80547  35.572  23.595   1.823
16604W        W80548   0.300  10.157   1.405
16605W        W80549  32.615   1.252   2.829
16606W        W80550  11.322  27.471   4.345
16607W        W80551  16.769  42.407   2.700
16608W        W80552  41.840  25.541   1.795
16609W        W80553   7.249   6.831   3.861
16610W        W80554  19.166  31.983   4.670
16611W        W80555  25.629  34.012  13.797
16612W        W80556  12.352  42.881  11.556
16613W        W80557  35.907  24.536  14.846
16614W        W80558  36.892  19.593  11.991
16615W        W80559  33.052  24.511  12.569
16616W        W80560  20.131  15.289  13.901
16617W        W80561   1.861  28.060  11.488
16618W        W80562  26.632  23.153  12.885
16619W        W80563  28.995  35.925  10.642
16620W        W80564  13.261   0.307  11.890
16621W        W80565   5.727  39.429   0.839
16622W        W80566   7.202  37.066  10.405
16623W        W80567  24.143  23.547   4.227
16624W        W80568  24.649  27.592   2.401
16625W        W80569  44.757  20.056  10.913
16626W        W80570  11.721  23.495   2.326
16627W        W80571  23.735  11.233  13.381
16628W        W80572  44.761   7.334  12.478
16629W        W80573  15.284  19.129   3.168
16630W        W80574  18.692   4.754  13.383
16631W        W80575  13.257  29.565  11.470
16632W        W80576  35.888  21.634   4.338
16633W        W80577  25.194  33.621  14.322
16634W        W80578  14.761  29.651   1.847
16635W        W80579  28.605  15.217   2.268
16636W        W80580  31.069  37.966  11.045
16637W        W80581  43.399  29.515  11.969
16638W        W80582  38.938   6.353   3.182
16639W        W80583  12.262  44.284   4.166
16640W        W80584  22.546  43.429  10.928
16641W        W80585  21.710  27.028   0.292
16642W        W80586  16.079   4.941   4.237
16643W        W80587  10.748  16.687  12.932
16644W        W80588  44.807   6.879  10.560
16645W        W80589   3.748  27.189  10.954
16646W        W80590  42.401   3.375   2.680
16647W        W80591  17.196  12.222  14.984
16648W        W80592  24.029  10.359  11.011
16649W        W80593   0.436   4.447  14.512
16650W        W80594  23.031   3.259   0.396
16651W        W80595  11.140  38.405   4.752
16652W        W80596  44.326   5.730  11.560
16653W        W80597  26.577   3.348   9.959
16654W        W80598  21.687  31.588  12.409
16655W        W80599   4.401  39.386  12.051
16656W        W80600  26.122  33.006   2.867
16657W        W80601   5.800  19.730  13.022
16658W        W80602  17.724  42.304  10.422
16659W        W80603  11.234  13.748  10.953
16660W        W80604   2.450  30.643  13.321
16661W        W80605  42.289  44.826  12.383
16662W        W80606   4.836  42.478  11.055
16663W        W80607  39.018   1.434  14.300
16664W        W80608  42.482  43.404   3.263
16665W        W80609   7.394   3.718  13.441
16666W        W80610  25.110  36.900   2.775
16667W        W80611  43.009  35.947  14.423
16668W        W80612  16.763   4.852  12.380
16669W        W80613  33.111  39.372  13.953
16670W        W80614  32.914   6.781   0.780
16671W        W80615  11.301  38.439  13.993
16672W        W80616  23.572  29.033  13.334
16673W        W80617  12.799  33.405  11.568
16674W        W80618   7.882  33.571   2.726
16675W        W80619  44.274  18.613  11.087
16676W        W80620  11.744  26.572  13.948
16677W        W80621  14.622   0.389   4.207
16678W        W80622  37.935   0.320  11.891
16679W        W80623  35.438  41.791  11.581
16680W        W80624  21.095  28.435  11.413
16681W        W80625  39.437  38.518  13.816
16682W        W80626   1.358  44.894  13.821
16683W        W80627   0.743  11.264   4.665
16684W        W80628   9.305  40.508   4.680
16685W        W80629  21.624  15.681   4.306
16686W        W80630  35.900  24.199   3.792
16687W        W80631   9.170  11.177  13.011
16688W        W80632  11.235  15.600   3.641
16689W        W80633   1.459   9.707  13.883
16690W        W80634  43.424  16.794   0.441
16691W        W80635  37.424  34.990  12.895
16692W        W80636  43.859  13.789  14.298
16693W        W80637   6.219  23.175   3.245
16694W        W80638   8.214  13.121   3.830
16695W        W80639   3.314   9.212   4.739
16696W        W80640   6.284  43.785  13.977
16697W        W80641   4.305   9.302   3.856
16698W        W80642  22.522   4.288   2.278
16699W        W80643   9.185   8.899   1.450
16700W        W80644  37.053  26.142   0.304
16701W        W80645   1.920  12.610  13.525
16702W        W80646  11.672  15.765   1.797
16703W        W80647  12.856  33.130   3.367
16704W        W80648  32.129  41.041   4.298
16705W        W80649   0.852  29.175   3.800
16706W        W80650  34.054   3.785  11.090
16707W        W80651  34.980  14.158   3.751
16708W        W80652   5.793  15.787  11.432
16709W        W80653  11.337   8.827   0.844
16710W        W80654  23.997  31.413  14.420
16711W        W80655  25.713  26.968  10.549
16712W        W80656   4.916   2.841   4.245
16713W        W80657  29.149  20.540   3.326
16714W        W80658  30.490   0.880  13.972
16715W        W80659  20.628  10.780   1.726
16716W        W80660  43.335  27.141   3.379
16717W        W80661   9.839  25.495  12.382
16718W        W80662  18.622   1.804   4.808
16719W        W80663   1.736  40.517   4.827
16720W        W80664  38.443  44.402  10.953
16721W        W80665   1.814  28.983  13.333
16722W        W80666  35.410  29.625   3.864
16723W        W80667   5.892  35.060   2.280
16724W        W80668   4.357  42.384   2.733
16725W        W80669  13.224  12.303  13.319
16726W        W80670  28.000  42.499   3.857
16727W        W80671  44.933  44.807   4.308
16728W        W80672  34.603  23.717  11.107
16729W        W80673  10.205  28.130  14.448
16730W        W80674   1.754  35.413  10.593
16731W        W80675  28.052   1.300  10.440
16732W        W80676   3.781   8.383   4.802
16733W        W80677  40.363  22.028   1.926
16734W        W80678  12.232  41.328  14.360
16735W        W80679  37.872  14.210  14.424
16736W        W80680   3.813   9.326   2.788
16737W        W80681  30.035  14.326  12.383
16738W        W80682  41.807  16.091   0.909
16739W        W80683  22.028  43.508  10.595
16740W        W80684  20.758  18.154  14.985
16741W        W80685  34.373  44.799   0.739
16742W        W80686   9.239  32.510   2.803
16743W        W80687  13.772   9.801  14.485
16744W        W80688  16.568   9.182  12.460
16745W        W80689  39.343  40.513  13.482
16746W        W80690   4.337   7.678  14.928
16747W        W80691  16.269  33.945  13.023
16748W        W80692  25.679  33.431   0.793
16749W        W80693  27.529   3.793   1.260
16750W        W80694  29.657  26.521  12.973
16751W        W80695   7.173  10.283   0.278
16752W        W80696  27.962  43.822   2.705
16753W        W80697  11.840   2.423   1.935
16754W        W80698   4.226  44.958   1.720
16755W        W80699  29.485   6.362   1.231
16756W        W80700  11.795   1.819   4.733
16757W        W80701  30.913  21.246   9.976
16758W        W80702  28.964  14.671  12.832
16759W        W80703  40.049   2.412  11.606
16760W        W80704  28.134  23.107   3.259
16761W        W80705  29.536  36.992  13.332
16762W        W80706  33.101  14.689   1.871
16763W        W80707  33.576  41.876  12.491
16764W        W80708  36.542  10.671   3.709
16765W        W80709  43.846  20.570   1.306
16766W        W80710  39.475  27.629  11.031
16767W        W80711  12.237  31.985   0.294
16768W        W80712  36.076   3.241   1.250
16769W        W80713  43.819   2.459  11.858
16770W        W80714  11.188  12.140  13.053
16771W        W80715  37.465  11.186  10.564
16772W        W80716  38.380   8.856   4.230
16773W        W80717  31.084  23.154   3.744
16774W        W80718  21.650  18.184  10.928
16775W        W80719  37.530  20.581  11.483
16776W        W80720   7.304  34.980  13.906
16777W        W80721  19.111  42.396   0.396
16778W        W80722  25.195  28.598  13.885
16779W        W80723  37.936  40.038  12.444
16780W        W80724  44.813  13.646  12.983
16781W        W80725   2.848   8.296   0.812
16782W        W80726  17.088  29.144   2.770
16783W        W80727   5.745  10.829  12.524
16784W        W80728   1.893  36.931  14.279
16785W        W80729  24.658  23.612   3.847
16786W        W80730  30.431  38.827  11.547
16787W        W80731  11.838  18.229   4.286
16788W        W80732  44.998   1.266   2.803
16789W        W80733  11.703  38.953  13.516
16790W        W80734  20.539  23.570   2.889
16791W        W80735  44.806  24.522  14.029
16792W        W80736  18.252  16.138   2.297
16793W        W80737  37.029  13.163  10.637
16794W        W80738  11.170  21.651  13.795
16795W        W80739  37.849  25.213   5.104
16796W        W80740  33.951  27.481   3.808
16797W        W80741  41.445  23.004  13.852
16798W        W80742  29.144  11.766   1.392
16799W        W80743  13.322  16.594  10.591
16800W        W80744  33.018  36.894   0.756
16801W        W80745   9.659  26.069   3.645
16802W        W80746  43.298  32.486   4.340
16803W        W80747   8.742  26.494   0.387
16804W        W80748  11.697  17.118   3.186
16805W        W80749  42.869  17.663   1.932
16806W        W80750  27.128  11.354   1.378
16807W        W80751  20.578   4.284  14.819
16808W        W80752  12.781  38.950  10.493
16809W        W80753  37.572   1.339  12.904
16810W        W80754  15.203  13.616  14.023
16811W        W80755   4.942  15.114  11.913
16812W        W80756  35.022   3.365  10.045
16813W        W80757   7.222  38.926   4.665
16814W        W80758   2.875  36.387  11.398
16815W        W80759   6.378  30.151   5.201
16816W        W80760  25.211  10.218  11.608
16817W        W80761  29.074   5.414  11.578
16818W        W80762  27.187  26.155  13.927
16819W        W80763  19.045  37.454  12.090
16820W        W80764  12.276   0.394   3.707
16821W        W80765   1.904  39.844  13.000
16822W        W80766  26.125  21.695   0.467
16823W        W80767  23.685  22.209   0.254
16824W        W80768  41.339   1.917   2.696
16825W        W80769  17.683  35.932   1.252
16826W        W80770  27.030  33.013  13.927
16827W        W80771  20.584   4.388   1.833
16828W        W80772  36.850  30.476  14.935
16829W        W80773  18.718  33.084  10.938
16830W        W80774   6.245   7.704   0.920
16831W        W80775  20.601  41.460   4.641
16832W        W80776  33.960  11.221  11.575
16833W        W80777  17.128   2.871  12.078
16834W        W80778  44.862  37.342  11.595
16835W        W80779   4.872  34.443   0.393
16836W        W80780  25.595  17.600  11.932
16837W        W80781   4.341  33.575   2.834
16838W        W80782   0.373  22.096   4.790
16839W        W80783   9.674   0.955  11.561
16840W        W80784   7.261  38.550   2.249
16841W        W80785  31.417  27.183  13.530
16842W        W80786  28.089   4.790  13.360
16843W        W80787   7.383  19.578  14.411
16844W        W80788  38.836   7.736   5.611
16845W        W80789  18.707  38.914   2.853
16846W        W80790  39.364   0.861   1.270
16847W        W80791  12.164  40.827   3.671
16848W        W80792  36.508  15.766  13.926
16849W        W80793   4.902  11.169  11.537
16850W        W80794   6.191  31.943   3.243
16851W        W80795   2.433  11.623   2.871
16852W        W80796  12.640  33.420   9.923
16853W        W80797  24.055  36.066  13.023
16854W        W80798  12.673  33.553   4.658
16855W        W80799   9.662  18.240   0.465
16856W        W80800  14.705   8.232   3.764
16857W        W80801  35.582  14.750   4.172
16858W        W80802  22.530  19.614  11.512
16859W        W80803  18.290  21.070   4.706
16860W        W80804  34.578   7.768   0.877
16861W        W80805  28.055  39.924  13.313
16862W        W80806  31.952  15.163  13.971
16863W        W80807   7.177  32.916  11.945
16864W        W80808   3.932  32.615   2.857
16865W        W80809  22.621  12.627  10.996
16866W        W80810   9.827  13.827   5.095
16867W        W80811  33.128  40.966   3.369
16868W        W80812  14.796  27.110  11.969
16869W        W80813  16.076  23.613  13.057
16870W        W80814  16.075  12.813   0.465
16871W        W80815  22.181  17.666   4.666
16872W        W80816  21.037  21.516  12.071
16873W        W80817  13.745   1.279   1.821
16874W        W80818   3.300  25.179  12.937
16875W        W80819  16.226   8.798   9.955
16876W        W80820   5.227  12.679   0.798
16877W        W80821  23.688  39.347  13.474
16878W        W80822  17.730  22.535   3.671
16879W        W80823  33.963   2.467  14.474
16880W        W80824  12.156  37.849  11.559
16881W        W80825  36.856   8.704  11.423
16882W        W80826   2.362  18.672   4.124
16883W        W80827  31.108   9.681  10.490
16884W        W80828   1.965  35.582  13.471
16885W        W80829  41.953  18.628   1.386
16886W        W80830  11.328  38.509  13.360
16887W        W80831  26.201  14.819  14.922
16888W        W80832  41.021   4.781   0.461
16889W        W80833   3.243  10.875   2.832
16890W        W80834  29.126   9.742   0.781
16891W        W80835  41.392  19.765   3.375
16892W        W80836   6.300  19.608  10.610
16893W        W80837  10.760   7.891   3.168
16894W        W80838   5.330  27.943  12.904
16895W        W80839  41.848  41.800   3.153
16896W        W80840   4.280  29.096  10.968
16897W        W80841  22.685  16.813  10.404
16898W        W80842  24.664  25.614  10.503
16899W        W80843  38.853  14.265  14.965
16900W        W80844   9.833  30.927   4.251
16901W        W80845  14.134  40.898   0.796
16902W        W80846  35.014  20.138   2.875
16903W        W80847  30.651  22.210  14.992
16904W        W80848   3.724  27.687   0.464
16905W        W80849  44.797  44.290  12.948
16906W        W80850  37.940   5.270   4.286
16907W        W80851  18.690   0.792   1.430
16908W        W80852  11.205  15.744  13.322
16909W        W80853  37.443  40.877   4.829
16910W        W80854  32.929  25.015   3.655
16911W        W80855  26.524  37.908  14.775
16912W        W80856  33.420  27.133  14.877
16913W        W80857  36.885  11.302   0.448
16914W        W80858  40.390   9.758  11.428
16915W        W80859  25.158   8.700  10.005
16916W        W80860   4.831   3.841  11.129
16917W        W80861   9.150   1.898   0.379
16918W        W80862  14.749   2.340  13.994
16919W        W80863   4.320  29.471  12.368
16920W        W80864  27.580  44.820   2.379
16921W        W80865  26.614  21.720   1.400
16922W        W80866  37.843   5.323   2.687
16923W        W80867  41.355  25.100  12.851
16924W        W80868  12.141  18.741  11.601
16925W        W80869  37.077  24.668   0.401
16926W        W80870  22.644  40.011   4.759
16927W        W80871   6.343  35.077   3.293
16928W        W80872  38.509  19.573   4.661
16929W        W80873   4.828  35.082   4.832
16930W        W80874  14.818  36.940   0.434
16931W        W80875  36.430  11.214   3.357
16932W        W80876   2.735  34.964   4.218
16933W        W80877  22.573  38.831   4.353
16934W        W80878  10.694  44.911  14.801
16935W        W80879  41.313   5.896  13.814
16936W        W80880  42.344  29.938   1.806
16937W        W80881   8.714  35.366  14.969
16938W        W80882  20.628  39.951  11.390
16939W        W80883  33.436  44.378  14.789
16940W        W80884  44.407  23.100   0.895
16941W        W80885  18.107   0.465  14.366
16942W        W80886  41.930   7.255   1.712
16943W        W80887   0.788  33.474   5.218
16944W        W80888   3.891  44.843   1.412
16945W        W80889   0.475   9.874  10.603
16946W        W80890  44.444   3.242  10.562
16947W        W80891   7.321  20.671  11.884
16948W        W80892   7.321  42.284  14.453
16949W        W80893  28.547  23.046   1.241
16950W        W80894  34.898  10.204  10.439
16951W        W80895  21.548  19.698   0.921
16952W        W80896   3.346  44.003  11.547
16953W        W80897  13.187  44.302   3.780
16954W        W80898  21.203   8.768  11.525
16955W        W80899   2.755  42.945   3.186
16956W        W80900  14.644  29.125  10.409
16957W        W80901  26.148   2.391  13.343
16958W        W80902  41.916  32.134   0.916
16959W        W80903  30.939  36.054  13.364
16960W        W80904  37.523   5.782   4.308
16961W        W80905  28.937  18.692   2.731
16962W        W80906  40.994   6.764   1.335
16963W        W80907  38.007   2.248   0.942
16964W        W80908  12.615   3.377  14.026
16965W        W80909  39.345  28.057  14.934
16966W        W80910   4.944  16.748  14.927
16967W        W80911  22.033  16.072  14.028
16968W        W80912   2.753  43.443  13.543
16969W        W80913  18.634   5.932   2.840
16970W        W80914   7.207   9.675   0.305
16971W        W80915   7.301  14.223   0.478
16972W        W80916  38.025   3.891  13.475
16973W        W80917  40.835  27.685   1.737
16974W        W80918   8.379  26.175  14.967
16975W        W80919  34.612   3.834  13.315
16976W        W80920   0.823  39.360   4.228
16977W        W80921  18.546  17.572  14.356
16978W        W80922  10.703   5.865   4.260
16979W        W80923  27.548  25.609  13.398
16980W        W80924  42.306  43.954  12.064
16981W        W80925  17.110  40.880   0.270
16982W        W80926  21.606  44.933   2.342
16983W        W80927   5.281  21.526   2.334
16984W        W80928   6.762  14.273  13.010
16985W        W80929  11.671  36.088  11.528
16986W        W80930  16.803  31.557   0.864
16987W        W80931  31.648   8.249   3.804
16988W        W80932  36.421  30.141   4.597
16989W        W80933  11.722   6.189   4.831
16990W        W80934  11.823  12.673   4.808
16991W        W80935  21.583   5.810  11.373
16992W        W80936  24.520  38.041   4.780
16993W        W80937  12.317  22.584   3.225
16994W        W80938  21.673  14.103   4.146
16995W        W80939  35.029   8.733   1.288
16996W        W80940  29.137  38.876   4.634
16997W        W80941   2.390  12.276  10.624
16998W        W80942  31.572  17.254  14.903
16999W        W80943  10.331  29.068   0.405
17000W        W80944  27.481  14.169   4.342
17001W        W80945  38.365   1.354  14.308
17002W        W80946   8.190  13.141   3.247
17003W        W80947  18.644   2.419  11.948
17004W        W80948  24.115  44.896  12.894
17005W        W80949   7.205  23.603  14.486
17006W        W80950  12.190   2.308  11.933
17007W        W80951  26.555  43.873   0.375
17008W        W80952  12.757   5.831  12.084
17009W        W80953   1.262   3.404  11.896
17010W        W80954  13.234   4.426   4.633
17011W        W80955  14.727  23.627  12.547
17012W        W80956  44.331  37.079  14.020
17013W        W80957  38.024  37.076   3.344
17014W        W80958  15.100  39.819   0.311
17015W        W80959   1.337  18.143  14.450
17016W        W80960  37.425  10.745   3.147
17017W        W80961  11.228  36.489  14.458
17018W        W80962  37.355   0.793   5.204
17019W        W80963  34.528  22.658  11.413
17020W        W80964   2.322  22.018  11.091
17021W        W80965  15.621  32.563   0.750
17022W        W80966  13.676   3.907  13.389
17023W        W80967  25.636  20.688   1.297
17024W        W80968  29.068  22.541  10.605
17025W        W80969  42.806  39.023   3.284
17026W        W80970   3.729  27.126  12.003
17027W        W80971  37.394  42.776  11.403
17028W        W80972  11.225   4.914   4.819
17029W        W80973  13.251  44.864   4.793
17030W        W80974  40.992  29.135   3.833
17031W        W80975  17.596  18.751   0.878
17032W        W80976   5.874  34.983  10.515
17033W        W80977  40.454   1.777   4.776
17034W        W80978  24.708  28.490   3.169
17035W        W80979   1.461  43.466  11.459
17036W        W80980  37.482  44.291  14.777
17037W        W80981   3.845  13.686  11.118
17038W        W80982  36.932  32.012   1.435
17039W        W80983  35.456  11.371   2.895
17040W        W80984   5.756   1.257   3.363
17041W        W80985  27.505  25.186   1.916
17042W        W80986  21.567  23.130  11.526
17043W        W80987   7.901   8.892  14.390
17044W        W80988  12.249  13.641  14.305
17045W        W80989  32.506  15.322  11.922
17046W        W80990  40.449  39.893   1.712
17047W        W80991  19.265  35.440   3.707
17048W        W80992  15.707  34.066   5.246
17049W        W80993  37.886   2.854   0.921
17050W        W80994   9.716   7.898   0.367
17051W        W80995  14.781   7.760   4.137
17052W        W80996  27.187  44.769   1.345
17053W        W80997  18.597  11.327   1.883
17054W        W80998   7.734  18.568   1.294
17055W        W80999  23.005  25.057   0.466
17056W        W81000  17.583  20.563  10.446
17057W        W81001  13.668  28.165  11.026
17058W        W81002  19.748  21.099   1.342
17059W        W81003   7.752  43.997   3.847
17060W        W81004  31.596  25.479  11.099
17061W        W81005  27.028  31.635  12.921
17062W        W81006  30.001   5.837  10.567
17063W        W81007  14.305  18.621  10.574
17064W        W81008  32.094   2.386   3.848
17065W        W81009   1.960  26.626  14.338
17066W        W81010  22.643  28.545   1.726
17067W        W81011  35.943  14.263   3.735
17068W        W81012  36.375  22.513   1.430
17069W        W81013  25.176  30.536  10.499
17070W        W81014  23.201  35.488   2.877
17071W        W81015  36.893  41.971   4.651
17072W        W81016  44.285  27.085   2.889
17073W        W81017  33.396   7.232   2.228
17074W        W81018   8.737  17.259   5.690
17075W        W81019  35.372  17.556  12.351
17076W        W81020   1.305  44.384   0.818
17077W        W81021  20.563  14.824  11.372
17078W        W81022   0.320  31.070  11.110
17079W        W81023  31.646  29.572  14.449
17080W        W81024   6.893   9.826  11.046
17081W        W81025  40.347  34.060   0.322
17082W        W81026  40.380  35.910  14.903
17083W        W81027  26.473  18.626   3.223
17084W        W81028  42.361   4.721   2.331
17085W        W81029  17.580  39.820  11.858
17086W        W81030   5.360  37.836   4.156
17087W        W81031   5.211  37.012  12.569
17088W        W81032   7.763   8.762  10.928
17089W        W81033  40.371  33.609   0.934
17090W        W81034  34.041  30.501  13.845
17091W        W81035   1.474  40.863  12.917
17092W        W81036   5.797  14.097   4.693
17093W        W81037   6.271  21.041  10.924
17094W        W81038  33.563   9.882  11.887
17095W        W81039   7.797  36.531   5.138
17096W        W81040   7.339  37.517  10.584
17097W        W81041  22.717  28.677  14.919
17098W        W81042  10.754  33.001   2.793
17099W        W81043   8.719  37.899   0.752
17100W        W81044  14.195  14.743   1.257
17101W        W81045  37.030  32.025  10.543
17102W        W81046   9.205  36.500   4.174
17103W        W81047   4.908   0.787   3.351
17104W        W81048   8.710   1.381   3.733
17105W        W81049  19.666   5.227   3.169
17106W        W81050  21.583   5.251  10.929
17107W        W81051   5.782  21.017   1.250
17108W        W81052  42.402  27.569  11.374
17109W        W81053  41.397  43.855   3.276
17110W        W81054  40.017  23.527   3.782
17111W        W81055  26.164  37.530   0.876
17112W        W81056   4.321  20.583  12.394
17113W        W81057   5.234  34.957  11.512
17114W        W81058  40.822   7.341  14.799
17115W        W81059  21.025  20.527  11.501
17116W        W81060  22.181  21.555  14.807
17117W        W81061  11.847   2.309   2.784
17118W        W81062  13.777   5.809   3.160
17119W        W81063  38.981  30.528  11.867
17120W        W81064  37.398  23.029   2.400
17121W        W81065   5.400  22.665  12.060
17122W        W81066  20.747  33.028  10.534
17123W        W81067  29.126  21.114   4.742
17124W        W81068  35.088  26.562  11.006
17125W        W81069  11.768  18.560  14.487
17126W        W81070  36.978  41.354   3.381
17127W        W81071  33.486  44.945  10.143
17128W        W81072   4.433  32.500  14.364
17129W        W81073  44.316  14.171   5.216
17130W        W81074  15.083  20.587  14.287
17131W        W81075  39.510  44.441   4.682
17132W        W81076   0.487  30.419   3.220
17133W        W81077  40.448  19.105   4.680
17134W        W81078  43.805  24.544  14.027
17135W        W81079  40.900   0.838  12.072
17136W        W81080   6.355  40.336   2.834
17137W        W81081  11.317   2.406  10.421
17138W        W81082   5.930  31.931   3.822
17139W        W81083  37.963   8.216  13.349
17140W        W81084  17.672  11.762   1.852
17141W        W81085   9.732  41.042  12.019
17142W        W81086  12.701  41.523   4.656
17143W        W81087   0.828  22.573   1.337
17144W        W81088  37.579  41.032   3.868
17145W        W81089  10.808  27.630   1.446
17146W        W81090  14.735  41.349   2.190
17147W        W81091  11.799  35.501   2.687
17148W        W81092  11.203  41.888  14.931
17149W        W81093   4.216  17.148  12.016
17150W        W81094  17.190  14.643  14.915
17151W        W81095   6.320  26.126   0.270
17152W        W81096   4.432   5.217   9.984
17153W        W81097  25.181  35.566  12.088
17154W        W81098   9.336   0.828  10.999
17155W        W81099  36.433  40.311   5.268
17156W        W81100  38.048  27.596  14.282
17157W        W81101  43.392  16.304  10.903
17158W        W81102  35.852  19.100  10.939
17159W        W81103   9.280  28.638   4.757
17160W        W81104  10.253   5.745  10.000
17161W        W81105   8.766  27.654  12.077
17162W        W81106   7.282  42.382   1.809
17163W        W81107   1.956  22.191  14.286
17164W        W81108   8.876  33.044  14.438
17165W        W81109   1.297  15.697   4.250
17166W        W81110  40.506  43.809  10.566
17167W        W81111  44.360  13.662  12.053
17168W        W81112  28.954   9.156  11.448
17169W        W81113  10.258  28.946  13.542
17170W        W81114   1.402  19.719   1.843
17171W        W81115  21.104   5.774   3.171
17172W        W81116   6.681   6.794  12.868
17173W        W81117  41.411  36.469  11.564
17174W        W81118  26.599  31.110  11.508
17175W        W81119  33.515   8.708   3.637
17176W        W81120  10.744   0.271   0.262
17177W        W81121   6.312  26.107   3.221
17178W        W81122  32.438  34.391   0.727
17179W        W81123  14.169  40.547   0.739
17180W        W81124  37.936  30.937   1.251
17181W        W81125  36.488  38.498   0.414
17182W        W81126  36.872  44.798  13.486
17183W        W81127  38.875  27.615   1.424
17184W        W81128  10.297  37.846   3.757
17185W        W81129  16.766  27.590  13.336
17186W        W81130  31.137   1.772  13.339
17187W        W81131  34.971  38.068  10.526
17188W        W81132  39.871  39.451   2.224
17189W        W81133  11.658   5.760   4.273
17190W        W81134  23.998  36.907   1.426
17191W        W81135  24.663  16.606  10.921
17192W        W81136  32.008  10.766  12.507
17193W        W81137  15.748  22.158   0.853
17194W        W81138  23.636  34.560   3.373
17195W        W81139   8.266  13.665   1.400
17196W        W81140  19.646  18.126   4.129
17197W        W81141  18.112  23.623  10.932
17198W        W81142  39.320  34.382  14.828
17199W        W81143  40.337  27.081  12.908
17200W        W81144  31.150  26.083  12.092
17201W        W81145   8.764   0.988  12.085
17202W        W81146  22.515  16.811  12.553
17203W        W81147   6.695  10.357   4.152
17204W        W81148  31.578  22.194  14.297
17205W        W81149  35.388   3.327  14.387
17206W        W81150   3.294  15.144  12.859
17207W        W81151   2.293  24.618  13.053
17208W        W81152  40.449   7.840  11.433
17209W        W81153  33.389  33.395  11.013
17210W        W81154   2.770   1.266   3.656
17211W        W81155  11.669  19.085   1.808
17212W        W81156   2.881  36.540   2.891
17213W        W81157  23.619   6.227  11.023
17214W        W81158  42.015  14.646  12.917
17215W        W81159  31.487  35.452   3.800
17216W        W81160  40.820  43.982  12.879
17217W        W81161  35.402   1.299   3.704
17218W        W81162  22.507  39.824  13.947
17219W        W81163  16.209  21.068   0.890
17220W        W81164   3.429  18.237   2.901
17221W        W81165  18.113  14.697  13.840
17222W        W81166   4.847  39.884   4.771
17223W        W81167   2.946  35.425  14.867
17224W        W81168  34.063  31.132   2.259
17225W        W81169  15.283  16.080  12.097
17226W        W81170   0.317  23.226   0.909
17227W        W81171  13.627  19.146   2.343
17228W        W81172  23.600  10.339  12.447
17229W        W81173  44.321  36.415   2.822
17230W        W81174  32.960  23.557  11.558
17231W        W81175  19.546  14.794   3.734
17232W        W81176  20.054  41.496   3.838
17233W        W81177  38.366  20.746   1.284
17234W        W81178   5.808   9.757  12.886
17235W        W81179  25.485  14.681   3.148
17236W        W81180  33.482  24.216   5.140
17237W        W81181   1.408  33.541   2.282
17238W        W81182  33.577  33.585   9.945
17239W        W81183  35.544  32.414  13.948
17240W        W81184  14.165  20.254   1.438
17241W        W81185   0.904  33.608  13.824
17242W        W81186  21.751   1.410   3.273
17243W        W81187  41.378   9.320  13.450
17244W        W81188  31.129   5.817   4.301
17245W        W81189  35.049   2.401  10.908
17246W        W81190  20.250  42.906  11.036
17247W        W81191  27.980   8.191  12.076
17248W        W81192  27.521  22.145   1.850
17249W        W81193  43.353  16.647   2.815
17250W        W81194  38.885  21.729  10.899
17251W        W81195  19.611  32.040  13.542
17252W        W81196  42.364  22.728  11.979
17253W        W81197  37.913  43.315  13.322
17254W        W81198  12.723   8.871   1.714
17255W        W81199  36.027  43.362   3.246
17256W        W81200  30.500  29.635   0.425
17257W        W81201  25.999  33.401  12.845
17258W        W81202   3.326  27.574   2.681
17259W        W81203   9.710  31.606  13.307
17260W        W81204  22.720  36.579  12.538
17261W        W81205  15.157  38.877  12.559
17262W        W81206  30.050  31.550   3.174
17263W        W81207   9.325  26.181  14.352
17264W        W81208  27.548  30.913   1.270
17265W        W81209  15.204  26.075  10.905
17266W        W81210  22.628  13.655   1.307
17267W        W81211   7.728  35.435  12.366
17268W        W81212  24.061  18.706  12.432
17269W        W81213  43.485  33.049   3.760
17270W        W81214  11.338  28.661   5.096
17271W        W81215  40.393  34.461  13.057
17272W        W81216  36.935   3.895  13.059
17273W        W81217  10.712  37.529  12.468
17274W        W81218  23.170  19.707  14.418
17275W        W81219  41.814   4.310   0.370
17276W        W81220  43.397  31.043   3.731
17277W        W81221  33.929   1.944  13.056
17278W        W81222  26.522  11.166  10.993
17279W        W81223  36.366  38.867  11.519
17280W        W81224  23.123   3.904   4.690
17281W        W81225  30.026  31.053   1.757
17282W        W81226  30.493  41.018  13.352
17283W        W81227  35.855  35.399   2.294
17284W        W81228  13.748  35.034   2.250
17285W        W81229  22.685   6.300   2.811
17286W        W81230   1.240  42.301  14.857
17287W        W81231  17.569  39.417   3.239
17288W        W81232  32.904  13.219  12.945
17289W        W81233   8.277  18.113   2.728
17290W        W81234   4.361  29.427  13.925
17291W        W81235  40.526  29.646   4.796
17292W        W81236  34.964   6.863  14.770
17293W        W81237  31.091  35.441  13.865
17294W        W81238  32.945  13.600   1.360
17295W        W81239  37.922  20.133  12.385
17296W        W81240  39.894  18.226  10.451
17297W        W81241  18.690  32.608   4.714
17298W        W81242   2.283  13.834   0.932
17299W        W81243  28.548   7.823  13.813
17300W        W81244   6.417  18.727   3.353
17301W        W81245   8.377   1.781  11.035
17302W        W81246  44.359   8.685  10.043
17303W        W81247   5.880  16.783   2.813
17304W        W81248  35.357  18.110   1.725
17305W        W81249   8.729  24.659  10.580
17306W        W81250   1.800   8.273  13.971
17307W        W81251  36.908   3.834  14.498
17308W        W81252  19.217  23.187   1.816
17309W        W81253  26.524  18.244   5.163
17310W        W81254  27.024  35.502   4.239
17311W        W81255  22.532  18.264  11.415
17312W        W81256  35.545   0.907  11.471
17313W        W81257  38.344  27.950  13.996
17314W        W81258  43.477  34.590  11.580
17315W        W81259  43.973  44.282   3.268
17316W        W81260   8.665  38.439   4.643
17317W        W81261  16.101  21.561   3.338
17318W        W81262  35.439  24.043   1.699
17319W        W81263  26.609  25.570  13.500
17320W        W81264  22.512   6.900  14.461
17321W        W81265   6.205  29.538  10.584
17322W        W81266   9.650  23.991  11.992
17323W        W81267  29.547  32.634   4.122
17324W        W81268  26.520  36.547  12.468
17325W        W81269  16.691  14.133   4.791
17326W        W81270   0.407   0.328   2.394
17327W        W81271  28.994  36.460  13.877
17328W        W81272  20.071   5.847   9.975
17329W        W81273   8.238  41.464  13.024
17330W        W81274  15.162  35.407   1.721
17331W        W81275  14.143  43.382   1.777
17332W        W81276  42.293  40.024   4.748
17333W        W81277  31.950  23.161  10.525
17334W        W81278   0.964  14.094   5.179
17335W        W81279   4.929   5.706  14.515
17336W        W81280   6.317   9.668  12.983
17337W        W81281   5.777   7.904  13.891
17338W        W81282  17.591  43.947  14.762
17339W        W81283   4.444  24.174  11.956
17340W        W81284  15.782   3.336   3.199
17341W        W81285  18.128   9.861   5.579
17342W        W81286   1.976  44.808  12.035
17343W        W81287   5.745  17.120  13.817
17344W        W81288   4.381  28.055   4.181
17345W        W81289  13.267  29.569  14.785
17346W        W81290  36.526  15.098  12.381
17347W        W81291   7.843   4.942  10.448
17348W        W81292  42.390  18.103  13.916
17349W        W81293  17.219  32.522   1.427
17350W        W81294  42.906  34.947  12.016
17351W        W81295  43.803  33.516   3.192
17352W        W81296  19.674  30.980  13.793
17353W        W81297  36.909  27.647   0.303
17354W        W81298  43.826  11.346   1.277
17355W        W81299  38.417  30.970   4.784
17356W        W81300  26.663   4.809   3.177
17357W        W81301   4.397  24.174  10.486
17358W        W81302  16.657  22.071   2.847
17359W        W81303  10.876  12.235   4.308
17360W        W81304  43.932  29.462   0.326
17361W        W81305  42.349  31.440   2.363
17362W        W81306  42.852  31.026  12.877
17363W        W81307  14.685   5.303   3.255
17364W        W81308   2.735   3.901  14.950
17365W        W81309  44.817   6.218   4.293
17366W        W81310  23.624  12.265   4.318
17367W        W81311  35.975   5.250  13.836
17368W        W81312  19.249  23.133   3.167
17369W        W81313  42.908  16.713  10.608
17370W        W81314  20.035  41.895  13.804
17371W        W81315  40.374  30.493  13.519
17372W        W81316  11.859  19.131  13.875
17373W        W81317  20.134   5.743  13.800
17374W        W81318  22.573  22.562  13.919
17375W        W81319  16.609  13.240  14.289
17376W        W81320  13.193  22.686  13.052
17377W        W81321  16.772  37.500  12.840
17378W        W81322  36.843  37.973   3.831
17379W        W81323  21.584  31.974   1.890
17380W        W81324  23.617  18.067  13.327
17381W        W81325   1.326  26.969   0.383
17382W        W81326  42.795  37.075  14.758
17383W        W81327  43.452  24.623  14.312
17384W        W81328  34.107  16.097  14.275
17385W        W81329   7.394  16.159  12.495
17386W        W81330  24.181  38.839   0.827
17387W        W81331   0.383  41.425   0.726
17388W        W81332  32.031  22.115  14.488
17389W        W81333  17.706  22.705  13.876
17390W        W81334  32.582  23.528  13.995
17391W        W81335   2.234  40.947   3.648
17392W        W81336  16.708  30.956  11.407
17393W        W81337   8.671  27.014  11.001
17394W        W81338   6.901  30.539  11.540
17395W        W81339   5.361  27.485   4.692
17396W        W81340   3.405  15.160   0.265
17397W        W81341  34.116  24.180   3.252
17398W        W81342  37.955  12.356  11.596
17399W        W81343   5.358   5.744   3.822
17400W        W81344  25.083  39.026   1.327
17401W        W81345  12.201  25.970  11.105
17402W        W81346   0.384  36.557   1.397
17403W        W81347  28.513  41.935   4.717
17404W        W81348   9.308  30.596   9.456
17405W        W81349  32.068  32.942  12.380
17406W        W81350   1.324  33.419   3.867
17407W        W81351   1.842   9.657  10.998
17408W        W81352  24.507   4.821   2.816
17409W        W81353  11.653  22.619  12.050
17410W        W81354  38.985   3.297   2.669
17411W        W81355   6.813  25.676  10.554
17412W        W81356   2.230  21.736   0.452
17413W        W81357  38.325  22.643  13.877
17414W        W81358  36.036  19.600   1.779
17415W        W81359  27.159  22.069  13.917
17416W        W81360  17.665  31.613   1.851
17417W        W81361  42.526  19.534  11.575
17418W        W81362  14.112  44.848   3.826
17419W        W81363  24.635   8.194   3.376
17420W        W81364  25.124  10.699  11.484
17421W        W81365  13.111  42.990   4.219
17422W        W81366   5.753  21.198   3.694
17423W        W81367   0.938   4.759   4.767
17424W        W81368  40.509  38.823   9.994
17425W        W81369  20.101  22.620  11.891
17426W        W81370   9.852   4.790   3.181
17427W        W81371  19.063  14.265  12.362
17428W        W81372  15.140  29.085  10.944
17429W        W81373   3.425   7.808  13.010
17430W        W81374  44.755  20.745  12.980
17431W        W81375  22.560   3.789   3.219
17432W        W81376  35.369  14.710  12.502
17433W        W81377  16.139   8.379  11.937
17434W        W81378  28.089   4.708  11.386
17435W        W81379   1.769  31.953  13.465
17436W        W81380  38.889   4.764  14.882
17437W        W81381  19.270   7.334   2.803
17438W        W81382   5.789  37.466  14.970
17439W        W81383  43.321  42.846   1.403
17440W        W81384  16.263  37.909   0.274
17441W        W81385  17.657  26.152  13.797
17442W        W81386   4.207  10.832   3.708
17443W        W81387   9.299  41.460  14.921
17444W        W81388  27.514  28.656  12.095
17445W        W81389  34.383  26.011  12.834
17446W        W81390  28.032   8.670   0.272
17447W        W81391  20.740  36.397   0.346
17448W        W81392   3.309  31.029  14.424
17449W        W81393   5.394  19.723   4.679
17450W        W81394  30.462  39.909   3.830
17451W        W81395  42.470  43.962  14.306
17452W        W81396   8.354  27.666   1.756
17453W        W81397  24.513  22.211  10.516
17454W        W81398  37.381   5.353  14.886
17455W        W81399   8.750  13.206   0.932
17456W        W81400  34.999  12.124   4.629
17457W        W81401  11.695   0.853   0.851
17458W        W81402  12.145   8.339  13.981
17459W        W81403  34.932  20.586  10.618
17460W        W81404  39.536  31.053  10.638
17461W        W81405  15.117  38.859   0.242
17462W        W81406  23.122  42.343   0.457
17463W        W81407  25.018  23.507  14.394
17464W        W81408  27.638  18.258   1.259
17465W        W81409  36.589  37.924  11.980
17466W        W81410   7.759  19.724  14.859
17467W        W81411   5.216  29.589   3.714
17468W        W81412  26.016  14.260   2.406
17469W        W81413  21.167   5.355  13.835
17470W        W81414   1.301  13.691  14.409
17471W        W81415  39.967  25.119   3.774
17472W        W81416   5.815  30.137   5.578
17473W        W81417  14.612  31.565   3.661
17474W        W81418  40.530  28.534   3.156
17475W        W81419  22.743  31.105  14.773
17476W        W81420  11.693  18.269   2.283
17477W        W81421  29.458  16.153  12.040
17478W        W81422   9.365  13.279   3.745
17479W        W81423  38.998  33.077  14.915
17480W        W81424  31.503   2.258  13.394
17481W        W81425  29.452   8.812  13.958
17482W        W81426  44.782  17.599  11.997
17483W        W81427   5.739  34.985  11.013
17484W        W81428   9.786   6.764  13.982
17485W        W81429  18.136  12.157   4.668
17486W        W81430  41.892  16.675   4.688
17487W        W81431   4.207  25.670  13.385
17488W        W81432  44.001  16.136  12.843
17489W        W81433  11.167  15.093   4.316
17490W        W81434  29.445  42.989  14.354
17491W        W81435  18.209  21.583  14.466
17492W        W81436  22.585  27.969  10.475
17493W        W81437   9.380  23.103  13.484
17494W        W81438  36.902  30.539  12.966
17495W        W81439  16.769   8.164   3.843
17496W        W81440  27.490  22.683   4.225
17497W        W81441  26.982   1.894   4.129
17498W        W81442  19.609  30.445   3.275
17499W        W81443   6.183  35.483  11.031
17500W        W81444   6.816  11.342   4.669
17501W        W81445  17.172   0.253  12.509
17502W        W81446  44.478  34.578   2.896
17503W        W81447  27.631  11.295   4.641
17504W        W81448   1.281  12.128   1.720
17505W        W81449  41.016  12.699   1.865
17506W        W81450  33.120  33.986  12.956
17507W        W81451  43.975  41.796  10.563
17508W        W81452  23.503  33.586   3.796
17509W        W81453   8.895   6.879  11.855
17510W        W81454  36.518  12.297  11.485
17511W        W81455  31.074  38.875  10.993
17512W        W81456  26.197   3.887  12.973
17513W        W81457  43.349   8.739  11.427
17514W        W81458  40.839  24.714   2.685
17515W        W81459  34.035  25.030  11.935
17516W        W81460  14.684  33.955   9.660
17517W        W81461   2.360  21.121   3.232
17518W        W81462  39.340  30.121   3.335
17519W        W81463  28.438  44.985   4.318
17520W        W81464  27.670  38.978  13.870
17521W        W81465   4.920  16.283  13.338
17522W        W81466  29.488   0.935  13.792
17523W        W81467   3.943   1.891   1.881
17524W        W81468  23.151  27.453  10.533
17525W        W81469  39.511  11.205   1.342
17526W        W81470  23.706  42.496   0.740
17527W        W81471   2.252  15.325   3.681
17528W        W81472  33.131   1.400   2.717
17529W        W81473  14.680  32.098   2.386
17530W        W81474  34.537  38.406   3.683
17531W        W81475  38.346  12.286   2.305
17532W        W81476  32.485  15.166   0.770
17533W        W81477  29.918  35.032  12.509
17534W        W81478   3.456   3.848   1.910
17535W        W81479  42.377  38.360  12.382
17536W        W81480  27.987  37.347  12.414
17537W        W81481  42.398  13.139   4.750
17538W        W81482  11.700  26.681  14.278
17539W        W81483  36.993  14.833  12.921
17540W        W81484  26.650  16.667  13.398
17541W        W81485  33.589  38.897   5.146
17542W        W81486  29.066   6.330   0.817
17543W        W81487   5.859  41.349  11.946
17544W        W81488  31.970  27.963   1.413
17545W        W81489  25.576  39.507   2.306
17546W        W81490  16.713  15.214   4.307
17547W        W81491   0.980  17.745   3.729
17548W        W81492  29.050  17.131   2.379
17549W        W81493  28.655  42.502   2.236
17550W        W81494  24.194  35.956  14.465
17551W        W81495  22.577  21.068   2.684
17552W        W81496  32.452   0.334   0.747
17553W        W81497  42.991  32.140   1.419
17554W        W81498  29.529  21.091  14.370
17555W        W81499  36.398  31.988  14.395
17556W        W81500   7.385  35.547  13.313
17557W        W81501  25.593  10.706   4.831
17558W        W81502  38.490  25.471   0.464
17559W        W81503  40.970  29.145  13.994
17560W        W81504  19.208  16.627  10.979
17561W        W81505  20.746  32.621  12.424
17562W        W81506  36.030   9.302   2.672
17563W        W81507   8.706  36.570   4.350
17564W        W81508  33.480   9.359   2.202
17565W        W81509  11.359  37.501   2.228
17566W        W81510   3.252  37.954  13.956
17567W        W81511  14.165  22.709   0.897
17568W        W81512  25.599  44.823  14.298
17569W        W81513   6.849  13.173  12.064
17570W        W81514  28.610  42.022   2.668
17571W        W81515   9.306   7.668   1.308
17572W        W81516   8.692  29.549   1.410
17573W        W81517  38.435  20.113  11.591
17574W        W81518  26.693  26.508  14.020
17575W        W81519   4.437  38.355  12.461
17576W        W81520   8.697  23.029  12.954
17577W        W81521  25.617  30.653  12.073
17578W        W81522  19.215  23.666   0.880
17579W        W81523  23.726  41.440  14.849
17580W        W81524  37.984  16.300  12.862
17581W        W81525   1.294  19.041  11.532
17582W        W81526  17.153   6.916  14.854
17583W        W81527  44.937  24.571  10.625
17584W        W81528   0.831   3.351  12.525
17585W        W81529  16.221  18.287  13.928
17586W        W81530  26.078  19.157  13.045
17587W        W81531  37.875  30.653  14.993
17588W        W81532  32.047  14.300   1.256
17589W        W81533  27.682  13.608  11.408
17590W        W81534  38.973   6.195   5.113
17591W        W81535  40.930  13.809  12.358
17592W        W81536   3.718  23.497  14.350
17593W        W81537  11.197  40.820   1.243
17594W        W81538  19.283   8.718   2.761
17595W        W81539   3.350  37.481   3.819
17596W        W81540  39.856  20.541   4.817
17597W        W81541  36.361   8.164  12.572
17598W        W81542  22.200  19.537   4.335
17599W        W81543  36.461   2.466  11.897
17600W        W81544   5.725  29.639   3.755
17601W        W81545  35.421  43.373  10.532
17602W        W81546  14.727  38.919  13.527
17603W        W81547  41.028  37.489   0.349
17604W        W81548  22.627   9.335   2.870
17605W        W81549  16.303  44.260   2.178
17606W        W81550  22.546  20.551  14.873
17607W        W81551   6.290   4.445  12.089
17608W        W81552  32.514  40.037  10.106
17609W        W81553  11.146  27.498  10.934
17610W        W81554  21.144  41.961   2.698
17611W        W81555  42.022  17.072   2.826
17612W        W81556  18.642  30.657  13.423
17613W        W81557  11.205  14.211  14.919
17614W        W81558  15.603  30.041   5.275
17615W        W81559  42.388   3.885   4.794
17616W        W81560  19.207  41.393   4.284
17617W        W81561  17.745  17.218   2.882
17618W        W81562   4.778  11.634   5.251
17619W        W81563  28.654  34.039  12.419
17620W        W81564  17.691  40.041   1.285
17621W        W81565  27.100   9.349   1.450
17622W        W81566  17.700  44.353  12.539
17623W        W81567  34.599  10.287  12.499
17624W        W81568  28.952  13.810   0.269
17625W        W81569   0.807  27.161  10.611
17626W        W81570  42.376   3.435   3.653
17627W        W81571   3.839  30.514   5.213
17628W        W81572  35.037  11.731  14.842
17629W        W81573  13.827  39.515   1.752
17630W        W81574  20.234  27.953  14.423
17631W        W81575  17.260  12.173   2.203
17632W        W81576  24.000   6.375   0.899
17633W        W81577  42.884  13.601   4.735
17634W        W81578   6.322   6.383  13.438
17635W        W81579  39.969   4.890   3.793
17636W        W81580   6.829   4.725  11.966
17637W        W81581  12.812  44.848  10.154
17638W        W81582  33.067  11.698  14.402
17639W        W81583  43.277  20.180  14.894
17640W        W81584  30.626  16.082   3.305
17641W        W81585  24.987  29.533  12.945
17642W        W81586  10.309   7.680  14.990
17643W        W81587   7.321   8.309  10.902
17644W        W81588  18.744  21.170   4.824
17645W        W81589  15.231  25.028  12.540
17646W        W81590  29.029  28.174   4.257
17647W        W81591  23.136  36.549   4.762
17648W        W81592  33.959  17.208  13.028
17649W        W81593  42.913  33.544   1.845
17650W        W81594  32.466  18.269  13.545
17651W        W81595  43.018   7.330   1.416
17652W        W81596  32.992  10.702  11.611
17653W        W81597  10.155  41.480  14.470
17654W        W81598  14.161  26.457   3.729
17655W        W81599  11.766  31.049   1.362
17656W        W81600  28.126   7.705   4.277
17657W        W81601  23.502  27.631  10.607
17658W        W81602   2.261   1.758   3.287
17659W        W81603   1.351  18.244   0.473
17660W        W81604  20.745   8.837  10.116
17661W        W81605  44.264  24.599  14.404
17662W        W81606   5.317  31.617   4.278
17663W        W81607  11.272  18.217  13.847
17664W        W81608  30.075  33.070  14.432
17665W        W81609  20.170  22.009  12.401
17666W        W81610  19.605   1.385  14.405
17667W        W81611   2.426   5.914   0.899
17668W        W81612  36.590  30.113  11.013
17669W        W81613  43.357  20.221   3.321
17670W        W81614  43.982  34.474   0.251
17671W        W81615  21.263  30.431  12.347
17672W        W81616  24.187  40.950   0.330
17673W        W81617  37.031  21.721   2.352
17674W        W81618  43.800  15.232   1.829
17675W        W81619  42.391  26.010  11.604
17676W        W81620  24.145  19.641   1.319
17677W        W81621  10.751  38.847  13.395
17678W        W81622  41.959  10.372  12.476
17679W        W81623  34.584  35.576  11.562
17680W        W81624   8.748  33.626   3.740
17681W        W81625  15.730  26.970  12.845
17682W        W81626  16.618   5.903   3.795
17683W        W81627  30.020  37.349  11.089
17684W        W81628  21.194  24.613   1.253
17685W        W81629   4.403  33.416   2.362
17686W        W81630  33.618   5.193   4.706
17687W        W81631  43.451   0.959   4.705
17688W        W81632  28.609  15.102   5.111
17689W        W81633  37.401  19.166   4.740
17690W        W81634  25.512   6.278  12.385
17691W        W81635  26.990  15.774   3.288
17692W        W81636  29.459  16.132  10.634
17693W        W81637  43.021   8.758   4.757
17694W        W81638  41.884  30.513  13.482
17695W        W81639   6.378   3.890   0.803
17696W        W81640  15.254  11.291   0.831
17697W        W81641   7.851  14.172   3.167
17698W        W81642  43.487  14.098  11.566
17699W        W81643  40.443   9.802  13.060
17700W        W81644  26.490  43.444  11.101
17701W        W81645  22.190  20.141   0.831
17702W        W81646  19.127  23.128  14.340
17703W        W81647  36.867  28.059   2.814
17704W        W81648  23.582  28.134   2.293
17705W        W81649   5.349  26.172   2.751
17706W        W81650  13.250  32.438   9.964
17707W        W81651   9.242  15.163   2.718
17708W        W81652  21.666  28.079  13.453
17709W        W81653  44.492  21.611  10.418
17710W        W81654  15.635  21.618   4.688
17711W        W81655  27.956  19.158  12.403
17712W        W81656  33.971  20.218   1.339
17713W        W81657   4.872  17.766  11.005
17714W        W81658   5.769  14.280  11.970
17715W        W81659  43.777  10.379   2.683
17716W        W81660  22.514  21.747   2.258
17717W        W81661  33.037  28.438  13.845
17718W        W81662  20.077  34.595  14.910
17719W        W81663  10.715  11.328   3.794
17720W        W81664  32.551  17.694  13.942
17721W        W81665  20.757   3.388   2.292
17722W        W81666  27.195  31.491  11.557
17723W        W81667   3.748  40.974   1.919
17724W        W81668  35.364  22.143  11.917
17725W        W81669  43.980  38.048  11.487
17726W        W81670  38.938  26.570  10.119
17727W        W81671  22.520  32.459   1.894
17728W        W81672  14.238   5.758   3.791
17729W        W81673   4.708  18.627  12.041
17730W        W81674  37.956   3.912   2.405
17731W        W81675   5.426   3.734  13.804
17732W        W81676   5.829  11.162  11.389
17733W        W81677  12.618  22.047  14.998
17734W        W81678  21.082  25.162   2.263
17735W        W81679  29.545  14.166   4.310
17736W        W81680  38.879  20.156   4.325
17737W        W81681  44.957  16.736  12.526
17738W        W81682  34.584  22.606   2.355
17739W        W81683   2.267  10.759   3.301
17740W        W81684  24.643  25.564  12.018
17741W        W81685  31.580  37.850  14.299
17742W        W81686  27.165  25.134  14.445
17743W        W81687  33.399  42.356   3.193
17744W        W81688   0.867   5.920  13.982
17745W        W81689   9.679  22.650   2.709
17746W        W81690  29.664  10.347   0.311
17747W        W81691  24.653  12.300  12.436
17748W        W81692  16.093  38.829  13.364
17749W        W81693  19.742  35.071  10.889
17750W        W81694  28.560  35.412  13.981
17751W        W81695  20.700  17.182   0.376
17752W        W81696  13.741  41.457  11.117
17753W        W81697  40.475  29.516  10.624
17754W        W81698  21.057  42.953   5.151
17755W        W81699  33.554   7.298  12.386
17756W        W81700  13.199  13.255  13.889
17757W        W81701  28.992  42.822  13.048
17758W        W81702  32.628  39.478  13.960
17759W        W81703  13.828  23.099   1.278
17760W        W81704   2.776  44.966  12.086
17761W        W81705  28.036  44.940   2.847
17762W        W81706  10.168  28.672  11.410
17763W        W81707   9.825   6.275   4.742
17764W        W81708  29.487  30.431   2.214
17765W        W81709  34.495  40.826  12.984
17766W        W81710  12.697  16.158  10.624
17767W        W81711  22.584  31.904  14.383
17768W        W81712   2.823  43.769   4.615
17769W        W81713  33.128   1.421  11.557
17770W        W81714  42.353  40.493  12.454
17771W        W81715  35.489  33.611   2.214
17772W        W81716  33.530  18.233  11.537
17773W        W81717   9.294   3.863   3.832
17774W        W81718  44.816   2.468  11.528
17775W        W81719  17.728   0.963   1.385
17776W        W81720  37.340  41.529  11.490
17777W        W81721  32.100  32.428  11.037
17778W        W81722   0.863  37.536   3.738
17779W        W81723  27.533  28.043  12.025
17780W        W81724   9.352  15.811   3.253
17781W        W81725  25.120   9.216   0.961
17782W        W81726  28.552  18.770  11.104
17783W        W81727   9.327  14.313   3.378
17784W        W81728  40.831  31.476  11.895
17785W        W81729  25.081   7.337  10.489
17786W        W81730  37.017  25.040  12.386
17787W        W81731  18.140   1.944  11.426
17788W        W81732   6.862  43.767  11.517
17789W        W81733  12.307  25.710  10.448
17790W        W81734  18.094  13.756  10.592
17791W        W81735   4.817  37.498  10.896
17792W        W81736  21.667  37.957  13.373
17793W        W81737   0.797  36.490   3.244
17794W        W81738  30.105  17.142  14.918
17795W        W81739  15.128   5.752  14.779
17796W        W81740   1.397   9.842  12.525
17797W        W81741  39.937  40.460   1.764
17798W        W81742   4.757  40.449  13.986
17799W        W81743  12.652  11.788   4.239
17800W        W81744   0.759  34.063  10.636
17801W        W81745  41.947  34.419   4.598
17802W        W81746  40.857  39.994  13.382
17803W        W81747  28.638   7.370  11.593
17804W        W81748   3.380  32.036   3.652
17805W        W81749   2.928  11.862  10.572
17806W        W81750  33.552  18.619  14.888
17807W        W81751  15.201  17.705  13.838
17808W        W81752  21.067  44.479   3.334
17809W        W81753  34.997  26.101  11.030
17810W        W81754  38.556   6.303  11.565
17811W        W81755  36.578  27.611   3.311
17812W        W81756  42.377  33.117  10.936
17813W        W81757  26.133  40.477  11.383
17814W        W81758  41.805  25.471   0.454
17815W        W81759   2.881  43.337  10.414
17816W        W81760  11.342  31.957  12.466
17817W        W81761  18.191  21.036   0.760
17818W        W81762  24.496   4.371   2.287
17819W        W81763  35.522  18.620  11.442
17820W        W81764  41.837   6.224   5.211
17821W        W81765  26.203  43.323  12.362
17822W        W81766   6.825   4.785   1.894
17823W        W81767   7.219  38.342  12.860
17824W        W81768  11.132  17.751  11.070
17825W        W81769  39.009  27.524  11.072
17826W        W81770  43.769  17.656   0.329
17827W        W81771  29.480  35.059   3.746
17828W        W81772  34.014  26.473  12.463
17829W        W81773  28.126  44.355   3.737
17830W        W81774  12.361  36.936  10.449
17831W        W81775   7.777  39.475   2.234
17832W        W81776  17.116  14.179  14.943
17833W        W81777  43.457   5.755  12.882
17834W        W81778  23.138  13.302   1.892
17835W        W81779  20.048  39.533   3.634
17836W        W81780  10.336  17.165  13.985
17837W        W81781  18.203  44.430   4.807
17838W        W81782  36.021  32.554   0.873
17839W        W81783  22.041  26.011  11.950
17840W        W81784  29.593  27.013   3.305
17841W        W81785  29.028  42.490   4.170
17842W        W81786  44.273  35.430  13.995
17843W        W81787  13.239  25.984  11.986
17844W        W81788  23.647  17.639  13.062
17845W        W81789  37.906  19.042  11.424
17846W        W81790  24.039  37.380  10.065
17847W        W81791   9.375  40.351  13.959
17848W        W81792  39.890  28.062  14.880
17849W        W81793  16.107  21.600  13.473
17850W        W81794   4.245  32.395  14.821
17851W        W81795  43.880  22.237   0.883
17852W        W81796  12.312  38.552  13.903
17853W        W81797  28.434  38.515   0.803
17854W        W81798  40.813  28.071   0.387
17855W        W81799   6.882  11.243   4.265
17856W        W81800  42.864  23.572  10.938
17857W        W81801  34.958  10.185   1.419
17858W        W81802  11.773   5.321  13.927
17859W        W81803  19.269  32.988   1.721
17860W        W81804   8.240   1.470  14.361
17861W        W81805  38.826  18.065  10.997
17862W        W81806   9.814  27.569   0.469
17863W        W81807   0.891  26.516   0.389
17864W        W81808   8.243  13.607   4.323
17865W        W81809  24.678  21.107   0.263
17866W        W81810  12.826  32.467  12.894
17867W        W81811  15.808   5.423   0.959
17868W        W81812   7.360  28.486   3.255
17869W        W81813   7.713   1.941  14.879
17870W        W81814  30.431  21.236  11.515
17871W        W81815   8.217  20.240   3.326
17872W        W81816   3.911   0.404   3.150
17873W        W81817   6.797  34.018   3.852
17874W        W81818  22.245  13.821  12.423
17875W        W81819   2.332  13.285   4.741
17876W        W81820   5.220   9.848   2.861
17877W        W81821   0.847   8.300   2.377
17878W        W81822  15.685  11.277  13.526
17879W        W81823  27.549  42.459   0.751
17880W        W81824  16.248  37.378   2.268
17881W        W81825   2.783  24.605  13.419
17882W        W81826  15.307  23.172   0.415
17883W        W81827  19.180  40.549   3.253
17884W        W81828  30.102   0.977   2.284
17885W        W81829  35.492  25.648   0.351
17886W        W81830  37.572  35.053   0.265
17887W        W81831  18.730  17.669  14.797
17888W        W81832  43.825   6.773   4.210
17889W        W81833   5.424  29.965  14.489
17890W        W81834  37.921   8.161   4.178
17891W        W81835  12.733  36.430  12.504
17892W        W81836  35.906  25.540   2.840
17893W        W81837  40.811   5.226  13.371
17894W        W81838  42.879  16.083  11.976
17895W        W81839  27.955  35.899   5.157
17896W        W81840  38.981  24.618  13.471
17897W        W81841   7.202  31.100   2.754
17898W        W81842  23.233  23.668   3.636
17899W        W81843  39.056  43.309  12.451
17900W        W81844  22.538  29.624   1.888
17901W        W81845  32.483   7.687   4.837
17902W        W81846  28.041  35.868   3.384
17903W        W81847  10.705   6.407   4.337
17904W        W81848  18.623  31.548  13.041
17905W        W81849  20.554  43.983  14.418
17906W        W81850   8.268  36.468   4.686
17907W        W81851   9.738  21.052  14.348
17908W        W81852  22.017   2.731  12.006
17909W        W81853   1.921  40.509   2.678
17910W        W81854  28.073   5.296   5.154
17911W        W81855   1.775   3.270   4.267
17912W        W81856  20.161   0.864   1.385
17913W        W81857  42.472   7.305  12.947
17914W        W81858  22.242   6.860  10.934
17915W        W81859  14.813  42.942   4.607
17916W        W81860  19.172  44.470  10.485
17917W        W81861  18.099   0.278   4.244
17918W        W81862   7.312   5.288  11.108
17919W        W81863  25.112  25.113  11.935
17920W        W81864  12.771  42.446   2.243
17921W        W81865   0.878  38.434   4.707
17922W        W81866  22.510  14.220   1.288
17923W        W81867  17.215  25.217   0.952
17924W        W81868  13.648  30.976   4.293
17925W        W81869  31.109   9.768  13.998
17926W        W81870  32.013  27.940   0.450
17927W        W81871  35.880  35.390   4.247
17928W        W81872  35.019  25.001  10.081
17929W        W81873  35.974  44.274  11.073
17930W        W81874  43.002   9.825  14.973
17931W        W81875  10.245  42.443  12.576
17932W        W81876  44.501   7.417   4.251
17933W        W81877  38.881  40.387  14.869
17934W        W81878  43.788  33.538   2.755
17935W        W81879  17.635   1.782   0.380
17936W        W81880   6.372   5.343  10.920
17937W        W81881   6.375  15.706  13.426
17938W        W81882  26.195   1.246   2.778
17939W        W81883  10.163  26.603   5.304
17940W        W81884  14.726  16.226  14.760
17941W        W81885  34.505  31.960  12.843
17942W        W81886  30.435  40.021   5.220
17943W        W81887   1.420   8.867   3.292
17944W        W81888  42.395   6.329   1.746
17945W        W81889  25.160  12.120  11.506
17946W        W81890  39.945  39.899  11.506
17947W        W81891   0.302  37.355  14.292
17948W        W81892  34.510  25.128   5.232
17949W        W81893  44.280  13.633   3.691
17950W        W81894  31.411  26.045   2.246
17951W        W81895  39.947  36.864   4.838
17952W        W81896   8.380  42.928  11.536
17953W        W81897  41.409  28.454  11.400
17954W        W81898  12.160  27.092   1.828
17955W        W81899  14.111  30.602   2.849
17956W        W81900  12.749  22.077  13.424
17957W        W81901  21.193  21.131   0.337
17958W        W81902  26.007  40.029  10.991
17959W        W81903   8.341  30.445   4.146
17960W        W81904  15.225  19.211   0.454
17961W        W81905  37.961  33.479  12.980
17962W        W81906  37.954  40.875  13.477
17963W        W81907  35.519  14.190  14.935
17964W        W81908  33.054  28.017   1.416
17965W        W81909   6.736  38.393   4.176
17966W        W81910  36.411   3.749  11.474
17967W        W81911   5.310  13.193   4.612
17968W        W81912  32.512  44.941   0.843
17969W        W81913  24.052   0.364  13.025
17970W        W81914  10.792  12.350   0.882
17971W        W81915  28.985  37.867  10.932
17972W        W81916  40.393  25.568   1.700
17973W        W81917  18.258  13.613  13.966
17974W        W81918  21.651  41.881  13.003
17975W        W81919  34.970  35.447   1.275
17976W        W81920  25.045  22.175  10.154
17977W        W81921  12.646  31.486   2.735
17978W        W81922  37.021   7.177   1.338
17979W        W81923  27.971  29.939   4.808
17980W        W81924  16.283   2.783  10.037
17981W        W81925  38.482  37.459   9.939
17982W        W81926  35.358  21.707   1.417
17983W        W81927  38.000  38.534   0.394
17984W        W81928  28.502  41.856   4.122
17985W        W81929  32.591  30.449  13.050
17986W        W81930  17.086  44.972   3.766
17987W        W81931   8.246   4.294  12.840
17988W        W81932  43.981  42.285   4.228
17989W        W81933   1.282  27.015  14.030
17990W        W81934   1.416  12.690  10.494
17991W        W81935   6.405  38.365   3.213
17992W        W81936  44.331  13.741   0.251
17993W        W81937   4.367   9.346   2.269
17994W        W81938   6.684   3.897  13.840
17995W        W81939  36.527  15.801   0.288
17996W        W81940  19.707  29.169   1.343
17997W        W81941  13.214  30.001   0.927
17998W        W81942  17.619   8.330  14.474
17999W        W81943   0.948  23.715  13.844
18000W        W81944  40.813  12.266   1.920
18001W        W81945   4.444  26.546  12.548
18002W        W81946  41.494  38.874  13.897
18003W        W81947  36.559  30.164   2.779
18004W        W81948  25.510  27.115   4.122
18005W        W81949  17.556  39.846   4.617
18006W        W81950  36.096  23.031   2.737
18007W        W81951  13.701  42.458  12.979
18008W        W81952  21.059  28.938   4.597
18009W        W81953  20.049  17.203   3.756
18010W        W81954  42.803  24.096  13.477
18011W        W81955  21.716   0.935  13.353
18012W        W81956  28.028  26.140   4.144
18013W        W81957  19.104  21.730   4.726
18014W        W81958  34.118  19.577   4.836
18015W        W81959  13.121  14.620   4.180
18016W        W81960  32.509  29.095   1.280
18017W        W81961  41.495  34.877  13.316
18018W        W81962  43.769  24.643   1.411
18019W        W81963   8.775  12.678  11.878
18020W        W81964   3.907  39.399  13.020
18021W        W81965  40.948  19.213  11.101
18022W        W81966  30.122  24.522  14.830
18023W        W81967  11.819   5.747   0.322
18024W        W81968  37.039  19.666  11.522
18025W        W81969  36.952   0.822   0.430
18026W        W81970  31.569  14.238   2.266
18027W        W81971  43.764   9.832   3.773
18028W        W81972  36.949  25.540   2.196
18029W        W81973  35.095   4.348  11.387
18030W        W81974  44.487   2.907  10.629
18031W        W81975  43.458  33.595   1.802
18032W        W81976  42.403   6.807   0.746
18033W        W81977  41.296   6.834   4.128
18034W        W81978  19.733   1.406  12.387
18035W        W81979  21.684  18.113  12.025
18036W        W81980  35.494  20.533  14.907
18037W        W81981  25.542  15.236  11.480
18038W        W81982  31.488   4.438   4.352
18039W        W81983  16.274   1.762  12.465
18040W        W81984   2.286   2.308  11.900
18041W        W81985  44.266  22.132  13.859
18042W        W81986   5.852  33.122   0.392
18043W        W81987  43.834  30.925   2.692
18044W        W81988   8.232  25.119  14.311
18045W        W81989  21.641  14.781   0.740
18046W        W81990  26.134  26.625   2.706
18047W        W81991   1.482   9.377  13.504
18048W        W81992  38.867  44.279  10.416
18049W        W81993  20.754  37.035   4.279
18050W        W81994  28.502  20.081  13.499
18051W        W81995   6.780   9.231  12.347
18052W        W81996  20.710  44.487   3.272
18053W        W81997  24.601  30.526   3.366
18054W        W81998   3.799  13.338  10.522
18055W        W81999  24.099  42.512   4.599
18056W        W82000  22.509   3.768  13.321
18057W        W82001  14.738  14.625  11.092
18058W        W82002  38.343   2.799   5.650
18059W        W82003  13.142  31.968   0.454
18060W        W82004  18.684  10.839   3.769
18061W        W82005  27.187  26.645  10.595
18062W        W82006  25.047  17.089   3.833
18063W        W82007  16.209  32.913  11.962
18064W        W82008  23.553  19.048   4.651
18065W        W82009   9.875  24.601  14.336
18066W        W82010  36.904  29.466  11.893
18067W        W82011  10.753  43.477   3.348
18068W        W82012  30.475  35.589  11.613
18069W        W82013  28.613  26.142   2.224
18070W        W82014  10.698  24.638  13.816
18071W        W82015  30.626  11.663  13.313
18072W        W82016   6.407  25.585   0.277
18073W        W82017  30.151  30.016   3.301
18074W        W82018  35.564   8.861   4.796
18075W        W82019  33.472   9.328   1.378
18076W        W82020   4.723  17.230  11.015
18077W        W82021  18.600   7.772   1.336
18078W        W82022  12.800  28.090   2.184
18079W        W82023  40.869  29.174   1.340
18080W        W82024  25.096   9.169   2.675
18081W        W82025   6.229  26.092  12.432
18082W        W82026  13.762  44.892   3.725
18083W        W82027  18.151  22.692  10.629
18084W        W82028   5.389   4.859   1.841
18085W        W82029  18.565  40.451  12.862
18086W        W82030  40.494  30.126  10.423
18087W        W82031   8.788  13.133   1.250
18088W        W82032  31.029  41.843   9.948
18089W        W82033  33.612  20.147  12.069
18090W        W82034   9.252  44.497  13.462
18091W        W82035  28.995  24.485  14.791
18092W        W82036  32.502   7.408   5.088
18093W        W82037   9.155  10.230   9.973
18094W        W82038  28.572   6.236  13.387
18095W        W82039   1.775  24.057  12.948
18096W        W82040  41.798  15.112  11.517
18097W        W82041  23.563  44.264   4.795
18098W        W82042  31.497  33.550  10.581
18099W        W82043  37.477  12.679   2.204
18100W        W82044   5.429  27.450   0.923
18101W        W82045  15.124  17.162  14.378
18102W        W82046  21.585  16.117   2.247
18103W        W82047  44.383  30.964  13.980
18104W        W82048  12.170  44.376   5.111
18105W        W82049   4.228  25.685   4.731
18106W        W82050  39.043  22.233   0.919
18107W        W82051  38.961  40.519  13.888
18108W        W82052  25.169  41.912   4.120
18109W        W82053  26.121   3.373  14.378
18110W        W82054  19.198  17.631   3.168
18111W        W82055   3.901  25.152  12.997
18112W        W82056  12.830  36.047   0.481
18113W        W82057  42.792  22.603  13.462
18114W        W82058  29.148  23.996  11.922
18115W        W82059   1.813  41.416  12.517
18116W        W82060  25.041  32.523   3.637
18117W        W82061  43.866  42.407   4.661
18118W        W82062  42.380  33.519  14.951
18119W        W82063   2.315  43.338  12.937
18120W        W82064  36.421  34.915  14.354
18121W        W82065  23.581  29.076  11.928
18122W        W82066  14.295  30.096   3.146
18123W        W82067  18.557  31.924   5.156
18124W        W82068   4.840  32.907   3.673
18125W        W82069  18.783  29.504  13.381
18126W        W82070  16.208   2.290   0.251
18127W        W82071   5.797   3.406  12.546
18128W        W82072  39.984   6.323  11.383
18129W        W82073  27.506  14.241   0.736
18130W        W82074   2.922  43.482  14.283
18131W        W82075  30.649  25.556  11.987
18132W        W82076  10.855  12.282  12.379
18133W        W82077  32.493  39.921  12.389
18134W        W82078  37.988  15.778  13.990
18135W        W82079  26.642   5.900   3.675
18136W        W82080  15.285  11.802  10.991
18137W        W82081   7.349  31.404   2.233
18138W        W82082  24.043  21.133   1.330
18139W        W82083  11.868   8.785  14.924
18140W        W82084  38.062  26.542  12.466
18141W        W82085  29.942  18.676   0.927
18142W        W82086  33.058  39.882  11.480
18143W        W82087  43.423  12.280  14.455
18144W        W82088  19.777  21.046  10.048
18145W        W82089   8.385   3.221   4.637
18146W        W82090  13.685  16.733  14.284
18147W        W82091   5.278  14.704   2.245
18148W        W82092  39.460  35.404   4.679
18149W        W82093   5.282  35.557  14.887
18150W        W82094  32.931   9.758   2.316
18151W        W82095  23.002  14.330  10.414
18152W        W82096  22.538  25.686  11.053
18153W        W82097  16.279  28.479   4.639
18154W        W82098   0.367  42.891  12.942
18155W        W82099  31.509   9.254   2.199
18156W        W82100  11.668  44.824  11.017
18157W        W82101  25.218  41.038   4.763
18158W        W82102   7.811  41.511   4.640
18159W        W82103  41.447  41.494  12.042
18160W        W82104  44.501   4.369  10.607
18161W        W82105  30.954  22.605   1.323
18162W        W82106  32.507   4.743  10.148
18163W        W82107  12.334  35.491   3.301
18164W        W82108  21.066  42.338  10.639
18165W        W82109   8.267   0.978   3.808
18166W        W82110  38.474   2.331  10.930
18167W        W82111  24.713   2.468   0.283
18168W        W82112  22.531  34.866  13.818
18169W        W82113  23.030   9.769  11.465
18170W        W82114  37.543  21.040   5.131
18171W        W82115  35.375  12.780  13.818
18172W        W82116  18.214  31.124  12.898
18173W        W82117   3.327  22.675  10.613
18174W        W82118  26.640  19.697  14.825
18175W        W82119  30.477  10.146  12.073
18176W        W82120  41.925  31.436  14.944
18177W        W82121  18.588  16.123   2.190
18178W        W82122  26.603  29.544   1.880
18179W        W82123   7.283  21.726  10.612
18180W        W82124  16.583  21.618   3.822
18181W        W82125  32.427  24.081  13.844
18182W        W82126   9.216  28.032   2.225
18183W        W82127  38.833  30.534  14.877
18184W        W82128  40.023  35.413   2.266
18185W        W82129  25.147   8.186   4.116
18186W        W82130   4.390  19.056  14.898
18187W        W82131  30.544  28.082  11.028
18188W        W82132   7.838  27.675  14.798
18189W        W82133  11.311  17.221   5.287
18190W        W82134  39.532  25.007  14.449
18191W        W82135   1.318  10.761   4.654
18192W        W82136  17.768  41.538  11.400
18193W        W82137   2.236  14.116  13.965
18194W        W82138   7.740   6.907  12.908
18195W        W82139  20.669  12.793   4.691
18196W        W82140  14.297  25.632   4.225
18197W        W82141  14.771  28.011   3.714
18198W        W82142  27.556   8.900   5.121
18199W        W82143  17.608  37.412   0.470
18200W        W82144  19.630  13.158   5.261
18201W        W82145  13.265  26.525  11.939
18202W        W82146  29.989  24.993   0.257
18203W        W82147   5.346  43.006   3.288
18204W        W82148  19.764  28.663  11.074
18205W        W82149   6.882  26.505  14.332
18206W        W82150  18.162  39.922   4.256
18207W        W82151  23.609  30.066  13.998
18208W        W82152  11.700   9.261   4.791
18209W        W82153  20.711  13.774  12.499
18210W        W82154  41.831  37.081  12.508
18211W        W82155  38.920  23.718  10.487
18212W        W82156  25.674   7.285   4.137
18213W        W82157  16.588   6.823   3.670
18214W        W82158  43.301  33.530  10.936
18215W        W82159   8.224   0.794   4.646
18216W        W82160   0.281  38.375  12.423
18217W        W82161  23.215  38.412   1.357
18218W        W82162  34.572  16.789   2.220
18219W        W82163   1.747  21.585  10.970
18220W        W82164  11.737  34.571  11.975
18221W        W82165  22.598  28.585  10.498
18222W        W82166  22.045  44.430  14.500
18223W        W82167  23.210   1.950  13.345
18224W        W82168  21.652   0.325  11.472
18225W        W82169  10.168  10.767   0.439
18226W        W82170  27.942  22.655   4.235
18227W        W82171  22.540  12.854   5.205
18228W        W82172   2.290  40.836   1.262
18229W        W82173   2.934  13.249  10.615
18230W        W82174   2.452   9.173  12.094
18231W        W82175  23.509  35.027   2.838
18232W        W82176  44.991   7.864  10.936
18233W        W82177  10.717   0.803  14.830
18234W        W82178   1.359  13.107   2.297
18235W        W82179  43.483  36.875  14.285
18236W        W82180  28.111  19.254  10.106
18237W        W82181   2.923   3.377  11.883
18238W        W82182   7.673  28.977   1.415
18239W        W82183  36.451  37.567  10.054
18240W        W82184  35.066  40.915   4.815
18241W        W82185  20.679   4.800   1.390
18242W        W82186  27.657  30.647   3.702
18243W        W82187  34.440  32.978  11.592
18244W        W82188  16.257  31.910   0.862
18245W        W82189  32.590   2.245  13.061
18246W        W82190  14.711  11.655   0.448
18247W        W82191   0.248  31.998  13.851
18248W        W82192  18.051   3.325  13.968
18249W        W82193  29.943  44.996  14.863
18250W        W82194  31.627  10.215  13.493
18251W        W82195  39.956  37.561   4.167
18252W        W82196   4.231  41.447  13.903
18253W        W82197  34.079  10.384  13.862
18254W        W82198   8.395  12.758  10.623
18255W        W82199  42.927  41.790   2.868
18256W        W82200  12.785  25.077  14.294
18257W        W82201  12.634   8.673   1.234
18258W        W82202  27.998  25.964  13.307
18259W        W82203  10.338  31.612   3.795
18260W        W82204  41.467   5.245   4.622
18261W        W82205  32.004  28.132  12.892
18262W        W82206  27.127   3.369   3.345
18263W        W82207   2.260  19.778  11.556
18264W        W82208  18.143  44.492   1.286
18265W        W82209   8.164  38.380   2.237
18266W        W82210   0.392  29.966  13.518
18267W        W82211  14.660   2.914  12.470
18268W        W82212  24.566  25.710  12.535
18269W        W82213  11.348   2.397   4.685
18270W        W82214  22.136  26.658   3.151
18271W        W82215  10.761  10.284  12.082
18272W        W82216   9.856  33.043   1.254
18273W        W82217  17.671   1.951  14.289
18274W        W82218  19.672  25.136   0.750
18275W        W82219  12.157  38.383   4.262
18276W        W82220  28.466  30.055  13.046
18277W        W82221  22.017  37.475  13.533
18278W        W82222  29.119  40.470  12.959
18279W        W82223   9.854  42.023   1.871
18280W        W82224  38.829  33.936   1.234
18281W        W82225   1.273  41.336  12.578
18282W        W82226  32.095  14.792  12.896
18283W        W82227  30.033  42.465   4.113
18284W        W82228  25.113   0.349  13.814
18285W        W82229  27.152   1.278   1.354
18286W        W82230   3.749  38.838  13.062
18287W        W82231   4.446  25.197  12.383
18288W        W82232  23.047  19.775   1.325
18289W        W82233   5.253  30.600   2.293
18290W        W82234  36.475   4.231  11.013
18291W        W82235  29.444   1.270   4.820
18292W        W82236   5.787  14.244   0.313
18293W        W82237  13.124  13.248   2.292
18294W        W82238  35.497   3.709  14.316
18295W        W82239   0.354   1.871  12.578
18296W        W82240  39.865  22.228  13.523
18297W        W82241  25.467   8.218   0.434
18298W        W82242  42.287  37.989   4.209
18299W        W82243   2.436  38.983   4.245
18300W        W82244   9.326  20.099   4.240
18301W        W82245  39.950  20.159  11.518
18302W        W82246  40.958  38.879   0.734
18303W        W82247  15.667   0.847  10.114
18304W        W82248   5.894   1.805   1.852
18305W        W82249  11.177  39.850   4.280
18306W        W82250   4.870  16.727  13.489
18307W        W82251   2.379  26.037  11.513
18308W        W82252  14.678   2.922  13.819
18309W        W82253  17.117  10.139   3.780
18310W        W82254   9.851  15.713  13.540
18311W        W82255   6.195  25.022   3.352
18312W        W82256   5.933  11.279  12.966
18313W        W82257  14.152  25.994   0.352
18314W        W82258  30.022  24.558  13.018
18315W        W82259  28.158  38.383  11.495
18316W        W82260  44.443  31.922  12.484
18317W        W82261  33.018   7.848  13.475
18318W        W82262  24.595  39.012  13.402
18319W        W82263  19.682  36.374   2.850
18320W        W82264   2.283   7.409   1.308
18321W        W82265  42.435  27.995   2.241
18322W        W82266  10.735  34.966  11.511
18323W        W82267  26.017  26.488  11.886
18324W        W82268  13.701   9.736  12.064
18325W        W82269  36.998  10.768  11.943
18326W        W82270  41.986  15.815   0.727
18327W        W82271  10.225  37.532   1.445
18328W        W82272  37.571  26.458   4.235
18329W        W82273  41.317  37.010  12.495
18330W        W82274   6.847  20.210   4.755
18331W        W82275  31.451   7.356  11.919
18332W        W82276  20.062  40.474  12.048
18333W        W82277  22.117   0.440   0.929
18334W        W82278  10.348  23.576  13.463
18335W        W82279  31.547   4.298  12.043
18336W        W82280   2.449  20.102   0.325
18337W        W82281  35.425  44.899   4.298
18338W        W82282  25.045  38.041   3.788
18339W        W82283  34.879  22.564   3.807
18340W        W82284   1.741  37.417  11.884
18341W        W82285   3.912   5.920  13.326
18342W        W82286  33.948  30.609   4.777
18343W        W82287  12.665  39.051   2.684
18344W        W82288  30.987  43.009   0.771
18345W        W82289  44.280   0.287  13.801
18346W        W82290  43.866  23.516   4.348
18347W        W82291  13.675  42.285   0.858
18348W        W82292  33.510   5.895  11.397
18349W        W82293  33.434  30.060  12.000
18350W        W82294  42.785  18.163   2.284
18351W        W82295  14.201  30.126   4.283
18352W        W82296   9.370  13.774   4.253
18353W        W82297   2.809  36.842  11.433
18354W        W82298   8.288   7.827   2.838
18355W        W82299  17.144  25.495  10.491
18356W        W82300   5.705  23.987   4.350
18357W        W82301  24.059  41.875  12.564
18358W        W82302  28.022   1.428  12.512
18359W        W82303   7.892  36.587  11.456
18360W        W82304  11.719  39.060  11.901
18361W        W82305   0.794  32.084   5.225
18362W        W82306   5.375   5.911   9.982
18363W        W82307  32.463  14.162   0.805
18364W        W82308  31.587  25.573  12.882
18365W        W82309   0.488  20.119  11.981
18366W        W82310  11.723  15.085   5.215
18367W        W82311  12.191  35.457   1.790
18368W        W82312  18.070   1.798  11.077
18369W        W82313  33.991   4.406   2.215
18370W        W82314  25.518  18.661  11.010
18371W        W82315  30.145  20.041  14.466
18372W        W82316  31.410   5.288  13.912
18373W        W82317  19.169  22.065   2.335
18374W        W82318  42.006  30.417   2.222
18375W        W82319  11.746  35.443  14.783
18376W        W82320  10.803  41.982  11.874
18377W        W82321   3.793  37.015  14.429
18378W        W82322   4.821   3.901   0.744
18379W        W82323   3.257  33.407   2.271
18380W        W82324   6.830  15.769   2.211
18381W        W82325  30.430   2.391   4.118
18382W        W82326  32.558   7.675  11.459
18383W        W82327  28.444  21.127  14.439
18384W        W82328  32.117  13.296   1.895
18385W        W82329  21.076  34.483   1.329
18386W        W82330  26.170  13.193  14.308
18387W        W82331  31.056  10.185  12.417
18388W        W82332  17.686  37.956   0.813
18389W        W82333   1.357  35.084  10.555
18390W        W82334  14.697  43.965   2.885
18391W        W82335  30.013  22.050   3.760
18392W        W82336   4.718  30.139  12.566
18393W        W82337  23.644   8.367  14.769
18394W        W82338   5.194  44.467  11.550
18395W        W82339  11.731  43.298  12.438
18396W        W82340   3.915  11.302  14.910
18397W        W82341   0.898  44.832  12.849
18398W        W82342   2.354  28.616  14.283
18399W        W82343  42.846  24.982   0.419
18400W        W82344  12.846  17.738   2.835
18401W        W82345   8.246  30.119   1.371
18402W        W82346   0.291  28.534  14.345
18403W        W82347  32.966  38.992  10.889
18404W        W82348  35.950  15.126   4.318
18405W        W82349  23.221  16.681   1.267
18406W        W82350  36.500  24.104  11.071
18407W        W82351  36.028  14.184  14.498
18408W        W82352   6.238  38.531   4.828
18409W        W82353  20.110  20.037  12.920
18410W        W82354   0.778  22.614   1.929
18411W        W82355  15.237  15.631  11.423
18412W        W82356  18.690  23.007   1.770
18413W        W82357   4.922  22.667   5.124
18414W        W82358  22.597   8.305  12.483
18415W        W82359  43.986  17.242   2.677
18416W        W82360  25.655  15.120   0.830
18417W        W82361   2.290  44.447   4.602
18418W        W82362   2.798  12.202  11.562
18419W        W82363  33.484  40.985  12.836
18420W        W82364  36.031  23.579   2.404
18421W        W82365  32.903  19.073  12.986
18422W        W82366  10.369  23.141  14.279
18423W        W82367  25.001  13.778   2.268
18424W        W82368  21.511   4.436   0.429
18425W        W82369  24.122  21.219  13.896
18426W        W82370  22.505  34.569  11.537
18427W        W82371  38.532   8.385   4.256
18428W        W82372  33.094  38.381   1.929
18429W        W82373  30.066   1.740   0.920
18430W        W82374   5.294  11.296  12.943
18431W        W82375   1.815   8.802   0.365
18432W        W82376  28.116   0.361   2.250
18433W        W82377  17.074  28.186  14.489
18434W        W82378  20.613   2.803   2.800
18435W        W82379  37.383   2.908   0.289
18436W        W82380  30.498  18.167   0.959
18437W        W82381  23.661  37.580   2.261
18438W        W82382  44.939  27.193   2.235
18439W        W82383  13.713  30.971   4.807
18440W        W82384  22.198  28.942   4.282
18441W        W82385  39.023  31.498   2.235
18442W        W82386  13.807  38.511  13.926
18443W        W82387  27.551  11.138   2.877
18444W        W82388  20.680  10.312   2.282
18445W        W82389  35.921   8.698  12.400
18446W        W82390  24.665  28.127  11.953
18447W        W82391  24.626   3.427   0.299
18448W        W82392  17.637  20.141   3.245
18449W        W82393   0.481   8.783   2.726
18450W        W82394  12.814   8.248   0.466
18451W        W82395  39.469   9.702  11.902
18452W        W82396  22.014  14.826   0.740
18453W        W82397  19.750  30.912  12.437
18454W        W82398  25.592   0.897  14.465
18455W        W82399  22.167   5.710  14.784
18456W        W82400  14.264  38.429   4.208
18457W        W82401  26.603  36.981   3.638
18458W        W82402   2.351  11.834   3.252
18459W        W82403  11.195  23.544   1.419
18460W        W82404   2.911   6.371  11.371
18461W        W82405   6.239  13.323  11.933
18462W        W82406  20.588  12.717  14.939
18463W        W82407  39.396  27.191   3.661
18464W        W82408  10.297  12.848   5.240
18465W        W82409  41.984  11.142   4.646
18466W        W82410  25.714  42.289   2.733
18467W        W82411  29.005   6.788   2.845
18468W        W82412  32.466  39.456  14.790
18469W        W82413  22.109  17.086  13.904
18470W        W82414  19.618  26.473   0.384
18471W        W82415  28.621  28.146   1.725
18472W        W82416  15.661  32.537   4.683
18473W        W82417  31.004  14.253  11.920
18474W        W82418  23.048   2.788   0.784
18475W        W82419  34.539   1.434  13.544
18476W        W82420   1.790  15.760   0.766
18477W        W82421   3.783  21.703   4.792
18478W        W82422  35.415  38.488  12.391
18479W        W82423  10.861  18.717   9.953
18480W        W82424  15.189   3.338   4.684
18481W        W82425   2.377  23.584  10.103
18482W        W82426  21.151   1.836   0.924
18483W        W82427  42.797  31.430  11.534
18484W        W82428  10.289  26.649  12.075
18485W        W82429  27.523  40.341   1.216
18486W        W82430  36.387   8.373   2.205
18487W        W82431  22.576  33.562  11.496
18488W        W82432  26.562  32.107   9.939
18489W        W82433   7.801   1.341  14.936
18490W        W82434  34.889  16.730   3.646
18491W        W82435  42.414  31.074  12.944
18492W        W82436  30.127   0.367   2.669
18493W        W82437  13.842  38.376  14.796
18494W        W82438   8.656   9.307  13.353
18495W        W82439   6.773  23.627   2.188
18496W        W82440   4.302   9.308  12.005
18497W        W82441   0.922  17.242  13.358
18498W        W82442  28.005  25.107  11.461
18499W        W82443  10.339  36.566   4.270
18500W        W82444  12.262   5.725  14.443
18501W        W82445  24.048  18.692  13.917
18502W        W82446  10.186  10.795   2.191
18503W        W82447  32.984  31.092  14.832
18504W        W82448  24.009   5.737   3.675
18505W        W82449  23.232  12.809  14.769
18506W        W82450  30.633  36.924   0.396
18507W        W82451  14.591  36.520   0.421
18508W        W82452  34.404  36.880  12.971
18509W        W82453   7.703  29.478   0.740
18510W        W82454  13.808  24.503   4.682
18511W        W82455  23.627  23.098   1.211
18512W        W82456  22.653  42.852   5.198
18513W        W82457  35.440  22.129  12.374
18514W        W82458  37.908  38.409   1.767
18515W        W82459  22.218   1.327   0.826
18516W        W82460  40.853  36.870  14.878
18517W        W82461  33.023  31.524  14.975
18518W        W82462  39.416  43.827   4.184
18519W        W82463  11.645  32.574   3.805
18520W        W82464  27.006  13.182  10.506
18521W        W82465  20.688  42.828   3.852
18522W        W82466  29.502  13.323  10.615
18523W        W82467  37.402  43.786   4.642
18524W        W82468  43.953  26.159  10.501
18525W        W82469  25.523  16.791  13.386
18526W        W82470  40.423  26.155  12.359
18527W        W82471  19.111  42.435   3.230
18528W        W82472  40.539  26.181   4.331
18529W        W82473  17.581  32.941  13.956
18530W        W82474  20.210  24.599   5.234
18531W        W82475  32.139  10.286   3.377
18532W        W82476  13.319  20.189   0.765
18533W        W82477  15.159  30.441   1.415
18534W        W82478  22.597  11.634   1.793
18535W        W82479   9.163  44.277  14.342
18536W        W82480  14.812   7.785  13.361
18537W        W82481  21.604  17.264   1.899
18538W        W82482  37.860  44.901   1.341
18539W        W82483   5.726  43.439   4.213
18540W        W82484  35.070  25.704   2.880
18541W        W82485  28.534  13.156   3.191
18542W        W82486  31.964  33.971  10.904
18543W        W82487  37.023  36.579   0.457
18544W        W82488   2.342  37.050  12.081
18545W        W82489  14.752  43.920   1.899
18546W        W82490  21.256   5.823  14.301
18547W        W82491  13.774   4.367   1.715
18548W        W82492  13.743  31.404   0.334
18549W        W82493  17.182  32.625  10.438
18550W        W82494   6.904   3.266  14.010
18551W        W82495  30.517  23.073  13.459
18552W        W82496  21.123   3.236   0.253
18553W        W82497  30.000  41.408  14.023
18554W        W82498  11.155  36.366   1.809
18555W        W82499  25.140  40.508   2.832
18556W        W82500  25.482  41.858   3.758
18557W        W82501  17.559  19.185  11.454
18558W        W82502  21.025   7.833  10.606
18559W        W82503  33.396  28.121  12.057
18560W        W82504  42.304  27.647  10.493
18561W        W82505   7.756  11.279   4.222
18562W        W82506  30.472  10.794  12.464
18563W        W82507  25.145  32.921  14.447
18564W        W82508   6.777  38.072  10.518
18565W        W82509  39.514  44.798  12.499
18566W        W82510  29.961  31.491   0.248
18567W        W82511  20.722  10.874   0.952
18568W        W82512  39.989  39.425   3.696
18569W        W82513  12.834   0.348  12.440
18570W        W82514  13.267  42.459   4.779
18571W        W82515   6.414   7.289  14.784
18572W        W82516  13.242  28.059  13.018
18573W        W82517   7.870  33.448  12.871
18574W        W82518  35.413  26.145   1.836
18575W        W82519  34.505  15.303  13.025
18576W        W82520   9.190  42.996  12.494
18577W        W82521  27.978  18.730   1.795
18578W        W82522  34.989   7.190  13.547
18579W        W82523  30.614  43.993  11.573
18580W        W82524  15.625  17.303   4.803
18581W        W82525  27.996   2.776  14.479
18582W        W82526  21.659  21.598   1.387
18583W        W82527  43.391  19.774  11.596
18584W        W82528  10.196   9.164   0.916
18585W        W82529  43.344  35.476   3.754
18586W        W82530  22.243  41.985  12.960
18587W        W82531   9.379  20.083   0.878
18588W        W82532  15.750  44.344  11.556
18589W        W82533  17.676  25.579  11.595
18590W        W82534  20.093  10.879  12.561
18591W        W82535  32.427  29.569   4.665
18592W        W82536  34.888  39.938   0.788
18593W        W82537  36.916  33.507   2.669
18594W        W82538  44.862  22.238  13.861
18595W        W82539  10.827  30.036   5.191
18596W        W82540  33.393   6.217  14.987
18597W        W82541  41.930  16.074  13.339
18598W        W82542  36.389  35.008  12.065
18599W        W82543  41.997  18.175   2.342
18600W        W82544   6.192  43.907  11.409
18601W        W82545  30.586   6.273  10.459
18602W        W82546  11.760   0.449  11.071
18603W        W82547  29.660  22.995   3.308
18604W        W82548  16.594  19.254  12.519
18605W        W82549  11.151   8.662   3.654
18606W        W82550  44.856  18.051  11.558
18607W        W82551  29.968  15.112   3.760
18608W        W82552  25.044  12.265  10.933
18609W        W82553  30.926  31.921  10.958
18610W        W82554  32.485  16.579  13.420
18611W        W82555   0.464  42.883  11.560
18612W        W82556  39.341   8.731  14.843
18613W        W82557  14.180  15.750  14.007
18614W        W82558  15.621  38.554   1.896
18615W        W82559  41.009  33.080   0.929
18616W        W82560  26.683   2.239   2.347
18617W        W82561  42.439  30.525  10.415
18618W        W82562   6.383  33.901   4.128
18619W        W82563  32.421  30.631   2.748
18620W        W82564   5.313  34.457   2.212
18621W        W82565  31.466  23.155   4.782
18622W        W82566  40.407  30.162  12.395
18623W        W82567  12.652  11.721   4.824
18624W        W82568  26.673  17.636  12.570
18625W        W82569  24.595  34.037   0.948
18626W        W82570  42.444  43.944  10.915
18627W        W82571  20.567  23.069  11.862
18628W        W82572  39.981  14.676   3.706
18629W        W82573   9.359  13.310  13.888
18630W        W82574  39.978  18.098  11.445
18631W        W82575  34.893  37.476  10.136
18632W        W82576  30.607  36.429   0.426
18633W        W82577  35.866   4.941   1.383
18634W        W82578   4.390  37.361  11.055
18635W        W82579  32.958  43.826   0.249
18636W        W82580   2.348  25.036  14.506
18637W        W82581  29.964  31.522   4.155
18638W        W82582  41.892   5.382   1.846
18639W        W82583  36.366  15.617   3.763
18640W        W82584  35.553  43.939   4.729
18641W        W82585  15.681  16.183  14.478
18642W        W82586   1.396   7.811   0.386
18643W        W82587  10.254  19.209  14.353
18644W        W82588   3.286  22.171  10.922
18645W        W82589  33.498  18.276   4.200
18646W        W82590  13.168  24.131  11.957
18647W        W82591  29.467  29.441   2.220
18648W        W82592  27.554  26.694  13.878
18649W        W82593  30.622   1.934   0.291
18650W        W82594  31.977  41.794  13.356
18651W        W82595  40.873  21.645  13.526
18652W        W82596  44.966  24.215   4.193
18653W        W82597  26.617  35.055  12.349
18654W        W82598  16.736  17.721   4.121
18655W        W82599  20.149  26.182  12.960
18656W        W82600  44.300  36.380  13.037
18657W        W82601  32.997   4.286   3.149
18658W        W82602   2.803  36.078  14.005
18659W        W82603  36.572  24.584   3.179
18660W        W82604   2.928  40.983  13.456
18661W        W82605  25.684   1.957  11.512
18662W        W82606  20.581  13.123  10.900
18663W        W82607  22.597  35.098  14.277
18664W        W82608  25.112  33.624  10.983
18665W        W82609  38.560   2.820  10.060
18666W        W82610  24.134  24.684   3.253
18667W        W82611  29.132  31.091  12.891
18668W        W82612  35.890  40.046  11.100
18669W        W82613   7.874   3.441   3.264
18670W        W82614   4.720  30.114  11.437
18671W        W82615   5.283  26.619   1.860
18672W        W82616   6.244  33.537   0.927
18673W        W82617   7.273  10.175   3.369
18674W        W82618  16.188  20.243   4.783
18675W        W82619  16.733   2.847  10.433
18676W        W82620   9.650  43.876   2.194
18677W        W82621  36.970  42.448  13.536
18678W        W82622  30.003  16.644   2.753
18679W        W82623  18.155  28.533   4.222
18680W        W82624  29.949  33.080   3.185
18681W        W82625  33.476   7.871   2.835
18682W        W82626   5.218  31.417  11.044
18683W        W82627   2.804  31.511  12.392
18684W        W82628  28.953  21.653   4.643
18685W        W82629  26.541  39.998   3.195
18686W        W82630  26.535   5.221   0.932
18687W        W82631  44.881   0.358   4.784
18688W        W82632  10.262  23.114   0.924
18689W        W82633  27.022  23.585   2.741
18690W        W82634  34.527   1.833  12.058
18691W        W82635  29.555  42.853   5.156
18692W        W82636  40.052  36.862  13.905
18693W        W82637  14.762  26.079  12.467
18694W        W82638  35.526  43.501   3.703
18695W        W82639  32.570   3.373   4.176
18696W        W82640   3.722  35.884   3.863
18697W        W82641   1.953  29.666  13.959
18698W        W82642   6.322   6.401  11.951
18699W        W82643  26.976  44.390  12.988
18700W        W82644  23.552  19.630  12.892
18701W        W82645  21.164  17.156  11.122
18702W        W82646  19.175   0.929   1.348
18703W        W82647   2.373  18.251   2.893
18704W        W82648  18.077  41.360  14.471
18705W        W82649   0.813  15.192   1.859
18706W        W82650  11.344  16.302  11.603
18707W        W82651  32.517   0.755   4.768
18708W        W82652  19.066   3.320  14.276
18709W        W82653  43.461  15.813  10.974
18710W        W82654  24.171  11.790  14.456
18711W        W82655   9.690   1.823  13.449
18712W        W82656  33.525  21.129   0.365
18713W        W82657   1.475   5.745   9.659
18714W        W82658  33.459  42.413   1.341
18715W        W82659  44.785  33.516   1.324
18716W        W82660  33.506  37.831   2.862
18717W        W82661  10.867  21.639  10.982
18718W        W82662  36.348  22.006   3.791
18719W        W82663   8.897  27.644   0.847
18720W        W82664  30.145  36.885   3.379
18721W        W82665  16.081  27.647   0.306
18722W        W82666  40.998  32.119   4.297
18723W        W82667  15.096  24.636  13.055
18724W        W82668   7.684  27.634   4.652
18725W        W82669  38.076  44.963   0.334
18726W        W82670  27.644  12.814   2.903
18727W        W82671   3.736  38.006   2.900
18728W        W82672  29.554   5.196  11.920
18729W        W82673  19.594  30.079   1.846
18730W        W82674  29.458   0.488  10.913
18731W        W82675  35.501   4.875   3.210
18732W        W82676  18.071   3.871   2.292
18733W        W82677  33.880   2.458   0.913
18734W        W82678  23.206   5.807   4.157
18735W        W82679   7.387   6.399   4.113
18736W        W82680  40.898   3.729   9.659
18737W        W82681  15.157  25.646   0.354
18738W        W82682  34.415  19.077   3.241
18739W        W82683  10.823  41.298   1.752
18740W        W82684  31.427  36.482  14.339
18741W        W82685  25.052  30.917   4.346
18742W        W82686  23.516  29.464  13.944
18743W        W82687  40.397  15.099  14.990
18744W        W82688  13.343  42.904  14.931
18745W        W82689   9.791  15.668   4.278
18746W        W82690  23.512  17.150  13.398
18747W        W82691  35.977  30.966   2.837
18748W        W82692  10.374   0.791  13.045
18749W        W82693   8.165  11.844  13.858
18750W        W82694  29.576  42.914  11.932
18751W        W82695  34.427  34.568   0.926
18752W        W82696   5.309  23.583  11.388
18753W        W82697  26.965   6.707  11.064
18754W        W82698  17.257  42.016  11.039
18755W        W82699   9.685   8.692   2.218
18756W        W82700  14.284  39.438   2.332
18757W        W82701  11.350  25.688   0.917
18758W        W82702  11.735  18.055  12.086
18759W        W82703  13.773  40.923   4.677
18760W        W82704   0.255  35.477  11.901
18761W        W82705  22.047   5.202   4.261
18762W        W82706  22.142  26.656   4.802
18763W        W82707   2.935   0.797  13.377
18764W        W82708  20.172  30.084   0.953
18765W        W82709  28.027   4.779   3.790
18766W        W82710  15.704  29.963   4.688
18767W        W82711   3.441  38.053   4.758
18768W        W82712  38.390  15.214  11.876
18769W        W82713  31.060  23.232  11.085
18770W        W82714  35.034  30.466  11.559
18771W        W82715   4.335  27.119   2.723
18772W        W82716  25.605  21.209   0.293
18773W        W82717  10.750  34.372   5.310
18774W        W82718   2.240   8.223  12.513
18775W        W82719  10.806  14.166   2.235
18776W        W82720  15.783  33.615  10.088
18777W        W82721  14.321  30.044  13.825
18778W        W82722  22.091  25.036  10.565
18779W        W82723  25.491  31.543  10.480
18780W        W82724  15.194  25.137  12.935
18781W        W82725   0.461   1.885  14.381
18782W        W82726  44.467  38.568   2.229
18783W        W82727  35.018  28.614   0.865
18784W        W82728  33.468  36.008  14.784
18785W        W82729  19.603  43.838  12.472
18786W        W82730  29.636  39.344  12.954
18787W        W82731  30.502  34.514  13.453
18788W        W82732  13.608   9.173  14.803
18789W        W82733  11.299  26.610  14.894
18790W        W82734  18.185  42.446   1.697
18791W        W82735  33.088   8.680   4.797
18792W        W82736  41.402   3.798   5.268
18793W        W82737  38.491  15.679  13.334
18794W        W82738   2.726  42.902  14.794
18795W        W82739  42.399  15.180   3.357
18796W        W82740  34.523  35.923   4.281
18797W        W82741   0.805  42.498   1.301
18798W        W82742  24.681   6.785  13.938
18799W        W82743   6.391  17.119  11.869
18800W        W82744  24.697   8.782   0.885
18801W        W82745  16.717  27.614  14.896
18802W        W82746   1.922  24.084   1.444
18803W        W82747   0.973  29.476   0.247
18804W        W82748  43.308   3.805   4.305
18805W        W82749  17.098   1.355  12.026
18806W        W82750  26.025  19.760  12.372
18807W        W82751  15.623  11.213   2.757
18808W        W82752  33.465  18.238  13.536
18809W        W82753  34.370  43.387   0.312
18810W        W82754   2.259  20.712   1.443
18811W        W82755  12.301   2.964   1.825
18812W        W82756  17.607   9.781   9.479
18813W        W82757  34.470  19.085  14.940
18814W        W82758   6.864   1.440  14.387
18815W        W82759  33.406  32.098  14.759
18816W        W82760  35.597  41.921   4.143
18817W        W82761  44.796  36.553   0.371
18818W        W82762   6.274   1.786   0.459
18819W        W82763  30.640  38.455   2.271
18820W        W82764   8.683  36.498  13.000
18821W        W82765   6.910   8.306   4.213
18822W        W82766  43.321  29.463   3.264
18823W        W82767  36.960  24.595  12.460
18824W        W82768  10.325   3.836   5.096
18825W        W82769  22.620  19.222  11.509
18826W        W82770  25.640   8.839   4.715
18827W        W82771  40.463  35.366  13.834
18828W        W82772  38.894   0.776  12.888
18829W        W82773  13.785  32.099  13.310
18830W        W82774   6.361  31.951  10.067
18831W        W82775  29.987  26.985  14.500
18832W        W82776  40.899  21.135   0.911
18833W        W82777  40.432   1.820  12.870
18834W        W82778  33.062  19.572  12.410
18835W        W82779  27.084  44.340   1.292
18836W        W82780   8.895  42.834   5.304
18837W        W82781  37.002  25.993  13.359
18838W        W82782   0.388  22.138  11.963
18839W        W82783  14.245  22.060   4.775
18840W        W82784   2.377  30.426   5.203
18841W        W82785  38.927  13.266   0.430
18842W        W82786  44.495  24.110   3.209
18843W        W82787  22.638   0.455   0.379
18844W        W82788  12.852   5.703  12.508
18845W        W82789  21.677  42.788   3.244
18846W        W82790  38.525  39.059  14.507
18847W        W82791  16.290  42.908  10.491
18848W        W82792  12.130  15.820   3.356
18849W        W82793  25.040  22.515   5.094
18850W        W82794  13.290  30.516  10.896
18851W        W82795  26.685  15.623  10.116
18852W        W82796  38.874   2.233   1.819
18853W        W82797   8.811  33.982   4.254
18854W        W82798  30.056  22.057   4.813
18855W        W82799  34.577  14.116   3.172
18856W        W82800  41.945  19.237   0.914
18857W        W82801   2.877  25.990   1.325
18858W        W82802  16.640  41.843   2.838
18859W        W82803   6.296   1.384   2.744
18860W        W82804  11.769  13.666  13.024
18861W        W82805  29.954   1.855  10.970
18862W        W82806  15.267  14.661  14.838
18863W        W82807   2.240   7.230  11.401
18864W        W82808  13.264  43.470   2.239
18865W        W82809   2.338  10.706   2.800
18866W        W82810   0.813  41.041  12.971
18867W        W82811  16.180   6.318  11.028
18868W        W82812  17.275  15.105  11.889
18869W        W82813  14.296  41.349   1.877
18870W        W82814   4.365  13.348   1.823
18871W        W82815  20.081   6.775  12.349
18872W        W82816  19.143  29.434   3.672
18873W        W82817  14.175  11.226  11.881
18874W        W82818  39.526  40.054   0.329
18875W        W82819  19.148   9.831  14.420
18876W        W82820  12.768  31.559  14.318
18877W        W82821  32.983   7.386   3.225
18878W        W82822  20.535  43.342  14.298
18879W        W82823   1.832   1.447  13.063
18880W        W82824  35.401  30.657   0.444
18881W        W82825  39.514  24.076   2.844
18882W        W82826  35.989   3.922  13.939
18883W        W82827  21.198  23.516  13.975
18884W        W82828  19.644  44.858   4.152
18885W        W82829  24.496  13.344   3.745
18886W        W82830  37.856   1.348  13.492
18887W        W82831  22.670  36.437   0.767
18888W        W82832  27.543   9.789   2.297
18889W        W82833  14.189  41.980  11.555
18890W        W82834  32.025  38.992  13.531
18891W        W82835  39.376   7.234  10.025
18892W        W82836  11.152  23.622   4.801
18893W        W82837  16.738   0.956   1.338
18894W        W82838  42.782  32.497   4.120
18895W        W82839  19.236   4.881  13.437
18896W        W82840   7.241  19.274   4.752
18897W        W82841  39.506  39.347   0.825
18898W        W82842   3.922  33.097   0.245
18899W        W82843  11.253   5.382   3.792
18900W        W82844  23.023   4.928  14.772
18901W        W82845   3.946  39.820  10.939
18902W        W82846  19.584  40.918   1.919
18903W        W82847  41.529  42.944  11.381
18904W        W82848   9.244   8.270   1.907
18905W        W82849  11.669  15.596   2.876
18906W        W82850  22.573   3.450  10.406
18907W        W82851  39.329   7.316   2.213
18908W        W82852  24.072  41.834   1.698
18909W        W82853  16.290  34.028  12.454
18910W        W82854  19.261  38.466   1.753
18911W        W82855  11.639  42.793   3.349
18912W        W82856  17.200  28.453   0.261
18913W        W82857  19.599  24.667  14.316
18914W        W82858   2.779  15.240  10.541
18915W        W82859  32.969   8.342  12.368
18916W        W82860  17.640  33.472  10.429
18917W        W82861  43.945  26.033  13.326
18918W        W82862  12.281  20.549   0.312
18919W        W82863   1.969  16.187   4.772
18920W        W82864  29.993   4.816  13.541
18921W        W82865   9.713   9.267  11.490
18922W        W82866  10.723  21.106   3.829
18923W        W82867   1.312  23.006   4.239
18924W        W82868  15.109  23.664   3.784
18925W        W82869  15.610  28.966  11.488
18926W        W82870  37.508  17.620   3.855
18927W        W82871  37.919  29.950   3.862
18928W        W82872   5.434  20.633  12.827
18929W        W82873  36.906   1.783   3.169
18930W        W82874   3.215  23.207   2.216
18931W        W82875  40.023  25.612   0.285
18932W        W82876  42.426  21.242  13.493
18933W        W82877   6.793  29.026  13.545
18934W        W82878  15.584   2.415   2.191
18935W        W82879  29.482  25.664   4.703
18936W        W82880   0.459   3.755  10.961
18937W        W82881  23.110  43.871   2.200
18938W        W82882  24.165   1.834  10.589
18939W        W82883  26.683  31.439  13.024
18940W        W82884  21.049  16.606   9.951
18941W        W82885  32.465  13.351   2.855
18942W        W82886  43.354  20.594  13.492
18943W        W82887   1.422   4.707  11.053
18944W        W82888   5.710  24.688  13.031
18945W        W82889  26.557  31.904  11.936
18946W        W82890   3.748  28.046   1.696
18947W        W82891  21.746   9.299  12.972
18948W        W82892   4.373  44.791   4.301
18949W        W82893  19.154  11.156   4.814
18950W        W82894  37.052   7.259  11.594
18951W        W82895  14.660  40.938   2.349
18952W        W82896   9.699  43.431  10.508
18953W        W82897  15.615  35.875  14.496
18954W        W82898  29.518  26.011   1.276
18955W        W82899  35.437   9.174   0.868
18956W        W82900  11.191   9.229   0.938
18957W        W82901  35.999  41.923  12.834
18958W        W82902  40.485  35.503   3.266
18959W        W82903  42.804  44.276  14.440
18960W        W82904  24.105  23.231   1.373
18961W        W82905   2.787  19.045  11.080
18962W        W82906  39.814  30.163   1.914
18963W        W82907  25.673  19.634   3.270
18964W        W82908  28.517   2.911  10.639
18965W        W82909   4.314   3.293   2.850
18966W        W82910  18.135  13.822  12.057
18967W        W82911   3.443   2.858  11.511
18968W        W82912  23.679  39.546  14.276
18969W        W82913  39.018  21.539  11.933
18970W        W82914  39.053  30.499   4.834
18971W        W82915   4.897   2.306  14.856
18972W        W82916   4.206  28.543  11.101
18973W        W82917  41.487   9.827   1.315
18974W        W82918  21.241  14.267   4.825
18975W        W82919  17.148  40.044   3.820
18976W        W82920  13.674  35.878  13.533
18977W        W82921  13.319  41.792  10.485
18978W        W82922  38.919  10.879   4.192
18979W        W82923   5.799  44.951  11.436
18980W        W82924   7.204  27.617  10.539
18981W        W82925  11.259   6.837  14.384
18982W        W82926  13.203  34.092   0.430
18983W        W82927  38.056  42.442  14.771
18984W        W82928  26.081  12.207   3.862
18985W        W82929  15.678  38.034   3.687
18986W        W82930  40.878  43.834   1.839
18987W        W82931  43.962  38.500   4.666
18988W        W82932  37.876   9.715  11.083
18989W        W82933  30.576  41.346   3.364
18990W        W82934   1.768  11.274  14.329
18991W        W82935  23.621  39.910  11.870
18992W        W82936  13.731  25.108  14.472
18993W        W82937  30.607  13.820  11.383
18994W        W82938  18.283   8.305   4.121
18995W        W82939   9.780  24.208  11.121
18996W        W82940  26.014  13.138   2.764
18997W        W82941  39.384  31.134   3.307
18998W        W82942  23.736  35.860  13.472
18999W        W82943   5.351  15.223  13.905
19000W        W82944   3.260  16.642  11.011
19001W        W82945  16.572  30.652   1.418
19002W        W82946  28.561   2.417   3.803
19003W        W82947   9.778  32.602   9.657
19004W        W82948  37.374  42.311   2.701
19005W        W82949  29.135  13.328  10.941
19006W        W82950  39.517  36.991   1.735
19007W        W82951  40.994   7.321   4.738
19008W        W82952  14.341  37.371   1.747
19009W        W82953   9.870   8.657   4.649
19010W        W82954  40.434  44.939  13.482
19011W        W82955  26.679  32.064  13.992
19012W        W82956  31.459  42.924   2.820
19013W        W82957  13.674   0.267  14.983
19014W        W82958  17.768   1.735  13.034
19015W        W82959  10.318  36.527  12.493
19016W        W82960  22.561  16.102  14.758
19017W        W82961  34.046   4.895  10.618
19018W        W82962  29.529  37.836   0.370
19019W        W82963  26.539  19.754  12.472
19020W        W82964  33.615  44.891   4.657
19021W        W82965  35.574  32.963  10.520
19022W        W82966   0.283  28.181   3.386
19023W        W82967  35.050   8.163   1.256
19024W        W82968  44.783   8.325   2.885
19025W        W82969  35.494   4.819   2.723
19026W        W82970   6.260   7.204  11.940
19027W        W82971  44.903  19.161   4.198
19028W        W82972  41.953  42.414   0.871
19029W        W82973   8.765  10.864  11.607
19030W        W82974  31.049  19.633   3.815
19031W        W82975  44.919  19.685  11.468
19032W        W82976  27.568  35.417   2.297
19033W        W82977   1.880  27.617  11.102
19034W        W82978  12.227  33.565   3.773
19035W        W82979  11.815   9.768   2.313
19036W        W82980  19.187   0.777  11.931
19037W        W82981  40.370  18.663   3.255
19038W        W82982  19.706   1.938   1.280
19039W        W82983   0.850  29.572   5.150
19040W        W82984  31.049  22.693  12.002
19041W        W82985  33.506  42.963   2.727
19042W        W82986  21.038  31.475  12.914
19043W        W82987  36.591  24.598   0.834
19044W        W82988   9.185  14.716   1.752
19045W        W82989  25.555  38.494   4.616
19046W        W82990  38.973  34.433  12.044
19047W        W82991  34.015  24.504   3.825
19048W        W82992   7.380  44.403   1.285
19049W        W82993  35.891  39.018  12.965
19050W        W82994  10.303  18.549  11.416
19051W        W82995  13.156  16.648   2.291
19052W        W82996  29.171  44.977  12.950
19053W        W82997  42.501  42.958   2.799
19054W        W82998  32.500  34.044  11.594
19055W        W82999  41.999  13.679  11.033
19056W        W83000  13.693  28.943   0.777
19057W        W83001   4.310  38.410   1.818
19058W        W83002  28.618  22.522   0.317
19059W        W83003  39.460   0.851   3.298
19060W        W83004  40.956  17.696   4.298
19061W        W83005  22.167  41.974   4.147
19062W        W83006  44.766  36.548   0.828
19063W        W83007  14.824   8.764   0.867
19064W        W83008  19.196  15.617   2.312
19065W        W83009   4.715  39.914  12.523
19066W        W83010   3.360  41.447  12.873
19067W        W83011   4.394   6.905  11.120
19068W        W83012  12.686  22.546   1.374
19069W        W83013   4.384  30.580   4.341
19070W        W83014  32.460   3.879  14.347
19071W        W83015  15.247  24.658   1.703
19072W        W83016  10.638  27.947  10.946
19073W        W83017  19.538  26.084   3.800
19074W        W83018  39.500  30.156   1.383
19075W        W83019  35.438   5.319  14.768
19076W        W83020  34.011  40.376  12.430
19077W        W83021  20.228  26.623   4.779
19078W        W83022   8.737  29.958   3.297
19079W        W83023   6.752  30.461   1.281
19080W        W83024  43.849   7.669   3.812
19081W        W83025  37.958  25.986  13.385
19082W        W83026  35.587  39.381   3.146
19083W        W83027  19.736   9.205   4.721
19084W        W83028  13.646  16.290  11.061
19085W        W83029  13.301  32.619   5.707
19086W        W83030   3.912   3.409  12.035
19087W        W83031  28.930  17.558  14.326
19088W        W83032   1.256  32.997   0.756
19089W        W83033  36.550  22.547  11.873
19090W        W83034   9.831  24.710   2.715
19091W        W83035  18.079   9.803   0.471
19092W        W83036   8.278   9.776   3.779
19093W        W83037  39.322  30.550  13.063
19094W        W83038  29.110   8.816   2.335
19095W        W83039   8.257  22.569  14.813
19096W        W83040  10.786   7.378   2.861
19097W        W83041   8.350  28.147   2.673
19098W        W83042  26.640  16.172   3.265
19099W        W83043  39.947  32.984   1.857
19100W        W83044  31.470  26.155  14.354
19101W        W83045  12.758  20.044  13.039
19102W        W83046  33.061  39.890   3.849
19103W        W83047  43.450  38.057   2.221
19104W        W83048  18.146  43.781   1.215
19105W        W83049  13.178   7.685  12.477
19106W        W83050  26.049  30.948  11.113
19107W        W83051  36.045   0.901  13.315
19108W        W83052  12.613   5.389  14.842
19109W        W83053   0.969   6.285   0.415
19110W        W83054  18.615  11.215   5.193
19111W        W83055  26.636   7.876  10.978
19112W        W83056  11.244  30.113   0.329
19113W        W83057  29.568  23.690  13.816
19114W        W83058  28.607   1.840   4.179
19115W        W83059  16.304  31.930   5.114
19116W        W83060  16.713  37.859  13.910
19117W        W83061   9.713   5.330   2.888
19118W        W83062   0.268  44.324  10.892
19119W        W83063   4.246   4.848  11.973
19120W        W83064  38.354   0.877  14.495
19121W        W83065  26.099  37.911   0.356
19122W        W83066  22.544  42.448   2.353
19123W        W83067   0.257  13.120   2.354
19124W        W83068  13.147  10.724  12.544
19125W        W83069   5.429   6.753  11.923
19126W        W83070   7.828  29.143  13.832
19127W        W83071  25.661  23.606   1.819
19128W        W83072  34.935  17.797   1.238
19129W        W83073   3.325  17.162  13.028
19130W        W83074  32.087  35.881  13.899
19131W        W83075  21.127  33.017   3.160
19132W        W83076   4.330  12.833  14.961
19133W        W83077  10.848  25.111   4.751
19134W        W83078  18.295   0.337   1.840
19135W        W83079  11.353  11.226  12.396
19136W        W83080  26.195  27.050  13.496
19137W        W83081  38.370  22.727  11.069
19138W        W83082   8.225  42.924   0.919
19139W        W83083  24.038  15.796  13.058
19140W        W83084  43.334   7.271  13.894
19141W        W83085  17.124  29.563   3.194
19142W        W83086  42.438  39.432  11.404
19143W        W83087  13.791  10.148   2.384
19144W        W83088  38.018   8.204  10.606
19145W        W83089  13.297  42.862  10.028
19146W        W83090   9.271  11.631   4.699
19147W        W83091   0.415   8.758   1.369
19148W        W83092  16.744  38.425  13.879
19149W        W83093  22.041  20.075   4.823
19150W        W83094   2.754   9.256   2.763
19151W        W83095  33.557  31.900  13.456
19152W        W83096  39.815  35.524   1.319
19153W        W83097  40.336  44.852   4.149
19154W        W83098   3.384  25.640   4.838
19155W        W83099   5.268   4.426  10.988
19156W        W83100  18.728  35.870  13.428
19157W        W83101   5.418  12.819   2.773
19158W        W83102  13.612   5.818   2.268
19159W        W83103  30.092  41.896   1.311
19160W        W83104  30.650  27.183  13.861
19161W        W83105  24.547   6.915   0.296
19162W        W83106  31.125   3.922   3.826
19163W        W83107  27.479   7.220  14.363
19164W        W83108  26.122  12.137   0.294
19165W        W83109  44.481  26.547   1.214
19166W        W83110   3.885  17.719  11.532
19167W        W83111  29.089   3.227   3.750
19168W        W83112  32.514  24.131   3.781
19169W        W83113  24.208   5.704  11.612
19170W        W83114  29.427   7.250  11.862
19171W        W83115  24.016  27.553  10.413
19172W        W83116  19.739  19.231   2.734
19173W        W83117  27.550  27.995  10.589
19174W        W83118   8.324  31.533   0.940
19175W        W83119  27.528  18.252  13.361
19176W        W83120  10.215   6.304  12.848
19177W        W83121  16.754  38.997   1.333
19178W        W83122  28.585  38.563   0.364
19179W        W83123  42.858   0.377   2.733
19180W        W83124  28.024  19.282   4.267
19181W        W83125  11.212   3.915  11.451
19182W        W83126  12.336   4.898  14.768
19183W        W83127  17.064  44.811   0.323
19184W        W83128   1.905  44.371   2.242
19185W        W83129  20.151   7.366   5.112
19186W        W83130  20.031   0.751   4.248
19187W        W83131  11.303   9.226  11.867
19188W        W83132  36.941  39.915  11.384
19189W        W83133   0.769  33.917   3.226
19190W        W83134   2.845  18.225   2.750
19191W        W83135   6.355  37.396  10.017
19192W        W83136  19.221  44.295  12.429
19193W        W83137   3.785  35.475   2.687
19194W        W83138  33.036  13.622  12.847
19195W        W83139  19.247   3.931   2.257
19196W        W83140   7.873   5.277  13.372
19197W        W83141  38.855  28.974  14.307
19198W        W83142  43.785  19.139  12.935
19199W        W83143  23.674  19.149   3.820
19200W        W83144  24.188   8.661  12.902
19201W        W83145  30.556  43.811  12.939
19202W        W83146  30.095  23.538   0.891
19203W        W83147  31.473  12.762   3.689
19204W        W83148  26.669  10.214  13.063
19205W        W83149  27.569  27.983  12.883
19206W        W83150  41.493  41.466   2.823
19207W        W83151  41.498  23.512  13.534
19208W        W83152  19.712   2.429   3.656
19209W        W83153  37.055   2.397  10.026
19210W        W83154  37.480  31.536  12.484
19211W        W83155  41.499  31.911   4.753
19212W        W83156  22.130  32.475  14.930
19213W        W83157   0.440  14.646   4.790
19214W        W83158  24.129  44.493   2.299
19215W        W83159  37.872  38.980   2.212
19216W        W83160  41.442  16.152  11.488
19217W        W83161  37.342  17.260   2.404
19218W        W83162  25.164   3.407   2.333
19219W        W83163  19.049  33.539  13.479
19220W        W83164  11.812  35.029   3.229
19221W        W83165  20.190  34.942  11.514
19222W        W83166   5.360  24.590  14.507
19223W        W83167  37.551  38.448  14.416
19224W        W83168   9.265  44.348   0.770
19225W        W83169  43.852   3.408  10.982
19226W        W83170  26.051  12.717   2.315
19227W        W83171   1.355  29.531   3.289
19228W        W83172  13.190  33.564   5.741
19229W        W83173  39.344  28.649   3.871
19230W        W83174  17.206  33.087  13.466
19231W        W83175  36.933   4.292  13.409
19232W        W83176  17.562  35.368  13.023
19233W        W83177  43.361   8.384  14.468
19234W        W83178   1.429  34.402  14.965
19235W        W83179  17.183  42.366  12.475
19236W        W83180  26.662  10.744   3.168
19237W        W83181  13.608  44.401  11.901
19238W        W83182  13.215  26.116  12.576
19239W        W83183  39.865   2.819   0.414
19240W        W83184  38.521  10.730   3.384
19241W        W83185  36.978  26.130  14.322
19242W        W83186  42.512  38.497   2.866
19243W        W83187   6.845  36.850   0.962
19244W        W83188  31.966  40.942   3.246
19245W        W83189   7.665  30.022   3.222
19246W        W83190  32.081  39.441   3.643
19247W        W83191  11.282  31.145   2.407
19248W        W83192  30.105  19.258   4.826
19249W        W83193  36.856  30.062   4.121
19250W        W83194   4.773  10.701   0.884
19251W        W83195  29.550  37.388   2.287
19252W        W83196  24.709   7.714  13.814
19253W        W83197   7.772   2.356   0.839
19254W        W83198  16.740  18.594  14.783
19255W        W83199  28.147  14.729   4.835
19256W        W83200  12.305  29.950   0.305
19257W        W83201  12.723  11.670   0.347
19258W        W83202  19.775  19.051   4.185
19259W        W83203   5.252  20.601   3.781
19260W        W83204  44.838  44.286  10.121
19261W        W83205  43.892  33.489   0.410
19262W        W83206  28.473  18.276   0.781
19263W        W83207  32.585  42.316   3.373
19264W        W83208  43.850   2.946  14.278
19265W        W83209  17.780  36.016   2.236
19266W        W83210  37.437  30.929   4.780
19267W        W83211  10.851   8.338   4.337
19268W        W83212  39.036  39.924  14.372
19269W        W83213  19.673  29.066  13.312
19270W        W83214   7.825  28.091   1.350
19271W        W83215  19.071  43.997  10.905
19272W        W83216  28.165  44.991  14.937
19273W        W83217   4.239   8.865  12.919
19274W        W83218  31.103  20.663   1.260
19275W        W83219  33.588  44.919  10.937
19276W        W83220   7.416  12.825  12.848
19277W        W83221  27.452   2.370   0.355
19278W        W83222   1.946  13.764  10.407
19279W        W83223  33.997   0.482   1.753
19280W        W83224   1.827  18.779   1.298
19281W        W83225  39.025  12.262   1.735
19282W        W83226   4.331  30.635  11.016
19283W        W83227  11.785  27.469   2.242
19284W        W83228   5.769  14.326  13.905
19285W        W83229  12.849  42.832   5.248
19286W        W83230   4.440   8.353  12.368
19287W        W83231   3.735  17.253   3.788
19288W        W83232  42.030  35.036   4.755
19289W        W83233  24.185   2.447  13.894
19290W        W83234  23.225  22.059  14.514
19291W        W83235  31.915  31.485  11.451
19292W        W83236   6.211  20.618  14.394
19293W        W83237  14.600  19.776  13.989
19294W        W83238   6.385  31.121  12.558
19295W        W83239  16.303  35.918  11.974
19296W        W83240  26.167  29.424  10.614
19297W        W83241   9.153   6.255   5.221
19298W        W83242  41.001  20.625  13.351
19299W        W83243  40.922  29.603  10.443
19300W        W83244  26.606  32.572   1.305
19301W        W83245  15.127  34.064   4.271
19302W        W83246   2.229   3.720  12.911
19303W        W83247   9.221  29.482   4.836
19304W        W83248  42.841  30.098  12.046
19305W        W83249  39.995  26.207  13.001
19306W        W83250  42.901   7.266   0.882
19307W        W83251  26.145  18.198  13.401
19308W        W83252   5.332  30.526  13.508
19309W        W83253  39.027  32.103  11.935
19310W        W83254   9.361  28.531  14.766
19311W        W83255  36.560  20.099  11.015
19312W        W83256  10.744  36.427  11.063
19313W        W83257  19.733  21.104  13.419
19314W        W83258   0.880  43.848   0.794
19315W        W83259   6.311  41.966  14.453
19316W        W83260   0.429  39.901  14.023
19317W        W83261  32.137   6.835   4.299
19318W        W83262   0.756   3.882  13.538
19319W        W83263   2.323   0.274   3.299
19320W        W83264  42.822  12.160   0.883
19321W        W83265  11.274  16.655  14.003
19322W        W83266  19.235  30.969   0.401
19323W        W83267  39.420  42.793   4.742
19324W        W83268  32.414   5.406  12.461
19325W        W83269  44.422  38.341  11.434
19326W        W83270  10.156   6.389   1.331
19327W        W83271  35.930   7.265   4.126
19328W        W83272  28.580   4.752   3.194
19329W        W83273  28.108  25.519   1.443
19330W        W83274  28.483  30.961   1.839
19331W        W83275  15.719  22.621   4.134
19332W        W83276   1.756  19.649   0.748
19333W        W83277  15.243  12.648   1.233
19334W        W83278  28.096  14.698  11.373
19335W        W83279  13.182  13.750   4.796
19336W        W83280  27.690  35.031   3.166
19337W        W83281  14.298  41.934   4.786
19338W        W83282  32.513  19.070  11.909
19339W        W83283  25.578  22.667   3.662
19340W        W83284  31.512  26.595  10.135
19341W        W83285  28.007  36.083  14.425
19342W        W83286  43.021  42.300   2.312
19343W        W83287  33.913  39.471  10.513
19344W        W83288   0.436  22.107  14.446
19345W        W83289  23.623  16.805  12.480
19346W        W83290  35.917  33.419  12.014
19347W        W83291  33.997  41.430  14.023
19348W        W83292  38.956  44.919   2.815
19349W        W83293  30.619  18.224   2.225
19350W        W83294  16.169  12.689  11.472
19351W        W83295  34.372  22.243  14.352
19352W        W83296  35.540  19.156  10.534
19353W        W83297  11.150  14.145  13.986
19354W        W83298  32.465  29.153   3.686
19355W        W83299  22.173   8.785  12.371
19356W        W83300  19.544  32.619  13.970
19357W        W83301  37.362   4.879   4.790
19358W        W83302  34.920  38.822   0.276
19359W        W83303  29.005  26.631  14.363
19360W        W83304  43.370  36.040   4.353
19361W        W83305   7.252  23.511   1.435
19362W        W83306  23.540   0.277   4.792
19363W        W83307   7.728  39.460   3.657
19364W        W83308  13.336   6.795  13.397
19365W        W83309  11.332  18.066   3.648
19366W        W83310   3.420  27.176  11.127
19367W        W83311   4.932  30.004  12.997
19368W        W83312  35.006   7.874   2.834
19369W        W83313   2.412  25.117   2.739
19370W        W83314   9.229  34.461  11.039
19371W        W83315  15.794  24.069  10.890
19372W        W83316  17.734  11.814  13.365
19373W        W83317  38.038  28.950   2.272
19374W        W83318  36.041  23.220  14.872
19375W        W83319  39.555  31.002   1.321
19376W        W83320  12.336  42.838   0.736
19377W        W83321  36.518  29.080   1.851
19378W        W83322  36.391  32.441   0.957
19379W        W83323  21.134   9.832   3.790
19380W        W83324  14.730  38.839   2.726
19381W        W83325  10.870  18.252   1.331
19382W        W83326  19.566  38.485   1.731
19383W        W83327  20.162  43.425   2.351
19384W        W83328  41.296   4.724   1.373
19385W        W83329  13.796  32.987  13.846
19386W        W83330  26.031  42.367   0.280
19387W        W83331  37.380   7.848   2.667
19388W        W83332  31.419  44.488   3.353
19389W        W83333  26.115  24.057  11.502
19390W        W83334  42.989  27.550  11.454
19391W        W83335  41.906  12.271   0.410
19392W        W83336  17.138  26.664  11.053
19393W        W83337  37.874  14.199   0.443
19394W        W83338  32.393  20.610   1.400
19395W        W83339   9.168  40.846  12.953
19396W        W83340   0.257  44.851   0.331
19397W        W83341  20.071  39.916  12.397
19398W        W83342  26.158  23.552   1.797
19399W        W83343  41.534  41.507   3.642
19400W        W83344  33.963   8.292  10.947
19401W        W83345  16.319  42.283   2.762
19402W        W83346  23.157   7.890   3.779
19403W        W83347  33.016   3.740   3.848
19404W        W83348  39.917  21.148  14.032
19405W        W83349  12.212  25.650   3.296
19406W        W83350   4.728  11.194   3.316
19407W        W83351   1.238  36.384  11.414
19408W        W83352  17.170  16.601   2.753
19409W        W83353  40.458  41.971  13.515
19410W        W83354  26.158  17.667  10.405
19411W        W83355  13.225  35.914   3.214
19412W        W83356  31.947  35.108  10.906
19413W        W83357  43.955  44.760  10.529
19414W        W83358  36.852  44.002   4.814
19415W        W83359   1.903  29.507   4.777
19416W        W83360  35.065  14.151  13.801
19417W        W83361  31.068  13.121   4.820
19418W        W83362  11.307  24.637   2.199
19419W        W83363  42.787   1.356  14.806
19420W        W83364  18.750  32.579   3.280
19421W        W83365  29.638   2.751  12.442
19422W        W83366   7.887  41.004  10.432
19423W        W83367  32.048  38.427  12.048
19424W        W83368  28.983  32.988  14.513
19425W        W83369  19.663   9.268   4.166
19426W        W83370  23.718   8.785   2.769
19427W        W83371  16.105   6.288  12.935
19428W        W83372   7.370  29.095  11.612
19429W        W83373   3.845  26.563   0.296
19430W        W83374  33.390  29.451   4.759
19431W        W83375  36.050  21.617   2.324
19432W        W83376  42.029  10.879  13.952
19433W        W83377  27.978   8.858   3.770
19434W        W83378  43.492   9.153   2.266
19435W        W83379  23.505  15.619   2.825
19436W        W83380   9.853   6.288  11.539
19437W        W83381  39.867  29.093  11.388
19438W        W83382  21.024  20.084  12.526
19439W        W83383  37.547  11.686  13.048
19440W        W83384  15.642   1.357  11.939
19441W        W83385  38.350  19.276  12.409
19442W        W83386   1.961   8.355   2.338
19443W        W83387  32.134  31.528   0.298
19444W        W83388  21.019  30.504   2.406
19445W        W83389  11.814  43.824  13.365
19446W        W83390  39.054  40.430   0.432
19447W        W83391  41.035   2.777   3.146
19448W        W83392  13.832   6.258   4.326
19449W        W83393  28.452  35.036  11.913
19450W        W83394  30.567  23.994  10.627
19451W        W83395   6.717   1.815   3.146
19452W        W83396  22.740  11.324   3.815
19453W        W83397  15.101  33.090  13.442
19454W        W83398  35.507   9.888  14.878
19455W        W83399  31.064   4.760  11.901
19456W        W83400  23.708   1.778  12.091
19457W        W83401  23.156  17.096   4.638
19458W        W83402  13.273  14.202  10.074
19459W        W83403  25.201  23.585  14.896
19460W        W83404  22.572  17.091   3.745
19461W        W83405  25.631  20.640  11.434
19462W        W83406  36.408  33.880   3.317
19463W        W83407  11.705  32.538   1.783
19464W        W83408   6.200  36.442   2.323
19465W        W83409  13.747  16.751  14.917
19466W        W83410  38.351   5.767   5.153
19467W        W83411  32.956  13.639   2.806
19468W        W83412  33.445  17.672   4.837
19469W        W83413  25.980   3.432  13.033
19470W        W83414  26.075  34.940  12.450
19471W        W83415  36.965  28.999  13.046
19472W        W83416  35.532   5.193  14.029
19473W        W83417  25.600  35.013  14.967
19474W        W83418  43.501   5.399  14.887
19475W        W83419  41.374  10.760  14.400
19476W        W83420  16.228   2.866   2.204
19477W        W83421   7.793   6.358  13.488
19478W        W83422  40.517  36.894   3.232
19479W        W83423  37.409  44.495   3.258
19480W        W83424  21.245   3.853  13.405
19481W        W83425  29.989   7.366  13.976
19482W        W83426  37.966  42.855   0.309
19483W        W83427  37.355   3.934  14.890
19484W        W83428  42.416  23.030   2.297
19485W        W83429  41.427  33.887   3.258
19486W        W83430   6.200  22.630  11.008
19487W        W83431   1.483  16.628   2.899
19488W        W83432  10.238  30.506  14.493
19489W        W83433  34.922  32.398   4.242
19490W        W83434  39.488  26.641   0.865
19491W        W83435  25.130   1.401  14.480
19492W        W83436   6.363  19.053  14.020
19493W        W83437  38.877  41.509   4.147
19494W        W83438  42.927  31.498   3.650
19495W        W83439  20.569   2.952   2.252
19496W        W83440  44.277   2.419  14.962
19497W        W83441  16.192  35.360  14.025
19498W        W83442  40.052   4.702   1.239
19499W        W83443  14.613  24.711   2.777
19500W        W83444  32.889  30.650  12.845
19501W        W83445  13.721  38.902  12.085
19502W        W83446  32.990   9.300   2.720
19503W        W83447  21.105  35.490   3.689
19504W        W83448  31.510  30.907   0.873
19505W        W83449   9.726  28.083  13.944
19506W        W83450  41.515  13.656  13.824
19507W        W83451   8.735  21.074  10.984
19508W        W83452   0.784  16.276  12.542
19509W        W83453  34.387   9.653  12.391
19510W        W83454  34.521  28.091  14.990
19511W        W83455  31.528  33.408  14.926
19512W        W83456  15.688  27.953   0.794
19513W        W83457  20.074  20.554   3.368
19514W        W83458  40.936  44.912  12.425
19515W        W83459  21.546   6.341   3.366
19516W        W83460   2.736  29.639  12.090
19517W        W83461   0.922  26.049   1.717
19518W        W83462  40.838  25.039  12.839
19519W        W83463  43.831  11.305  12.069
19520W        W83464  18.545  27.677   0.870
19521W        W83465  10.701   7.749  10.477
19522W        W83466  35.892   5.412  11.031
19523W        W83467  29.093  32.889  12.350
19524W        W83468   7.846  21.748  10.527
19525W        W83469  22.718   1.428  11.086
19526W        W83470  28.976   8.848   2.790
19527W        W83471  20.091  26.192  14.290
19528W        W83472  21.189   9.232  10.419
19529W        W83473  30.057  14.745  10.924
19530W        W83474  33.417  18.270   2.773
19531W        W83475  41.435  16.784  11.967
19532W        W83476  36.851  33.030  14.796
19533W        W83477  24.084   0.869  10.589
19534W        W83478  31.931  22.101  14.950
19535W        W83479  16.731  26.105  10.943
19536W        W83480  26.199  22.518  11.037
19537W        W83481  10.670  21.033  11.093
19538W        W83482   5.726  27.481   4.115
19539W        W83483  21.720  10.633   1.846
19540W        W83484  24.606  31.505  10.585
19541W        W83485  15.156   4.730  13.039
19542W        W83486  24.181  31.559   0.433
19543W        W83487  14.103   8.795  11.593
19544W        W83488   9.334  34.567  13.359
19545W        W83489  39.508   1.440  10.446
19546W        W83490   7.906  22.608  13.868
19547W        W83491  33.039  26.465   0.822
19548W        W83492   5.217  20.766  10.556
19549W        W83493  23.493  10.638   2.759
19550W        W83494  40.513  44.836  12.937
19551W        W83495  37.346   7.893  12.524
19552W        W83496  38.855   7.243   3.207
19553W        W83497  22.179  40.471  11.475
19554W        W83498  23.006   2.748   0.363
19555W        W83499  44.868   9.651  12.072
19556W        W83500   1.331  19.776  14.842
19557W        W83501   4.373   3.820  10.554
19558W        W83502   9.186   9.302   2.348
19559W        W83503  37.438   1.786  12.043
19560W        W83504  10.252   7.174   4.175
19561W        W83505   9.889   3.309  12.546
19562W        W83506  33.983  42.352  11.026
19563W        W83507  12.722   6.695   2.753
19564W        W83508   8.239  37.991   4.128
19565W        W83509  37.884  31.971   3.827
19566W        W83510  23.129  27.958   1.386
19567W        W83511   0.471  19.232  13.852
19568W        W83512   2.344  35.971   1.299
19569W        W83513  16.784  38.462   1.284
19570W        W83514   8.745  20.251   4.725
19571W        W83515  35.546  12.845   0.303
19572W        W83516  29.990   3.361  13.527
19573W        W83517  26.065   3.307   1.429
19574W        W83518  16.726  44.399  12.368
19575W        W83519  11.650  35.501   4.157
19576W        W83520   3.848  38.367   2.856
19577W        W83521  25.659  27.539  11.457
19578W        W83522  12.149  11.697   3.762
19579W        W83523  30.120  40.464   3.841
19580W        W83524  14.656  28.011   3.340
19581W        W83525  23.526  20.705   2.414
19582W        W83526  43.859  12.196  11.374
19583W        W83527  28.978  37.440  11.989
19584W        W83528  21.575  35.027  14.003
19585W        W83529  33.982  31.643  11.518
19586W        W83530  19.285  17.254  12.067
19587W        W83531   3.895  15.095  11.550
19588W        W83532  33.520  23.103  11.558
19589W        W83533  15.284  35.574   5.138
19590W        W83534  26.143  31.091   0.253
19591W        W83535  30.155  29.436   4.159
19592W        W83536  39.953  18.066  13.915
19593W        W83537   8.894  16.300  14.984
19594W        W83538  11.856  34.932  11.097
19595W        W83539  14.693  17.117  14.470
19596W        W83540  19.630  41.849   1.254
19597W        W83541   8.820  32.507  13.839
19598W        W83542  37.062  32.543   1.321
19599W        W83543  22.575  39.043   3.234
19600W        W83544   5.815  40.019   1.245
19601W        W83545  28.958  26.609   4.189
19602W        W83546  24.098   2.282   1.833
19603W        W83547  35.480  41.818   3.194
19604W        W83548  32.989  39.941  13.455
19605W        W83549  38.448  32.959   1.881
19606W        W83550   8.767  29.960  14.818
19607W        W83551  18.094  22.642   1.895
19608W        W83552  13.648  13.712   1.897
19609W        W83553  12.710  22.045   4.633
19610W        W83554  25.165  21.172   4.116
19611W        W83555  34.095  39.908  12.850
19612W        W83556  38.919  39.451  11.978
19613W        W83557  39.892   0.808   1.830
19614W        W83558  24.601  22.511  13.452
19615W        W83559  41.495  21.119   3.349
19616W        W83560  13.283  13.811   2.309
19617W        W83561   5.855  26.642  12.408
19618W        W83562   9.266  35.961  13.357
19619W        W83563  15.706  24.642   0.377
19620W        W83564   7.294  19.065   2.782
19621W        W83565  11.796  32.914  12.461
19622W        W83566   2.431  32.620   3.700
19623W        W83567  40.305  13.781  14.758
19624W        W83568  37.931  30.061  13.797
19625W        W83569  42.019  15.649  14.890
19626W        W83570  42.023  25.091   0.476
19627W        W83571  13.172   7.263  13.405
19628W        W83572  31.080  42.474   3.869
19629W        W83573  25.045  43.894   4.695
19630W        W83574   1.370  44.981   2.294
19631W        W83575  12.223  29.604  10.979
19632W        W83576   8.184  22.198  12.362
19633W        W83577   6.781   8.796   3.353
19634W        W83578  25.621  19.261  12.542
19635W        W83579  13.704  43.466  11.971
19636W        W83580  39.062  12.649   0.408
19637W        W83581   3.840  28.617  11.947
19638W        W83582   9.694  22.532  14.514
19639W        W83583   1.916  21.597  13.852
19640W        W83584   0.272  44.290   4.604
19641W        W83585  12.232  11.304  11.604
19642W        W83586   2.926   2.269  12.407
19643W        W83587   8.379  12.790  11.879
19644W        W83588  14.207  38.486   2.897
19645W        W83589   8.828  34.476  11.989
19646W        W83590  33.929   8.238  14.847
19647W        W83591  18.718   9.672   1.387
19648W        W83592  10.330  41.404  11.558
19649W        W83593   8.329  37.431  11.505
19650W        W83594  23.156   2.806  13.844
19651W        W83595   0.802  28.942   2.342
19652W        W83596  14.251  44.267  10.536
19653W        W83597  12.780  40.452   3.328
19654W        W83598  44.892  44.001   3.747
19655W        W83599  33.626  40.027  10.636
19656W        W83600  12.766  33.512   0.298
19657W        W83601  25.656  21.690  13.848
19658W        W83602  23.987  26.562  14.847
19659W        W83603   0.494   2.437  11.042
19660W        W83604  14.700  44.795   1.384
19661W        W83605  25.140  38.932  14.892
19662W        W83606  25.967  42.369  13.379
19663W        W83607  29.011  23.117   1.348
19664W        W83608  30.492   7.673  13.484
19665W        W83609  36.555  19.722   3.182
19666W        W83610  31.531  35.022  10.967
19667W        W83611   9.177  28.477  13.038
19668W        W83612  39.813  41.393   1.769
19669W        W83613  25.104  21.590   4.310
19670W        W83614  11.664   6.296  14.344
19671W        W83615   3.893  22.628  12.544
19672W        W83616  20.055  27.972  10.552
19673W        W83617  38.479  25.004   4.790
19674W        W83618  19.548  19.136  12.512
19675W        W83619  10.331  42.920   4.277
19676W        W83620   4.233  28.021  14.933
19677W        W83621  23.025  32.101   1.245
19678W        W83622  12.771   2.835   2.727
19679W        W83623  13.334  21.604   0.447
19680W        W83624   7.673  21.739   1.376
19681W        W83625  13.722  37.085  14.368
19682W        W83626  36.982  18.676   1.284
19683W        W83627  34.395   2.371  13.048
19684W        W83628  34.056  44.845  10.592
19685W        W83629  37.341  16.723  10.123
19686W        W83630  27.670  26.123  12.089
19687W        W83631  18.111  11.678   0.480
19688W        W83632  18.260  10.381  13.329
19689W        W83633  37.848  41.944   4.730
19690W        W83634  17.745  25.540   0.879
19691W        W83635  40.387  34.395   3.693
19692W        W83636   0.955  38.888   1.809
19693W        W83637  32.408  16.638   3.747
19694W        W83638  41.803   9.282  13.004
19695W        W83639  25.690   3.412  11.061
19696W        W83640  44.441  34.583  13.416
19697W        W83641  24.609  21.178   4.161
19698W        W83642  11.165  17.671  12.082
19699W        W83643  41.892   8.352  14.338
19700W        W83644  21.075  13.316  10.908
19701W        W83645  18.132  33.054   3.700
19702W        W83646   4.915   8.389   0.945
19703W        W83647  15.302  12.618   1.756
19704W        W83648  37.479  30.018   4.638
19705W        W83649   0.345   1.850  12.885
19706W        W83650   8.255  34.098   0.808
19707W        W83651  24.525  40.373  10.471
19708W        W83652  16.120  27.522  13.422
19709W        W83653  21.236   7.213   1.442
19710W        W83654  28.603  24.611  14.322
19711W        W83655   3.929  14.826   2.734
19712W        W83656  29.035  23.584   4.167
19713W        W83657  41.901   9.758   3.808
19714W        W83658  28.105  27.494   3.738
19715W        W83659  43.840  33.600  13.529
19716W        W83660  37.536  33.484  14.974
19717W        W83661  18.663  36.368   4.621
19718W        W83662  43.292  19.743   4.679
19719W        W83663   8.203  36.019   2.295
19720W        W83664  18.709  43.435  14.391
19721W        W83665   4.368  14.777   2.214
19722W        W83666  34.900  24.189  11.949
19723W        W83667   3.787  40.431  10.511
19724W        W83668  31.955  41.498  12.377
19725W        W83669  28.560  26.662  13.410
19726W        W83670  44.487   2.944  11.545
19727W        W83671  29.524  20.029   2.716
19728W        W83672  11.253  16.590   2.875
19729W        W83673   1.357  35.419   0.309
19730W        W83674  34.481  23.102   3.696
19731W        W83675   8.891   6.288  13.017
19732W        W83676  14.203  31.904   1.798
19733W        W83677  15.677   3.919  14.315
19734W        W83678  13.773  25.566  11.879
19735W        W83679  43.987   3.811   4.128
19736W        W83680  29.088  35.462  11.057
19737W        W83681   6.353  11.770   4.675
19738W        W83682  29.967  26.487   4.649
19739W        W83683  15.616  23.491  10.605
19740W        W83684  42.985  18.790   2.381
19741W        W83685  44.495  17.206  10.461
19742W        W83686  20.682  14.645  12.375
19743W        W83687  30.958  36.950  11.527
19744W        W83688  39.050  32.983   0.897
19745W        W83689  30.979  22.507  11.044
19746W        W83690  41.319  32.552   1.386
19747W        W83691  23.654  25.023  13.811
19748W        W83692  41.474   2.299   0.312
19749W        W83693  31.044  30.923   1.734
19750W        W83694  25.049  41.987   2.409
19751W        W83695   4.857  40.341   2.716
19752W        W83696  44.848  38.064   0.881
19753W        W83697  11.756   2.882  13.484
19754W        W83698   3.786  40.342   3.816
19755W        W83699  15.233  29.468   4.164
19756W        W83700  32.967  10.643  11.882
19757W        W83701  13.219  38.528  12.352
19758W        W83702  24.978  16.197   2.794
19759W        W83703  44.336   5.909   3.803
19760W        W83704  33.610  16.206   2.737
19761W        W83705   9.797  29.428   1.696
19762W        W83706  30.484  10.704   4.780
19763W        W83707   3.375  24.607   1.778
19764W        W83708  16.122  22.201  14.785
19765W        W83709   8.364  24.645  13.810
19766W        W83710   2.908  10.650   1.376
19767W        W83711  12.758   2.950  11.602
19768W        W83712  12.827   1.858   0.362
19769W        W83713  43.966  29.560   4.297
19770W        W83714  14.803  41.951   0.810
19771W        W83715  44.950  29.536  13.999
19772W        W83716  25.484  40.328   2.894
19773W        W83717  17.598  16.727   0.265
19774W        W83718  27.585  18.703   4.279
19775W        W83719  19.632  40.944  13.493
19776W        W83720  37.532  27.682   3.670
19777W        W83721  20.167  22.079   2.861
19778W        W83722  24.055  28.513   3.641
19779W        W83723  29.593  28.483  14.416
19780W        W83724   7.712   7.212  14.790
19781W        W83725  39.414  21.147   3.698
19782W        W83726  39.397   6.805  12.069
19783W        W83727  44.862   2.919   4.598
19784W        W83728  32.973  18.243  10.612
19785W        W83729   3.322   4.351  11.969
19786W        W83730   4.800  23.614   1.290
19787W        W83731  10.381  31.490   2.784
19788W        W83732   6.698  24.049   0.728
19789W        W83733  42.405  43.368   2.262
19790W        W83734  17.083   0.294   0.949
19791W        W83735  26.693   1.867  11.536
19792W        W83736  24.991  32.533   4.758
19793W        W83737  33.126  29.449  10.985
19794W        W83738  41.974  14.801  11.549
19795W        W83739  34.586  32.118   3.801
19796W        W83740  35.960  28.633   1.742
19797W        W83741  18.232  25.997  13.861
19798W        W83742   0.366  36.937   3.669
19799W        W83743  17.754  43.882   4.354
19800W        W83744  24.673  40.840   2.381
19801W        W83745   5.890  26.201  12.457
19802W        W83746  36.923  29.927   2.212
19803W        W83747  17.737  12.822   0.917
19804W        W83748  14.328  32.096  11.560
19805W        W83749  29.592  23.172  12.402
19806W        W83750  19.569   0.327  10.471
19807W        W83751   8.212  35.571  11.578
19808W        W83752  22.538  37.875   1.277
19809W        W83753   2.814  26.983   2.739
19810W        W83754  36.878  20.141   1.445
19811W        W83755  38.847   0.951   3.866
19812W        W83756  35.544  35.395  11.903
19813W        W83757   3.356  27.171  13.522
19814W        W83758  39.888  23.202  14.777
19815W        W83759   6.788  12.303  14.921
19816W        W83760  11.294  43.463  11.025
19817W        W83761  26.639  41.887  12.046
19818W        W83762   0.394  44.889  12.969
19819W        W83763  41.942   6.312   1.857
19820W        W83764  21.534  25.084  12.457
19821W        W83765  39.941  13.822   2.314
19822W        W83766  17.756  22.653  14.764
19823W        W83767  29.556  41.311   0.940
19824W        W83768  21.744  26.984   1.231
19825W        W83769  11.843   1.844  14.933
19826W        W83770  17.120   0.365  10.002
19827W        W83771  40.032  15.273   0.832
19828W        W83772  19.549  41.371  13.952
19829W        W83773  43.494   9.719  11.009
19830W        W83774  14.782   3.830  14.460
19831W        W83775  33.518  12.228  13.888
19832W        W83776  14.631  31.542   0.764
19833W        W83777  29.471  19.115   0.764
19834W        W83778  23.659  24.169  12.911
19835W        W83779  44.446  42.335   2.736
19836W        W83780  44.309   8.750  12.006
19837W        W83781  34.540  13.106  13.495
19838W        W83782   4.375  26.496   4.251
19839W        W83783   0.371   5.921   4.208
19840W        W83784   6.349  12.624   0.306
19841W        W83785   2.303  25.587   4.683
19842W        W83786  36.401   5.384   2.374
19843W        W83787  13.210  22.705   0.756
19844W        W83788  13.131  14.685  13.003
19845W        W83789   9.838  14.335   4.311
19846W        W83790  14.260   5.697   3.383
19847W        W83791  31.905  14.689   2.338
19848W        W83792  15.261  37.920  11.035
19849W        W83793  44.878   4.809  14.353
19850W        W83794  13.266   8.285  13.470
19851W        W83795  42.927  25.606   1.903
19852W        W83796   2.769  18.778   0.892
19853W        W83797  14.637   6.278  14.361
19854W        W83798  33.977  35.087  10.627
19855W        W83799  13.253   7.365  12.872
19856W        W83800  14.657  40.339   3.753
19857W        W83801  40.505  14.673   2.399
19858W        W83802   6.361  12.695   1.887
19859W        W83803  35.506  18.672   1.916
19860W        W83804  21.599  17.564   3.715
19861W        W83805  13.819   2.833   0.260
19862W        W83806   0.876   0.857  10.044
19863W        W83807   1.315  22.133  14.492
19864W        W83808   6.421  23.195   3.653
19865W        W83809  22.704  15.125  11.018
19866W        W83810  35.959  41.450   2.852
19867W        W83811  38.873  28.934   2.214
19868W        W83812  26.165   5.888   1.815
19869W        W83813  32.391  22.667  11.597
19870W        W83814  17.679  20.200   4.185
19871W        W83815   7.182   9.255   4.326
19872W        W83816  19.231  15.217  11.537
19873W        W83817  42.344   3.274   4.326
19874W        W83818  20.633  21.082   1.218
19875W        W83819  28.047  42.391   4.777
19876W        W83820  33.069  18.658   4.797
19877W        W83821  12.777  17.253   2.223
19878W        W83822  39.327   8.348  13.439
19879W        W83823  29.923  24.221   1.911
19880W        W83824  35.025   1.290   3.631
19881W        W83825   3.931  22.220   4.655
19882W        W83826  36.348  22.120  10.549
19883W        W83827  26.153  33.604  10.617
19884W        W83828  44.809  24.677   1.871
19885W        W83829  10.719  39.464   3.724
19886W        W83830  31.087   6.774  12.447
19887W        W83831  24.674  11.166   1.419
19888W        W83832  25.470  35.992   2.360
19889W        W83833   7.379  39.366  10.595
19890W        W83834  39.933  40.797   4.141
19891W        W83835  10.854  15.673   1.912
19892W        W83836  15.599  21.150  10.440
19893W        W83837  26.049  20.124   0.893
19894W        W83838  19.126  33.463  12.872
19895W        W83839  34.900   8.321  14.809
19896W        W83840   6.842  19.088  13.447
19897W        W83841  16.591   8.823  14.923
19898W        W83842  27.672   2.748  12.556
19899W        W83843  30.953  27.002  12.932
19900W        W83844  24.493  34.078  13.356
19901W        W83845  11.770  35.557  11.955
19902W        W83846  31.957  21.111   1.876
19903W        W83847  12.809  10.717   0.350
19904W        W83848  35.440   7.859  10.544
19905W        W83849   2.894  31.907   2.769
19906W        W83850  16.246  36.895   0.802
19907W        W83851  33.129  36.949  11.562
19908W        W83852  39.878   8.309  10.928
19909W        W83853  38.360   4.270   0.966
19910W        W83854  23.229  21.748   1.696
19911W        W83855  22.086  30.601  13.524
19912W        W83856  13.689  29.068  12.002
19913W        W83857   2.850  13.262  11.586
19914W        W83858  37.832   6.383   2.350
19915W        W83859  36.473  26.972  14.877
19916W        W83860  33.424  43.902  13.375
19917W        W83861  34.589  19.561  14.283
19918W        W83862  33.599  41.010   4.122
19919W        W83863  26.051  27.010  14.405
19920W        W83864  37.547  41.792   0.820
19921W        W83865  39.382  19.048   3.633
19922W        W83866  24.575   7.186   2.270
19923W        W83867  35.011  29.531  13.898
19924W        W83868  20.580  38.900   3.761
19925W        W83869   0.775   2.310  11.540
19926W        W83870   1.782  31.972   1.272
19927W        W83871   4.413  17.121   2.217
19928W        W83872  20.094  18.591  12.503
19929W        W83873  42.869  29.490   4.607
19930W        W83874   6.745  28.533   1.765
19931W        W83875  44.379  31.907   4.325
19932W        W83876  41.945   7.356  11.107
19933W        W83877  20.585  31.553   4.194
19934W        W83878  31.018  11.137  12.487
19935W        W83879   7.908   2.304   2.390
19936W        W83880  17.787  43.276   0.793
19937W        W83881  32.023   3.859   4.736
19938W        W83882   5.867  34.414  13.527
19939W        W83883   3.925  11.260   3.280
19940W        W83884  12.120  26.115   1.873
19941W        W83885  22.021  24.008  12.044
19942W        W83886   2.248  31.990  13.472
19943W        W83887  26.999  10.335   4.138
19944W        W83888  24.620  15.100   0.440
19945W        W83889  27.147   0.843   3.208
19946W        W83890  33.073  23.178   4.719
19947W        W83891  38.911   5.285   0.257
19948W        W83892  30.426  35.962   4.738
19949W        W83893  36.921  34.037   0.727
19950W        W83894  23.720  26.550  10.042
19951W        W83895  15.179   3.834   5.265
19952W        W83896  39.813  22.097  10.946
19953W        W83897  41.403  38.381   1.869
19954W        W83898  18.159  18.253   2.235
19955W        W83899  16.707  14.631   3.302
19956W        W83900  10.872   2.756  11.074
19957W        W83901  10.680   5.396  11.019
19958W        W83902  43.880  31.535   1.342
19959W        W83903  12.169  27.105  10.584
19960W        W83904  32.582  12.670   3.832
19961W        W83905  32.500  33.575   3.158
19962W        W83906  10.221   3.341   1.340
19963W        W83907  21.214  43.455  13.927
19964W        W83908   8.382  43.490  12.839
19965W        W83909  25.518  18.716  14.283
19966W        W83910  23.505  25.020   4.233
19967W        W83911  23.085  39.324  13.427
19968W        W83912  36.953  38.983   3.357
19969W        W83913  18.224  15.715  11.389
19970W        W83914  42.505  32.577  10.436
19971W        W83915  44.935  38.928  13.398
19972W        W83916  16.641  29.514  10.590
19973W        W83917   5.268  42.846  13.792
19974W        W83918  26.535  24.505  11.901
19975W        W83919   0.748  43.958   4.227
19976W        W83920  12.144  24.006  12.918
19977W        W83921  15.596  18.232  10.945
19978W        W83922   9.672  21.620   4.660
19979W        W83923  43.881   3.786  10.617
19980W        W83924   7.803   3.268   1.376
19981W        W83925  20.741  33.416   1.905
19982W        W83926  32.403  37.840  14.480
19983W        W83927   9.313  15.592   2.697
19984W        W83928  40.938   8.241  13.807
19985W        W83929  28.056  44.313  10.980
19986W        W83930  11.231   5.232   3.354
19987W        W83931   6.881  24.979   3.751
19988W        W83932   9.743  21.558   1.423
19989W        W83933  13.129  23.038   1.856
19990W        W83934  42.289  27.194   3.805
19991W        W83935  13.820  43.497   0.366
19992W        W83936   9.155   9.188  12.064
19993W        W83937  12.804   8.887   0.316
19994W        W83938  44.317  33.524   2.184
19995W        W83939  24.701   9.865  13.309
19996W        W83940  23.608   0.967   4.637
19997W        W83941  23.498  22.160   0.935
19998W        W83942   9.730   1.277  14.363
19999W        W83943  12.626  21.079   0.472
20000W        W83944  40.450  39.991  11.508
20001W        W83945  44.330  21.223   5.224
20002W        W83946  15.622   3.373  13.812
20003W        W83947   2.935  31.445   3.201
20004W        W83948  36.009  18.089  14.506
20005W        W83949  21.067  42.821  13.845
20006W        W83950  22.105  23.089  10.591
20007W        W83951  35.514  34.485  10.554
20008W        W83952  10.241  22.655   0.751
20009W        W83953   0.433  23.627   1.370
20010W        W83954  41.504  32.006   3.156
20011W        W83955  39.045  17.169   4.622
20012W        W83956  11.302  33.494  11.023
20013W        W83957   5.360  18.729  12.443
20014W        W83958  35.389  27.552  11.015
20015W        W83959   0.866  43.396  12.970
20016W        W83960  19.759  35.599   3.865
20017W        W83961   8.719  36.061   3.387
20018W        W83962  44.338  31.146  10.091
20019W        W83963  19.677  10.250  11.022
20020W        W83964  19.549  42.892  14.500
20021W        W83965  44.259  39.008  14.305
20022W        W83966   0.923   9.261   1.254
20023W        W83967  36.387  18.166   2.339
20024W        W83968  44.343  21.758  14.913
20025W        W83969  43.858  27.039   1.323
20026W        W83970  26.178  30.506  11.988
20027W        W83971  19.245  16.172  14.974
20028W        W83972  33.949   7.263   0.309
20029W        W83973  40.317  28.440  13.861
20030W        W83974  16.274   8.888   2.390
20031W        W83975  35.933  17.262  13.845
20032W        W83976   8.894   2.737   4.772
20033W        W83977  22.029  33.621   0.746
20034W        W83978  29.552  11.215  11.105
20035W        W83979  33.000  42.933   4.140
20036W        W83980  40.381  41.933  12.340
20037W        W83981  16.789  24.699   4.177
20038W        W83982  10.667   0.745   5.288
20039W        W83983  22.645  39.527  10.920
20040W        W83984   7.842  43.440  13.312
20041W        W83985  24.516  28.049  14.861
20042W        W83986   6.208   4.226   4.771
20043W        W83987  43.448  44.312  12.473
20044W        W83988   0.800  37.974   1.376
20045W        W83989  29.520  29.981   4.835
20046W        W83990  35.373  10.312   0.428
20047W        W83991  19.631  26.629  10.632
20048W        W83992  18.628  35.007  11.989
20049W        W83993  13.790  36.575   0.870
20050W        W83994   4.879  24.101  13.869
20051W        W83995   0.351  19.185   2.888
20052W        W83996  30.982  19.608  10.064
20053W        W83997   7.676  27.048  11.891
20054W        W83998  10.235   7.400   0.771
20055W        W83999  35.399  10.248  10.936
20056W        W84000  27.568  41.819   3.809
20057W        W84001  14.772  23.219   4.818
20058W        W84002  28.969  15.317   3.325
20059W        W84003  10.828  13.177  13.882
20060W        W84004  28.040  33.462  14.916
20061W        W84005  34.978  33.529   5.160
20062W        W84006  14.317  36.459  12.412
20063W        W84007  34.577  39.906  10.537
20064W        W84008  38.056  21.218   0.308
20065W        W84009  30.955  12.828  14.030
20066W        W84010  36.399  29.131  11.032
20067W        W84011   1.846  26.632  13.318
20068W        W84012   0.379  20.712   4.248
20069W        W84013  18.194  28.052  11.005
20070W        W84014  17.098  26.673   3.158
20071W        W84015  32.122   1.812   0.872
20072W        W84016   6.732  21.527   2.885
20073W        W84017  31.015  32.442   4.836
20074W        W84018  24.123  37.419   0.925
20075W        W84019  42.782  23.068  12.573
20076W        W84020  31.975  42.302  13.379
20077W        W84021  17.086  24.562   1.903
20078W        W84022  40.535  21.042   0.254
20079W        W84023  24.502   9.297   3.640
20080W        W84024  35.432  32.083   0.817
20081W        W84025   0.409  21.604  10.950
20082W        W84026  43.765  31.033   4.737
20083W        W84027  44.754  43.882  13.465
20084W        W84028  30.611  26.539  14.938
20085W        W84029  12.323  35.557   1.428
20086W        W84030  14.214  43.927  14.443
20087W        W84031  33.516  17.776  13.399
20088W        W84032  13.338  35.449  11.418
20089W        W84033  38.335  28.078   0.944
20090W        W84034  17.617   0.972   4.684
20091W        W84035  19.735  38.923   2.805
20092W        W84036  19.236  34.463   4.793
20093W        W84037  39.490   5.695  13.548
20094W        W84038   6.344  43.844   4.332
20095W        W84039   6.413  25.545  14.430
20096W        W84040   9.374  25.499   3.369
20097W        W84041  23.706   2.255   1.227
20098W        W84042  28.082  25.111   1.849
20099W        W84043  38.437  17.753  12.845
20100W        W84044  12.222   1.341  13.530
20101W        W84045   3.329  14.235  10.525
20102W        W84046  42.937   3.297   1.233
20103W        W84047  21.055   8.368  12.939
20104W        W84048  35.070  22.014   0.246
20105W        W84049  12.127   3.311  11.948
20106W        W84050   2.319  32.487  11.024
20107W        W84051   6.915   9.825   4.756
20108W        W84052  24.218  12.674   3.225
20109W        W84053   1.237   3.721  14.788
20110W        W84054  39.382   1.372   2.670
20111W        W84055  22.251  43.426  14.024
20112W        W84056  35.994  20.179  11.586
20113W        W84057   5.341   1.376  10.598
20114W        W84058  33.450  33.071  13.971
20115W        W84059   1.468  27.614   2.760
20116W        W84060   2.357  19.048  11.467
20117W        W84061  17.624  21.045   4.823
20118W        W84062  43.322  35.532   0.479
20119W        W84063  28.002  32.491  11.990
20120W        W84064  18.590   3.324  12.957
20121W        W84065  28.455  44.327  14.281
20122W        W84066  19.759  21.628   2.185
20123W        W84067  32.006  44.355   0.296
20124W        W84068   5.911  11.756  13.898
20125W        W84069  30.139  21.060  11.902
20126W        W84070  31.600  20.249   3.829
20127W        W84071   7.399  12.813   2.738
20128W        W84072  27.165   8.184  10.569
20129W        W84073   8.786  19.249  14.470
20130W        W84074  29.034   7.278  10.998
20131W        W84075  37.981  23.238   3.639
20132W        W84076  30.541   7.906   2.885
20133W        W84077  18.054  21.675   2.380
20134W        W84078   8.393  36.872  12.530
20135W        W84079  14.743  16.248  12.019
20136W        W84080   3.422   3.395   2.701
20137W        W84081  20.683  36.893  13.513
20138W        W84082  32.568  13.198   1.706
20139W        W84083   6.730  27.635  13.906
20140W        W84084  11.234   2.365   0.390
20141W        W84085  27.971  44.846  11.382
20142W        W84086   7.744  43.325   1.871
20143W        W84087  14.802   4.769  11.925
20144W        W84088  22.707  14.215   3.792
20145W        W84089   9.732  41.323   3.808
20146W        W84090  18.739  44.308   4.672
20147W        W84091  27.676  34.523   4.765
20148W        W84092  10.869  28.679   9.659
20149W        W84093   6.775  22.515  12.864
20150W        W84094  15.232   6.828  10.989
20151W        W84095   5.251  37.066   1.274
20152W        W84096  29.575   4.800   1.372
20153W        W84097  27.173  42.367   0.816
20154W        W84098  22.169   2.816   1.908
20155W        W84099   3.228  29.979  12.968
20156W        W84100  37.929   3.364   0.771
20157W        W84101  29.445  23.032  14.831
20158W        W84102  41.503  43.866  12.916
20159W        W84103   9.162  21.626   2.870
20160W        W84104  32.401   5.343  14.428
20161W        W84105  16.690  41.466   1.840
20162W        W84106  42.779   8.859   2.719
20163W        W84107  31.115  19.208   1.417
20164W        W84108  10.640  31.942  11.560
20165W        W84109   9.378   1.242   3.820
20166W        W84110  26.692  25.616  13.983
20167W        W84111  12.784   4.252  11.031
20168W        W84112  30.630  34.594   3.154
20169W        W84113  37.533  32.443  14.418
20170W        W84114   8.717  34.577   1.320
20171W        W84115  31.144  33.957  13.972
20172W        W84116  26.039  14.725  10.471
20173W        W84117  40.520  33.444   4.193
20174W        W84118  37.878  36.046   2.708
20175W        W84119  44.766  11.710   9.978
20176W        W84120   7.724  22.660   3.792
20177W        W84121  29.166  35.067  10.639
20178W        W84122  32.010   1.395   2.259
20179W        W84123  22.207  30.005   2.669
20180W        W84124  28.634  33.544  13.455
20181W        W84125  44.895  35.899   1.797
20182W        W84126  10.310  15.311   2.307
20183W        W84127  44.938  44.412   1.446
20184W        W84128  12.771  23.619   0.923
20185W        W84129   9.299   4.419  12.448
20186W        W84130  24.170  21.136  10.999
20187W        W84131  28.071  44.950  10.452
20188W        W84132  18.102   0.905   0.334
20189W        W84133  21.606  26.686  11.464
20190W        W84134  13.160  15.726  11.910
20191W        W84135  14.186  32.549   4.722
20192W        W84136  44.850  11.227  10.895
20193W        W84137  26.015   4.415  10.569
20194W        W84138  32.453  16.302  11.510
20195W        W84139  22.203  10.710   3.386
20196W        W84140  14.728  44.916  13.391
20197W        W84141  13.262   3.377  14.442
20198W        W84142  31.031  18.174   1.438
20199W        W84143  20.099  36.013   3.200
20200W        W84144  35.867  44.865  11.113
20201W        W84145  22.121  34.104   0.805
20202W        W84146  42.002   7.328   2.294
20203W        W84147  12.157  16.730   0.853
20204W        W84148  10.746   2.955  10.448
20205W        W84149   5.368   0.881   4.692
20206W        W84150   3.404  30.437   1.399
20207W        W84151  11.742  25.663  13.529
20208W        W84152  32.018  35.539  12.045
20209W        W84153  39.465  21.229  10.497
20210W        W84154  41.977   2.819   1.757
20211W        W84155  36.856   2.373   0.340
20212W        W84156  25.546  16.790   9.613
20213W        W84157  17.219  43.808   4.135
20214W        W84158  28.063   7.703   0.314
20215W        W84159  21.618   8.256  14.444
20216W        W84160   9.177  44.299   3.302
20217W        W84161  12.632  42.788  10.903
20218W        W84162  30.940   4.278  14.929
20219W        W84163   0.799  42.865  13.926
20220W        W84164  29.581   1.794   4.755
20221W        W84165   8.274   8.725   1.742
20222W        W84166  22.512  41.490  13.002
20223W        W84167  20.529  15.774   4.720
20224W        W84168   0.758  38.557  12.406
20225W        W84169  19.113  33.921   4.127
20226W        W84170  16.299  11.221  11.523
20227W        W84171  24.606  10.198   0.828
20228W        W84172  33.916  10.690  11.608
20229W        W84173  40.534  37.928  14.296
20230W        W84174  37.378  31.514   2.882
20231W        W84175  43.473  13.206  13.436
20232W        W84176  24.724   1.382  10.547
20233W        W84177   9.230  18.264  11.121
20234W        W84178  40.424   4.823  12.429
20235W        W84179   1.849   8.789  11.613
20236W        W84180   1.759  28.527   2.302
20237W        W84181   6.789  21.684  14.835
20238W        W84182  16.138  21.577   0.249
20239W        W84183  40.493  21.632  10.456
20240W        W84184  25.218  12.669   0.785
20241W        W84185  38.855   3.893  13.401
20242W        W84186  11.659  34.436  13.808
20243W        W84187  40.320  40.442   3.314
20244W        W84188   2.740  34.606   2.321
20245W        W84189   3.750  21.604  13.341
20246W        W84190  38.374   9.889  14.971
20247W        W84191  11.623  30.527  10.931
20248W        W84192   3.267  23.199   3.315
20249W        W84193  18.791   0.962  14.814
20250W        W84194  38.859  11.859  14.007
20251W        W84195   6.204  19.190   2.717
20252W        W84196  36.518  29.626   2.717
20253W        W84197  12.323  41.360  14.879
20254W        W84198  44.790  42.013   0.915
20255W        W84199  30.094   4.269   4.705
20256W        W84200   9.771   6.831   3.384
20257W        W84201  21.124  17.214  13.902
20258W        W84202  11.775  40.505  13.897
20259W        W84203  22.098  34.077   3.792
20260W        W84204   3.256  35.542  11.375
20261W        W84205  10.815   9.709   2.189
20262W        W84206  27.657  22.040  11.094
20263W        W84207  44.497  12.756   2.663
20264W        W84208  26.642  37.398  14.307
20265W        W84209  30.599  22.583   0.461
20266W        W84210  19.675  25.979  13.928
20267W        W84211   8.737  20.765  14.775
20268W        W84212  13.201  35.527   0.842
20269W        W84213   8.219  27.180  11.538
20270W        W84214   1.417  29.048  14.470
20271W        W84215  28.941  13.201  14.457
20272W        W84216  33.539  32.409  10.949
20273W        W84217  11.849  39.012   1.430
20274W        W84218  36.559   4.270  10.591
20275W        W84219  43.966  37.058  11.059
20276W        W84220   8.265  10.673  13.840
20277W        W84221  39.817  28.454  12.352
20278W        W84222  13.821   5.769   1.374
20279W        W84223  21.718   5.791   4.301
20280W        W84224  40.010   2.744   2.275
20281W        W84225  14.769  21.032   2.254
20282W        W84226  34.023  19.082  12.574
20283W        W84227  12.631   3.254  10.966
20284W        W84228   3.263  22.201   3.181
20285W        W84229  44.290  38.965   3.166
20286W        W84230  32.529  32.134   2.282
20287W        W84231  19.746  40.451   2.272
20288W        W84232  33.085  11.192  13.833
20289W        W84233  38.450  30.159  12.493
20290W        W84234  40.450  30.003   0.949
20291W        W84235  42.458  12.817   4.680
20292W        W84236  20.151  37.346   0.437
20293W        W84237  29.960  38.844   4.640
20294W        W84238  14.286  18.654  14.901
20295W        W84239  33.976  12.312  13.013
20296W        W84240   2.380  40.460   0.806
20297W        W84241  38.520  29.927   0.275
20298W        W84242   0.751  34.949   3.658
20299W        W84243  36.559   2.908  10.592
20300W        W84244   2.416  38.558   3.381
20301W        W84245   2.940  42.354   1.364
20302W        W84246  15.647   6.200   1.855
20303W        W84247  36.441  21.680   0.942
20304W        W84248  28.975   8.698   1.878
20305W        W84249  34.039  43.938   4.722
20306W        W84250   4.707  26.053  12.539
20307W        W84251  31.603   2.396   4.829
20308W        W84252  31.120  39.350   2.863
20309W        W84253  41.521  41.341  13.535
20310W        W84254  12.217  27.156   3.377
20311W        W84255  32.465  13.344   0.865
20312W        W84256  16.706  11.178  11.593
20313W        W84257  17.080  41.297  12.953
20314W        W84258  25.477  38.027   1.922
20315W        W84259  39.939  12.637   3.334
20316W        W84260  15.104  39.898   3.630
20317W        W84261   7.376  44.794   4.601
20318W        W84262  22.234  27.499  13.883
20319W        W84263   8.807  11.797  14.891
20320W        W84264   8.750  40.408   4.313
20321W        W84265  14.305  26.130  13.409
20322W        W84266  14.127  37.367  12.852
20323W        W84267  43.304  17.730   1.932
20324W        W84268  24.724   7.218   2.843
20325W        W84269  44.462  12.352  13.872
20326W        W84270  36.040  40.477  13.062
20327W        W84271  32.575   3.775   3.271
20328W        W84272   5.305  10.724  13.989
20329W        W84273   3.422  27.032   2.795
20330W        W84274  31.043   1.356   2.244
20331W        W84275  19.259  13.702  12.441
20332W        W84276  36.436  13.227  13.035
20333W        W84277   1.317  32.393   3.386
20334W        W84278  11.278   7.251  12.342
20335W        W84279   8.304  39.485   2.307
20336W        W84280  14.764  24.078   2.700
20337W        W84281  25.075  13.154  12.890
20338W        W84282  40.850  38.424  12.953
20339W        W84283  12.740  24.708  10.472
20340W        W84284  27.996  33.397   3.378
20341W        W84285   1.266   1.956  10.577
20342W        W84286  25.539   7.813  10.501
20343W        W84287  33.546  43.463   4.804
20344W        W84288  40.954  41.366  12.532
20345W        W84289  16.115  30.647  10.034
20346W        W84290  21.518   7.678  13.901
20347W        W84291   8.688   3.394   5.081
20348W        W84292  40.930   9.778  13.328
20349W        W84293   7.299  11.649   3.726
20350W        W84294  42.967  40.526   3.835
20351W        W84295  43.822   1.913   4.138
20352W        W84296  36.999  20.537  11.049
20353W        W84297   6.910  29.070   5.621
20354W        W84298  41.941   5.244  12.482
20355W        W84299  17.141   6.751  10.530
20356W        W84300   2.943  41.819   3.859
20357W        W84301  35.965   3.386   9.545
20358W        W84302  21.523  42.301  11.606
20359W        W84303  14.147   4.921   2.387
20360W        W84304   5.914  12.785  13.537
20361W        W84305   1.294  17.695   3.737
20362W        W84306  32.082  31.953  11.099
20363W        W84307  35.882   3.732   0.297
20364W        W84308  36.942   1.774  12.373
20365W        W84309  42.492  29.508   2.357
20366W        W84310  30.006  20.150  10.522
20367W        W84311   8.701   6.263  14.945
20368W        W84312  11.149  31.413   1.232
20369W        W84313  34.963   0.352   4.286
20370W        W84314  41.441  32.059  12.056
20371W        W84315   4.435   4.776   9.520
20372W        W84316  39.541  15.670  13.863
20373W        W84317  28.602   6.297   4.649
20374W        W84318  16.773  27.140  12.396
20375W        W84319  21.104   1.430   0.297
20376W        W84320   4.239  42.335   0.332
20377W        W84321  41.907   5.431  13.045
20378W        W84322  22.678  34.536  10.920
20379W        W84323  13.755   4.846   0.958
20380W        W84324   2.754  19.661  14.759
20381W        W84325  10.696  35.880  14.968
20382W        W84326  25.537   2.391  14.843
20383W        W84327  28.997  44.865  14.802
20384W        W84328  35.870  28.165  11.497
20385W        W84329  35.388  38.865   2.223
20386W        W84330   8.750  17.254  14.427
20387W        W84331   8.380   3.255   2.711
20388W        W84332   0.426   0.750  13.457
20389W        W84333  18.267  33.045   1.705
20390W        W84334   2.413  40.404  11.973
20391W        W84335  37.343   8.361  13.811
20392W        W84336  26.072  15.620   1.413
20393W        W84337   1.444   9.738   3.766
20394W        W84338  21.072  44.341  13.324
20395W        W84339  35.450  30.448  11.108
20396W        W84340  21.561  42.957   1.803
20397W        W84341  15.701  22.165   3.297
20398W        W84342  26.952  10.303  13.521
20399W        W84343  16.199  20.238   1.252
20400W        W84344  19.043  15.267  12.410
20401W        W84345  14.100  32.089  14.381
20402W        W84346  20.269   3.310   4.607
20403W        W84347   1.924  39.520  11.919
20404W        W84348  32.586  12.180   3.369
20405W        W84349  39.357   7.285  14.982
20406W        W84350  31.547  40.808   4.164
20407W        W84351   0.463  20.654   3.682
20408W        W84352  20.250  26.979  14.788
20409W        W84353  11.666  27.570   2.880
20410W        W84354  34.545  33.088   4.758
20411W        W84355  25.581  40.346   1.322
20412W        W84356   3.235  25.492   1.412
20413W        W84357  11.214  25.176  13.910
20414W        W84358  11.828  19.705   4.206
20415W        W84359   6.249  21.134   1.443
20416W        W84360  37.475  19.753   4.160
20417W        W84361  36.057  44.768   4.806
20418W        W84362  31.572  42.967  14.427
20419W        W84363  32.913  23.103   1.791
20420W        W84364   6.756  13.741   2.691
20421W        W84365  19.636  26.099  13.538
20422W        W84366  39.857  33.069   0.381
20423W        W84367  32.116  19.166   0.417
20424W        W84368  31.046  15.585  10.080
20425W        W84369  33.090  17.712  11.919
20426W        W84370  14.114  14.696   3.267
20427W        W84371   4.731  43.859  10.000
20428W        W84372  22.534  27.605  10.440
20429W        W84373  24.169  14.729   0.359
20430W        W84374   8.334  43.817  10.517
20431W        W84375  11.796  41.459   2.370
20432W        W84376   5.885  24.000  11.476
20433W        W84377  15.757  40.306   4.748
20434W        W84378  28.614  44.837   3.775
20435W        W84379  38.011  28.616   1.313
20436W        W84380  17.613   0.858   3.296
20437W        W84381  27.025  12.647   5.211
20438W        W84382  22.731  44.841   2.708
20439W        W84383  15.148  17.599  12.991
20440W        W84384  22.060   2.301   3.297
20441W        W84385  26.173  37.567   3.674
20442W        W84386  10.234  31.896   4.802
20443W        W84387  36.438  12.817   5.235
20444W        W84388  42.010   6.314  11.584
20445W        W84389  31.606   3.366  12.423
20446W        W84390  26.603  31.429   0.477
20447W        W84391  44.839  14.744  12.566
20448W        W84392  24.065   3.854  13.826
20449W        W84393  33.041   1.390  12.450
20450W        W84394  10.830   7.317  13.879
20451W        W84395   3.440   8.271   0.333
20452W        W84396  26.461   8.214  12.499
20453W        W84397  35.897  13.736   3.262
20454W        W84398  18.052  37.973  10.953
20455W        W84399  15.224  29.035  10.550
20456W        W84400  19.224  15.689   2.861
20457W        W84401   6.213  38.842  10.071
20458W        W84402  44.914  27.963  11.601
20459W        W84403  42.355  33.434   3.736
20460W        W84404  41.453  35.542  11.406
20461W        W84405  11.687   5.700  11.568
20462W        W84406  20.162  13.258   0.244
20463W        W84407  37.042  43.362  11.475
20464W        W84408  14.268   3.402   4.685
20465W        W84409  10.324  41.341   0.899
20466W        W84410  30.150  29.444  10.454
20467W        W84411  42.808  32.463   2.187
20468W        W84412  42.459  23.027   3.696
20469W        W84413   0.827  37.375   0.859
20470W        W84414  25.144  37.061  14.984
20471W        W84415  22.501  39.021   2.787
20472W        W84416  15.768   2.842  13.546
20473W        W84417   6.408  34.445   4.806
20474W        W84418  42.883  24.129  11.877
20475W        W84419  21.202  26.696  13.469
20476W        W84420  42.293  32.072   0.735
20477W        W84421  26.966   3.872  10.922
20478W        W84422  28.028  29.014  12.544
20479W        W84423  27.061  42.993   0.438
20480W        W84424  33.896  32.954  11.111
20481W        W84425  27.571  24.618  10.457
20482W        W84426  22.679   1.306  13.510
20483W        W84427  23.099  27.975  12.062
20484W        W84428   3.352  43.352   3.321
20485W        W84429  35.000   6.229   3.652
20486W        W84430   9.842  39.873  11.877
20487W        W84431  44.373   4.893   9.963
20488W        W84432   6.767   0.354   4.817
20489W        W84433  44.835  21.541  10.534
20490W        W84434  20.615  13.672   3.714
20491W        W84435   4.367  15.146   4.767
20492W        W84436   8.877  13.827   3.838
20493W        W84437  14.716  37.922   0.370
20494W        W84438  36.374  37.521   1.242
20495W        W84439  32.119  21.707   4.322
20496W        W84440  35.100  39.440  11.491
20497W        W84441  38.897   2.244   3.759
20498W        W84442  17.166  29.434   5.181
20499W        W84443  40.854  33.902   0.256
20500W        W84444  20.211  39.508  10.411
20501W        W84445  31.003  39.928  11.429
20502W        W84446  12.132  10.192   4.608
20503W        W84447  34.085  37.987   2.304
20504W        W84448  37.394  38.076  12.424
20505W        W84449  36.897  43.389  12.017
20506W        W84450  11.369  11.762  14.014
20507W        W84451  42.986  35.883  12.039
20508W        W84452  28.013   0.922   5.184
20509W        W84453  11.823  24.011  10.623
20510W        W84454  29.537  22.626  13.930
20511W        W84455  38.439  10.235   0.794
20512W        W84456  43.955  31.640   2.216
20513W        W84457  38.437  36.982  10.503
20514W        W84458   7.904  41.043   3.336
20515W        W84459   7.375  41.519   3.631
20516W        W84460  42.462  40.824  14.881
20517W        W84461  10.821  32.142   3.725
20518W        W84462  22.612  41.903   2.342
20519W        W84463  34.393  30.515   4.660
20520W        W84464  40.469  43.507  11.400
20521W        W84465   1.406  21.034  10.407
20522W        W84466  39.345   3.765   4.346
20523W        W84467   9.748  29.064   4.160
20524W        W84468  33.595   4.902   0.419
20525W        W84469  24.973  33.523   3.666
20526W        W84470  17.290  20.255   1.448
20527W        W84471   4.294   3.832   3.332
20528W        W84472   1.779  44.406  14.435
20529W        W84473  15.185  39.404  10.977
20530W        W84474  39.430  10.736  10.598
20531W        W84475  29.920  25.707  10.555
20532W        W84476   7.839  44.319   1.803
20533W        W84477   7.793  12.278  14.775
20534W        W84478  27.582  43.992  12.080
20535W        W84479   1.811  34.962   4.803
20536W        W84480  19.097   7.308  13.838
20537W        W84481  15.209   9.791   1.877
20538W        W84482  17.066   9.770   1.324
20539W        W84483  12.713   0.338  14.353
20540W        W84484   0.283  28.111  11.585
20541W        W84485  37.943   0.902  14.370
20542W        W84486   2.829  20.274  10.955
20543W        W84487  18.635  32.431  14.441
20544W        W84488  29.110  35.388   0.354
20545W        W84489  28.474   1.743   0.457
20546W        W84490   3.713  24.067  14.771
20547W        W84491  37.946  15.686   0.842
20548W        W84492   9.330  17.204   2.381
20549W        W84493  41.317  11.268   3.229
20550W        W84494  11.278  18.166  12.428
20551W        W84495  12.202  38.386   3.646
20552W        W84496  15.151   0.929   1.851
20553W        W84497   4.737   2.946  14.511
20554W        W84498  39.018  41.481   0.410
20555W        W84499  11.330  39.932  13.816
20556W        W84500   4.376  44.450   2.214
20557W        W84501  35.366   9.337  10.570
20558W        W84502  40.829  28.489   1.396
20559W        W84503  22.024  30.424   1.835
20560W        W84504  44.462  35.967  11.971
20561W        W84505  36.847  27.638   0.777
20562W        W84506  31.618  19.206  14.858
20563W        W84507  13.788   6.339  11.599
20564W        W84508  36.437  20.218   0.907
20565W        W84509  37.370   3.857   0.834
20566W        W84510  26.519  16.585   3.776
20567W        W84511   2.894   4.775  10.433
20568W        W84512  40.467   5.742  12.009
20569W        W84513   0.749  24.181   1.309
20570W        W84514   1.946  37.470  14.441
20571W        W84515  40.319  16.232  13.478
20572W        W84516  23.093  38.395   2.254
20573W        W84517  24.185  23.047   4.680
20574W        W84518  17.204  30.008   2.899
20575W        W84519  30.626  13.217  11.883
20576W        W84520  23.206  30.124   3.242
20577W        W84521  16.267   9.177  10.058
20578W        W84522   3.865  20.232   4.139
20579W        W84523   4.439  39.456   3.221
20580W        W84524  22.152  28.967   3.346
20581W        W84525   6.865  16.792  14.449
20582W        W84526  20.567  28.015   3.243
20583W        W84527  21.244   1.377  10.464
20584W        W84528   1.255  40.370  10.511
20585W        W84529  42.877  24.627  14.454
20586W        W84530  38.042  34.583  14.972
20587W        W84531  18.566  32.510   4.270
20588W        W84532  35.898  20.118   2.346
20589W        W84533  44.772  17.297   3.847
20590W        W84534  15.085  11.662  10.539
20591W        W84535  41.366  20.032   3.849
20592W        W84536  28.567   0.328   3.697
20593W        W84537   0.889  38.883  13.933
20594W        W84538  35.370  30.006  14.856
20595W        W84539  25.683  11.820   1.855
20596W        W84540  25.547  18.286  14.457
20597W        W84541  32.448  36.364  13.811
20598W        W84542   1.455   0.386   3.175
20599W        W84543  24.066   9.660  13.523
20600W        W84544  39.873  29.607  12.501
20601W        W84545  23.211  27.640  13.829
20602W        W84546  23.496  30.506   3.185
20603W        W84547  44.911  27.556  13.401
20604W        W84548   7.698  41.298   1.873
20605W        W84549   0.374  36.551   2.847
20606W        W84550  26.206  26.640   2.269
20607W        W84551  35.972  39.316  13.999
20608W        W84552  29.018  10.677   4.655
20609W        W84553  35.991  18.686  10.938
20610W        W84554  31.932   5.718  13.803
20611W        W84555  24.541   0.272   4.621
20612W        W84556  37.556  16.791   2.869
20613W        W84557  26.518  28.991  10.056
20614W        W84558  17.567  20.583  11.417
20615W        W84559   2.868  40.852   2.361
20616W        W84560  14.172  32.415   3.300
20617W        W84561  34.040   1.812  11.566
20618W        W84562  24.011  15.201  13.865
20619W        W84563   6.318   0.848  10.427
20620W        W84564  38.047  24.014  10.904
20621W        W84565  16.235  43.861  14.829
20622W        W84566  28.088  35.984   2.802
20623W        W84567  33.549  28.147   2.415
20624W        W84568  35.095  39.978   0.387
20625W        W84569   4.211  38.473   4.761
20626W        W84570  33.929  23.601  12.953
20627W        W84571  44.494  14.189   2.382
20628W        W84572  14.131  33.088  13.966
20629W        W84573  43.939  15.235  14.970
20630W        W84574  30.515  29.161  10.454
20631W        W84575  34.522  15.702  14.996
20632W        W84576  42.898  42.985  12.942
20633W        W84577  12.247   8.698  11.863
20634W        W84578  16.662  18.177   2.666
20635W        W84579  40.021  38.435   4.718
20636W        W84580  20.117  33.937  13.472
20637W        W84581   6.862   5.436   2.672
20638W        W84582  24.539  35.096   2.852
20639W        W84583   1.476  26.041  11.887
20640W        W84584  35.561  23.602   0.312
20641W        W84585  12.314  21.128   4.134
20642W        W84586  11.198  21.045  14.418
20643W        W84587  19.062  42.902   2.685
20644W        W84588  38.423  31.946  12.004
20645W        W84589  22.621  13.348   0.429
20646W        W84590  15.172   8.299   3.869
20647W        W84591  19.136  11.248  10.928
20648W        W84592   6.322  21.127   2.810
20649W        W84593  12.171   5.786  13.486
20650W        W84594   8.728  13.246  13.333
20651W        W84595   4.228   9.663   1.733
20652W        W84596  13.819   5.427  14.017
20653W        W84597  11.366  20.124  12.391
20654W        W84598   6.188   8.344   3.291
20655W        W84599  40.945   0.905   4.748
20656W        W84600  42.482   8.274   1.711
20657W        W84601   7.713   1.944  14.354
20658W        W84602  23.060  17.795   4.289
20659W        W84603  32.562  42.384   1.435
20660W        W84604  19.104  44.972  12.070
20661W        W84605  38.444  43.313   4.706
20662W        W84606  18.088  43.308   3.755
20663W        W84607  36.084   1.901  12.860
20664W        W84608  24.682   0.276  14.762
20665W        W84609   9.867  33.933   3.303
20666W        W84610  23.025  10.241  13.980
20667W        W84611  25.679  29.586  12.480
20668W        W84612  36.539  25.179   2.285
20669W        W84613   4.352  35.099   0.824
20670W        W84614  16.146   6.204   4.674
20671W        W84615  39.045   3.729  14.852
20672W        W84616  31.941  38.446  11.513
20673W        W84617  36.003  27.617   0.816
20674W        W84618   0.252  43.323  13.519
20675W        W84619  10.275  27.499   2.756
20676W        W84620  16.644  41.369   4.770
20677W        W84621  36.519  28.052  11.551
20678W        W84622  32.054  27.144  14.880
20679W        W84623  17.085  41.486  10.155
20680W        W84624  18.701  20.638  10.934
20681W        W84625  26.536  34.085   4.743
20682W        W84626  11.235  34.476   4.173
20683W        W84627   2.415  21.557   2.293
20684W        W84628  12.346  20.696  12.437
20685W        W84629  32.637  14.612   1.447
20686W        W84630   6.343  21.525  12.470
20687W        W84631  33.512  39.464  14.395
20688W        W84632  30.422  14.231   2.399
20689W        W84633   4.800  25.051   3.306
20690W        W84634  39.390   6.383  14.442
20691W        W84635   2.228  22.225  13.394
20692W        W84636  32.142  28.009  14.908
20693W        W84637  30.087  20.033   1.289
20694W        W84638  25.035   9.773  11.009
20695W        W84639  27.538  42.982   3.713
20696W        W84640   7.846  25.183  10.081
20697W        W84641  33.017   0.754   1.871
20698W        W84642  43.884   8.688   1.805
20699W        W84643  34.552  38.413   1.897
20700W        W84644  36.882  39.948  13.432
20701W        W84645  42.003  40.905  13.959
20702W        W84646  12.212  26.002  14.819
20703W        W84647  29.640   2.226   2.826
20704W        W84648  20.122  25.028   3.778
20705W        W84649   0.919  37.516  11.456
20706W        W84650  39.462  13.728  14.964
20707W        W84651  16.076   3.404   5.266
20708W        W84652  14.327  38.534   2.399
20709W        W84653  38.922  39.387   1.759
20710W        W84654  11.860  11.776  10.628
20711W        W84655  43.914  33.983  11.931
20712W        W84656  41.531  36.457   2.401
20713W        W84657  10.700  27.020  11.572
20714W        W84658  35.439  37.066  12.923
20715W        W84659   2.363  10.873   2.219
20716W        W84660   2.302  32.067  14.276
20717W        W84661   9.724  44.942   0.872
20718W        W84662  31.046  15.750  14.859
20719W        W84663  43.286  17.597  10.566
20720W        W84664   4.381   8.818  10.147
20721W        W84665  10.302   5.256  14.796
20722W        W84666  40.916   5.241   4.802
20723W        W84667  37.054   5.794  14.908
20724W        W84668  26.457  23.729  13.515
20725W        W84669  38.834  11.755   5.285
20726W        W84670  18.672  24.034  14.997
20727W        W84671  26.124  11.287   0.428
20728W        W84672  27.143  10.879  11.930
20729W        W84673  23.622  26.661   2.198
20730W        W84674   9.187   2.896  11.073
20731W        W84675  26.184  39.928   3.267
20732W        W84676   1.922   4.742   1.431
20733W        W84677  32.900  38.425   0.903
20734W        W84678  32.509  22.121   2.399
20735W        W84679  14.301  38.891  11.415
20736W        W84680  13.297  12.314  12.526
20737W        W84681  34.023  40.334  13.827
20738W        W84682  27.058  12.122  14.352
20739W        W84683  11.233  12.351   2.202
20740W        W84684  24.561  15.704  11.380
20741W        W84685  27.183  12.716   4.180
20742W        W84686  28.485  22.553  14.770
20743W        W84687  40.467  17.092   2.403
20744W        W84688  32.423   2.296  11.068
20745W        W84689  36.383  36.407   1.394
20746W        W84690  16.788   1.411  10.906
20747W        W84691  30.654   5.425   3.178
20748W        W84692  37.448  43.419   4.128
20749W        W84693  19.134  39.381   1.919
20750W        W84694  28.440   6.247   3.651
20751W        W84695  39.910   1.975   0.841
20752W        W84696  30.622   0.462   4.168
20753W        W84697  15.752  21.105   5.131
20754W        W84698  30.473  16.644  10.605
20755W        W84699  12.194  27.640   0.399
20756W        W84700   0.289  21.579   0.361
20757W        W84701   3.282  39.845  10.994
20758W        W84702  35.954  34.437   2.293
20759W        W84703  21.160  20.626   2.355
20760W        W84704   6.906   8.744  10.982
20761W        W84705  34.607  17.176  14.961
20762W        W84706  43.490  39.979  13.525
20763W        W84707  34.874  29.052   0.332
20764W        W84708  20.718  22.046   3.163
20765W        W84709  10.841  22.150  14.331
20766W        W84710  21.055   7.193   3.777
20767W        W84711  12.258   5.770  10.597
20768W        W84712  23.588  29.143  12.477
20769W        W84713  30.433   4.857   4.276
20770W        W84714   9.192  13.678   4.791
20771W        W84715   9.179   8.788  14.781
20772W        W84716  31.599  18.229  10.034
20773W        W84717  40.396  36.486   4.819
20774W        W84718  32.575  16.117  12.363
20775W        W84719  25.112   6.881   1.718
20776W        W84720  37.394  28.551  13.005
20777W        W84721  38.454  14.770   3.867
20778W        W84722  38.529   9.644  10.445
20779W        W84723  16.230   6.821  13.517
20780W        W84724  19.564  28.541  12.506
20781W        W84725   7.834  39.396  11.897
20782W        W84726  18.056   6.272   2.895
20783W        W84727   7.739   6.691  12.568
20784W        W84728  31.122  21.600   3.775
20785W        W84729   1.949   9.305   3.649
20786W        W84730   7.315  24.562  14.018
20787W        W84731  29.480  37.441  10.895
20788W        W84732  23.192  34.098  12.918
20789W        W84733  36.894  32.578  14.489
20790W        W84734  10.205  38.017  12.352
20791W        W84735  31.913  28.118   1.742
20792W        W84736  39.516  35.588   1.316
20793W        W84737  14.607  39.981   4.644
20794W        W84738  29.437  36.420   2.227
20795W        W84739  31.046   6.702   4.180
20796W        W84740   5.219   1.397   0.293
20797W        W84741  43.393  39.559  11.383
20798W        W84742  35.386  13.297  13.024
20799W        W84743  28.666  25.551   2.672
20800W        W84744  27.459  44.303   3.266
20801W        W84745  34.414  25.488   1.336
20802W        W84746  40.366  35.374  13.052
20803W        W84747  43.302  40.038  11.860
20804W        W84748   2.922  17.105  13.485
20805W        W84749  19.273   6.191  14.458
20806W        W84750  13.605   8.823   2.276
20807W        W84751  27.951  24.690  14.782
20808W        W84752  14.632  39.539  12.368
20809W        W84753  12.239  41.382   3.333
20810W        W84754  15.600  38.474  12.454
20811W        W84755  21.629  28.142  11.381
20812W        W84756  26.136  37.890   2.243
20813W        W84757  32.594  44.905  13.010
20814W        W84758  14.603  36.007  10.507
20815W        W84759   9.377  11.809   2.379
20816W        W84760  31.093  38.349  11.485
20817W        W84761  18.137  16.298   1.741
20818W        W84762  41.433  38.930   4.691
20819W        W84763  33.928  26.189   0.288
20820W        W84764   0.479  16.759  12.575
20821W        W84765  43.476  41.890  13.478
20822W        W84766  28.096  32.929  13.954
20823W        W84767   6.410  25.638   2.409
20824W        W84768  23.193  38.860  13.516
20825W        W84769  32.403   3.713   4.349
20826W        W84770  39.540  39.016   3.356
20827W        W84771  35.045  10.300  14.972
20828W        W84772  25.664  20.763  14.886
20829W        W84773  43.305  37.008  10.437
20830W        W84774  43.917  36.441  12.925
20831W        W84775  30.985  25.087   4.652
20832W        W84776  20.659  27.165  14.348
20833W        W84777  15.652  38.831  13.388
20834W        W84778  27.530   9.363  13.377
20835W        W84779  21.182  36.862   0.320
20836W        W84780  37.014  31.463  14.017
20837W        W84781  27.675  43.860  11.376
20838W        W84782  17.138  34.090  11.931
20839W        W84783  40.311  26.120  11.498
20840W        W84784   7.678  38.867  11.908
20841W        W84785  42.465  30.530   1.818
20842W        W84786   5.865  33.000  11.403
20843W        W84787  44.260   9.772   4.795
20844W        W84788   6.839  33.943   4.269
20845W        W84789   0.948  25.607   2.694
20846W        W84790  21.564  26.645  12.857
20847W        W84791  32.010  40.354   5.095
20848W        W84792   1.247  22.027   0.339
20849W        W84793  32.438  20.538  14.871
20850W        W84794  23.164  27.987   2.238
20851W        W84795  13.714  16.149   2.300
20852W        W84796  40.482  39.007   2.669
20853W        W84797   1.952  13.827  12.892
20854W        W84798  16.607  16.790  13.916
20855W        W84799  35.100  44.957   2.317
20856W        W84800  28.068  41.448  11.541
20857W        W84801  28.558  11.661  11.109
20858W        W84802   9.845   5.726  10.942
20859W        W84803  42.803  17.772  14.027
20860W        W84804  18.279  27.153  10.572
20861W        W84805   1.913  34.004  11.006
20862W        W84806  40.010  33.901  12.439
20863W        W84807  23.599  40.880  13.443
20864W        W84808  34.527  35.068   0.740
20865W        W84809   1.877   0.854   0.302
20866W        W84810  13.795  17.569   4.215
20867W        W84811  35.934  14.830  13.525
20868W        W84812  43.885  29.642  10.636
20869W        W84813  37.441  44.889  14.815
20870W        W84814  39.482   0.335  12.373
20871W        W84815  35.574  38.031   1.418
20872W        W84816  25.563   7.778  13.016
20873W        W84817  33.559  24.561   3.802
20874W        W84818  18.165  13.783   1.420
20875W        W84819  35.446  32.526   3.731
20876W        W84820   0.926  16.808   2.799
20877W        W84821  40.464   0.452  12.385
20878W        W84822  32.497   4.899  12.003
20879W        W84823  38.514   5.265  13.844
20880W        W84824   0.963   2.899   3.166
20881W        W84825  15.701   7.863  10.914
20882W        W84826   4.217  41.953  10.633
20883W        W84827  44.755   4.424   4.824
20884W        W84828  39.326   0.486   4.747
20885W        W84829  28.155   2.304   4.600
20886W        W84830  30.042  12.722   3.806
20887W        W84831  37.389  39.985   2.684
20888W        W84832  41.513  42.868   4.158
20889W        W84833  26.498  12.227  10.458
20890W        W84834  36.086  24.547  10.960
20891W        W84835  11.691  19.273  12.371
20892W        W84836   0.262   8.229   1.805
20893W        W84837  34.539  22.053  12.496
20894W        W84838  20.535  30.491  14.915
20895W        W84839  34.888  24.633   0.877
20896W        W84840  12.700  12.626  13.331
20897W        W84841   5.788  26.581   4.276
20898W        W84842  31.000  24.652  14.773
20899W        W84843   5.300   2.819  12.494
20900W        W84844  14.094  40.544   2.402
20901W        W84845   9.392  38.420  13.509
20902W        W84846  13.673  38.356   4.818
20903W        W84847  34.063   2.408   2.220
20904W        W84848  31.921  19.154   1.729
20905W        W84849  41.382  43.376  10.975
20906W        W84850   2.285  42.869  13.823
20907W        W84851  16.575  36.561   4.177
20908W        W84852  19.142  38.850   0.264
20909W        W84853   6.779   9.797   1.836
20910W        W84854  26.054  16.576   5.579
20911W        W84855  33.995  11.336  10.517
20912W        W84856   2.766  43.919   1.419
20913W        W84857   8.685  28.151  12.826
20914W        W84858  37.909   9.773   2.788
20915W        W84859  24.659  27.490   3.788
20916W        W84860   4.252  37.873   3.688
20917W        W84861   5.291  24.222  12.380
20918W        W84862  11.293  36.385   4.722
20919W        W84863   9.191  18.711  12.497
20920W        W84864  24.619  24.116   0.283
20921W        W84865  11.817  41.815  13.307
20922W        W84866  31.554  21.032  13.466
20923W        W84867   7.264   8.235  10.507
20924W        W84868   0.802   7.259  14.307
20925W        W84869  35.512  33.922   0.484
20926W        W84870  40.000  12.712  14.030
20927W        W84871  14.823   8.882  14.497
20928W        W84872  19.656  32.054  13.798
20929W        W84873   4.296   6.905  14.994
20930W        W84874  40.938  15.646   0.464
20931W        W84875  19.229  24.483  10.975
20932W        W84876  41.998   8.782   3.337
20933W        W84877  33.515  39.360  12.435
20934W        W84878  18.078  34.111  12.947
20935W        W84879  15.600   7.755   0.417
20936W        W84880  27.174   1.835  10.499
20937W        W84881  25.608  22.554   2.379
20938W        W84882  42.973  15.209   4.670
20939W        W84883  39.808  38.405   2.718
20940W        W84884   0.924  32.529   0.845
20941W        W84885  31.582   5.809  13.413
20942W        W84886  10.742  39.348  14.805
20943W        W84887  40.961  25.080  10.467
20944W        W84888  17.573  33.590  13.959
20945W        W84889  19.110  31.023   4.645
20946W        W84890  29.142  44.300   2.212
20947W        W84891   9.846  30.454   2.704
20948W        W84892  11.180  24.701  13.973
20949W        W84893  37.439   5.389  14.403
20950W        W84894  23.229   7.234   0.777
20951W        W84895   6.276  24.077  12.912
20952W        W84896  15.590  24.204   1.838
20953W        W84897  17.662  10.300   3.253
20954W        W84898  13.814  30.159  14.402
20955W        W84899  32.447  20.759   3.712
20956W        W84900  42.511  19.212  10.411
20957W        W84901   5.394  32.928   2.696
20958W        W84902  35.470  18.086  11.878
20959W        W84903  22.109  27.127  13.982
20960W        W84904   9.806  27.499  14.810
20961W        W84905  43.501   0.744   3.640
20962W        W84906  42.342  25.106   0.805
20963W        W84907   8.772  27.680   3.373
20964W        W84908   9.846  29.071   3.844
20965W        W84909   5.898  32.623  13.847
20966W        W84910  10.865  30.913  11.432
20967W        W84911  18.698  43.813  10.414
20968W        W84912  15.694  26.998  13.373
20969W        W84913   9.284   9.863  14.797
20970W        W84914  12.352  39.881   2.255
20971W        W84915  40.364   3.381  10.617
20972W        W84916  28.568  27.651  14.303
20973W        W84917  44.389  35.016   1.789
20974W        W84918  36.458  42.024  13.798
20975W        W84919  24.721  38.030  12.942
20976W        W84920  28.099  35.918   0.393
20977W        W84921  43.822  11.787   0.828
20978W        W84922  13.763  14.246  13.049
20979W        W84923   8.766  42.415   3.286
20980W        W84924  41.352  22.186   2.287
20981W        W84925   7.195  42.283  12.911
20982W        W84926  44.388   6.204   0.473
20983W        W84927   2.831  24.173   3.234
20984W        W84928  25.019  33.398  13.026
20985W        W84929  39.057   3.906   2.859
20986W        W84930   5.742  20.714  14.799
20987W        W84931  16.182  11.192   2.192
20988W        W84932   9.887   3.767   4.134
20989W        W84933  14.332  38.528  10.002
20990W        W84934  25.169   2.243  12.484
20991W        W84935   7.242  11.657  12.881
20992W        W84936  28.004  27.078  12.369
20993W        W84937  42.907  38.420   1.406
20994W        W84938   5.239  22.626  11.393
20995W        W84939   1.957  26.547   2.324
20996W        W84940  23.688  15.746   2.227
20997W        W84941  42.018  12.288   4.153
20998W        W84942  35.488  20.239  13.979
20999W        W84943   6.677  27.998   4.651
21000W        W84944  20.096  39.315  13.446
21001W        W84945  40.340  23.558   2.807
21002W        W84946  39.460  43.316  14.861
21003W        W84947  19.763  19.556  11.911
21004W        W84948  31.472  16.724   4.710
21005W        W84949  32.606  35.471   4.636
21006W        W84950  31.074  40.428   4.214
21007W        W84951  21.586  43.366  11.022
21008W        W84952  31.404   6.197  12.388
21009W        W84953  15.083  19.106   4.809
21010W        W84954  40.315  37.067   0.429
21011W        W84955   7.372  14.156  12.481
21012W        W84956  27.484  33.442  12.438
21013W        W84957  25.666  14.127   2.742
21014W        W84958  28.939  31.570  10.935
21015W        W84959  25.083  43.890   0.255
21016W        W84960  37.039  14.751   2.827
21017W        W84961   9.645  29.050   2.803
21018W        W84962   8.401   3.943  11.022
21019W        W84963   8.206  18.586  14.434
21020W        W84964  16.583  28.443   4.277
21021W        W84965   9.647   9.278  11.897
21022W        W84966  14.224  21.216   2.745
21023W        W84967  33.544  20.137   0.820
21024W        W84968  16.781  14.664  10.899
21025W        W84969  14.108  25.156  13.903
21026W        W84970  28.080  25.591  13.008
21027W        W84971  14.651  19.254   3.715
21028W        W84972  19.199  15.186   1.426
21029W        W84973  31.465  34.395  11.550
21030W        W84974  39.395  10.815   1.363
21031W        W84975  35.934   0.920   2.879
21032W        W84976   0.799  40.464   1.852
21033W        W84977  13.760  21.596  12.061
21034W        W84978  40.366  40.023   3.216
21035W        W84979  42.002  42.377   2.244
21036W        W84980  24.507  30.981  11.470
21037W        W84981   3.838  32.119   3.192
21038W        W84982  31.537  15.098  12.421
21039W        W84983   5.791  28.445   5.592
21040W        W84984   4.815  10.836   3.170
21041W        W84985  42.942  16.162  13.329
21042W        W84986  16.256   1.767   5.297
21043W        W84987  12.323  27.668   2.810
21044W        W84988  20.754   9.763   0.377
21045W        W84989  40.038  26.028  14.400
21046W        W84990   4.420  33.388   3.740
21047W        W84991  25.482  37.346  14.016
21048W        W84992  21.032  30.610   0.908
21049W        W84993  27.971  35.582   3.151
21050W        W84994  41.403   6.332   4.807
21051W        W84995  30.907  42.441   3.155
21052W        W84996  32.554  21.663   0.903
21053W        W84997   1.876  15.096   1.439
21054W        W84998  39.053   0.941   2.356
21055W        W84999   9.227  29.566   2.865
21056W        W85000  44.373  29.051  13.427
21057W        W85001  34.002  17.580  14.390
21058W        W85002   3.452  32.502  14.410
21059W        W85003  30.439  43.355   2.800
21060W        W85004  25.186  29.667   3.846
21061W        W85005  32.586  41.323  13.344
21062W        W85006   4.822  12.168  11.553
21063W        W85007   6.769   9.248   2.824
21064W        W85008   6.358  13.212   2.675
21065W        W85009   9.278  42.399  11.450
21066W        W85010   2.321  20.215   4.344
21067W        W85011   3.764  32.397  12.072
21068W        W85012   6.751   0.766  11.855
21069W        W85013  17.634  43.325   3.353
21070W        W85014  39.810  35.009   1.304
21071W        W85015  37.541   2.414   0.444
21072W        W85016  23.127  22.549  14.889
21073W        W85017   0.434   3.877  10.577
21074W        W85018  14.191  15.318  13.905
21075W        W85019  40.950  28.095   1.384
21076W        W85020  22.072  14.677  14.512
21077W        W85021  42.963  12.835  14.780
21078W        W85022  36.571  43.947  10.564
21079W        W85023  26.495   2.444  14.974
21080W        W85024   0.877  44.362  13.482
21081W        W85025  39.462  23.519   4.197
21082W        W85026   1.767  25.104  10.636
21083W        W85027   2.444  26.952   1.772
21084W        W85028  41.294   6.682  11.073
21085W        W85029  22.721   8.882   3.178
21086W        W85030  36.478  14.188  14.358
21087W        W85031  34.935  18.191   4.603
21088W        W85032  18.596   2.938   1.773
21089W        W85033  36.442   9.741  12.947
21090W        W85034  13.125  38.511   4.789
21091W        W85035  42.917  26.179   2.384
21092W        W85036  23.728   0.487   1.730
21093W        W85037  30.065   5.854  14.349
21094W        W85038  36.853  43.825  13.884
21095W        W85039  13.601  35.544  10.415
21096W        W85040  44.417  16.712  14.908
21097W        W85041  24.692   9.644  12.014
21098W        W85042   3.813  38.837  13.834
21099W        W85043   2.953   0.319   0.327
21100W        W85044  36.519   5.336  12.998
21101W        W85045  15.760   5.821   2.270
21102W        W85046  31.481   0.783   3.851
21103W        W85047  14.239  37.080  10.591
21104W        W85048   4.707   6.328   5.269
21105W        W85049   5.391  26.134  14.839
21106W        W85050   6.868  22.505   4.651
21107W        W85051  21.757  43.942  10.966
21108W        W85052  12.329  42.875   2.402
21109W        W85053   8.886  26.682   4.828
21110W        W85054  15.705  22.119  12.958
21111W        W85055  16.276   0.867  11.119
21112W        W85056  17.218  34.965  12.432
21113W        W85057  43.284  15.665  11.557
21114W        W85058  39.408   7.694   2.687
21115W        W85059  34.971  16.260  11.553
21116W        W85060  15.227   8.744  13.440
21117W        W85061  27.120   0.465  12.854
21118W        W85062  42.332  44.348   1.344
21119W        W85063  34.573  44.915  10.511
21120W        W85064  16.755  35.546  12.380
21121W        W85065   8.846  14.337  13.886
21122W        W85066  11.736  27.666  11.920
21123W        W85067  24.717  40.023   2.827
21124W        W85068  33.523  42.450  11.914
21125W        W85069  14.197  23.227  14.905
21126W        W85070   6.712   9.813  14.481
21127W        W85071  41.324  21.662   1.933
21128W        W85072  42.795  13.811   1.266
21129W        W85073  40.029  37.517   9.934
21130W        W85074   8.317  31.105   2.832
21131W        W85075  12.630  18.072  12.487
21132W        W85076  43.879  25.605  13.528
21133W        W85077  29.157  22.619  11.507
21134W        W85078   5.270  36.444  11.095
21135W        W85079  40.461   1.300   4.629
21136W        W85080  31.138  23.725  11.441
21137W        W85081   2.327  14.198   2.306
21138W        W85082  43.511  34.988  14.303
21139W        W85083   0.258  37.391  10.021
21140W        W85084  41.960  31.033   1.760
21141W        W85085   2.423  23.054  11.574
21142W        W85086  28.662  23.541  12.839
21143W        W85087   2.463   4.934   2.199
21144W        W85088  26.121  32.968   1.903
21145W        W85089  23.082  37.451   3.846
21146W        W85090   2.409  20.148  13.983
21147W        W85091   4.770  20.637   4.659
21148W        W85092  14.228  37.075   2.897
21149W        W85093  31.933  37.074  12.872
21150W        W85094  13.622  40.876   2.324
21151W        W85095   8.323  13.124   1.757
21152W        W85096  29.457   9.845   1.259
21153W        W85097  22.608   6.900   3.695
21154W        W85098  26.071  30.128  11.488
21155W        W85099  40.388  27.573  12.471
21156W        W85100  13.722  21.752   4.678
21157W        W85101  21.260  12.615  11.515
21158W        W85102   5.768  28.179  13.354
21159W        W85103  22.234  29.161  12.901
21160W        W85104   6.292   5.710  14.504
21161W        W85105  12.135  19.766   3.227
21162W        W85106  22.077   0.911   2.820
21163W        W85107  13.613  40.404   3.781
21164W        W85108  44.793   0.343  10.555
21165W        W85109   6.922   2.737  14.283
21166W        W85110  43.975  12.845  14.461
21167W        W85111  33.403  25.100   5.102
21168W        W85112  44.374  31.008   3.785
21169W        W85113   4.730  22.044  14.813
21170W        W85114  10.165  11.278  13.508
21171W        W85115  10.704  25.476   0.406
21172W        W85116  34.524  22.128  11.448
21173W        W85117  41.478  19.757  11.933
21174W        W85118  10.288  31.493  14.282
21175W        W85119  40.495  34.427   3.184
21176W        W85120   3.885  29.029  10.534
21177W        W85121  39.509  35.427  12.998
21178W        W85122   8.705  10.369  10.518
21179W        W85123  26.188   8.774  14.331
21180W        W85124  21.035  33.102  11.037
21181W        W85125  19.209  30.489  14.462
21182W        W85126  24.686  13.160   1.359
21183W        W85127  32.576  25.575  12.065
21184W        W85128   9.202  17.627  13.332
21185W        W85129  10.256  41.846   5.259
21186W        W85130  38.493   8.308   3.654
21187W        W85131  43.766  35.090   3.834
21188W        W85132  30.120  25.181   2.182
21189W        W85133  38.538  24.508  12.512
21190W        W85134  35.933  18.164  12.893
21191W        W85135  13.669  20.057   3.248
21192W        W85136  29.465  31.581  12.478
21193W        W85137  31.057  23.647   3.151
21194W        W85138   9.337  35.477  12.852
21195W        W85139  11.234  11.266   1.728
21196W        W85140  42.299  13.723  11.965
21197W        W85141  13.289  41.026   2.178
21198W        W85142   1.313   2.238  14.434
21199W        W85143   0.935  18.730  10.965
21200W        W85144  13.713  24.549  11.966
21201W        W85145  18.082   9.205   4.319
21202W        W85146  10.832  24.165   2.323
21203W        W85147  20.042  41.799  12.555
21204W        W85148  38.454  20.090   0.820
21205W        W85149  24.066   8.795   1.865
21206W        W85150  33.477   5.351   2.773
21207W        W85151  21.696  33.414  11.990
21208W        W85152   0.789  41.361  13.997
21209W        W85153  15.267   0.371  14.951
21210W        W85154  26.625  22.152  14.319
21211W        W85155   0.847  37.851   4.123
21212W        W85156  20.688  34.590   4.680
21213W        W85157   7.337  36.537   1.408
21214W        W85158  30.433  37.558  12.552
21215W        W85159  27.955   7.807   5.311
21216W        W85160  41.803  41.999   0.363
21217W        W85161  26.586  35.958   3.154
21218W        W85162  26.176  10.646   2.290
21219W        W85163  43.302  38.067   1.353
21220W        W85164  39.542  18.670   4.211
21221W        W85165  33.105  27.578   0.861
21222W        W85166  23.145  19.722  11.108
21223W        W85167  14.101  38.837  14.434
21224W        W85168  24.513  28.165  13.983
21225W        W85169  28.968  16.783  14.279
21226W        W85170   8.860   1.940  11.431
21227W        W85171   5.381  17.095  14.878
21228W        W85172  17.149   9.267  14.939
21229W        W85173   9.250  11.767  14.833
21230W        W85174  11.812  30.559   5.124
21231W        W85175  41.499  29.017  11.378
21232W        W85176  35.921  34.379   4.246
21233W        W85177  11.226  21.538  11.987
21234W        W85178  10.779  13.297   4.285
21235W        W85179   2.720  13.172   3.165
21236W        W85180  29.142  28.466   1.322
21237W        W85181  22.553  37.884  10.627
21238W        W85182  14.193  29.580   3.712
21239W        W85183   8.778   7.705  14.971
21240W        W85184   8.783  18.753   3.215
21241W        W85185   0.881  38.015   4.814
21242W        W85186   2.283  11.843  11.890
21243W        W85187  19.690  21.709   3.272
21244W        W85188  43.393   6.382  11.954
21245W        W85189   6.844  30.502   4.676
21246W        W85190  13.811  28.582  14.282
21247W        W85191  31.931  14.330   4.131
21248W        W85192  21.716  42.027  10.444
21249W        W85193  26.597   1.339   2.681
21250W        W85194   5.856   5.270  13.810
21251W        W85195  41.419  16.185  12.013
21252W        W85196  39.045  20.236  12.579
21253W        W85197   3.771  33.396  11.938
21254W        W85198  11.299  32.432   4.783
21255W        W85199  44.785   0.343   3.358
21256W        W85200   9.152  11.265   2.789
21257W        W85201  15.206  44.481   2.269
21258W        W85202  41.421  38.951   0.945
21259W        W85203  36.495   5.809   2.805
21260W        W85204  11.196  25.617  14.893
21261W        W85205  40.343  40.909   4.615
21262W        W85206   7.315  26.484   0.363
21263W        W85207  20.653   6.274   3.830
21264W        W85208  31.493  31.465  14.382
21265W        W85209  34.511  12.814   1.805
21266W        W85210  21.144  13.152   1.408
21267W        W85211   4.308  39.536   1.220
21268W        W85212  28.625   6.704  11.877
21269W        W85213   6.875  39.378  12.959
21270W        W85214  33.442  34.608   2.714
21271W        W85215  44.890   3.390  11.474
21272W        W85216  11.211   3.779  10.586
21273W        W85217   3.410  33.946   1.701
21274W        W85218   7.851  16.124  11.519
21275W        W85219  15.721  38.038  14.359
21276W        W85220  39.355   8.710  11.023
21277W        W85221  17.209  24.121   0.346
21278W        W85222  32.044  31.949   2.245
21279W        W85223  36.874  42.943  13.887
21280W        W85224  25.499  26.541  12.551
21281W        W85225  39.061  35.877  13.384
21282W        W85226  37.040  26.688   3.206
21283W        W85227   4.871   7.698  10.589
21284W        W85228   3.931  23.578  14.030
21285W        W85229  24.084   6.802  14.952
21286W        W85230  23.560  23.997  11.512
21287W        W85231  35.513   4.386  13.528
21288W        W85232  11.722   4.750  12.555
21289W        W85233  15.098  24.569   2.380
21290W        W85234  36.539  39.325   3.278
21291W        W85235  38.881   5.831  10.564
21292W        W85236  22.700  28.572   0.932
21293W        W85237  39.394  29.151  11.084
21294W        W85238   0.751  38.451  14.025
21295W        W85239   5.439  42.499   2.843
21296W        W85240  35.975  15.801   3.830
21297W        W85241  41.421  30.443  10.890
21298W        W85242  21.088  11.793   4.825
21299W        W85243   1.333  11.683   2.749
21300W        W85244   4.236  27.015   1.256
21301W        W85245  28.959  38.048   0.255
21302W        W85246  14.778  17.778   2.396
21303W        W85247   1.940  38.432  13.007
21304W        W85248  32.033  32.134   3.687
21305W        W85249  24.180  27.464  12.419
21306W        W85250  34.989  24.000  12.422
21307W        W85251  36.909  44.303  10.117
21308W        W85252   7.797   5.868  14.970
21309W        W85253   7.696  18.591   2.777
21310W        W85254  24.691  10.698   2.741
21311W        W85255  27.135  21.630   1.355
21312W        W85256  31.063  14.252  13.408
21313W        W85257  40.978  43.798   2.198
21314W        W85258  27.032  19.073   2.199
21315W        W85259  27.637  15.766   4.132
21316W        W85260  37.368  39.429  14.453
21317W        W85261   0.340  22.183  12.452
21318W        W85262  18.573  41.926   3.319
21319W        W85263  17.289  36.943  12.373
21320W        W85264   1.274  40.938   2.339
21321W        W85265  28.455  14.154  10.024
21322W        W85266   1.320  29.170   0.272
21323W        W85267  29.513  30.149  14.286
21324W        W85268   1.302  11.140  13.833
21325W        W85269  31.595  18.188  11.945
21326W        W85270  25.602  41.438  11.042
21327W        W85271  15.743  37.580  12.481
21328W        W85272  28.532  36.422   0.374
21329W        W85273   7.347  19.044  12.001
21330W        W85274  33.398  32.594   3.690
21331W        W85275  32.608  11.805  13.952
21332W        W85276  38.917  44.758  14.776
21333W        W85277   4.288  41.369  13.028
21334W        W85278  13.615  28.670  11.568
21335W        W85279   4.418   3.321   1.222
21336W        W85280  44.409  28.675  13.454
21337W        W85281   2.350  13.326   3.647
21338W        W85282   9.173  17.682   3.232
21339W        W85283  29.061  17.711   0.790
21340W        W85284   4.386  29.098   2.302
21341W        W85285  17.209   3.257   4.316
21342W        W85286  10.292   2.723   0.786
21343W        W85287   1.282  12.320  12.950
21344W        W85288  43.397   3.378   4.745
21345W        W85289  17.159  37.034   2.417
21346W        W85290  32.934  19.157   2.315
21347W        W85291   4.899  20.212   4.234
21348W        W85292  44.801  40.800   3.851
21349W        W85293  43.884  30.116   4.618
21350W        W85294   6.687  10.283  13.510
21351W        W85295  21.634  44.930  12.832
21352W        W85296   7.892  40.543   5.084
21353W        W85297  42.327  30.127  12.467
21354W        W85298  38.822  42.307   2.341
21355W        W85299  10.296  43.457   4.182
21356W        W85300  26.087  44.771   3.817
21357W        W85301  23.996   4.869   3.155
21358W        W85302  15.797  38.829   5.260
21359W        W85303  11.316  44.262   2.790
21360W        W85304  40.473  42.966   2.352
21361W        W85305  17.098  37.057   0.388
21362W        W85306  30.035   2.331  13.449
21363W        W85307  30.119  27.138   2.716
21364W        W85308  14.623  25.004   0.884
21365W        W85309  25.701  22.234  12.009
21366W        W85310  23.504  12.612  10.986
21367W        W85311   6.418  13.142  11.110
21368W        W85312  13.134  42.007   1.769
21369W        W85313  44.401  15.651   5.319
21370W        W85314  44.418  13.745   4.752
21371W        W85315  26.098  38.852  10.974
21372W        W85316  32.894  16.740  10.543
21373W        W85317   8.844   0.823  11.096
21374W        W85318  43.292  19.646  12.566
21375W        W85319  21.049   6.286  12.463
21376W        W85320  13.834  21.147   2.308
21377W        W85321  25.013   5.907  11.923
21378W        W85322  44.321   8.839   2.232
21379W        W85323  19.272  15.605   1.431
21380W        W85324  17.569  37.850  14.310
21381W        W85325   5.338  33.059   0.787
21382W        W85326   2.922  43.507  10.968
21383W        W85327  26.687  23.014   0.910
21384W        W85328   5.384  22.211  12.533
21385W        W85329   9.371  35.897  13.038
21386W        W85330   9.676  12.173   1.349
21387W        W85331  15.582  30.646  11.008
21388W        W85332  26.634  19.279   3.740
21389W        W85333   3.437  11.138  13.028
21390W        W85334  18.269  41.370  13.329
21391W        W85335  44.799  24.586  14.795
21392W        W85336  30.522  42.964  11.544
21393W        W85337  12.195   9.822  14.921
21394W        W85338  29.000  22.045  11.546
21395W        W85339  27.142  22.231  11.971
21396W        W85340  43.345  32.908   1.839
21397W        W85341  30.982   7.697  14.877
21398W        W85342  38.826  21.642   1.731
21399W        W85343  21.749  32.432  13.357
21400W        W85344  19.141  20.526  10.933
21401W        W85345   9.730  10.786  11.385
21402W        W85346  27.099  33.949  12.465
21403W        W85347   7.763  19.070   1.853
21404W        W85348   3.352  39.006  11.072
21405W        W85349  19.581  41.322   3.274
21406W        W85350  31.919  24.494  14.876
21407W        W85351   2.744  31.545  11.938
21408W        W85352   2.870   0.300  13.367
21409W        W85353  37.065  34.576  11.042
21410W        W85354  17.631   4.766  12.984
21411W        W85355  32.524  26.968   0.876
21412W        W85356  22.706  30.133   0.919
21413W        W85357  37.479   4.782   0.374
21414W        W85358  40.894  43.853   0.343
21415W        W85359  41.885  44.010   3.387
21416W        W85360   3.803  30.520  12.541
21417W        W85361  12.613  34.959   2.900
21418W        W85362  28.558  13.803  14.785
21419W        W85363  37.018  42.878   3.677
21420W        W85364  27.592  34.095   4.116
21421W        W85365  40.359  12.629   2.722
21422W        W85366  21.568   6.253  13.404
21423W        W85367  14.829  16.640  14.418
21424W        W85368  24.580  43.826   4.209
21425W        W85369  17.129  35.035  12.918
21426W        W85370  33.996  42.848  13.804
21427W        W85371  33.497  13.308   2.903
21428W        W85372  10.344  37.031  11.125
21429W        W85373  10.833  31.619  13.889
21430W        W85374  13.177  24.033   1.375
21431W        W85375  37.997   3.818  12.380
21432W        W85376  41.928   8.773  12.380
21433W        W85377  33.400  19.618  13.915
21434W        W85378  15.721  17.772  12.578
21435W        W85379  20.196   4.760  13.313
21436W        W85380  28.542  39.346  14.343
21437W        W85381   7.337  19.157  11.451
21438W        W85382  43.892   4.935  13.984
21439W        W85383   2.875   6.408  11.028
21440W        W85384  32.502  14.593   2.711
21441W        W85385   4.448  21.543   0.285
21442W        W85386  42.393  31.570  11.551
21443W        W85387  37.488  30.506   0.416
21444W        W85388  17.141   8.845  13.515
21445W        W85389  12.147   7.845   4.695
21446W        W85390  34.565   1.842   3.683
21447W        W85391  43.356  12.159   2.413
21448W        W85392  17.226   8.394  13.887
21449W        W85393  45.000  12.187  13.790
21450W        W85394  20.078   4.236  11.565
21451W        W85395  25.671  43.401   1.323
21452W        W85396  31.532  11.349   1.899
21453W        W85397   4.417  17.686   3.148
21454W        W85398   8.878   0.763  12.375
21455W        W85399  35.049  42.475  13.529
21456W        W85400   5.841  42.457  14.779
21457W        W85401  39.847  34.581  10.595
21458W        W85402  33.123   3.390   1.341
21459W        W85403  16.261  10.166   0.911
21460W        W85404  17.754   9.643   5.715
21461W        W85405  38.537  16.655  13.535
21462W        W85406  44.006  30.630  11.856
21463W        W85407  33.548  44.006  14.968
21464W        W85408  43.002  28.439  14.418
21465W        W85409  31.961  33.617  13.469
21466W        W85410  22.177  36.927   0.306
21467W        W85411  33.522  34.975  12.069
21468W        W85412  16.264  22.738  14.773
21469W        W85413  10.168  34.568  14.381
21470W        W85414  44.990   8.800  14.839
21471W        W85415  41.506   6.262   2.796
21472W        W85416  23.109   6.688   2.849
21473W        W85417  31.474  15.736  12.372
21474W        W85418  17.621   6.375   1.814
21475W        W85419  15.673  42.333   0.919
21476W        W85420  43.933  44.296   4.714
21477W        W85421  28.175  12.702  12.975
21478W        W85422  11.745   5.720  12.579
21479W        W85423   6.238  30.070   9.471
21480W        W85424  19.250  27.639   1.236
21481W        W85425   2.934   7.336  12.390
21482W        W85426  41.530  12.802  14.467
21483W        W85427  41.492  42.485   3.234
21484W        W85428  41.535  18.769   2.368
21485W        W85429  15.299  27.477  12.398
21486W        W85430   4.816  12.808  10.999
21487W        W85431  30.022  11.189  10.416
21488W        W85432  23.544  19.101   1.302
21489W        W85433   7.910  31.081   3.181
21490W        W85434  27.454   1.461   0.402
21491W        W85435   6.913  23.517  10.983
21492W        W85436  32.495  26.201  10.428
21493W        W85437   6.239  26.599   1.319
21494W        W85438  20.557  29.953  10.405
21495W        W85439  41.959  22.225   1.849
21496W        W85440  18.210   1.822   4.789
21497W        W85441   2.305  33.503  13.476
21498W        W85442  40.373   2.472   4.158
21499W        W85443  39.899  37.891   3.374
21500W        W85444   5.349  16.589  12.969
21501W        W85445  19.735  43.393   4.278
21502W        W85446  42.514  11.355  10.477
21503W        W85447  40.366  28.985  14.817
21504W        W85448  34.530   5.787   1.437
21505W        W85449  12.629  11.244  14.827
21506W        W85450  17.139   1.269   4.661
21507W        W85451  17.707  34.117   0.763
21508W        W85452  38.870  36.963   1.261
21509W        W85453  11.670  41.501  10.505
21510W        W85454  10.252  25.511   5.306
21511W        W85455  18.603   7.216  14.772
21512W        W85456  39.391  42.897  12.056
21513W        W85457  32.966  32.971   4.280
21514W        W85458  40.347  39.892  12.050
21515W        W85459   2.887  23.060   3.149
21516W        W85460  12.360  32.887   1.788
21517W        W85461  30.151  21.752   4.225
21518W        W85462  29.983  36.549  10.419
21519W        W85463  37.367  43.787  13.841
21520W        W85464   9.226  12.142  12.567
21521W        W85465  26.599  42.837   2.770
21522W        W85466   6.425  27.995   2.212
21523W        W85467  39.047   8.815  14.978
21524W        W85468  37.007  38.550   3.629
21525W        W85469  30.510  40.907   2.384
21526W        W85470  11.230  33.953   1.350
21527W        W85471  30.940  38.494  13.998
21528W        W85472  26.627   8.369  14.829
21529W        W85473   4.720   2.910   3.211
21530W        W85474  21.523  16.785  13.527
21531W        W85475  36.417   4.241   0.948
21532W        W85476   4.887  10.333  11.560
21533W        W85477  42.776  38.070  13.388
21534W        W85478  13.797   4.852   2.325
21535W        W85479  25.693  16.141   4.262
21536W        W85480   7.813  18.052   3.846
21537W        W85481  39.019  17.671  12.485
21538W        W85482  38.411  40.037   2.188
21539W        W85483  11.253  28.511   3.222
21540W        W85484  44.289   4.298   2.369
21541W        W85485  19.269  12.176  14.001
21542W        W85486   9.206  32.089  11.553
21543W        W85487  13.163  33.384   4.611
21544W        W85488  31.593  17.222   0.420
21545W        W85489   3.457  23.660   4.670
21546W        W85490  31.523  34.913   0.246
21547W        W85491  41.825  23.116   0.889
21548W        W85492  40.017  37.959  11.379
21549W        W85493   8.875  12.714  13.964
21550W        W85494  12.691  20.081  13.362
21551W        W85495  37.495  24.629   0.424
21552W        W85496  36.868  21.673   3.791
21553W        W85497  24.704  33.975   1.798
21554W        W85498   7.805  44.763  13.985
21555W        W85499  16.281  22.229  13.355
21556W        W85500  14.643   3.381  11.382
21557W        W85501   0.367  32.077  14.890
21558W        W85502  23.634   3.838  14.499
21559W        W85503  12.185  31.904   2.208
21560W        W85504  33.560  32.506   0.853
21561W        W85505  28.641  22.708  12.877
21562W        W85506  13.603  30.104   4.797
21563W        W85507  18.714  13.349   4.790
21564W        W85508  28.567  16.261   9.927
21565W        W85509  41.388  36.093   2.817
21566W        W85510  24.662  29.594  13.334
21567W        W85511  34.091  42.800   3.276
21568W        W85512   4.723  21.089  11.547
21569W        W85513  18.074   6.294   2.304
21570W        W85514   4.250   7.769   1.376
21571W        W85515  16.277  23.189  13.312
21572W        W85516  16.153  38.400  11.399
21573W        W85517  38.928  33.063   4.132
21574W        W85518  20.729   5.692   4.606
21575W        W85519  42.931  44.969  14.808
21576W        W85520  41.375  26.527  10.582
21577W        W85521  22.015  27.118   2.285
21578W        W85522   5.903  18.707   3.664
21579W        W85523  20.559  37.527   0.369
21580W        W85524   5.856   2.848  14.008
21581W        W85525  21.037   1.934  12.524
21582W        W85526  14.174  23.655  11.526
21583W        W85527  42.830  10.176   4.352
21584W        W85528  24.060  21.017   0.791
21585W        W85529  17.070  37.868   2.719
21586W        W85530  44.758  27.169   1.877
21587W        W85531  40.329  23.171  11.580
21588W        W85532   3.435  20.151   4.741
21589W        W85533  12.645  27.521   0.342
21590W        W85534  24.648  25.672   4.327
21591W        W85535  23.135  26.201  11.051
21592W        W85536  14.777  24.117  14.015
21593W        W85537   7.393  13.799  14.955
21594W        W85538   5.241  19.072   4.195
21595W        W85539  28.144  11.320  14.008
21596W        W85540  37.552  42.381  13.870
21597W        W85541  23.198  43.302  14.289
21598W        W85542  25.631  14.726   4.325
21599W        W85543  41.512  12.164   0.893
21600W        W85544  35.031  29.075  12.566
21601W        W85545   2.466  24.982  10.145
21602W        W85546   7.824  11.151   3.288
21603W        W85547  20.102  39.537  12.413
21604W        W85548  24.024  17.287  14.325
21605W        W85549  38.973   5.377   2.748
21606W        W85550  19.079  10.371   3.252
21607W        W85551   3.271  36.419   1.832
21608W        W85552   0.983   0.362  14.382
21609W        W85553  13.332  37.469  13.871
21610W        W85554  18.605  15.756  14.780
21611W        W85555  16.130   8.872   4.130
21612W        W85556  31.152  25.590   2.800
21613W        W85557  21.595  22.508   2.212
21614W        W85558   4.767   2.961   2.843
21615W        W85559  44.425   4.843   5.137
21616W        W85560   9.651  29.538  14.914
21617W        W85561  36.983   7.674   2.319
21618W        W85562  30.968  37.529  12.085
21619W        W85563  20.256  31.434  10.460
21620W        W85564  43.977  20.161   0.417
21621W        W85565  25.147  40.418  13.413
21622W        W85566  17.113  29.132  10.433
21623W        W85567  38.405   3.290   0.857
21624W        W85568  35.573   9.689  12.381
21625W        W85569  42.909  22.141   3.842
21626W        W85570  35.107   0.406   1.825
21627W        W85571  10.834   5.293   4.252
21628W        W85572  31.614  22.102  12.562
21629W        W85573  10.809  27.132  14.376
21630W        W85574  38.549   3.881   1.216
21631W        W85575  32.625  35.554   1.295
21632W        W85576  33.078   7.900   0.453
21633W        W85577  31.414  27.483  14.506
21634W        W85578  35.913  35.986  13.807
21635W        W85579  23.998  30.512  10.110
21636W        W85580   8.665  12.668   0.381
21637W        W85581   6.724   1.366  14.848
21638W        W85582  33.544   5.751  13.908
21639W        W85583  28.967  17.241  12.062
21640W        W85584  32.921  19.145   3.284
21641W        W85585  30.945  27.627   3.219
21642W        W85586  25.562   1.876  12.044
21643W        W85587  22.565  33.090   2.266
21644W        W85588  41.953  22.636  10.911
21645W        W85589  40.479  41.301  14.996
21646W        W85590  30.968  42.805  12.406
21647W        W85591  19.605  24.092  13.928
21648W        W85592   1.953  37.068   1.835
21649W        W85593  25.663  21.063   1.862
21650W        W85594  10.667  29.453  12.075
21651W        W85595   2.352  14.771  11.038
21652W        W85596  40.389  35.530  14.476
21653W        W85597  30.996  35.435  11.381
21654W        W85598   0.767  36.879  11.430
21655W        W85599  36.466  10.275  11.417
21656W        W85600  22.694  43.792  13.347
21657W        W85601  24.127  26.554  10.110
21658W        W85602  31.424  16.658   3.264
21659W        W85603  14.127  39.828  13.028
21660W        W85604  28.999  35.480  14.382
21661W        W85605   5.279  12.674   0.317
21662W        W85606  19.723  44.353  14.437
21663W        W85607  26.195  36.051   0.817
21664W        W85608  18.764  15.747  13.852
21665W        W85609  24.692  44.878   1.276
21666W        W85610  11.157  15.767   0.427
21667W        W85611   5.310  39.997  13.423
21668W        W85612  33.944  27.142  12.349
21669W        W85613  15.295  39.936  11.078
21670W        W85614  36.504   4.822   0.262
21671W        W85615  10.142  11.366  12.007
21672W        W85616   0.769  40.010   1.305
21673W        W85617  37.071  13.231   1.830
21674W        W85618  25.644  43.945   4.140
21675W        W85619  15.137  13.347   2.184
21676W        W85620   0.403  14.300  12.888
21677W        W85621  32.470  42.456  14.330
21678W        W85622  43.343  36.071   3.679
21679W        W85623  41.946  25.497   2.241
21680W        W85624   6.376  30.450   4.173
21681W        W85625  24.039   3.738  11.995
21682W        W85626   7.867  26.695  14.017
21683W        W85627  18.214   4.344  10.910
21684W        W85628  20.062   3.852   3.635
21685W        W85629  37.348  32.583   1.901
21686W        W85630  17.617  17.788  14.409
21687W        W85631  11.669  42.873   0.376
21688W        W85632  42.830  22.155   0.939
21689W        W85633  19.709  18.585  11.035
21690W        W85634  15.212  25.672   1.242
21691W        W85635  42.010  23.231   4.640
21692W        W85636  16.228  10.779   5.651
21693W        W85637  44.825  37.054   1.756
21694W        W85638  24.620  12.816  14.785
21695W        W85639   2.352  37.073  10.531
21696W        W85640   6.800  33.006   3.807
21697W        W85641  39.895  27.467  11.435
21698W        W85642  12.177  42.353   4.777
21699W        W85643  42.434  10.311   4.653
21700W        W85644  43.958  43.475   4.717
21701W        W85645   9.656  28.452   0.435
21702W        W85646  16.137  30.621  13.329
21703W        W85647  44.804  41.511  14.502
21704W        W85648  29.973  11.159  11.911
21705W        W85649  15.585  33.992  13.437
21706W        W85650  43.882  36.511  10.555
21707W        W85651  33.099  19.111   0.306
21708W        W85652   3.314  23.602  14.343
21709W        W85653  31.130   9.776  12.566
21710W        W85654  14.797   8.188  12.027
21711W        W85655  32.054  37.420   2.399
21712W        W85656   8.888  44.455  14.770
21713W        W85657  39.409  19.625   3.325
21714W        W85658  33.617  14.779   2.326
21715W        W85659  20.099  11.168  12.045
21716W        W85660  23.037   9.153  12.481
21717W        W85661  28.183  15.594   5.295
21718W        W85662  19.677  26.096  11.468
21719W        W85663  36.585  30.558   1.792
21720W        W85664  19.777  23.621   0.437
21721W        W85665   1.965  42.868  11.001
21722W        W85666  24.035  16.706  13.022
21723W        W85667  20.237  44.299   3.325
21724W        W85668  38.895  43.901  13.354
21725W        W85669  16.246  34.546   4.263
21726W        W85670  22.586  37.856   1.814
21727W        W85671  32.405  25.157   1.442
21728W        W85672  23.543  35.883   2.367
21729W        W85673  42.403  38.461  13.489
21730W        W85674  19.281  26.703  14.377
21731W        W85675   5.212  26.479  14.448
21732W        W85676  15.602  14.737   2.671
21733W        W85677  33.597  17.778  14.409
21734W        W85678  38.957   1.468  10.953
21735W        W85679   8.404  20.066  12.883
21736W        W85680  20.218  16.311   1.694
21737W        W85681  38.494   9.761   0.393
21738W        W85682  20.553  32.598   1.340
21739W        W85683   2.963   9.350   3.253
21740W        W85684  14.318  13.239   2.825
21741W        W85685   0.476  24.213  13.412
21742W        W85686  20.182  19.085  11.579
21743W        W85687   4.938  40.983   0.862
21744W        W85688  20.617  14.290   2.844
21745W        W85689  27.681  26.159  14.293
21746W        W85690   6.382  18.225   4.337
21747W        W85691  16.118   3.730   2.349
21748W        W85692   9.389   6.816  13.047
21749W        W85693  29.426  12.335  11.078
21750W        W85694   1.478   1.773   4.698
21751W        W85695  25.595   2.227  14.491
21752W        W85696  14.226  29.040  11.914
21753W        W85697   8.305  14.769  14.322
21754W        W85698   4.714  35.463   0.807
21755W        W85699  33.522  23.174  10.434
21756W        W85700  34.538  26.661  10.435
21757W        W85701  22.611   1.867   2.819
21758W        W85702  37.401  16.182   4.835
21759W        W85703  31.478  28.527  13.408
21760W        W85704  38.884  44.387  11.397
21761W        W85705  11.808  17.159   9.593
21762W        W85706   8.816  40.950   2.807
21763W        W85707  19.120  18.669   4.762
21764W        W85708  24.221  12.120  11.028
21765W        W85709  39.994  31.942  12.919
21766W        W85710  18.086  26.558  10.917
21767W        W85711  15.122  11.847  14.330
21768W        W85712   1.301  32.565   0.422
21769W        W85713  26.553  42.413  14.783
21770W        W85714   4.220  21.225   2.812
21771W        W85715   5.236  16.617   3.363
21772W        W85716  15.718  30.530  10.590
21773W        W85717  23.094  16.171   0.253
21774W        W85718   8.191  20.678   4.598
21775W        W85719  22.589  20.228  11.451
21776W        W85720  32.437  29.020   0.910
21777W        W85721  29.492  16.580  11.497
21778W        W85722   3.866  15.170  10.422
21779W        W85723  16.744  40.534  12.826
21780W        W85724  44.452   0.817  13.802
21781W        W85725  29.571   9.350  14.340
21782W        W85726  41.934  15.768   4.203
21783W        W85727  41.992   2.882   4.308
21784W        W85728  16.103  14.336  14.796
21785W        W85729  38.976  23.132  14.871
21786W        W85730  43.966  22.585  10.566
21787W        W85731  38.844  28.580  13.829
21788W        W85732   1.756  44.491  12.873
21789W        W85733  35.971  17.200   3.247
21790W        W85734  11.861   0.422   5.721
21791W        W85735  17.730  33.879   3.314
21792W        W85736  28.650  30.155  14.859
21793W        W85737  34.571  11.225  11.552
21794W        W85738  40.853  17.266  10.601
21795W        W85739  13.131  23.651   2.765
21796W        W85740  35.887  27.132  14.804
21797W        W85741  37.379  27.015  12.555
21798W        W85742  34.520  11.702  13.368
21799W        W85743  28.111  33.580   4.810
21800W        W85744  40.804  26.564  12.448
21801W        W85745   1.419  37.991  11.536
21802W        W85746  14.778  15.672  12.550
21803W        W85747  36.480   1.756   3.797
21804W        W85748  18.771  43.013   3.367
21805W        W85749   9.801  25.187   1.733
21806W        W85750  19.119  35.440   1.340
21807W        W85751   7.370   5.818  14.010
21808W        W85752  33.934  35.427  10.961
21809W        W85753  18.629  34.121   4.290
21810W        W85754   8.189   7.317   4.632
21811W        W85755  37.033  10.843  14.010
21812W        W85756  40.922   5.265   3.692
21813W        W85757  16.634  25.606   1.273
21814W        W85758  31.951  26.615   5.087
21815W        W85759   7.762   7.681  12.974
21816W        W85760  26.650   6.214  13.403
21817W        W85761  29.090  33.003   2.697
21818W        W85762  14.242   4.434   1.903
21819W        W85763   6.340  22.093   4.685
21820W        W85764  37.562  19.770  12.063
21821W        W85765  20.134  30.518   2.703
21822W        W85766   2.340   9.339  11.533
21823W        W85767  42.387   6.305   3.811
21824W        W85768  34.527  16.222  13.863
21825W        W85769  42.937  27.466   2.691
21826W        W85770  18.147  30.587  11.518
21827W        W85771   7.730   2.462   3.219
21828W        W85772  31.586  33.055  13.380
21829W        W85773   5.801  14.767   0.432
21830W        W85774   4.380   1.352  12.553
21831W        W85775  18.252  19.610  14.377
21832W        W85776  19.683  26.036  12.380
21833W        W85777   1.441  10.291   3.249
21834W        W85778  19.175  25.535   0.746
21835W        W85779  14.622  24.593  10.983
21836W        W85780  18.609  43.462  13.831
21837W        W85781  15.179  31.020  12.834
21838W        W85782  20.072  26.050  12.448
21839W        W85783  42.815   3.824   1.720
21840W        W85784  33.007   8.274  10.517
21841W        W85785  11.363  44.857  13.981
21842W        W85786  10.161  17.297  12.001
21843W        W85787  34.095  42.403   4.255
21844W        W85788  14.204  23.145   2.349
21845W        W85789  40.963  40.397  12.025
21846W        W85790  30.017  36.974  10.480
21847W        W85791  20.656  22.192  10.410
21848W        W85792  41.869  37.076   0.299
21849W        W85793   7.818   0.947  10.594
21850W        W85794  29.630  20.725  13.808
21851W        W85795  22.155   3.222   2.388
21852W        W85796   3.736  20.729   4.190
21853W        W85797  17.580  33.927  10.069
21854W        W85798  12.362  30.580  11.968
21855W        W85799  43.019  14.219   5.257
21856W        W85800  42.839  42.287  14.362
21857W        W85801  14.731  36.563   4.728
21858W        W85802  15.758  27.969   5.283
21859W        W85803  36.920  34.092  13.511
21860W        W85804  41.379  12.120   1.783
21861W        W85805   5.758   8.680   4.199
21862W        W85806  35.939   1.448  13.348
21863W        W85807  18.229  34.886   1.909
21864W        W85808  29.007  22.012   3.780
21865W        W85809   9.661  11.127  12.041
21866W        W85810  19.285   6.414   1.451
21867W        W85811  13.152  23.044   4.666
21868W        W85812   5.726   9.764   4.115
21869W        W85813   1.318  21.618   4.139
21870W        W85814  38.929  33.604  12.961
21871W        W85815   0.841  36.354   2.260
21872W        W85816  14.791   7.341   2.317
21873W        W85817  17.264   1.894   4.746
21874W        W85818  27.461   7.333   1.408
21875W        W85819  10.647  26.121   2.275
21876W        W85820  11.338   3.232   3.639
21877W        W85821  19.098   9.237   1.222
21878W        W85822  23.686  30.553  11.481
21879W        W85823  30.559  13.147   4.283
21880W        W85824  43.509  39.319  10.581
21881W        W85825  36.541   7.246  14.002
21882W        W85826  32.500  28.131  13.053
21883W        W85827  42.917  16.708   0.310
21884W        W85828  27.193  27.104   2.300
21885W        W85829  38.463  35.100  12.570
21886W        W85830  33.884  29.574   4.768
21887W        W85831  38.832   4.820   4.126
21888W        W85832  13.760  17.593  13.047
21889W        W85833  33.484  20.554  13.919
21890W        W85834  44.281  41.433  10.126
21891W        W85835  26.504  41.382   4.307
21892W        W85836  20.129  27.568  14.401
21893W        W85837   8.376  16.116  12.411
21894W        W85838  28.670  16.148  13.976
21895W        W85839   7.700  11.688   3.240
21896W        W85840  36.074  26.104   4.316
21897W        W85841   4.263  12.776   3.303
21898W        W85842  26.176  35.852   1.902
21899W        W85843   2.745  41.339   2.374
21900W        W85844  28.603  22.095   1.271
21901W        W85845  17.280  15.245  13.368
21902W        W85846  10.779   7.184  11.055
21903W        W85847  11.144  22.249  14.966
21904W        W85848   8.795  27.191  12.384
21905W        W85849  28.626  32.047  13.020
21906W        W85850  35.060  20.069  11.075
21907W        W85851  35.011  44.356   2.831
21908W        W85852  39.024  43.278   4.124
21909W        W85853  17.559  20.228  11.504
21910W        W85854  12.150   4.250  11.039
21911W        W85855   5.687  29.003  12.994
21912W        W85856  19.605   5.391  14.873
21913W        W85857   5.848  44.344   3.155
21914W        W85858  19.237  17.115  11.001
21915W        W85859  28.447   6.828   3.338
21916W        W85860  17.657  29.554  12.410
21917W        W85861  14.255  25.590   1.836
21918W        W85862  37.881   9.377  14.016
21919W        W85863  43.948  32.032  10.633
21920W        W85864  11.836  36.398  13.307
21921W        W85865  40.810   1.781   5.237
21922W        W85866   9.336  29.500  10.601
21923W        W85867  19.537   5.745   2.790
21924W        W85868  18.250  32.130   3.636
21925W        W85869  18.627   1.895  10.042
21926W        W85870   1.762   0.305  13.368
21927W        W85871  30.530  27.943   3.708
21928W        W85872  30.987   4.253   3.300
21929W        W85873  25.991  38.468  14.839
21930W        W85874  39.893  42.914  14.504
21931W        W85875  39.346  39.036   1.313
21932W        W85876  33.442  21.649  11.395
21933W        W85877  19.736  41.891  13.459
21934W        W85878  11.196  32.483  14.884
21935W        W85879  44.483   5.290   1.415
21936W        W85880   5.412  28.461  11.010
21937W        W85881  36.467   9.774   1.911
21938W        W85882  32.121   9.682  12.476
21939W        W85883  34.888  29.145  10.463
21940W        W85884  41.006  24.007   4.339
21941W        W85885   3.847  33.582   0.866
21942W        W85886   2.761  23.602   0.967
21943W        W85887  36.452  37.962   0.455
21944W        W85888  22.622  11.823   2.675
21945W        W85889   3.291   1.901  10.562
21946W        W85890   4.281  13.786  14.866
21947W        W85891  14.309  37.996  10.615
21948W        W85892   8.704  28.578  10.988
21949W        W85893  39.992  33.912  12.875
21950W        W85894   8.364  19.114   1.915
21951W        W85895  12.698   2.390  13.464
21952W        W85896  33.583  43.456  10.626
21953W        W85897  16.615  22.209  13.369
21954W        W85898  17.087  11.146   1.232
21955W        W85899  43.304  20.670  11.377
21956W        W85900  40.466  31.077   3.860
21957W        W85901  30.626   5.407  14.425
21958W        W85902  44.005   9.179   1.295
21959W        W85903  42.351  37.396   2.288
21960W        W85904   2.816  11.675   3.285
21961W        W85905  21.730  25.218   1.754
21962W        W85906   3.931  28.566   1.220
21963W        W85907   1.472   2.268   4.306
21964W        W85908  37.884  37.873  11.462
21965W        W85909  39.557  33.462  14.773
21966W        W85910  41.416  36.071   3.747
21967W        W85911  40.433  34.087  12.077
21968W        W85912  16.783  40.874  11.439
21969W        W85913  16.772  22.707   1.348
21970W        W85914  17.628   3.379   1.874
21971W        W85915  44.914   6.214  12.375
21972W        W85916  20.128   8.179  14.470
21973W        W85917  31.497  32.080  12.844
21974W        W85918   0.858   0.805  13.959
21975W        W85919  39.454  40.888  12.502
21976W        W85920  31.088  14.233  14.830
21977W        W85921  12.644  19.626  14.377
21978W        W85922   5.337   7.371  14.981
21979W        W85923  44.487  28.056   4.721
21980W        W85924  13.621  22.034   1.697
21981W        W85925  10.847  38.415  14.789
21982W        W85926  17.627  35.058  11.053
21983W        W85927  36.063  41.871  12.035
21984W        W85928  24.148   1.463   4.705
21985W        W85929  27.633  44.403   4.654
21986W        W85930  30.038  12.720   3.302
21987W        W85931  15.327  25.496   2.775
21988W        W85932  39.410  43.869   4.644
21989W        W85933  39.516  39.319   0.419
21990W        W85934  22.534   6.365  12.570
21991W        W85935   0.459   0.292   4.706
21992W        W85936   3.239  17.091  12.371
21993W        W85937  25.711  34.116  12.506
21994W        W85938  23.129  17.281   1.854
21995W        W85939  37.371   2.289   1.320
21996W        W85940  13.638  41.006  14.000
21997W        W85941  30.507   8.162  11.386
21998W        W85942  38.011  36.090   1.859
21999W        W85943  19.582  32.017   4.123
22000W        W85944   5.345   8.403   4.195
22001W        W85945  42.493  29.536   3.227
22002W        W85946  43.908   6.357   1.368
22003W        W85947  18.685  22.206   3.243
22004W        W85948  10.232   9.155   2.369
22005W        W85949  16.158  20.183   0.801
22006W        W85950   8.894  30.983  12.361
22007W        W85951  40.543  44.961  14.365
22008W        W85952  15.189   7.769   2.228
22009W        W85953  36.065  18.234   2.377
22010W        W85954  25.030  37.009  14.295
22011W        W85955   5.435  37.079  12.973
22012W        W85956  29.588  16.160  14.783
22013W        W85957   6.230  31.576   2.847
22014W        W85958  44.760  32.016  13.983
22015W        W85959  16.082  38.066   3.736
22016W        W85960  40.894  22.631  11.976
22017W        W85961  43.361  36.998  14.890
22018W        W85962  25.495   4.823   4.215
22019W        W85963  43.344   7.900  13.989
22020W        W85964   7.325  21.172  12.907
22021W        W85965  22.693   9.344   2.356
22022W        W85966  20.253  29.542   2.190
22023W        W85967   1.975  33.604  11.922
22024W        W85968  26.954  40.044   3.735
22025W        W85969  25.123   5.431  11.406
22026W        W85970  13.797   9.796   1.374
22027W        W85971  10.239  24.186  13.536
22028W        W85972  26.015  15.275   2.757
22029W        W85973  40.053  25.209  13.327
22030W        W85974  43.441  32.559  12.918
22031W        W85975  24.483  35.974  12.352
22032W        W85976  25.198  14.114  14.513
22033W        W85977  17.643  35.084   0.374
22034W        W85978   0.751   6.679   3.294
22035W        W85979   8.663   4.420   3.835
22036W        W85980  31.517  13.127  11.936
22037W        W85981  31.520  20.577   3.204
22038W        W85982  18.720  11.237  12.431
22039W        W85983  40.434  30.649  11.427
22040W        W85984  27.147   9.803  13.454
22041W        W85985  44.286  18.224   0.863
22042W        W85986   3.347   2.227  11.916
22043W        W85987  20.229  28.443   1.234
22044W        W85988  23.094  23.709   2.343
22045W        W85989  16.307  27.585   3.318
22046W        W85990   8.658  23.633   4.833
22047W        W85991   8.202  20.166  10.607
22048W        W85992   5.916  10.263   0.914
22049W        W85993  14.204  30.534   4.269
22050W        W85994  41.859  15.641   9.963
22051W        W85995  29.611  15.100   4.157
22052W        W85996  36.087  18.057   3.160
22053W        W85997   1.242  37.928  13.524
22054W        W85998   7.249  17.232  11.396
22055W        W85999   7.381  35.368   4.300
22056W        W86000   9.808   5.334   0.401
22057W        W86001   5.416  32.530   2.788
22058W        W86002   8.284  15.084   3.766
22059W        W86003  38.397  17.573   1.713
22060W        W86004  33.616  12.651  14.458
22061W        W86005  44.269   7.863  12.088
22062W        W86006  20.214  14.152   4.606
22063W        W86007  15.300  43.336   2.852
22064W        W86008   1.310  42.480  12.941
22065W        W86009  35.989   4.356   4.727
22066W        W86010  36.417   4.840   2.737
22067W        W86011   2.887   9.297  12.896
22068W        W86012  21.632  33.385   1.711
22069W        W86013  39.467  44.973   3.847
22070W        W86014   1.342   3.818   2.319
22071W        W86015  29.660  29.931   0.951
22072W        W86016  34.959  34.391  14.810
22073W        W86017  11.369  41.424   0.894
22074W        W86018   4.322  34.027  10.977
22075W        W86019  24.618  13.655  11.017
22076W        W86020  10.678  39.440  12.371
22077W        W86021  12.289  38.490  14.338
22078W        W86022   6.818  40.371   0.812
22079W        W86023  35.468  17.227   4.831
22080W        W86024  18.243  22.231  13.055
22081W        W86025  12.726  23.077   1.366
22082W        W86026   0.396  19.274  14.431
22083W        W86027  39.536  19.778   2.367
22084W        W86028  20.687  35.554  12.578
22085W        W86029  25.113  16.266   3.638
22086W        W86030  15.232  36.415  12.022
22087W        W86031   6.806   7.851  12.031
22088W        W86032  36.571   4.750   1.826
22089W        W86033  33.427  36.023   0.293
22090W        W86034  43.788  38.063   4.778
22091W        W86035  20.709  28.481  10.567
22092W        W86036  17.613  40.505   1.898
22093W        W86037   6.900   9.688  12.007
22094W        W86038   4.823  43.461   0.823
22095W        W86039   9.295  28.102   0.297
22096W        W86040  36.908  37.053   1.303
22097W        W86041  26.103  12.621   0.383
22098W        W86042  23.525  36.051   3.682
22099W        W86043   9.247  36.064   0.905
22100W        W86044  42.852   1.973   0.935
22101W        W86045   3.906  10.704   3.846
22102W        W86046   5.248  38.985  11.424
22103W        W86047  31.906  31.625   3.713
22104W        W86048  37.461   3.920  14.331
22105W        W86049  31.141  11.365   0.409
22106W        W86050  13.652   5.285   3.311
22107W        W86051  28.593   8.182  11.443
22108W        W86052  39.005  16.077  14.384
22109W        W86053  33.915   5.217   0.967
22110W        W86054  29.534  28.655   2.734
22111W        W86055  37.404  21.140  11.988
22112W        W86056  29.581  42.009   1.430
22113W        W86057  29.957  40.981   2.360
22114W        W86058  20.552  33.620  10.973
22115W        W86059   7.788  18.739   0.479
22116W        W86060   1.312   5.848  12.998
22117W        W86061  34.500  24.592   2.382
22118W        W86062  18.638  24.042   2.258
22119W        W86063  42.958  25.549   3.321
22120W        W86064  42.342  34.095   2.885
22121W        W86065   5.334  31.055   3.338
22122W        W86066  39.523  34.379  13.454
22123W        W86067  12.663  40.050  11.882
22124W        W86068   1.855   1.388   3.238
22125W        W86069  25.178  10.805   1.719
22126W        W86070  17.076   9.764   2.334
22127W        W86071  12.134  31.148  11.900
22128W        W86072  33.538  14.212   5.107
22129W        W86073   6.680  30.050  10.099
22130W        W86074  17.248  35.423  13.339
22131W        W86075   0.789  17.259  11.978
22132W        W86076  44.334  26.579   5.169
22133W        W86077  15.812  23.664   0.383
22134W        W86078   7.818  15.249  12.823
22135W        W86079  35.424  30.504  12.568
22136W        W86080  41.517  40.034   1.239
22137W        W86081   2.417  11.701   0.386
22138W        W86082  11.731  39.441   3.862
22139W        W86083  12.272   6.348  14.890
22140W        W86084  23.038  31.598   4.659
22141W        W86085   2.774  28.038  12.847
22142W        W86086  23.220   8.330  13.850
22143W        W86087  36.520  12.622   3.323
22144W        W86088  29.030   7.704   2.730
22145W        W86089  11.230   9.379  10.990
22146W        W86090   1.789  41.463  12.093
22147W        W86091  15.230  33.042   0.764
22148W        W86092  38.452  19.164  13.868
22149W        W86093   3.804   4.323   2.702
22150W        W86094  41.865  10.658  11.481
22151W        W86095   9.199  16.645  14.281
22152W        W86096  16.181  27.129  13.445
22153W        W86097   3.354   3.419   5.284
22154W        W86098  30.051  44.342   1.870
22155W        W86099  18.694  18.275  14.450
22156W        W86100   7.409  28.635  13.354
22157W        W86101  26.692  14.597  11.109
22158W        W86102  34.894  39.419   2.675
22159W        W86103  21.709  15.122  11.021
22160W        W86104  44.344  29.655  10.491
22161W        W86105   8.675  17.786  11.908
22162W        W86106  21.557  15.586  11.113
22163W        W86107  38.516  28.983   2.730
22164W        W86108  17.128   4.363  10.966
22165W        W86109   0.923  32.970  10.630
22166W        W86110  31.414  11.266   3.181
22167W        W86111   6.358  35.538  12.440
22168W        W86112   8.749   3.454   0.917
22169W        W86113  32.108  38.509  13.469
22170W        W86114   0.805  25.060   4.802
22171W        W86115  36.888  40.953   1.874
22172W        W86116  43.005  15.240  12.884
22173W        W86117  18.699  12.685  12.509
22174W        W86118  43.984  28.108  11.066
22175W        W86119  41.938  38.868  11.453
22176W        W86120  26.692  29.661   0.279
22177W        W86121  34.883   1.921  12.492
22178W        W86122  43.890  14.589   3.376
22179W        W86123  16.099  13.302   4.802
22180W        W86124   2.765  24.635  11.060
22181W        W86125  28.117   0.484  10.543
22182W        W86126   7.886  30.436  14.869
22183W        W86127  38.532  44.832  12.921
22184W        W86128  24.531   8.814   3.635
22185W        W86129  41.448  29.160   3.267
22186W        W86130   2.863  32.085  12.449
22187W        W86131  32.898  10.842   3.777
22188W        W86132  14.701  28.435  10.966
22189W        W86133  27.652   9.719  10.431
22190W        W86134   1.750  37.358   2.393
22191W        W86135  18.245  12.781   2.691
22192W        W86136  27.979  17.677   1.779
22193W        W86137  37.337  19.135   2.218
22194W        W86138  10.261  27.523  13.824
22195W        W86139  19.260  28.466   1.897
22196W        W86140  29.994  34.579  14.912
22197W        W86141  14.115  40.508  11.900
22198W        W86142  31.560   1.421   3.717
22199W        W86143  10.707  37.880  10.458
22200W        W86144  38.879  37.468  11.419
22201W        W86145   7.299  30.489   4.818
22202W        W86146  14.604  11.301  14.476
22203W        W86147  24.086  11.310   2.690
22204W        W86148   0.747  29.431  11.089
22205W        W86149  37.474  15.698   3.722
22206W        W86150  15.230  22.252  14.467
22207W        W86151  23.985   1.925   2.734
22208W        W86152  19.706  32.557  11.393
22209W        W86153  33.500  16.198  13.445
22210W        W86154  41.880  32.563  11.953
22211W        W86155  18.075  41.039   3.161
22212W        W86156   4.307  31.109   1.931
22213W        W86157  36.988  23.185  14.446
22214W        W86158  21.157  42.284   3.688
22215W        W86159  28.962   7.896   1.427
22216W        W86160  23.000   5.316  13.816
22217W        W86161   6.811  35.513   3.356
22218W        W86162  10.143  25.058   5.130
22219W        W86163   2.238   8.278   1.790
22220W        W86164  25.216  21.747   0.246
22221W        W86165  36.012  28.112  13.978
22222W        W86166   3.224  29.976   3.856
22223W        W86167  24.634  19.568  14.397
22224W        W86168  26.463   0.290  14.417
22225W        W86169  43.435  38.832  13.044
22226W        W86170  43.886  40.051   1.883
22227W        W86171  32.124  40.880  10.489
22228W        W86172   6.206  33.891  14.949
22229W        W86173  35.891  42.942  10.629
22230W        W86174   1.361   3.741  12.487
22231W        W86175  11.684   5.216   0.452
22232W        W86176  40.359  26.077   1.275
22233W        W86177  37.942  32.420  14.925
22234W        W86178  25.195   2.450   5.204
22235W        W86179   9.688  34.863   0.960
22236W        W86180  36.570   5.827   0.288
22237W        W86181  14.099  44.403  11.534
22238W        W86182   5.283  25.983   0.271
22239W        W86183   1.755  10.800   4.238
22240W        W86184  33.434  19.177  12.007
22241W        W86185  11.186  42.000  11.386
22242W        W86186  19.136  28.506   0.422
22243W        W86187  24.979  29.640  12.381
22244W        W86188  27.025  17.267  12.369
22245W        W86189   5.768  35.569   1.917
22246W        W86190  14.612  24.173  10.610
22247W        W86191   0.789  22.246   4.815
22248W        W86192  27.125  33.598  10.117
22249W        W86193  39.486   3.416   1.236
22250W        W86194  26.078  43.440  11.025
22251W        W86195   6.813  28.551   3.216
22252W        W86196  16.085  38.366  13.831
22253W        W86197  21.575  37.031   3.217
22254W        W86198  37.418  24.137   0.749
22255W        W86199  20.764  18.627   3.320
22256W        W86200  24.597   8.227  12.382
22257W        W86201  27.027   7.774  11.994
22258W        W86202   8.874  11.311  11.041
22259W        W86203   2.383   8.346   3.783
22260W        W86204  38.941  37.994   1.897
22261W        W86205  38.438   7.403  11.917
22262W        W86206   0.265  25.193   4.816
22263W        W86207   9.741  27.152   3.667
22264W        W86208   9.235  32.534   4.667
22265W        W86209   1.281  40.464   2.868
22266W        W86210  20.592  32.117  12.516
22267W        W86211  29.459  14.615   3.274
22268W        W86212   5.356  12.773  12.947
22269W        W86213  15.795   5.771  12.495
22270W        W86214  44.380  17.682   0.313
22271W        W86215  31.130  30.961  14.417
22272W        W86216   8.709  32.097  13.041
22273W        W86217  41.422  31.134  11.567
22274W        W86218  40.876  32.066   0.280
22275W        W86219  14.654  21.017  12.488
22276W        W86220  41.926  31.932   4.833
22277W        W86221  28.089  42.804  14.484
22278W        W86222   8.735  27.518   4.819
22279W        W86223  21.059  11.213  12.020
22280W        W86224  31.497  12.622   1.902
22281W        W86225  28.119   5.813   4.658
22282W        W86226   8.838  15.638  11.889
22283W        W86227  33.401  29.952   2.823
22284W        W86228  22.634   1.882   4.774
22285W        W86229  14.287  42.347   1.252
22286W        W86230  23.145  34.577   2.301
22287W        W86231  29.522   7.803   2.785
22288W        W86232  42.853  15.585   5.283
22289W        W86233   4.813  33.620   3.299
22290W        W86234  11.743  21.725   1.804
22291W        W86235  41.811  12.815  14.992
22292W        W86236   4.916  38.492   4.784
22293W        W86237  38.513  10.349   2.690
22294W        W86238  22.150  36.351   1.286
22295W        W86239  36.980   0.421   1.286
22296W        W86240  15.199  41.803   0.433
22297W        W86241  39.930  41.508   1.371
22298W        W86242  16.715   6.688   2.750
22299W        W86243  44.886  44.369   2.236
22300W        W86244  44.897  28.994  12.498
22301W        W86245  36.442   9.754  12.388
22302W        W86246  32.512  39.004   2.778
22303W        W86247   8.792   1.391   2.333
22304W        W86248  31.504  30.961  13.816
22305W        W86249  37.940  17.602   4.708
22306W        W86250   2.872  37.536   4.212
22307W        W86251  16.591  25.672  14.892
22308W        W86252  31.106  27.197   0.845
22309W        W86253  43.020  19.126  11.990
22310W        W86254   6.359   6.403  14.016
22311W        W86255  35.405   0.388   3.856
22312W        W86256  33.493  23.102   4.783
22313W        W86257  17.284  37.363   5.097
22314W        W86258  33.920  20.152   0.311
22315W        W86259  14.755  32.588   0.882
22316W        W86260  30.637   5.795  14.424
22317W        W86261  20.093  39.348   1.318
22318W        W86262  34.513  42.895   0.481
22319W        W86263  23.632  29.143  14.027
22320W        W86264  21.562  16.078  11.549
22321W        W86265  32.608  10.210  14.402
22322W        W86266  29.925   6.797  10.509
22323W        W86267  37.978   1.920  12.825
22324W        W86268   3.819  42.372  12.359
22325W        W86269  19.540  37.847  13.496
22326W        W86270  17.103   9.878  11.116
22327W        W86271  16.623  32.053  11.075
22328W        W86272   2.949  26.661   3.195
22329W        W86273  14.331  23.223  12.378
22330W        W86274  38.521  31.554  13.313
22331W        W86275   5.865  21.561   1.814
22332W        W86276  14.675  15.659   5.282
22333W        W86277   0.746  33.095  10.046
22334W        W86278  26.521  23.512   1.723
22335W        W86279   2.950  42.908   2.194
22336W        W86280  11.320  22.027   3.232
22337W        W86281  34.885  36.035   5.312
22338W        W86282  21.175   4.434  12.953
22339W        W86283  11.285  35.482   1.298
22340W        W86284  32.565  24.223   2.356
22341W        W86285  25.525  37.910   4.328
22342W        W86286   8.757   8.731   3.285
22343W        W86287   8.662  21.625  13.898
22344W        W86288  44.407  44.871  11.599
22345W        W86289  27.194   2.245  14.957
22346W        W86290  22.010  12.316  14.358
22347W        W86291   8.809  41.459  12.870
22348W        W86292  37.412  37.881  10.968
22349W        W86293  26.069  25.531  12.837
22350W        W86294  40.038  28.562   0.384
22351W        W86295  24.055  30.040  11.966
22352W        W86296   6.302  32.623  11.569
22353W        W86297  17.573   3.373   2.301
22354W        W86298   4.840  20.703   4.216
22355W        W86299  29.023  24.637  12.838
22356W        W86300   5.806  29.664  13.410
22357W        W86301   3.219  17.764   4.836
22358W        W86302  13.809   3.326   4.787
22359W        W86303  26.563  22.672   0.742
22360W        W86304  25.208  23.021  12.031
22361W        W86305  13.168   5.825  14.309
22362W        W86306  26.610  11.748   1.428
22363W        W86307  32.411  41.990  14.962
22364W        W86308   6.772  10.356  12.922
22365W        W86309  10.835  43.978  10.899
22366W        W86310  21.090   3.311  11.455
22367W        W86311   9.367   9.676   3.271
22368W        W86312  10.739  15.669  14.873
22369W        W86313  35.105  23.177   2.687
22370W        W86314  10.833  25.471   3.346
22371W        W86315  44.284  33.451  11.389
22372W        W86316  24.539  33.127   2.271
22373W        W86317  38.022  17.088   0.373
22374W        W86318   6.817  15.282   3.653
22375W        W86319   9.860  32.034  13.508
22376W        W86320   0.483  32.509  14.860
22377W        W86321   9.383  16.222   0.899
22378W        W86322  17.216  40.934   2.722
22379W        W86323  10.218   4.357  11.482
22380W        W86324   6.826  43.772   2.314
22381W        W86325  23.666  12.694  14.855
22382W        W86326  35.906  27.529  14.446
22383W        W86327  10.649  24.181   3.171
22384W        W86328   7.748   9.233  11.402
22385W        W86329  11.346  33.877   0.899
22386W        W86330  21.056  11.373   2.289
22387W        W86331  31.126  30.506   0.962
22388W        W86332   3.241   7.362  13.794
22389W        W86333  15.210  38.910  14.976
22390W        W86334  42.852  37.946   2.664
22391W        W86335   5.765  16.773   3.647
22392W        W86336  30.154   0.291  14.451
22393W        W86337  31.085  24.699   0.919
22394W        W86338  34.968  10.655  10.415
22395W        W86339   1.779  11.791  12.885
22396W        W86340  25.164  40.510   0.832
22397W        W86341  37.563  25.092   1.870
22398W        W86342  29.557  11.691  10.939
22399W        W86343  13.189  25.480   1.242
22400W        W86344  18.576   1.258   1.321
22401W        W86345  22.649  35.923   9.962
22402W        W86346  29.970  13.173   4.647
22403W        W86347   0.344   0.897   2.707
22404W        W86348  10.374   9.164   3.317
22405W        W86349  15.319  38.821   1.431
22406W        W86350  14.725  20.132   3.642
22407W        W86351  14.828   6.878  11.927
22408W        W86352  21.757  34.991   2.687
22409W        W86353   7.357   1.935  11.976
22410W        W86354   6.841   3.920  14.354
22411W        W86355  14.816  32.128  12.044
22412W        W86356  38.538  32.939  14.941
22413W        W86357  29.489  22.044   4.312
22414W        W86358  22.235  19.170  12.986
22415W        W86359   0.374  25.657  13.461
22416W        W86360  23.523  10.173   3.717
22417W        W86361   7.678  42.354   4.241
22418W        W86362  22.154  40.932  14.325
22419W        W86363  18.549  23.563   4.283
22420W        W86364   7.295  20.187   3.335
22421W        W86365   2.834  13.242  14.281
22422W        W86366  40.887  40.381  14.301
22423W        W86367  32.557  21.058  10.967
22424W        W86368  28.960  35.908  11.571
22425W        W86369   3.381  40.491   2.725
22426W        W86370  24.680   9.231  10.456
22427W        W86371  12.281  32.125   4.354
22428W        W86372  21.201  21.257  14.396
22429W        W86373  23.165  17.097  10.559
22430W        W86374  36.360  35.507  13.408
22431W        W86375  39.394  40.357   2.762
22432W        W86376  23.096  24.047   3.287
22433W        W86377  19.248  37.531   4.125
22434W        W86378   2.425  11.153   1.736
22435W        W86379  14.655  16.721  11.519
22436W        W86380  29.567   3.227  10.910
22437W        W86381  26.617  30.953   1.894
22438W        W86382  38.900  38.329   1.242
22439W        W86383  18.278  26.197  14.886
22440W        W86384  14.590   4.878   1.244
22441W        W86385   4.361  31.590   1.356
22442W        W86386   2.939  28.060  10.636
22443W        W86387  11.279  38.821   0.338
22444W        W86388  29.130  39.344   4.214
22445W        W86389  23.237   2.275   2.832
22446W        W86390  38.843  19.180   0.752
22447W        W86391  24.003  29.152   4.187
22448W        W86392  18.128  39.461  13.823
22449W        W86393  32.073  22.744  10.430
22450W        W86394  32.016  32.046   1.384
22451W        W86395  34.573   5.713   2.848
22452W        W86396   0.410   6.869  11.457
22453W        W86397  16.199  39.041   1.374
22454W        W86398   7.701  37.505   5.284
22455W        W86399  31.590  20.708   1.437
22456W        W86400  25.521  22.685  11.876
22457W        W86401  23.659  41.521   3.790
22458W        W86402   2.417  14.127   4.150
22459W        W86403  26.062  21.643  12.958
22460W        W86404  12.825  23.202  11.923
22461W        W86405  25.509  42.449   1.230
22462W        W86406  41.340  37.056   0.253
22463W        W86407  27.175  23.223   0.831
22464W        W86408  32.597   1.292   1.708
22465W        W86409  40.447  36.405  12.442
22466W        W86410  30.592   5.919   2.880
22467W        W86411  35.021   4.432  13.329
22468W        W86412   4.427  10.213  12.558
22469W        W86413  10.317   8.311   3.339
22470W        W86414   4.926  37.849   2.383
22471W        W86415   3.359  35.059   4.613
22472W        W86416  17.149  39.362  14.952
22473W        W86417  37.570  19.079   1.414
22474W        W86418   6.275  39.059  12.962
22475W        W86419  31.430   8.393  11.539
22476W        W86420  13.249  15.237  12.987
22477W        W86421  40.852  30.156  12.882
22478W        W86422  43.882  28.618  14.849
22479W        W86423  25.097   4.216  12.991
22480W        W86424  33.963  31.127   1.765
22481W        W86425  10.665  35.998   5.244
22482W        W86426  42.353   1.272   4.163
22483W        W86427  19.278  23.073   0.335
22484W        W86428  37.075   0.363   3.731
22485W        W86429  42.518  10.206  14.337
22486W        W86430   3.829   2.796   4.630
22487W        W86431  40.385  33.877   3.225
22488W        W86432  42.864   6.824  14.318
22489W        W86433   4.768   3.955  12.015
22490W        W86434  10.274  26.208   4.608
22491W        W86435  27.679  30.592  11.050
22492W        W86436  43.994   9.652   4.739
22493W        W86437   7.698  40.360  14.001
22494W        W86438  21.596  12.272   3.374
22495W        W86439  25.604  31.580   1.215
22496W        W86440  40.935   4.251   2.259
22497W        W86441  37.352  37.046  14.286
22498W        W86442   2.414  39.538  12.548
22499W        W86443  40.900  20.039   0.304
22500W        W86444  14.167  41.455  13.822
22501W        W86445   5.378   5.932   9.640
22502W        W86446  37.960   1.856   2.742
22503W        W86447  42.932   6.859   0.927
22504W        W86448  28.654  27.611   4.695
22505W        W86449  23.714   6.206   4.598
22506W        W86450  34.581  19.656  11.950
22507W        W86451  16.674  22.064   3.697
22508W        W86452  18.598  14.268  13.307
22509W        W86453   7.206  21.522  11.423
22510W        W86454  27.548  25.074  14.867
22511W        W86455   2.797  41.426   3.754
22512W        W86456  32.419  31.128  11.865
22513W        W86457  22.617  30.996   3.332
22514W        W86458   6.253  29.590  12.378
22515W        W86459  14.728  44.489  12.354
22516W        W86460  32.067  25.512   0.728
22517W        W86461   0.914  31.997   0.891
22518W        W86462  21.559  19.600  13.455
22519W        W86463  27.043   1.465  11.974
22520W        W86464   3.280  33.506  11.512
22521W        W86465  27.620  44.853   3.870
22522W        W86466   7.839  42.002  13.405
22523W        W86467  37.490  19.048   3.666
22524W        W86468  34.597  27.555  10.625
22525W        W86469  21.541  34.380  14.855
22526W        W86470   4.921  13.345   3.849
22527W        W86471   1.900   2.407   2.304
22528W        W86472  24.011  42.918  11.600
22529W        W86473   4.829  42.909  13.804
22530W        W86474  43.962  21.024  10.623
22531W        W86475  17.126  26.183   2.342
22532W        W86476  39.865   3.410   0.889
22533W        W86477  19.107  35.970   1.723
22534W        W86478  12.622  41.008   3.339
22535W        W86479   3.313  42.947  12.936
22536W        W86480   2.943  33.384  11.125
22537W        W86481  15.159  22.205   0.895
22538W        W86482  16.717  28.147   2.392
22539W        W86483  28.640  12.297  14.917
22540W        W86484  38.489  29.444  13.009
22541W        W86485  31.962   3.948  13.339
22542W        W86486  37.464  13.625  11.574
22543W        W86487  44.419   2.738  12.556
22544W        W86488  31.993  17.098   3.192
22545W        W86489   1.349   5.421   1.386
22546W        W86490  18.555  40.345   1.889
22547W        W86491  29.491  38.516  12.879
22548W        W86492   3.900  25.638   0.433
22549W        W86493  44.483  15.685   3.860
22550W        W86494  30.469  10.646   0.439
22551W        W86495  36.399  26.493   1.822
22552W        W86496  34.384  35.025   2.188
22553W        W86497  31.967   8.239   0.369
22554W        W86498  44.906  29.164  13.534
22555W        W86499   6.753   2.911  14.955
22556W        W86500  32.920  30.458   3.298
22557W        W86501  40.519  38.972   3.229
22558W        W86502   9.865  11.855  13.397
22559W        W86503   5.289  33.520  14.898
22560W        W86504  33.902   1.300  14.380
22561W        W86505  25.093  18.642  14.964
22562W        W86506  12.247  28.528  10.039
22563W        W86507  30.982  39.426   0.773
22564W        W86508  25.600  24.719  10.553
22565W        W86509  39.365   8.848  14.352
22566W        W86510  14.662   2.904  10.411
22567W        W86511   6.831  15.308  10.407
22568W        W86512  11.285  26.494   2.832
22569W        W86513   6.829  19.711  14.762
22570W        W86514  13.753   8.375   1.310
22571W        W86515  10.706   9.231  12.858
22572W        W86516  22.134  13.756  11.906
22573W        W86517  22.542  17.715   4.291
22574W        W86518  11.210   2.721   1.262
22575W        W86519  21.079   5.720   4.287
22576W        W86520  37.050   9.650  11.530
22577W        W86521  37.417  23.986  10.897
22578W        W86522   4.331  36.848  11.399
22579W        W86523   7.795  12.764  12.842
22580W        W86524   8.661  39.859  13.894
22581W        W86525  20.232  36.039   4.627
22582W        W86526  34.936  40.467  13.369
22583W        W86527  30.911  44.308   3.710
22584W        W86528  33.426  30.940   0.788
22585W        W86529   7.279  14.262   5.132
22586W        W86530   6.846  25.581  13.907
22587W        W86531  30.423  29.525   5.239
22588W        W86532  35.028   1.809  12.054
22589W        W86533  40.035  14.774   4.297
22590W        W86534  33.583  14.157  10.595
22591W        W86535  15.325  42.527  13.487
22592W        W86536  33.960  42.912   3.743
22593W        W86537  12.750  18.558   4.729
22594W        W86538  13.733   6.918  13.913
22595W        W86539  28.108  39.814  12.507
22596W        W86540  25.000  30.482  13.530
22597W        W86541   5.333   7.383   2.678
22598W        W86542  33.421  19.205  13.797
22599W        W86543  36.496  32.984   2.201
22600W        W86544  10.221  38.507   3.156
22601W        W86545   2.398  34.961   3.771
22602W        W86546   5.371  23.015   1.728
22603W        W86547  11.825  36.366  12.057
22604W        W86548   6.275  32.027  12.492
22605W        W86549   6.362  44.999  12.949
22606W        W86550  29.130   3.426  13.791
22607W        W86551  11.251   8.280  12.362
22608W        W86552   1.830  18.623  11.874
22609W        W86553   8.899  33.035  12.530
22610W        W86554  28.659  19.691   4.690
22611W        W86555  14.830  36.981   2.336
22612W        W86556  17.661  41.936   4.692
22613W        W86557  32.074  41.023   1.733
22614W        W86558  10.195  16.810  10.936
22615W        W86559  29.443  39.813   1.221
22616W        W86560  19.219  19.594  10.408
22617W        W86561   9.794  42.980  12.901
22618W        W86562  19.094  14.751   3.313
22619W        W86563  40.489  10.810  14.947
22620W        W86564   1.394  31.994   1.906
22621W        W86565   5.370   7.707   9.978
22622W        W86566  24.108  36.041   0.801
22623W        W86567   0.414  34.080  14.843
22624W        W86568   0.756  17.774   1.697
22625W        W86569   5.251  36.075  14.306
22626W        W86570  19.213  28.460  12.948
22627W        W86571  20.703  16.272   0.840
22628W        W86572  11.803  29.953  13.434
22629W        W86573  18.240   2.733   3.230
22630W        W86574  30.544  18.784  10.922
22631W        W86575   3.294   6.331  14.447
22632W        W86576  23.118   4.804   1.433
22633W        W86577  13.257  17.799  14.973
22634W        W86578  19.575   6.679   0.741
22635W        W86579  16.199  10.817   3.263
22636W        W86580  28.524  23.515   0.385
22637W        W86581  41.922  28.627   1.869
22638W        W86582  11.160   0.794   3.719
22639W        W86583   5.860  16.812   1.319
22640W        W86584  14.262  13.629   0.857
22641W        W86585   4.358  42.899   2.401
22642W        W86586  29.443  38.389  13.995
22643W        W86587  11.645  34.420  14.331
22644W        W86588  27.999  40.843   2.238
22645W        W86589  40.880  28.539  10.610
22646W        W86590  21.093  14.686   1.217
22647W        W86591   9.303  22.029  11.439
22648W        W86592  22.133   8.198  13.332
22649W        W86593   6.690  32.907   0.248
22650W        W86594  26.078  16.310   1.927
22651W        W86595  19.163  22.701  13.427
22652W        W86596  31.986  14.827   3.810
22653W        W86597  28.589  10.200  11.519
22654W        W86598   7.292  24.573   2.814
22655W        W86599  14.820  34.538   0.734
22656W        W86600  27.011  39.408  14.867
22657W        W86601  23.154  12.834   3.834
22658W        W86602  43.364  40.000  10.889
22659W        W86603  10.729   2.875   0.766
22660W        W86604  32.535  20.104   4.666
22661W        W86605  43.925   1.797  12.823
22662W        W86606  44.320  28.116  13.383
22663W        W86607  19.690  33.945  12.969
22664W        W86608   4.414   1.443   0.452
22665W        W86609   2.857  15.768   2.195
22666W        W86610   3.378  30.909  11.052
22667W        W86611  10.179  23.167   2.679
22668W        W86612  19.225  44.860   2.400
22669W        W86613   9.370  22.518  10.502
22670W        W86614   3.901   7.864  12.436
22671W        W86615  42.927  32.935   1.236
22672W        W86616  37.885   4.720  13.887
22673W        W86617  16.801  43.882   2.858
22674W        W86618  41.841  36.529  13.315
22675W        W86619  16.627   2.895  13.037
22676W        W86620   6.768   5.816  12.359
22677W        W86621  21.174  36.441   4.811
22678W        W86622  22.054   8.200  10.934
22679W        W86623  33.963  26.489   2.706
22680W        W86624  39.328  22.629   2.693
22681W        W86625   7.877  14.312   2.668
22682W        W86626  24.629  29.465  10.555
22683W        W86627  19.071   0.331  11.553
22684W        W86628  29.538  15.581  11.904
22685W        W86629  16.255  10.747   1.877
22686W        W86630  30.080  27.015   4.145
22687W        W86631  17.103  20.123   4.344
22688W        W86632  19.694  44.793  12.350
22689W        W86633   0.941  11.681   3.735
22690W        W86634  40.307  26.188   4.838
22691W        W86635   5.401  33.515   2.239
22692W        W86636   3.443  21.262   2.752
22693W        W86637   2.773  18.662   1.813
22694W        W86638  39.939  17.092   2.201
22695W        W86639  36.549  27.490  10.426
22696W        W86640  35.083  41.389   5.143
22697W        W86641  12.223   6.373  14.001
22698W        W86642  14.631   9.316   0.744
22699W        W86643   0.493  24.559  13.514
22700W        W86644  39.470   2.723  14.913
22701W        W86645   5.853   1.483  14.978
22702W        W86646  36.932  34.017  11.608
22703W        W86647  14.833  33.888   3.267
22704W        W86648  30.023  37.985   3.294
22705W        W86649  30.445  12.756   0.362
22706W        W86650  44.888  20.556  14.462
22707W        W86651  19.141   4.257   3.361
22708W        W86652  25.637  36.075   1.286
22709W        W86653  30.567  19.663  12.435
22710W        W86654  25.043  33.041   2.874
22711W        W86655  20.104  32.465  12.058
22712W        W86656  43.925   1.287  13.950
22713W        W86657   3.910   6.331   2.413
22714W        W86658  37.023   6.407   2.868
22715W        W86659  41.933  30.494  13.936
22716W        W86660   9.865  12.176   3.236
22717W        W86661  28.526  34.976   1.886
22718W        W86662  32.105  13.210  13.499
22719W        W86663  32.945  11.268   1.436
22720W        W86664  15.608  31.995  14.952
22721W        W86665  27.196  35.930   1.696
22722W        W86666  36.356   0.307   4.154
22723W        W86667  29.130  38.840   0.266
22724W        W86668  36.532  19.720   1.784
22725W        W86669  32.557  43.912   3.713
22726W        W86670  12.687  15.189  11.598
22727W        W86671  44.482  33.969   1.798
22728W        W86672  13.302   1.443  10.405
22729W        W86673  29.665  39.416  13.858
22730W        W86674  28.461  28.073  11.072
22731W        W86675  38.940   0.303   0.362
22732W        W86676  37.069   9.149   3.701
22733W        W86677  20.695  22.115  14.018
22734W        W86678   1.803  17.299   1.368
22735W        W86679  25.566  40.361  10.406
22736W        W86680   0.461  37.474  12.545
22737W        W86681   9.859  33.982  14.030
22738W        W86682  17.222  44.836  12.041
22739W        W86683  37.010  15.610  14.482
22740W        W86684  10.291  28.664   1.357
22741W        W86685  10.806  32.973  11.520
22742W        W86686   0.387  26.540  10.523
22743W        W86687  30.084  30.032  13.473
22744W        W86688  41.480  29.467  13.460
22745W        W86689  35.969   4.719  12.448
22746W        W86690  36.874  11.643   3.341
22747W        W86691  40.828  21.206  13.894
22748W        W86692  15.323  29.612   2.345
22749W        W86693   1.434  19.130  13.935
22750W        W86694  16.642  19.250  14.315
22751W        W86695   8.394  22.683  12.092
22752W        W86696  11.853  41.893  11.451
22753W        W86697  15.587   4.343   3.272
22754W        W86698  34.893   6.288  11.450
22755W        W86699  20.165   9.257   2.216
22756W        W86700  43.806  27.951  14.906
22757W        W86701   4.891  19.743   0.910
22758W        W86702   4.348  31.980  11.489
22759W        W86703  40.908   7.355   3.252
22760W        W86704   2.414  15.276  14.803
22761W        W86705  10.689  35.445   1.221
22762W        W86706  25.031   8.273  14.785
22763W        W86707  21.215  28.053   3.655
22764W        W86708  28.477  41.418   3.250
22765W        W86709   5.764  22.026   0.255
22766W        W86710  36.946   8.283   1.363
22767W        W86711   8.176   9.825   2.386
22768W        W86712  19.212  23.992  14.277
22769W        W86713  37.385  26.997  12.839
22770W        W86714  36.522  33.030  13.939
22771W        W86715  18.747  13.842   0.417
22772W        W86716  20.645  21.705  10.079
22773W        W86717   4.450  41.893   1.908
22774W        W86718  13.346  13.637  11.429
22775W        W86719   4.240  22.116   0.965
22776W        W86720  19.720  12.286   1.297
22777W        W86721   7.318  20.234  12.066
22778W        W86722  17.606  21.598  11.486
22779W        W86723  27.984  42.446  13.842
22780W        W86724  14.215   3.267   3.868
22781W        W86725  23.523  22.115  11.471
22782W        W86726  12.822   6.403  12.390
22783W        W86727  18.149  24.167  14.815
22784W        W86728  18.279   3.927  10.595
22785W        W86729  20.215  36.904   1.246
22786W        W86730  19.191  22.686  12.424
22787W        W86731  43.910  23.185   2.181
22788W        W86732  10.165  41.311   1.393
22789W        W86733  39.472  19.736   0.392
22790W        W86734  32.037  41.839  14.309
22791W        W86735   3.716  19.590   3.165
22792W        W86736  24.495   5.422   3.215
22793W        W86737  20.136  31.991  11.910
22794W        W86738   0.423  10.142  10.976
22795W        W86739  20.118  31.993  11.466
22796W        W86740   7.317  25.679   0.483
22797W        W86741  12.717  41.300  13.804
22798W        W86742  41.514  11.216   2.873
22799W        W86743  33.999  44.928   0.346
22800W        W86744  15.696   4.753   2.690
22801W        W86745  12.749   4.367   0.818
22802W        W86746  27.163  12.133   3.277
22803W        W86747  20.232  27.670   2.803
22804W        W86748   2.914   3.841   5.684
22805W        W86749  27.085  37.452  13.516
22806W        W86750  32.978  26.133  13.393
22807W        W86751  15.255  43.896   0.841
22808W        W86752  27.515  35.366  13.880
22809W        W86753  23.011   5.924  13.928
22810W        W86754  29.083  28.089  14.429
22811W        W86755  31.081  15.714   2.359
22812W        W86756  41.037  41.889   4.669
22813W        W86757   9.375  13.259  14.491
22814W        W86758  25.079  13.820  13.050
22815W        W86759  10.209  29.614  12.552
22816W        W86760  35.465  17.291  14.973
22817W        W86761  37.847  28.646  11.858
22818W        W86762   1.881  42.514   0.816
22819W        W86763  42.027  35.091  10.604
22820W        W86764   2.808  42.397   3.809
22821W        W86765  12.758  23.561   1.738
22822W        W86766  42.436  14.312   3.379
22823W        W86767   2.326  24.105   4.674
22824W        W86768   6.409  18.283   2.842
22825W        W86769  16.102  10.348  11.428
22826W        W86770  44.932   4.364  11.481
22827W        W86771   7.379   7.847  12.346
22828W        W86772  36.931  13.773  10.579
22829W        W86773   9.385  10.633   0.764
22830W        W86774  24.056  17.716  11.976
22831W        W86775  33.443   1.791  14.283
22832W        W86776  18.637  12.805  13.934
22833W        W86777  15.267  16.641  13.838
22834W        W86778  10.681  35.990  10.987
22835W        W86779   9.285  32.581  14.319
22836W        W86780  13.763  35.444   4.809
22837W        W86781  14.598   6.409  10.450
22838W        W86782  11.343  41.989   2.877
22839W        W86783  38.424  20.542   2.771
22840W        W86784  13.326  26.194  14.960
22841W        W86785  17.683  15.721   4.636
22842W        W86786   2.431  36.928   2.352
22843W        W86787  32.008  39.360   2.677
22844W        W86788  28.508   2.913  11.397
22845W        W86789  35.056  12.787  10.113
22846W        W86790   8.769  32.454   3.276
22847W        W86791  26.001  35.068  12.058
22848W        W86792  26.049  41.296  11.590
22849W        W86793  29.162  16.624   0.400
22850W        W86794  27.475  29.172   3.766
22851W        W86795   6.199   2.319   3.216
22852W        W86796  32.447  11.198  12.468
22853W        W86797  42.850  16.177   0.891
22854W        W86798  30.457  26.612  11.497
22855W        W86799  44.935  27.600   4.172
22856W        W86800  24.659   1.869  11.128
22857W        W86801  10.815  29.961  13.832
22858W        W86802   0.833  30.643   1.811
22859W        W86803  38.409   8.295  13.474
22860W        W86804  27.577  14.716  14.991
22861W        W86805  23.236  44.343  10.502
22862W        W86806  27.559   9.764  11.006
22863W        W86807   0.936   4.332   2.313
22864W        W86808   8.725  22.013   1.714
22865W        W86809  25.691  37.410   1.777
22866W        W86810   3.832  17.213  13.863
22867W        W86811   0.747  17.769  13.882
22868W        W86812  39.815  18.685   3.184
22869W        W86813   6.708  17.688  11.466
22870W        W86814  17.779  14.624   4.172
22871W        W86815  22.088  20.114  13.835
22872W        W86816  16.716   6.209   4.824
22873W        W86817  24.619   6.880   1.898
22874W        W86818  34.511  28.025   0.310
22875W        W86819  20.689  20.729  12.988
22876W        W86820  33.519   6.804   3.707
22877W        W86821  42.863  43.315  11.424
22878W        W86822  24.048  43.323  14.351
22879W        W86823   8.722  10.251   0.339
22880W        W86824  30.582   1.793  11.104
22881W        W86825  15.676  28.548   4.604
22882W        W86826  18.638  36.086  13.943
22883W        W86827  40.933  20.095   3.178
22884W        W86828  31.977  32.119   2.757
22885W        W86829   8.288   3.849   3.234
22886W        W86830  15.194  16.701   0.919
22887W        W86831  29.601  33.916   4.139
22888W        W86832  16.761  30.512   4.255
22889W        W86833  19.051  30.915   3.154
22890W        W86834  39.381  31.010  11.970
22891W        W86835  43.869  24.564   4.753
22892W        W86836  35.584  39.001   3.818
22893W        W86837   2.459  17.303  13.466
22894W        W86838   1.865  31.930   0.813
22895W        W86839  16.586   6.406   5.291
22896W        W86840   1.785   6.260  12.924
22897W        W86841  35.425  12.304  12.942
22898W        W86842  32.478  25.141   3.803
22899W        W86843   4.261  18.718  11.879
22900W        W86844   5.358  11.246   2.799
22901W        W86845   5.364  25.112   3.862
22902W        W86846   2.927  22.085   2.831
22903W        W86847  26.057  39.453   1.259
22904W        W86848  27.003  24.051  11.912
22905W        W86849  26.457  24.119  13.452
22906W        W86850  40.027  32.102   0.391
22907W        W86851   1.822  31.976   1.834
22908W        W86852  43.497  18.172  14.905
22909W        W86853  18.056   7.824  11.403
22910W        W86854   0.281  36.899  13.895
22911W        W86855  36.859   3.461   1.714
22912W        W86856  17.675  22.241   0.376
22913W        W86857  42.381  31.928   4.189
22914W        W86858  18.097  30.996   3.292
22915W        W86859   7.189   3.838   2.285
22916W        W86860   0.898   9.803  12.055
22917W        W86861  34.912  20.209   1.886
22918W        W86862  31.638  14.797  11.514
22919W        W86863  40.886   7.829  11.862
22920W        W86864  17.629  35.480   1.864
22921W        W86865  12.189   6.405   1.729
22922W        W86866   2.833  29.635  13.362
22923W        W86867  42.959   3.863   0.770
22924W        W86868  28.676   1.374   2.851
22925W        W86869  21.140   5.377   0.930
22926W        W86870  24.097  21.166   4.293
22927W        W86871  42.792  26.644  14.021
22928W        W86872  44.485  40.899   0.481
22929W        W86873  15.309  10.309  14.822
22930W        W86874  22.095   1.414   3.296
22931W        W86875  29.493  31.906   4.166
22932W        W86876  22.631  18.222  10.149
22933W        W86877  37.416  12.302   0.246
22934W        W86878  14.789  18.068   3.380
22935W        W86879  29.613  18.098   3.332
22936W        W86880  22.222   1.383  13.467
22937W        W86881  16.693  40.365  10.990
22938W        W86882  29.054  34.009   1.862
22939W        W86883  41.522   8.871   3.215
22940W        W86884   3.411  40.040  11.431
22941W        W86885  27.593  25.995   3.791
22942W        W86886  17.161  25.504   3.850
22943W        W86887   5.764  34.046  13.482
22944W        W86888   0.425  36.981   4.661
22945W        W86889  39.335  17.723   4.791
22946W        W86890  40.872   2.905   0.954
22947W        W86891  36.848  11.212  14.289
22948W        W86892  15.226  30.016   0.329
22949W        W86893  44.997  26.497   0.302
22950W        W86894  17.798  19.285  12.015
22951W        W86895  41.966  10.185  10.529
22952W        W86896   4.746  35.469   9.946
22953W        W86897  13.159  40.982   1.216
22954W        W86898  11.728  17.609  12.546
22955W        W86899  23.655  16.691   3.215
22956W        W86900  24.538   4.828   3.258
22957W        W86901  40.029  33.496  11.457
22958W        W86902  37.453  38.527   2.750
22959W        W86903  27.468  30.088   4.185
22960W        W86904  35.426  36.852   2.181
22961W        W86905   2.773  34.078  12.889
22962W        W86906  14.330  25.636   0.880
22963W        W86907  34.939  28.599   0.471
22964W        W86908  42.011  11.318  12.867
22965W        W86909  38.531   1.245  13.471
22966W        W86910  27.655  16.686   3.162
22967W        W86911  43.316  31.938  10.087
22968W        W86912  36.959  29.452   3.303
22969W        W86913  34.444  18.089  12.978
22970W        W86914  23.664  11.691   4.133
22971W        W86915  31.517  10.648   3.668
22972W        W86916   0.400  25.593  14.851
22973W        W86917  44.422  42.969  12.357
22974W        W86918  34.930  11.243  13.995
22975W        W86919  30.557  30.584   0.428
22976W        W86920  38.922  12.811   1.306
22977W        W86921  35.573  13.617  12.404
22978W        W86922  20.591  13.234   1.319
22979W        W86923  14.711  22.102   3.381
22980W        W86924  21.094   0.340   3.704
22981W        W86925  29.475  29.441  14.013
22982W        W86926   9.672  27.633   1.284
22983W        W86927  44.426  44.421  13.995
22984W        W86928   7.190  33.069  13.490
22985W        W86929  12.842  11.732  12.995
22986W        W86930  18.057  17.671  14.995
22987W        W86931  26.498  28.673  12.475
22988W        W86932  25.126  33.030   1.259
22989W        W86933  21.182  27.636   4.315
22990W        W86934  22.223  23.695   3.866
22991W        W86935  19.205   4.828  14.420
22992W        W86936   3.376  26.972   1.443
22993W        W86937  22.207   8.890  13.820
22994W        W86938  22.050  44.913  10.921
22995W        W86939   8.185  29.001   2.711
22996W        W86940  43.423  10.794   0.338
22997W        W86941  36.056   6.394   9.937
22998W        W86942   9.712   0.368   2.231
22999W        W86943  18.788   0.269   3.666
23000W        W86944  39.897  22.078   0.908
23001W        W86945  40.498   7.327   2.240
23002W        W86946  22.213  39.913   0.253
23003W        W86947  37.410  37.895   4.195
23004W        W86948  16.586  19.716   2.806
23005W        W86949   3.395  20.127  13.357
23006W        W86950  28.983  19.548  14.414
23007W        W86951  39.450  17.068   0.404
23008W        W86952  20.112  13.120  11.027
23009W        W86953   1.799  27.047   2.792
23010W        W86954  29.939  13.771  12.436
23011W        W86955  19.276   5.320   0.374
23012W        W86956   0.488  18.638   2.719
23013W        W86957   7.334  32.495  12.065
23014W        W86958  29.101  15.659   4.224
23015W        W86959  13.175  27.039   0.945
23016W        W86960  13.324   6.257   3.718
23017W        W86961  26.640  42.928  12.447
23018W        W86962  30.597  39.343   0.447
23019W        W86963  14.835   6.838  12.546
23020W        W86964   1.736  40.047  10.941
23021W        W86965   0.306  12.290  12.560
23022W        W86966  19.673  36.454  13.492
23023W        W86967  42.446  33.988   0.852
23024W        W86968  17.063  10.870   4.828
23025W        W86969  10.143  33.528  11.528
23026W        W86970  11.364  29.489   1.758
23027W        W86971  39.970  23.193   1.283
23028W        W86972  41.908  17.623   2.307
23029W        W86973  29.432  20.719  12.422
23030W        W86974  14.117  12.251  11.893
23031W        W86975   2.302  16.797  12.862
23032W        W86976  40.906  37.416  13.320
23033W        W86977   9.303  19.266  14.461
23034W        W86978  38.520  23.695  14.384
23035W        W86979  11.639  37.002  11.115
23036W        W86980  12.182  38.891  10.497
23037W        W86981  44.268  32.506  13.030
23038W        W86982  26.952  43.352  10.931
23039W        W86983   6.867  14.173   3.733
23040W        W86984   1.864  28.150  14.968
23041W        W86985  42.892  14.336   1.311
23042W        W86986  10.186  39.888   3.794
23043W        W86987  40.403   2.300   0.907
23044W        W86988  37.076  38.969   1.885
23045W        W86989  33.924  14.315   3.755
23046W        W86990  25.631   7.363   1.257
23047W        W86991  22.160  11.802   1.894
23048W        W86992  12.171  42.459   4.113
23049W        W86993  24.693   7.760   3.677
23050W        W86994  10.858  11.266   0.730
23051W        W86995  23.566  33.952   0.376
23052W        W86996  15.785  31.566  12.416
23053W        W86997  25.181  33.045  10.616
23054W        W86998  29.007  36.362  14.317
23055W        W86999  43.810  17.298   0.817
23056W        W87000  30.570   5.714  12.862
23057W        W87001  44.272  33.406   3.865
23058W        W87002   4.322  37.426  12.050
23059W        W87003   8.681  37.566   1.825
23060W        W87004   3.778   3.397   1.717
23061W        W87005  21.243   8.196  14.014
23062W        W87006  44.969  33.046  13.370
23063W        W87007  23.709  16.252  10.598
23064W        W87008  41.385  24.712   2.667
23065W        W87009  35.591  11.343  14.406
23066W        W87010  42.819  23.234   3.737
23067W        W87011  20.070   1.974   1.773
23068W        W87012  16.777  13.675   2.312
23069W        W87013  29.463   2.778   4.310
23070W        W87014  20.144   8.887  13.499
23071W        W87015  16.591  24.214   2.772
23072W        W87016   3.401  38.384   4.665
23073W        W87017  21.657  16.252  12.496
23074W        W87018  35.572  25.553  11.982
23075W        W87019  43.451  43.865   2.882
23076W        W87020  30.533  24.187  12.458
23077W        W87021  34.554  39.922  11.601
23078W        W87022  27.093   8.817   1.288
23079W        W87023   5.283  41.330  10.528
23080W        W87024  34.984  31.939   2.696
23081W        W87025  19.192  14.619   1.779
23082W        W87026  26.548   1.349   3.741
23083W        W87027  26.188  12.278   2.248
23084W        W87028  12.221  42.370  14.326
23085W        W87029  33.933  28.595   2.227
23086W        W87030  30.652  11.237   3.630
23087W        W87031  35.551   1.871   4.713
23088W        W87032   7.863  23.693  11.037
23089W        W87033  10.826  18.069  10.560
23090W        W87034  37.478  22.736  10.554
23091W        W87035   1.444  18.278  10.497
23092W        W87036  24.166   8.256   0.855
23093W        W87037  37.061  23.173  12.432
23094W        W87038  27.097  41.307   5.168
23095W        W87039  22.603   6.769  10.420
23096W        W87040  12.129  16.772   5.106
23097W        W87041   4.354  15.737   0.312
23098W        W87042  16.646  14.294   3.760
23099W        W87043  23.033  32.446  14.983
23100W        W87044  43.794  14.164  11.899
23101W        W87045   5.407  21.515  11.483
23102W        W87046  37.875  16.774   0.449
23103W        W87047  17.662  44.391   1.343
23104W        W87048   1.322  27.980  14.850
23105W        W87049   2.773  16.622  14.336
23106W        W87050  42.996  41.826   1.391
23107W        W87051  32.583  38.330   4.226
23108W        W87052  38.076  21.697   4.778
23109W        W87053  23.707  41.512  11.923
23110W        W87054  34.936  27.956  12.975
23111W        W87055  20.202  13.682  10.413
23112W        W87056  21.185  28.992  11.882
23113W        W87057  20.551  36.890  12.419
23114W        W87058  11.175  10.201   0.955
23115W        W87059  29.922   0.823   1.220
23116W        W87060  19.102   9.272   1.887
23117W        W87061   2.963  38.495  11.051
23118W        W87062   1.448  24.025   0.421
23119W        W87063  38.487  17.798  10.598
23120W        W87064  36.895  29.133  13.981
23121W        W87065  17.147  36.973   1.799
23122W        W87066  15.736  37.933   2.756
23123W        W87067  22.603  19.537   5.188
23124W        W87068  35.443  42.915  12.479
23125W        W87069  43.315  36.498   4.661
23126W        W87070  34.562  13.330  14.864
23127W        W87071   2.352  25.191   2.354
23128W        W87072   6.703  28.607  11.568
23129W        W87073   0.979  39.882   0.254
23130W        W87074  29.135  17.129   4.239
23131W        W87075   6.776   1.454  12.523
23132W        W87076  32.915  16.254  12.499
23133W        W87077   9.646  38.993  14.999
23134W        W87078  34.054   4.416  10.908
23135W        W87079  27.157   5.725   3.313
23136W        W87080  42.485  20.681   2.890
23137W        W87081  31.899  30.597  10.463
23138W        W87082  31.443  42.422  11.005
23139W        W87083  13.770   0.794   1.296
23140W        W87084  44.488   2.331  12.364
23141W        W87085  28.152  34.475  11.899
23142W        W87086  17.103  38.006  10.992
23143W        W87087  34.444  19.748  14.772
23144W        W87088  25.029  35.911  12.453
23145W        W87089  19.246   5.356   4.629
23146W        W87090  27.110  18.293   4.717
23147W        W87091  13.303  14.118  10.485
23148W        W87092   9.662  38.382   2.187
23149W        W87093  18.566  26.142  14.844
23150W        W87094   5.776   6.814  12.894
23151W        W87095  14.290  13.306   4.671
23152W        W87096  27.110  32.980   0.813
23153W        W87097  27.126   4.341  14.506
23154W        W87098   3.931   8.204  12.532
23155W        W87099  12.822  44.893   5.797
23156W        W87100  38.852   5.691   4.152
23157W        W87101   8.326  22.196  11.072
23158W        W87102  40.932  24.578  11.934
23159W        W87103  13.713  40.838   4.340
23160W        W87104   4.443  40.910  11.128
23161W        W87105  20.539  44.281  11.563
23162W        W87106   7.286  17.574  12.501
23163W        W87107   6.288  42.448   1.817
23164W        W87108  28.055   3.945  14.791
23165W        W87109  34.608  26.558  10.936
23166W        W87110  16.187  42.321   3.633
23167W        W87111  26.575  21.064   2.783
23168W        W87112   7.847  32.013   4.762
23169W        W87113  32.411   3.228  13.874
23170W        W87114  21.693  10.355   2.693
23171W        W87115  10.254  37.422  13.515
23172W        W87116  21.231  29.565  11.929
23173W        W87117  23.093  10.798   2.734
23174W        W87118  30.530  22.031  11.579
23175W        W87119  15.725  17.647   1.405
23176W        W87120   8.259  10.786  10.492
23177W        W87121   5.291  29.440   2.892
23178W        W87122  30.003   4.818  14.854
23179W        W87123  12.732  17.096  11.430
23180W        W87124  27.478   4.231   1.290
23181W        W87125   1.333  11.715   0.773
23182W        W87126  28.049  28.587  13.877
23183W        W87127  24.517  32.141  14.840
23184W        W87128  34.056  24.505   0.369
23185W        W87129  42.494   4.843   2.829
23186W        W87130  24.594  13.300   3.285
23187W        W87131   1.859  20.180   2.330
23188W        W87132  41.828  36.880   1.415
23189W        W87133   8.809   6.682   1.314
23190W        W87134   4.836  11.636   2.778
23191W        W87135  36.533  18.735   3.636
23192W        W87136  36.964  14.808  14.014
23193W        W87137  31.528  43.374  11.002
23194W        W87138  10.855  35.426   4.118
23195W        W87139  31.592  44.939  10.890
23196W        W87140  37.470  40.992  10.948
23197W        W87141  36.922  33.551  10.430
23198W        W87142  31.648  12.631  14.361
23199W        W87143  42.879  40.882   3.632
23200W        W87144  13.345  17.557   1.770
23201W        W87145   9.682  25.188  13.900
23202W        W87146   7.850  44.373  14.391
23203W        W87147   4.802   5.865   2.245
23204W        W87148  16.151  17.597   3.235
23205W        W87149  19.555  43.466   3.354
23206W        W87150  25.620  26.977  12.494
23207W        W87151  11.173  17.790   2.868
23208W        W87152  25.118  16.578  11.911
23209W        W87153   9.225  32.102  12.912
23210W        W87154  43.350  41.391  13.506
23211W        W87155  16.778  16.125  12.422
23212W        W87156  18.761  30.926   0.841
23213W        W87157  23.734  41.442   2.737
23214W        W87158   9.728  39.461  11.956
23215W        W87159   6.251  33.090   3.223
23216W        W87160  38.558   7.755   3.309
23217W        W87161  15.148   2.959   5.150
23218W        W87162   1.860  14.196  14.838
23219W        W87163  15.720  15.275   4.267
23220W        W87164  12.842   1.236   4.212
23221W        W87165  27.604  42.437   0.390
23222W        W87166  17.761  43.279   1.399
23223W        W87167  44.259  27.466   2.228
23224W        W87168   9.388  44.797   4.805
23225W        W87169  12.651  22.058  10.442
23226W        W87170  21.034  44.287  14.384
23227W        W87171  11.274   4.925  12.357
23228W        W87172   2.735   9.696  11.016
23229W        W87173  11.276   5.378   2.896
23230W        W87174  17.253  33.472   2.211
23231W        W87175  14.220  33.566  11.393
23232W        W87176  32.630   6.361  12.486
23233W        W87177  16.088  36.448   1.406
23234W        W87178  19.692   3.312  11.105
23235W        W87179  32.006  37.448   0.863
23236W        W87180  28.503  42.909   3.278
23237W        W87181  32.444  32.633  14.900
23238W        W87182  18.224  31.440   4.190
23239W        W87183  32.611  20.086   2.398
23240W        W87184  17.085   8.666  11.412
23241W        W87185  25.557  33.622   2.302
23242W        W87186  22.599  10.274   5.221
23243W        W87187  44.310   9.169  12.070
23244W        W87188   5.734  20.223   2.255
23245W        W87189  10.774   5.290   1.375
23246W        W87190  37.992   5.335  10.149
23247W        W87191  21.259  40.452   5.118
23248W        W87192  11.373  37.430   4.169
23249W        W87193   6.726  11.157  11.024
23250W        W87194  35.361  29.568  11.564
23251W        W87195  25.098  42.306  11.409
23252W        W87196  27.080   6.236  14.352
23253W        W87197  16.113  20.259  11.128
23254W        W87198  36.095   6.206  11.951
23255W        W87199   1.256  27.172  11.029
23256W        W87200  30.918  11.365   1.390
23257W        W87201  41.417  28.157   4.706
23258W        W87202   7.287  14.736   3.856
23259W        W87203  21.075  35.436  10.977
23260W        W87204  35.963  18.544   4.306
23261W        W87205  41.786  42.361   3.180
23262W        W87206   9.361  32.929  13.503
23263W        W87207  12.840  37.525  11.871
23264W        W87208  20.148   8.773  11.918
23265W        W87209  12.799   4.261   4.203
23266W        W87210   7.274   2.331   3.675
23267W        W87211  36.040  13.610  13.961
23268W        W87212  21.659  35.381   0.380
23269W        W87213   5.413   9.830  13.870
23270W        W87214  28.978  26.208   4.829
23271W        W87215   0.418  31.930   4.348
23272W        W87216   7.244  10.162   1.783
23273W        W87217  15.146  18.550   1.730
23274W        W87218  41.875  37.429   3.178
23275W        W87219  14.255  29.069  10.552
23276W        W87220  21.703   4.383   2.183
23277W        W87221  18.658   6.834  10.505
23278W        W87222   3.916  23.111  14.308
23279W        W87223   2.906   5.205  14.488
23280W        W87224  27.977  14.766   3.868
23281W        W87225  36.980  16.739  14.018
23282W        W87226  15.818   1.907   5.294
23283W        W87227  11.144  11.622   0.413
23284W        W87228  37.887  34.064   2.794
23285W        W87229  43.002  17.225  12.982
23286W        W87230  24.489  35.060   3.636
23287W        W87231  25.173  19.737   4.142
23288W        W87232  27.062  35.565   0.386
23289W        W87233  41.851  19.589   2.667
23290W        W87234  29.648  32.983   3.150
23291W        W87235  11.236  19.760  14.378
23292W        W87236  25.173   1.328  14.962
23293W        W87237  29.608  36.019  12.352
23294W        W87238  44.789  20.166   3.766
23295W        W87239  15.811   8.266  11.070
23296W        W87240  12.818  22.149   0.960
23297W        W87241  28.133  25.649   1.931
23298W        W87242  33.585  37.368  10.563
23299W        W87243   6.206   6.831  13.490
23300W        W87244   9.823  11.712  11.382
23301W        W87245  14.671  43.426  12.362
23302W        W87246  20.613   6.337  14.940
23303W        W87247  38.970  36.841   4.798
23304W        W87248   4.428   9.242   4.171
23305W        W87249  15.749  21.074   2.391
23306W        W87250  17.782  10.264  13.492
23307W        W87251  26.003  40.029  11.441
23308W        W87252  42.516  14.625   2.205
23309W        W87253   8.279  15.689   2.296
23310W        W87254   5.389  41.401   4.743
23311W        W87255  23.106  10.669  11.417
23312W        W87256  10.259  16.738  13.365
23313W        W87257  11.833  37.005   1.441
23314W        W87258  39.547  39.369  14.875
23315W        W87259  38.885   0.895  14.983
23316W        W87260  41.863  32.897  12.425
23317W        W87261   8.859  26.669   2.268
23318W        W87262  29.946   1.252  10.640
23319W        W87263  35.073  31.456  10.596
23320W        W87264  37.872  24.496   1.702
23321W        W87265   2.909  14.636   4.634
23322W        W87266  32.608  11.843  14.767
23323W        W87267   2.281  15.663   5.262
23324W        W87268  39.823  19.564  12.379
23325W        W87269  23.176  38.834  13.860
23326W        W87270  37.483  35.058  13.514
23327W        W87271  35.474  41.842   3.726
23328W        W87272   0.281  41.433  13.910
23329W        W87273  28.477   3.809   3.846
23330W        W87274  16.675  15.273   2.732
23331W        W87275  37.996  30.956  10.459
23332W        W87276  20.560  41.425  14.774
23333W        W87277  36.364  33.413  10.143
23334W        W87278  25.478  36.962  11.112
23335W        W87279   4.384  25.486   2.725
23336W        W87280   9.654  32.002   3.854
23337W        W87281  17.125   3.379   0.927
23338W        W87282  29.479  10.184  12.371
23339W        W87283  21.062   7.335  12.866
23340W        W87284  34.495  13.296   0.428
23341W        W87285  41.299  22.594   1.418
23342W        W87286  15.652   0.825   2.797
23343W        W87287  12.778  37.353  11.605
23344W        W87288  19.281  36.002  12.348
23345W        W87289  28.525  28.165  10.615
23346W        W87290   7.843  17.101   3.387
23347W        W87291  33.494   1.880   3.262
23348W        W87292  10.162  32.014   2.376
23349W        W87293  36.074   7.243  13.440
23350W        W87294  40.846  43.921  11.018
23351W        W87295  36.905  21.666  11.541
23352W        W87296  17.173   7.196   0.773
23353W        W87297  12.129  42.838  13.366
23354W        W87298  36.567  27.119  13.477
23355W        W87299  30.106  27.137   0.424
23356W        W87300  36.525  31.071  12.043
23357W        W87301   7.747   9.663   0.377
23358W        W87302  30.536  25.112  14.295
23359W        W87303  28.516  12.827  10.595
23360W        W87304  24.088  16.792   1.879
23361W        W87305  33.388  18.252   0.368
23362W        W87306  17.659  32.125   5.299
23363W        W87307  25.686  38.902   3.379
23364W        W87308  17.673  15.227   4.175
23365W        W87309   0.896  42.299  14.918
23366W        W87310  41.920  28.080   0.416
23367W        W87311  29.560   3.870  14.355
23368W        W87312  41.935  12.749  14.319
23369W        W87313  30.484  33.945   4.626
23370W        W87314  33.084  28.948   1.897
23371W        W87315  14.684  15.641   3.154
23372W        W87316  43.389  10.651   2.876
23373W        W87317   5.257  35.023   4.688
23374W        W87318  41.423  17.724   4.677
23375W        W87319  33.100   7.678   1.398
23376W        W87320  27.151  38.525  11.395
23377W        W87321  43.942  39.395   2.686
23378W        W87322  42.841  29.975   2.836
23379W        W87323  11.705  14.255  13.869
23380W        W87324  27.533  40.946  11.423
23381W        W87325  10.760  26.077   3.272
23382W        W87326   9.212  35.501   2.415
23383W        W87327  38.571  35.935   3.291
23384W        W87328  44.307  36.592  13.931
23385W        W87329  24.221  26.539   4.620
23386W        W87330  12.258  11.252   2.761
23387W        W87331  32.441  25.037  13.916
23388W        W87332  26.179   1.961  12.903
23389W        W87333  32.440   4.826   1.912
23390W        W87334  43.841  37.552  12.515
23391W        W87335  40.320  30.984  11.441
23392W        W87336  23.597  10.261   0.771
23393W        W87337   3.384  25.628  14.515
23394W        W87338  32.924  17.797  14.864
23395W        W87339  18.724  13.678  14.331
23396W        W87340  14.316  41.463  14.392
23397W        W87341   4.283  34.543  14.867
23398W        W87342  41.032  11.827  13.441
23399W        W87343  42.281  36.558  11.930
23400W        W87344  36.087   3.772   2.194
23401W        W87345  27.978  32.131  14.462
23402W        W87346  42.855  33.045   2.344
23403W        W87347  24.185   7.823  14.361
23404W        W87348  38.503  19.154  11.910
23405W        W87349  28.952  11.790   0.393
23406W        W87350  31.932   5.695   1.229
23407W        W87351  32.490  25.218   2.418
23408W        W87352  28.459   7.180   2.838
23409W        W87353  13.220  35.600  10.032
23410W        W87354   4.423  35.910   4.179
23411W        W87355  11.790  10.857   1.892
23412W        W87356  24.152  37.443   1.827
23413W        W87357   8.725  18.677   1.323
23414W        W87358  19.093  33.612   2.199
23415W        W87359  19.772   0.398  13.827
23416W        W87360  10.757   7.357   1.832
23417W        W87361  18.667  29.514   1.249
23418W        W87362  35.100   0.931   3.762
23419W        W87363  25.546  24.637   0.772
23420W        W87364  33.897   7.269  13.459
23421W        W87365   8.731   1.409  12.461
23422W        W87366  28.101  27.058  11.550
23423W        W87367  43.316   8.803  14.332
23424W        W87368  36.418  35.082   4.264
23425W        W87369  21.538  39.917  12.914
23426W        W87370  38.545  40.980   1.436
23427W        W87371  10.244  29.494  14.828
23428W        W87372  27.575  18.723  13.920
23429W        W87373  42.993  43.505  14.900
23430W        W87374   4.784  22.207  11.501
23431W        W87375  35.913   9.645  13.315
23432W        W87376   8.226  42.000  14.875
23433W        W87377  40.801   0.758   1.268
23434W        W87378  19.573  30.985   1.304
23435W        W87379  36.426  24.531  14.760
23436W        W87380  10.185  17.069  13.458
23437W        W87381  30.577   3.391  13.825
23438W        W87382  24.516  21.559   3.797
23439W        W87383  34.598  13.784  12.403
23440W        W87384  21.731  43.870   3.211
23441W        W87385  32.412  13.771   0.260
23442W        W87386  44.385  27.503   5.223
23443W        W87387  36.467  34.417   0.907
23444W        W87388  17.773  10.676   0.859
23445W        W87389  38.895   5.336   0.730
23446W        W87390  26.190  17.184  11.987
23447W        W87391  39.997  16.735  13.319
23448W        W87392  18.702  18.714   2.191
23449W        W87393  21.547  16.317  11.040
23450W        W87394  33.533  28.991  10.641
23451W        W87395  13.248  43.491   1.846
23452W        W87396  32.481  20.165   4.337
23453W        W87397  36.444  30.497   2.236
23454W        W87398  19.113  43.879  10.514
23455W        W87399  21.710  36.587  10.547
23456W        W87400  43.353   8.405   4.191
23457W        W87401  11.861  29.485   4.694
23458W        W87402  30.520   3.722   3.356
23459W        W87403  34.024  41.962   2.187
23460W        W87404  10.817  26.568  14.934
23461W        W87405  13.684   1.905  13.355
23462W        W87406  31.573  40.367  11.909
23463W        W87407  17.733  10.871  14.447
23464W        W87408  15.232  10.775  11.944
23465W        W87409   9.241  28.992  12.032
23466W        W87410  22.620  24.634   2.779
23467W        W87411  23.210  12.120  14.334
23468W        W87412  27.007   3.877   4.122
23469W        W87413  19.103  41.950  12.424
23470W        W87414  24.617  17.742   2.215
23471W        W87415   2.854  15.779  11.882
23472W        W87416  15.113  23.024  14.356
23473W        W87417  22.202  27.978   2.280
23474W        W87418   9.738  31.516   4.231
23475W        W87419  30.099  22.149  11.403
23476W        W87420  12.693   7.233  10.918
23477W        W87421   4.274  37.082   0.849
23478W        W87422   7.746  10.669  12.552
23479W        W87423  28.641  30.020   3.278
23480W        W87424  39.936  26.674  11.877
23481W        W87425  42.319  34.431   1.866
23482W        W87426   0.882  28.446   0.938
23483W        W87427  17.239  19.615  14.794
23484W        W87428  22.582  37.953   0.823
23485W        W87429  28.584   6.274   4.279
23486W        W87430  10.367  39.869   4.341
23487W        W87431  18.656   1.340   2.350
23488W        W87432  29.464  20.675   0.247
23489W        W87433  13.296  11.233  12.039
23490W        W87434  44.822  42.482   4.831
23491W        W87435   5.207  20.182   3.331
23492W        W87436   2.936   0.903   2.225
23493W        W87437  37.574  18.584  11.446
23494W        W87438  27.601   5.777   2.841
23495W        W87439  15.815  20.580   0.464
23496W        W87440  18.058  34.538  10.615
23497W        W87441  43.792  28.628  12.430
23498W        W87442   6.252   2.263  13.042
23499W        W87443   6.752  28.109   0.774
23500W        W87444  19.727  11.207   0.850
23501W        W87445   4.330   6.838   3.796
23502W        W87446   9.203  31.901   1.809
23503W        W87447  14.279  16.782  11.045
23504W        W87448  21.210  10.285   1.768
23505W        W87449  39.539   2.732  11.004
23506W        W87450  40.339  44.491   4.779
23507W        W87451  19.210  16.765   4.204
23508W        W87452  23.007  27.637  13.006
23509W        W87453  10.147  31.560   1.216
23510W        W87454   8.676   9.307   2.805
23511W        W87455  22.017  34.097  13.414
23512W        W87456   0.964   4.286   2.745
23513W        W87457  20.667  35.923   4.710
23514W        W87458  36.473  31.934   2.770
23515W        W87459  34.375  28.670   0.272
23516W        W87460  39.333  17.557   1.319
23517W        W87461  35.433   2.737  12.867
23518W        W87462  34.887   3.885   3.168
23519W        W87463  10.750  30.553  12.548
23520W        W87464   5.865   9.348  10.569
23521W        W87465  35.000  22.658  14.505
23522W        W87466   7.292  44.302   3.836
23523W        W87467  16.773   3.755  13.019
23524W        W87468  42.301   5.282   1.431
23525W        W87469   3.714  11.291   0.378
23526W        W87470  18.565   5.729  14.452
23527W        W87471  19.541  12.329   2.882
23528W        W87472   8.833  25.019  10.073
23529W        W87473  21.254  44.966   1.273
23530W        W87474  24.657  26.631  13.374
23531W        W87475   0.474  34.462  10.594
23532W        W87476  23.651   8.312  13.832
23533W        W87477  14.133  32.991  14.486
23534W        W87478  28.983  24.594  10.562
23535W        W87479   3.922  13.820   4.827
23536W        W87480  31.068  11.210   2.235
23537W        W87481  44.967  40.514  14.327
23538W        W87482  44.856  42.982  14.291
23539W        W87483   0.824  42.353  11.075
23540W        W87484   3.430  26.511  11.564
23541W        W87485   5.205   5.717  11.414
23542W        W87486  17.566  28.150   0.815
23543W        W87487  10.708  14.811   1.720
23544W        W87488  30.446  21.691  13.548
23545W        W87489   8.860  31.443   2.678
23546W        W87490  37.045   5.918  11.931
23547W        W87491   1.805  20.046  13.325
23548W        W87492  30.124  11.248  12.943
23549W        W87493   7.354  40.326   1.735
23550W        W87494   6.329   4.807   3.683
23551W        W87495  16.721  18.720   2.342
23552W        W87496   6.209  18.131  12.851
23553W        W87497  33.957  29.089   2.708
23554W        W87498  19.560  18.573   3.366
23555W        W87499  40.009  38.831  14.368
23556W        W87500  38.352  29.653   2.889
23557W        W87501  31.457  22.716  14.910
23558W        W87502  15.592  39.531   3.869
23559W        W87503  35.384  23.163   3.364
23560W        W87504  30.533  11.850   4.172
23561W        W87505  28.170  36.855  11.897
23562W        W87506   4.333   4.769   0.391
23563W        W87507  22.120  21.203  10.915
23564W        W87508  20.741   4.408  14.482
23565W        W87509  44.842  27.597   3.356
23566W        W87510  10.866  11.686   3.291
23567W        W87511  44.764  14.201  12.001
23568W        W87512  30.504  28.512  14.470
23569W        W87513  40.931  20.118   3.635
23570W        W87514   2.946  37.085  11.995
23571W        W87515   5.261   3.455   2.346
23572W        W87516  11.830  32.988  11.074
23573W        W87517  40.930  29.978   2.681
23574W        W87518  10.226  17.242  14.784
23575W        W87519  31.897  40.837  12.345
23576W        W87520   3.459  26.160   3.368
23577W        W87521  25.654  10.648  12.872
23578W        W87522  32.580  14.181  10.572
23579W        W87523  38.045   6.831   1.291
23580W        W87524  14.663  26.501  10.485
23581W        W87525  14.660  22.524  13.884
23582W        W87526  38.401  32.453  13.396
23583W        W87527  26.962  22.092   1.299
23584W        W87528  41.023  44.835  10.995
23585W        W87529  13.259  27.489  10.910
23586W        W87530  39.477  17.721   0.950
23587W        W87531  42.436  19.777  11.036
23588W        W87532  40.450   3.284  13.832
23589W        W87533  43.324  21.181   0.748
23590W        W87534   3.932  43.295  12.882
23591W        W87535  23.074   9.783   2.271
23592W        W87536  15.586  42.371  11.031
23593W        W87537  23.710  18.291   3.820
23594W        W87538  44.000  35.367  10.538
23595W        W87539  14.619  40.803  14.004
23596W        W87540   8.716  16.299   4.300
23597W        W87541   7.749  37.552  11.863
23598W        W87542  13.345   2.847   1.907
23599W        W87543  29.670   4.788   4.183
23600W        W87544  21.659  33.421  12.997
23601W        W87545  27.965   8.344  11.601
23602W        W87546  32.035  12.702   1.750
23603W        W87547  20.744  28.546  11.041
23604W        W87548  41.315  14.234  13.816
23605W        W87549  30.031   0.965   2.807
23606W        W87550  25.611  34.018  11.888
23607W        W87551  42.445  36.932   0.938
23608W        W87552  25.998   6.239   1.916
23609W        W87553  21.610  40.548  13.826
23610W        W87554  31.563  41.509   1.287
23611W        W87555  18.240  42.913  13.953
23612W        W87556  33.949  20.724   1.773
23613W        W87557  13.111   2.805  14.361
23614W        W87558  36.368  44.265  14.889
23615W        W87559   9.676   5.805   1.760
23616W        W87560  31.495  13.170  10.552
23617W        W87561  41.488  21.747  12.061
23618W        W87562   5.351  10.148  13.033
23619W        W87563  32.465  27.512   4.827
23620W        W87564  30.147  36.580  12.467
23621W        W87565  36.069  23.692  12.482
23622W        W87566  19.119  36.949   3.724
23623W        W87567  33.439   9.198   2.734
23624W        W87568   8.185  34.109  11.889
23625W        W87569  27.676   5.418   2.864
23626W        W87570  34.040  23.188  13.518
23627W        W87571  31.977  39.458  12.479
23628W        W87572  29.156  44.478   1.715
23629W        W87573  15.804  41.842   2.667
23630W        W87574   3.822  24.684  14.316
23631W        W87575  23.047  23.594   2.666
23632W        W87576  30.440  40.390  13.491
23633W        W87577  37.007  35.991  14.942
23634W        W87578   7.187  27.549   2.850
23635W        W87579  44.998  43.478  12.011
23636W        W87580  42.868  12.167  10.645
23637W        W87581  35.487  31.089  12.421
23638W        W87582  23.556  33.980   3.812
23639W        W87583   9.686  19.707  12.981
23640W        W87584  27.976  40.927  13.347
23641W        W87585   2.892  41.413   4.280
23642W        W87586  22.039  32.511  13.541
23643W        W87587  27.571   0.252  10.641
23644W        W87588   8.655  30.062   0.749
23645W        W87589  34.000  11.319   2.751
23646W        W87590   7.730  23.538   4.153
23647W        W87591   8.673  28.451   2.329
23648W        W87592  10.664  39.043   3.228
23649W        W87593   0.919  15.248  12.480
23650W        W87594  43.360  14.668   2.296
23651W        W87595  40.308  26.027   2.330
23652W        W87596   6.897  40.327  12.367
23653W        W87597  19.642  10.217  11.589
23654W        W87598  19.703  38.361   4.119
23655W        W87599   4.838  30.525  10.057
23656W        W87600  18.759  35.947   1.367
23657W        W87601  20.219  13.788   4.273
23658W        W87602  37.450  36.058   2.232
23659W        W87603  12.756  20.125   3.839
23660W        W87604  12.675  37.459   2.381
23661W        W87605   6.411  19.053  12.866
23662W        W87606  40.845  29.625   0.433
23663W        W87607   5.770  13.821   4.667
23664W        W87608  18.252  44.353   4.247
23665W        W87609  20.626  20.558  14.867
23666W        W87610  22.526  12.198   3.807
23667W        W87611  16.716   0.882  10.606
23668W        W87612   4.287  13.293  10.622
23669W        W87613   5.864  34.010  11.901
23670W        W87614   3.353  26.020   2.691
23671W        W87615  14.761   0.872   0.271
23672W        W87616  33.004  22.659   0.758
23673W        W87617  38.015   4.889   2.829
23674W        W87618  27.566  43.907   2.829
23675W        W87619  20.687  24.578   0.415
23676W        W87620  38.068   2.942   4.193
23677W        W87621  30.446  19.242  12.405
23678W        W87622  41.455  24.722  10.581
23679W        W87623  34.465   5.710   2.299
23680W        W87624  23.077  20.173  10.454
23681W        W87625  17.087  44.004   3.699
23682W        W87626   5.423   8.890   4.116
23683W        W87627  17.561  34.447  14.976
23684W        W87628  23.125  30.473  11.406
23685W        W87629  43.363  10.202  13.859
23686W        W87630   3.341  16.185  13.450
23687W        W87631  28.524  42.791   2.827
23688W        W87632  11.832  25.543  11.016
23689W        W87633  18.733  41.533   0.434
23690W        W87634  30.960  29.569  12.425
23691W        W87635  35.372  12.336   0.867
23692W        W87636  12.704  18.759  13.864
23693W        W87637  30.510  21.090   3.207
23694W        W87638  22.187  24.643   1.303
23695W        W87639  32.590  27.161   4.225
23696W        W87640  18.629   3.350   3.156
23697W        W87641  18.712  43.308   4.125
23698W        W87642  32.953  39.383  13.042
23699W        W87643  40.527  30.537   9.944
23700W        W87644   4.391  26.582  10.549
23701W        W87645  37.087  22.248   0.331
23702W        W87646  34.453  21.659  11.911
23703W        W87647   6.292  43.434   0.755
23704W        W87648  26.494  17.613   4.189
23705W        W87649  27.006  14.273   0.365
23706W        W87650   2.411  15.691  13.466
23707W        W87651   2.888   9.852  10.130
23708W        W87652  12.775  33.557   1.868
23709W        W87653  44.920  32.018   0.741
23710W        W87654  25.588  18.148   2.363
23711W        W87655  13.607   7.730   0.735
23712W        W87656  38.331  34.955  12.917
23713W        W87657  25.472  11.325   4.641
23714W        W87658  12.175  31.091  11.379
23715W        W87659  44.788  35.956   0.452
23716W        W87660  39.546  11.637   4.662
23717W        W87661  34.368   9.784   2.285
23718W        W87662  28.151  39.558  14.422
23719W        W87663  32.911  22.145   4.295
23720W        W87664  27.954   5.702  12.081
23721W        W87665   7.783   5.299   1.252
23722W        W87666   2.900  43.941  13.495
23723W        W87667   4.412  24.131   3.712
23724W        W87668  34.504  42.905  14.277
23725W        W87669  21.066  11.636   0.431
23726W        W87670  42.436  17.129  13.493
23727W        W87671   8.802  14.653   4.698
23728W        W87672  41.035  21.180   4.176
23729W        W87673   5.286  33.031  10.602
23730W        W87674  15.189  32.033  12.362
23731W        W87675  14.651  39.923  10.410
23732W        W87676  16.086  34.535   3.681
23733W        W87677  38.009   1.321  12.568
23734W        W87678  17.790  29.506  14.469
23735W        W87679  22.526  23.028  13.882
23736W        W87680  44.485  17.761   4.126
23737W        W87681   0.322  44.943  11.000
23738W        W87682  35.405   3.407   0.840
23739W        W87683   1.921  26.627   1.428
23740W        W87684  20.603  39.951  14.879
23741W        W87685  19.222  25.683   9.467
23742W        W87686  43.284  29.959  12.454
23743W        W87687   3.315  15.199  10.999
23744W        W87688  16.185  34.120   2.374
23745W        W87689  35.107  12.654  12.996
23746W        W87690  24.974  40.930   0.877
23747W        W87691  28.112  40.441   1.272
23748W        W87692  34.397  28.135  10.488
23749W        W87693  40.016  36.072  12.927
23750W        W87694  44.941   1.762  12.579
23751W        W87695  15.092  41.456  12.527
23752W        W87696  30.436  21.639  10.515
23753W        W87697  18.052  11.816   4.728
23754W        W87698  42.520   8.375   0.285
23755W        W87699   3.432   0.283  12.580
23756W        W87700   9.209  43.932   2.727
23757W        W87701   2.326   9.789   1.751
23758W        W87702  12.850  42.289   0.426
23759W        W87703  41.973   6.313  13.531
23760W        W87704  13.171  25.547   0.280
23761W        W87705  42.950  23.132   3.292
23762W        W87706  17.562   2.870  12.580
23763W        W87707   0.870  22.615   3.659
23764W        W87708  26.042   4.699  10.927
23765W        W87709  35.063  30.643   0.275
23766W        W87710  43.511  29.994   0.873
23767W        W87711  15.622  41.294  10.587
23768W        W87712  40.960  43.882  13.415
23769W        W87713  26.047   0.983   0.319
23770W        W87714  44.764  40.891   4.744
23771W        W87715   3.772  33.621   2.722
23772W        W87716  30.016  16.279   1.405
23773W        W87717  11.234  40.839   2.390
23774W        W87718  43.436  38.353   2.677
23775W        W87719  34.550  40.973   4.264
23776W        W87720   7.183   3.439  12.976
23777W        W87721   4.217   8.191   2.779
23778W        W87722  38.028   5.381  11.024
23779W        W87723  21.071  34.582  13.004
23780W        W87724  24.218  10.791  13.907
23781W        W87725  26.205   4.911   3.178
23782W        W87726  30.936   0.798  13.399
23783W        W87727  15.151  41.848  14.871
23784W        W87728  37.357  10.260   0.244
23785W        W87729  21.600   1.449  10.912
23786W        W87730   1.804  17.276   4.314
23787W        W87731  43.346  39.375  14.937
23788W        W87732  10.148  21.024   5.182
23789W        W87733  29.607   4.347   4.634
23790W        W87734  24.523   1.275   2.218
23791W        W87735  28.975   2.339  12.522
23792W        W87736   9.154   1.792  11.024
23793W        W87737  28.634   1.392  14.957
23794W        W87738   1.376  35.011  11.023
23795W        W87739  23.153  25.091   2.367
23796W        W87740  23.052   7.318  11.081
23797W        W87741   6.687  29.539   2.875
23798W        W87742  37.525   2.319   1.713
23799W        W87743   1.752  30.600   3.338
23800W        W87744  33.879  40.028  14.402
23801W        W87745  15.209  25.662   3.830
23802W        W87746  40.995  17.638  10.500
23803W        W87747   5.830   7.305  12.013
23804W        W87748  36.944  30.495   3.261
23805W        W87749   7.398  40.415  11.377
23806W        W87750  25.626   4.797  12.487
23807W        W87751  23.553  19.552   5.221
23808W        W87752  11.830   3.919   3.177
23809W        W87753   2.781  43.423   4.120
23810W        W87754   2.467  36.411  14.353
23811W        W87755   9.838  40.926   0.912
23812W        W87756  43.816  34.105   2.770
23813W        W87757  35.021  31.961   1.901
23814W        W87758  27.944  23.687  13.008
23815W        W87759  32.547   4.748   2.360
23816W        W87760   0.476   6.914   4.168
23817W        W87761  40.031  12.122   3.659
23818W        W87762  36.589  44.868  12.492
23819W        W87763  26.651  37.344  14.000
23820W        W87764   9.367  16.691  13.955
23821W        W87765   3.372  21.076   1.395
23822W        W87766  12.791  12.675  11.112
23823W        W87767  18.552  17.766  12.384
23824W        W87768  37.889  20.766   1.269
23825W        W87769  15.235  28.507  14.905
23826W        W87770  36.581  16.594   4.703
23827W        W87771  41.535  43.849  12.085
23828W        W87772  25.565   5.912   2.186
23829W        W87773  33.922  38.522   4.758
23830W        W87774  12.740  39.536   4.205
23831W        W87775   9.275  41.484  11.920
23832W        W87776  42.965  18.726  12.455
23833W        W87777  33.615  14.300   1.388
23834W        W87778  10.203  10.750   1.776
23835W        W87779  40.926  16.239   1.372
23836W        W87780  32.597  39.340  14.447
23837W        W87781  28.663  21.556  13.315
23838W        W87782   9.873  28.067   2.262
23839W        W87783  34.401   5.911  12.920
23840W        W87784  27.627  26.494  11.562
23841W        W87785  22.520   4.234   2.849
23842W        W87786  38.570  24.695   4.334
23843W        W87787  16.642   0.366   3.653
23844W        W87788   5.796  40.485  12.834
23845W        W87789  13.191   5.387   4.628
23846W        W87790  12.748  19.282  14.919
23847W        W87791   7.212   8.765  13.857
23848W        W87792  35.418   9.842  11.429
23849W        W87793   9.672  40.533   3.145
23850W        W87794  22.626  35.462  12.468
23851W        W87795  32.558  41.996   4.609
23852W        W87796  36.500  22.681   0.379
23853W        W87797   6.758   7.899   1.254
23854W        W87798  19.260  31.146   1.773
23855W        W87799  34.608   0.903  11.111
23856W        W87800   1.964  31.625   1.802
23857W        W87801  42.026   4.293   4.166
23858W        W87802  34.513  20.237   3.820
23859W        W87803  37.976  24.650   0.924
23860W        W87804  41.303  27.649   2.842
23861W        W87805  44.895  25.007  10.586
23862W        W87806  32.510  41.364  12.911
23863W        W87807   7.338  44.990  14.447
23864W        W87808   5.875  36.501   4.272
23865W        W87809  39.404  31.634  10.984
23866W        W87810  20.190  10.654  10.418
23867W        W87811   0.451  16.803  14.336
23868W        W87812   1.312  27.673   3.679
23869W        W87813  12.741   8.165   2.701
23870W        W87814  36.486  26.515  10.962
23871W        W87815  18.271  30.057   0.787
23872W        W87816  31.075  28.002  10.617
23873W        W87817  18.588  12.775   2.817
23874W        W87818  20.724  33.060  14.384
23875W        W87819  22.244  28.017  10.511
23876W        W87820  33.460  28.180   5.297
23877W        W87821   0.271  16.670   0.483
23878W        W87822  11.172   1.900   4.789
23879W        W87823  30.441  32.039  10.530
23880W        W87824  37.459  31.910   0.813
23881W        W87825  34.521  23.143  10.573
23882W        W87826   7.667  33.601   2.234
23883W        W87827   5.297  35.504   3.209
23884W        W87828  33.942  11.866   1.344
23885W        W87829  33.496  40.825   1.789
23886W        W87830  32.057  44.300   9.956
23887W        W87831  20.707  22.092   0.766
23888W        W87832   4.322  42.329   3.632
23889W        W87833  39.386  21.677  12.085
23890W        W87834  43.904  34.450  12.930
23891W        W87835  18.598  44.818   1.916
23892W        W87836   5.421  32.631  14.997
23893W        W87837  28.524  40.888  13.837
23894W        W87838  15.814  31.150  13.821
23895W        W87839   0.441  24.677  10.947
23896W        W87840  22.187  43.449   1.286
23897W        W87841  40.017  36.901   3.713
23898W        W87842  14.143  21.543  12.492
23899W        W87843  36.979  28.488   2.807
23900W        W87844  12.196  25.077   0.411
23901W        W87845  38.550  23.687  13.541
23902W        W87846  41.993  28.020   3.215
23903W        W87847  20.624  25.061   3.709
23904W        W87848  24.480  21.183   5.318
23905W        W87849   0.971  43.358  10.586
23906W        W87850   6.259  16.156  12.486
23907W        W87851  17.242  28.004   1.791
23908W        W87852  20.141   3.890   2.206
23909W        W87853  35.478   1.785  10.552
23910W        W87854  38.996  21.176   4.136
23911W        W87855   6.332  11.214   4.731
23912W        W87856  11.340   6.762   0.257
23913W        W87857  17.068   1.772  14.874
23914W        W87858   6.748  38.856  10.627
23915W        W87859  44.791  23.102   0.455
23916W        W87860   2.352   9.372   2.858
23917W        W87861  12.177   2.280  11.512
23918W        W87862   6.406  14.158   3.646
23919W        W87863  36.865   2.937   1.905
23920W        W87864  41.998  40.819  12.519
23921W        W87865  39.066   5.412   4.675
23922W        W87866  37.353  35.108   3.232
23923W        W87867  14.808  36.029   2.198
23924W        W87868  29.582  26.491   3.346
23925W        W87869  32.598  26.533  11.926
23926W        W87870   9.665   1.750  11.966
23927W        W87871  43.417   9.660   2.205
23928W        W87872  42.006  22.677   2.899
23929W        W87873  33.877  43.929  12.527
23930W        W87874   4.781  24.587   0.367
23931W        W87875  40.371  36.377   1.734
23932W        W87876  37.577   5.710   2.713
23933W        W87877  10.828  34.513  13.473
23934W        W87878  25.509   0.481   3.227
23935W        W87879  29.971  38.414  11.944
23936W        W87880  18.595   7.239   0.829
23937W        W87881  25.705  29.584   0.965
23938W        W87882  29.459  43.966  11.042
23939W        W87883   9.888  19.585  11.447
23940W        W87884  42.998   5.798   3.178
23941W        W87885  39.000  20.624  11.081
23942W        W87886   7.796   8.312  12.394
23943W        W87887   9.368  12.619   0.741
23944W        W87888  39.550   4.888  11.449
23945W        W87889  12.836   5.322   0.307
23946W        W87890  22.735  16.191   2.708
23947W        W87891  19.242  30.502   1.775
23948W        W87892  26.076   9.291   1.277
23949W        W87893  19.606  40.010   1.770
23950W        W87894  18.184   7.710   0.394
23951W        W87895   9.845  29.504  11.511
23952W        W87896  33.553  23.693   0.451
23953W        W87897  41.296  29.551   1.703
23954W        W87898  38.858   0.848   3.317
23955W        W87899  27.099  31.965   0.879
23956W        W87900  38.863  15.582  14.375
23957W        W87901  12.769  19.165   3.370
23958W        W87902  37.890  44.887  14.995
23959W        W87903  38.378  31.918  13.020
23960W        W87904  14.766   2.807   3.196
23961W        W87905  21.144   1.747  12.077
23962W        W87906  35.412  41.921  13.414
23963W        W87907  27.945  28.012   0.925
23964W        W87908  19.157  39.534   0.961
23965W        W87909  27.080  21.573  12.519
23966W        W87910  12.282  25.130   2.739
23967W        W87911  44.319  14.736   1.325
23968W        W87912  30.104   6.775   4.665
23969W        W87913  20.133  40.370   2.817
23970W        W87914  44.323  36.027  14.498
23971W        W87915   8.319  37.946   3.677
23972W        W87916  29.110  10.247  11.548
23973W        W87917   8.304  25.491   1.338
23974W        W87918  32.414  16.168   0.311
23975W        W87919  28.155  42.346  11.524
23976W        W87920  32.115  40.876  14.490
23977W        W87921  29.081  24.018  14.327
23978W        W87922  17.130  34.609  10.920
23979W        W87923  25.969  38.001   1.818
23980W        W87924  38.501  37.578   0.386
23981W        W87925   7.723  32.117   2.903
23982W        W87926  17.641  25.563   4.127
23983W        W87927  28.562  23.156   4.136
23984W        W87928  11.853   9.254   4.238
23985W        W87929  19.131  22.181  14.963
23986W        W87930   2.860   5.826  13.481
23987W        W87931  34.453  14.718  12.848
23988W        W87932  40.507  20.187   4.165
23989W        W87933  10.324  39.897  11.588
23990W        W87934  25.116  11.241   0.317
23991W        W87935  13.721  32.079   1.380
23992W        W87936  38.025  17.172  10.571
23993W        W87937   3.851  41.422  14.026
23994W        W87938  39.016   2.325   5.614
23995W        W87939  11.233  29.494  11.379
23996W        W87940  34.052  39.464  13.422
23997W        W87941  44.474  42.445  12.933
23998W        W87942  34.038  43.922  11.964
23999W        W87943  38.504  37.844  12.984
24000W        W87944  36.452  42.291  12.842
24001W        W87945  38.849  12.125  14.353
24002W        W87946  36.965  43.280  13.845
24003W        W87947  17.617  34.992   1.299
24004W        W87948  33.605  26.018  10.644
24005W        W87949  33.453   1.893  12.856
24006W        W87950   6.920   1.951   3.743
24007W        W87951  14.779  12.162  11.056
24008W        W87952  10.742  17.674   5.117
24009W        W87953   2.852  29.042   2.232
24010W        W87954  28.529  31.989   1.822
24011W        W87955   4.373  43.978  14.855
24012W        W87956  26.640  19.127  13.840
24013W        W87957  18.649  24.104  12.489
24014W        W87958  23.590  37.518  11.088
24015W        W87959   5.792  36.394  12.354
24016W        W87960   8.840  17.188   0.286
24017W        W87961  20.678  19.125  14.998
24018W        W87962  12.135  42.428   3.222
24019W        W87963  42.459  25.485   3.683
24020W        W87964   6.858  43.294   3.646
24021W        W87965   4.427  33.090  11.937
24022W        W87966  23.527  36.898  12.966
24023W        W87967  42.924   9.720   4.260
24024W        W87968   4.854  12.190   0.256
24025W        W87969   4.769  29.485   4.287
24026W        W87970  22.590  39.365  11.612
24027W        W87971  22.505  24.700   2.418
24028W        W87972  26.959  18.136  14.323
24029W        W87973  32.018  27.060   3.180
24030W        W87974   4.887  18.283   1.264
24031W        W87975  22.070   9.675   4.652
24032W        W87976  33.907  32.553   1.235
24033W        W87977  42.890   9.756   0.447
24034W        W87978   3.446  44.851   4.353
24035W        W87979  20.757  42.952   4.805
24036W        W87980  28.006  21.563  13.843
24037W        W87981  13.201   9.317  11.082
24038W        W87982  33.907  11.806  12.439
24039W        W87983  17.184  37.844  11.535
24040W        W87984  44.857  36.383  13.980
24041W        W87985  31.486  10.222   3.355
24042W        W87986   2.334  15.220   2.379
24043W        W87987  22.588  41.451   2.742
24044W        W87988  32.618  12.123   0.275
24045W        W87989  34.410  18.681  10.412
24046W        W87990  15.758  12.156   4.143
24047W        W87991  20.060  32.541  10.613
24048W        W87992  14.795  29.091   1.322
24049W        W87993  34.969  40.046  12.895
24050W        W87994   9.156  32.894   1.335
24051W        W87995  11.137  34.600   1.741
24052W        W87996  27.650   0.355   1.799
24053W        W87997  15.783  16.701  12.837
24054W        W87998  38.008   0.983  11.432
24055W        W87999  32.097  18.273   0.868
24056W        W88000  16.074  25.649  13.358
24057W        W88001  34.019   9.245   2.238
24058W        W88002  39.823  44.909  14.934
24059W        W88003  33.098  13.241   4.630
24060W        W88004  38.353  30.637  12.995
24061W        W88005  18.676   5.340   3.850
24062W        W88006  44.947   5.838  12.536
24063W        W88007  35.091  34.902   2.229
24064W        W88008  20.259   8.331  12.841
24065W        W88009  19.629  36.906  12.474
24066W        W88010  39.968  37.452  12.967
24067W        W88011  22.058  39.387  10.616
24068W        W88012  40.404  41.393   0.272
24069W        W88013  40.007  24.222   1.403
24070W        W88014  22.218  39.952   3.713
24071W        W88015  28.097   8.265   0.430
24072W        W88016  18.211   8.894  11.416
24073W        W88017   9.726   7.884  14.978
24074W        W88018  38.909  29.529  13.018
24075W        W88019  18.761  22.577   1.697
24076W        W88020  25.167  31.581  13.859
24077W        W88021  31.597   6.361   3.287
24078W        W88022  25.469  41.489   1.745
24079W        W88023  14.251  35.525  13.839
24080W        W88024  24.041  40.885   1.372
24081W        W88025  37.486   9.268  11.483
24082W        W88026  38.956  26.594  10.408
24083W        W88027  42.023  17.217  13.841
24084W        W88028   8.290  11.680  12.011
24085W        W88029   5.395  44.981   3.700
24086W        W88030  43.432  26.205  13.943
24087W        W88031  19.200  16.152  11.073
24088W        W88032  38.545   3.948  14.921
24089W        W88033  28.939  23.177   4.716
24090W        W88034   8.249  27.149   0.331
24091W        W88035  36.842  44.328   1.707
24092W        W88036  26.959  27.125   1.934
24093W        W88037   9.871  11.369   4.657
24094W        W88038  19.278  20.194   3.275
24095W        W88039  21.084  43.832   2.838
24096W        W88040  39.913  43.885   2.720
24097W        W88041  30.957  32.945   0.480
24098W        W88042  18.223  15.089  10.422
24099W        W88043  43.465   6.920  12.412
24100W        W88044  44.360   5.847  13.399
24101W        W88045  19.659   3.283  12.893
24102W        W88046  20.221  22.637   1.833
24103W        W88047  35.509  38.904   0.916
24104W        W88048   0.976  12.260   1.236
24105W        W88049  17.221  28.053  11.505
24106W        W88050  20.074  11.779  11.945
24107W        W88051  30.527  17.170   0.960
24108W        W88052   9.762  40.891  13.843
24109W        W88053  24.625  12.328   1.399
24110W        W88054  21.685   9.237  10.910
24111W        W88055   0.330   2.393  12.945
24112W        W88056  11.784  23.176  12.871
24113W        W88057  29.962  26.120   3.825
24114W        W88058   9.167  30.603  10.630
24115W        W88059  42.416  12.361  10.625
24116W        W88060  37.417   1.955  12.429
24117W        W88061   3.331   2.775  10.888
24118W        W88062  31.610  39.404   4.284
24119W        W88063  28.129   3.256   2.412
24120W        W88064   9.315  19.648  14.316
24121W        W88065  15.712  18.081   3.744
24122W        W88066  30.046  22.116   2.809
24123W        W88067   5.302  38.342   2.248
24124W        W88068  32.392  31.986   2.781
24125W        W88069  23.000   4.296   1.299
24126W        W88070  10.762  12.179  11.065
24127W        W88071   5.416  43.339  10.541
24128W        W88072   3.350  20.547   0.856
24129W        W88073  41.328   1.258   4.728
24130W        W88074  10.349  35.361  11.896
24131W        W88075  18.554   4.802   4.257
24132W        W88076  17.229  39.058   2.785
24133W        W88077  44.776  25.694   0.369
24134W        W88078  29.103  20.100  11.477
24135W        W88079  35.852  42.831  11.392
24136W        W88080  33.588  37.451   5.291
24137W        W88081  12.138  42.870  11.034
24138W        W88082  10.199  42.923   3.328
24139W        W88083  10.874  31.148   4.671
24140W        W88084  33.458  18.657  11.585
24141W        W88085  34.951  35.935  12.955
24142W        W88086   9.190  10.812   4.655
24143W        W88087  21.629   7.310   5.214
24144W        W88088  42.351  18.097   1.350
24145W        W88089  23.157  44.976  12.374
24146W        W88090  34.963  22.620  14.956
24147W        W88091  36.888   9.792  11.060
24148W        W88092  44.504  26.468   2.252
24149W        W88093   7.274  29.030   1.231
24150W        W88094  12.637   2.392   9.960
24151W        W88095  11.335  29.575   4.322
24152W        W88096  26.169  19.579  11.492
24153W        W88097  26.982  35.397  13.525
24154W        W88098  44.947  15.725   3.730
24155W        W88099   2.355  27.101  12.441
24156W        W88100   8.731  35.069   5.239
24157W        W88101  40.308  28.518  12.351
24158W        W88102   9.169  37.996   3.237
24159W        W88103  30.445   6.914   4.737
24160W        W88104  33.500  44.992   3.741
24161W        W88105   2.729  17.190   4.247
24162W        W88106  15.726  30.656   4.625
24163W        W88107  17.300  32.464  10.071
24164W        W88108  20.239  36.870   1.726
24165W        W88109  23.501  42.016  12.558
24166W        W88110  10.706  16.285   3.768
24167W        W88111  35.580  33.024   0.264
24168W        W88112   5.426  26.183  11.942
24169W        W88113  19.648  24.715   4.693
24170W        W88114  37.452  25.486   4.622
24171W        W88115   4.233  26.516   1.716
24172W        W88116   5.812  20.184   3.713
24173W        W88117  42.980   4.262   1.846
24174W        W88118  39.487  28.620   2.351
24175W        W88119  12.211  10.864   1.416
24176W        W88120   0.415  15.586  14.882
24177W        W88121  29.110  13.315   0.389
24178W        W88122  15.170   7.728  10.926
24179W        W88123  12.813  24.160   0.736
24180W        W88124  24.074  14.262   3.679
24181W        W88125  10.350   9.788  13.960
24182W        W88126  42.914  20.029  14.393
24183W        W88127   8.856  20.063  12.826
24184W        W88128  28.132  24.631   2.316
24185W        W88129  31.998  17.710  14.808
24186W        W88130  13.194  16.259   0.418
24187W        W88131  17.288  16.654   1.271
24188W        W88132  39.888  20.110   3.833
24189W        W88133  36.921  10.294   1.764
24190W        W88134   9.713  22.056  10.638
24191W        W88135  13.737  19.273  12.003
24192W        W88136  12.624  23.080  12.517
24193W        W88137  29.963  10.833   3.805
24194W        W88138   1.970  39.898   4.697
24195W        W88139  43.960  18.572   0.742
24196W        W88140   8.379  23.650  13.499
24197W        W88141  44.841  10.313  12.976
24198W        W88142  35.094  28.516   2.679
24199W        W88143  33.999  37.466   2.199
24200W        W88144  21.674  18.203  12.914
24201W        W88145  21.616  23.174  12.486
24202W        W88146  25.611   6.326   0.337
24203W        W88147  28.538  41.527  14.492
24204W        W88148  23.086  36.452  12.544
24205W        W88149  29.556  36.015   3.870
24206W        W88150  16.694   6.352  11.027
24207W        W88151  13.131  10.863  11.394
24208W        W88152  16.605   3.951  10.480
24209W        W88153  44.396  14.669  14.805
24210W        W88154  13.761  24.980  11.529
24211W        W88155  21.027  37.398   3.361
24212W        W88156  28.531  44.405  12.835
24213W        W88157  38.348  20.531   0.373
24214W        W88158  40.392  18.589   4.635
24215W        W88159   2.461  40.010   4.217
24216W        W88160  31.614  44.770   4.218
24217W        W88161   6.837  30.622  12.026
24218W        W88162   2.747  32.453  10.609
24219W        W88163  23.581   1.481   2.831
24220W        W88164  32.604   5.326  13.371
24221W        W88165  33.564  32.630   2.245
24222W        W88166   4.408  25.080   3.765
24223W        W88167  22.184  31.403   0.337
24224W        W88168  11.721  32.902   4.616
24225W        W88169  10.726  15.249   5.143
24226W        W88170   4.933  33.000  14.293
24227W        W88171  32.488   1.367   3.727
24228W        W88172  39.039  28.958   0.781
24229W        W88173  18.162  29.551  12.496
24230W        W88174  12.220  13.786  12.063
24231W        W88175  40.906  27.645   3.693
24232W        W88176  29.495   8.882   0.855
24233W        W88177  36.843  16.154   1.398
24234W        W88178  15.652  14.787   0.242
24235W        W88179   7.787  42.347   0.379
24236W        W88180  37.841  43.845   2.866
24237W        W88181  28.068  40.817   3.822
24238W        W88182   0.877   2.832   2.306
24239W        W88183  44.271  20.166  14.294
24240W        W88184  15.617  16.577   1.794
24241W        W88185   3.377  37.961   1.283
24242W        W88186  15.210  30.945  13.912
24243W        W88187  22.070  29.056  11.025
24244W        W88188  42.401  28.126   3.199
24245W        W88189   9.829  41.489   0.820
24246W        W88190  29.990  42.954  12.836
24247W        W88191   8.295  37.439  14.973
24248W        W88192  11.803  22.680   4.279
24249W        W88193   3.826  10.377  10.550
24250W        W88194   4.229  10.798  12.466
24251W        W88195   6.346  16.585   2.797
24252W        W88196  44.453  31.105  11.930
24253W        W88197  44.006  25.484  11.872
24254W        W88198  21.709  24.016   2.842
24255W        W88199  33.480  12.317  11.898
24256W        W88200  11.859  29.061   3.701
24257W        W88201  16.262  32.579  14.480
24258W        W88202  22.057   7.281  12.450
24259W        W88203  33.968  38.031   1.884
24260W        W88204  20.053  18.765   2.256
24261W        W88205  42.467  38.418   0.245
24262W        W88206  44.451  23.998   4.123
24263W        W88207   1.954  33.555   1.235
24264W        W88208  42.786   0.261  10.097
24265W        W88209  15.746  44.441   4.690
24266W        W88210  37.843   1.927   2.302
24267W        W88211  40.025  37.913   0.399
24268W        W88212  41.464   9.290  14.455
24269W        W88213  20.540  30.617   2.314
24270W        W88214  13.120   2.884  12.048
24271W        W88215  27.457  35.480   3.295
24272W        W88216   6.227  22.072  13.388
24273W        W88217  12.759   8.403  14.853
24274W        W88218  28.176  11.279   2.866
24275W        W88219  22.579   7.757  13.037
24276W        W88220  30.936  18.776   1.821
24277W        W88221  43.833  29.031   2.285
24278W        W88222  43.876  29.468   3.850
24279W        W88223  17.223  27.606  10.945
24280W        W88224  21.097   5.330  12.826
24281W        W88225  35.033  40.990  10.408
24282W        W88226  34.883  36.393   3.214
24283W        W88227  41.511  22.017   3.382
24284W        W88228   7.671  42.888  11.411
24285W        W88229  40.011  39.038  11.604
24286W        W88230  16.792  39.354   0.318
24287W        W88231   3.733  43.894   4.174
24288W        W88232  39.972   4.210  14.277
24289W        W88233  18.180  38.554   2.322
24290W        W88234  15.811  31.521   2.353
24291W        W88235   1.285   4.386   4.719
24292W        W88236  41.477   5.782  14.491
24293W        W88237   8.799   1.371  14.999
24294W        W88238  43.806  29.087   3.722
24295W        W88239  18.156  20.751  14.442
24296W        W88240  36.005  20.253  12.389
24297W        W88241  20.193  38.000   1.865
24298W        W88242   6.850   1.768  13.917
24299W        W88243  44.462  37.549   4.600
24300W        W88244   6.808  34.942  10.942
24301W        W88245   2.841   1.341   0.260
24302W        W88246  19.627  22.619   9.581
24303W        W88247  16.577  19.771   0.278
24304W        W88248  44.324  32.942  11.537
24305W        W88249  39.464   0.467  11.001
24306W        W88250  37.438  36.868   0.797
24307W        W88251  32.590  10.858  12.474
24308W        W88252   7.769  36.067   0.786
24309W        W88253  11.754  29.049   1.389
24310W        W88254  23.513  42.815  13.949
24311W        W88255  20.241  24.664   1.704
24312W        W88256  22.144  23.047  12.509
24313W        W88257  37.903  42.797   3.210
24314W        W88258   1.962   2.789   4.307
24315W        W88259  36.569   6.192   9.921
24316W        W88260   7.285  30.085   5.105
24317W        W88261  21.029  15.645   1.726
24318W        W88262  27.687  42.514   3.737
24319W        W88263  11.807  15.763   2.200
24320W        W88264  15.236  44.394   3.683
24321W        W88265  26.141   4.229   3.691
24322W        W88266  34.400  32.899   2.241
24323W        W88267   3.373  42.961   0.480
24324W        W88268  19.088   3.367   3.635
24325W        W88269  14.169  11.673  13.355
24326W        W88270  11.330  23.549   1.877
24327W        W88271  41.490  15.588   1.790
24328W        W88272  17.771  37.979   4.699
24329W        W88273   0.309   7.281  12.940
24330W        W88274  11.833  13.660   3.798
24331W        W88275  15.604  19.729  13.543
24332W        W88276   1.895  10.333  11.073
24333W        W88277   9.242  30.987  11.011
24334W        W88278  35.384  38.043   3.271
24335W        W88279   5.343  21.680  13.829
24336W        W88280  37.504  29.592   1.335
24337W        W88281  30.023  13.251  13.437
24338W        W88282  27.090  25.709  13.966
24339W        W88283   9.773   1.479   2.335
24340W        W88284  11.312  40.311   0.748
24341W        W88285   7.238  19.710  12.878
24342W        W88286   2.251  11.355   3.169
24343W        W88287  43.338  38.567   1.804
24344W        W88288   8.772   6.882   0.316
24345W        W88289  28.957   4.334  14.401
24346W        W88290  26.990  44.975   2.348
24347W        W88291   8.787  10.721   4.243
24348W        W88292  16.198  16.278   4.611
24349W        W88293  23.643  12.645  14.407
24350W        W88294  21.533   7.303  11.010
24351W        W88295  38.543  11.160  14.351
24352W        W88296  15.683  26.612   4.813
24353W        W88297  26.685   9.380  14.871
24354W        W88298  24.107  28.543   1.933
24355W        W88299   8.857   3.895  11.068
24356W        W88300   4.885  18.070   2.221
24357W        W88301   6.744   8.287   2.387
24358W        W88302  10.848  14.808  11.990
24359W        W88303  43.878  34.905   1.389
24360W        W88304  30.647  13.147   0.834
24361W        W88305  10.799  42.343  14.845
24362W        W88306  37.352  10.284   4.176
24363W        W88307  23.599  32.446   1.750
24364W        W88308   8.791  16.238  13.877
24365W        W88309  20.152   7.236   3.293
24366W        W88310  27.013  17.571  14.451
24367W        W88311  25.665  20.706   4.176
24368W        W88312   7.199  38.881   4.217
24369W        W88313  17.268  28.940   3.363
24370W        W88314   1.761  30.952  12.835
24371W        W88315   1.363  41.881  13.811
24372W        W88316  20.139  34.113   2.791
24373W        W88317  26.105   6.388   2.332
24374W        W88318   2.927  12.215   2.396
24375W        W88319  40.499  38.876  12.012
24376W        W88320  16.715  28.550   3.776
24377W        W88321  38.420   9.292  13.811
24378W        W88322  35.984   6.340   4.611
24379W        W88323  17.741  43.403   1.752
24380W        W88324  24.622  14.835  14.462
24381W        W88325  21.021  40.456  10.921
24382W        W88326  38.348  44.316   3.855
24383W        W88327  10.326  38.466   2.355
24384W        W88328  11.652  13.144   1.839
24385W        W88329  37.376   5.336  11.935
24386W        W88330  38.410  11.282   0.376
24387W        W88331   1.786   7.354   2.370
24388W        W88332  44.385  22.542  14.394
24389W        W88333  34.884  37.354  13.318
24390W        W88334  40.990  33.606   2.852
24391W        W88335   3.435   6.245   2.229
24392W        W88336  26.977  13.643  13.439
24393W        W88337  40.480  16.695  13.424
24394W        W88338  44.284  22.650   0.258
24395W        W88339  11.698   6.294   5.090
24396W        W88340   6.347  29.118   2.830
24397W        W88341  20.234  23.128   0.413
24398W        W88342  27.663  11.135   1.823
24399W        W88343  43.319  39.999  11.555
24400W        W88344  32.987  10.351  11.971
24401W        W88345   9.197  40.521  13.023
24402W        W88346   7.816  21.668   0.917
24403W        W88347  13.629  22.190   0.302
24404W        W88348  41.808  15.306   3.741
24405W        W88349  14.806   7.302   1.218
24406W        W88350  11.165  36.904  12.046
24407W        W88351   9.248  42.932   0.463
24408W        W88352  33.975  41.044   3.305
24409W        W88353  44.436  17.215   3.156
24410W        W88354   3.238  32.933  10.519
24411W        W88355  33.924   6.310   1.912
24412W        W88356  19.616   6.746   0.367
24413W        W88357  42.516  18.719   4.158
24414W        W88358  10.189  32.914  13.486
24415W        W88359  14.801  11.147   4.600
24416W        W88360  30.136  14.620  10.514
24417W        W88361  37.465  16.612  13.379
24418W        W88362  15.667   5.757  14.950
24419W        W88363  27.580  17.160  11.407
24420W        W88364  25.654   3.361  12.959
24421W        W88365  40.860   6.888   4.146
24422W        W88366  22.106  36.063   3.331
24423W        W88367  18.157  42.786  12.526
24424W        W88368  12.343   2.252   2.180
24425W        W88369  42.787  27.025  11.129
24426W        W88370  27.511  14.670  12.063
24427W        W88371  25.559  32.450  12.518
24428W        W88372  10.726  36.515  13.854
24429W        W88373  27.547  14.185   4.746
24430W        W88374   3.879  44.376   2.366
24431W        W88375  25.125  16.611  10.921
24432W        W88376  18.290  37.578  11.375
24433W        W88377  15.313  12.284  10.600
24434W        W88378  32.054  32.991   2.858
24435W        W88379  20.578  11.210   3.368
24436W        W88380   1.423  24.708  13.516
24437W        W88381  37.446  32.998   1.253
24438W        W88382  17.151   4.732   0.381
24439W        W88383  17.568   0.895  13.022
24440W        W88384   8.357  21.244  11.890
24441W        W88385  26.514  31.464  12.451
24442W        W88386  13.134  14.286  13.542
24443W        W88387   6.200  32.111   3.814
24444W        W88388   6.853   5.830   3.264
24445W        W88389  39.353  32.994   1.845
24446W        W88390   6.906  42.380  14.438
24447W        W88391  36.418  27.551   1.356
24448W        W88392  40.978  18.552   1.365
24449W        W88393  18.722  36.455  10.560
24450W        W88394   4.826  18.175   3.327
24451W        W88395  28.944  42.909   1.861
24452W        W88396  41.917  42.021   1.728
24453W        W88397  23.121   5.763   3.730
24454W        W88398  26.488  34.566  11.081
24455W        W88399  21.674  17.154   2.392
24456W        W88400  24.144  10.339   2.689
24457W        W88401  21.142  34.509  11.389
24458W        W88402  44.802  39.934  10.467
24459W        W88403  24.502  20.573   2.260
24460W        W88404  43.853   9.726   1.934
24461W        W88405  21.153  29.488   4.254
24462W        W88406   9.394  41.488   3.186
24463W        W88407   1.892  21.663  13.348
24464W        W88408  20.190  17.081   2.335
24465W        W88409  35.467  23.999   0.438
24466W        W88410  38.438  44.771  10.547
24467W        W88411   6.234  44.957  11.896
24468W        W88412  12.229  19.607   3.761
24469W        W88413  23.709  17.213   3.685
24470W        W88414   1.855   8.189  14.860
24471W        W88415   4.450  37.378   2.213
24472W        W88416  14.715   9.831  14.394
24473W        W88417  10.794  33.879   4.353
24474W        W88418   8.187  31.480  10.975
24475W        W88419  20.270  17.744  11.498
24476W        W88420  21.530  28.523   0.901
24477W        W88421  34.894  39.013   4.255
24478W        W88422  14.717  13.274  13.932
24479W        W88423  40.961  38.893   2.233
24480W        W88424  28.482  25.201  13.494
24481W        W88425  27.608   4.751  10.061
24482W        W88426  21.586   4.328  14.342
24483W        W88427  40.946  32.080   3.683
24484W        W88428  15.785  44.505  14.855
24485W        W88429  17.255  24.607   0.828
24486W        W88430  30.140  10.641  12.072
24487W        W88431  40.313  15.711  13.424
24488W        W88432  29.522  32.039  14.021
24489W        W88433  30.149  22.210  14.404
24490W        W88434  13.846  33.486   3.845
24491W        W88435  42.788  31.047   0.863
24492W        W88436  15.688  15.226   1.430
24493W        W88437  22.011  32.115  13.449
24494W        W88438  37.466   2.824   2.363
24495W        W88439   0.894  31.623  10.639
24496W        W88440  41.506   2.900  13.936
24497W        W88441  18.757   5.250   0.904
24498W        W88442  31.986  39.058  10.593
24499W        W88443  38.404   8.838   0.896
24500W        W88444  40.418   0.865   0.375
24501W        W88445   3.330   1.272   1.373
24502W        W88446   3.832   4.851  12.460
24503W        W88447  27.505  35.069  11.032
24504W        W88448   4.244  16.727   3.228
24505W        W88449  28.069  18.768   3.151
24506W        W88450  13.147  41.531   3.329
24507W        W88451  41.945  11.316  13.918
24508W        W88452  15.622  35.457   3.721
24509W        W88453  40.875  40.360  10.986
24510W        W88454  33.114  40.513   3.323
24511W        W88455  13.690  44.950  14.401
24512W        W88456  10.274  34.944  11.611
24513W        W88457  17.258  43.321   2.675
24514W        W88458  21.625  27.515   2.252
24515W        W88459   7.825  39.830   1.924
24516W        W88460   3.384  24.112   1.400
24517W        W88461  28.450  18.193  12.970
24518W        W88462  17.674  42.507  11.014
24519W        W88463  40.870  25.968   4.338
24520W        W88464  15.144  21.545  11.989
24521W        W88465  11.134  20.539   4.710
24522W        W88466  29.032  17.716   2.691
24523W        W88467  21.543  22.179  13.399
24524W        W88468   2.914  28.942  12.471
24525W        W88469   1.961  31.960   3.151
24526W        W88470  42.971   0.432  11.091
24527W        W88471  14.669  36.516  10.584
24528W        W88472  11.636  40.003  14.765
24529W        W88473   0.961  34.905   4.798
24530W        W88474   2.879  18.073   1.229
24531W        W88475  11.191  31.052   5.256
24532W        W88476  15.717  39.833   4.237
24533W        W88477  19.689  18.173  13.420
24534W        W88478  16.262  22.152   2.382
24535W        W88479  20.628   0.280  14.930
24536W        W88480  20.037  34.061  14.363
24537W        W88481  26.066  11.696   2.891
24538W        W88482  33.988  14.628  10.538
24539W        W88483  10.726  39.491   3.355
24540W        W88484  26.622   4.841  10.919
24541W        W88485   2.929   8.191  11.066
24542W        W88486  40.018   9.706   1.878
24543W        W88487  21.593  36.958  13.453
24544W        W88488  20.093  38.329   4.343
24545W        W88489  21.756   4.385  12.938
24546W        W88490  19.260  17.759  12.912
24547W        W88491  14.294  24.585  13.840
24548W        W88492  44.859   9.240   3.790
24549W        W88493  22.556  34.971  13.407
24550W        W88494   3.780  39.004   2.841
24551W        W88495  36.538  25.585  11.390
24552W        W88496  10.649  29.446   0.955
24553W        W88497  38.963  10.219  14.876
24554W        W88498  17.205  35.410   1.410
24555W        W88499  15.276  11.859   2.261
24556W        W88500   0.378  11.813  10.625
24557W        W88501   7.781  25.109  12.065
24558W        W88502  39.056  42.865   2.898
24559W        W88503  20.535  16.185   4.784
24560W        W88504  21.572  43.273   3.273
24561W        W88505  24.131  41.299   2.220
24562W        W88506  37.411   0.424   3.314
24563W        W88507  18.248  22.577   4.299
24564W        W88508  13.717  26.106   0.863
24565W        W88509  17.067  19.776  10.608
24566W        W88510  20.696  36.485   1.247
24567W        W88511   7.171  39.490   4.342
24568W        W88512  32.125  43.483  12.550
24569W        W88513   1.464  40.438  14.897
24570W        W88514   3.328  25.209   0.298
24571W        W88515  29.491  33.060   0.958
24572W        W88516  17.131   0.795   3.686
24573W        W88517  35.427  31.922   1.432
24574W        W88518  24.677   3.268  12.496
24575W        W88519  33.463  20.210  12.989
24576W        W88520  24.205   1.394   1.911
24577W        W88521   7.198  33.933   3.307
24578W        W88522   1.919  20.106   2.825
24579W        W88523  13.319  43.801   0.880
24580W        W88524  19.226  35.594  11.492
24581W        W88525  21.688  12.362   2.234
24582W        W88526  15.287  37.830  11.902
24583W        W88527  21.704  22.645  14.507
24584W        W88528  38.532  15.153   3.712
24585W        W88529  29.498  44.505  11.381
24586W        W88530   2.242  17.149   3.377
24587W        W88531  29.617  34.885  10.521
24588W        W88532  24.986  40.032   9.933
24589W        W88533  32.614  25.534   2.253
24590W        W88534   7.330  34.901   0.856
24591W        W88535  40.450  35.098  10.891
24592W        W88536   0.988   6.869   2.360
24593W        W88537  22.173  34.047  14.980
24594W        W88538  20.229  31.988  10.009
24595W        W88539  26.477   1.468   1.451
24596W        W88540  28.437  27.017  11.942
24597W        W88541  28.510   9.655  13.374
24598W        W88542  11.682  35.460   2.313
24599W        W88543  19.106  34.510   2.244
24600W        W88544  40.028  13.273   1.831
24601W        W88545  42.910  29.972  14.816
24602W        W88546  37.503  42.025   4.175
24603W        W88547  43.884  40.953   0.297
24604W        W88548  26.124  44.337   4.169
24605W        W88549  21.599   4.735  14.440
24606W        W88550   7.324  23.603  11.596
24607W        W88551  20.747  25.162   4.661
24608W        W88552  28.585   0.914  14.315
24609W        W88553  24.139  29.122  11.387
24610W        W88554  14.254  14.333  14.516
24611W        W88555  16.175  16.128  10.925
24612W        W88556   9.655  32.965  11.082
24613W        W88557   4.349  16.096   3.778
24614W        W88558   2.781  25.993  14.442
24615W        W88559  33.391  38.404  13.387
24616W        W88560  30.160  28.465  14.795
24617W        W88561  43.341  18.150   3.227
24618W        W88562   0.789   8.658  13.346
24619W        W88563  41.513  30.027  12.494
24620W        W88564  35.472   5.398   2.195
24621W        W88565  18.577   0.811  12.948
24622W        W88566  22.135  43.315   4.726
24623W        W88567   0.811  36.988  13.833
24624W        W88568   1.872  43.964   1.798
24625W        W88569  34.090  19.218  14.350
24626W        W88570  14.829  34.466  10.968
24627W        W88571  29.446  21.719  13.862
24628W        W88572  30.006   3.730   2.738
24629W        W88573  13.730  29.983   1.396
24630W        W88574  36.085  18.259   4.287
24631W        W88575  21.564  13.837   2.370
24632W        W88576  37.854  42.314   2.207
24633W        W88577  42.011  43.438  10.977
24634W        W88578  44.760   0.926   0.364
24635W        W88579  24.056   0.491   2.350
24636W        W88580  28.512  41.000  14.862
24637W        W88581  12.266   3.244  12.879
24638W        W88582  14.752  16.575   3.210
24639W        W88583  24.981  28.453  11.120
24640W        W88584   6.410  42.813   5.281
24641W        W88585  25.975   4.336  11.517
24642W        W88586   6.763  37.367   0.912
24643W        W88587  15.609  17.566  14.980
24644W        W88588  42.988  13.653   3.227
24645W        W88589   2.371   5.247  12.404
24646W        W88590  10.841  27.096  11.887
24647W        W88591  21.593  41.379  11.440
24648W        W88592   5.221  31.588   0.888
24649W        W88593  11.801  18.650   4.330
24650W        W88594  44.897  35.876  10.641
24651W        W88595  18.181  34.913  12.427
24652W        W88596  41.900  20.170  13.924
24653W        W88597  29.930  16.810  11.952
24654W        W88598  18.665  15.142  14.968
24655W        W88599  22.745  36.924  13.987
24656W        W88600  19.743   2.850  12.899
24657W        W88601  27.477  44.914   0.464
24658W        W88602  36.851   0.326   2.899
24659W        W88603  14.588  27.968  12.552
24660W        W88604  36.094  32.594  14.768
24661W        W88605  13.638  19.209   1.318
24662W        W88606  10.738  20.557  14.809
24663W        W88607  37.949  22.619  13.394
24664W        W88608  26.662  16.812   2.326
24665W        W88609  23.183  13.332  13.359
24666W        W88610  42.844   3.360  14.279
24667W        W88611  21.701   6.729   2.274
24668W        W88612  13.708  40.476   2.726
24669W        W88613  28.614   5.918   3.702
24670W        W88614  37.442  39.525   3.264
24671W        W88615   1.432   0.331  14.430
24672W        W88616  23.627   2.795  10.920
24673W        W88617  12.201  17.117  14.512
24674W        W88618  41.460  32.129  12.898
24675W        W88619  30.625  41.515   1.348
24676W        W88620  29.164  22.539  12.065
24677W        W88621  26.109  36.582   3.797
24678W        W88622  39.420   4.362   1.353
24679W        W88623  40.961   5.331  11.427
24680W        W88624  35.491   2.281  10.940
24681W        W88625  32.140  19.283  11.055
24682W        W88626  24.701  17.084  14.823
24683W        W88627   9.779  40.363  13.896
24684W        W88628  37.413  31.439   0.308
24685W        W88629  16.130   9.332   1.929
24686W        W88630   7.666  17.285   4.167
24687W        W88631  30.079  40.937  14.926
24688W        W88632  33.499  41.463  10.139
24689W        W88633   1.478  39.861   3.655
24690W        W88634  25.480  21.188   3.330
24691W        W88635  38.865  13.606   3.710
24692W        W88636  14.240  40.045   2.297
24693W        W88637   8.381   3.386  10.644
24694W        W88638  25.085  29.023   3.817
24695W        W88639  36.373  15.096  14.906
24696W        W88640  38.982  14.758   0.740
24697W        W88641  40.036  19.274   3.180
24698W        W88642  41.336  34.407   2.785
24699W        W88643  42.031  29.515   0.369
24700W        W88644  42.410  32.930   1.249
24701W        W88645  30.158  40.986  14.284
24702W        W88646  13.807  27.134  14.896
24703W        W88647   3.378  33.601   2.718
24704W        W88648  26.495  44.898  13.809
24705W        W88649  44.843   2.366   0.286
24706W        W88650  30.090   4.784   0.809
24707W        W88651  43.001  32.430   1.367
24708W        W88652  44.896  29.116  10.512
24709W        W88653  25.197   6.892   4.669
24710W        W88654  44.259  41.850   2.213
24711W        W88655  34.587  34.954  12.991
24712W        W88656  11.265   7.860  11.928
24713W        W88657  33.495  38.965   0.275
24714W        W88658  19.167  15.134  14.925
24715W        W88659  43.921  40.466  11.889
24716W        W88660  14.651  22.202   0.897
24717W        W88661  31.435  29.494   2.887
24718W        W88662   9.741  23.699  13.514
24719W        W88663  19.212  44.860  11.059
24720W        W88664  40.425  38.346   4.646
24721W        W88665  40.408  23.027   2.186
24722W        W88666  30.546   7.191   0.331
24723W        W88667  22.138  28.112   2.862
24724W        W88668  15.762  17.281  10.572
24725W        W88669   5.203  31.950   4.318
24726W        W88670  25.050   3.403   1.780
24727W        W88671   1.277  20.226   3.266
24728W        W88672  37.907  38.933   3.814
24729W        W88673  39.327  26.166  14.810
24730W        W88674  31.133   9.740  14.474
24731W        W88675   1.303   8.312   2.866
24732W        W88676  33.429   9.224   0.457
24733W        W88677   8.161  14.325  11.030
24734W        W88678  43.815  24.574   0.449
24735W        W88679  27.606   5.719  13.526
24736W        W88680   0.420  10.381   9.996
24737W        W88681  11.203  44.979  11.528
24738W        W88682  13.299  34.549  11.463
24739W        W88683  12.354  35.415   3.730
24740W        W88684  13.679  43.767  10.404
24741W        W88685  35.015  41.957   2.213
24742W        W88686  20.261   2.381   4.630
24743W        W88687   8.836  13.122  10.917
24744W        W88688  13.753  40.472   4.328
24745W        W88689  21.213  17.676   2.838
24746W        W88690   4.942  30.952   2.704
24747W        W88691  15.795  10.799   1.397
24748W        W88692   4.723  22.569  13.806
24749W        W88693  15.327   2.296  13.030
24750W        W88694  42.012  21.037  10.152
24751W        W88695  23.611  31.107   1.720
24752W        W88696   4.257   5.325  14.439
24753W        W88697   7.188   4.281   2.705
24754W        W88698  26.542  23.094   3.377
24755W        W88699  27.087  25.041   2.338
24756W        W88700  21.574   0.949  11.102
24757W        W88701  30.564  13.125   2.182
24758W        W88702  21.739  38.894   2.671
24759W        W88703  21.595  30.087   4.605
24760W        W88704   5.217   6.377   0.250
24761W        W88705  35.875  40.369   1.735
24762W        W88706  10.203  12.687   1.432
24763W        W88707  35.099   7.760   4.704
24764W        W88708  14.323  19.216   0.330
24765W        W88709   9.216   9.665  13.945
24766W        W88710   9.655  11.775  13.972
24767W        W88711  31.604  13.609   4.232
24768W        W88712  11.682  15.588   0.785
24769W        W88713  39.018  20.269  11.411
24770W        W88714  18.577  44.792  13.331
24771W        W88715   9.689  22.743   1.399
24772W        W88716  19.256  16.751  14.367
24773W        W88717  14.120  41.842   3.755
24774W        W88718   5.319  31.582   2.281
24775W        W88719   1.844  16.743   2.289
24776W        W88720  34.899   2.938   1.284
24777W        W88721  24.188   1.242  10.559
24778W        W88722  22.713  13.149  14.764
24779W        W88723  13.746  12.248   2.201
24780W        W88724   5.922   5.332   0.877
24781W        W88725  30.950  18.065   3.702
24782W        W88726   6.709  11.803   3.221
24783W        W88727  19.247  20.597   4.305
24784W        W88728  16.162  42.916   2.288
24785W        W88729  41.510  25.079  14.405
24786W        W88730  31.520  40.018   4.838
24787W        W88731  35.399  28.674  11.556
24788W        W88732   7.797   8.794   3.700
24789W        W88733  34.413  38.561  11.431
24790W        W88734  13.206  33.009   4.725
24791W        W88735  28.608  10.355   2.206
24792W        W88736  41.387  43.389   2.792
24793W        W88737  28.178   1.243   3.667
24794W        W88738   0.300  29.445  10.956
24795W        W88739   7.308  43.958   3.200
24796W        W88740  18.565  12.335   1.374
24797W        W88741  23.635  23.086  14.404
24798W        W88742  27.007  17.735   4.159
24799W        W88743  17.629  26.627  13.481
24800W        W88744   5.217  10.757   3.146
24801W        W88745   7.324  12.124  13.021
24802W        W88746  34.484  23.192   0.787
24803W        W88747   7.376  27.469  14.769
24804W        W88748  17.293  23.581   0.900
24805W        W88749  28.617  29.108  11.868
24806W        W88750  36.019  22.193  12.971
24807W        W88751  20.029  36.936  11.601
24808W        W88752  35.383  34.397   3.684
24809W        W88753  29.976  14.710   3.725
24810W        W88754  42.826  35.561  14.352
24811W        W88755  20.620  32.514  14.326
24812W        W88756  29.454  43.855  12.370
24813W        W88757   9.168  15.726  13.476
24814W        W88758  30.061   7.773   4.762
24815W        W88759   5.803  11.725  10.626
24816W        W88760   4.278  34.075  10.441
24817W        W88761  40.801  32.496  11.109
24818W        W88762  23.586  33.936  13.934
24819W        W88763  30.415  42.352  14.436
24820W        W88764   5.327   5.867   2.233
24821W        W88765   3.717   0.856  12.549
24822W        W88766  44.887  34.463  14.925
24823W        W88767  42.029  31.154  12.577
24824W        W88768  13.768  25.632  14.977
24825W        W88769  39.961   0.955  13.397
24826W        W88770   2.282   4.869   9.595
24827W        W88771  43.930  21.544   2.791
24828W        W88772   1.965  31.007   5.124
24829W        W88773  35.064  30.501   1.778
24830W        W88774   0.265   0.400  13.828
24831W        W88775   7.833  40.390  11.573
24832W        W88776  14.202  31.058  12.401
24833W        W88777  40.828   2.950   4.662
24834W        W88778  27.948   7.302  12.549
24835W        W88779  44.384  18.723   3.780
24836W        W88780  22.633  23.501   3.673
24837W        W88781  44.795  15.640   3.236
24838W        W88782   6.412  28.558  11.039
24839W        W88783  34.077   5.702   3.679
24840W        W88784  26.648  23.206  14.934
24841W        W88785  40.496  31.053   0.896
24842W        W88786  10.709  28.649   0.893
24843W        W88787   6.234  30.552  14.287
24844W        W88788  35.562  16.701  11.491
24845W        W88789  14.835  28.981  14.788
24846W        W88790  23.172   1.939   0.842
24847W        W88791  34.574  42.434   0.342
24848W        W88792  20.155   7.696  11.459
24849W        W88793  28.151   7.341  12.033
24850W        W88794  30.412  21.658  13.044
24851W        W88795  43.797   9.772  12.873
24852W        W88796  28.955  18.727  11.978
24853W        W88797  43.800   5.918   3.173
24854W        W88798   1.425   7.749   5.256
24855W        W88799   6.271   2.363  13.812
24856W        W88800   4.435  24.154   2.384
24857W        W88801  44.881   6.686   4.632
24858W        W88802  32.395  34.457   3.387
24859W        W88803  26.114  31.603  10.526
24860W        W88804   0.430  35.368  12.543
24861W        W88805  39.521  30.434  12.023
24862W        W88806  13.325  22.509   1.365
24863W        W88807  36.940   1.900  13.978
24864W        W88808  18.081  17.580   2.767
24865W        W88809   1.241  44.008  12.449
24866W        W88810   4.938  34.572  10.422
24867W        W88811   4.406   0.844  11.071
24868W        W88812  15.086   9.171   3.332
24869W        W88813  31.422  38.419   1.738
24870W        W88814  26.565  35.073  13.000
24871W        W88815  13.628  13.832  12.345
24872W        W88816  20.701  32.550  14.805
24873W        W88817  37.841  16.106  12.418
24874W        W88818  42.468  24.072   4.796
24875W        W88819  20.625  37.028   3.762
24876W        W88820   7.197  34.997   1.280
24877W        W88821  42.999  12.633   4.350
24878W        W88822  40.305  26.601   1.825
24879W        W88823  13.611  40.819  10.921
24880W        W88824   0.270  43.960   4.834
24881W        W88825  15.256  41.796   1.420
24882W        W88826  30.536   1.943  13.521
24883W        W88827   1.954   4.814  13.951
24884W        W88828  29.155  27.583  14.348
24885W        W88829  31.548  36.863  11.611
24886W        W88830   6.690  35.381  10.539
24887W        W88831  32.916  13.714   4.682
24888W        W88832  31.557   6.712   2.732
24889W        W88833  29.132  39.357  13.397
24890W        W88834   1.443  16.610  11.015
24891W        W88835   0.899  16.658  10.907
24892W        W88836  29.518  21.221   5.205
24893W        W88837  28.934  43.314   5.185
24894W        W88838  23.984  38.842   0.284
24895W        W88839  37.902  24.521  14.425
24896W        W88840  14.801  31.636  12.917
24897W        W88841   0.439  21.718   3.854
24898W        W88842  32.518  10.844   4.772
24899W        W88843  20.249  38.369  13.514
24900W        W88844   2.941  40.045   3.690
24901W        W88845  22.224  12.734  12.408
24902W        W88846  40.980  23.158  10.501
24903W        W88847  21.233   2.746   1.401
24904W        W88848  17.756   2.235   1.704
24905W        W88849  24.524  22.606   2.798
24906W        W88850  33.066  26.564  12.952
24907W        W88851  41.426  35.957   3.208
24908W        W88852  38.420  25.622   3.338
24909W        W88853   6.243   7.382  10.473
24910W        W88854  23.160  20.650   1.818
24911W        W88855  37.925  19.707   3.311
24912W        W88856   5.343  31.902   2.301
24913W        W88857  33.621   9.382  11.510
24914W        W88858  18.670  32.454   3.637
24915W        W88859  15.181  11.659   1.447
24916W        W88860   2.811  33.510  13.050
24917W        W88861  34.970  17.138   5.198
24918W        W88862  28.044  25.703   2.683
24919W        W88863  31.454  42.330  13.010
24920W        W88864   9.156  31.634  14.431
24921W        W88865  19.083  39.383   2.734
24922W        W88866  16.768   5.844  12.979
24923W        W88867  12.207   3.410  13.825
24924W        W88868  37.442   1.411   2.817
24925W        W88869  23.002   9.357   0.399
24926W        W88870  31.538   3.867   3.369
24927W        W88871  34.985  22.740   0.893
24928W        W88872  43.888  15.601  10.078
24929W        W88873   8.866  36.034  14.497
24930W        W88874  14.191  11.848  12.928
24931W        W88875  23.574   8.801  11.060
24932W        W88876  24.639  40.340   0.876
24933W        W88877  16.133  27.121  11.905
24934W        W88878  43.990  40.325  11.470
24935W        W88879  34.022  41.012   0.756
24936W        W88880  27.654  26.015   4.260
24937W        W88881  28.607  17.659   4.181
24938W        W88882  28.506  13.196   3.720
24939W        W88883  43.509  26.668   4.675
24940W        W88884   1.978   3.816   0.255
24941W        W88885  12.127  35.456   2.182
24942W        W88886  11.753  23.715  14.762
24943W        W88887  32.142  29.446  13.351
24944W        W88888  28.444  44.480  10.943
24945W        W88889   7.672  18.055  12.840
24946W        W88890   1.347   1.417  14.926
24947W        W88891  13.108  25.210  12.051
24948W        W88892   0.792  44.899  10.989
24949W        W88893  27.976  13.178  13.466
24950W        W88894  44.917   9.226   2.815
24951W        W88895   3.839   1.241  10.981
24952W        W88896   7.685  41.907  12.518
24953W        W88897  43.378  43.788   4.601
24954W        W88898  16.218  23.706  10.581
24955W        W88899  15.160  17.773  11.374
24956W        W88900   5.422  13.172   4.281
24957W        W88901  12.149  30.497   1.416
24958W        W88902   3.931  15.305   1.439
24959W        W88903  41.478  12.727   4.287
24960W        W88904  24.078  16.158  10.408
24961W        W88905  11.860   5.375   4.154
24962W        W88906   4.440  18.137   2.756
24963W        W88907  12.769  32.447  11.494
24964W        W88908  23.626  42.792   1.768
24965W        W88909  26.499  21.613  10.539
24966W        W88910   4.944  31.993   4.780
24967W        W88911  21.697  16.671   1.792
24968W        W88912   6.736  16.725   4.701
24969W        W88913  28.941  23.624   0.355
24970W        W88914  37.566  17.189  13.971
24971W        W88915  24.022  28.614   1.412
24972W        W88916   9.300  40.004  11.430
24973W        W88917  30.052  42.397   4.611
24974W        W88918  36.508  23.067   0.275
24975W        W88919  44.327  31.486  10.537
24976W        W88920  34.463  33.983  11.387
24977W        W88921  34.379  28.446  11.012
24978W        W88922  26.535  44.266  14.953
24979W        W88923  20.609   0.944  14.341
24980W        W88924   0.866   6.834  13.852
24981W        W88925   2.446   5.402  14.819
24982W        W88926  44.767  41.476  12.577
24983W        W88927  44.286  20.727   0.290
24984W        W88928  40.392  40.525  11.114
24985W        W88929  21.263   7.362  11.014
24986W        W88930  12.758  30.590   3.312
24987W        W88931  10.675   7.345   3.635
24988W        W88932  22.607  44.967   3.799
24989W        W88933  33.431   8.733  12.387
24990W        W88934  13.708  11.737  14.966
24991W        W88935   2.938  20.756  11.478
24992W        W88936  12.660  31.933  10.992
24993W        W88937  41.317   5.378  10.907
24994W        W88938  18.251   8.888  11.062
24995W        W88939  13.832  28.557   4.232
24996W        W88940   3.290  31.578   3.213
24997W        W88941  36.054  31.575  13.530
24998W        W88942  40.480  20.725   2.216
24999W        W88943  12.614  16.740  10.507
25000W        W88944  36.512  37.964  12.995
25001W        W88945   9.161  42.855   3.642
25002W        W88946  40.999  43.375   2.194
25003W        W88947  44.844  15.749  11.532
25004W        W88948  28.520  15.208   3.714
25005W        W88949  16.761   5.758  14.922
25006W        W88950  40.878  44.821  14.388
25007W        W88951  21.074  42.813   1.727
25008W        W88952  42.456  10.150   3.685
25009W        W88953  30.083  27.104   1.734
25010W        W88954   9.869  14.109   2.750
25011W        W88955  21.533  28.513   0.437
25012W        W88956  27.048  18.685   3.226
25013W        W88957  40.033   0.754   3.780
25014W        W88958  31.472  26.161  13.807
25015W        W88959  37.532  28.177   2.770
25016W        W88960  24.020   5.794  13.479
25017W        W88961  24.133  43.513   1.847
25018W        W88962   1.913  22.659  12.535
25019W        W88963   0.863   2.931   3.661
25020W        W88964  30.024  11.216   0.389
25021W        W88965  41.894  21.262  10.642
25022W        W88966   9.762  20.709  10.641
25023W        W88967  33.455  20.685  12.078
25024W        W88968  44.002  44.407  12.476
25025W        W88969   9.181   9.375   0.344
25026W        W88970   8.708  25.049   0.390
25027W        W88971  40.797   1.343  13.501
25028W        W88972  24.200  30.013   3.780
25029W        W88973  12.315  11.227  13.052
25030W        W88974  18.744  40.484   4.268
25031W        W88975   0.871  17.163   1.934
25032W        W88976  18.587   2.262   3.306
25033W        W88977  12.744  36.379   3.302
25034W        W88978  27.008  29.951   1.308
25035W        W88979  34.529  40.979  13.540
25036W        W88980  43.851  16.217   4.779
25037W        W88981   5.404  16.305   1.292
25038W        W88982   6.843  38.999  11.875
25039W        W88983  13.725  41.348  11.992
25040W        W88984  30.599   5.265  10.574
25041W        W88985  34.416   2.244   3.812
25042W        W88986  14.628  29.669  11.429
25043W        W88987  34.009  40.045  14.791
25044W        W88988   9.284  27.092   4.776
25045W        W88989  36.385   5.715   2.319
25046W        W88990  24.515  42.525  13.954
25047W        W88991  34.024  19.085   3.786
25048W        W88992   1.375  26.499  11.975
25049W        W88993  18.222   2.864  14.430
25050W        W88994  26.018  28.490  13.842
25051W        W88995   8.203   4.721  12.422
25052W        W88996  28.489  17.649   2.768
25053W        W88997  15.643  24.538   9.519
25054W        W88998  31.968   1.394  11.383
25055W        W88999  32.627  14.748   0.910
25056W        W89000  10.199   1.453  11.377
25057W        W89001  37.844  13.712   4.736
25058W        W89002  24.148  41.383  10.056
25059W        W89003  10.371  21.673  11.997
25060W        W89004  17.758  24.974   3.345
25061W        W89005  23.532  24.039  11.963
25062W        W89006   7.291   6.366  14.869
25063W        W89007  32.117  44.302   2.712
25064W        W89008  34.945  19.254  11.070
25065W        W89009  43.925  16.688  10.949
25066W        W89010  22.073  14.160   4.347
25067W        W89011   6.199  21.214   2.256
25068W        W89012  10.661  22.169  12.069
25069W        W89013  35.601  12.678   1.886
25070W        W89014   4.859  24.197   2.247
25071W        W89015  19.193  10.370  13.949
25072W        W89016  29.583  19.262   2.393
25073W        W89017  41.433  15.736  13.017
25074W        W89018  41.356  42.866  13.450
25075W        W89019  42.844  32.885  13.944
25076W        W89020  12.138  25.585  14.894
25077W        W89021  37.028   2.807  12.424
25078W        W89022  35.983   3.815   5.109
25079W        W89023  28.472  21.218   1.391
25080W        W89024  25.562   7.223   2.331
25081W        W89025  21.105  25.493  13.522
25082W        W89026  44.325  32.110   4.811
25083W        W89027   1.250  38.506  14.936
25084W        W89028  12.164   3.425  14.459
25085W        W89029  24.687  31.054  14.846
25086W        W89030  38.491  34.418  13.986
25087W        W89031  42.881  11.126  12.367
25088W        W89032   5.282  32.542  13.536
25089W        W89033  10.657  38.531   3.631
25090W        W89034  20.109   8.400  11.584
25091W        W89035  33.974  36.443  13.316
25092W        W89036  15.633  40.506  13.818
25093W        W89037  43.957  15.257  13.473
25094W        W89038  41.967  44.926  14.953
25095W        W89039   0.280  39.331  12.001
25096W        W89040  36.885   1.873   2.761
25097W        W89041   3.255  44.410   3.281
25098W        W89042   9.802  32.052  11.433
25099W        W89043  23.557  18.243   0.803
25100W        W89044  19.243   0.467  12.510
25101W        W89045   8.804   5.201  12.038
25102W        W89046  43.973   0.758   2.293
25103W        W89047  10.157   7.824  11.392
25104W        W89048  10.212  27.113  10.121
25105W        W89049   6.751  15.785   3.717
25106W        W89050  20.126  42.821   1.218
25107W        W89051  18.085  36.841  12.567
25108W        W89052   6.293  33.551  13.456
25109W        W89053  20.547  34.976  11.078
25110W        W89054  22.594  36.592   1.435
25111W        W89055   8.389  35.431  11.071
25112W        W89056  12.781  36.905  11.562
25113W        W89057  39.977  42.893  10.949
25114W        W89058  15.307  36.066   1.260
25115W        W89059  27.990  33.051   2.328
25116W        W89060   3.733  21.746   4.205
25117W        W89061  35.531  13.192  11.019
25118W        W89062  19.095  39.400   0.473
25119W        W89063   0.807  16.203  10.518
25120W        W89064  33.009   3.806  13.510
25121W        W89065  20.099  35.565  11.384
25122W        W89066  26.091  44.980   2.801
25123W        W89067  39.487  23.223   0.393
25124W        W89068   2.886   7.893  13.540
25125W        W89069   3.290   6.329   0.452
25126W        W89070  10.328   4.383  10.956
25127W        W89071  21.137  36.966  12.500
25128W        W89072  43.326  29.530  11.124
25129W        W89073  14.705  33.952   2.364
25130W        W89074  26.059   5.901   1.329
25131W        W89075  31.147  43.962  14.841
25132W        W89076  11.230  40.315   2.902
25133W        W89077  38.987  16.607  10.417
25134W        W89078   8.348   0.329  14.861
25135W        W89079  14.129  26.095   3.360
25136W        W89080  14.617  10.322  10.047
25137W        W89081  30.962  13.775  14.836
25138W        W89082  35.418  24.683   3.170
25139W        W89083  10.230  14.708  12.565
25140W        W89084   4.380  27.115  14.993
25141W        W89085  11.840  37.545   3.240
25142W        W89086  43.289  24.547  10.566
25143W        W89087  34.876  39.002   2.302
25144W        W89088  20.655  25.122  13.374
25145W        W89089   9.674  20.563  12.989
25146W        W89090  38.417  14.727  14.358
25147W        W89091   9.673   2.876   0.848
25148W        W89092  23.178   4.939  13.516
25149W        W89093  18.256  30.538   4.195
25150W        W89094  26.462  11.711  10.511
25151W        W89095  27.955   8.180  14.851
25152W        W89096  39.546  24.490   0.411
25153W        W89097  17.178  26.471   5.141
25154W        W89098  25.687  22.632  12.991
25155W        W89099  25.552  42.507   0.801
25156W        W89100  35.526  30.137   4.752
25157W        W89101  21.065  20.663  12.553
25158W        W89102  18.731  37.440   5.302
25159W        W89103  14.805  22.149   2.344
25160W        W89104  38.897  35.494  11.960
25161W        W89105  36.076  42.974   2.313
25162W        W89106  36.844  40.409   4.329
25163W        W89107  28.527  17.601  11.903
25164W        W89108   3.216  37.884   3.312
25165W        W89109  33.430  23.589   4.307
25166W        W89110  26.478  18.241  11.477
25167W        W89111  42.286  34.074  13.897
25168W        W89112  30.121  35.963   0.824
25169W        W89113   6.331  10.259  14.910
25170W        W89114  19.594   4.828   2.345
25171W        W89115  40.418  17.083   5.181
25172W        W89116  17.224   4.841   5.228
25173W        W89117   5.865  42.307  12.541
25174W        W89118  10.697  41.835  13.494
25175W        W89119  15.632  29.484  14.344
25176W        W89120  22.065  26.172  13.359
25177W        W89121  21.530  34.407  11.859
25178W        W89122  39.843  18.726  12.974
25179W        W89123  20.720  43.352   1.433
25180W        W89124  37.005  30.602   4.620
25181W        W89125  22.997  41.868   3.290
25182W        W89126  32.616   1.312  10.640
25183W        W89127  20.604  18.233  12.458
25184W        W89128  25.025  31.451  11.904
25185W        W89129  41.931  30.461  11.128
25186W        W89130  15.719  16.659   3.643
25187W        W89131  38.945  29.639  14.983
25188W        W89132  40.046  15.611  11.374
25189W        W89133   5.395  39.886  10.974
25190W        W89134  33.538   5.378   5.319
25191W        W89135   9.280  19.092  10.117
25192W        W89136  27.976   5.439  12.432
25193W        W89137   4.877   5.761   2.764
25194W        W89138  13.615  38.381  12.579
25195W        W89139  38.482  18.587   2.189
25196W        W89140   7.293  11.863  14.903
25197W        W89141   0.954  12.856   2.375
25198W        W89142   6.385  29.988   3.369
25199W        W89143  30.456  15.291   3.705
25200W        W89144   6.295  34.570   2.178
25201W        W89145  14.320   2.449   3.866
25202W        W89146  13.678  16.755  12.963
25203W        W89147  23.109   2.755   4.294
25204W        W89148  17.190  30.974   3.780
25205W        W89149  25.198  27.497   1.700
25206W        W89150  30.139  32.564   3.760
25207W        W89151  41.504  22.140  12.930
25208W        W89152  40.874  25.469   3.176
25209W        W89153   0.401  38.515  13.417
25210W        W89154   6.899  16.609   0.398
25211W        W89155  25.141  44.940   3.775
25212W        W89156  34.984  24.716  12.943
25213W        W89157  31.419  30.989   4.295
25214W        W89158  36.371  44.901   0.311
25215W        W89159  44.811   0.301   0.278
25216W        W89160  35.390  10.667  12.021
25217W        W89161  20.670  13.845   2.298
25218W        W89162  28.980  20.764   4.174
25219W        W89163  34.117   9.767  14.899
25220W        W89164   4.738  12.752   0.942
25221W        W89165  12.116  39.401   0.301
25222W        W89166  41.503  31.644   1.429
25223W        W89167  42.923  44.300   4.647
25224W        W89168  40.539   3.335   3.851
25225W        W89169  30.155  39.447   4.604
25226W        W89170  24.037   0.393   1.229
25227W        W89171  10.300  37.568   3.778
25228W        W89172  39.340  15.255   3.212
25229W        W89173  32.088   3.267  11.879
25230W        W89174   9.839   2.767   4.640
25231W        W89175  26.540  10.145  10.613
25232W        W89176  25.513  12.702   0.332
25233W        W89177  35.859  20.654   0.744
25234W        W89178   5.386   9.286  13.826
25235W        W89179  13.667   0.914  13.814
25236W        W89180  16.776  16.813  10.496
25237W        W89181  41.806  40.323  11.900
25238W        W89182  32.140  40.402  13.542
25239W        W89183  44.388  25.591   2.839
25240W        W89184   0.942  10.791  14.895
25241W        W89185  20.235  11.287  11.523
25242W        W89186  23.626  25.048  14.437
25243W        W89187  20.565  30.518   3.790
25244W        W89188  25.969   2.418  12.064
25245W        W89189  42.816  15.194  14.025
25246W        W89190   8.715  43.307   3.666
25247W        W89191  20.207  12.225   1.253
25248W        W89192  22.109  36.488   3.297
25249W        W89193   3.346  24.986   3.337
25250W        W89194  15.791  24.530   4.240
25251W        W89195  21.052  24.488   5.226
25252W        W89196   0.409  26.202   4.215
25253W        W89197  29.985  30.613  14.310
25254W        W89198  41.429  10.710  14.838
25255W        W89199  14.757  26.013   2.227
25256W        W89200   0.960  31.500   1.349
25257W        W89201  35.447  22.599  13.897
25258W        W89202  33.129  37.498  12.919
25259W        W89203   1.784  31.069   0.844
25260W        W89204  23.515  20.082   0.852
25261W        W89205  42.380   7.779   1.231
25262W        W89206  39.842  40.005   1.269
25263W        W89207  30.429  26.545   1.320
25264W        W89208  18.636  32.974  13.871
25265W        W89209  16.680  24.067  14.497
25266W        W89210  41.294  37.544  13.977
25267W        W89211  41.869  17.692   2.737
25268W        W89212  14.664  17.569  11.040
25269W        W89213   8.761  30.489   5.317
25270W        W89214  14.133  22.222  11.447
25271W        W89215   3.830  26.518  11.429
25272W        W89216  24.155  26.524   1.843
25273W        W89217  21.111   7.354  13.471
25274W        W89218   0.412   3.719  14.987
25275W        W89219   7.893  16.647  11.059
25276W        W89220  33.498  22.219   1.219
25277W        W89221  16.215   1.245   3.209
25278W        W89222  21.569  13.320   3.351
25279W        W89223  23.610  12.355   0.791
25280W        W89224   2.864  28.001   4.323
25281W        W89225  16.762  15.595   4.787
25282W        W89226  13.794  17.269   2.746
25283W        W89227  11.650  11.234   1.360
25284W        W89228  28.005  30.055  12.890
25285W        W89229   6.910  44.948   2.685
25286W        W89230  29.061  41.299   1.905
25287W        W89231  11.182  33.455   3.364
25288W        W89232  14.173  30.046  11.503
25289W        W89233   4.420  37.421   0.851
25290W        W89234  26.666   8.381   4.748
25291W        W89235  16.679  11.216   2.662
25292W        W89236  14.734   6.335  11.468
25293W        W89237   6.415  26.153   1.894
25294W        W89238  37.501  36.356  12.868
25295W        W89239  36.510  31.417  12.389
25296W        W89240  18.197   6.716   3.158
25297W        W89241  17.111  41.387  12.350
25298W        W89242  26.198  31.130   3.304
25299W        W89243  14.153   0.829   3.783
25300W        W89244  41.958   3.386  13.036
25301W        W89245  17.566  29.431   1.320
25302W        W89246   4.874  42.872   5.188
25303W        W89247   1.827  10.267  11.538
25304W        W89248  27.633  24.215  11.605
25305W        W89249  33.981  19.581  12.351
25306W        W89250  21.707  33.986  13.412
25307W        W89251  14.303  27.492  10.465
25308W        W89252  17.699  27.681  14.509
25309W        W89253  23.143   0.902  12.892
25310W        W89254  19.768  18.579   1.223
25311W        W89255  41.373   8.668  12.454
25312W        W89256  12.360  26.093  14.507
25313W        W89257  34.497  43.860  12.496
25314W        W89258   4.377  20.566   2.823
25315W        W89259   7.667  37.405   1.346
25316W        W89260  17.283  22.237  11.611
25317W        W89261   6.864  31.608  13.523
25318W        W89262  32.008   8.329   1.396
25319W        W89263   1.398  42.898   0.248
25320W        W89264   3.863  43.279  12.066
25321W        W89265  38.419   2.956  14.848
25322W        W89266  35.891  15.259  13.324
25323W        W89267   3.357  34.381  10.552
25324W        W89268   1.306   5.886   0.361
25325W        W89269  29.066  35.047   4.732
25326W        W89270   1.969  16.778  14.515
25327W        W89271   8.720  12.158   0.469
25328W        W89272   5.800  19.269   3.764
25329W        W89273  21.038  32.902   4.745
25330W        W89274  28.996  11.336  10.912
25331W        W89275  35.388  15.235   2.413
25332W        W89276   4.408  29.085  13.382
25333W        W89277  18.647  14.825  14.768
25334W        W89278  35.387  38.933  12.996
25335W        W89279   0.391  20.545  14.769
25336W        W89280  13.630   2.728   0.904
25337W        W89281  15.613  42.829  12.940
25338W        W89282   0.862  42.968  14.779
25339W        W89283  37.047  32.509  13.833
25340W        W89284  21.648  30.593   4.704
25341W        W89285  41.848  25.999  11.920
25342W        W89286  23.122   5.689  14.909
25343W        W89287  38.331  18.719   0.958
25344W        W89288   8.347  10.640  14.460
25345W        W89289  38.521   1.423   5.119
25346W        W89290  30.420  16.618  12.549
25347W        W89291   9.326   8.811   0.811
25348W        W89292  30.646  37.377   5.245
25349W        W89293   1.868   0.952  10.566
25350W        W89294   3.339  27.595   3.717
25351W        W89295  29.927  32.961  14.859
25352W        W89296   7.223  17.561  13.378
25353W        W89297  14.710  37.001  11.976
25354W        W89298  28.555  38.535   4.680
25355W        W89299   4.228   9.734  12.421
25356W        W89300  30.569  16.163  14.310
25357W        W89301  27.953  38.540  12.048
25358W        W89302  31.449  11.186  14.327
25359W        W89303  21.080   4.334  11.077
25360W        W89304  39.358  20.677  12.489
25361W        W89305  33.929  15.216  11.965
25362W        W89306   2.870  44.438  14.358
25363W        W89307  42.324  35.481   2.833
25364W        W89308  25.084  20.178   4.124
25365W        W89309  43.801  39.546  14.325
25366W        W89310   6.755  10.756   0.899
25367W        W89311  43.943  20.626  14.973
25368W        W89312  13.760  44.357  10.612
25369W        W89313  43.018   8.667  14.807
25370W        W89314  40.922  20.544  11.858
25371W        W89315  41.992  17.581  14.346
25372W        W89316  33.095  19.255  13.523
25373W        W89317  13.244  44.483  11.124
25374W        W89318  25.112  36.966   1.372
25375W        W89319  27.177   5.420  11.009
25376W        W89320  28.532  43.857   0.439
25377W        W89321  39.994  22.153  12.902
25378W        W89322  31.493   3.872   4.695
25379W        W89323  37.405  14.249   1.742
25380W        W89324  28.665  27.553   2.297
25381W        W89325  16.587  34.569   0.837
25382W        W89326  25.175  30.101   3.644
25383W        W89327  38.060  31.567  12.483
25384W        W89328  25.672  23.162   0.737
25385W        W89329  43.894  16.108   3.866
25386W        W89330  42.395  12.276   2.308
25387W        W89331  12.754  21.044   3.267
25388W        W89332  19.582   5.298   2.236
25389W        W89333  11.264  40.532   0.387
25390W        W89334  14.706  25.491   3.316
25391W        W89335  33.998  23.999   4.645
25392W        W89336   4.266  34.576   4.770
25393W        W89337  10.181   9.732  14.404
25394W        W89338  15.155   6.795  14.359
25395W        W89339   2.314  20.112   4.799
25396W        W89340   0.459  44.367  13.401
25397W        W89341   0.881   4.408   4.732
25398W        W89342   0.908   0.945   2.178
25399W        W89343  44.008  17.588   1.444
25400W        W89344  27.983  27.943   1.876
25401W        W89345  35.603  29.995   3.364
25402W        W89346  30.574  12.235  13.525
25403W        W89347   9.279  24.659   3.807
25404W        W89348  41.342  38.031   1.800
25405W        W89349   5.382  32.490  10.616
25406W        W89350  44.394  44.323  14.904
25407W        W89351  31.939  21.082   0.948
25408W        W89352   2.459  16.079   2.195
25409W        W89353  12.667  22.227   3.192
25410W        W89354  16.610  38.905  10.082
25411W        W89355  38.472  28.101   0.388
25412W        W89356  21.084  34.115   1.221
25413W        W89357  36.572  36.498  11.117
25414W        W89358  12.820  21.133   2.244
25415W        W89359   8.779  37.964   1.419
25416W        W89360   8.304   1.767  10.611
25417W        W89361  28.118   5.713   0.742
25418W        W89362   6.254  13.323   3.739
25419W        W89363  39.859  18.753  13.315
25420W        W89364  28.006  22.181   4.345
25421W        W89365  25.998  16.622   9.931
25422W        W89366  41.796  34.933  12.496
25423W        W89367  16.731  12.211   3.665
25424W        W89368   9.180  13.686   0.344
25425W        W89369   0.385  20.139   4.114
25426W        W89370  30.977  39.832   3.251
25427W        W89371  34.478   9.808  12.882
25428W        W89372  25.061  41.495   2.324
25429W        W89373  13.117  30.964  11.998
25430W        W89374  32.501  23.214  10.445
25431W        W89375  40.859  44.810  10.625
25432W        W89376   4.277  14.219  12.970
25433W        W89377   6.339  16.661   0.936
25434W        W89378  36.444  13.261   0.901
25435W        W89379   9.831  13.771  12.442
25436W        W89380  22.075  17.105   4.155
25437W        W89381  30.482  26.122   4.678
25438W        W89382   9.200  20.114  12.489
25439W        W89383  23.491  34.569  12.895
25440W        W89384  34.374   0.776   3.739
25441W        W89385   5.432  40.034   4.269
25442W        W89386  21.206   6.898   0.257
25443W        W89387  38.933  34.445  11.582
25444W        W89388  16.195   0.881   5.233
25445W        W89389  33.004   6.798  10.948
25446W        W89390   9.739  38.456   0.821
25447W        W89391  35.592   2.256   3.653
25448W        W89392  34.923   6.684   1.817
25449W        W89393  27.457   6.718   4.128
25450W        W89394  25.985  25.710   0.839
25451W        W89395  27.508  13.232   2.864
25452W        W89396  30.561   4.432  12.039
25453W        W89397   7.906  22.207   2.688
25454W        W89398   8.284  18.548   3.221
25455W        W89399   1.465   1.807  14.876
25456W        W89400  36.086   7.367   1.442
25457W        W89401  17.674  16.733   4.164
25458W        W89402   3.306   0.486   3.183
25459W        W89403  30.630  25.039   2.830
25460W        W89404  26.007  31.115  14.951
25461W        W89405  32.983  11.184   1.818
25462W        W89406  38.475  21.628  12.459
25463W        W89407  15.713  39.366  14.798
25464W        W89408  33.096  35.563  11.577
25465W        W89409  30.153  20.149   2.354
25466W        W89410   0.265   1.398  12.036
25467W        W89411   6.795  10.281   3.634
25468W        W89412  21.229  44.793   0.430
25469W        W89413  41.488   7.304   3.165
25470W        W89414  18.653  32.891   0.925
25471W        W89415   3.869  25.151  10.477
25472W        W89416   8.294  24.601  14.955
25473W        W89417  17.696  20.055  10.424
25474W        W89418  15.104  26.126   2.220
25475W        W89419  31.638  42.333   4.297
25476W        W89420   4.222  42.922   1.847
25477W        W89421  36.358  25.669  10.628
25478W        W89422  26.960  30.056  11.521
25479W        W89423  14.615  11.186   3.190
25480W        W89424  23.503  22.014   4.757
25481W        W89425  32.599  32.899  11.551
25482W        W89426   2.921   7.242  14.275
25483W        W89427   2.327  43.979   4.771
25484W        W89428  27.034  10.826   2.673
25485W        W89429  18.597  32.904  13.307
25486W        W89430  39.511   9.818   0.930
25487W        W89431   8.357  39.441  12.078
25488W        W89432  18.670  14.115  11.585
25489W        W89433   7.391  37.435   3.854
25490W        W89434  32.519  33.412  10.578
25491W        W89435   9.812  35.926  13.321
25492W        W89436  44.433   3.809   2.701
25493W        W89437  15.711  19.117  14.759
25494W        W89438  26.120  16.586  14.294
25495W        W89439  23.164   8.191   4.332
25496W        W89440  27.073  16.165  13.503
25497W        W89441  25.084  29.452   5.108
25498W        W89442   7.268  31.577  10.489
25499W        W89443  29.966  36.563   2.692
25500W        W89444  36.371  35.907   4.291
25501W        W89445   0.340  40.335  10.920
25502W        W89446  37.962   2.452   0.292
25503W        W89447   9.782   8.189   1.746
25504W        W89448  21.695   0.294   2.867
25505W        W89449  16.169  33.478  13.529
25506W        W89450  34.550   0.850  13.794
25507W        W89451   7.838   3.836   4.321
25508W        W89452  23.121  30.031   4.829
25509W        W89453  24.024  30.426  11.505
25510W        W89454  20.712  27.521   0.336
25511W        W89455  12.826  33.547   3.169
25512W        W89456  37.867   3.781  12.850
25513W        W89457  36.074  17.281  12.887
25514W        W89458  34.898  10.668  13.314
25515W        W89459  17.608  31.071   0.461
25516W        W89460  42.311  44.293  12.893
25517W        W89461  31.427   9.344  14.996
25518W        W89462  19.165  38.345  14.770
25519W        W89463  39.322  40.839   0.372
25520W        W89464  31.953  18.734   0.351
25521W        W89465  12.647  38.975   4.743
25522W        W89466  16.102  41.965   4.707
25523W        W89467  11.219  23.133  14.958
25524W        W89468   2.942   9.180  11.897
25525W        W89469   4.836  43.430  14.832
25526W        W89470   3.285  12.705  10.533
25527W        W89471  32.627  16.598   1.817
25528W        W89472  29.650  23.180  11.985
25529W        W89473   9.838  32.489  11.107
25530W        W89474   3.395  16.639   1.860
25531W        W89475  15.234  10.638   2.839
25532W        W89476  38.065  17.696   1.847
25533W        W89477  32.452  19.085  14.972
25534W        W89478  20.076  25.542   4.832
25535W        W89479  19.642   7.891  13.528
25536W        W89480  10.317  23.138  11.023
25537W        W89481  26.606   0.833  13.905
25538W        W89482  22.054  32.408  11.079
25539W        W89483  31.076  33.009  13.914
25540W        W89484  30.428  36.521   2.776
25541W        W89485  26.093  32.907   0.758
25542W        W89486  14.175  13.350   5.314
25543W        W89487  22.568  25.708  11.883
25544W        W89488   0.756  23.640   0.483
25545W        W89489  31.019  16.675   0.464
25546W        W89490   6.422  30.436   2.413
25547W        W89491   7.841   4.241   4.727
25548W        W89492  35.040  23.126   3.854
25549W        W89493  23.210  23.727  11.536
25550W        W89494  30.432  20.621   1.836
25551W        W89495  29.007  12.287   3.202
25552W        W89496  33.056  19.285   4.291
25553W        W89497  13.780   2.836   3.384
25554W        W89498   4.433   2.268   4.237
25555W        W89499  31.981  10.294   1.921
25556W        W89500  26.028  38.026   4.331
25557W        W89501  18.064  10.791  13.545
25558W        W89502  14.774  37.577  11.914
25559W        W89503  30.026  14.226   1.731
25560W        W89504  14.756  12.283   0.746
25561W        W89505  19.273  11.797   2.710
25562W        W89506  22.551  27.584  12.066
25563W        W89507  10.153  32.967   4.153
25564W        W89508  41.463  14.794   1.297
25565W        W89509  10.836   9.873  13.400
25566W        W89510   3.914  39.897   1.245
25567W        W89511  10.853   3.903   4.726
25568W        W89512  30.141  43.387   4.161
25569W        W89513  40.493  29.434   1.778
25570W        W89514  21.108  22.554  10.620
25571W        W89515  23.156  12.772  14.444
25572W        W89516  23.043   4.438   4.295
25573W        W89517  12.163   9.776   0.406
25574W        W89518  17.077  43.347   4.226
25575W        W89519  34.437  14.677   4.609
25576W        W89520  19.655  36.585   5.115
25577W        W89521  24.680  37.073  11.015
25578W        W89522  21.750  32.037  11.090
25579W        W89523  18.203  31.640  13.507
25580W        W89524  11.671  37.392  13.835
25581W        W89525  31.031  11.862   0.854
25582W        W89526  13.157  41.856  13.360
25583W        W89527  13.756  30.983   2.763
25584W        W89528  34.087  35.393   2.347
25585W        W89529  40.926  35.516   1.430
25586W        W89530  14.608  25.475   3.810
25587W        W89531  17.188  35.359  14.821
25588W        W89532  18.790  37.928  13.980
25589W        W89533  42.977  43.457  12.418
25590W        W89534  30.969  36.993  14.285
25591W        W89535   6.787  11.675  12.405
25592W        W89536  30.658  33.037   1.843
25593W        W89537  34.469  41.792  13.916
25594W        W89538  15.220  44.868   0.333
25595W        W89539  12.722  15.153  14.476
25596W        W89540   9.281  34.534   0.392
25597W        W89541  21.122  17.645  14.319
25598W        W89542  29.933  25.598   3.801
25599W        W89543  14.184  37.843  12.425
25600W        W89544  32.513  31.602  11.392
25601W        W89545   7.751  32.069  10.963
25602W        W89546  32.974  29.658   0.449
25603W        W89547  44.794  31.109   2.768
25604W        W89548  37.046  17.174  12.045
25605W        W89549  16.178   1.238  10.469
25606W        W89550   4.734  11.658   4.257
25607W        W89551   0.458  14.730   2.826
25608W        W89552  15.718  17.800   4.742
25609W        W89553   7.289  35.909  14.354
25610W        W89554  38.385   2.806   9.578
25611W        W89555  20.088  14.801  10.571
25612W        W89556   7.883  34.870  10.644
25613W        W89557   5.294  38.882  12.033
25614W        W89558  19.636  44.983   3.192
25615W        W89559  22.739  25.211  12.948
25616W        W89560  28.019   2.720  13.027
25617W        W89561  28.582  20.769  11.433
25618W        W89562  30.585  32.465  12.959
25619W        W89563  19.219  42.027   4.307
25620W        W89564   8.182   5.258  12.037
25621W        W89565  10.664  36.374   1.784
25622W        W89566  20.264  25.478   2.799
25623W        W89567  35.587  28.042   1.882
25624W        W89568  29.646  17.731  12.430
25625W        W89569   0.287  20.607  12.508
25626W        W89570  11.164  21.684  11.400
25627W        W89571   9.860   1.395  12.065
25628W        W89572   6.758  32.548  10.405
25629W        W89573  39.823  29.584  12.903
25630W        W89574  27.982  14.793  14.358
25631W        W89575   4.290  34.033   0.340
25632W        W89576  13.203  31.955   3.190
25633W        W89577  39.540  15.153   3.673
25634W        W89578  34.873  29.119   4.744
25635W        W89579  44.261  41.474   2.205
25636W        W89580  38.505   7.374   3.665
25637W        W89581  20.732  23.602   5.272
25638W        W89582  32.905  18.133   4.801
25639W        W89583  16.230  22.741   4.797
25640W        W89584  10.310   7.325  10.436
25641W        W89585  26.182  31.142  11.474
25642W        W89586  36.927   4.225  11.072
25643W        W89587  25.077  28.485   4.764
25644W        W89588  13.686  39.890   0.395
25645W        W89589   7.354  12.203   2.317
25646W        W89590  36.954   5.824  13.447
25647W        W89591  31.967   8.790  14.292
25648W        W89592  17.222   5.834  12.383
25649W        W89593  34.097  39.556   2.419
25650W        W89594  22.624   5.209   0.386
25651W        W89595  38.982  33.961  10.935
25652W        W89596  16.093  24.118   2.820
25653W        W89597  13.652  28.601  13.517
25654W        W89598   5.689  15.117   2.343
25655W        W89599   9.386  28.106  13.396
25656W        W89600  10.217   7.252   3.712
25657W        W89601  18.054  31.599   4.827
25658W        W89602  14.235  34.938  14.851
25659W        W89603  15.167  34.496  11.527
25660W        W89604  13.109  28.627   1.211
25661W        W89605  44.791  39.956  13.927
25662W        W89606   3.732  29.172   1.925
25663W        W89607   0.489  40.371   0.482
25664W        W89608   5.881  25.067  11.083
25665W        W89609  28.525  11.830  11.860
25666W        W89610  44.788   6.828   3.724
25667W        W89611  24.514   2.392  12.864
25668W        W89612  39.925   6.828   4.352
25669W        W89613  28.665  27.025  13.311
25670W        W89614  41.335  29.155   2.798
25671W        W89615  25.513  25.578   4.120
25672W        W89616  43.339  18.212   2.780
25673W        W89617   7.686  11.164  11.915
25674W        W89618  39.926  11.217   0.466
25675W        W89619  23.490  16.717  10.445
25676W        W89620  23.117  33.611  13.481
25677W        W89621  40.360  11.208   3.829
25678W        W89622   0.457   7.172  14.305
25679W        W89623   6.279   2.729  14.882
25680W        W89624  12.195  35.475  12.376
25681W        W89625  35.049  36.376  11.498
25682W        W89626  42.884  41.361  13.475
25683W        W89627  37.891  14.149   2.312
25684W        W89628  24.673  23.690  13.996
25685W        W89629  39.979   8.382   0.376
25686W        W89630  41.912  36.941  11.449
25687W        W89631  12.790  44.349  12.563
25688W        W89632  41.858  23.083  14.856
25689W        W89633  32.456  35.573  14.799
25690W        W89634  35.387  33.917  10.645
25691W        W89635  41.015  10.147  14.941
25692W        W89636  40.418   8.686  10.113
25693W        W89637  44.295  35.590   4.309
25694W        W89638  44.492  11.781   5.252
25695W        W89639  38.372  43.893   2.394
25696W        W89640   7.840  15.211   4.147
25697W        W89641  35.003  17.177  14.314
25698W        W89642  38.515   6.398   3.259
25699W        W89643  11.314  20.764  12.974
25700W        W89644  21.585  35.015   2.289
25701W        W89645  22.665  37.083   3.817
25702W        W89646  17.726   3.835   2.873
25703W        W89647  32.621   0.251  11.859
25704W        W89648   4.900  13.722   1.806
25705W        W89649   1.924   4.765   1.838
25706W        W89650  11.268  43.912   0.865
25707W        W89651   3.456  37.440  10.999
25708W        W89652  15.795  22.177  10.012
25709W        W89653  18.741  43.815   2.800
25710W        W89654  29.602  27.561  13.488
25711W        W89655  25.191  12.755   1.800
25712W        W89656  42.811  23.648  12.410
25713W        W89657   5.274  28.647   0.444
25714W        W89658  27.135  20.690   4.792
25715W        W89659   1.460  17.223  12.471
25716W        W89660   8.377   7.366   3.360
25717W        W89661  11.201  29.664  12.989
25718W        W89662   2.391   2.415   3.815
25719W        W89663  38.887  20.572  12.468
25720W        W89664   8.689  23.168   4.640
25721W        W89665  34.408  21.187  11.034
25722W        W89666  20.705  44.822   3.687
25723W        W89667  12.623  31.073  10.444
25724W        W89668  44.763  44.278   3.324
25725W        W89669   0.988  19.163  11.517
25726W        W89670   7.853  29.944   2.304
25727W        W89671  14.725  18.214   3.788
25728W        W89672  28.451  35.520   0.460
25729W        W89673   6.188  30.097   4.266
25730W        W89674   8.242  41.304   4.259
25731W        W89675   3.794  15.612   1.382
25732W        W89676  20.253  36.561   3.688
25733W        W89677  21.729  12.147   4.121
25734W        W89678   8.775   4.866  12.888
25735W        W89679  12.257   4.829  12.413
25736W        W89680  24.213   8.721   3.634
25737W        W89681  11.774  13.212  10.602
25738W        W89682  33.484  35.538  11.445
25739W        W89683  11.863  11.752   0.481
25740W        W89684   1.373  29.003   1.899
25741W        W89685  30.983  25.571  12.341
25742W        W89686  33.027  44.971   2.361
25743W        W89687  11.358   6.197  10.563
25744W        W89688  18.746  41.387   2.186
25745W        W89689  44.389  16.650   0.387
25746W        W89690  25.969  18.268   2.899
25747W        W89691  32.076  11.743  10.504
25748W        W89692  18.152  10.860  13.021
25749W        W89693   4.258   8.892   5.085
25750W        W89694  35.406   4.396  12.986
25751W        W89695  43.384   6.769  14.323
25752W        W89696  32.984  16.238   1.882
25753W        W89697  21.194  25.074  14.875
25754W        W89698  35.086  13.727   2.371
25755W        W89699  42.418  11.370   3.786
25756W        W89700  30.121  22.706   0.337
25757W        W89701   7.265  41.864  11.493
25758W        W89702  21.165   7.882   4.740
25759W        W89703  34.086  42.492   1.701
25760W        W89704   6.694  36.572   3.722
25761W        W89705  41.439  35.008   1.257
25762W        W89706  42.778  23.726   0.279
25763W        W89707  14.251  28.668  12.401
25764W        W89708  23.512  40.810   4.241
25765W        W89709  12.169  26.658  11.878
25766W        W89710  21.259   3.323   1.285
25767W        W89711  42.904  25.558  14.350
25768W        W89712  20.681  12.299   4.278
25769W        W89713  37.969  13.670  13.461
25770W        W89714  33.926   1.389  12.514
25771W        W89715  32.491  10.186   2.353
25772W        W89716  31.510   2.464   1.814
25773W        W89717  10.697  30.529  12.074
25774W        W89718  41.876   4.878  11.909
25775W        W89719   7.195  14.796  10.008
25776W        W89720  23.013   8.234  10.931
25777W        W89721  11.806  19.547  14.432
25778W        W89722  10.205  14.779   4.768
25779W        W89723  15.300  19.643   3.329
25780W        W89724  44.299  10.655   0.262
25781W        W89725  14.314  40.364   3.686
25782W        W89726  41.511  24.140  14.001
25783W        W89727  34.965   8.278   0.287
25784W        W89728  26.621  11.836   3.200
25785W        W89729  30.046  19.667   3.156
25786W        W89730   5.368  44.985  14.300
25787W        W89731   7.228  14.714   2.300
25788W        W89732   4.319   9.763   4.132
25789W        W89733  42.846  30.420   4.127
25790W        W89734  30.951  18.091  11.420
25791W        W89735  21.736  41.498  14.451
25792W        W89736   7.175   4.832  14.476
25793W        W89737  10.360  32.090  11.864
25794W        W89738  13.620  14.318  14.960
25795W        W89739  18.669   0.272   0.890
25796W        W89740  44.421  35.016   2.241
25797W        W89741  35.916  28.456   3.793
25798W        W89742  29.017  20.220  10.458
25799W        W89743  15.143  32.403   2.883
25800W        W89744  17.160   5.364   0.475
25801W        W89745  15.240  42.829  10.566
25802W        W89746   9.729  30.643  12.989
25803W        W89747  41.359  37.997  13.041
25804W        W89748  13.277  17.606   4.794
25805W        W89749  33.023   5.842   1.720
25806W        W89750  40.008  25.011   2.729
25807W        W89751  26.479  17.276  13.353
25808W        W89752   4.317   1.458  14.288
25809W        W89753  41.884  35.882  11.516
25810W        W89754  36.027  44.966   2.209
25811W        W89755  33.440  17.249  13.875
25812W        W89756  14.183  14.263  11.435
25813W        W89757  13.625  31.965   1.923
25814W        W89758  17.291  28.582   4.158
25815W        W89759   6.319   6.877   2.763
25816W        W89760  27.103  42.815   2.186
25817W        W89761   5.203  35.384   2.324
25818W        W89762  40.475  10.809  11.422
25819W        W89763   9.180   3.393   2.308
25820W        W89764  27.634  22.571   2.273
25821W        W89765  30.464   2.336   5.228
25822W        W89766  42.811   3.951  11.033
25823W        W89767  43.001  31.581  14.324
25824W        W89768   2.936  40.438   4.785
25825W        W89769  15.656  22.602   0.822
25826W        W89770  19.762   5.333   1.802
25827W        W89771  17.174   8.744   0.366
25828W        W89772   6.712   1.823   1.701
25829W        W89773  44.762  13.645   3.714
25830W        W89774  16.166  26.564  11.946
25831W        W89775  32.603  44.370   3.152
25832W        W89776  18.151  30.519  12.847
25833W        W89777   4.789  21.632   3.756
25834W        W89778  40.039  38.854  13.942
25835W        W89779  41.430  35.062  14.287
25836W        W89780  20.747  13.608  12.830
25837W        W89781  28.495  15.314   1.738
25838W        W89782   4.721  27.534  13.472
25839W        W89783  17.750  40.973   4.301
25840W        W89784  24.691  28.002   0.777
25841W        W89785   1.973  30.992   4.698
25842W        W89786  14.192  42.466   0.379
25843W        W89787   3.804  31.600  13.390
25844W        W89788  41.494  25.684   2.403
25845W        W89789   4.295  37.478  12.578
25846W        W89790   5.826  35.393   3.810
25847W        W89791  32.427  33.460  11.432
25848W        W89792  19.147  29.020  14.975
25849W        W89793   0.410  12.331   4.172
25850W        W89794  20.090  30.073  14.912
25851W        W89795  40.812  17.557  14.890
25852W        W89796  41.441   1.242  10.907
25853W        W89797   5.291   8.888   3.372
25854W        W89798   3.461   2.411  10.999
25855W        W89799  23.572   3.323   3.236
25856W        W89800  26.619   5.913   4.816
25857W        W89801  39.978  11.225  11.978
25858W        W89802  30.987  27.640  12.444
25859W        W89803   3.783  42.321  11.038
25860W        W89804  33.399   1.791  13.935
25861W        W89805   2.901  43.291  11.578
25862W        W89806  24.063  18.704  11.372
25863W        W89807  13.622  38.517   0.779
25864W        W89808  14.789   3.750   4.640
25865W        W89809   1.811  36.521  14.993
25866W        W89810  18.599   3.243  13.340
25867W        W89811  26.133   4.292  14.802
25868W        W89812  37.073  28.036  11.395
25869W        W89813  23.176   6.916   4.812
25870W        W89814  41.881  16.620  10.624
25871W        W89815  39.864  20.602   2.271
25872W        W89816  43.348  43.837   2.235
25873W        W89817  38.521   7.869   4.254
25874W        W89818  38.950   3.893  11.407
25875W        W89819   0.488  16.122   4.309
25876W        W89820  14.821  29.610  14.309
25877W        W89821  13.145  10.283   3.163
25878W        W89822   4.236  36.052  13.410
25879W        W89823  17.302  23.217   2.328
25880W        W89824   5.231  15.706   3.161
25881W        W89825   2.723  31.524  14.366
25882W        W89826  23.628  19.554   1.450
25883W        W89827   0.291   0.355   0.483
25884W        W89828  35.524  38.049   1.831
25885W        W89829  20.670  11.774  10.486
25886W        W89830  11.665   6.707  12.498
25887W        W89831  31.616  15.087   4.191
25888W        W89832  40.909  20.621   4.785
25889W        W89833   8.342   8.720  12.416
25890W        W89834  21.038  28.089  10.551
25891W        W89835  39.340   4.744  14.863
25892W        W89836  25.577  30.136  11.402
25893W        W89837   5.901   6.798  14.758
25894W        W89838   7.901  28.936   0.380
25895W        W89839  11.677   5.380  14.315
25896W        W89840   1.923  38.509   1.882
25897W        W89841  34.927   8.755  10.559
25898W        W89842  13.705  33.986   0.369
25899W        W89843  43.941  39.507   1.264
25900W        W89844   7.341  14.669  13.020
25901W        W89845  27.052  23.139  13.859
25902W        W89846  19.751  39.051  10.930
25903W        W89847   2.335  24.976   4.175
25904W        W89848  31.116   4.747   3.788
25905W        W89849  24.712  40.420   2.386
25906W        W89850   2.759  35.492   1.872
25907W        W89851  15.609  23.701  14.425
25908W        W89852  18.236  44.856   2.807
25909W        W89853  40.541   1.394  13.864
25910W        W89854   3.785  28.661  14.789
25911W        W89855  21.705  42.431  12.518
25912W        W89856  34.055  24.708   4.602
25913W        W89857  33.544  29.560  12.903
25914W        W89858  28.623  19.725   1.434
25915W        W89859   7.180   2.938   1.395
25916W        W89860  34.881  42.310   0.840
25917W        W89861  22.159  24.195  12.901
25918W        W89862  31.143  22.638  12.895
25919W        W89863   1.732   2.957   3.282
25920W        W89864  35.561  31.445  12.025
25921W        W89865  15.595  28.993  12.016
25922W        W89866  38.060   7.726  11.570
25923W        W89867  26.605  18.768   0.890
25924W        W89868  18.589  26.993  13.505
25925W        W89869   7.410  16.277  14.437
25926W        W89870  42.394  13.789  13.366
25927W        W89871  25.642  14.216   5.285
25928W        W89872  39.381  22.566  14.780
25929W        W89873  24.629  20.075   4.808
25930W        W89874  24.544  10.218  10.513
25931W        W89875  36.467  16.732   0.258
25932W        W89876  13.113   8.786  14.982
25933W        W89877  37.448   7.775  14.780
25934W        W89878  37.515  13.796   3.863
25935W        W89879  31.147  42.371   1.828
25936W        W89880  12.675  16.084  11.945
25937W        W89881  34.514  37.456  11.058
25938W        W89882  27.647  24.559   2.327
25939W        W89883  23.515   5.329  13.976
25940W        W89884  33.887  35.376  12.369
25941W        W89885   5.697  18.615  11.074
25942W        W89886  33.096  37.372   1.218
25943W        W89887  38.022  26.062   0.430
25944W        W89888  18.292  27.116   2.324
25945W        W89889   4.392  33.877   2.757
25946W        W89890   2.751   5.352  11.071
25947W        W89891  17.098   1.346   3.845
25948W        W89892   9.873  31.042  13.851
25949W        W89893  10.803  24.549  10.944
25950W        W89894  15.821  13.760  10.954
25951W        W89895   9.178  10.307   0.791
25952W        W89896   3.757  23.162   0.342
25953W        W89897  30.023  44.947  12.005
25954W        W89898   9.244  13.182   4.282
25955W        W89899  27.172  14.705   3.748
25956W        W89900   9.231  32.971  12.971
25957W        W89901   2.844  36.363   0.785
25958W        W89902   1.955  41.839  12.971
25959W        W89903  35.363  35.359   1.921
25960W        W89904  39.518  14.311   0.820
25961W        W89905  36.467  44.757  13.910
25962W        W89906  25.544   0.379  12.532
25963W        W89907   1.422  10.829   3.660
25964W        W89908  22.095  24.598  14.828
25965W        W89909  20.038  10.795  11.071
25966W        W89910  44.916  43.811  11.535
25967W        W89911  13.698  39.055   4.794
25968W        W89912  33.093   7.860  11.963
25969W        W89913  12.746  35.019   1.826
25970W        W89914   6.788  13.123  13.337
25971W        W89915  34.963  27.090  10.539
25972W        W89916  37.895  13.139   4.713
25973W        W89917   5.390   2.469   2.805
25974W        W89918  22.580   3.424   4.713
25975W        W89919  44.846  41.879   1.749
25976W        W89920  16.168  22.057  11.374
25977W        W89921  42.000  43.782   3.865
25978W        W89922  14.606  33.442   0.848
25979W        W89923   7.181  32.598  10.560
25980W        W89924  28.455  17.155  11.902
25981W        W89925  42.785  12.117  14.310
25982W        W89926  15.161  26.000  13.810
25983W        W89927  38.903  34.954   4.342
25984W        W89928   7.372  22.208   2.820
25985W        W89929  23.216  19.155   1.836
25986W        W89930  24.074  10.743   3.793
25987W        W89931  17.735  35.870   4.738
25988W        W89932   4.317  26.526   3.237
25989W        W89933  10.237  39.553   2.247
25990W        W89934  44.924  24.716   0.792
25991W        W89935  21.667  13.272   1.915
25992W        W89936  10.238  12.818  11.891
25993W        W89937  43.349  38.510   2.204
25994W        W89938   0.408  22.507  13.462
25995W        W89939   4.912  23.614   4.169
25996W        W89940   2.820  22.549  12.074
25997W        W89941  28.592   1.952   4.718
25998W        W89942  12.760  17.602  13.834
25999W        W89943   5.348  34.539   4.644
26000W        W89944  15.099  16.210  14.341
26001W        W89945  17.788  32.120   4.297
26002W        W89946  12.130  36.440  11.416
26003W        W89947  30.519  42.491  10.978
26004W        W89948  35.984  31.965  13.952
26005W        W89949   0.277  41.381   2.292
26006W        W89950  29.967   9.287  13.339
26007W        W89951   4.864  14.330  14.942
26008W        W89952  14.307  37.970   1.253
26009W        W89953  28.558   9.785  14.762
26010W        W89954   4.917  12.325   1.725
26011W        W89955  42.958  29.658  12.496
26012W        W89956  39.394   4.821  12.898
26013W        W89957  13.835  12.193  14.980
26014W        W89958  18.695   4.407   0.789
26015W        W89959  13.604  31.044  14.954
26016W        W89960  44.931  26.150   0.304
26017W        W89961  37.026  24.716   2.400
26018W        W89962   0.986  34.898   0.354
26019W        W89963  17.222   4.424  11.385
26020W        W89964  36.021  26.525  12.084
26021W        W89965  40.429  32.496  10.510
26022W        W89966   0.794  31.435   1.865
26023W        W89967  36.894  40.951  12.935
26024W        W89968   7.339  21.708  14.485
26025W        W89969  44.953  33.959  13.432
26026W        W89970  29.937  41.964   2.803
26027W        W89971  38.021   8.244   4.733
26028W        W89972  24.020  37.443  11.891
26029W        W89973   7.408  43.363   3.657
26030W        W89974  22.517  36.903  10.485
26031W        W89975  24.533  15.603   2.874
26032W        W89976  16.589  42.007   3.282
26033W        W89977  12.796  31.529  12.092
26034W        W89978  25.192  38.894  12.530
26035W        W89979  32.437  30.586  11.492
26036W        W89980  25.493   1.237  12.060
26037W        W89981   5.412  22.730   4.680
26038W        W89982  29.623  24.549   4.158
26039W        W89983   3.289  23.656   1.279
26040W        W89984  25.154   9.675  13.473
26041W        W89985  21.639  42.986   4.821
26042W        W89986  33.511  40.446   1.221
26043W        W89987  42.956  19.148  12.903
26044W        W89988  25.147   5.844  13.981
26045W        W89989  40.845  32.498  12.445
26046W        W89990  41.302   7.227   4.115
26047W        W89991  12.658  44.861   4.735
26048W        W89992  36.882  32.590   4.730
26049W        W89993   7.187  39.487  12.050
26050W        W89994  38.946  20.101  11.049
26051W        W89995  33.434  38.412   0.320
26052W        W89996  17.725  25.503  14.856
26053W        W89997  25.122  36.427  14.505
26054W        W89998  27.943  41.376   5.181
26055W        W89999  19.652  24.598   3.356
26056W        W90000  24.725  13.625   4.648
26057W        W90001  15.215  30.412  12.873
26058W        W90002  10.797  22.701   2.193
26059W        W90003  27.608   8.344  12.505
26060W        W90004  43.404  16.206  11.437
26061W        W90005   5.328  29.117  12.577
26062W        W90006   7.782  26.518   3.282
26063W        W90007   5.880  24.600  14.819
26064W        W90008  43.500  18.233  11.963
26065W        W90009  23.653  32.393  12.079
26066W        W90010  19.582  35.862  14.761
26067W        W90011   0.946  21.742   1.703
26068W        W90012  12.683  21.626   3.316
26069W        W90013   9.266  17.266  11.107
26070W        W90014  12.119  18.265  11.102
26071W        W90015  24.001  14.739  14.407
26072W        W90016  12.666  44.372  10.564
26073W        W90017  23.136  43.307   0.948
26074W        W90018  41.932  19.180  14.976
26075W        W90019  23.000  32.901   4.833
26076W        W90020  17.281   5.326   5.255
26077W        W90021  15.824  14.819  14.758
26078W        W90022  21.587  44.264   4.635
26079W        W90023  26.663  35.484   1.744
26080W        W90024  37.887  39.461   0.903
26081W        W90025  22.168   2.755  11.400
26082W        W90026  12.820  20.548  14.343
26083W        W90027   3.375   8.748  11.590
26084W        W90028  30.559  12.797   2.665
26085W        W90029  14.636   8.682   3.176
26086W        W90030   2.734  32.994  11.378
26087W        W90031  10.790  14.205   2.670
26088W        W90032   1.325  40.473  12.389
26089W        W90033  13.151  24.107  12.357
26090W        W90034  40.458  34.378  14.440
26091W        W90035  21.639   3.743  12.010
26092W        W90036  20.088   8.282  13.542
26093W        W90037  15.127  31.551   4.207
26094W        W90038  29.566  44.337  14.362
26095W        W90039  21.186  32.090  12.363
26096W        W90040  23.156  16.090  10.974
26097W        W90041  28.106  10.178  12.578
26098W        W90042  13.745   5.290   0.830
26099W        W90043   1.477  20.654  12.862
26100W        W90044  39.008  24.028   4.716
26101W        W90045  19.611   5.242   0.320
26102W        W90046  37.001  36.078   3.350
26103W        W90047  11.854  16.233   1.331
26104W        W90048  39.409   5.862  14.990
26105W        W90049  38.962  29.062  13.335
26106W        W90050  37.346  22.643  14.389
26107W        W90051  35.898  38.345   0.788
26108W        W90052  22.504  16.789   0.727
26109W        W90053  24.588  26.652  10.477
26110W        W90054   3.397  40.890  14.994
26111W        W90055  22.606  44.446  11.409
26112W        W90056  32.473  44.988  14.312
26113W        W90057  37.555  19.637  12.480
26114W        W90058  19.100  35.100  11.494
26115W        W90059  36.389  23.635  13.956
26116W        W90060  43.400  40.524   2.199
26117W        W90061  44.887   9.709  10.514
26118W        W90062  29.658   2.877   2.328
26119W        W90063   1.775  44.367   4.647
26120W        W90064  40.014  16.732   0.845
26121W        W90065  27.067  10.163  13.047
26122W        W90066  43.275  27.076  11.461
26123W        W90067   9.743  31.619   1.380
26124W        W90068  41.905  33.471  12.851
26125W        W90069   2.360   6.197   4.235
26126W        W90070  29.538  17.575   1.905
26127W        W90071  10.274   5.375  11.403
26128W        W90072  33.470  30.098  11.038
26129W        W90073  24.147  22.241   4.200
26130W        W90074  32.940   6.248  14.025
26131W        W90075   9.352  21.558   4.187
26132W        W90076   9.327  37.382   4.767
26133W        W90077  22.620  43.413  12.461
26134W        W90078  33.924   6.745  13.945
26135W        W90079  24.525   7.674  14.807
26136W        W90080   4.332   4.864   4.195
26137W        W90081   1.917  19.234  12.407
26138W        W90082  13.160  26.534   2.662
26139W        W90083  42.798   6.915   3.757
26140W        W90084   3.395  43.382  11.477
26141W        W90085  18.231  34.454   0.366
26142W        W90086  26.472  39.863  11.504
26143W        W90087  35.530   7.880   2.718
26144W        W90088  38.919   0.968  14.465
26145W        W90089  32.071  25.150  12.564
26146W        W90090  27.542   8.819  11.520
26147W        W90091   8.862  29.007   4.149
26148W        W90092  27.093  33.570   1.732
26149W        W90093  10.215  44.783   0.261
26150W        W90094   2.382  28.478   1.260
26151W        W90095  41.384  41.304   3.258
26152W        W90096  36.073  24.494  14.511
26153W        W90097  18.568  17.727   2.321
26154W        W90098  21.704  19.208   1.826
26155W        W90099  16.301  42.908  13.820
26156W        W90100  40.321  21.702   0.920
26157W        W90101  22.571  34.487  14.372
26158W        W90102  34.369   7.375   3.220
26159W        W90103  39.032   6.198   2.250
26160W        W90104  39.382  30.487   0.930
26161W        W90105   0.473  30.953   4.290
26162W        W90106   7.866  37.001  11.599
26163W        W90107  40.907  39.485   3.209
26164W        W90108  39.064  25.638  12.976
26165W        W90109  37.035  11.258   2.750
26166W        W90110  13.818  26.052  12.520
26167W        W90111  13.694  18.631  13.498
26168W        W90112   7.254   2.828   0.867
26169W        W90113  24.595  17.674  12.844
26170W        W90114  18.058  33.461   2.836
26171W        W90115  29.445  26.970  13.949
26172W        W90116  44.829  16.136   2.386
26173W        W90117  22.665  28.655  12.379
26174W        W90118  14.205  27.674   4.755
26175W        W90119  12.297  35.451   0.953
26176W        W90120  15.240  18.220   3.195
26177W        W90121  44.814  30.435   3.230
26178W        W90122  19.179  25.542   2.344
26179W        W90123  23.069   2.302  12.087
26180W        W90124  10.199  25.126  13.847
26181W        W90125   8.836  31.926   4.228
26182W        W90126  26.092  12.190  13.417
26183W        W90127  15.233   1.771  12.997
26184W        W90128  25.643  36.991  13.002
26185W        W90129  20.221  12.717   2.235
26186W        W90130   3.869  38.494  14.467
26187W        W90131  35.442   3.228   1.251
26188W        W90132   1.824   1.965  11.611
26189W        W90133  24.211   3.945   0.888
26190W        W90134   0.808  13.670  10.145
26191W        W90135  43.860  38.380   0.454
26192W        W90136  15.747  15.805   0.880
26193W        W90137  41.836   3.811   2.681
26194W        W90138  10.667  12.690   0.480
26195W        W90139   3.927  37.965  10.566
26196W        W90140  38.857  23.684   5.257
26197W        W90141  38.869  13.778   0.327
26198W        W90142  39.499  28.508   4.754
26199W        W90143  22.031  23.732  14.821
26200W        W90144  34.544  21.073  13.001
26201W        W90145  15.116   9.185   1.222
26202W        W90146  25.596  40.038   9.997
26203W        W90147  12.145  31.572   4.631
26204W        W90148  10.163   6.865   2.417
26205W        W90149  37.862  32.469   3.860
26206W        W90150  31.522   1.255  10.909
26207W        W90151  30.547   1.250   4.628
26208W        W90152  39.400  13.619   4.196
26209W        W90153  38.072  33.943   0.910
26210W        W90154  30.461  28.179   1.707
26211W        W90155   3.378  36.076   1.302
26212W        W90156  42.005  35.017   2.728
26213W        W90157  33.931   8.767  13.470
26214W        W90158  38.885  20.055  13.834
26215W        W90159  15.284   2.940   2.793
26216W        W90160   3.773   3.227  13.064
26217W        W90161   5.384  18.739   1.428
26218W        W90162  44.307  22.530  10.952
26219W        W90163  13.330  34.610  12.507
26220W        W90164  20.738  36.862   2.773
26221W        W90165  37.462  18.057   1.444
26222W        W90166  16.276  38.011   2.693
26223W        W90167  33.893  20.267  10.423
26224W        W90168   5.367  14.216  11.418
26225W        W90169  40.993  26.535   0.465
26226W        W90170  12.667   5.868  13.434
26227W        W90171  19.552  18.711   3.636
26228W        W90172  35.989  36.456   1.348
26229W        W90173  23.988   2.907  12.425
26230W        W90174   6.891   2.373   2.285
26231W        W90175   2.311  43.940   1.328
26232W        W90176  14.640  21.161  10.533
26233W        W90177  21.736  10.654   1.344
26234W        W90178  35.861  23.592  13.431
26235W        W90179  14.751  27.472   2.230
26236W        W90180   0.866  12.332  13.453
26237W        W90181   8.186  32.043   0.765
26238W        W90182  23.993  27.057   3.335
26239W        W90183   1.344   8.265   3.820
26240W        W90184  30.001  23.187  10.902
26241W        W90185  14.719   9.343  10.056
26242W        W90186  32.469  14.693  12.485
26243W        W90187  43.423  34.596  12.030
26244W        W90188   8.396  17.589  14.401
26245W        W90189  30.047  24.512   4.154
26246W        W90190  41.801  42.846   0.759
26247W        W90191  37.368  40.852  11.872
26248W        W90192  13.791  37.446   4.217
26249W        W90193  38.850  30.158  13.803
26250W        W90194  38.897  32.480  11.951
26251W        W90195  33.104   3.718   0.960
26252W        W90196  16.599  41.364  14.413
26253W        W90197   8.655  28.179  12.034
26254W        W90198   8.675  12.212  14.018
26255W        W90199  13.705  39.949  14.789
26256W        W90200  28.974  17.740  12.346
26257W        W90201  17.713  40.507   4.814
26258W        W90202   8.404  43.402  14.799
26259W        W90203  12.145  36.085   2.239
26260W        W90204   0.750  40.389  11.876
26261W        W90205  39.316  21.146  13.339
26262W        W90206  17.270  37.447  13.354
26263W        W90207  31.505  22.691  10.493
26264W        W90208   5.728  42.897   4.820
26265W        W90209   5.784  39.880   0.368
26266W        W90210  27.082  43.281  10.576
26267W        W90211  40.911  34.962  13.376
26268W        W90212  35.876  13.205   1.934
26269W        W90213   0.281  36.967  12.448
26270W        W90214  14.726  23.718   9.945
26271W        W90215  42.431  18.091   4.670
26272W        W90216  38.567  42.784   4.784
26273W        W90217  21.565  41.359   0.257
26274W        W90218   8.375  19.729   4.239
26275W        W90219  31.041  38.510   2.233
26276W        W90220  23.025  40.998  10.603
26277W        W90221  26.131   7.187  14.292
26278W        W90222  35.074  40.899  13.049
26279W        W90223  23.732  33.401   2.694
26280W        W90224  35.558  16.795  14.835
26281W        W90225  31.515  19.547  13.874
26282W        W90226  40.014  14.183   1.266
26283W        W90227  21.581   3.374  14.460
26284W        W90228  20.701   9.833  10.425
26285W        W90229  31.149  12.736   1.926
26286W        W90230  28.043  37.040   4.732
26287W        W90231   3.795  13.762  13.531
26288W        W90232  43.954  43.439   0.809
26289W        W90233  30.936  41.970   1.430
26290W        W90234  41.042  13.755   1.701
26291W        W90235  38.045   4.226  14.360
26292W        W90236   4.774   8.835  12.972
26293W        W90237   5.859   1.761  12.018
26294W        W90238  14.249  32.101   4.753
26295W        W90239   0.407   9.393   5.599
26296W        W90240  10.155  36.078   0.307
26297W        W90241  23.119  26.640   0.464
26298W        W90242   4.301  27.492  12.558
26299W        W90243  41.425  19.260   1.872
26300W        W90244  26.083  16.612  12.428
26301W        W90245  30.105  37.427  10.060
26302W        W90246  30.047   2.317  13.961
26303W        W90247  20.554  32.065   3.685
26304W        W90248  37.036   5.289   2.813
26305W        W90249  40.038  44.998  11.096
26306W        W90250   3.337   4.834   1.874
26307W        W90251  11.316   1.782  13.028
26308W        W90252  16.804  40.406  14.430
26309W        W90253  33.125  37.498   3.788
26310W        W90254   4.833  37.373  12.841
26311W        W90255  17.157  15.760   3.375
26312W        W90256   2.842  21.256   1.803
26313W        W90257   0.299  17.661  13.923
26314W        W90258  37.340  23.502   2.664
26315W        W90259  27.672  17.126  12.826
26316W        W90260   6.701   6.801  14.950
26317W        W90261  25.018  37.837   1.707
26318W        W90262  34.579   8.271  12.500
26319W        W90263   4.390  22.092   4.686
26320W        W90264   2.904  44.798  14.891
26321W        W90265  20.622  11.802   4.837
26322W        W90266  10.280  27.687   2.355
26323W        W90267  12.187  36.421   2.219
26324W        W90268  13.668  33.027  11.399
26325W        W90269  39.885   8.167   4.194
26326W        W90270  44.330  26.130   3.728
26327W        W90271  41.872  39.009   0.740
26328W        W90272  11.629  21.549  11.896
26329W        W90273  43.787  25.096   4.153
26330W        W90274  19.711  12.677   1.793
26331W        W90275  44.494  41.824  11.931
26332W        W90276  42.444  34.080  12.505
26333W        W90277   8.773  39.454   1.213
26334W        W90278  20.235  38.862  13.475
26335W        W90279  10.852  42.928   3.353
26336W        W90280  10.141  15.786  13.405
26337W        W90281  11.176  28.005  14.793
26338W        W90282  22.190  26.551   2.406
26339W        W90283  37.413  38.560  12.368
26340W        W90284   0.833  11.630  13.869
26341W        W90285  15.607  25.567   0.264
26342W        W90286   8.396  19.197   0.925
26343W        W90287   1.960  26.494  13.964
26344W        W90288  21.591  32.102   2.261
26345W        W90289   3.329   8.329  11.025
26346W        W90290  11.629  30.578   2.785
26347W        W90291  29.113  11.357   0.463
26348W        W90292  12.180  33.067  10.983
26349W        W90293  12.623  22.571   5.117
26350W        W90294  26.974  31.426   2.335
26351W        W90295   9.298  40.871   0.432
26352W        W90296  40.396   8.180  14.320
26353W        W90297  14.274  15.229  10.030
26354W        W90298   7.832  15.310  13.411
26355W        W90299  36.515  10.238   1.220
26356W        W90300   1.875  29.555   2.337
26357W        W90301  25.006   9.762   1.829
26358W        W90302   1.430  24.136   1.917
26359W        W90303  17.061  10.167  14.855
26360W        W90304  25.082   9.280   3.169
26361W        W90305   0.833  25.638   1.848
26362W        W90306  39.924   2.882   2.731
26363W        W90307  38.903  24.021  12.500
26364W        W90308   0.887  41.908  14.374
26365W        W90309   1.946  25.590   4.298
26366W        W90310  13.629  28.057  14.009
26367W        W90311  35.069   8.210   1.824
26368W        W90312  27.586  29.501  11.601
26369W        W90313  13.176  22.168  13.423
26370W        W90314  43.410   2.320   4.131
26371W        W90315  27.988   3.352  10.623
26372W        W90316   7.697  31.575   0.886
26373W        W90317  20.252  44.374  11.099
26374W        W90318   2.943  32.586   4.237
26375W        W90319  29.927  30.581   2.834
26376W        W90320  39.852  32.531   3.813
26377W        W90321  18.629  42.301   2.294
26378W        W90322   9.294  43.333   3.217
26379W        W90323  44.381  30.083  12.976
26380W        W90324  17.600  19.234   3.864
26381W        W90325  39.988  31.073  12.835
26382W        W90326   7.716  27.454   0.901
26383W        W90327  26.205  42.288   9.472
26384W        W90328   5.765  23.025  11.397
26385W        W90329  13.608   5.784   0.309
26386W        W90330  29.977  11.829   2.778
26387W        W90331  44.397  11.163  10.930
26388W        W90332  31.454   3.452  13.420
26389W        W90333  37.963   7.287   4.310
26390W        W90334   2.227  17.735   1.738
26391W        W90335  14.826  22.178  13.511
26392W        W90336  17.736   0.826  14.933
26393W        W90337  18.724  24.499   4.248
26394W        W90338   8.741  27.088  11.491
26395W        W90339   4.877  13.271   9.976
26396W        W90340   7.760  14.635  12.533
26397W        W90341  41.960  23.040   2.335
26398W        W90342  40.516  39.870   2.300
26399W        W90343  44.285  15.651   0.386
26400W        W90344  44.911   1.846   1.833
26401W        W90345  11.366   5.824   0.786
26402W        W90346  14.143   4.742  12.468
26403W        W90347  33.907  36.429   1.388
26404W        W90348   8.737  23.649  10.947
26405W        W90349  19.066  26.541   4.209
26406W        W90350  21.662  38.340  10.484
26407W        W90351  31.993  25.153   1.417
26408W        W90352  21.201  42.428   3.212
26409W        W90353  12.756   5.763   2.313
26410W        W90354   4.205  41.990   4.638
26411W        W90355  31.142  19.089  14.927
26412W        W90356  37.506  44.429  12.997
26413W        W90357  19.196  10.270  11.892
26414W        W90358  28.020  31.987   3.230
26415W        W90359  21.746  36.496  13.027
26416W        W90360   1.295  20.768   0.429
26417W        W90361  23.231  39.019   2.292
26418W        W90362   9.360   5.887   1.695
26419W        W90363  33.469  21.620  14.467
26420W        W90364  24.505  37.957   3.154
26421W        W90365  33.525  39.842   2.271
26422W        W90366   5.383  43.269   4.320
26423W        W90367  28.613  26.588   4.726
26424W        W90368  25.974  33.994   3.384
26425W        W90369  43.777  14.219   4.281
26426W        W90370  11.239   3.846   5.086
26427W        W90371  43.890  35.903  12.548
26428W        W90372   8.890   5.850   1.437
26429W        W90373  43.788  11.165  14.508
26430W        W90374  22.193  20.100  14.377
26431W        W90375  17.273  31.631   2.765
26432W        W90376   5.247  20.665  11.611
26433W        W90377  28.006  14.295   4.268
26434W        W90378  36.578  16.647   3.848
26435W        W90379  35.523  17.753   2.777
26436W        W90380  22.170  22.174   3.679
26437W        W90381   1.784  28.488  11.981
26438W        W90382  27.613  34.094  14.872
26439W        W90383  27.970  33.435   2.247
26440W        W90384  24.123  23.719  14.945
26441W        W90385   8.210  10.337  12.510
26442W        W90386  12.138  24.488  10.565
26443W        W90387  28.990   4.871  12.356
26444W        W90388  23.121  18.166  12.899
26445W        W90389   5.790   3.277   1.301
26446W        W90390  16.285  24.628  10.993
26447W        W90391  24.615  27.996   3.667
26448W        W90392  31.953  21.596   4.822
26449W        W90393   2.296  17.739  14.392
26450W        W90394  26.205  31.962  13.360
26451W        W90395  38.443   5.932  14.779
26452W        W90396   8.849  30.455  10.957
26453W        W90397  39.538  38.537   3.725
26454W        W90398  36.953  33.923   3.247
26455W        W90399   9.753  31.908   2.347
26456W        W90400   3.409  22.225  12.054
26457W        W90401  41.523   7.858  13.825
26458W        W90402  18.057  42.915  10.900
26459W        W90403  10.866  11.261  14.874
26460W        W90404  35.001  19.728   2.796
26461W        W90405  39.808  43.408  11.383
26462W        W90406  15.099  19.081   2.757
26463W        W90407  24.704  28.593  14.302
26464W        W90408  10.190  12.624   0.868
26465W        W90409  31.140  22.117  13.970
26466W        W90410  34.591  19.174  11.123
26467W        W90411  33.016  23.071  14.401
26468W        W90412  44.893  23.145  11.378
26469W        W90413  32.965  32.927   2.872
26470W        W90414   3.451  11.135  10.493
26471W        W90415  14.162  38.972  12.071
26472W        W90416  42.807  23.058  14.345
26473W        W90417  16.099  44.806   2.674
26474W        W90418  43.836  28.152  10.631
26475W        W90419  35.434  39.512   2.878
26476W        W90420  11.209  28.154   2.418
26477W        W90421  14.701  34.372   2.332
26478W        W90422  18.232  22.200  10.113
26479W        W90423  25.985   7.379   2.258
26480W        W90424  40.807  40.463  13.960
26481W        W90425   8.406  14.335   5.093
26482W        W90426  13.833  35.033  11.445
26483W        W90427  24.171  18.626  14.809
26484W        W90428  37.532  14.783  13.316
26485W        W90429  34.547  14.252  13.799
26486W        W90430   0.472   3.441   1.820
26487W        W90431  40.888  27.514   4.734
26488W        W90432  37.892  43.788   0.761
26489W        W90433   6.401  30.036  13.822
26490W        W90434   4.289  29.595  14.890
26491W        W90435  26.151  34.514  14.002
26492W        W90436   3.740  28.023  11.068
26493W        W90437  29.614  32.142  12.988
26494W        W90438  36.435  42.515  14.011
26495W        W90439  27.493  25.996   2.313
26496W        W90440  21.085  30.147  11.968
26497W        W90441   7.344   8.392  11.983
26498W        W90442  18.276  17.243   0.759
26499W        W90443  44.955  29.491  11.937
26500W        W90444  16.171  43.490  13.021
26501W        W90445  32.098  20.577   0.953
26502W        W90446  43.938  38.496   0.854
26503W        W90447  21.753  24.180  13.989
26504W        W90448  19.642  12.326  10.452
26505W        W90449  16.657   1.744   2.340
26506W        W90450  12.273   6.801  13.958
26507W        W90451   8.181  43.826   0.730
26508W        W90452  34.108  26.093  11.549
26509W        W90453  29.953   6.319  11.587
26510W        W90454  39.377  18.641   3.833
26511W        W90455  19.751  42.391   1.880
26512W        W90456  36.523  40.965  13.504
26513W        W90457  18.120  10.181  10.452
26514W        W90458  27.999   7.372  13.846
26515W        W90459   5.416  35.493   1.439
26516W        W90460  15.769  20.739   2.882
26517W        W90461   2.853  36.517   0.402
26518W        W90462  44.401  27.943   2.220
26519W        W90463  18.585  41.449   1.709
26520W        W90464   7.173  30.599   3.370
26521W        W90465  39.965   2.284  14.928
26522W        W90466  23.233  28.467  14.941
26523W        W90467  42.878   5.862   4.708
26524W        W90468  25.599  21.734   3.701
26525W        W90469   6.705  21.703   2.305
26526W        W90470  24.056   3.277   2.342
26527W        W90471   0.868  42.328   2.323
26528W        W90472  44.409   4.822  14.827
26529W        W90473  25.110  18.627  13.455
26530W        W90474  41.531  11.711  11.451
26531W        W90475  35.532  37.512  11.871
26532W        W90476  43.956  16.218   1.739
26533W        W90477  31.920  26.105   3.275
26534W        W90478  43.443  34.886  12.975
26535W        W90479  31.648  39.555  11.379
26536W        W90480   4.942  34.956  14.288
26537W        W90481  22.643  40.409   4.305
26538W        W90482  34.573   3.333   1.918
26539W        W90483   6.301   9.748  14.960
26540W        W90484  42.326   4.699   1.864
26541W        W90485   9.679  24.149  12.407
26542W        W90486  15.644  24.514  14.501
26543W        W90487  19.746  39.934  13.046
26544W        W90488  27.084  41.014   2.324
26545W        W90489  32.568  40.485  14.295
26546W        W90490  20.086  25.525   0.926
26547W        W90491  37.486  40.428  12.403
26548W        W90492  36.489  21.034  10.025
26549W        W90493  42.913  24.659  11.986
26550W        W90494  21.168  20.045  12.046
26551W        W90495  42.979  34.899   3.831
26552W        W90496   0.747  34.565   3.326
26553W        W90497  44.875  40.493  11.894
26554W        W90498   1.329  30.627  13.390
26555W        W90499  15.245  30.592   2.793
26556W        W90500  31.628  44.894  10.612
26557W        W90501  27.014  20.719   2.188
26558W        W90502  14.775  44.372  10.149
26559W        W90503  33.101  28.989   4.833
26560W        W90504  14.269  34.088   0.808
26561W        W90505   1.470  40.954   0.295
26562W        W90506  23.151   5.331   2.362
26563W        W90507  32.940  44.297  12.990
26564W        W90508  27.099  35.993  14.991
26565W        W90509   1.249  40.476   3.308
26566W        W90510  38.914  26.594  12.384
26567W        W90511  24.017  24.174   0.408
26568W        W90512   8.375  22.084   3.861
26569W        W90513   1.883  36.362  10.538
26570W        W90514  28.633  16.147  12.835
26571W        W90515  13.766   2.392   3.291
26572W        W90516  20.032  29.122   0.425
26573W        W90517  36.871  32.026   0.455
26574W        W90518  11.850  43.414   0.303
26575W        W90519   0.876  10.695  12.029
26576W        W90520   3.303   4.424  11.435
26577W        W90521  25.573   1.765  10.940
26578W        W90522  24.639  27.140  11.865
26579W        W90523  16.757  16.276  11.935
26580W        W90524   2.361  29.122  14.302
26581W        W90525  35.472  11.727  13.396
26582W        W90526  40.843  33.527   9.922
26583W        W90527  30.971  28.135  13.977
26584W        W90528   3.854  19.621   0.253
26585W        W90529  27.529   7.736  13.843
26586W        W90530   8.791  10.158   3.689
26587W        W90531  41.797  30.934   4.792
26588W        W90532   9.283  24.572  14.940
26589W        W90533  44.395  25.097   4.672
26590W        W90534   3.739  44.777   2.877
26591W        W90535  28.469  34.050   0.849
26592W        W90536  28.526  10.293  12.356
26593W        W90537  12.353  37.916   3.367
26594W        W90538   9.261  41.976  13.027
26595W        W90539  19.635  10.861  11.999
26596W        W90540  23.568  34.005  10.543
26597W        W90541  22.593  36.534   2.745
26598W        W90542  35.438   5.729   3.713
26599W        W90543  27.001  16.630  10.923
26600W        W90544  29.063  10.297  10.016
26601W        W90545  14.668  32.895  12.390
26602W        W90546  20.249  37.971   4.177
26603W        W90547   0.981   3.784  12.382
26604W        W90548  29.124  23.618  12.077
26605W        W90549  28.958  12.683   2.850
26606W        W90550  10.856  21.513  13.797
26607W        W90551   2.958  27.457   4.143
26608W        W90552   0.383  12.240   3.678
26609W        W90553  30.501  16.770  12.026
26610W        W90554   3.830  37.045   3.812
26611W        W90555  20.705  39.966  11.098
26612W        W90556  24.997  32.455  10.519
26613W        W90557  14.831   5.363   3.633
26614W        W90558  15.781  29.621   2.338
26615W        W90559   8.711  14.331  14.779
26616W        W90560  41.842  24.209   2.669
26617W        W90561  14.276  25.205  12.082
26618W        W90562  11.849  14.621  11.386
26619W        W90563  16.134  44.854   2.377
26620W        W90564  23.666  44.427  14.511
26621W        W90565  35.879  20.143  10.947
26622W        W90566  42.916  22.250   4.266
26623W        W90567   1.849  29.049   2.413
26624W        W90568  11.800   2.414  13.063
26625W        W90569   8.691  14.191   0.855
26626W        W90570  39.534   5.278   1.301
26627W        W90571  19.232  18.093  13.543
26628W        W90572  39.392  17.749   0.309
26629W        W90573  27.640  41.013  13.938
26630W        W90574  33.943   8.401   4.245
26631W        W90575  27.657  15.592  12.927
26632W        W90576  30.589  30.484   4.331
26633W        W90577  14.723  16.643  13.317
26634W        W90578  19.224  15.662  13.900
26635W        W90579  14.337  18.076   1.697
26636W        W90580  22.050   0.891  12.422
26637W        W90581   9.757  12.723   1.398
26638W        W90582  13.336  19.094  10.909
26639W        W90583  23.095  18.113   3.243
26640W        W90584  27.515  43.339  12.986
26641W        W90585  19.744   4.944   3.665
26642W        W90586  37.455   6.216   2.300
26643W        W90587   8.785   0.281  10.906
26644W        W90588  41.521  31.480   3.791
26645W        W90589  10.673  41.298  13.011
26646W        W90590  10.155   9.850   4.623
26647W        W90591  15.597  19.624  13.011
26648W        W90592  11.217   2.774   5.223
26649W        W90593  16.223  40.421  13.008
26650W        W90594  42.026   0.318  10.475
26651W        W90595  23.602  10.845   2.388
26652W        W90596  22.036  23.145  13.440
26653W        W90597   5.910   6.291   2.726
26654W        W90598  24.211   4.285   1.852
26655W        W90599  43.362  32.034   1.260
26656W        W90600  43.466  11.861   2.189
26657W        W90601  15.151  38.062   4.676
26658W        W90602   7.177  28.051  11.029
26659W        W90603   3.405  12.654   0.418
26660W        W90604  12.339   2.379  14.942
26661W        W90605  26.654  36.433   0.279
26662W        W90606  41.040   0.453  13.006
26663W        W90607  41.421   3.335  12.507
26664W        W90608  41.403  25.485   4.144
26665W        W90609  43.872  39.491  12.552
26666W        W90610  31.408  37.868   4.254
26667W        W90611  42.333  12.627   3.240
26668W        W90612  22.071   1.345  14.425
26669W        W90613  13.161  43.841   1.374
26670W        W90614  25.027  15.630   5.289
26671W        W90615  15.681  26.641   3.758
26672W        W90616  11.266  28.585  10.138
26673W        W90617  31.479  29.588   4.179
26674W        W90618  12.218  11.172  11.918
26675W        W90619  35.890   4.394   1.931
26676W        W90620  10.213  27.628  14.285
26677W        W90621  10.647  17.662   9.940
26678W        W90622   8.280   4.392  14.967
26679W        W90623  44.263  23.054  14.503
26680W        W90624  33.391  17.205   1.301
26681W        W90625  33.403  32.478  13.826
26682W        W90626  16.730  23.683  14.320
26683W        W90627   7.250  28.568  14.992
26684W        W90628   6.852   2.312  13.898
26685W        W90629  36.469  16.312  13.982
26686W        W90630  16.207  30.501  11.942
26687W        W90631  35.000  39.453  10.427
26688W        W90632  37.336  25.558   0.936
26689W        W90633   4.771  16.265   0.924
26690W        W90634  17.638  22.203   3.728
26691W        W90635  28.053  34.428   4.683
26692W        W90636  26.500  44.906  14.503
26693W        W90637   7.403  42.864  11.011
26694W        W90638   0.840  15.177  14.447
26695W        W90639  22.669  34.100  12.402
26696W        W90640  29.045   1.269   2.402
26697W        W90641  40.821  17.684  13.372
26698W        W90642  15.228  23.011   1.779
26699W        W90643  43.805   4.288   0.428
26700W        W90644  32.512  11.825  10.522
26701W        W90645  29.630  31.445   3.778
26702W        W90646   9.210  40.048  12.907
26703W        W90647  13.291  33.958   1.437
26704W        W90648  42.499   6.877   3.332
26705W        W90649   9.818  36.935  14.408
26706W        W90650   8.288  23.526  12.090
26707W        W90651   4.302   4.815  13.028
26708W        W90652   7.174  15.775  11.382
26709W        W90653   9.274  35.942  14.280
26710W        W90654  35.985  22.671   2.355
26711W        W90655   1.838  20.657   3.816
26712W        W90656  20.242  31.430  14.347
26713W        W90657  39.484  41.314  13.441
26714W        W90658   9.783  42.398   3.158
26715W        W90659   1.871  37.866  14.484
26716W        W90660   4.872  10.843   1.385
26717W        W90661  19.199  39.876  13.824
26718W        W90662  21.018  13.755   2.226
26719W        W90663  21.613  31.418   2.340
26720W        W90664  37.008   0.863   4.798
26721W        W90665   4.900  16.255   4.237
26722W        W90666  21.082  20.657  13.791
26723W        W90667   4.892  31.056  13.472
26724W        W90668  27.587  25.485  13.870
26725W        W90669  10.281  37.006   0.326
26726W        W90670  11.769  12.184   4.151
26727W        W90671  19.732  21.134  12.963
26728W        W90672  11.240   7.850  14.825
26729W        W90673  27.052  36.392  13.043
26730W        W90674  34.045   0.348   2.725
26731W        W90675  17.597  13.134   2.325
26732W        W90676  25.476  19.068   0.279
26733W        W90677  29.539   4.810   3.709
26734W        W90678  21.539  22.599  12.941
26735W        W90679  10.240   4.897   3.164
26736W        W90680  16.689  31.600   1.823
26737W        W90681   2.281  30.503  12.376
26738W        W90682  14.803  31.022  11.914
26739W        W90683  32.456  26.140   4.257
26740W        W90684  24.497  20.127   0.886
26741W        W90685  22.532  22.556  10.916
26742W        W90686  32.573   8.767   2.847
26743W        W90687  42.393  43.305  11.596
26744W        W90688  33.603  10.302  12.392
26745W        W90689  22.997  41.350   0.338
26746W        W90690  40.952  30.629   0.272
26747W        W90691  13.609  24.031  12.056
26748W        W90692  21.208  29.922   0.933
26749W        W90693  37.470  10.182   2.360
26750W        W90694  22.738  26.494   0.894
26751W        W90695  13.727   8.829  13.887
26752W        W90696  23.199  37.031  11.518
26753W        W90697  43.873  19.654  13.849
26754W        W90698  30.995  39.501  13.994
26755W        W90699  17.709  29.991  12.033
26756W        W90700   3.928  40.323   1.255
26757W        W90701  42.486  14.680  13.530
26758W        W90702  44.499   9.271  14.000
26759W        W90703  17.193  28.623   1.894
26760W        W90704  23.984  30.059   4.599
26761W        W90705  44.417  40.431  11.521
26762W        W90706  37.506   2.418   3.309
26763W        W90707  15.760   5.358  11.536
26764W        W90708  36.884  12.628   4.692
26765W        W90709  14.643   8.722  13.053
26766W        W90710   7.267  29.620   0.300
26767W        W90711  21.590  26.457   1.329
26768W        W90712  19.704  27.515  11.118
26769W        W90713  14.588  18.664   4.784
26770W        W90714  11.656  18.728   0.860
26771W        W90715  38.978  35.083   2.818
26772W        W90716  23.535   6.808   0.398
26773W        W90717  34.888   7.868  13.911
26774W        W90718  13.131  24.685   0.436
26775W        W90719   4.906  36.878   4.638
26776W        W90720  11.192  29.535  13.488
26777W        W90721  16.762  15.298  11.986
26778W        W90722  41.884   4.811   4.340
26779W        W90723  22.039   7.822  11.558
26780W        W90724  26.961  11.681  14.435
26781W        W90725  17.162  11.196   0.422
26782W        W90726   4.865   1.806  13.810
26783W        W90727  21.250  27.187   0.799
26784W        W90728  28.150   0.421  12.024
26785W        W90729  18.604  43.898  13.464
26786W        W90730  40.001  23.106   2.352
26787W        W90731  36.886  10.259   2.328
26788W        W90732  28.070  21.628   1.855
26789W        W90733  42.815  37.903  11.397
26790W        W90734  17.681  43.904  13.439
26791W        W90735  41.982  28.614  13.547
26792W        W90736  25.181  20.104  10.554
26793W        W90737  22.093  31.135  11.968
26794W        W90738  29.151  33.966   3.366
26795W        W90739  37.481  22.613  14.855
26796W        W90740  30.057  44.932  11.538
26797W        W90741  36.021   0.335  14.494
26798W        W90742  11.702  28.013   2.881
26799W        W90743   4.928  14.623  13.321
26800W        W90744  25.033  14.790   0.423
26801W        W90745  26.002  43.294  13.924
26802W        W90746  12.169   8.798  12.404
26803W        W90747   2.738  20.634  10.515
26804W        W90748  18.172  20.244   3.259
26805W        W90749  37.038  27.522   4.251
26806W        W90750  36.539  15.646   3.272
26807W        W90751  18.721  25.199   2.378
26808W        W90752  10.819  37.431  12.015
26809W        W90753   8.204  16.636  11.499
26810W        W90754  43.827  37.398   1.398
26811W        W90755  21.544   9.780   0.869
26812W        W90756  37.013  44.960   1.776
26813W        W90757   0.989  28.524  11.545
26814W        W90758  30.615  30.116  13.335
26815W        W90759  35.559  30.656   0.838
26816W        W90760   5.268  43.945  11.063
26817W        W90761  38.830  22.020  14.843
26818W        W90762  44.482  21.185   4.317
26819W        W90763  13.140   9.372   0.769
26820W        W90764  17.667  31.569  12.572
26821W        W90765  42.902  13.664  14.982
26822W        W90766   5.348   5.344  13.869
26823W        W90767  31.411  22.539  13.879
26824W        W90768  31.948  44.424  10.583
26825W        W90769  44.441  27.578   2.790
26826W        W90770  22.026  35.901   0.766
26827W        W90771  10.876  44.930   2.742
26828W        W90772   2.352   3.886   3.637
26829W        W90773  37.494  25.019  14.426
26830W        W90774  42.494   7.784  14.404
26831W        W90775  21.245  17.169   1.785
26832W        W90776  22.649  29.660   1.417
26833W        W90777  14.181  39.058   3.633
26834W        W90778  33.957  37.865   4.736
26835W        W90779  10.144  28.135  11.556
26836W        W90780   5.398  10.354  13.829
26837W        W90781   1.732  23.997  13.461
26838W        W90782   5.759  43.271   1.273
26839W        W90783  26.205  28.508  10.966
26840W        W90784  29.999  19.773  11.098
26841W        W90785  22.094  36.460   2.807
26842W        W90786   1.464  21.141  10.966
26843W        W90787  25.017  25.644  11.470
26844W        W90788  17.094  10.700  12.977
26845W        W90789  29.140   1.731  14.861
26846W        W90790  23.680  34.612  12.407
26847W        W90791  26.625   4.450   0.878
26848W        W90792  27.089  36.910  12.445
26849W        W90793  43.890  42.969  14.032
26850W        W90794   4.233  31.443  14.973
26851W        W90795   6.814  12.263   2.367
26852W        W90796  24.536  31.462   4.155
26853W        W90797  23.117   3.299   3.709
26854W        W90798  21.142  33.506   4.118
26855W        W90799   7.249   7.208   0.251
26856W        W90800   5.788   2.465  10.945
26857W        W90801   4.753   3.345   3.281
26858W        W90802  10.296  40.023  10.113
26859W        W90803  11.350   2.442   4.117
26860W        W90804   0.410  44.006  10.466
26861W        W90805  10.646   9.329   4.727
26862W        W90806  25.097  15.804   4.254
26863W        W90807  30.099  34.509   2.363
26864W        W90808  39.326   6.909  14.832
26865W        W90809  23.026   8.241   1.392
26866W        W90810  31.923  43.275   1.388
26867W        W90811  29.003  24.061   2.849
26868W        W90812  18.641  18.259  13.003
26869W        W90813  29.518   0.742   2.381
26870W        W90814   4.412  14.163   4.640
26871W        W90815  34.391  17.077   4.753
26872W        W90816   8.184  11.356   4.298
26873W        W90817  15.706   7.358  10.485
26874W        W90818   6.301  25.675   2.888
26875W        W90819  27.511  21.549  10.471
26876W        W90820  22.712  19.564  11.910
26877W        W90821  20.637  39.065  12.994
26878W        W90822  15.178  27.447   4.737
26879W        W90823  29.924  23.680   3.190
26880W        W90824  13.185  39.434   1.926
26881W        W90825  27.949  19.618  12.930
26882W        W90826  43.422  33.494   3.677
26883W        W90827  40.448  38.923  11.117
26884W        W90828  39.879   0.946   1.417
26885W        W90829  11.172   5.367  14.024
26886W        W90830  36.877  16.614   0.307
26887W        W90831  24.617  18.595   1.345
26888W        W90832  29.440  25.554  13.803
26889W        W90833  30.053  17.155   3.208
26890W        W90834  15.615   9.360  14.912
26891W        W90835  17.558  42.842  13.828
26892W        W90836  33.604   7.324   0.411
26893W        W90837  34.104  37.430   0.442
26894W        W90838  27.185  39.552   1.883
26895W        W90839  43.323  12.801   1.280
26896W        W90840  39.441   0.315   0.409
26897W        W90841  31.099   5.847  13.392
26898W        W90842  21.715   6.423   2.191
26899W        W90843   1.426   1.269   1.229
26900W        W90844  17.099  12.154   2.769
26901W        W90845  22.187  26.608  11.944
26902W        W90846  19.201  43.320   4.149
26903W        W90847  27.690  11.678  13.453
26904W        W90848  36.572  29.656  13.425
26905W        W90849  39.384   9.668   4.732
26906W        W90850  30.093  18.119  12.485
26907W        W90851  12.242  33.956   2.900
26908W        W90852  22.743   6.223   1.821
26909W        W90853   1.454  19.158   1.801
26910W        W90854  14.204  32.121   4.321
26911W        W90855  20.555  25.208  10.015
26912W        W90856  33.427  13.318   3.316
26913W        W90857  29.432  19.682  10.624
26914W        W90858  43.949  34.989  14.788
26915W        W90859   3.422  12.823  13.400
26916W        W90860  23.685  43.471   3.162
26917W        W90861   8.681  34.542  10.452
26918W        W90862  16.128  16.612   4.671
26919W        W90863  28.553   3.865  12.002
26920W        W90864   6.325  31.991  11.589
26921W        W90865  13.654   3.770   4.167
26922W        W90866   8.254   1.770   3.659
26923W        W90867  30.009  21.183  14.879
26924W        W90868  30.536  24.082   0.413
26925W        W90869  29.936  42.888  11.119
26926W        W90870  41.348  18.652  12.423
26927W        W90871  36.588  18.172   0.958
26928W        W90872  42.895   5.366  14.998
26929W        W90873  31.092   3.438  10.504
26930W        W90874  27.537  38.827   5.137
26931W        W90875  19.199  12.847  14.501
26932W        W90876   1.436  29.553  11.595
26933W        W90877  31.577  27.559   4.792
26934W        W90878  25.525  40.461  13.852
26935W        W90879  29.568  10.716   2.853
26936W        W90880  33.948  29.520   4.311
26937W        W90881  17.153  17.662  11.439
26938W        W90882  23.225  14.799   1.268
26939W        W90883   7.359  29.528   1.228
26940W        W90884  33.982  42.362   2.749
26941W        W90885  10.722  38.840   0.430
26942W        W90886  40.508  27.972   3.839
26943W        W90887  40.864  42.032  13.361
26944W        W90888  37.078  44.400   3.173
26945W        W90889  43.401   9.355   1.345
26946W        W90890  13.620  25.713  12.369
26947W        W90891  36.373   3.381   0.857
26948W        W90892   6.708   7.295   3.205
26949W        W90893  13.195   0.366  10.454
26950W        W90894  37.947  19.092  12.053
26951W        W90895  37.083  16.198  13.030
26952W        W90896   4.423   4.744   9.958
26953W        W90897  22.669  33.889  13.029
26954W        W90898  20.246  11.307  11.116
26955W        W90899  13.678  39.410  14.926
26956W        W90900  29.157  20.700  14.964
26957W        W90901  19.695  42.300   2.699
26958W        W90902  44.496   2.792   4.353
26959W        W90903  36.873  32.031  14.347
26960W        W90904   8.772   1.279  14.406
26961W        W90905  19.209  12.636  12.967
26962W        W90906  29.941  39.997  13.989
26963W        W90907  17.122   2.300   2.872
26964W        W90908  40.391  29.105   1.242
26965W        W90909  13.685  38.879   0.396
26966W        W90910  13.190   5.231   3.233
26967W        W90911  17.742   0.360  13.520
26968W        W90912  33.453   8.400   1.746
26969W        W90913  37.545  15.301   1.878
26970W        W90914  18.171  25.181   5.750
26971W        W90915  24.109  32.056   9.952
26972W        W90916  13.289  10.855  12.985
26973W        W90917  18.623  13.831  12.030
26974W        W90918  32.085  39.325   0.755
26975W        W90919   9.718   7.284  13.500
26976W        W90920  43.999  10.823  14.794
26977W        W90921   5.356  20.192  13.898
26978W        W90922  16.290  23.718   3.822
26979W        W90923  22.202  34.866   3.843
26980W        W90924  11.669  23.549  12.869
26981W        W90925  34.897   0.851  13.853
26982W        W90926  34.029  40.385  12.073
26983W        W90927  23.127   1.775  11.500
26984W        W90928   0.891  29.106   1.909
26985W        W90929  36.969   7.848   4.179
26986W        W90930  24.543  30.426  11.080
26987W        W90931  22.237  17.093   3.205
26988W        W90932   5.285  14.298   4.786
26989W        W90933  33.583  26.143  12.401
26990W        W90934  27.157  11.333  12.465
26991W        W90935  41.304  24.207  14.506
26992W        W90936   7.210  23.080   4.662
26993W        W90937   1.782  27.497  11.538
26994W        W90938  41.003  23.043  12.514
26995W        W90939  19.140  14.241  11.105
26996W        W90940   5.318   1.875   1.232
26997W        W90941  31.502  39.484  10.108
26998W        W90942  44.791  43.506   4.188
26999W        W90943  44.267  23.539  11.878
27000W        W90944  26.093   4.911  14.301
27001W        W90945  19.255  14.729  13.047
27002W        W90946  19.563  12.118   2.263
27003W        W90947  36.022   8.224  11.521
27004W        W90948  43.389   5.308  14.491
27005W        W90949  36.059  36.067   2.847
27006W        W90950  33.907  25.095  13.309
27007W        W90951  44.288  26.644  10.904
27008W        W90952  41.941  42.486   1.875
27009W        W90953  39.917  20.686  14.442
27010W        W90954  28.584  43.424  14.957
27011W        W90955  23.149  44.765  13.367
27012W        W90956  32.417  21.258   0.265
27013W        W90957  25.599  16.740  11.920
27014W        W90958  20.522  38.039  11.420
27015W        W90959   2.728   5.831   2.399
27016W        W90960   6.887  15.624   5.099
27017W        W90961  23.048   7.405   3.366
27018W        W90962  34.445  24.705   0.764
27019W        W90963   8.866  16.242   0.771
27020W        W90964  40.805  42.479  12.921
27021W        W90965  35.460  17.762   4.658
27022W        W90966  23.011  29.484  11.373
27023W        W90967  30.638   1.867   1.249
27024W        W90968  17.635   2.355  11.586
27025W        W90969   1.947   1.872   4.680
27026W        W90970  13.145  17.726  14.325
27027W        W90971  35.449   9.788  13.307
27028W        W90972   1.944  17.250   4.637
27029W        W90973  44.943  40.011  11.930
27030W        W90974  25.988  20.114   2.685
27031W        W90975  38.020  19.562  12.395
27032W        W90976  22.223  33.440   2.220
27033W        W90977  24.570   1.244  14.892
27034W        W90978   1.768  43.768  13.990
27035W        W90979   3.805  20.131  12.437
27036W        W90980  36.861  18.570   1.879
27037W        W90981  11.690  39.411  11.074
27038W        W90982   2.307  34.437   0.767
27039W        W90983  32.633   8.708   4.614
27040W        W90984  35.403  31.026  13.395
27041W        W90985   9.336   6.189  12.901
27042W        W90986  20.629  44.495  10.907
27043W        W90987  36.364   4.890  13.869
27044W        W90988  33.557  17.086   2.730
27045W        W90989  29.154  42.994  12.372
27046W        W90990  38.891   9.699   4.228
27047W        W90991  15.258  41.849  13.310
27048W        W90992  26.649  41.999  10.927
27049W        W90993  20.089  13.639  11.924
27050W        W90994  35.473  43.281  11.414
27051W        W90995  21.215  28.138  11.909
27052W        W90996  26.619  29.119   2.304
27053W        W90997  28.952  23.039  11.497
27054W        W90998  36.917  22.600   1.812
27055W        W90999  43.317  40.496  12.372
27056W        W91000  30.429  28.997   2.826
27057W        W91001  23.158  43.330  13.339
27058W        W91002  14.186  39.334  12.855
27059W        W91003  10.705  15.782   3.178
27060W        W91004  33.520  19.281  10.985
27061W        W91005  19.165  20.199   1.241
27062W        W91006   1.250  11.692   3.173
27063W        W91007  44.844   8.383   4.718
27064W        W91008  38.055  38.543   1.233
27065W        W91009  19.169   5.314   4.260
27066W        W91010  17.605  17.757   1.787
27067W        W91011   1.771   2.363  13.946
27068W        W91012  29.609  24.176   0.756
27069W        W91013  24.667   9.778   1.265
27070W        W91014  34.061  39.362   1.699
27071W        W91015  43.965  20.561   3.260
27072W        W91016   5.929  12.798   4.686
27073W        W91017  19.703  21.176   3.660
27074W        W91018  36.946   1.245  11.081
27075W        W91019  17.095  19.239   0.387
27076W        W91020   2.836  37.990  11.022
27077W        W91021  30.140  14.145   3.347
27078W        W91022  26.037  41.792   3.865
27079W        W91023  17.780  42.856   0.300
27080W        W91024   2.733  20.257   3.761
27081W        W91025  27.675  25.705   0.391
27082W        W91026  42.340  23.675   0.251
27083W        W91027  28.988  24.103  11.472
27084W        W91028  39.448   2.334   9.593
27085W        W91029   9.316  34.514   1.434
27086W        W91030  34.026  35.938  13.898
27087W        W91031  22.580  14.096  12.516
27088W        W91032  15.094  35.967  14.006
27089W        W91033  13.787  41.380   2.412
27090W        W91034   7.225   6.256   1.312
27091W        W91035  14.245  32.554   1.807
27092W        W91036  27.116  29.069   2.772
27093W        W91037  44.992  11.685  12.440
27094W        W91038   5.723  31.559  11.537
27095W        W91039  44.894  16.081  14.857
27096W        W91040  35.594  10.807  13.532
27097W        W91041  39.915  10.701  10.943
27098W        W91042   2.902  31.912  11.881
27099W        W91043   3.806   5.905   2.706
27100W        W91044  34.898   1.368  12.452
27101W        W91045  32.467  41.417   4.282
27102W        W91046  33.530  34.608   4.227
27103W        W91047  16.751  23.706   0.832
27104W        W91048  24.684   2.754  13.895
27105W        W91049  36.371  35.525  10.631
27106W        W91050  11.770  21.122  12.571
27107W        W91051  18.295   8.693  14.406
27108W        W91052  34.602   5.842  13.462
27109W        W91053  17.307  18.191   0.952
27110W        W91054   0.880  34.014   4.344
27111W        W91055  15.606   8.324   4.161
27112W        W91056  16.241   7.372   0.261
27113W        W91057  12.202   1.961  14.874
27114W        W91058  38.020   7.409  11.461
27115W        W91059   9.737  43.398  14.477
27116W        W91060  41.297  39.991  11.389
27117W        W91061  23.672  15.786  14.996
27118W        W91062  26.663  39.326  12.564
27119W        W91063  37.925  17.590  12.500
27120W        W91064  32.051  19.550  14.834
27121W        W91065  24.206  44.348  12.973
27122W        W91066  19.678  33.548   5.116
27123W        W91067   4.878   4.266  13.405
27124W        W91068  41.497  23.113  13.480
27125W        W91069  18.108  23.125  12.861
27126W        W91070  32.097   9.876   1.857
27127W        W91071  40.993  42.430   0.266
27128W        W91072  23.146  16.158  12.435
27129W        W91073  41.025  43.859   4.708
27130W        W91074   8.278  30.585   1.859
27131W        W91075  36.392  35.925   0.329
27132W        W91076  18.277  38.904  12.921
27133W        W91077   4.392  22.041   2.672
27134W        W91078  34.394  30.477   0.949
27135W        W91079  29.579  41.513  13.430
27136W        W91080  25.566  17.695  13.432
27137W        W91081  35.414  14.280  13.412
27138W        W91082  30.013  41.869   2.398
27139W        W91083  31.023  44.963  13.793
27140W        W91084   7.732  30.033   0.469
27141W        W91085   0.268  11.216   1.285
27142W        W91086  42.982  41.838  10.414
27143W        W91087   3.296  37.560   0.398
27144W        W91088   9.363  15.089  12.490
27145W        W91089  42.970  19.151   2.876
27146W        W91090  34.416  11.362   1.327
27147W        W91091  30.989  30.944  12.037
27148W        W91092  14.658  37.951  12.886
27149W        W91093  29.536   3.797   1.843
27150W        W91094  29.074  43.779  11.442
27151W        W91095  37.350  27.999  13.910
27152W        W91096  29.598  25.061   2.232
27153W        W91097   1.426  21.134   0.245
27154W        W91098  13.622  15.204  14.868
27155W        W91099   3.954  15.728  14.480
27156W        W91100  26.091  40.507   2.842
27157W        W91101  34.483   5.352  12.929
27158W        W91102  17.760  32.072  14.014
27159W        W91103  42.386   1.245   2.766
27160W        W91104   4.427   0.316   0.807
27161W        W91105  13.288  32.593  14.922
27162W        W91106  20.112  35.015   2.825
27163W        W91107  35.969  43.490  13.884
27164W        W91108   3.827  15.670  14.975
27165W        W91109  23.499  40.513  11.063
27166W        W91110   8.237  44.762   0.379
27167W        W91111  41.921  11.199   1.798
27168W        W91112  10.771  17.176  10.607
27169W        W91113  17.601   3.442   0.331
27170W        W91114  18.237  17.672   0.359
27171W        W91115   1.951  17.101  12.050
27172W        W91116  11.248  35.540  10.488
27173W        W91117  37.547  34.548   0.880
27174W        W91118  35.092  27.656  12.549
27175W        W91119   1.441  17.662  10.526
27176W        W91120  15.124  11.266  13.897
27177W        W91121  42.987  27.955  14.894
27178W        W91122  30.513   7.757   3.156
27179W        W91123  33.511  32.138  10.086
27180W        W91124  10.839   1.279  11.579
27181W        W91125  37.992  29.106  13.923
27182W        W91126  12.247  21.603   1.812
27183W        W91127   8.252  27.966   2.252
27184W        W91128  22.070   4.440  13.464
27185W        W91129   8.707  43.957   0.883
27186W        W91130  11.794  28.504   0.434
27187W        W91131  26.074  40.498   1.884
27188W        W91132  41.313  35.384   4.355
27189W        W91133  33.893   3.230   2.811
27190W        W91134   0.470  36.437  14.419
27191W        W91135   9.765  42.794  10.937
27192W        W91136  38.555   0.376  14.455
27193W        W91137  15.784  35.971  13.322
27194W        W91138  21.648  20.260  10.475
27195W        W91139  25.707  29.004  11.066
27196W        W91140   3.450  19.179  12.096
27197W        W91141  10.181  20.655   3.648
27198W        W91142   8.242   0.410  12.931
27199W        W91143  12.182  39.559   1.402
27200W        W91144  39.508  37.542  10.552
27201W        W91145  21.758  30.147  11.891
27202W        W91146   8.292   6.202   0.822
27203W        W91147   3.454  38.959  14.884
27204W        W91148  24.690  30.431  12.091
27205W        W91149  12.215  19.206  10.967
27206W        W91150  39.337   6.297   3.687
27207W        W91151  43.363  42.451   3.354
27208W        W91152  35.027   0.927   0.759
27209W        W91153  34.970  26.951   4.781
27210W        W91154  13.740   7.667   3.157
27211W        W91155  39.426  37.034  13.931
27212W        W91156  20.666  44.774  12.479
27213W        W91157  40.912   6.913  14.366
27214W        W91158   7.889  42.008   2.806
27215W        W91159   2.898  25.471  13.955
27216W        W91160  42.017  27.035  10.468
27217W        W91161  13.157   1.452   3.247
27218W        W91162  35.396   7.381  12.363
27219W        W91163  29.170   1.736   0.477
27220W        W91164  39.325  11.650  13.854
27221W        W91165   0.971   6.724   1.289
27222W        W91166  12.303  34.376   4.182
27223W        W91167   0.444   9.851   1.254
27224W        W91168  31.927  28.062  14.333
27225W        W91169  21.212  13.129   0.279
27226W        W91170  35.443  23.226  12.086
27227W        W91171   1.827  25.107   0.435
27228W        W91172   7.906  38.827   2.807
27229W        W91173   1.947   8.321  11.478
27230W        W91174  24.991  13.298  14.359
27231W        W91175   3.296  36.982  10.477
27232W        W91176  25.532  12.784  14.767
27233W        W91177  30.623   8.770   3.677
27234W        W91178  28.131  31.995   1.828
27235W        W91179   3.831  15.590  11.068
27236W        W91180   1.881   5.411  11.609
27237W        W91181   2.769   5.689   4.116
27238W        W91182   6.428  26.614   4.173
27239W        W91183  10.236   4.386  10.599
27240W        W91184  13.135  39.463  12.027
27241W        W91185  35.946  34.437  13.380
27242W        W91186  10.756   1.951  10.943
27243W        W91187  35.423  40.469  13.030
27244W        W91188  21.031   8.305  14.359
27245W        W91189  13.296  42.889   0.276
27246W        W91190   9.712  35.434   0.747
27247W        W91191  10.751  17.779   3.657
27248W        W91192   1.811   9.829   0.817
27249W        W91193  22.643  15.689  12.913
27250W        W91194  38.492  23.221   0.372
27251W        W91195  39.847  15.172   4.151
27252W        W91196  19.227  14.606   0.392
27253W        W91197   0.817  10.211   3.859
27254W        W91198  37.377  23.052  14.457
27255W        W91199   8.345  29.591   2.389
27256W        W91200   0.915   6.879  11.097
27257W        W91201  10.195  12.220   3.669
27258W        W91202   4.877  36.915   3.282
27259W        W91203  16.144  12.631  13.029
27260W        W91204   0.365   7.747  12.010
27261W        W91205  44.895  17.690   3.149
27262W        W91206  31.093  37.043  11.858
27263W        W91207  12.759  23.222  14.315
27264W        W91208  28.106  19.745   3.833
27265W        W91209  15.759  16.157  13.023
27266W        W91210  39.333  25.170   0.443
27267W        W91211  32.436  44.389  13.005
27268W        W91212  43.799  13.732  12.437
27269W        W91213   1.733   7.277  13.507
27270W        W91214  42.852  31.937  13.433
27271W        W91215  17.266   8.883  14.880
27272W        W91216  37.938  31.596   2.262
27273W        W91217  12.711  14.139   4.240
27274W        W91218  16.571  44.939  13.801
27275W        W91219  24.150  25.537   0.437
27276W        W91220   0.973  40.041  11.478
27277W        W91221  23.691  28.650  14.379
27278W        W91222  21.129  38.857  12.380
27279W        W91223  44.932  18.158  13.519
27280W        W91224   0.754  15.115  11.543
27281W        W91225  25.200  32.620  12.964
27282W        W91226   2.898  14.746  11.426
27283W        W91227  13.130  31.615   1.376
27284W        W91228  43.306   6.882  12.839
27285W        W91229  30.991  14.177   3.805
27286W        W91230  22.596  14.675  10.622
27287W        W91231  15.084   1.931   5.597
27288W        W91232  30.119  34.041  14.366
27289W        W91233  38.332  27.116  14.366
27290W        W91234   4.303  29.922   4.631
27291W        W91235  16.292  13.638  14.982
27292W        W91236  25.516  37.419  10.961
27293W        W91237  43.270  29.005  10.013
27294W        W91238  34.467  39.553  11.454
27295W        W91239  40.347  41.869   4.158
27296W        W91240  39.494  21.715  14.989
27297W        W91241  30.946  39.924   2.901
27298W        W91242   3.442  41.510   1.444
27299W        W91243  26.168  43.922   2.396
27300W        W91244  34.512   8.713  14.336
27301W        W91245  38.374   9.158   4.125
27302W        W91246  20.193  29.926   2.396
27303W        W91247  25.482  35.528  12.946
27304W        W91248  44.490  23.676  14.904
27305W        W91249  14.252  34.387   0.906
27306W        W91250  32.567  31.513  13.456
27307W        W91251  29.954   3.290   2.758
27308W        W91252  38.837  26.111   4.800
27309W        W91253  20.675  31.622   3.765
27310W        W91254  10.821  21.066   4.770
27311W        W91255  16.792   9.853  13.013
27312W        W91256  30.053  18.278  14.316
27313W        W91257  40.345  22.129  12.070
27314W        W91258  15.259  13.637   2.338
27315W        W91259   6.382   0.817  12.358
27316W        W91260  18.156  34.913  14.926
27317W        W91261  42.514  12.644  13.522
27318W        W91262   2.780  11.291   3.291
27319W        W91263  33.948   7.410   0.937
27320W        W91264   0.307  26.206  12.980
27321W        W91265   9.341  30.428   1.721
27322W        W91266  44.887  17.559   0.403
27323W        W91267  14.330  37.957  11.396
27324W        W91268  22.111  26.595  13.543
27325W        W91269  15.608  43.398   5.249
27326W        W91270  39.504  18.624  13.870
27327W        W91271  41.890  39.849  10.502
27328W        W91272  13.221  42.340  12.898
27329W        W91273  25.024  12.356   4.696
27330W        W91274  42.521   0.746  11.548
27331W        W91275  37.920  29.539  11.572
27332W        W91276  42.502  12.189  14.947
27333W        W91277  21.711  30.981  11.518
27334W        W91278  20.732   1.966  14.491
27335W        W91279  22.630  40.399  12.445
27336W        W91280  11.140  34.002   4.756
27337W        W91281  33.390  21.171   3.868
27338W        W91282  28.536   0.271  10.904
27339W        W91283   2.303  15.773  11.865
27340W        W91284  41.955  44.423   4.624
27341W        W91285  16.734  23.223  13.532
27342W        W91286   5.348   7.725   3.358
27343W        W91287  35.359  32.097  14.997
27344W        W91288   2.809   6.753   3.745
27345W        W91289   8.293   2.323   0.812
27346W        W91290  20.615  11.218  14.006
27347W        W91291  20.033  34.485   0.829
27348W        W91292  14.676   3.382   2.264
27349W        W91293  14.250  20.264   2.673
27350W        W91294  43.848  13.221  10.501
27351W        W91295  41.837  38.410  12.428
27352W        W91296  18.567  19.164   0.298
27353W        W91297  41.339  17.245   4.141
27354W        W91298  37.871  23.142  11.997
27355W        W91299  42.955  36.998   1.882
27356W        W91300  16.222  19.201  14.443
27357W        W91301   1.439  12.237  14.304
27358W        W91302  21.533  26.557   4.154
27359W        W91303  14.149  23.665   0.892
27360W        W91304  10.709   6.871  12.465
27361W        W91305  30.969  12.196  11.946
27362W        W91306   6.802  27.103   1.788
27363W        W91307  27.498  41.400   0.248
27364W        W91308  31.428  43.820  12.081
27365W        W91309   2.847   6.212   4.342
27366W        W91310   9.327  22.720   5.159
27367W        W91311  19.135  12.230   4.836
27368W        W91312  28.491   0.271   3.157
27369W        W91313  24.706  39.425  14.930
27370W        W91314  23.153  39.322  11.857
27371W        W91315  30.131  26.515  14.394
27372W        W91316   2.273  41.848  11.389
27373W        W91317   6.683  14.295  13.793
27374W        W91318  21.621  18.241  13.928
27375W        W91319  27.466  37.541  14.790
27376W        W91320  38.391  12.294   1.769
27377W        W91321  13.236  40.962   0.352
27378W        W91322  21.608  34.067   4.815
27379W        W91323   2.942  40.948  11.492
27380W        W91324  40.355  24.167  14.441
27381W        W91325  22.068   3.720   2.751
27382W        W91326  11.767  34.905  13.898
27383W        W91327  25.502  43.765   3.707
27384W        W91328  33.560   6.875  10.892
27385W        W91329   1.891  10.364  13.011
27386W        W91330  19.171  37.404   2.865
27387W        W91331  35.914  42.876  14.320
27388W        W91332  22.693  15.116   1.901
27389W        W91333  37.855  39.483   2.868
27390W        W91334  35.509  43.840  13.791
27391W        W91335  26.634  32.067   0.461
27392W        W91336   3.341  29.430   3.334
27393W        W91337  17.585  26.163  12.395
27394W        W91338  22.602  12.631   3.766
27395W        W91339   8.755  31.911   1.267
27396W        W91340  24.003  36.006   4.235
27397W        W91341   4.218  34.487   4.259
27398W        W91342  20.073  22.715  10.979
27399W        W91343  15.743  16.706   2.342
27400W        W91344  22.239  22.620  10.561
27401W        W91345  18.100  42.381   2.261
27402W        W91346  35.384   9.789   4.207
27403W        W91347  10.148   0.448  11.413
27404W        W91348  19.693   7.363  11.085
27405W        W91349  37.925  43.782   3.685
27406W        W91350  39.426  32.590   1.290
27407W        W91351  20.089  16.643   2.775
27408W        W91352   4.769  40.386   3.342
27409W        W91353  16.577  14.626  10.492
27410W        W91354  30.513  10.150  13.889
27411W        W91355  40.809   7.179  13.016
27412W        W91356  32.481  33.972   3.674
27413W        W91357  33.522   0.743   2.271
27414W        W91358  36.390  38.509  10.617
27415W        W91359   1.869  26.571  11.991
27416W        W91360  33.932  31.645   0.873
27417W        W91361  25.038  40.838  12.062
27418W        W91362  32.533  22.061  11.526
27419W        W91363  39.984   0.297  10.597
27420W        W91364  21.239   2.276  14.312
27421W        W91365  43.287  18.118   4.289
27422W        W91366   9.168   1.958   0.878
27423W        W91367  29.534  14.322   0.907
27424W        W91368   0.327  34.425   4.781
27425W        W91369  40.893   3.264  11.471
27426W        W91370  37.428  41.829   0.445
27427W        W91371  23.101  43.295  12.398
27428W        W91372  30.494   1.407  13.003
27429W        W91373  11.633  14.276   1.928
27430W        W91374  42.405  14.623   3.242
27431W        W91375  37.554   3.777   2.839
27432W        W91376  32.554  34.425   5.145
27433W        W91377  27.086  19.187   1.709
27434W        W91378   8.346  18.226  10.415
27435W        W91379   7.416   8.849  12.437
27436W        W91380  14.598   9.305   2.876
27437W        W91381  39.888  16.287   1.836
27438W        W91382  12.284  24.583  13.923
27439W        W91383   3.216  12.658   3.262
27440W        W91384   2.849  28.171  14.779
27441W        W91385  40.981  14.098  11.972
27442W        W91386  42.463  13.603   0.898
27443W        W91387   3.434   3.952  11.403
27444W        W91388  27.958  22.008  14.293
27445W        W91389  10.797  38.476   2.731
27446W        W91390  18.716  37.406  13.792
27447W        W91391  15.310  17.178  13.390
27448W        W91392  24.650   8.690   0.358
27449W        W91393   9.267  43.956  11.578
27450W        W91394  28.656  12.196   3.635
27451W        W91395  30.107  41.889  10.522
27452W        W91396  37.475  34.982  12.433
27453W        W91397   0.389   6.231  13.466
27454W        W91398  33.564  38.964  10.957
27455W        W91399  31.582   8.661   4.273
27456W        W91400  23.689  22.547   3.240
27457W        W91401  19.049  26.129   9.631
27458W        W91402  39.846  31.478   2.187
27459W        W91403  39.905  15.728   3.190
27460W        W91404  40.809   9.258   0.805
27461W        W91405  31.416   5.921  12.894
27462W        W91406  14.271  15.635   3.156
27463W        W91407  14.212  28.616   1.345
27464W        W91408  16.173  22.151  11.020
27465W        W91409  37.528  29.976  14.835
27466W        W91410   2.406   4.845  13.847
27467W        W91411   3.870   6.914   2.382
27468W        W91412  14.791   5.229  10.592
27469W        W91413  32.009  11.845  11.874
27470W        W91414  34.914   9.258  12.443
27471W        W91415  24.503  10.777   2.228
27472W        W91416  42.351  25.574   4.220
27473W        W91417  42.942   1.832   2.291
27474W        W91418  37.490  41.899  12.374
27475W        W91419   9.755  10.163   1.929
27476W        W91420  17.755  44.860   4.192
27477W        W91421   5.430  37.904   3.630
27478W        W91422  17.733   5.719   3.225
27479W        W91423  37.422   1.374  11.595
27480W        W91424   7.194  33.090  14.438
27481W        W91425   8.745  34.604   0.760
27482W        W91426  32.495  14.231  11.005
27483W        W91427   5.320  44.889  11.090
27484W        W91428  10.868  14.746   4.143
27485W        W91429  21.085  44.260   1.934
27486W        W91430   8.168  21.168   3.799
27487W        W91431  23.001  19.570   4.834
27488W        W91432  19.082  41.347  10.602
27489W        W91433  38.067  40.926  10.616
27490W        W91434  26.484  24.626   4.315
27491W        W91435  17.263   4.339   2.749
27492W        W91436  32.067  44.269  13.516
27493W        W91437   7.837   8.779   4.151
27494W        W91438  21.183   3.827   4.745
27495W        W91439   6.255  22.250   1.325
27496W        W91440   1.899  15.158  14.478
27497W        W91441  33.951   8.660   1.863
27498W        W91442   2.797  21.711  13.519
27499W        W91443   7.415  36.984   2.273
27500W        W91444  39.424  32.487  13.488
27501W        W91445   9.809  13.703  12.064
27502W        W91446  39.363  37.984  13.035
27503W        W91447  41.401  26.038   3.850
27504W        W91448  26.510   9.275   0.848
27505W        W91449  29.542  14.314   1.802
27506W        W91450  23.232  44.756   1.836
27507W        W91451  24.136   7.838  11.002
27508W        W91452  19.079  33.889  11.470
27509W        W91453  31.900  18.586  12.388
27510W        W91454  31.557  29.963   0.449
27511W        W91455  44.777  38.065   2.872
27512W        W91456  24.083  25.534  13.821
27513W        W91457  28.627  43.898   1.888
27514W        W91458   7.201  10.320  13.064
27515W        W91459  14.640  37.021  13.014
27516W        W91460  17.673  27.541  14.847
27517W        W91461  10.375  42.818  12.082
27518W        W91462  12.316  17.697   4.812
27519W        W91463   5.742  30.604  11.941
27520W        W91464  23.140  42.441   3.666
27521W        W91465   1.365  22.741   3.220
27522W        W91466  43.808  17.165  12.054
27523W        W91467   6.215   0.468   3.243
27524W        W91468  30.460  37.387   1.762
27525W        W91469   8.241  33.917  12.944
27526W        W91470  28.540   4.226   2.805
27527W        W91471  32.415  26.101  14.364
27528W        W91472  21.528  43.807   3.809
27529W        W91473  39.405  34.899   3.817
27530W        W91474  21.580  32.582  12.895
27531W        W91475  23.650  29.539   4.319
27532W        W91476  36.492  43.272  13.923
27533W        W91477  44.961  31.461  14.953
27534W        W91478  21.612   0.787  14.342
27535W        W91479  35.958  18.232   0.813
27536W        W91480  27.614  29.938   1.272
27537W        W91481  12.145  19.182   2.806
27538W        W91482  28.541  36.526  11.502
27539W        W91483   9.777  31.903  12.456
27540W        W91484  19.231  19.774   1.905
27541W        W91485  12.124   9.697   0.748
27542W        W91486  14.737  37.965   2.785
27543W        W91487  17.649  16.258  12.567
27544W        W91488  24.660   6.804   0.752
27545W        W91489  24.572  25.527  13.955
27546W        W91490   9.739  27.050   9.483
27547W        W91491  39.456   7.319  14.329
27548W        W91492  30.974  19.103  13.004
27549W        W91493  42.029   0.482   4.341
27550W        W91494  20.097   1.394   4.708
27551W        W91495  39.975  37.023  11.385
27552W        W91496  30.469  26.082   2.409
27553W        W91497  35.930  32.393  12.564
27554W        W91498  41.307  33.470  11.860
27555W        W91499  11.235  13.796  13.526
27556W        W91500  40.931  39.320  14.477
27557W        W91501   1.815  15.277   2.265
27558W        W91502  44.972  31.526   3.750
27559W        W91503   0.426  25.685  11.490
27560W        W91504  36.892  24.054   0.858
27561W        W91505   6.211  24.210   0.818
27562W        W91506   0.490  13.311  13.958
27563W        W91507  16.193  26.193   3.317
27564W        W91508  18.708  29.966   1.796
27565W        W91509   3.226  27.554   4.644
27566W        W91510  37.971  32.927  11.598
27567W        W91511  30.512  12.748   1.722
27568W        W91512  34.379  17.710   2.302
27569W        W91513  24.090  15.269   3.792
27570W        W91514  34.599  10.223   0.813
27571W        W91515  36.585  34.963   0.385
27572W        W91516  11.763   4.295   0.340
27573W        W91517  18.721  14.225  14.276
27574W        W91518  28.603  40.957   4.272
27575W        W91519  44.924  38.327  10.436
27576W        W91520  13.786  29.662  10.523
27577W        W91521   9.299  35.584  12.094
27578W        W91522  42.442  20.631  11.597
27579W        W91523  43.923  36.499   4.148
27580W        W91524  31.972  17.295   5.197
27581W        W91525  23.084   0.253   3.783
27582W        W91526  33.916  32.921  14.959
27583W        W91527  31.596  39.014   4.220
27584W        W91528  11.848  16.779  12.924
27585W        W91529  24.059  19.043  11.040
27586W        W91530  41.510  12.156   1.352
27587W        W91531   1.417   7.707  10.549
27588W        W91532  33.463  13.270   0.317
27589W        W91533  18.605  21.719   2.306
27590W        W91534   9.372   7.402  13.488
27591W        W91535   6.268  36.846  12.044
27592W        W91536   4.220  24.548  13.026
27593W        W91537  37.968  26.953   3.301
27594W        W91538  31.983  31.048  14.888
27595W        W91539  16.576  21.142  11.110
27596W        W91540  42.407  36.892   3.672
27597W        W91541  30.966  44.449   9.985
27598W        W91542  17.291  29.120   2.214
27599W        W91543  31.442   1.748  13.953
27600W        W91544   2.383   4.726  14.976
27601W        W91545   9.273  31.487  14.828
27602W        W91546   6.389   7.771  10.474
27603W        W91547  40.425  20.597  11.439
27604W        W91548   6.424  26.646   4.605
27605W        W91549  14.256  14.828  11.447
27606W        W91550  38.018  15.188   1.860
27607W        W91551  23.066  27.583  14.512
27608W        W91552  42.379  44.323   1.872
27609W        W91553   5.429  30.541  12.544
27610W        W91554  14.218   9.368  14.287
27611W        W91555  16.184   0.831   2.393
27612W        W91556  22.599  31.079   0.850
27613W        W91557  42.792  17.247   1.791
27614W        W91558  44.453  41.029   4.119
27615W        W91559  28.135  10.708  13.926
27616W        W91560   5.267  32.509  11.894
27617W        W91561   3.357  36.882   0.906
27618W        W91562  42.507  17.740   4.828
27619W        W91563  28.437  40.536   2.823
27620W        W91564  22.586  25.633   3.687
27621W        W91565   2.277  31.087  11.989
27622W        W91566   7.417  17.234   3.795
27623W        W91567   8.829  25.651  13.449
27624W        W91568  44.493  26.544   9.973
27625W        W91569  14.241  41.375   4.345
27626W        W91570  22.587  27.586   1.391
27627W        W91571  33.883  25.064  14.942
27628W        W91572  20.678   8.864  14.868
27629W        W91573   7.212  22.567   2.184
27630W        W91574   7.784  26.124  14.869
27631W        W91575  16.209  17.131  14.358
27632W        W91576  11.719  33.883   2.285
27633W        W91577  41.379  42.435   1.250
27634W        W91578  16.275  22.600   0.883
27635W        W91579   9.726   1.895   0.258
27636W        W91580  39.477   9.870   1.334
27637W        W91581  38.375  16.592   2.265
27638W        W91582  15.132   4.361   1.894
27639W        W91583   9.206   6.405   1.236
27640W        W91584  22.615  23.002  11.580
27641W        W91585  27.451  21.696  13.030
27642W        W91586  10.378   1.399   4.640
27643W        W91587  38.332  11.750  12.372
27644W        W91588  29.621  36.358   1.792
27645W        W91589  19.651  21.722   2.763
27646W        W91590   1.474  35.506  13.001
27647W        W91591   8.895   2.256  13.510
27648W        W91592  16.101  42.018   1.826
27649W        W91593  36.584  25.497  14.946
27650W        W91594  22.027  21.623   0.832
27651W        W91595  36.026  16.258   1.365
27652W        W91596   4.844  28.631   2.803
27653W        W91597  41.919  31.123  14.829
27654W        W91598   5.926  33.017  11.878
27655W        W91599  21.075  31.435   4.716
27656W        W91600  29.548  36.083   4.339
27657W        W91601  26.502   8.196   3.701
27658W        W91602  35.867   7.769   0.899
27659W        W91603  15.777  13.325   5.150
27660W        W91604  34.060  11.671  11.119
27661W        W91605  13.757  30.426  14.810
27662W        W91606  37.383  35.371   1.844
27663W        W91607   9.254  34.015   0.799
27664W        W91608  38.369   1.828  12.937
27665W        W91609  33.381  12.849   2.238
27666W        W91610  41.799   6.798  14.374
27667W        W91611  25.032   3.375   4.218
27668W        W91612  42.316  14.658   0.476
27669W        W91613   7.697  24.086   4.683
27670W        W91614  37.022  28.065  10.563
27671W        W91615  12.180  26.960  12.879
27672W        W91616  17.620   0.324  11.544
27673W        W91617  19.045  41.979   1.714
27674W        W91618  24.025  28.050  10.569
27675W        W91619  21.602  34.015  10.500
27676W        W91620  33.452  28.002   4.195
27677W        W91621  14.216  10.184  12.989
27678W        W91622  41.967   5.894   4.319
27679W        W91623  39.892  27.452  13.999
27680W        W91624  43.979  30.612   1.888
27681W        W91625  23.199  12.662   2.741
27682W        W91626  23.643   9.370   1.927
27683W        W91627   7.688  35.568  10.477
27684W        W91628  21.645  10.325   1.308
27685W        W91629   2.868  22.601   3.759
27686W        W91630  44.790  25.696  12.535
27687W        W91631  16.211  24.074   3.681
27688W        W91632  44.822  16.182   2.793
27689W        W91633  17.654  25.666  13.979
27690W        W91634  30.095  37.077   0.887
27691W        W91635  30.590  40.957   2.708
27692W        W91636  23.512  19.109  13.321
27693W        W91637  42.372   2.472  10.565
27694W        W91638  41.414   9.198  11.867
27695W        W91639  41.920  31.499   0.915
27696W        W91640  39.957   0.786  14.912
27697W        W91641  15.221  16.182   3.762
27698W        W91642  44.346  10.261   3.769
27699W        W91643   9.716  18.117  10.621
27700W        W91644  15.778  17.077   3.759
27701W        W91645  30.648  10.718  12.985
27702W        W91646  42.391   0.889   3.321
27703W        W91647   5.395  35.432   1.879
27704W        W91648   2.308  22.024   4.702
27705W        W91649  18.215  41.816   4.772
27706W        W91650  41.907  31.117   2.355
27707W        W91651   4.213  19.573   3.638
27708W        W91652   4.423  44.496  11.034
27709W        W91653  16.140   9.860  11.467
27710W        W91654  23.997  28.008   4.795
27711W        W91655  27.078  16.721  14.469
27712W        W91656  18.696  44.410  10.472
27713W        W91657  12.629  23.615  12.460
27714W        W91658  11.713   5.267  10.934
27715W        W91659  30.522  17.674   2.707
27716W        W91660  11.840  30.542   2.205
27717W        W91661  37.356  12.715  10.994
27718W        W91662   8.717  20.262  10.413
27719W        W91663  22.218  10.310   1.849
27720W        W91664  23.067  20.615   3.835
27721W        W91665   4.765  37.365  14.460
27722W        W91666  21.113  44.346  10.142
27723W        W91667  21.671  33.380  14.473
27724W        W91668  42.358  12.148  11.052
27725W        W91669  21.590  11.731   9.985
27726W        W91670  10.761  41.367   4.212
27727W        W91671  10.140   2.394   4.148
27728W        W91672  12.229  27.193  14.306
27729W        W91673  40.938  22.199   3.259
27730W        W91674   4.749  31.006   3.175
27731W        W91675  14.622  42.940  13.325
27732W        W91676   1.741  10.753  11.510
27733W        W91677  24.517   7.401  11.112
27734W        W91678  29.478  31.027   2.362
27735W        W91679  26.584   0.807  10.637
27736W        W91680  18.633  37.533  14.276
27737W        W91681  29.035  12.622   1.353
27738W        W91682   3.236  24.560   0.338
27739W        W91683   1.467   3.794  12.041
27740W        W91684  36.958   4.356   4.157
27741W        W91685  13.321  32.024   1.725
27742W        W91686  23.061  16.209   4.792
27743W        W91687  42.350   4.806   0.809
27744W        W91688  36.407  19.128   4.631
27745W        W91689  36.491  33.936   4.714
27746W        W91690   7.252  40.855   0.343
27747W        W91691   4.264  12.842  13.817
27748W        W91692  27.004  40.944   1.832
27749W        W91693  38.368  33.126  13.045
27750W        W91694   1.446  11.642   1.831
27751W        W91695  40.400   9.821  12.483
27752W        W91696  43.022  25.592  13.855
27753W        W91697  26.458   2.875  11.583
27754W        W91698  20.091  17.307  11.534
27755W        W91699  16.273  11.750   0.811
27756W        W91700  30.491   6.348   4.343
27757W        W91701  20.721  35.565   4.790
27758W        W91702  43.354  29.633   4.799
27759W        W91703  13.817  14.702   3.370
27760W        W91704  44.267  15.327   3.264
27761W        W91705  26.013  25.703   4.175
27762W        W91706   0.425  43.289  14.416
27763W        W91707   1.312  30.550   1.779
27764W        W91708   2.314  23.680  10.980
27765W        W91709  29.979  39.458  10.547
27766W        W91710   8.766  19.114   0.890
27767W        W91711   6.807   1.436   1.394
27768W        W91712   7.882   6.360   0.772
27769W        W91713  37.560   7.766  14.007
27770W        W91714  14.159  11.723  14.797
27771W        W91715  18.740  39.458  14.945
27772W        W91716  31.602  32.609   1.292
27773W        W91717   6.738   9.226   3.710
27774W        W91718  23.624  14.326  13.922
27775W        W91719   1.925   8.399  10.606
27776W        W91720  31.040  39.966  13.404
27777W        W91721  21.702  21.100  10.613
27778W        W91722  32.446  41.427   4.617
27779W        W91723  11.128  16.582  11.002
27780W        W91724  25.978  22.679   4.150
27781W        W91725  27.692   7.379   4.343
27782W        W91726  43.913  28.559   0.907
27783W        W91727  19.716  34.080   3.167
27784W        W91728  42.509  42.892   3.866
27785W        W91729  33.108  36.512  12.399
27786W        W91730  37.368  37.964   1.308
27787W        W91731   0.787  14.167   4.286
27788W        W91732  21.600  34.934  11.447
27789W        W91733   6.899   1.384  14.010
27790W        W91734  43.470  28.955   4.610
27791W        W91735  23.997  37.513  13.540
27792W        W91736   7.707   3.227  14.993
27793W        W91737  30.923   1.931   3.816
27794W        W91738  20.108  27.572  13.430
27795W        W91739  36.984  43.890  10.614
27796W        W91740  18.716  21.523   9.920
27797W        W91741  29.088   4.233   3.644
27798W        W91742  31.485   2.797   1.217
27799W        W91743  18.106  32.580  11.889
27800W        W91744  31.042  35.517   4.827
27801W        W91745   7.847   9.846   0.808
27802W        W91746  34.069  41.988   1.854
27803W        W91747  15.813   8.207   0.478
27804W        W91748  11.352   0.341  13.388
27805W        W91749  13.823  23.073  11.533
27806W        W91750  20.052   6.334   2.380
27807W        W91751  38.073  19.684   3.650
27808W        W91752  20.598  34.957  13.797
27809W        W91753   9.349  12.196   4.113
27810W        W91754  29.628  33.427  10.480
27811W        W91755   7.723  13.169   1.856
27812W        W91756  17.112  22.059   3.847
27813W        W91757  14.677   5.379  11.054
27814W        W91758  18.663  15.134   3.173
27815W        W91759  10.204  14.759  11.113
27816W        W91760  26.683   7.370  11.921
27817W        W91761  39.393   6.873  13.317
27818W        W91762   7.782  32.978   4.279
27819W        W91763  18.614  27.011   3.347
27820W        W91764   3.374   1.843   1.249
27821W        W91765  41.371  33.574   1.219
27822W        W91766   2.743   5.244  13.034
27823W        W91767   2.778  41.525  14.008
27824W        W91768   0.342   7.669  10.473
27825W        W91769  34.419  39.841  12.474
27826W        W91770   7.203  11.770   4.701
27827W        W91771  24.160  31.925  11.105
27828W        W91772  37.979  10.143   2.232
27829W        W91773  44.785  34.070  11.985
27830W        W91774  34.083  27.019  11.947
27831W        W91775  41.936  21.555  11.544
27832W        W91776   5.924  40.923  13.447
27833W        W91777  27.472  24.180  11.090
27834W        W91778  35.461  15.595  12.387
27835W        W91779   8.695  20.256  14.408
27836W        W91780  18.169  28.559  13.482
27837W        W91781  16.766  11.737   0.794
27838W        W91782  24.582  16.273   4.271
27839W        W91783  17.616  13.799  14.470
27840W        W91784  22.197   6.223   2.809
27841W        W91785  42.519   3.400  12.067
27842W        W91786  33.471  18.761  13.049
27843W        W91787   1.379  42.020  11.054
27844W        W91788   2.738  40.958  13.985
27845W        W91789  27.579  26.556   0.316
27846W        W91790  28.622  12.802  12.844
27847W        W91791  44.774   2.784   4.248
27848W        W91792   9.174  22.521   0.827
27849W        W91793  23.038   9.804   1.896
27850W        W91794   2.923  18.180  14.494
27851W        W91795  19.713  17.270   5.198
27852W        W91796   2.750   4.255   4.704
27853W        W91797   8.662   3.275  11.427
27854W        W91798  18.126  19.678   2.883
27855W        W91799  33.508  16.727   2.707
27856W        W91800  10.376  32.901   2.415
27857W        W91801  16.708  31.475   3.861
27858W        W91802  24.707  14.767  13.435
27859W        W91803  22.612  31.916   0.471
27860W        W91804  26.525  14.188  13.965
27861W        W91805  31.517  21.025   4.676
27862W        W91806  37.565  20.536  14.894
27863W        W91807  41.934   4.715   2.356
27864W        W91808  12.667   6.277  13.916
27865W        W91809  22.605  43.357  11.390
27866W        W91810  19.664   1.321   4.185
27867W        W91811  29.097  18.272   5.586
27868W        W91812  22.247   4.833   0.784
27869W        W91813  35.099   7.809   2.349
27870W        W91814  10.349  29.457   1.888
27871W        W91815  17.195  23.516   4.257
27872W        W91816  38.369  32.614   4.235
27873W        W91817  32.545  33.597   0.779
27874W        W91818  17.208  30.599   0.310
27875W        W91819  40.038  36.352  11.876
27876W        W91820  28.473  28.507   0.257
27877W        W91821  17.088  23.653  13.540
27878W        W91822  18.176   4.356  10.449
27879W        W91823   3.936  44.986   0.815
27880W        W91824  26.652   0.267   2.858
27881W        W91825  11.342  26.111  14.325
27882W        W91826  17.768   9.823   2.224
27883W        W91827  21.709   9.201   1.322
27884W        W91828  29.976  25.654  13.547
27885W        W91829  25.620  41.969  13.042
27886W        W91830  44.468  25.211  14.781
27887W        W91831  29.622  22.524  14.957
27888W        W91832  11.191  38.952  14.901
27889W        W91833  32.080  29.965  13.384
27890W        W91834  10.206  33.889  10.493
27891W        W91835  39.057  26.658   3.729
27892W        W91836   1.856  28.077   0.959
27893W        W91837   3.215  31.996   1.840
27894W        W91838  19.549  17.144  14.335
27895W        W91839  32.427  15.185  14.290
27896W        W91840  17.560   3.754  11.893
27897W        W91841  29.115  29.934  11.557
27898W        W91842  10.861   6.315   2.901
27899W        W91843  35.005  18.145   3.152
27900W        W91844  14.220  14.113   4.334
27901W        W91845   3.356   0.798   0.846
27902W        W91846  33.573  19.622   2.687
27903W        W91847  31.067  42.982  11.066
27904W        W91848  16.144   0.300   2.399
27905W        W91849  44.805  43.458   1.424
27906W        W91850  25.216  27.598   0.467
27907W        W91851  33.986  31.623   3.227
27908W        W91852  39.424  24.201  11.432
27909W        W91853  37.447   0.790   1.832
27910W        W91854  26.556  33.085  11.468
27911W        W91855   1.377   7.300  14.502
27912W        W91856  14.600   3.342   1.919
27913W        W91857  12.202  39.369   4.707
27914W        W91858  36.933  14.681   0.273
27915W        W91859  14.287  35.890   1.750
27916W        W91860   2.777  39.388  14.471
27917W        W91861  37.029  11.208  14.827
27918W        W91862  29.126  32.474   2.811
27919W        W91863  19.602  22.578   1.931
27920W        W91864   3.434   3.404   1.872
27921W        W91865   1.361  34.488   2.874
27922W        W91866  40.537   6.378  14.323
27923W        W91867  37.943   0.933  10.009
27924W        W91868  29.090  24.098  10.888
27925W        W91869  26.651  35.568  14.508
27926W        W91870  40.018  35.907  11.057
27927W        W91871  44.399  35.939   0.294
27928W        W91872  13.698  13.775  11.023
27929W        W91873  44.852  31.522   4.201
27930W        W91874   2.769  29.153  11.438
27931W        W91875  39.344  28.097   0.302
27932W        W91876  16.751   2.292   3.697
27933W        W91877  37.980   0.326   2.322
27934W        W91878  28.619  43.341  11.433
27935W        W91879  22.559  19.683   3.307
27936W        W91880  39.833  18.655  14.991
27937W        W91881  24.682  36.012  12.055
27938W        W91882  34.543   6.691   4.246
27939W        W91883   7.195   0.812  12.912
27940W        W91884  13.158  24.665  10.524
27941W        W91885  14.152  24.625   0.743
27942W        W91886  31.014  25.617  13.545
27943W        W91887  33.927  15.087   0.904
27944W        W91888  26.161  34.551  12.496
27945W        W91889  31.427  35.393   1.802
27946W        W91890   8.681  33.614  14.491
27947W        W91891  16.716  35.938  11.541
27948W        W91892  38.498  30.464   4.709
27949W        W91893   5.762   3.859  13.318
27950W        W91894  37.948  36.389   4.670
27951W        W91895  36.526  39.934  11.605
27952W        W91896  10.807  19.692   1.259
27953W        W91897  37.368  13.839   1.421
27954W        W91898  12.676  40.494   0.356
27955W        W91899  31.983   9.739  10.921
27956W        W91900  22.039   2.818   0.305
27957W        W91901  22.537  25.635  10.436
27958W        W91902  32.020  17.762  13.810
27959W        W91903  30.017  11.814  14.791
27960W        W91904   7.682  41.859   4.345
27961W        W91905   3.837   3.944  10.958
27962W        W91906  35.962   2.767   4.793
27963W        W91907   0.898  34.054  10.909
27964W        W91908  20.139  14.271  11.390
27965W        W91909   8.747  23.621   0.876
27966W        W91910  39.928  24.993   1.835
27967W        W91911  41.023  39.863  11.087
27968W        W91912  22.141  22.659  13.376
27969W        W91913  19.057  20.586  12.955
27970W        W91914  42.967  18.148   2.780
27971W        W91915   0.296   4.225  11.464
27972W        W91916  11.278  23.237  10.910
27973W        W91917   7.864  15.790   1.221
27974W        W91918   0.882   9.264   2.814
27975W        W91919   8.177  32.520   1.918
27976W        W91920   6.731   5.320   1.248
27977W        W91921   1.842  35.920   0.280
27978W        W91922   6.771  30.146  13.352
27979W        W91923  26.987  14.645   1.736
27980W        W91924  26.646  18.571  12.409
27981W        W91925  26.647   6.201  14.296
27982W        W91926  41.482  15.184  11.476
27983W        W91927  34.101   9.770   3.331
27984W        W91928  35.010  19.671  10.499
27985W        W91929  12.677   4.791   3.304
27986W        W91930  33.617  23.122  12.429
27987W        W91931  29.631   3.295  14.337
27988W        W91932  15.178  22.511  12.023
27989W        W91933  41.962   9.289  10.516
27990W        W91934  39.339  25.623  11.592
27991W        W91935  32.617  32.415   4.229
27992W        W91936  40.540  31.483  10.555
27993W        W91937  29.127  10.715  14.965
27994W        W91938  30.565  12.825  14.897
27995W        W91939   6.728   0.363  13.800
27996W        W91940  34.914  25.108  12.011
27997W        W91941  16.665   0.743  14.858
27998W        W91942  40.798   0.856   2.342
27999W        W91943   0.852  42.028  11.994
28000W        W91944  31.936   0.957  12.464
28001W        W91945  21.530  30.029   2.345
28002W        W91946  27.025  18.715   1.336
28003W        W91947  23.068   9.185   2.301
28004W        W91948  13.246  13.288   1.337
28005W        W91949  16.266  40.509   3.371
28006W        W91950  29.120  25.613   2.752
28007W        W91951  32.624  26.582  14.289
28008W        W91952   0.836   0.965   2.709
28009W        W91953  40.051  27.519  11.012
28010W        W91954  18.165  37.886  13.980
28011W        W91955  41.891  18.585   4.675
28012W        W91956   7.804  25.587   0.842
28013W        W91957  19.601   2.758  12.489
28014W        W91958  26.136   3.245   1.816
28015W        W91959   5.420  19.668  12.468
28016W        W91960  21.024  15.282   0.482
28017W        W91961  40.476  21.141   3.804
28018W        W91962  25.502  11.859  13.950
28019W        W91963  28.028  27.620  11.403
28020W        W91964  27.468  43.912  10.962
28021W        W91965  11.218  24.025  11.095
28022W        W91966   6.714  31.419  12.401
28023W        W91967   1.734  32.926   1.895
28024W        W91968  20.108  42.364   3.835
28025W        W91969   1.471  34.594   4.345
28026W        W91970  19.039  12.630  13.891
28027W        W91971   3.339   1.336  10.537
28028W        W91972  20.610   8.288  12.015
28029W        W91973  18.745  35.407  12.904
28030W        W91974  43.401  19.688   3.676
28031W        W91975  30.500  13.804  12.563
28032W        W91976  43.959  34.887  11.103
28033W        W91977  44.768  42.514  14.762
28034W        W91978  27.461   1.280  10.945
28035W        W91979  15.288  29.117  12.078
28036W        W91980   3.404  11.653   2.372
28037W        W91981  38.340  34.393  11.539
28038W        W91982   2.437   2.771  13.411
28039W        W91983   5.263  20.106  14.470
28040W        W91984   5.922  31.450  10.959
28041W        W91985   9.678   7.852  13.006
28042W        W91986  25.496   6.898   3.684
28043W        W91987  16.306  26.115  11.594
28044W        W91988  40.982  26.625   0.864
28045W        W91989   4.302  17.278  13.520
28046W        W91990  33.550  40.914   3.233
28047W        W91991  43.018  39.424  11.002
28048W        W91992  11.273  24.996  11.117
28049W        W91993  41.372  29.156   2.358
28050W        W91994  18.775  17.749  12.877
28051W        W91995  32.032   4.842   3.351
28052W        W91996  21.610  30.949   3.682
28053W        W91997  26.493  26.660  12.001
28054W        W91998   5.894  27.940   2.179
28055W        W91999  16.160  26.579  14.329
28056W        W92000  15.650   9.816  12.829
28057W        W92001  22.248  11.663   3.755
28058W        W92002  33.426  39.400   4.653
28059W        W92003  41.883   8.293   4.672
28060W        W92004  19.651  34.030  13.814
28061W        W92005  41.386  12.284  11.058
28062W        W92006  25.607   3.740   4.289
28063W        W92007  10.776  22.552  12.421
28064W        W92008  42.481  14.307  14.016
28065W        W92009  22.577  15.666   2.823
28066W        W92010  37.857  20.688  12.439
28067W        W92011  24.524  17.091  12.997
28068W        W92012  23.498  10.753   3.194
28069W        W92013  37.427  27.526   9.938
28070W        W92014  41.493  44.902   1.729
28071W        W92015  28.553  42.310   0.904
28072W        W92016  22.051  38.556   0.365
28073W        W92017  26.028  41.922  12.831
28074W        W92018  37.033  40.360   3.326
28075W        W92019  43.303   3.846   2.859
28076W        W92020  14.321   5.822   2.893
28077W        W92021  37.350   3.800  13.055
28078W        W92022  31.092  32.607  14.433
28079W        W92023  35.436  44.481  11.860
28080W        W92024   4.237  36.019   2.669
28081W        W92025  35.503   8.238  14.399
28082W        W92026  37.917   1.771   3.322
28083W        W92027  22.526  23.728  14.787
28084W        W92028  27.022  17.638  12.501
28085W        W92029   8.883  27.015   5.240
28086W        W92030  23.190  39.499  14.441
28087W        W92031  30.450   5.308  10.991
28088W        W92032  27.085  19.713  11.501
28089W        W92033  35.013   6.256   0.836
28090W        W92034   7.689   1.905  13.308
28091W        W92035  39.965  25.483  13.432
28092W        W92036  16.579   3.402  10.931
28093W        W92037  13.162  40.938  14.794
28094W        W92038  25.527   5.841   2.786
28095W        W92039  26.961  31.476   0.793
28096W        W92040  37.465  33.945  12.872
28097W        W92041  23.500  20.267  12.462
28098W        W92042  35.509  11.248   3.347
28099W        W92043  43.770   5.236  13.332
28100W        W92044  31.632  18.290  14.828
28101W        W92045  17.744   3.770  14.822
28102W        W92046  26.967  10.246   4.703
28103W        W92047  41.912   4.741  14.493
28104W        W92048   0.339  31.930   3.784
28105W        W92049   5.783  41.948   3.759
28106W        W92050  40.464  19.637  12.021
28107W        W92051   1.814  42.784  13.422
28108W        W92052  31.455  35.389   0.940
28109W        W92053  22.997   1.807  13.049
28110W        W92054  44.999  15.790   1.293
28111W        W92055  16.663  12.631   1.738
28112W        W92056  39.328  39.509  12.996
28113W        W92057  18.247  25.056   2.240
28114W        W92058   3.354   7.730  13.849
28115W        W92059  12.615  24.611   4.230
28116W        W92060  21.139  24.981   3.731
28117W        W92061  43.503  39.987   0.841
28118W        W92062  16.128  37.442   3.644
28119W        W92063  38.071   6.737  11.866
28120W        W92064  11.304  19.201  14.795
28121W        W92065  43.461  24.131  14.357
28122W        W92066  42.331  18.158  11.383
28123W        W92067  20.247   7.322  10.450
28124W        W92068  24.085   6.363  11.929
28125W        W92069  39.965   0.293   0.460
28126W        W92070  39.510   6.677  10.891
28127W        W92071  19.089  42.963   1.728
28128W        W92072   6.804  17.242  14.295
28129W        W92073  26.994   3.923  14.480
28130W        W92074  35.412  36.416   0.360
28131W        W92075   2.315   8.222  11.070
28132W        W92076  19.658  14.252  12.849
28133W        W92077  11.240  33.041  13.466
28134W        W92078   4.830  11.282  14.797
28135W        W92079  18.637   3.402   3.642
28136W        W92080   2.944  10.862  14.433
28137W        W92081  19.098  37.906  10.956
28138W        W92082  21.220  24.150  10.946
28139W        W92083  12.309  31.075   4.170
28140W        W92084  20.255  12.142   2.395
28141W        W92085  43.358  26.656   1.697
28142W        W92086   4.859  28.676   4.349
28143W        W92087  37.066   3.748   5.638
28144W        W92088  39.464  26.552   4.765
28145W        W92089  20.533   7.322  10.447
28146W        W92090  10.165  14.709   0.938
28147W        W92091  32.048  24.541   3.281
28148W        W92092  23.992  27.139  14.843
28149W        W92093  37.476   8.180   0.845
28150W        W92094  23.058  15.290   2.701
28151W        W92095  36.889  36.502  10.635
28152W        W92096  28.041  22.505   3.741
28153W        W92097  24.584  30.447   0.950
28154W        W92098  25.060  19.096   2.860
28155W        W92099  44.319  28.931   1.902
28156W        W92100  26.683  37.418  10.472
28157W        W92101  20.528  28.626   2.200
28158W        W92102   3.830  26.049   4.711
28159W        W92103  10.847  44.001   1.902
28160W        W92104  35.394  38.000  13.842
28161W        W92105  44.993  28.952   1.801
28162W        W92106  34.029  28.998  11.088
28163W        W92107  34.912  17.783  13.534
28164W        W92108  22.189   4.805  14.448
28165W        W92109   3.717  21.606  11.922
28166W        W92110  30.540   8.858  11.947
28167W        W92111  26.183  32.995   4.274
28168W        W92112  18.732  34.934  11.440
28169W        W92113  21.587  26.542   3.260
28170W        W92114  19.211   3.459   3.176
28171W        W92115  33.531  13.125  13.526
28172W        W92116   1.853  30.026  12.095
28173W        W92117  35.359  20.051  12.371
28174W        W92118  27.997  43.333  14.407
28175W        W92119   0.259  43.913  14.385
28176W        W92120   3.925  37.840  13.816
28177W        W92121  22.056  29.520   0.470
28178W        W92122  20.148  16.681  13.840
28179W        W92123  19.548  35.002  10.581
28180W        W92124  43.836   3.353   0.295
28181W        W92125  22.523  44.286  14.915
28182W        W92126   2.758  20.267   1.695
28183W        W92127   8.389  41.535   4.748
28184W        W92128  38.557  41.803  10.942
28185W        W92129  36.065  22.677  12.427
28186W        W92130  19.666  28.459  14.452
28187W        W92131  11.371  35.052   0.317
28188W        W92132  13.829  32.564  13.864
28189W        W92133   7.708  17.740   0.765
28190W        W92134  14.716  21.203  11.930
28191W        W92135  22.565  28.068   2.728
28192W        W92136  17.145   8.179   2.342
28193W        W92137  20.695  37.839  14.861
28194W        W92138  42.335  18.663  14.452
28195W        W92139  12.688  34.483   4.136
28196W        W92140  20.706  12.746  10.545
28197W        W92141  18.643  15.634   4.173
28198W        W92142  23.679   8.318  12.050
28199W        W92143  28.541   1.468   3.819
28200W        W92144  24.987  38.930   3.662
28201W        W92145   4.346  20.220   3.386
28202W        W92146  43.786  26.660  12.931
28203W        W92147  13.770  37.015  12.089
28204W        W92148  15.283  41.337  13.039
28205W        W92149  17.682  26.998  11.930
28206W        W92150   4.713  34.546  12.930
28207W        W92151   5.753  24.521  14.454
28208W        W92152  36.980  42.525   0.465
28209W        W92153  24.510  20.619   3.265
28210W        W92154  23.166  22.156   0.780
28211W        W92155  44.773  39.919   4.601
28212W        W92156  32.527   9.395  13.924
28213W        W92157  17.569  20.631   0.254
28214W        W92158  14.710  36.053  14.450
28215W        W92159  44.260  15.597   0.960
28216W        W92160  42.290  32.946  13.344
28217W        W92161  40.007  25.579   4.774
28218W        W92162   0.397  44.757   2.721
28219W        W92163   5.919   0.960  11.391
28220W        W92164  44.953  29.003  10.949
28221W        W92165  17.572  42.920  13.533
28222W        W92166  40.314  29.147   1.752
28223W        W92167   4.430  44.372  11.929
28224W        W92168  27.506  36.906  10.444
28225W        W92169  21.745  12.130  11.944
28226W        W92170  14.626  29.112  13.958
28227W        W92171  39.808  12.831   4.233
28228W        W92172  23.710  13.173   4.689
28229W        W92173  16.655  22.618  12.390
28230W        W92174  16.665  13.348   1.431
28231W        W92175  19.251  39.826  12.954
28232W        W92176  36.997   6.336  13.945
28233W        W92177  10.660  17.690   0.251
28234W        W92178   1.806   4.281   2.315
28235W        W92179  43.372  23.201   1.430
28236W        W92180   4.326  21.123  10.110
28237W        W92181  18.246   1.353   0.799
28238W        W92182  37.996  17.285  13.323
28239W        W92183   2.396   2.437  13.535
28240W        W92184   9.233  22.190   3.160
28241W        W92185   5.338   3.311   1.430
28242W        W92186  31.912  12.351  12.996
28243W        W92187  15.101  22.017   4.653
28244W        W92188   5.905  32.067   4.230
28245W        W92189  29.170  12.261  10.463
28246W        W92190  16.714   5.209   2.407
28247W        W92191  13.123   1.299   4.617
28248W        W92192   1.473   6.285   1.296
28249W        W92193  37.907  32.507   2.313
28250W        W92194  32.532   2.914  13.836
28251W        W92195  16.221  30.508  12.836
28252W        W92196  25.139  34.441  13.019
28253W        W92197  23.710  26.575   0.795
28254W        W92198  17.099   4.733  12.468
28255W        W92199  34.864  26.089  14.412
28256W        W92200  34.055   0.748   3.368
28257W        W92201   7.240   9.828   2.370
28258W        W92202  11.174  29.954   3.799
28259W        W92203   3.899   9.395  14.306
28260W        W92204  24.162   7.858  13.028
28261W        W92205  21.535  12.246  10.573
28262W        W92206  17.081  35.393   0.801
28263W        W92207  40.316  30.981   0.325
28264W        W92208  14.330  44.812  10.575
28265W        W92209   1.973  18.073  11.111
28266W        W92210  29.090  18.643   2.283
28267W        W92211  34.032   6.728  13.523
28268W        W92212   2.362  32.916   1.261
28269W        W92213  22.515  12.274  10.967
28270W        W92214  33.521   0.434  13.848
28271W        W92215  22.665   2.792   4.324
28272W        W92216  27.678  41.368   3.712
28273W        W92217   0.927  23.095   1.824
28274W        W92218   0.460   1.792  11.942
28275W        W92219  38.043  37.874  12.975
28276W        W92220  42.527   3.749   2.777
28277W        W92221  22.658  20.648  11.989
28278W        W92222  39.482  22.133   1.307
28279W        W92223   3.290   5.883  12.550
28280W        W92224   2.831   4.924   0.966
28281W        W92225  41.994  43.432   0.368
28282W        W92226  34.602  28.162  12.560
28283W        W92227  31.999  34.057   3.269
28284W        W92228  37.389  23.622  14.464
28285W        W92229  28.972   2.414   2.702
28286W        W92230  36.903  41.496  11.537
28287W        W92231  32.903   1.450   3.189
28288W        W92232  35.454  23.627   0.967
28289W        W92233  14.285   5.223   0.472
28290W        W92234  12.324   6.233   1.386
28291W        W92235  43.776  42.996   5.186
28292W        W92236  31.444  32.059   0.884
28293W        W92237  12.719  25.031   1.265
28294W        W92238  39.995   9.757  10.495
28295W        W92239  31.608   9.331  12.838
28296W        W92240  32.961   1.894   0.943
28297W        W92241   1.782  38.867   3.745
28298W        W92242  28.139  35.079  12.941
28299W        W92243  33.981   8.678   3.795
28300W        W92244   8.756  28.660   4.240
28301W        W92245  17.220  37.454   1.912
28302W        W92246  10.814  29.448  14.909
28303W        W92247  19.551  36.886  11.107
28304W        W92248   8.769  15.782   3.838
28305W        W92249  23.731   8.723   1.254
28306W        W92250  13.731   7.229   1.851
28307W        W92251   3.407   6.891   3.339
28308W        W92252  41.402  10.738   2.405
28309W        W92253  23.702  17.756   0.816
28310W        W92254  41.014   8.341   1.863
28311W        W92255   0.870  23.146  11.047
28312W        W92256  17.286  12.253  10.604
28313W        W92257  38.416  14.101  11.441
28314W        W92258  20.640  11.365   2.722
28315W        W92259  22.999  35.070  13.965
28316W        W92260  13.192  39.328  13.351
28317W        W92261   0.937  33.605  12.941
28318W        W92262   9.850  37.365   1.439
28319W        W92263  10.750  18.767  14.426
28320W        W92264   8.167  29.052  12.539
28321W        W92265  16.636  15.754  14.300
28322W        W92266   9.275  35.509  12.434
28323W        W92267  25.603  33.547   3.253
28324W        W92268  20.185   2.238   1.713
28325W        W92269  34.044  20.630  10.985
28326W        W92270  44.907  23.071  11.875
28327W        W92271  32.129  36.566  11.417
28328W        W92272   5.770  34.419   1.929
28329W        W92273  31.998  26.019  14.936
28330W        W92274  32.981   5.385  12.435
28331W        W92275  18.156   2.281   1.809
28332W        W92276   6.721  26.589   5.150
28333W        W92277  20.581  10.377   0.963
28334W        W92278  32.547  12.147  10.620
28335W        W92279  10.384  37.972  13.538
28336W        W92280  14.637  43.888  12.953
28337W        W92281  31.412   7.411  13.904
28338W        W92282  15.199  18.755   4.182
28339W        W92283   3.444  10.736  11.949
28340W        W92284  34.922  19.588  12.892
28341W        W92285  18.072   6.295   1.247
28342W        W92286  23.684  25.968  11.425
28343W        W92287  33.877   1.831   1.320
28344W        W92288  32.577   0.852  14.443
28345W        W92289  28.092   9.167   3.335
28346W        W92290  17.127  24.164   3.280
28347W        W92291  28.518  12.808  12.387
28348W        W92292   4.897  21.056  14.494
28349W        W92293  20.554  29.129  13.866
28350W        W92294   3.320  37.008  14.296
28351W        W92295   3.750   9.821   4.319
28352W        W92296   2.270  30.109   4.260
28353W        W92297  30.116  31.414  13.855
28354W        W92298  25.036  20.050   1.423
28355W        W92299   6.266   5.323   4.298
28356W        W92300  26.535   5.245   4.612
28357W        W92301  35.549   3.431   2.285
28358W        W92302  38.328  15.739  14.942
28359W        W92303  34.975  13.714   0.918
28360W        W92304  20.197  29.495  10.620
28361W        W92305  32.115  16.581  14.377
28362W        W92306  44.962   5.205  12.829
28363W        W92307  10.179  20.569   0.814
28364W        W92308  10.305   1.446   1.716
28365W        W92309  15.187  42.848   0.426
28366W        W92310  43.799  13.165   0.482
28367W        W92311  33.449  13.836  12.407
28368W        W92312  13.684  32.428   3.341
28369W        W92313  24.721  39.558   0.869
28370W        W92314  17.128  27.178   4.652
28371W        W92315  30.975   1.312   3.350
28372W        W92316  32.566  15.089   3.285
28373W        W92317   3.877   9.647  13.368
28374W        W92318  21.549  40.830   2.413
28375W        W92319  30.462   0.961   3.870
28376W        W92320  11.315  25.662  12.027
28377W        W92321  19.770  39.414   0.452
28378W        W92322  42.372  40.347  10.426
28379W        W92323  29.163  40.364  11.859
28380W        W92324  39.036  44.949   5.229
28381W        W92325   6.691  13.833  12.471
28382W        W92326   4.789  19.282  14.969
28383W        W92327   1.285  13.348   1.884
28384W        W92328  25.984  21.149  14.991
28385W        W92329  41.979  13.319  14.007
28386W        W92330  17.716  34.477  13.796
28387W        W92331  44.006  14.593   2.893
28388W        W92332  13.703  22.052   3.698
28389W        W92333   3.311  24.013   2.215
28390W        W92334  26.683  13.220  14.877
28391W        W92335   5.815   3.862   1.768
28392W        W92336  38.820  12.197  10.434
28393W        W92337  16.299  22.228  13.979
28394W        W92338  37.342   7.736   0.264
28395W        W92339  38.473   9.718  12.366
28396W        W92340  35.937  36.055   4.202
28397W        W92341  27.571  36.559  12.078
28398W        W92342  27.150  43.804   4.828
28399W        W92343  36.376   2.735  13.321
28400W        W92344  17.301  25.651   3.219
28401W        W92345  14.735  16.721   1.771
28402W        W92346  17.668  40.802  14.288
28403W        W92347  23.047   4.890   3.661
28404W        W92348  41.856  38.826  12.421
28405W        W92349  43.903  28.599   4.601
28406W        W92350  44.286  35.023  13.460
28407W        W92351  30.581   4.208   0.852
28408W        W92352  25.057   5.309   1.410
28409W        W92353  39.412   5.237  12.417
28410W        W92354   0.826  14.281   0.847
28411W        W92355  22.103  30.523   4.139
28412W        W92356  11.684   6.797   4.686
28413W        W92357  25.487  13.205   1.873
28414W        W92358   9.855  23.180   2.839
28415W        W92359  32.584  23.183   0.409
28416W        W92360  22.710  37.471  14.277
28417W        W92361  37.419   8.322  11.528
28418W        W92362  17.123   1.945  11.497
28419W        W92363   5.773  40.465  14.350
28420W        W92364  41.387   9.881  12.961
28421W        W92365  18.194   1.898   1.829
28422W        W92366  28.041  13.756   2.753
28423W        W92367  36.895   0.791   3.362
28424W        W92368  40.854   8.681  11.985
28425W        W92369  31.911  22.673  12.458
28426W        W92370  23.696  41.436   1.885
28427W        W92371  16.163  27.962  13.975
28428W        W92372  31.091  26.988   4.801
28429W        W92373  29.129   1.393  14.466
28430W        W92374  23.636  23.090   0.736
28431W        W92375  34.541  24.714  14.405
28432W        W92376   1.411  40.028  10.493
28433W        W92377  16.200  35.025  12.039
28434W        W92378  17.259  14.747   3.342
28435W        W92379   8.392   4.428   1.873
28436W        W92380  29.616  20.271  13.429
28437W        W92381   3.398  29.507   5.083
28438W        W92382  12.689  21.123  12.001
28439W        W92383  32.463  33.981   2.251
28440W        W92384  18.557  13.324  14.827
28441W        W92385  41.459  38.357  12.374
28442W        W92386  13.816  11.667   4.690
28443W        W92387  32.954   2.369  10.994
28444W        W92388  22.595  12.146   3.368
28445W        W92389  44.941  40.924  11.451
28446W        W92390  13.176  37.871   0.290
28447W        W92391  39.546  13.683  11.103
28448W        W92392  14.795  44.977  11.548
28449W        W92393  44.443  10.330  13.853
28450W        W92394  39.549  20.047  11.379
28451W        W92395  24.199  39.889   2.232
28452W        W92396  36.980  10.759   0.907
28453W        W92397   4.351  40.442   3.734
28454W        W92398  20.084   6.677   9.986
28455W        W92399  14.132  33.996  14.477
28456W        W92400  43.509  27.994  10.618
28457W        W92401   2.754  14.167   4.607
28458W        W92402  32.937  43.293  12.474
28459W        W92403  14.140  40.000   1.814
28460W        W92404  33.580  36.389   0.414
28461W        W92405  22.592  37.517   5.200
28462W        W92406  42.800  15.245  10.564
28463W        W92407  30.141  16.766  11.494
28464W        W92408  12.215  17.062  13.846
28465W        W92409   2.728   7.788   0.896
28466W        W92410   8.875  16.205   1.357
28467W        W92411  16.195  28.136  14.762
28468W        W92412  22.205  26.505   2.795
28469W        W92413  35.416  33.044  14.987
28470W        W92414  35.365  36.027  10.622
28471W        W92415  39.522  27.583  13.527
28472W        W92416   6.876   8.393  12.985
28473W        W92417  41.397  29.133   0.939
28474W        W92418  21.191  11.230  11.577
28475W        W92419   9.300  11.179  10.969
28476W        W92420  32.510   8.282  14.806
28477W        W92421  13.759  20.593  13.321
28478W        W92422  36.051  25.126  10.525
28479W        W92423  36.556  29.007   5.209
28480W        W92424  40.998  41.963   2.261
28481W        W92425  25.976  18.166   1.760
28482W        W92426  13.163  32.131  10.106
28483W        W92427  21.559  40.440   0.265
28484W        W92428   4.383  22.151   4.203
28485W        W92429  20.132   7.184  13.033
28486W        W92430  42.975  41.988  12.888
28487W        W92431  20.734  24.076  10.926
28488W        W92432  32.098  43.381  12.964
28489W        W92433  21.222   3.349  12.862
28490W        W92434  30.916   4.319  12.840
28491W        W92435  10.214  44.343   5.238
28492W        W92436  43.424  31.418   0.815
28493W        W92437  32.086  21.240   3.218
28494W        W92438  14.271  40.820   3.661
28495W        W92439  25.639  26.094  14.996
28496W        W92440  40.979  29.036   2.248
28497W        W92441   7.773  27.683   3.857
28498W        W92442  35.590   3.816  11.460
28499W        W92443  27.523   1.893   2.285
28500W        W92444  38.546  27.010   1.797
28501W        W92445  39.317  41.954   1.372
28502W        W92446  10.760  44.943  13.392
28503W        W92447  21.227   6.768   4.301
28504W        W92448  39.914  28.488   3.159
28505W        W92449  42.458  17.208  11.547
28506W        W92450  42.403  13.613   2.734
28507W        W92451  25.661   1.879   1.892
28508W        W92452  19.690   0.868   2.865
28509W        W92453  40.309  41.294  14.383
28510W        W92454  32.633  25.656  12.367
28511W        W92455  20.584  11.309   1.932
28512W        W92456  18.601  40.942  13.451
28513W        W92457  20.650  16.752   0.426
28514W        W92458  20.065  28.033   5.267
28515W        W92459  21.259  34.059  13.798
28516W        W92460  17.196   0.969   4.290
28517W        W92461  26.150  26.085   2.829
28518W        W92462  39.382   3.874   2.737
28519W        W92463   4.773  28.935  13.428
28520W        W92464  44.998  23.700   0.390
28521W        W92465  22.727  22.112   4.677
28522W        W92466  14.824  12.804  11.587
28523W        W92467  29.605  33.571   3.298
28524W        W92468   9.743   0.321   4.181
28525W        W92469  28.443   1.951  14.820
28526W        W92470   7.710  31.453  12.825
28527W        W92471  36.507  32.022  12.416
28528W        W92472  15.760  39.017  10.426
28529W        W92473  13.318  40.895  13.420
28530W        W92474  39.013   2.355  12.844
28531W        W92475  41.797   5.280   1.418
28532W        W92476   7.860  34.481  10.004
28533W        W92477  40.349  15.135  11.064
28534W        W92478   0.927  37.568   2.735
28535W        W92479  35.440  29.585   0.405
28536W        W92480  23.616  25.505  14.503
28537W        W92481   1.797  12.775  11.922
28538W        W92482  28.480  40.381  14.920
28539W        W92483  13.129  41.385   0.360
28540W        W92484  31.941  29.580   3.791
28541W        W92485  32.991  44.283   4.119
28542W        W92486  35.912  31.907  10.487
28543W        W92487  27.022  41.819   2.712
28544W        W92488  40.445  29.542  13.981
28545W        W92489  36.515  29.634   0.848
28546W        W92490   6.881  41.933   1.726
28547W        W92491  23.721  18.284  12.450
28548W        W92492  39.831   6.835   3.709
28549W        W92493  31.612  21.199   2.838
28550W        W92494  17.299  29.975  14.848
28551W        W92495  43.875  10.792  14.407
28552W        W92496  31.942   7.326  14.990
28553W        W92497  43.792  36.943   0.419
28554W        W92498  13.779  24.088   1.287
28555W        W92499   0.761  25.649   1.377
28556W        W92500  21.722   9.860  13.884
28557W        W92501  35.953  29.583   2.879
28558W        W92502  28.480  16.573  10.471
28559W        W92503  38.457   0.826  10.954
28560W        W92504   6.809   0.464   1.297
28561W        W92505   9.714  38.952  11.096
28562W        W92506  14.652  40.819   3.754
28563W        W92507  27.519  44.004  13.515
28564W        W92508  13.231  38.951   0.909
28565W        W92509   5.254  12.736   2.389
28566W        W92510  44.758  44.264   3.769
28567W        W92511   0.333  10.356   3.753
28568W        W92512  16.614  39.361   3.156
28569W        W92513   9.369  11.799  11.979
28570W        W92514   2.800  43.314   1.291
28571W        W92515  36.476  15.804   2.309
28572W        W92516  28.604   4.791   1.790
28573W        W92517   0.343  12.183   2.870
28574W        W92518  21.233  38.996  13.920
28575W        W92519   0.958  14.238  12.550
28576W        W92520  36.428  12.837  11.992
28577W        W92521  32.425   8.860  13.975
28578W        W92522  11.692  21.561   3.361
28579W        W92523  43.785   0.881   4.290
28580W        W92524  13.254  35.491   1.435
28581W        W92525  30.535  15.756   3.825
28582W        W92526  21.148  15.095   1.767
28583W        W92527   4.397  35.575  14.478
28584W        W92528  23.617   4.906   0.792
28585W        W92529  24.655  17.765   1.807
28586W        W92530  29.511  33.623   2.403
28587W        W92531  22.513   4.866   2.777
28588W        W92532  23.537   6.363  10.617
28589W        W92533  44.333  40.306   2.690
28590W        W92534  24.538  12.706  12.377
28591W        W92535  30.448   0.336  11.989
28592W        W92536  31.554   7.385  14.811
28593W        W92537  36.552  37.015   2.717
28594W        W92538  43.907  42.518  13.499
28595W        W92539  38.928  26.034   3.764
28596W        W92540  25.069  40.310  14.282
28597W        W92541  35.494  12.721   1.410
28598W        W92542  17.726  13.173  14.470
28599W        W92543  42.988  30.914  10.584
28600W        W92544   8.731  43.807  14.452
28601W        W92545  40.328  42.783  12.049
28602W        W92546  32.064  45.000  14.372
28603W        W92547  31.539   6.248   4.292
28604W        W92548  42.808  20.183   1.789
28605W        W92549   7.356   0.914   0.271
28606W        W92550  11.757  14.127  14.771
28607W        W92551  24.487  23.631  11.876
28608W        W92552  14.698  33.081  14.485
28609W        W92553  26.629  13.805  11.000
28610W        W92554  20.732  11.217   0.829
28611W        W92555  16.715   6.382  14.934
28612W        W92556  22.626  30.034   3.366
28613W        W92557   8.775  41.030  11.983
28614W        W92558  12.798  21.583   1.335
28615W        W92559   2.835  11.253  13.902
28616W        W92560  24.647  30.656   3.824
28617W        W92561  34.041  30.059  12.021
28618W        W92562  30.103  17.088  11.103
28619W        W92563  21.701  34.496   2.286
28620W        W92564  25.162  22.613   4.137
28621W        W92565   3.333  28.665   3.829
28622W        W92566  36.860  18.051  11.424
28623W        W92567  22.079  29.658  12.846
28624W        W92568  10.814  23.613  10.951
28625W        W92569   8.720  22.006  14.326
28626W        W92570  27.581   0.273   3.199
28627W        W92571  34.456   6.367  14.002
28628W        W92572  27.098  10.704   3.685
28629W        W92573  35.033  41.928  13.547
28630W        W92574  41.294  26.169  12.029
28631W        W92575  19.048   6.225   3.376
28632W        W92576   8.855  22.172   0.962
28633W        W92577  25.572  41.838  12.020
28634W        W92578  20.709   1.302   0.286
28635W        W92579  15.607  16.766  10.094
28636W        W92580   6.762   2.366   4.230
28637W        W92581   2.899   4.730  13.901
28638W        W92582   9.757  32.534   1.934
28639W        W92583  38.526   8.846  10.620
28640W        W92584  22.152  29.033   4.621
28641W        W92585   0.409  11.742   3.312
28642W        W92586  37.914  42.324  12.073
28643W        W92587  18.567   4.433  11.869
28644W        W92588  35.854  38.494   3.663
28645W        W92589   2.445  12.686  12.963
28646W        W92590  30.509  35.382  13.533
28647W        W92591  26.656  32.461   4.620
28648W        W92592  21.032  40.955  13.458
28649W        W92593  20.035  17.119   3.308
28650W        W92594   0.960   5.435   0.383
28651W        W92595  23.536  40.846  12.540
28652W        W92596  37.039   8.721  12.431
28653W        W92597  29.494  16.222   2.291
28654W        W92598  26.957  20.067  12.416
28655W        W92599  30.131  13.313  14.446
28656W        W92600  23.223  43.477  10.905
28657W        W92601   4.367   2.909  13.433
28658W        W92602  30.435  38.471  11.452
28659W        W92603  42.862  29.471   0.908
28660W        W92604  10.679  29.169   1.699
28661W        W92605   5.390  11.778   2.866
28662W        W92606   4.709  25.506  12.944
28663W        W92607  38.510  13.260   0.438
28664W        W92608   0.798  27.658   0.762
28665W        W92609  20.179   2.398  14.382
28666W        W92610  28.665  26.465   3.242
28667W        W92611  22.077   2.917  10.959
28668W        W92612  13.145   0.461  11.025
28669W        W92613  21.110   5.849   3.839
28670W        W92614   7.682  20.120  10.457
28671W        W92615   5.751   7.233   2.792
28672W        W92616  11.129   2.893   0.867
28673W        W92617  37.379  29.480  11.578
28674W        W92618   8.775  12.738  13.331
28675W        W92619  40.414  31.968   4.152
28676W        W92620   3.789  10.176   2.243
28677W        W92621   6.894  17.679   0.942
28678W        W92622  23.618   7.826  11.396
28679W        W92623   7.855  15.218  11.426
28680W        W92624  11.651  25.038  14.011
28681W        W92625  18.144  22.692   2.308
28682W        W92626   5.402  33.959   1.727
28683W        W92627  33.054   2.472   4.745
28684W        W92628  23.086  15.309  14.935
28685W        W92629  20.671   0.427   4.601
28686W        W92630   6.709  21.226   1.279
28687W        W92631  31.434   4.443   1.270
28688W        W92632  13.820  35.503  13.320
28689W        W92633   7.172  32.993   1.730
28690W        W92634  11.662  25.028   4.713
28691W        W92635  43.984  21.224  12.842
28692W        W92636  19.662   9.644   0.427
28693W        W92637   7.361  24.552  11.915
28694W        W92638  20.050  29.571  11.946
28695W        W92639  27.529  21.184  12.437
28696W        W92640   8.828  20.178   2.191
28697W        W92641  31.141  24.218   1.218
28698W        W92642  37.510  42.837  14.298
28699W        W92643  42.450  41.929  13.824
28700W        W92644  30.538  33.959  12.366
28701W        W92645  15.084  25.013  14.278
28702W        W92646  10.689   6.428  10.450
28703W        W92647  26.617   2.940  13.488
28704W        W92648  33.064   7.809  12.871
28705W        W92649  25.530   6.396   5.088
28706W        W92650  27.089  37.838   1.758
28707W        W92651   4.223   5.344   4.343
28708W        W92652  43.455  14.640  14.778
28709W        W92653  40.916  23.105  13.932
28710W        W92654  26.521  14.165   2.334
28711W        W92655  25.212   4.773  11.929
28712W        W92656  41.922  28.525   2.703
28713W        W92657  25.572   7.873   1.433
28714W        W92658   0.804  24.145   2.202
28715W        W92659  21.552  27.989  13.815
28716W        W92660  10.217  32.994  13.889
28717W        W92661  28.179  18.057   1.293
28718W        W92662  33.951  30.084   1.833
28719W        W92663  11.639  31.509  13.929
28720W        W92664  42.385  30.505   0.756
28721W        W92665  23.556  42.831   3.801
28722W        W92666  28.504   5.776   4.247
28723W        W92667  12.283  25.207  12.549
28724W        W92668  29.988  22.065  12.354
28725W        W92669  14.675  10.656   1.835
28726W        W92670  35.955  20.687  10.970
28727W        W92671  33.915  10.377   0.797
28728W        W92672  22.586  38.356  12.416
28729W        W92673  22.040  11.290  14.451
28730W        W92674  31.921  36.870  14.448
28731W        W92675   8.748  10.744   1.923
28732W        W92676   4.437  38.503  13.386
28733W        W92677  27.093  22.667   1.283
28734W        W92678  27.053  29.440   1.821
28735W        W92679  20.559  22.122   1.732
28736W        W92680  23.524  42.302   4.278
28737W        W92681   3.755  20.724  11.952
28738W        W92682   5.697   8.218   1.391
28739W        W92683  41.344  35.039   4.604
28740W        W92684   8.264  29.532  13.842
28741W        W92685  13.666   1.394  11.070
28742W        W92686  19.233  20.661   2.300
28743W        W92687  43.497  29.006  10.644
28744W        W92688  33.939  28.056  13.875
28745W        W92689  15.180  43.860   1.694
28746W        W92690  38.954  18.254  12.983
28747W        W92691   2.847  29.045  14.300
28748W        W92692  15.618   3.913  13.909
28749W        W92693  12.796  15.803  13.390
28750W        W92694  15.306  38.404   0.834
28751W        W92695  28.603  29.586  12.022
28752W        W92696  11.657  40.932  10.601
28753W        W92697  36.929  44.878  11.096
28754W        W92698  35.381  42.831   4.646
28755W        W92699  25.070   6.847   2.228
28756W        W92700  24.586  41.845   1.728
28757W        W92701  27.024  26.123   1.724
28758W        W92702   5.222  38.881   4.635
28759W        W92703  40.363  22.550  12.535
28760W        W92704  19.246  13.110   3.869
28761W        W92705  43.407  27.533  10.516
28762W        W92706  22.548  42.422   1.790
28763W        W92707  18.670  15.163   0.768
28764W        W92708  23.689  22.590   4.134
28765W        W92709  15.578  35.571   0.380
28766W        W92710  29.526   1.359   2.821
28767W        W92711  26.069  35.524   1.774
28768W        W92712  17.176  24.995  13.431
28769W        W92713  18.131  25.649  10.413
28770W        W92714  21.752   9.360  10.536
28771W        W92715  37.079  37.426   4.229
28772W        W92716  44.857  26.519   4.630
28773W        W92717  25.567  24.994  14.376
28774W        W92718   5.698  15.147  14.488
28775W        W92719  18.755  31.590   4.295
28776W        W92720   6.861   5.857  10.978
28777W        W92721  23.513  31.914   1.257
28778W        W92722  21.524  25.163   3.848
28779W        W92723  37.830  20.094   3.156
28780W        W92724   7.275   9.793  14.807
28781W        W92725  32.425  43.373  10.576
28782W        W92726  20.728  13.808  10.574
28783W        W92727  29.098   3.956  12.489
28784W        W92728   1.921  26.177  11.945
28785W        W92729  14.157  36.366   4.775
28786W        W92730   2.427  34.607   5.096
28787W        W92731   3.426   9.790  14.820
28788W        W92732  18.646  15.250   4.175
28789W        W92733  23.540  30.656  12.527
28790W        W92734  18.690  44.404  11.035
28791W        W92735  15.686   9.383   2.340
28792W        W92736  27.091  10.854   2.395
28793W        W92737  34.099  43.485  12.846
28794W        W92738  43.940  28.053  11.404
28795W        W92739   5.916  24.616   3.750
28796W        W92740   9.866  16.691  14.871
28797W        W92741   3.838  41.453  13.492
28798W        W92742  15.661  22.009   2.265
28799W        W92743  31.093  40.012   4.121
28800W        W92744   5.211  41.844  14.940
28801W        W92745  38.870  39.357  14.886
28802W        W92746  44.919  33.625  10.548
28803W        W92747   7.812  41.535   0.252
28804W        W92748  10.742  25.521   4.293
28805W        W92749  16.629  27.009  10.441
28806W        W92750   1.785  15.241  12.355
28807W        W92751  11.827  40.514  11.404
28808W        W92752  21.249  24.989   0.458
28809W        W92753  38.533  22.104   1.346
28810W        W92754  16.637  12.639   0.474
28811W        W92755  31.031  34.053  12.919
28812W        W92756   6.420  18.116   0.286
28813W        W92757  33.909  33.103   1.258
28814W        W92758  30.595   2.295  12.073
28815W        W92759  15.680  35.109   4.818
28816W        W92760   6.353   5.916  10.633
28817W        W92761  36.899  15.107  14.786
28818W        W92762  30.957   4.934  10.429
28819W        W92763  21.093  17.238   4.333
28820W        W92764  22.537  39.063  11.096
28821W        W92765  10.711  18.083   2.411
28822W        W92766  25.156  42.879  11.586
28823W        W92767  34.468   5.734   3.156
28824W        W92768  24.126  42.829  10.640
28825W        W92769  33.595  26.973  12.037
28826W        W92770  41.310  35.498   3.866
28827W        W92771  28.948  31.587  12.357
28828W        W92772  34.397   7.709   1.387
28829W        W92773   6.334  15.693  13.019
28830W        W92774   9.225   2.421  13.867
28831W        W92775   8.287  31.457   2.315
28832W        W92776  20.030  19.605  13.815
28833W        W92777   5.323   3.366   4.144
28834W        W92778   6.916  15.765   5.621
28835W        W92779   1.970   5.915   2.274
28836W        W92780  18.688  34.108  13.373
28837W        W92781  22.615  16.089  13.817
28838W        W92782  31.913   0.899  13.502
28839W        W92783  37.884  39.402  13.856
28840W        W92784  19.192  23.224  12.469
28841W        W92785  28.586   5.392  12.893
28842W        W92786  18.633  25.662   0.851
28843W        W92787  12.662   7.848   4.777
28844W        W92788   8.231  21.199   4.310
28845W        W92789  44.889   5.824   3.848
28846W        W92790  10.183  37.425  11.506
28847W        W92791   5.770   4.863   4.741
28848W        W92792  20.697  34.488  13.362
28849W        W92793  27.513  37.471   1.403
28850W        W92794   9.244  18.158  13.801
28851W        W92795  11.640  19.542  12.532
28852W        W92796  36.998  35.044  12.044
28853W        W92797  29.541   1.883  13.811
28854W        W92798  28.519  14.781  14.514
28855W        W92799   4.866  43.997   2.226
28856W        W92800  22.048   0.925   1.293
28857W        W92801  17.742   0.945   0.816
28858W        W92802  40.905  34.057   0.763
28859W        W92803  17.062  27.051  10.915
28860W        W92804  26.690   9.855   2.337
28861W        W92805  37.845  14.246  12.972
28862W        W92806  33.472  16.719   5.313
28863W        W92807  10.698  42.309   2.360
28864W        W92808  25.705  36.928   3.362
28865W        W92809  30.063  35.897   4.645
28866W        W92810  41.416  30.001   3.721
28867W        W92811   8.825  40.042   2.285
28868W        W92812  35.470  40.392  12.089
28869W        W92813  18.757  34.972   9.977
28870W        W92814  38.542  35.593   4.723
28871W        W92815  24.042   4.295  10.460
28872W        W92816  22.530   0.449  11.605
28873W        W92817  44.885  11.216   2.874
28874W        W92818  10.213   5.380   3.240
28875W        W92819   9.341   2.815  13.793
28876W        W92820  37.555  20.708   3.674
28877W        W92821  24.518  37.359  12.537
28878W        W92822  22.642  42.031  14.865
28879W        W92823   4.317  26.081   4.751
28880W        W92824  20.254  31.039  12.852
28881W        W92825  18.059  34.550  12.357
28882W        W92826   0.456  18.085  13.443
28883W        W92827  39.860  33.989   0.832
28884W        W92828  11.341  42.878   0.384
28885W        W92829  17.181   9.271   2.901
28886W        W92830  24.625  14.162  14.762
28887W        W92831  41.476  12.785  10.980
28888W        W92832  28.149  11.321   1.222
28889W        W92833  24.724  22.701   4.197
28890W        W92834  11.202   2.873  10.477
28891W        W92835  39.324  29.611  10.463
28892W        W92836   0.377  10.828  13.856
28893W        W92837  44.280  31.628  12.447
28894W        W92838  17.721   1.891  11.062
28895W        W92839  15.740   5.220  13.432
28896W        W92840   9.859  17.575   1.272
28897W        W92841  23.601  17.304  13.840
28898W        W92842  25.547  38.837   4.263
28899W        W92843  28.460   3.389  12.351
28900W        W92844  14.790   5.234   0.801
28901W        W92845  13.136  31.462  11.944
28902W        W92846   8.901  30.601   1.344
28903W        W92847  33.028  43.351   1.338
28904W        W92848  44.836  19.135  14.030
28905W        W92849  29.620  24.209  10.495
28906W        W92850   0.357  34.495  12.997
28907W        W92851  17.177  26.648   2.791
28908W        W92852  23.669   1.887   1.257
28909W        W92853  32.996  17.696  10.458
28910W        W92854  22.537  38.841   0.953
28911W        W92855  26.678  16.175  14.936
28912W        W92856  19.268  14.671   1.245
28913W        W92857  19.582  42.486  14.379
28914W        W92858   4.765  30.644   0.932
28915W        W92859  39.477  11.631  11.418
28916W        W92860  41.451   2.340  13.517
28917W        W92861   4.878  42.487   0.426
28918W        W92862  18.264  22.160  14.367
28919W        W92863  37.349  21.643   1.872
28920W        W92864  13.710  23.231   3.324
28921W        W92865  42.915   7.751  14.964
28922W        W92866  34.024  10.861  11.008
28923W        W92867  17.225  17.719   1.248
28924W        W92868   0.443  40.441   1.260
28925W        W92869   8.882  42.002   2.245
28926W        W92870  41.926  19.138  13.532
28927W        W92871  23.030  26.498  11.882
28928W        W92872  30.931  28.549   1.824
28929W        W92873  31.121  28.129   3.679
28930W        W92874  17.062  19.566   2.266
28931W        W92875  25.203  14.628   4.742
28932W        W92876   8.815  10.230  11.066
28933W        W92877  19.196  33.015  13.404
28934W        W92878  15.804  30.638  14.384
28935W        W92879  43.404  39.873   1.240
28936W        W92880  13.233  19.203   3.860
28937W        W92881   8.382  41.042   0.867
28938W        W92882  13.220  44.865  10.568
28939W        W92883  15.612  42.938  12.439
28940W        W92884  20.145  26.176   4.160
28941W        W92885   2.379  32.450   0.250
28942W        W92886   8.390   3.755   1.780
28943W        W92887  22.525  31.135   3.833
28944W        W92888  15.743  12.243  11.462
28945W        W92889  40.311  17.262  10.421
28946W        W92890  32.898   1.339  10.962
28947W        W92891  23.706  38.546   3.709
28948W        W92892  16.229  10.635   5.132
28949W        W92893  17.254   8.335   0.735
28950W        W92894   1.835  32.910   2.414
28951W        W92895  29.171  34.105   1.433
28952W        W92896   5.337  14.309   3.867
28953W        W92897   8.726  24.673  13.809
28954W        W92898   9.800   3.854   3.268
28955W        W92899  39.450   3.933  14.400
28956W        W92900   4.942  36.392   0.767
28957W        W92901  11.258  36.445   0.248
28958W        W92902  10.240  25.587   3.673
28959W        W92903  14.138  35.001  13.345
28960W        W92904  28.547   1.331  12.978
28961W        W92905  20.067  31.902   0.298
28962W        W92906  34.434  34.511  14.361
28963W        W92907  39.550  18.124  12.036
28964W        W92908  16.796   1.832   0.852
28965W        W92909  13.656  17.096  14.346
28966W        W92910  40.935  10.233   4.726
28967W        W92911   7.909   6.190   2.257
28968W        W92912  17.281  34.607  12.059
28969W        W92913   8.182  37.841  14.790
28970W        W92914  44.299  38.449  12.910
28971W        W92915  25.548  29.668   4.819
28972W        W92916  33.877   1.938  11.006
28973W        W92917   0.269  38.866  14.022
28974W        W92918  14.657  36.012  11.121
28975W        W92919   4.337  44.298  11.564
28976W        W92920  23.567  44.857  12.053
28977W        W92921  40.328  12.273   1.890
28978W        W92922   2.744  27.151  13.897
28979W        W92923  26.074  12.725   1.266
28980W        W92924  13.682   9.888  10.613
28981W        W92925  19.140  29.035  12.022
28982W        W92926   5.934  39.402   3.243
28983W        W92927  24.636  13.682  13.861
28984W        W92928   4.417   9.794  13.484
28985W        W92929  10.716  41.495  12.486
28986W        W92930   7.801  34.093   0.872
28987W        W92931   3.345  38.461  11.945
28988W        W92932  26.562  32.437   1.783
28989W        W92933  40.828  28.162   4.242
28990W        W92934  11.370  40.960   0.267
28991W        W92935  25.215  42.964   3.221
28992W        W92936  23.192  43.860  11.444
28993W        W92937  27.627  19.224  11.902
28994W        W92938  14.328  22.628  13.452
28995W        W92939  44.764  26.025  14.834
28996W        W92940  34.061  37.914   3.197
28997W        W92941  35.433  28.596  12.990
28998W        W92942  32.532  15.643  10.477
28999W        W92943  19.728  11.188   3.193
29000W        W92944   2.807  30.012  14.850
29001W        W92945   2.409  19.612   0.296
29002W        W92946   9.745   0.487   5.180
29003W        W92947  17.579  35.571   9.467
29004W        W92948  15.647   1.825  10.913
29005W        W92949  21.084  35.896  12.054
29006W        W92950  17.136  27.496  11.973
29007W        W92951   8.258  24.637  12.076
29008W        W92952  33.469  23.049   0.404
29009W        W92953  30.075   2.360   0.932
29010W        W92954  11.686  20.591  10.582
29011W        W92955  31.619  11.715  12.377
29012W        W92956  21.035  18.761  13.888
29013W        W92957  18.165  42.464  11.563
29014W        W92958  21.564  42.308   2.672
29015W        W92959   8.809  39.820   4.816
29016W        W92960  33.001  11.333  14.472
29017W        W92961  32.117  13.262  11.555
29018W        W92962   9.206  30.593   0.242
29019W        W92963  12.677  38.890  13.818
29020W        W92964  11.232  12.672   0.297
29021W        W92965  39.434  15.198   2.255
29022W        W92966  32.032   7.229  11.118
29023W        W92967  34.611  22.045  11.876
29024W        W92968  36.490   5.229  11.914
29025W        W92969  17.262  31.580  11.954
29026W        W92970   3.780  32.468   4.648
29027W        W92971  18.263  34.068  10.551
29028W        W92972   8.356  42.351   3.216
29029W        W92973  34.603  38.965   4.809
29030W        W92974  16.125  13.827   1.393
29031W        W92975   9.315  10.260   5.250
29032W        W92976   1.840  23.503  14.795
29033W        W92977  30.557   8.752   1.384
29034W        W92978   8.323  20.190   0.933
29035W        W92979  39.481  10.670   0.954
29036W        W92980  39.346  37.425  10.968
29037W        W92981   9.874  12.829   4.716
29038W        W92982  30.909  20.582  13.926
29039W        W92983  13.195  23.226  14.348
29040W        W92984   6.210  21.631  14.511
29041W        W92985  18.710  11.745  13.021
29042W        W92986  18.639  25.696  11.941
29043W        W92987  23.550  12.294  14.907
29044W        W92988  41.929   6.819   0.466
29045W        W92989  43.414  38.364  14.514
29046W        W92990  20.107   0.892  13.865
29047W        W92991  44.767   7.298   4.696
29048W        W92992  27.635  28.175   3.689
29049W        W92993  15.631   2.790  12.378
29050W        W92994  10.298  25.047   2.366
29051W        W92995  33.888  27.653  14.869
29052W        W92996  38.345  25.583  12.440
29053W        W92997  30.130   9.769   0.888
29054W        W92998  15.230  21.664  10.436
29055W        W92999  10.193   3.737   0.343
29056W        W93000  26.135   7.853   3.318
29057W        W93001  42.833  10.703   4.826
29058W        W93002   9.287   7.831  10.617
29059W        W93003  39.814  33.968   1.831
29060W        W93004  32.052  34.913   2.209
29061W        W93005  31.147  38.010  11.896
29062W        W93006  28.052  31.053  12.049
29063W        W93007  34.434  39.402   1.930
29064W        W93008   3.727  16.651   2.887
29065W        W93009  20.056  35.070   0.910
29066W        W93010   2.888  38.896  14.792
29067W        W93011  36.544  40.526   3.210
29068W        W93012   5.884  24.694  13.416
29069W        W93013  31.928  22.034  10.431
29070W        W93014   1.243  30.442  14.857
29071W        W93015  25.520  21.090  12.924
29072W        W93016  40.377  41.355   5.141
29073W        W93017  11.169  19.708  13.976
29074W        W93018  10.205  37.000   4.598
29075W        W93019  40.373  12.719  13.440
29076W        W93020  12.814   1.360  14.823
29077W        W93021  21.260   9.865  13.955
29078W        W93022  44.836  32.618  10.521
29079W        W93023  37.536  16.082  10.565
29080W        W93024   6.810  26.577  13.344
29081W        W93025  38.460  22.743  14.279
29082W        W93026  37.018   0.987  14.923
29083W        W93027   2.287  43.339   2.295
29084W        W93028  41.015  17.589   2.415
29085W        W93029  25.063  24.066  11.464
29086W        W93030  40.906  40.431   2.715
29087W        W93031   3.385  16.256   0.472
29088W        W93032  13.755  29.142   0.266
29089W        W93033  36.073  34.863  13.401
29090W        W93034  20.763  39.482  12.839
29091W        W93035   0.350  13.610   4.236
29092W        W93036  22.244  18.271  12.991
29093W        W93037  44.406  43.286  12.910
29094W        W93038   3.242  19.241   2.679
29095W        W93039  27.043  23.229   2.683
29096W        W93040   0.785  15.790  12.927
29097W        W93041   8.849  14.094   9.984
29098W        W93042  36.502  21.024   3.343
29099W        W93043  26.622  15.667  13.960
29100W        W93044   1.785  25.526   3.282
29101W        W93045  36.997  22.702   2.233
29102W        W93046  36.539  23.728   3.172
29103W        W93047  41.879  12.744  13.860
29104W        W93048   8.813   2.374   2.744
29105W        W93049  23.728  32.997   2.769
29106W        W93050   3.457  13.761   3.234
29107W        W93051   4.735  28.492  11.083
29108W        W93052  34.492  16.686  14.337
29109W        W93053  29.613   3.939   3.771
29110W        W93054  11.138  16.624   0.956
29111W        W93055  44.366  40.870  13.528
29112W        W93056  26.201  31.999  11.122
29113W        W93057  34.489   8.714   3.358
29114W        W93058   1.308   6.863   1.722
29115W        W93059  18.155  10.318  14.927
29116W        W93060  20.202  39.458   1.766
29117W        W93061  40.825  28.589  14.000
29118W        W93062  29.130  29.032   3.294
29119W        W93063  19.584  32.022   3.775
29120W        W93064  12.703  41.897  10.419
29121W        W93065  22.181   1.836   1.812
29122W        W93066  30.968  31.579   2.697
29123W        W93067  22.594  41.000  13.926
29124W        W93068  13.248  33.622  10.583
29125W        W93069  13.744  32.010  11.418
29126W        W93070  13.696  16.803  12.532
29127W        W93071  28.652  34.899   0.425
29128W        W93072  35.960  26.668  14.944
29129W        W93073  21.688  14.660   2.257
29130W        W93074  44.499  44.965   1.243
29131W        W93075   6.260  43.873   3.381
29132W        W93076  37.061  17.065   2.749
29133W        W93077  10.671  23.494  14.923
29134W        W93078   4.846  13.277   2.294
29135W        W93079  38.837  14.251   1.834
29136W        W93080  23.540  25.607  11.519
29137W        W93081  33.485  26.615   5.205
29138W        W93082  35.874  32.485  13.338
29139W        W93083  24.658  39.383   0.398
29140W        W93084  30.957  12.629   2.288
29141W        W93085  22.114  14.114  10.940
29142W        W93086  42.939  30.918   5.260
29143W        W93087  42.942  38.848  11.011
29144W        W93088   9.723   6.782  13.394
29145W        W93089  26.049   7.673  13.017
29146W        W93090  17.130  37.354   0.409
29147W        W93091  36.526  32.104   0.904
29148W        W93092  18.208   5.695   2.767
29149W        W93093  28.090  23.217  11.538
29150W        W93094  30.481  34.865   4.253
29151W        W93095  30.475  20.044  13.473
29152W        W93096  34.876  21.755   3.276
29153W        W93097  42.021   0.746  11.086
29154W        W93098   8.747  25.625   4.240
29155W        W93099  14.260  35.895   0.841
29156W        W93100  16.116   4.754   2.291
29157W        W93101  40.380  11.725   2.343
29158W        W93102  23.199  23.015  14.303
29159W        W93103  10.180   0.277   0.300
29160W        W93104  28.136  31.584   0.810
29161W        W93105  40.008  42.500   4.667
29162W        W93106  32.435  31.029   0.949
29163W        W93107  15.727   1.421   5.181
29164W        W93108  29.018  38.890  12.948
29165W        W93109  23.186   3.442  10.630
29166W        W93110  28.107  30.955   4.180
29167W        W93111  26.141   0.930  10.928
29168W        W93112  38.994  30.459   1.353
29169W        W93113   5.725  40.012  12.875
29170W        W93114  25.085  27.472   4.274
29171W        W93115  42.474  15.706  10.983
29172W        W93116   4.730   3.419   4.207
29173W        W93117  42.416  42.907   0.386
29174W        W93118  15.740   1.813   2.666
29175W        W93119   3.852   7.402   3.372
29176W        W93120  27.070  39.993  12.509
29177W        W93121   7.784  20.737  11.051
29178W        W93122  34.417  22.520   0.857
29179W        W93123  31.958  20.038   4.168
29180W        W93124  17.236   4.714   4.153
29181W        W93125  16.259  40.957   4.193
29182W        W93126   3.248   8.812  10.521
29183W        W93127   0.332  40.547  10.630
29184W        W93128   5.286  21.523  13.387
29185W        W93129  44.905  16.102  12.481
29186W        W93130  36.462  21.548  12.350
29187W        W93131  31.997  43.960  13.327
29188W        W93132   5.418  28.999   4.328
29189W        W93133  38.034   8.195   1.734
29190W        W93134  43.843  14.135  11.013
29191W        W93135  27.161  44.430  14.507
29192W        W93136  42.982   0.951   1.904
29193W        W93137   5.831  31.637   0.848
29194W        W93138  12.813   3.304   4.788
29195W        W93139   2.378  34.885  10.445
29196W        W93140  26.597   1.793  12.986
29197W        W93141  28.446   9.741   1.211
29198W        W93142  31.630   6.904  13.988
29199W        W93143  34.923  15.176   2.187
29200W        W93144  40.053  22.145  12.072
29201W        W93145  40.928  38.384   2.270
29202W        W93146   1.892  15.742  13.931
29203W        W93147  40.417  37.073   2.763
29204W        W93148   6.320   0.881  11.095
29205W        W93149   2.723   4.761   1.231
29206W        W93150  34.595  31.557  11.484
29207W        W93151  12.695  11.667   1.931
29208W        W93152  36.978   0.786  13.996
29209W        W93153  23.178   7.337   0.339
29210W        W93154  21.715  33.067   1.296
29211W        W93155  19.097  27.569  14.469
29212W        W93156  23.505  29.589  11.958
29213W        W93157   4.332   4.803  13.496
29214W        W93158   3.351  27.668  12.438
29215W        W93159  30.556  24.976  11.129
29216W        W93160  17.555  30.068   2.268
29217W        W93161  23.148  14.230   2.299
29218W        W93162  21.736  22.610   4.732
29219W        W93163  16.163  42.337   4.649
29220W        W93164  42.316  24.710  13.367
29221W        W93165  40.380  24.010  10.453
29222W        W93166  12.706   3.237   4.118
29223W        W93167   7.817   8.813   2.195
29224W        W93168   0.294  29.097  11.093
29225W        W93169  17.788  21.031   9.500
29226W        W93170   0.751  11.357   3.228
29227W        W93171  12.732  32.923  12.880
29228W        W93172  16.695  20.066   3.362
29229W        W93173   4.854  25.964  13.875
29230W        W93174   9.172   8.825   3.285
29231W        W93175  18.545  16.750  11.583
29232W        W93176  25.552  25.470   0.932
29233W        W93177   7.691  41.460   2.313
29234W        W93178  39.425  11.213  10.986
29235W        W93179  28.975  44.503  13.410
29236W        W93180  14.310  42.990   2.224
29237W        W93181  27.642   8.367  12.910
29238W        W93182  15.259  18.064  13.038
29239W        W93183  28.162  43.782  14.859
29240W        W93184  26.678  32.557   3.630
29241W        W93185  17.653  27.671   1.418
29242W        W93186  25.573   6.232  10.139
29243W        W93187  14.313  42.863  11.059
29244W        W93188  31.483  26.584  11.596
29245W        W93189   2.813  19.174  11.516
29246W        W93190  15.770  10.181   5.130
29247W        W93191  40.875  41.469  10.482
29248W        W93192  31.490   9.850  13.438
29249W        W93193  33.554  30.590  14.824
29250W        W93194  21.694  17.300   0.739
29251W        W93195  11.836  33.094   1.819
29252W        W93196  40.364  42.421  10.521
29253W        W93197  23.535  39.015  13.843
29254W        W93198  31.574  31.011  13.040
29255W        W93199  28.549  37.561  13.959
29256W        W93200  20.132   5.762   0.806
29257W        W93201  22.569  38.460   0.478
29258W        W93202  11.680  29.939  13.988
29259W        W93203   6.701  32.531   1.319
29260W        W93204  34.005   8.181   4.617
29261W        W93205  22.238  12.618   0.881
29262W        W93206  40.365  19.220   3.677
29263W        W93207  30.586   4.814   4.812
29264W        W93208  37.519   2.298   2.186
29265W        W93209  16.669   6.321   0.931
29266W        W93210  27.985  21.241   1.888
29267W        W93211  38.826  16.577   2.880
29268W        W93212  21.169  32.617   2.713
29269W        W93213   0.387  12.354   1.883
29270W        W93214  30.130  40.368  12.835
29271W        W93215  44.418  36.951   0.408
29272W        W93216   6.416   0.266  14.325
29273W        W93217  12.189  26.582  11.382
29274W        W93218  21.664  29.451  10.455
29275W        W93219  22.576  13.656   2.333
29276W        W93220  19.700   6.908   1.390
29277W        W93221  27.106   1.394   2.724
29278W        W93222  40.394   3.819   0.252
29279W        W93223  10.294  10.856  12.860
29280W        W93224   9.362  18.766   4.161
29281W        W93225  29.980  36.390  13.540
29282W        W93226  13.618  42.493  13.833
29283W        W93227  15.822  23.187   9.671
29284W        W93228  25.146  41.490   3.153
29285W        W93229   3.293  36.429   2.717
29286W        W93230  44.394  12.635   1.307
29287W        W93231  35.531  42.881   1.452
29288W        W93232  27.023   3.799  13.945
29289W        W93233  16.660  17.760   1.288
29290W        W93234  37.855   7.293  13.408
29291W        W93235   6.219  32.402  13.468
29292W        W93236  27.539  24.991   2.789
29293W        W93237  42.413  30.954   1.360
29294W        W93238  44.435  10.687   3.856
29295W        W93239  32.531  20.103  11.907
29296W        W93240  11.686  28.595   4.649
29297W        W93241  34.052  39.918  12.359
29298W        W93242  23.685  23.176  13.863
29299W        W93243  17.643  40.864   2.218
29300W        W93244   2.856  29.508   4.708
29301W        W93245  16.206  12.155  11.551
29302W        W93246   1.407  12.704  12.404
29303W        W93247  35.886  10.167   3.379
29304W        W93248   0.875  15.628  11.090
29305W        W93249  20.536   4.216   1.321
29306W        W93250  40.428   5.292   2.367
29307W        W93251  18.237  44.471   3.649
29308W        W93252   6.915   9.812   0.307
29309W        W93253  15.325  18.718   1.358
29310W        W93254  41.808  27.676   1.394
29311W        W93255  16.647  16.211  13.397
29312W        W93256   3.269  35.532   3.722
29313W        W93257  24.225  11.302   2.317
29314W        W93258   2.462  38.538   4.224
29315W        W93259  16.611  11.284   9.573
29316W        W93260  21.221  26.642   0.301
29317W        W93261  23.082  24.996   0.808
29318W        W93262  22.649  41.034   1.409
29319W        W93263  41.330  26.638  12.056
29320W        W93264   9.679  25.200  12.000
29321W        W93265  41.296  20.569  11.577
29322W        W93266  17.673  30.449  13.500
29323W        W93267   6.805  41.428   4.230
29324W        W93268   6.191   1.839  14.966
29325W        W93269   4.801   4.864   3.641
29326W        W93270  20.037  17.213  12.408
29327W        W93271  27.003  27.648   3.226
29328W        W93272  32.585  41.887  12.080
29329W        W93273   9.363   3.940  11.111
29330W        W93274  35.541  40.309   3.221
29331W        W93275  10.332  44.880  13.496
29332W        W93276  17.134   6.250  10.503
29333W        W93277  32.990  42.354  14.026
29334W        W93278  44.945   4.235   2.745
29335W        W93279  14.161  14.816  12.346
29336W        W93280  10.269  19.093  11.486
29337W        W93281   3.244   5.724   1.843
29338W        W93282  28.015  16.225  12.990
29339W        W93283   2.321  27.539   1.400
29340W        W93284  26.675   2.842   4.176
29341W        W93285   8.327  10.154   3.808
29342W        W93286  37.856  42.407  10.493
29343W        W93287  40.463  40.385  12.991
29344W        W93288  31.595  24.704   1.224
29345W        W93289  16.195  26.024  12.939
29346W        W93290  23.038  13.804  13.438
29347W        W93291  38.469  13.666   3.848
29348W        W93292  33.470  43.465  11.944
29349W        W93293   0.314  43.852   3.804
29350W        W93294  16.124   3.312  11.471
29351W        W93295  35.925   5.822   0.363
29352W        W93296  18.670   3.818  12.404
29353W        W93297  37.898  31.515   1.358
29354W        W93298  31.095  36.458   4.785
29355W        W93299  17.735  36.556  14.500
29356W        W93300  27.483  34.108  13.952
29357W        W93301  16.798  37.541   2.669
29358W        W93302  19.659  15.583   2.789
29359W        W93303   2.411  26.692   3.155
29360W        W93304  29.476  19.648  13.808
29361W        W93305  12.838  44.990   3.251
29362W        W93306  24.715  11.337  11.928
29363W        W93307  14.648  40.319  14.457
29364W        W93308  10.674  42.807   4.768
29365W        W93309   5.373  15.589   0.962
29366W        W93310  41.889  32.118   3.320
29367W        W93311  40.355   1.919   2.388
29368W        W93312  25.165  33.040   3.647
29369W        W93313  42.292  20.273  13.878
29370W        W93314   4.231  23.997  13.871
29371W        W93315   4.397  39.965  14.376
29372W        W93316  28.054  39.351   2.713
29373W        W93317  36.402  10.312  10.022
29374W        W93318  33.456  15.773   0.928
29375W        W93319  38.905  38.901  12.068
29376W        W93320  20.125  23.071  14.774
29377W        W93321  32.923   2.781   4.653
29378W        W93322  30.631  35.570  10.619
29379W        W93323  30.107  23.563   2.876
29380W        W93324   5.259  40.327  13.990
29381W        W93325  29.164  33.069  11.568
29382W        W93326  32.525   7.358   4.153
29383W        W93327  41.998   4.811   0.746
29384W        W93328  17.682  17.268   1.322
29385W        W93329   5.831  22.510   2.372
29386W        W93330   2.915  10.145   3.250
29387W        W93331  11.195  35.393   3.212
29388W        W93332  36.481  23.093  12.518
29389W        W93333   2.272  21.101  12.928
29390W        W93334  44.477   8.386   3.676
29391W        W93335  23.732  35.533   3.635
29392W        W93336  27.461  38.461  14.021
29393W        W93337  17.740  11.839  14.490
29394W        W93338  18.613  10.640   4.606
29395W        W93339  15.217  41.001  13.936
29396W        W93340  33.437  19.280  11.480
29397W        W93341   7.902  31.593  10.537
29398W        W93342   8.405  33.556  12.885
29399W        W93343  42.844   4.390   4.705
29400W        W93344  21.091  28.514   1.861
29401W        W93345  22.709  14.599  10.891
29402W        W93346   8.381  43.940  12.378
29403W        W93347  31.918  41.896   3.792
29404W        W93348  22.221  11.694  13.359
29405W        W93349   7.725   8.762   0.737
29406W        W93350  17.199   5.842   5.220
29407W        W93351  42.836  34.109  13.872
29408W        W93352  39.956  42.342  14.992
29409W        W93353  37.356   2.736  13.395
29410W        W93354  18.236  37.936   3.795
29411W        W93355  21.564  30.114   3.706
29412W        W93356   9.297  26.088   2.806
29413W        W93357  31.608  26.075   0.949
29414W        W93358  20.749  38.467   1.230
29415W        W93359  34.372  40.865   1.935
29416W        W93360  43.779  33.909   0.900
29417W        W93361  20.612  19.143   1.829
29418W        W93362   5.428  23.036   4.148
29419W        W93363  24.695  17.751  11.947
29420W        W93364  36.018  29.997   3.228
29421W        W93365  21.160   7.258  14.019
29422W        W93366  38.475  39.884   1.403
29423W        W93367  43.944  10.292  13.434
29424W        W93368  31.136   4.771   1.704
29425W        W93369  16.621   0.973   1.908
29426W        W93370  29.082  36.530  11.962
29427W        W93371  10.276   0.380   5.764
29428W        W93372  29.128   5.309   3.851
29429W        W93373   8.288  42.434   4.294
29430W        W93374  39.516  29.050  12.973
29431W        W93375  13.315  41.921  14.310
29432W        W93376   4.371  32.436  10.473
29433W        W93377  15.093  36.423  11.017
29434W        W93378  17.669  24.153  13.850
29435W        W93379  26.688  15.820   3.178
29436W        W93380  41.341   7.818  11.999
29437W        W93381  27.075   4.894   1.219
29438W        W93382  40.848  13.704   3.756
29439W        W93383  40.860  14.148  12.894
29440W        W93384  20.066  31.634  12.914
29441W        W93385  27.997  39.002   4.701
29442W        W93386  13.758   1.892   0.419
29443W        W93387  28.477  26.586   2.735
29444W        W93388  20.586   1.458  11.106
29445W        W93389   1.919  10.163  10.635
29446W        W93390  41.525  22.606  10.894
29447W        W93391  30.513   7.191  14.503
29448W        W93392  15.602  23.214   2.350
29449W        W93393  27.982  34.542   9.959
29450W        W93394  44.813  22.547  14.494
29451W        W93395  22.720  36.508  14.796
29452W        W93396   3.406  33.944  12.899
29453W        W93397  31.040  43.501   4.177
29454W        W93398   6.785  41.387  10.919
29455W        W93399  23.103  23.201  10.587
29456W        W93400  33.061  30.962   4.814
29457W        W93401  30.466  11.767  13.017
29458W        W93402  16.786  44.777   3.761
29459W        W93403   4.263  15.745   4.156
29460W        W93404   6.922  37.911  14.371
29461W        W93405  39.461  13.726  13.394
29462W        W93406  19.230  13.229   1.361
29463W        W93407  29.584   4.825  14.316
29464W        W93408  13.170  35.428  10.490
29465W        W93409  19.779  22.581   4.135
29466W        W93410  38.505  17.289   3.154
29467W        W93411   4.308   8.264  14.896
29468W        W93412   8.822  11.815  10.455
29469W        W93413  34.523   9.881   0.282
29470W        W93414  33.043  17.169   1.935
29471W        W93415  20.731  40.331   2.788
29472W        W93416   7.245  33.960  10.499
29473W        W93417   9.186   3.881   0.883
29474W        W93418  20.587  14.287   3.637
29475W        W93419  44.307   2.309  11.464
29476W        W93420  36.844  19.737   0.919
29477W        W93421  39.918   8.844   2.384
29478W        W93422  43.854  43.442  13.813
29479W        W93423   2.467  26.159  13.501
29480W        W93424   5.377  33.022  14.990
29481W        W93425   8.709   8.333  13.371
29482W        W93426  19.154  38.864  12.427
29483W        W93427  20.137  33.452   0.802
29484W        W93428  16.288  33.933  13.886
29485W        W93429  11.847  31.437  14.389
29486W        W93430   6.298  15.764   1.381
29487W        W93431  11.681  24.164   3.629
29488W        W93432   5.726  44.840   3.769
29489W        W93433  22.182  41.510   3.198
29490W        W93434  18.165  15.678   2.232
29491W        W93435  41.386  18.167   3.760
29492W        W93436  31.518  16.071  11.056
29493W        W93437   5.389  38.503   1.224
29494W        W93438   8.214  35.448   3.195
29495W        W93439   7.812  11.337  12.454
29496W        W93440  21.599  37.011  14.765
29497W        W93441  18.715  31.076   1.781
29498W        W93442  36.561  15.141   0.433
29499W        W93443   9.649   3.415  14.800
29500W        W93444  44.344  41.860  14.448
29501W        W93445  27.062  38.044  14.986
29502W        W93446  23.581   8.169   2.688
29503W        W93447  30.455  14.270  12.984
29504W        W93448  43.422  32.112   3.351
29505W        W93449   9.215   3.387   2.800
29506W        W93450  37.968  15.240  14.982
29507W        W93451  32.887  43.954   1.263
29508W        W93452  21.239  12.335   4.790
29509W        W93453  22.701  22.121  11.984
29510W        W93454  30.646  14.250  14.828
29511W        W93455   1.789  31.136  13.517
29512W        W93456  21.256  33.046  13.064
29513W        W93457  37.524  34.032   4.725
29514W        W93458  19.162  24.537   0.948
29515W        W93459   9.160  10.749   4.304
29516W        W93460  13.317  44.767  14.509
29517W        W93461  19.728  16.269  14.481
29518W        W93462  37.396  23.567   3.856
29519W        W93463  19.256  18.139  12.893
29520W        W93464  41.491  39.958  13.470
29521W        W93465  37.543   7.210  13.377
29522W        W93466  13.649  35.928   0.918
29523W        W93467  44.926  31.608  11.932
29524W        W93468   9.878   5.844  14.353
29525W        W93469  27.989  16.231   4.787
29526W        W93470  10.239  20.182   0.884
29527W        W93471  32.137  18.141  11.978
29528W        W93472  12.142  12.781  12.470
29529W        W93473  33.908  35.572  13.311
29530W        W93474   0.867  33.493   2.869
29531W        W93475  33.027   3.375  14.437
29532W        W93476   4.854  30.924   5.229
29533W        W93477  10.705   2.967  13.845
29534W        W93478  19.677  23.721   0.948
29535W        W93479   9.762  32.958   4.354
29536W        W93480  42.803  40.388   0.890
29537W        W93481  27.636   4.722   1.827
29538W        W93482   6.350  20.693  10.561
29539W        W93483  12.707  29.095  14.350
29540W        W93484  33.539  26.991   4.669
29541W        W93485  37.080  13.238  14.871
29542W        W93486  35.040   4.300   0.786
29543W        W93487  36.453  44.980  12.878
29544W        W93488  26.608  16.602  10.459
29545W        W93489  11.368  40.501   2.405
29546W        W93490  24.978  35.529  14.959
29547W        W93491  31.992  30.577   1.777
29548W        W93492   4.310  16.779   1.350
29549W        W93493  42.818  24.021  12.544
29550W        W93494  26.114  41.294   1.361
29551W        W93495  40.847  20.174   1.250
29552W        W93496  34.974  24.097   1.440
29553W        W93497  28.987  18.262   5.213
29554W        W93498  29.621  16.187   3.163
29555W        W93499  38.869  25.603  13.975
29556W        W93500  10.249  34.575   2.194
29557W        W93501  38.829   0.746   1.267
29558W        W93502  18.271  44.914   4.132
29559W        W93503  18.686  29.951  10.489
29560W        W93504  39.368  42.852   4.181
29561W        W93505  13.674  29.468  13.355
29562W        W93506  23.137   1.798   1.876
29563W        W93507  44.008  42.908   1.216
29564W        W93508  40.029  19.740   5.262
29565W        W93509  32.056   8.850  12.831
29566W        W93510  43.333  42.437   2.774
29567W        W93511  38.441  38.970  12.531
29568W        W93512   9.888  43.321   3.849
29569W        W93513   0.266  32.960  12.396
29570W        W93514  26.001  21.234   2.818
29571W        W93515  21.213  30.925  11.412
29572W        W93516   4.807  29.073   1.716
29573W        W93517  18.733  41.794  11.077
29574W        W93518  10.716  40.528  10.987
29575W        W93519  27.134   8.382   1.718
29576W        W93520   4.890  19.257  10.474
29577W        W93521  25.177  19.726   4.826
29578W        W93522  16.790   6.282  12.011
29579W        W93523  31.115  21.196   1.865
29580W        W93524  26.579   3.791  10.417
29581W        W93525  43.879  39.860  10.519
29582W        W93526   4.871  28.961   2.869
29583W        W93527  10.854  13.793   1.890
29584W        W93528  15.203  16.202  13.981
29585W        W93529   8.823  35.465   2.809
29586W        W93530   5.390  44.319   3.355
29587W        W93531  35.910  40.852   3.325
29588W        W93532  14.613  28.048  11.398
29589W        W93533   6.902  19.556   0.871
29590W        W93534  32.911  19.069   4.749
29591W        W93535  30.952  38.868  10.055
29592W        W93536  21.542  25.610   1.380
29593W        W93537  10.194  19.711   4.724
29594W        W93538  34.113  23.005  14.847
29595W        W93539  27.190  35.079  14.473
29596W        W93540  18.267  34.946  13.009
29597W        W93541  11.850  22.056   4.720
29598W        W93542  23.657  21.581  12.979
29599W        W93543   4.289   2.814   3.298
29600W        W93544   8.310  43.851   3.332
29601W        W93545   6.859  34.989  12.888
29602W        W93546  21.739   9.854  12.575
29603W        W93547   6.311  19.587  11.946
29604W        W93548   3.268   5.720   0.822
29605W        W93549  27.157  38.896  12.567
29606W        W93550  16.598  28.621   2.316
29607W        W93551  30.606  27.093  12.034
29608W        W93552  18.760   1.345  10.640
29609W        W93553  38.018  32.423  13.914
29610W        W93554  37.864  18.717  11.398
29611W        W93555   1.438  10.633  14.874
29612W        W93556  42.996  27.127   0.442
29613W        W93557  27.960  26.997   2.822
29614W        W93558  37.953   9.191  14.951
29615W        W93559  41.029  40.433   3.249
29616W        W93560  10.846  36.356  14.379
29617W        W93561  36.352   1.389   3.664
29618W        W93562  27.113  42.819   1.308
29619W        W93563  27.941  17.561   2.216
29620W        W93564  44.991  13.611  14.003
29621W        W93565  10.668  15.218  14.407
29622W        W93566  36.041   2.805  12.915
29623W        W93567  23.990  38.875  14.502
29624W        W93568  26.005  42.983  13.323
29625W        W93569   0.897  18.244   1.822
29626W        W93570   0.905  10.275   4.634
29627W        W93571  29.003  14.267   0.319
29628W        W93572   9.752  25.647  10.927
29629W        W93573  10.305  26.557   3.837
29630W        W93574  15.214  20.527  10.958
29631W        W93575  25.170  16.660  13.471
29632W        W93576  21.524  38.495  14.985
29633W        W93577  20.200  27.146   2.878
29634W        W93578  36.006  37.389  10.891
29635W        W93579  37.530  37.858  10.504
29636W        W93580   8.659   9.188  11.909
29637W        W93581  23.575  37.863  14.964
29638W        W93582  22.120  25.201   2.826
29639W        W93583  29.162  15.323  12.558
29640W        W93584  41.414  40.395  11.890
29641W        W93585   9.840  30.649   5.799
29642W        W93586   5.855   7.401  13.357
29643W        W93587   8.709  31.939   2.316
29644W        W93588  22.612  43.465  13.975
29645W        W93589  38.847  22.653  14.905
29646W        W93590  19.074  23.641  13.400
29647W        W93591  29.974  38.415   4.750
29648W        W93592  42.410   7.716   3.215
29649W        W93593  36.464   3.426  11.991
29650W        W93594   1.338  22.709   0.806
29651W        W93595  17.253   8.813   2.861
29652W        W93596  41.806  26.515  12.412
29653W        W93597  38.043  19.696   1.450
29654W        W93598   2.316  29.038  10.544
29655W        W93599  37.955  38.930   9.949
29656W        W93600  42.282  33.409  12.508
29657W        W93601  15.235  17.600   1.430
29658W        W93602   2.405  33.407  11.577
29659W        W93603  34.591  33.566   2.190
29660W        W93604  37.553  33.462   1.823
29661W        W93605  17.767   7.841  12.043
29662W        W93606   6.415  27.970  11.908
29663W        W93607  29.531  24.095  14.288
29664W        W93608  13.337  39.938   1.379
29665W        W93609  24.563  30.944  13.847
29666W        W93610  26.503  32.058   1.829
29667W        W93611  37.496   3.341  12.947
29668W        W93612  10.138  19.628  11.004
29669W        W93613  34.437  34.433   3.642
29670W        W93614  40.933  22.653   0.297
29671W        W93615  33.078   1.962  13.491
29672W        W93616  10.754  20.615   3.847
29673W        W93617  18.275   6.799  12.353
29674W        W93618  22.654   2.746   0.863
29675W        W93619  20.720  41.517  12.518
29676W        W93620  23.069  14.240   0.760
29677W        W93621   4.365   4.240  12.448
29678W        W93622  43.013   1.447  13.814
29679W        W93623  21.216  36.495   1.397
29680W        W93624  15.654  38.438   0.917
29681W        W93625  20.680   6.779  14.444
29682W        W93626  39.417  14.780  14.920
29683W        W93627  13.274   6.228  13.965
29684W        W93628  15.683  11.718  11.884
29685W        W93629  10.644   0.405   2.218
29686W        W93630  13.835  21.516   1.235
29687W        W93631  44.872  29.509   1.429
29688W        W93632  39.558  43.957  11.054
29689W        W93633  40.864   6.872  11.526
29690W        W93634  35.984  41.903  14.854
29691W        W93635  32.409  44.486  10.622
29692W        W93636   2.916  15.221   1.769
29693W        W93637  29.957  23.081   2.405
29694W        W93638   5.903  40.933   4.321
29695W        W93639  37.984  19.161   0.773
29696W        W93640  36.880  13.262   4.763
29697W        W93641  11.364  14.702   3.290
29698W        W93642   1.481  12.176   2.385
29699W        W93643   3.294  10.221  13.358
29700W        W93644  11.260   2.829   9.951
29701W        W93645   7.401   7.867  12.089
29702W        W93646  31.016  19.080  11.467
29703W        W93647  18.784  19.210  12.558
29704W        W93648  15.731  20.674   1.421
29705W        W93649  15.150  18.163   1.402
29706W        W93650  39.483   9.686   1.716
29707W        W93651  35.907  28.942   3.380
29708W        W93652   1.296   2.812  13.511
29709W        W93653  28.586  11.143  11.433
29710W        W93654  11.149   6.211  14.859
29711W        W93655  26.679  10.714  12.909
29712W        W93656   6.201  33.999   2.314
29713W        W93657   5.739  30.014   3.721
29714W        W93658  36.354  34.943   4.812
29715W        W93659  44.805  26.179  14.481
29716W        W93660   7.274  30.088  14.786
29717W        W93661   4.246   0.425  14.983
29718W        W93662  27.496  18.637  11.445
29719W        W93663  31.017  28.966   4.355
29720W        W93664  43.447   0.875  12.875
29721W        W93665  34.042   0.921   3.637
29722W        W93666  39.328  13.770  13.004
29723W        W93667   9.748  29.125   2.395
29724W        W93668  15.253  26.677   4.310
29725W        W93669   5.360  29.668  11.022
29726W        W93670   7.318  31.137  14.384
29727W        W93671  25.215  30.417   1.933
29728W        W93672   6.836  21.681   3.344
29729W        W93673  31.427  16.708   0.738
29730W        W93674   0.361  19.697   0.959
29731W        W93675  23.594   8.263   3.741
29732W        W93676  31.982  43.803   0.277
29733W        W93677  35.061  21.106   4.695
29734W        W93678  24.589  43.460  11.960
29735W        W93679   3.806  12.634   1.697
29736W        W93680  21.545  34.878  14.803
29737W        W93681   9.330  25.579   0.299
29738W        W93682  16.610  17.294   4.823
29739W        W93683  30.649  44.771   3.152
29740W        W93684   4.815  26.972   0.958
29741W        W93685  20.571  35.470   4.254
29742W        W93686  34.609  11.707   3.634
29743W        W93687  17.799  10.743   0.268
29744W        W93688  15.730  16.182   1.396
29745W        W93689  25.620   0.371   0.441
29746W        W93690  28.974  23.126   0.326
29747W        W93691  35.862  41.366  13.898
29748W        W93692  41.012   0.969   2.718
29749W        W93693  35.010   6.192  12.072
29750W        W93694  27.553   7.807   2.851
29751W        W93695   3.862  41.989  10.966
29752W        W93696  12.175  25.539   3.665
29753W        W93697  11.216  31.029  11.546
29754W        W93698  43.806  19.277  14.368
29755W        W93699  30.565  22.133   4.777
29756W        W93700  40.871   1.906   2.705
29757W        W93701  30.540   5.774   0.880
29758W        W93702  17.664  30.942  12.378
29759W        W93703   4.355  42.809   4.620
29760W        W93704  33.615  25.119  14.958
29761W        W93705  16.112   5.820  13.060
29762W        W93706  27.504   5.227   1.786
29763W        W93707  38.938   7.708  14.781
29764W        W93708  41.526   0.851  14.471
29765W        W93709  34.035  16.221   2.753
29766W        W93710  44.323  29.954  12.413
29767W        W93711  17.641  22.712   0.445
29768W        W93712  37.387   0.279   2.860
29769W        W93713  20.659  14.283   4.258
29770W        W93714  11.723   9.330  12.438
29771W        W93715  40.491   5.257  10.455
29772W        W93716   2.836  13.754  13.852
29773W        W93717  37.896  29.424   3.217
29774W        W93718  35.013  32.635  13.792
29775W        W93719  36.887  43.878   0.388
29776W        W93720   0.756  11.303   2.886
29777W        W93721  26.611  14.823   0.318
29778W        W93722  17.580  33.416   4.201
29779W        W93723  25.522  40.877   0.832
29780W        W93724  32.052   5.701   5.321
29781W        W93725  29.448  16.218   3.681
29782W        W93726  23.719  32.017  12.889
29783W        W93727  24.015  14.245  10.066
29784W        W93728  32.917  28.531   0.427
29785W        W93729  19.687  24.166  14.471
29786W        W93730   1.741  27.683   2.716
29787W        W93731  44.383  14.729  14.020
29788W        W93732  11.333  12.781  14.839
29789W        W93733  23.693   7.291   4.193
29790W        W93734  41.349  16.279   0.770
29791W        W93735   5.233  25.215   4.653
29792W        W93736  36.567  17.794   4.813
29793W        W93737  20.648  16.589   2.230
29794W        W93738  35.982  43.930   3.799
29795W        W93739   5.696  37.977   3.195
29796W        W93740  17.701   3.897   1.415
29797W        W93741  11.135  41.968   0.900
29798W        W93742  40.320  17.787  13.513
29799W        W93743   5.324  40.876   1.449
29800W        W93744  15.720  40.466  11.113
29801W        W93745   7.194  31.401  12.831
29802W        W93746  28.636  31.544   1.362
29803W        W93747  15.803  40.468   2.271
29804W        W93748  17.171   5.430   2.287
29805W        W93749  35.038  18.115  14.493
29806W        W93750  24.035   6.316   5.189
29807W        W93751  29.485   9.667   1.725
29808W        W93752  33.097  35.989  11.946
29809W        W93753  21.525   7.855  10.905
29810W        W93754   6.217  29.470  13.885
29811W        W93755   7.251  31.522  10.937
29812W        W93756  28.532   3.336  11.405
29813W        W93757  39.494  25.024  11.900
29814W        W93758  30.471   3.456   4.635
29815W        W93759  33.042  28.114   3.722
29816W        W93760  21.578  39.338   2.357
29817W        W93761  22.100   3.789  14.799
29818W        W93762   3.354  43.400   2.240
29819W        W93763  39.944  30.948  13.876
29820W        W93764  15.725  37.349  13.345
29821W        W93765  35.062  15.639   4.204
29822W        W93766  10.228  17.798  14.287
29823W        W93767  17.795  18.615  14.407
29824W        W93768  37.546  19.118   0.763
29825W        W93769  24.487  13.670  11.582
29826W        W93770  11.274  36.459   4.345
29827W        W93771  22.043  42.939   4.803
29828W        W93772  25.183  34.888   2.275
29829W        W93773  37.993  19.559  10.117
29830W        W93774  40.932  24.980  11.377
29831W        W93775  12.241  40.357  11.478
29832W        W93776  24.171   1.413   2.890
29833W        W93777  12.658  27.528  12.560
29834W        W93778  15.578  40.903   0.268
29835W        W93779  33.033  29.089  13.040
29836W        W93780   6.741  16.190  13.424
29837W        W93781  42.350  14.290  10.570
29838W        W93782  11.337  13.622  12.051
29839W        W93783  18.634  33.994   4.724
29840W        W93784   8.872  32.046  10.138
29841W        W93785  44.379  12.231  12.067
29842W        W93786  28.097   1.352   2.843
29843W        W93787  14.615   9.776  13.844
29844W        W93788  29.475   1.786  12.408
29845W        W93789  16.121   1.770   4.830
29846W        W93790  10.844   5.899   0.264
29847W        W93791  19.773  15.734   2.233
29848W        W93792  16.098  20.631  10.926
29849W        W93793  39.929  13.265  11.942
29850W        W93794  24.664  29.529   3.310
29851W        W93795  27.046  44.358  10.118
29852W        W93796   9.364  41.313   4.333
29853W        W93797  33.466  12.148  14.948
29854W        W93798  43.459  20.081   3.708
29855W        W93799  31.071  41.967   3.382
29856W        W93800  43.813  17.257   3.185
29857W        W93801   0.385  41.481   1.447
29858W        W93802  10.267  34.971   0.791
29859W        W93803   5.789  40.900  12.343
29860W        W93804  29.008  21.162   0.735
29861W        W93805  16.600   8.221   0.767
29862W        W93806   9.834  27.572  11.930
29863W        W93807  25.044   1.325   2.240
29864W        W93808  38.417  13.170  13.374
29865W        W93809  17.562   0.889   0.398
29866W        W93810  11.350  14.100   4.188
29867W        W93811  20.560  38.487   3.369
29868W        W93812  25.579  19.067  13.017
29869W        W93813  40.861  16.666   1.825
29870W        W93814  31.937   8.800   2.345
29871W        W93815  20.252  40.339   2.370
29872W        W93816  11.185  14.143   2.192
29873W        W93817  17.597  39.953  11.594
29874W        W93818   6.773  26.991   1.292
29875W        W93819  44.296  36.373   1.441
29876W        W93820  37.866   8.843   3.794
29877W        W93821  32.968  13.790  12.065
29878W        W93822  36.016  18.147   2.713
29879W        W93823  44.879  25.123   2.796
29880W        W93824  41.862  28.065  12.380
29881W        W93825  19.255  39.949   4.719
29882W        W93826  38.349  30.161   4.256
29883W        W93827  14.789  31.989  10.629
29884W        W93828  17.155  34.497  12.845
29885W        W93829  22.136  42.336  11.950
29886W        W93830  24.994  34.517   2.897
29887W        W93831  40.486  20.733   4.177
29888W        W93832  31.634   0.988  14.983
29889W        W93833   3.890  34.021  13.830
29890W        W93834   0.425  16.118   1.343
29891W        W93835  16.616  38.524  14.906
29892W        W93836   1.742   8.785  12.827
29893W        W93837   8.171  35.389   4.230
29894W        W93838  43.288  25.569  10.947
29895W        W93839  25.686  11.815   3.204
29896W        W93840  29.590  32.464   3.861
29897W        W93841  35.073  42.514  10.973
29898W        W93842  18.762  16.619  14.974
29899W        W93843  35.055  34.603  11.088
29900W        W93844  16.807  36.496  12.012
29901W        W93845   4.440  17.728  11.421
29902W        W93846   6.371  12.310  13.916
29903W        W93847   7.716   3.876   2.387
29904W        W93848   7.818  38.538  14.893
29905W        W93849  42.845   4.788   4.654
29906W        W93850  34.498  19.209   1.339
29907W        W93851  22.527  13.836   4.231
29908W        W93852  15.590   6.723   5.316
29909W        W93853  18.122  12.141  11.507
29910W        W93854  36.852  22.048  11.473
29911W        W93855   9.181  34.384   2.870
29912W        W93856  39.470  27.021   3.225
29913W        W93857  37.051  28.679  11.893
29914W        W93858  12.819  21.055  10.895
29915W        W93859  44.336  21.031   2.207
29916W        W93860  25.713  29.135   0.433
29917W        W93861  42.343  20.689   3.197
29918W        W93862  14.220  10.186   3.319
29919W        W93863  36.445  43.834   0.263
29920W        W93864   3.376  20.243  13.914
29921W        W93865  28.596  16.196   0.840
29922W        W93866   2.228  26.491  12.521
29923W        W93867  44.940  39.417  11.976
29924W        W93868  36.487  31.029   0.881
29925W        W93869  10.698  32.889   4.683
29926W        W93870  11.287  37.896  11.427
29927W        W93871  19.676   1.814  11.866
29928W        W93872  29.014  41.365   4.240
29929W        W93873  24.033  16.692  10.411
29930W        W93874  33.034  21.046   0.357
29931W        W93875  42.835  13.172   2.827
29932W        W93876   2.462  13.833  13.533
29933W        W93877  11.686  21.156   2.741
29934W        W93878   6.903  31.595  12.086
29935W        W93879  25.527  18.684  14.764
29936W        W93880   4.315  19.258   2.720
29937W        W93881   8.294  37.383   1.903
29938W        W93882   4.208  10.845  10.904
29939W        W93883  43.894   2.309   2.836
29940W        W93884  24.481   6.751   2.366
29941W        W93885  35.423  10.285  10.615
29942W        W93886  40.549   8.336   0.430
29943W        W93887  22.738  37.424  10.478
29944W        W93888  34.928   6.270  13.889
29945W        W93889  43.779  13.741  12.993
29946W        W93890  22.021   4.699   1.379
29947W        W93891   9.199  23.547  11.988
29948W        W93892  12.223  42.307  11.956
29949W        W93893  25.196  37.432   2.280
29950W        W93894  22.623  10.262  14.900
29951W        W93895  15.244   8.404  10.982
29952W        W93896  33.551   4.432   1.281
29953W        W93897  25.576  27.960   3.256
29954W        W93898  41.308  27.688  10.639
29955W        W93899  38.003  27.120  10.448
29956W        W93900  37.935  36.440   0.909
29957W        W93901  25.708   1.434   2.894
29958W        W93902  34.392  12.641   3.259
29959W        W93903   1.358   6.241  11.993
29960W        W93904  17.701   9.166  10.624
29961W        W93905  28.617  30.986   2.665
29962W        W93906  20.556  11.710  11.565
29963W        W93907  39.017  25.109  12.978
29964W        W93908  10.717  14.796  14.761
29965W        W93909  38.458   9.285   3.241
29966W        W93910  39.927  35.535   3.701
29967W        W93911  36.997   3.868   2.841
29968W        W93912  40.494  30.945  11.036
29969W        W93913  35.947  11.635   0.452
29970W        W93914  43.497  34.909  11.064
29971W        W93915  40.919  33.600   4.352
29972W        W93916  38.359  35.926   1.838
29973W        W93917  13.226  19.536   0.454
29974W        W93918   8.894  28.963  11.952
29975W        W93919  42.876   8.401   2.257
29976W        W93920  17.697  33.019   2.383
29977W        W93921  18.610  22.194   4.209
29978W        W93922  32.034  34.375  13.961
29979W        W93923  23.002  14.267   4.608
29980W        W93924  10.762  43.324  13.905
29981W        W93925  23.047  29.075  11.462
29982W        W93926  31.495  32.889   4.836
29983W        W93927  11.795  13.697   0.815
29984W        W93928  19.265  31.493   3.160
29985W        W93929  25.700  30.163  11.037
29986W        W93930  43.921   1.909  11.402
29987W        W93931  25.664  42.905  14.340
29988W        W93932  31.607  32.507  10.991
29989W        W93933  30.613  28.502  14.995
29990W        W93934  11.327  14.730  10.079
29991W        W93935  41.919  12.198  13.351
29992W        W93936  39.817   7.306   3.172
29993W        W93937  32.501  34.611  13.925
29994W        W93938  29.115  40.978   0.785
29995W        W93939  10.287   6.817   3.224
29996W        W93940  33.505  16.714   0.349
29997W        W93941  39.827  24.660  13.525
29998W        W93942  42.330  34.974   2.264
29999W        W93943   3.778  19.141  13.005
30000W        W93944  25.611  12.244  12.024
30001W        W93945   8.771  28.468  14.281
30002W        W93946  18.088  26.135  11.917
30003W        W93947   5.261   3.849   2.314
30004W        W93948  31.979  22.660  11.590
30005W        W93949   4.866   4.860   1.911
30006W        W93950   7.852  38.465  11.072
30007W        W93951  40.952  14.248   3.748
30008W        W93952  16.228   1.288   1.725
30009W        W93953  37.002  31.420   3.731
30010W        W93954  36.956  43.378   3.693
30011W        W93955   9.154  17.710   3.683
30012W        W93956  15.723  44.465  13.446
30013W        W93957  15.697   2.910  11.375
30014W        W93958  17.722   5.231  14.020
30015W        W93959  12.628  37.880   4.631
30016W        W93960  21.597  25.107   0.322
30017W        W93961   2.265  30.123   3.838
30018W        W93962  33.546  43.894   4.278
30019W        W93963   6.676  43.367  12.456
30020W        W93964  15.770  25.584  14.513
30021W        W93965  15.740  10.722  14.275
30022W        W93966  40.496  18.172  11.941
30023W        W93967   8.345  33.993   1.710
30024W        W93968   9.758  44.336  10.595
30025W        W93969   7.865   0.917  14.401
30026W        W93970  32.985  33.128  14.799
30027W        W93971  26.684  20.664  12.923
30028W        W93972  27.519  27.133   1.918
30029W        W93973   4.335  11.290  12.075
30030W        W93974  14.337  27.967   3.269
30031W        W93975  16.799  37.393   3.733
30032W        W93976  41.458   0.460  10.615
30033W        W93977   4.328   4.892   2.344
30034W        W93978   2.957   7.302   0.398
30035W        W93979  38.440  20.525   4.306
30036W        W93980  19.540  15.213  14.302
30037W        W93981  32.063   8.222  13.472
30038W        W93982  11.746  42.298   0.284
30039W        W93983  43.845   3.788  12.012
30040W        W93984  22.173   4.939  12.533
30041W        W93985  13.607  26.959   2.324
30042W        W93986  14.148  39.355  14.499
30043W        W93987  29.624   7.190   0.450
30044W        W93988  44.388  28.142   1.815
30045W        W93989   3.722  41.333  11.959
30046W        W93990   1.970  33.935   4.682
30047W        W93991  41.831  40.971  14.318
30048W        W93992  20.649  43.939  11.581
30049W        W93993   6.376  35.603  14.298
30050W        W93994  29.120  19.636  12.560
30051W        W93995   8.269  35.876  13.438
30052W        W93996  23.074  35.979   2.676
30053W        W93997   5.404   3.937   4.248
30054W        W93998  30.042  32.636  10.450
30055W        W93999  19.176  31.898  13.949
30056W        W94000  38.354   1.283   4.272
30057W        W94001   3.395  16.104   4.192
30058W        W94002  31.992  22.046   1.862
30059W        W94003  15.325  29.952  14.419
30060W        W94004  10.338  22.555  12.393
30061W        W94005   9.768   4.261  10.519
30062W        W94006   0.372  25.027   1.768
30063W        W94007  28.962  17.616  14.883
30064W        W94008   9.724  32.980  11.585
30065W        W94009  17.268  37.848  12.971
30066W        W94010  29.969   4.824  11.935
30067W        W94011  30.032   6.225  13.003
30068W        W94012   4.741  15.197   1.384
30069W        W94013  31.450  12.149  13.404
30070W        W94014  38.883  18.571  11.385
30071W        W94015   2.299  18.275  13.354
30072W        W94016  38.491  36.931   4.172
30073W        W94017  12.740  29.939   2.710
30074W        W94018  11.155   3.935   9.926
30075W        W94019   1.918  36.928  13.810
30076W        W94020  19.605  12.657   0.761
30077W        W94021  34.548  37.521   2.188
30078W        W94022  15.751   4.877   3.311
30079W        W94023  29.039  12.768  10.489
30080W        W94024  23.545  15.819  13.991
30081W        W94025  23.537  10.191  14.030
30082W        W94026  23.209  32.044  14.769
30083W        W94027  44.797  42.424  13.412
30084W        W94028  30.018  30.035  13.921
30085W        W94029  12.195   2.773   1.312
30086W        W94030  34.530  21.228   3.657
30087W        W94031   9.761  23.066   4.632
30088W        W94032  43.777  44.755   2.727
30089W        W94033  35.568  27.552  12.886
30090W        W94034   9.875   4.438   2.184
30091W        W94035  13.602  15.751   4.179
30092W        W94036  38.018   9.230  14.278
30093W        W94037   3.338  25.973  10.143
30094W        W94038  44.414  31.440   0.870
30095W        W94039  30.938  14.181  13.047
30096W        W94040  32.618  30.517   0.346
30097W        W94041  33.946   8.834   0.448
30098W        W94042  12.698   6.258  14.279
30099W        W94043  30.568  20.272  14.403
30100W        W94044  23.566  39.499  10.603
30101W        W94045  28.038  20.078   2.225
30102W        W94046  29.989  13.701   4.266
30103W        W94047  14.674  11.845  12.927
30104W        W94048  38.391  34.467  12.830
30105W        W94049  12.163  44.917   1.885
30106W        W94050  13.691  42.804   2.762
30107W        W94051  29.614  37.026  13.794
30108W        W94052   7.840  10.216   1.757
30109W        W94053   3.382  19.740   3.732
30110W        W94054  41.985  28.678   3.759
30111W        W94055  43.478  32.889  13.995
30112W        W94056   3.433  39.909   1.237
30113W        W94057  44.921  29.157  11.431
30114W        W94058  26.600  20.254  12.047
30115W        W94059  11.202  21.237  11.907
30116W        W94060  34.531  37.582   0.819
30117W        W94061  31.421  34.397  10.490
30118W        W94062  17.579  28.984  10.550
30119W        W94063  31.640   4.809  12.052
30120W        W94064  43.368   1.733   2.402
30121W        W94065   9.879   0.916  10.110
30122W        W94066  27.478  32.077   0.956
30123W        W94067  25.998  26.663  13.926
30124W        W94068  26.473   9.690  11.904
30125W        W94069  15.200   1.441   2.209
30126W        W94070  32.452  21.182  12.355
30127W        W94071  27.120   0.371  11.506
30128W        W94072  41.907  17.100   3.629
30129W        W94073  42.852  17.726   1.356
30130W        W94074  21.554   5.288   4.682
30131W        W94075  33.968  14.813   4.649
30132W        W94076  15.698   9.205  10.902
30133W        W94077  44.386   9.723  14.859
30134W        W94078  38.841  30.605  10.431
30135W        W94079  41.996  29.161  10.936
30136W        W94080   1.481   0.963  14.957
30137W        W94081  43.835  24.024  14.511
30138W        W94082  34.887  31.055   0.317
30139W        W94083  33.962  27.117   3.705
30140W        W94084  44.007   1.742   0.436
30141W        W94085  17.084   7.667  12.051
30142W        W94086  15.188  42.495   3.220
30143W        W94087  44.765  28.582  14.304
30144W        W94088  32.565  31.583   3.384
30145W        W94089   9.812   2.774  11.949
30146W        W94090  31.145  28.652  14.400
30147W        W94091   3.905  18.725   1.889
30148W        W94092  17.673  18.554  13.421
30149W        W94093   9.649   1.852  12.533
30150W        W94094  22.725  28.972  13.037
30151W        W94095   4.938  34.080  11.002
30152W        W94096  14.628  43.324  14.362
30153W        W94097  26.026  13.618  10.631
30154W        W94098   6.863  18.069   4.819
30155W        W94099   9.720  36.509   4.641
30156W        W94100  30.160  25.090  13.995
30157W        W94101  44.305  44.816   2.272
30158W        W94102   1.851  10.755  14.469
30159W        W94103  34.895   6.813   4.703
30160W        W94104   9.802  19.078  12.077
30161W        W94105  35.597  20.690  11.501
30162W        W94106  10.289   6.757  14.884
30163W        W94107   5.781  19.559  14.829
30164W        W94108  39.463  35.920  13.890
30165W        W94109  34.875  13.349   0.480
30166W        W94110  11.355  31.430   2.188
30167W        W94111   5.269   6.701   4.703
30168W        W94112  28.168  16.141  13.360
30169W        W94113  29.918  35.451  12.000
30170W        W94114  30.119   1.873   4.245
30171W        W94115  16.596  37.567  14.853
30172W        W94116  39.450  33.608  12.024
30173W        W94117  15.108  23.991  14.285
30174W        W94118  40.470  40.035  13.328
30175W        W94119  29.961  18.567   2.416
30176W        W94120   3.373  23.210   2.663
30177W        W94121  21.750  39.912   2.230
30178W        W94122  23.098  20.203  10.972
30179W        W94123  39.443  25.566  11.982
30180W        W94124  14.661  28.643  13.500
30181W        W94125  34.047  30.415   2.213
30182W        W94126  28.126  15.822  10.494
30183W        W94127   9.206  35.982  10.436
30184W        W94128   8.778  13.626   0.941
30185W        W94129   0.272   9.816  10.931
30186W        W94130  10.853  27.954   1.440
30187W        W94131  34.509  41.932   2.237
30188W        W94132  23.672  30.540   0.934
30189W        W94133  19.084  34.533  13.002
30190W        W94134  11.776  24.977   1.812
30191W        W94135  33.575   5.921   3.337
30192W        W94136  13.167  36.365   0.921
30193W        W94137  26.564  28.161   1.257
30194W        W94138  12.637  43.424  10.487
30195W        W94139  35.884   0.341   1.921
30196W        W94140  35.048   0.323  14.930
30197W        W94141   6.702  44.982  10.543
30198W        W94142  29.015   4.772   0.479
30199W        W94143  17.712  15.109   0.395
30200W        W94144  13.819  10.316  13.974
30201W        W94145  24.132  37.857   4.824
30202W        W94146  15.132  42.470  14.313
30203W        W94147  33.598  33.618   4.716
30204W        W94148  44.988  37.854   3.277
30205W        W94149  16.128   3.738  11.873
30206W        W94150  14.279  22.508   3.156
30207W        W94151   8.187  20.069   2.242
30208W        W94152  33.561  19.121   3.810
30209W        W94153   1.398   0.880  11.514
30210W        W94154  13.276  44.453   3.207
30211W        W94155  40.492  22.548  13.436
30212W        W94156   9.664  22.519   2.287
30213W        W94157  32.518  11.264   0.803
30214W        W94158  24.565  42.340   0.844
30215W        W94159   7.836  31.103  11.422
30216W        W94160  41.976   6.291   2.369
30217W        W94161  27.979  33.029  14.869
30218W        W94162   2.874  34.413  14.452
30219W        W94163   2.930  10.250   2.195
30220W        W94164   0.426  26.978   3.723
30221W        W94165  39.464  23.567  12.086
30222W        W94166  23.605   4.383   4.600
30223W        W94167   8.754  13.639   1.710
30224W        W94168  15.258   5.215  11.478
30225W        W94169   5.891  31.125  12.863
30226W        W94170   2.432   3.410   4.729
30227W        W94171   1.463  32.947  14.870
30228W        W94172  33.601  34.099  11.893
30229W        W94173  40.318  11.842  12.938
30230W        W94174  18.129   1.383  12.835
30231W        W94175   3.269   1.279   4.745
30232W        W94176   2.348   8.842  12.061
30233W        W94177  44.324  33.583  10.968
30234W        W94178  22.107  42.920   0.403
30235W        W94179  12.269  35.438  14.844
30236W        W94180  37.523   1.744  11.531
30237W        W94181  41.838  43.508  11.604
30238W        W94182  15.216  38.849   2.754
30239W        W94183  15.716  13.167  12.981
30240W        W94184  41.953   6.696   2.827
30241W        W94185  29.982   9.778   4.349
30242W        W94186  12.201  16.203   0.770
30243W        W94187  40.334   3.826  13.914
30244W        W94188  26.609  25.675  12.852
30245W        W94189   5.761  18.671   2.277
30246W        W94190  38.340  30.094   1.415
30247W        W94191  43.500  40.940   0.449
30248W        W94192   0.944  42.420  12.527
30249W        W94193   5.381  33.462   0.304
30250W        W94194   2.286   6.907   0.844
30251W        W94195  23.993  39.932  13.423
30252W        W94196  18.216   4.733  14.884
30253W        W94197   4.900  43.886  14.760
30254W        W94198  18.671  22.707   3.192
30255W        W94199  16.147  14.198  10.462
30256W        W94200  43.969   0.330   2.283
30257W        W94201  18.130  20.747   1.328
30258W        W94202  25.601  35.946   3.177
30259W        W94203  13.106   7.190  11.433
30260W        W94204  15.293  23.145   4.671
30261W        W94205   0.309  13.134   0.445
30262W        W94206  18.073  44.298   2.181
30263W        W94207  28.548  29.477   3.664
30264W        W94208  12.631  43.824  12.835
30265W        W94209  33.427  23.586   2.359
30266W        W94210  34.489  11.178   1.906
30267W        W94211  26.577  13.813   3.717
30268W        W94212  28.956  19.217   5.123
30269W        W94213   4.208   0.976   1.792
30270W        W94214  15.651  21.049  13.804
30271W        W94215  40.912  11.133  10.500
30272W        W94216  23.562  31.431   1.735
30273W        W94217  24.094  36.481   4.323
30274W        W94218  24.221  32.480  14.973
30275W        W94219   8.690  31.594   2.317
30276W        W94220  25.207  31.939  12.036
30277W        W94221  18.211  33.932  10.892
30278W        W94222  40.459  14.723   3.197
30279W        W94223  40.003   3.903   2.315
30280W        W94224  40.908  39.433  12.563
30281W        W94225  27.452  43.416   0.414
30282W        W94226  41.351  19.175  14.023
30283W        W94227  30.599  20.168   2.205
30284W        W94228   1.448  27.947  12.540
30285W        W94229  15.329  15.709   4.667
30286W        W94230  39.365  14.660  12.546
30287W        W94231  20.664  25.172   2.236
30288W        W94232  23.084  17.192  13.523
30289W        W94233  14.655  17.687   1.238
30290W        W94234  20.170  25.972   0.793
30291W        W94235   8.344  30.604  14.801
30292W        W94236   4.334   9.843  12.089
30293W        W94237  14.128  39.424  13.886
30294W        W94238  15.239   4.259  11.453
30295W        W94239  11.840  28.623   9.993
30296W        W94240  36.098  30.466   2.746
30297W        W94241  20.622  12.737  13.486
30298W        W94242  19.265  17.259  12.530
30299W        W94243  11.842   8.884   1.856
30300W        W94244  20.573  35.060  12.397
30301W        W94245  28.536  44.355   1.325
30302W        W94246  31.631  42.962   4.644
30303W        W94247   8.677  42.388  10.439
30304W        W94248  14.292   5.297  13.883
30305W        W94249  43.412  19.535  10.126
30306W        W94250  26.467  33.917  11.504
30307W        W94251   2.373   8.285   0.842
30308W        W94252  19.239  14.763  10.572
30309W        W94253   2.800  21.229  14.388
30310W        W94254  28.553  31.995   4.735
30311W        W94255   7.217  23.984   3.308
30312W        W94256  44.920   6.846   2.885
30313W        W94257  38.397   6.291  13.944
30314W        W94258   7.818  25.607   3.298
30315W        W94259   9.724  28.035  13.442
30316W        W94260  12.335  33.418  14.763
30317W        W94261  39.326   1.961   1.333
30318W        W94262   6.254  16.683  12.380
30319W        W94263  10.757   1.937  12.916
30320W        W94264  21.740   2.895   4.244
30321W        W94265   2.458  22.712   3.307
30322W        W94266  28.594   3.456  12.012
30323W        W94267  19.107   4.250  14.401
30324W        W94268  31.032  26.473   9.991
30325W        W94269  28.599  28.592   4.329
30326W        W94270  11.127  10.309  13.994
30327W        W94271   4.779  12.696  12.023
30328W        W94272  19.607  34.540  12.482
30329W        W94273  23.028  21.698  10.416
30330W        W94274  44.950  44.394   1.764
30331W        W94275  28.654  19.649   1.860
30332W        W94276   9.281   8.795   4.637
30333W        W94277   2.722  11.628  11.117
30334W        W94278  25.536  27.078   2.346
30335W        W94279  44.932  28.533   3.287
30336W        W94280  38.005   2.360  11.580
30337W        W94281  37.925  41.841  12.921
30338W        W94282  17.597  30.590  12.947
30339W        W94283  15.740  29.151   2.858
30340W        W94284  10.770  11.726  11.080
30341W        W94285  34.409   3.417   2.771
30342W        W94286   1.861  17.592   4.791
30343W        W94287  12.230  35.411  10.953
30344W        W94288  38.945  36.006  10.121
30345W        W94289  31.501   7.282  14.381
30346W        W94290   6.370  11.636   0.459
30347W        W94291  15.210   8.174  12.365
30348W        W94292  26.032  13.634  12.980
30349W        W94293  28.977   9.393  13.410
30350W        W94294  42.366  44.010   2.283
30351W        W94295  39.044   3.405   5.116
30352W        W94296  33.574  40.838   3.715
30353W        W94297  39.821  10.138  14.316
30354W        W94298  30.434  34.430   1.391
30355W        W94299  42.356  23.235  14.814
30356W        W94300   2.823  31.980   1.806
30357W        W94301  24.518  44.413   3.809
30358W        W94302  39.832   7.886   0.298
30359W        W94303   6.292  19.606  13.895
30360W        W94304  26.528   0.878   4.188
30361W        W94305  30.438  32.123   1.882
30362W        W94306   8.398  14.186   9.495
30363W        W94307   9.171  26.956   9.932
30364W        W94308   4.930  44.474  14.989
30365W        W94309  27.183  15.719   2.288
30366W        W94310  23.634  15.647   3.717
30367W        W94311  40.852  11.162   4.214
30368W        W94312  12.355  29.447   2.211
30369W        W94313  33.476   5.421   1.363
30370W        W94314  36.353   7.338  14.768
30371W        W94315  24.107  37.569   2.244
30372W        W94316   0.357  19.549  14.920
30373W        W94317  29.450   2.460  12.024
30374W        W94318   7.386  33.036  14.936
30375W        W94319   3.368   5.696  11.581
30376W        W94320  19.163  31.417   4.213
30377W        W94321  42.337  31.565   0.339
30378W        W94322   0.888   0.878  12.373
30379W        W94323  22.140   7.316  11.411
30380W        W94324  24.716  33.556   4.222
30381W        W94325  23.179  34.010   2.417
30382W        W94326  12.695  40.053   4.249
30383W        W94327   8.885  23.726   2.772
30384W        W94328   4.843  24.519   3.237
30385W        W94329  18.090  14.323  13.019
30386W        W94330  34.478  40.851  11.925
30387W        W94331  42.790  11.318   1.902
30388W        W94332  39.878  19.172  12.088
30389W        W94333  38.844  38.027  14.512
30390W        W94334  22.623  16.652  11.389
30391W        W94335  22.594   7.750  14.387
30392W        W94336  17.784   8.743   3.276
30393W        W94337  15.743   4.870  11.888
30394W        W94338  18.623   1.479  11.889
30395W        W94339   8.846  25.990   2.364
30396W        W94340   0.484   9.733  12.962
30397W        W94341  23.227  29.486  12.395
30398W        W94342  20.143  43.886  11.490
30399W        W94343  12.699  13.838   1.737
30400W        W94344  28.579  28.618   2.773
30401W        W94345  25.707  19.572  11.048
30402W        W94346  19.190  17.227   2.392
30403W        W94347  40.524  11.856  12.372
30404W        W94348  16.698  27.681  11.074
30405W        W94349  37.023  31.968   3.150
30406W        W94350  27.626   1.783  13.342
30407W        W94351  26.609  12.835   0.968
30408W        W94352  19.207  30.940  14.931
30409W        W94353  15.736  11.224  14.333
30410W        W94354  36.466   0.826   3.196
30411W        W94355   8.699  27.032  10.419
30412W        W94356  30.640   8.689   1.873
30413W        W94357  28.175  28.666   2.856
30414W        W94358  36.867   6.677   3.227
30415W        W94359  26.185  21.652   1.834
30416W        W94360  35.065  21.650   0.886
30417W        W94361  15.114   8.317  13.339
30418W        W94362  11.770   2.851   4.215
30419W        W94363  41.533  10.654   4.830
30420W        W94364  26.466  12.718  14.769
30421W        W94365   8.789  33.622  13.061
30422W        W94366  31.495  11.316   0.367
30423W        W94367  32.935   8.245   3.744
30424W        W94368  28.487  25.573   3.776
30425W        W94369  31.000   7.256   4.720
30426W        W94370  10.150  26.102  11.017
30427W        W94371  18.557   0.468   3.328
30428W        W94372  16.310  17.643   4.144
30429W        W94373   2.880  37.072   1.907
30430W        W94374  38.350   2.410   4.142
30431W        W94375  14.316  27.024   3.688
30432W        W94376   2.460  23.524  13.954
30433W        W94377   3.777  41.440  11.372
30434W        W94378  33.950  40.522  10.475
30435W        W94379  16.256  44.273   1.898
30436W        W94380   5.843   1.974   4.277
30437W        W94381  17.595  11.128   3.362
30438W        W94382  34.052   8.778  14.406
30439W        W94383  37.004  35.879   0.967
30440W        W94384  43.379  41.800   2.699
30441W        W94385  26.619  31.145  10.945
30442W        W94386  18.277  35.371  11.440
30443W        W94387   3.415   0.797  14.445
30444W        W94388   3.426  41.907   0.783
30445W        W94389   9.756  25.111  13.546
30446W        W94390  33.515   4.839  11.476
30447W        W94391  37.944  39.828   3.256
30448W        W94392  17.168  12.226  13.370
30449W        W94393  28.439  26.695  10.918
30450W        W94394   2.456   8.316  11.531
30451W        W94395  44.349  19.275   2.764
30452W        W94396  36.453  34.085   1.800
30453W        W94397  43.309  11.161  11.588
30454W        W94398  44.479  18.149   1.417
30455W        W94399  36.482  32.411   1.836
30456W        W94400  15.743  28.174   2.722
30457W        W94401   8.319   5.218   1.338
30458W        W94402  37.423  30.474   3.683
30459W        W94403  39.532  27.003  13.890
30460W        W94404   7.689  43.469  13.892
30461W        W94405  29.438   4.806   2.894
30462W        W94406  41.425  36.851   0.926
30463W        W94407  32.104   7.230   2.291
30464W        W94408  36.465  28.952   4.149
30465W        W94409  36.006  27.171  12.474
30466W        W94410  18.695  28.019  13.961
30467W        W94411  34.924  14.330  11.552
30468W        W94412  32.987  29.470   1.809
30469W        W94413  35.464   8.870  13.455
30470W        W94414  35.966  37.458   4.722
30471W        W94415   8.891  18.599  14.008
30472W        W94416  41.807  43.427  14.863
30473W        W94417   5.277  36.557  14.283
30474W        W94418  26.174  38.455  12.935
30475W        W94419  12.265  12.835   1.866
30476W        W94420  43.503  19.732  13.824
30477W        W94421  21.244  39.818   4.130
30478W        W94422  12.710   5.771  14.011
30479W        W94423   3.363  44.901  11.550
30480W        W94424  10.837  22.720   4.188
30481W        W94425  23.700   5.863  12.409
30482W        W94426  18.061  22.251   2.722
30483W        W94427   5.400  25.038  11.469
30484W        W94428  33.543   7.852  10.895
30485W        W94429   3.403  32.530  12.525
30486W        W94430  34.372  41.348   2.333
30487W        W94431  18.190  25.068  12.912
30488W        W94432  41.532  38.502  12.072
30489W        W94433  16.699  26.696  11.903
30490W        W94434  17.281  25.033  14.968
30491W        W94435  18.056  34.084   0.819
30492W        W94436  16.671  22.596   2.732
30493W        W94437  34.376  35.918  10.593
30494W        W94438  43.930  44.365  13.904
30495W        W94439  31.134   2.829   2.745
30496W        W94440   6.700  15.215  10.119
30497W        W94441   2.765  37.990   3.657
30498W        W94442  28.072  31.120   3.681
30499W        W94443   9.652  43.876   4.286
30500W        W94444  31.950  10.755   2.731
30501W        W94445  41.982  26.560   9.966
30502W        W94446   4.737  23.125   1.342
30503W        W94447  43.339  21.603   3.734
30504W        W94448  29.034  14.228   2.739
30505W        W94449  40.355  43.388   4.603
30506W        W94450   5.239   8.247   0.920
30507W        W94451   7.854  39.892  10.527
30508W        W94452  26.018  26.583   5.126
30509W        W94453  31.929  27.130  11.579
30510W        W94454  15.152  16.161  12.450
30511W        W94455  35.102  34.976   1.342
30512W        W94456  33.056  14.190   3.788
30513W        W94457   1.822  24.166   2.410
30514W        W94458  39.501  22.556   0.769
30515W        W94459   8.756  12.327  14.882
30516W        W94460  21.621  33.452  11.492
30517W        W94461  35.999  34.916  13.976
30518W        W94462  43.799   1.900   4.828
30519W        W94463  34.054   2.347   1.421
30520W        W94464  44.303   3.783  10.412
30521W        W94465  12.165  30.646   3.630
30522W        W94466  35.382  13.142   2.852
30523W        W94467  42.010   0.461  12.848
30524W        W94468   0.415   6.749   5.118
30525W        W94469  14.758  27.541   3.268
30526W        W94470   4.296   1.274   3.714
30527W        W94471  17.760  10.731  10.543
30528W        W94472   5.869  27.127  12.975
30529W        W94473   5.733  10.650  14.405
30530W        W94474  39.552  42.032   3.815
30531W        W94475  22.561  16.146  11.502
30532W        W94476  31.573   7.752  14.015
30533W        W94477   4.928  30.089   3.761
30534W        W94478  43.797  32.888  13.523
30535W        W94479  32.603  41.910   3.685
30536W        W94480  13.738  13.217   0.412
30537W        W94481  25.599  34.895   0.288
30538W        W94482  39.341  31.504   1.353
30539W        W94483  24.999  43.387  11.010
30540W        W94484  14.122  33.047   2.197
30541W        W94485  26.000   6.812   4.155
30542W        W94486  27.944  13.227   0.726
30543W        W94487  30.423  38.987  14.954
30544W        W94488  30.029   2.400  12.517
30545W        W94489  27.978   9.668  13.508
30546W        W94490  40.023  23.192  11.439
30547W        W94491  25.984   8.390   2.310
30548W        W94492  34.466   8.174   1.351
30549W        W94493  25.088  23.520   1.361
30550W        W94494  25.588  33.057  12.931
30551W        W94495  41.874  39.465   1.345
30552W        W94496  29.547   1.911  11.963
30553W        W94497   7.345  28.626   1.818
30554W        W94498  40.438   6.709  11.106
30555W        W94499   3.325   1.307  12.828
30556W        W94500   8.739  19.131  10.635
30557W        W94501  27.183   7.831  14.416
30558W        W94502  42.370   9.858   2.196
30559W        W94503  27.535   2.882   0.479
30560W        W94504  39.537   9.890  10.914
30561W        W94505  14.612  18.071  12.553
30562W        W94506  10.207  28.616   1.931
30563W        W94507   9.776   7.276  11.412
30564W        W94508  18.268   6.883   5.179
30565W        W94509   6.721  41.327   4.764
30566W        W94510   2.456  10.354  12.093
30567W        W94511   4.329  10.164   3.799
30568W        W94512  10.267  39.847   3.231
30569W        W94513   3.737  12.813   1.231
30570W        W94514  19.618  44.972  11.584
30571W        W94515   9.752  27.971   3.799
30572W        W94516  38.905  36.009  12.939
30573W        W94517  26.009  38.932   4.152
30574W        W94518   7.822  41.436  13.054
30575W        W94519  18.172  25.523  13.339
30576W        W94520  44.377  14.213  12.538
30577W        W94521   4.384  13.208   3.370
30578W        W94522  20.742   2.277  12.370
30579W        W94523  13.623  35.983   4.274
30580W        W94524   9.379  39.401   2.349
30581W        W94525  33.617   5.690   1.445
30582W        W94526   5.257  18.765  12.007
30583W        W94527   2.784  37.386   3.774
30584W        W94528  36.438  37.407  13.395
30585W        W94529  40.804  23.538   3.682
30586W        W94530  31.955  14.307   2.249
30587W        W94531  28.474  13.809   0.961
30588W        W94532   2.964   7.176   1.885
30589W        W94533   6.865  10.200  12.461
30590W        W94534  31.648  23.182   3.711
30591W        W94535  23.064   9.319   4.187
30592W        W94536  25.194  26.558  14.380
30593W        W94537  29.435  44.811   3.293
30594W        W94538  18.644   2.244  10.568
30595W        W94539  40.823  25.011  14.321
30596W        W94540  23.543   3.333   1.770
30597W        W94541  12.709   7.375  12.344
30598W        W94542  44.832  18.622  14.936
30599W        W94543  39.001  26.599  13.442
30600W        W94544  25.987   8.338  12.830
30601W        W94545   9.676  18.184   5.614
30602W        W94546  30.511  22.734   3.279
30603W        W94547  43.780  40.855  14.440
30604W        W94548  38.353   5.345  11.533
30605W        W94549  30.084   3.711   4.801
30606W        W94550  29.624  42.830  11.044
30607W        W94551  20.624   1.420  12.068
30608W        W94552  16.232   2.385  13.419
30609W        W94553  42.360  30.020  11.111
30610W        W94554  39.426  24.185  12.993
30611W        W94555   3.360  42.412   0.822
30612W        W94556  30.429  36.445   1.734
30613W        W94557  37.362  21.045  10.413
30614W        W94558  41.862  41.454  13.335
30615W        W94559  40.967  18.215  11.880
30616W        W94560   1.813  34.866   3.236
30617W        W94561  13.734  10.222   2.751
30618W        W94562  12.258  14.103   2.262
30619W        W94563  36.041   0.756   1.900
30620W        W94564  19.598  13.287  14.507
30621W        W94565  26.961  25.031   0.246
30622W        W94566   0.354  23.556  13.513
30623W        W94567  24.684  44.942   1.870
30624W        W94568  28.033  43.380   3.254
30625W        W94569   8.340  15.714  14.004
30626W        W94570   4.247   3.951  11.019
30627W        W94571  16.687  31.606  12.490
30628W        W94572  11.808  15.165   0.812
30629W        W94573  42.954  16.730  12.002
30630W        W94574  12.285  38.418   3.147
30631W        W94575  16.160   6.853   2.390
30632W        W94576  22.196  28.058   1.869
30633W        W94577  15.283  44.010   3.282
30634W        W94578   4.876  13.107  11.601
30635W        W94579  20.055  16.077   3.222
30636W        W94580  17.662  36.909  11.907
30637W        W94581  22.083  26.105  13.010
30638W        W94582  24.182  44.423   0.776
30639W        W94583  11.145  30.947  10.970
30640W        W94584  40.354  44.495   3.258
30641W        W94585  38.475  25.516   2.716
30642W        W94586  29.948  19.228   1.298
30643W        W94587  24.567  31.479   1.886
30644W        W94588  17.185  13.648   1.336
30645W        W94589   9.802  14.171   0.866
30646W        W94590  37.875  19.118   0.302
30647W        W94591  39.838  16.792   2.388
30648W        W94592   0.895   3.935   0.873
30649W        W94593  13.143  14.784  10.638
30650W        W94594  22.619  29.128  10.120
30651W        W94595   7.221  43.974   2.231
30652W        W94596  31.022  22.104   1.440
30653W        W94597   6.873  27.097   0.247
30654W        W94598  20.586  21.028  12.092
30655W        W94599  14.594  20.120   4.262
30656W        W94600  42.288  39.360  13.987
30657W        W94601  32.974  22.536  11.383
30658W        W94602  11.732  27.505   1.231
30659W        W94603  28.576  39.455   4.343
30660W        W94604  23.108  41.826   0.861
30661W        W94605  37.484  29.582  10.423
30662W        W94606  38.988   4.368  14.344
30663W        W94607  13.123  26.208  11.087
30664W        W94608   6.863  10.187   0.400
30665W        W94609  43.836  38.977  10.956
30666W        W94610  40.509  38.960   5.297
30667W        W94611  16.191  40.468   0.835
30668W        W94612  31.954  13.147  14.831
30669W        W94613  31.532  42.415   2.272
30670W        W94614  24.478  13.188   1.847
30671W        W94615  22.192   5.724  13.943
30672W        W94616  22.622  31.507   2.800
30673W        W94617  26.658  42.867   5.221
30674W        W94618   5.802  34.057  12.528
30675W        W94619  22.148  41.394   1.775
30676W        W94620  41.352  21.116   2.860
30677W        W94621  29.103  11.763   4.115
30678W        W94622  39.434   0.365  10.556
30679W        W94623  16.754  32.501   3.340
30680W        W94624  21.526  30.463  13.869
30681W        W94625  44.325  16.149  12.940
30682W        W94626  39.466  35.883  10.611
30683W        W94627  26.615   9.870   3.858
30684W        W94628   7.798  38.862  10.968
30685W        W94629  31.100  22.639   0.430
30686W        W94630  33.994  36.581  12.394
30687W        W94631  35.908   5.269  10.434
30688W        W94632  14.261  14.198   1.222
30689W        W94633  20.540  11.848   0.385
30690W        W94634  27.174  32.433  14.774
30691W        W94635  14.620  34.975   2.677
30692W        W94636  17.603  33.513   1.761
30693W        W94637  25.531  35.865   4.248
30694W        W94638  23.088  28.168  11.505
30695W        W94639  26.694  40.405   3.843
30696W        W94640  14.758  26.077   4.255
30697W        W94641  33.064  41.892  10.429
30698W        W94642  21.049  10.821  13.403
30699W        W94643   5.438  27.448   2.207
30700W        W94644  32.891  22.188   0.308
30701W        W94645  37.857  37.021   1.758
30702W        W94646  36.557  28.178   3.837
30703W        W94647  30.468  10.381  10.420
30704W        W94648  35.906  21.579  14.418
30705W        W94649   8.842   0.829   2.676
30706W        W94650  33.622  44.421  11.492
30707W        W94651   3.881  37.927  14.303
30708W        W94652  39.015  39.456  13.859
30709W        W94653  39.962  35.436  13.323
30710W        W94654  33.424  33.918  13.986
30711W        W94655  37.856  17.065  12.430
30712W        W94656  17.591  29.113  13.413
30713W        W94657  43.843  33.117   3.717
30714W        W94658  31.574  41.448  13.835
30715W        W94659   7.382  11.839  13.899
30716W        W94660  23.075  14.633   4.331
30717W        W94661  21.706  25.152   4.758
30718W        W94662  40.387  11.668   0.374
30719W        W94663   9.877   5.852  12.533
30720W        W94664  23.069   8.764  12.538
30721W        W94665  28.678   7.324  11.014
30722W        W94666  42.827  38.348   1.916
30723W        W94667  26.080   6.900   2.400
30724W        W94668  14.819  40.407   0.936
30725W        W94669   8.707  33.029   4.607
30726W        W94670  10.739  43.499   4.714
30727W        W94671  17.141  40.972   4.232
30728W        W94672   9.788  40.047   2.276
30729W        W94673  24.620  28.500   1.819
30730W        W94674  10.228  32.889   0.899
30731W        W94675  20.563  33.390   0.478
30732W        W94676   5.700  21.150   2.299
30733W        W94677  15.093  12.695  12.030
30734W        W94678  16.695  26.120  12.373
30735W        W94679   6.853  10.362   3.365
30736W        W94680  29.608  24.124  12.924
30737W        W94681  34.613  33.454   0.878
30738W        W94682  41.864  44.282   0.743
30739W        W94683  11.348  22.678   3.867
30740W        W94684  41.465  17.791  14.010
30741W        W94685  19.674  23.688  10.906
30742W        W94686  10.278  11.673  14.385
30743W        W94687  34.537  43.780  11.530
30744W        W94688  27.941  20.613  14.477
30745W        W94689  29.446   5.763   1.935
30746W        W94690   0.808  26.576   4.322
30747W        W94691   4.908  38.928   0.873
30748W        W94692   0.294  32.109   2.778
30749W        W94693  18.050  37.899   4.835
30750W        W94694  41.022  16.295   0.757
30751W        W94695   3.835  31.493  10.953
30752W        W94696  17.728  36.402  11.449
30753W        W94697  43.773  14.134   2.731
30754W        W94698  32.579   9.202   3.849
30755W        W94699  20.706  18.261  12.040
30756W        W94700   6.318  42.806   0.762
30757W        W94701   3.761  20.547   4.692
30758W        W94702  26.971  17.579  13.436
30759W        W94703  36.842  22.587  12.394
30760W        W94704  15.325  17.125   1.227
30761W        W94705  12.189  17.628  12.905
30762W        W94706  33.088   1.363  14.456
30763W        W94707  17.653  27.620  11.094
30764W        W94708  11.850  20.040  12.836
30765W        W94709  15.123  36.353   4.322
30766W        W94710   2.396   9.886  13.519
30767W        W94711  34.609  33.526   1.810
30768W        W94712   3.902  36.094   0.390
30769W        W94713  42.820   2.385   4.687
30770W        W94714   8.699  27.061  14.405
30771W        W94715  26.105  14.823   1.766
30772W        W94716  41.972  40.010   3.683
30773W        W94717  27.599  36.379   1.858
30774W        W94718   0.859  41.486   2.395
30775W        W94719  40.504  35.978  10.095
30776W        W94720  11.370  41.375  14.342
30777W        W94721  33.582  11.355  10.030
30778W        W94722  21.145  30.025   3.702
30779W        W94723  26.668  17.637  13.867
30780W        W94724  31.019  36.452   0.341
30781W        W94725  42.969  43.991  13.850
30782W        W94726  11.192   5.717  12.492
30783W        W94727  17.676  34.003   1.776
30784W        W94728  26.577   4.942   4.639
30785W        W94729  25.207   4.916   2.370
30786W        W94730  38.503  25.700   4.724
30787W        W94731  42.393  30.465  14.995
30788W        W94732  23.989  42.376  14.336
30789W        W94733  31.565  12.802  10.538
30790W        W94734  39.519  38.435  14.987
30791W        W94735   4.925   3.789   4.143
30792W        W94736  28.161  10.878  12.021
30793W        W94737  28.618  10.242   4.837
30794W        W94738  27.630  14.614  11.576
30795W        W94739  38.995  11.371  14.500
30796W        W94740   8.895  13.654  14.832
30797W        W94741  25.523  17.759  14.329
30798W        W94742  41.947   4.432  12.442
30799W        W94743  16.165  28.484   3.270
30800W        W94744   4.790  37.067   4.175
30801W        W94745  15.084  20.136  13.472
30802W        W94746  16.601  21.100   0.415
30803W        W94747  18.290  28.676  12.453
30804W        W94748  36.045  34.944   4.201
30805W        W94749  27.599  35.450  13.399
30806W        W94750  38.566  22.539   4.628
30807W        W94751  22.162  10.689  11.393
30808W        W94752  42.988  40.876   1.765
30809W        W94753  33.451  37.995   0.751
30810W        W94754  35.588   1.345   4.647
30811W        W94755  30.153   2.424  11.119
30812W        W94756  13.147  32.963  11.445
30813W        W94757   0.382  37.398  13.895
30814W        W94758  44.424  39.476  11.509
30815W        W94759  40.925   1.359   3.253
30816W        W94760   0.962  31.053  12.541
30817W        W94761  17.728  14.757  11.857
30818W        W94762  11.301  43.807   4.351
30819W        W94763  36.476  16.656  12.000
30820W        W94764  13.105   5.340  13.889
30821W        W94765  37.885  25.632  11.383
30822W        W94766  29.047  43.362   1.443
30823W        W94767  11.756  19.044   2.378
30824W        W94768   0.302  10.228  13.489
30825W        W94769  38.037  32.622   0.837
30826W        W94770  10.646  29.175   3.166
30827W        W94771  14.301  37.389   0.458
30828W        W94772  14.709  33.046  13.811
30829W        W94773  40.342  33.932   1.854
30830W        W94774   1.768  29.943  11.447
30831W        W94775  29.511  43.490   1.279
30832W        W94776  21.147  12.360   2.270
30833W        W94777  40.445  28.040   1.896
30834W        W94778  28.183  42.517   4.271
30835W        W94779  44.422  36.051   4.243
30836W        W94780  42.907  21.139   0.781
30837W        W94781  13.675  10.770  12.471
30838W        W94782  11.749  37.984   3.769
30839W        W94783  10.382  26.194   1.800
30840W        W94784  39.323   9.150   1.343
30841W        W94785  31.583   8.319   1.910
30842W        W94786  32.124  44.006   1.892
30843W        W94787  41.307  12.685   3.788
30844W        W94788   3.296  14.793   2.852
30845W        W94789  31.055  22.164  14.768
30846W        W94790  44.436  10.877   3.356
30847W        W94791   6.426  42.006  11.108
30848W        W94792  42.503  30.986  14.923
30849W        W94793  43.836  31.898   3.794
30850W        W94794   3.394  28.038  11.903
30851W        W94795  13.649  33.566  10.979
30852W        W94796  35.557  28.931   4.790
30853W        W94797   7.770  24.512   1.783
30854W        W94798  24.109   8.687   2.221
30855W        W94799   9.734  37.574  12.926
30856W        W94800   1.268  21.105   0.771
30857W        W94801  21.025  25.674   2.734
30858W        W94802  28.478  37.004  11.409
30859W        W94803  17.728   9.670  14.303
30860W        W94804  16.289  15.096   2.405
30861W        W94805  16.104  22.531  14.507
30862W        W94806  25.647  34.396  12.000
30863W        W94807  19.688   1.375   2.263
30864W        W94808  40.965  33.575  11.857
30865W        W94809  27.020  27.104  10.533
30866W        W94810  44.269  23.034  10.520
30867W        W94811  36.909   1.425   0.945
30868W        W94812  31.029  42.787   0.324
30869W        W94813   5.917  15.803  11.069
30870W        W94814  33.874  17.568  12.967
30871W        W94815  41.817  39.349  10.969
30872W        W94816  27.006  18.295   0.246
30873W        W94817   7.301   3.389  11.859
30874W        W94818  17.725  12.744   3.866
30875W        W94819  29.477   2.305   4.600
30876W        W94820  22.687  11.867   3.277
30877W        W94821   6.391   0.966   5.230
30878W        W94822  25.579  22.220  11.373
30879W        W94823  22.058  15.217   0.864
30880W        W94824  31.961  11.676   2.685
30881W        W94825   8.785  26.581   3.230
30882W        W94826   6.836   6.769   0.277
30883W        W94827   8.827  30.101   3.652
30884W        W94828   7.341  23.187   2.378
30885W        W94829   1.750  22.237   3.731
30886W        W94830  33.587  11.220  13.941
30887W        W94831  39.883  30.504   4.286
30888W        W94832  19.109  26.544  11.560
30889W        W94833  26.585   9.354   5.176
30890W        W94834  26.190  41.788  12.455
30891W        W94835  25.032  43.418  14.015
30892W        W94836  28.115  22.545  10.495
30893W        W94837  33.877   9.798  14.396
30894W        W94838   0.471  38.565   4.162
30895W        W94839  12.255  33.127  12.512
30896W        W94840  26.564   0.952  13.411
30897W        W94841   2.270  11.782  12.354
30898W        W94842  36.845   9.711   3.302
30899W        W94843   8.324  22.161  13.982
30900W        W94844  26.010  41.885  14.465
30901W        W94845  18.179  14.182  14.932
30902W        W94846  32.903  41.390  14.884
30903W        W94847  40.543  14.098   4.705
30904W        W94848  40.842  41.001  13.407
30905W        W94849  28.130  27.662   1.391
30906W        W94850  28.460   7.371  12.094
30907W        W94851  22.232  18.208   0.368
30908W        W94852  43.977  39.848   1.240
30909W        W94853  25.470  12.145  13.818
30910W        W94854  44.989  25.594  13.342
30911W        W94855  23.578  13.616   2.664
30912W        W94856  38.942  14.179   5.243
30913W        W94857  15.307  10.362  12.461
30914W        W94858  18.054   2.266   4.734
30915W        W94859  21.143  20.605  10.059
30916W        W94860  19.132  29.669   0.325
30917W        W94861  26.597   3.288  11.864
30918W        W94862   5.795   4.213  12.864
30919W        W94863  34.066  28.057  10.047
30920W        W94864  14.702  40.371   3.312
30921W        W94865  25.077  27.547  10.421
30922W        W94866  41.912  38.368  13.823
30923W        W94867   8.761   2.881  11.406
30924W        W94868  11.325  18.224   2.224
30925W        W94869  30.975  13.212   1.714
30926W        W94870   2.764   4.449   0.445
30927W        W94871   0.487  32.555   4.207
30928W        W94872  41.459   4.325   4.838
30929W        W94873   1.447  26.083  13.868
30930W        W94874  26.482  38.985   3.671
30931W        W94875  38.418  37.367  13.368
30932W        W94876  22.730   6.184  11.066
30933W        W94877  34.506  37.453  11.436
30934W        W94878   7.868  22.247   3.255
30935W        W94879   5.267   3.737   0.818
30936W        W94880  40.511  38.371   4.182
30937W        W94881   3.765   2.232   1.858
30938W        W94882  27.173  36.093   3.160
30939W        W94883  36.418  36.435   0.397
30940W        W94884  10.149   8.750   4.163
30941W        W94885   4.796  23.153   5.259
30942W        W94886  33.018  10.657   4.726
30943W        W94887  22.545  22.174   1.805
30944W        W94888  16.753  13.700   3.682
30945W        W94889   2.880  37.440  10.100
30946W        W94890  39.046  33.973   4.778
30947W        W94891  37.443  36.030  10.414
30948W        W94892  11.180  23.998  13.433
30949W        W94893  31.110  18.598  13.389
30950W        W94894  41.939   8.217   1.742
30951W        W94895  33.004   3.335   0.468
30952W        W94896  20.205  40.480  14.911
30953W        W94897  21.181   5.214  13.395
30954W        W94898  28.506  19.738   0.865
30955W        W94899  31.088  12.348   4.703
30956W        W94900  42.994   9.673   2.314
30957W        W94901  21.162  44.482  13.901
30958W        W94902  39.050  25.579  14.869
30959W        W94903  26.181   8.813  10.929
30960W        W94904   0.809  25.192  14.869
30961W        W94905  19.690  26.471  14.850
30962W        W94906   1.975  39.962   3.358
30963W        W94907  41.342   0.759  14.866
30964W        W94908  38.457  41.004  13.336
30965W        W94909  29.582  19.769  12.086
30966W        W94910   5.204  15.087  10.563
30967W        W94911  26.461  21.742   0.946
30968W        W94912  18.053  10.826   3.871
30969W        W94913  15.683  16.283  11.857
30970W        W94914  22.630  32.063  13.944
30971W        W94915   9.816  28.983  14.837
30972W        W94916  11.226  22.042  13.821
30973W        W94917  14.769  20.039   1.739
30974W        W94918  43.288   1.479   2.666
30975W        W94919  12.788   5.207  13.393
30976W        W94920  27.072   3.826   3.367
30977W        W94921  12.165  12.216   2.234
30978W        W94922  38.364  21.594  14.767
30979W        W94923  32.516   0.473   3.662
30980W        W94924  26.516  32.506  13.953
30981W        W94925  24.554  37.383   3.692
30982W        W94926  11.775  43.772  14.395
30983W        W94927   5.239  22.079   0.948
30984W        W94928  42.946  25.097   2.186
30985W        W94929  33.088  19.088  13.820
30986W        W94930  25.632   8.261   3.828
30987W        W94931  19.627   1.286   1.286
30988W        W94932  22.682  24.217   4.308
30989W        W94933  43.314  10.749  13.893
30990W        W94934  12.319  10.384   0.734
30991W        W94935  28.471  35.361   1.828
30992W        W94936  28.074  15.608   4.297
30993W        W94937  28.621  30.613  14.891
30994W        W94938   3.766  10.154   1.847
30995W        W94939  39.461  28.950   0.871
30996W        W94940  13.735  19.082  14.448
30997W        W94941   0.944  32.535  14.293
30998W        W94942   5.688  15.658  10.438
30999W        W94943   6.774  25.141  14.977
31000W        W94944  26.468  11.769   4.632
31001W        W94945   2.445  22.644  13.454
31002W        W94946  18.634   5.426   2.850
31003W        W94947  41.393  23.540  14.512
31004W        W94948  17.777  10.655   1.437
31005W        W94949  31.987  42.949  13.463
31006W        W94950  38.844   8.304   2.861
31007W        W94951  43.457   4.242  12.531
31008W        W94952  38.972  14.689   0.431
31009W        W94953   6.820  35.947   2.395
31010W        W94954  34.080   1.237   4.703
31011W        W94955  38.326   7.225  13.324
31012W        W94956  29.127   1.304  10.420
31013W        W94957  42.425  23.584   4.134
31014W        W94958  29.990  24.523  13.831
31015W        W94959  16.702  31.955   3.807
31016W        W94960  38.971  40.049   2.697
31017W        W94961  15.278  34.929   1.369
31018W        W94962  25.054  42.877  10.645
31019W        W94963  38.969  24.162  11.492
31020W        W94964  17.771  39.394   3.655
31021W        W94965  25.068  14.620   4.261
31022W        W94966  36.367  44.385  10.956
31023W        W94967  35.420   9.229  12.960
31024W        W94968   1.448  32.108  11.562
31025W        W94969  11.761  41.459   3.242
31026W        W94970  21.620  29.116   0.262
31027W        W94971   0.397  44.360   2.231
31028W        W94972   9.773  20.247   4.139
31029W        W94973  43.771  43.404   2.886
31030W        W94974  42.966  26.963  13.372
31031W        W94975  21.571  15.627  11.920
31032W        W94976   9.323  14.801  12.871
31033W        W94977   9.315  21.214   0.251
31034W        W94978  22.726   5.289  13.829
31035W        W94979  16.650  11.691  13.334
31036W        W94980  16.758   5.433   3.810
31037W        W94981  39.862   7.181  13.052
31038W        W94982   3.784  29.581   2.809
31039W        W94983  31.518   8.192   2.378
31040W        W94984  17.296   8.234   1.285
31041W        W94985   4.400   3.783  14.487
31042W        W94986   9.176  23.680   3.382
31043W        W94987  25.023   2.428  13.807
31044W        W94988  42.886   0.802  14.765
31045W        W94989  39.334  19.149   1.869
31046W        W94990  31.434  11.737   2.701
31047W        W94991  24.655  29.069  12.949
31048W        W94992  39.852  10.795   0.958
31049W        W94993  38.420  25.078   3.283
31050W        W94994  24.524   5.240   2.892
31051W        W94995  21.614  19.551   4.268
31052W        W94996  10.237   1.452  11.956
31053W        W94997  30.654  27.621  12.045
31054W        W94998  44.858   9.789  14.018
31055W        W94999   0.745   7.752   1.723
31056W        W95000  26.611  38.328   3.669
31057W        W95001  16.193  24.594  10.622
31058W        W95002  21.156  39.551   4.269
31059W        W95003   1.376  19.160  13.388
31060W        W95004   9.858  18.240   2.226
31061W        W95005  26.517   8.658  11.525
31062W        W95006  30.641  43.405   4.801
31063W        W95007  43.907  12.740   0.459
31064W        W95008   4.327   7.892  13.914
31065W        W95009  17.716  41.303  13.514
31066W        W95010  40.923  44.976   0.886
31067W        W95011  21.528  37.951  11.115
31068W        W95012   6.773  32.463  14.320
31069W        W95013  31.553  18.682   2.793
31070W        W95014  42.925   8.818  13.922
31071W        W95015   1.324  29.583   0.769
31072W        W95016  41.450  40.471   1.838
31073W        W95017  27.612   4.782   4.719
31074W        W95018   2.317  10.279  10.477
31075W        W95019   5.791  17.070   0.733
31076W        W95020  26.579   4.743   5.268
31077W        W95021  44.420  28.604   0.834
31078W        W95022  34.604  21.021  11.859
31079W        W95023  21.103  27.100  13.920
31080W        W95024  22.209  12.312   4.637
31081W        W95025   5.842  29.634  12.841
31082W        W95026   1.444  33.022   3.190
31083W        W95027  17.252  44.271  11.395
31084W        W95028   2.386  14.696   4.753
31085W        W95029  10.336  39.345   3.163
31086W        W95030  32.487  22.594  10.556
31087W        W95031  32.405  20.610  12.464
31088W        W95032  33.982   4.381   0.885
31089W        W95033   9.667  18.762   3.687
31090W        W95034  20.646   6.856  12.015
31091W        W95035  39.882  44.284   1.737
31092W        W95036  33.923  34.024  13.536
31093W        W95037   2.967  25.531   3.341
31094W        W95038   9.243   5.225  11.913
31095W        W95039  23.141  36.872  10.930
31096W        W95040  37.546  43.471  12.899
31097W        W95041  22.088   4.876  11.381
31098W        W95042  42.441  16.125   3.725
31099W        W95043   4.794   6.883   0.257
31100W        W95044  12.834  13.740   2.896
31101W        W95045   2.282  20.208   3.777
31102W        W95046   9.808  42.383  12.050
31103W        W95047  28.606  20.663   0.297
31104W        W95048  26.650  44.311   4.762
31105W        W95049  40.944   4.765  12.465
31106W        W95050  26.638  35.517  11.880
31107W        W95051  12.822  41.891   0.392
31108W        W95052  14.678  40.889   0.787
31109W        W95053  14.642  28.627   4.671
31110W        W95054  20.056   8.686   2.188
31111W        W95055  41.520  22.594  10.491
31112W        W95056  15.212  15.231   4.184
31113W        W95057  11.687  31.639   0.966
31114W        W95058   0.451  33.422   4.623
31115W        W95059  27.496  33.404   1.837
31116W        W95060  13.685   6.819   2.288
31117W        W95061  43.355   9.865  11.944
31118W        W95062   2.258  18.697  14.306
31119W        W95063  33.551  30.639   1.852
31120W        W95064  12.841  11.801   1.215
31121W        W95065  37.485  25.080  13.329
31122W        W95066   9.339   4.811   1.793
31123W        W95067   7.679  11.803  13.022
31124W        W95068  35.081  18.573  13.366
31125W        W95069  12.777  25.504  12.883
31126W        W95070   4.234  28.093  14.018
31127W        W95071  25.145   1.903   0.911
31128W        W95072  25.130  34.103  12.090
31129W        W95073  36.843   7.819   0.316
31130W        W95074  33.918  10.722   1.432
31131W        W95075  38.872  19.039   0.262
31132W        W95076  26.603  20.112  13.371
31133W        W95077  10.695   5.365   1.706
31134W        W95078  42.884  15.096   2.889
31135W        W95079   5.391  27.072  12.981
31136W        W95080  36.882  31.063   3.854
31137W        W95081  15.246   1.947   1.802
31138W        W95082  27.183  35.994   0.370
31139W        W95083  39.320  44.867  11.559
31140W        W95084  42.954   7.305   0.479
31141W        W95085  15.580   4.276   0.822
31142W        W95086  11.811   1.935   2.679
31143W        W95087   0.975  25.674   2.272
31144W        W95088  23.056  22.505  10.939
31145W        W95089  22.094  35.988  13.534
31146W        W95090  43.855  40.905   2.275
31147W        W95091  24.195  15.753   1.241
31148W        W95092   8.189  12.157  11.393
31149W        W95093  22.657  18.155   0.961
31150W        W95094  28.011  42.973   4.269
31151W        W95095   6.231  21.689   4.128
31152W        W95096  23.225  19.588   3.158
31153W        W95097  32.594  14.755  14.348
31154W        W95098  16.631  36.052  13.829
31155W        W95099  28.523   0.915   0.937
31156W        W95100   4.261  15.630   3.358
31157W        W95101  43.299  38.494   0.263
31158W        W95102   9.191  38.891   0.945
31159W        W95103  21.656  44.928   1.764
31160W        W95104  35.894   3.356   3.366
31161W        W95105  23.237  15.613  12.366
31162W        W95106  42.996  34.496   0.265
31163W        W95107  40.929  33.002  12.579
31164W        W95108   9.190  24.137   4.122
31165W        W95109   6.229  30.036   5.755
31166W        W95110  38.486   0.790  11.893
31167W        W95111  20.208  34.951  12.563
31168W        W95112  40.006  29.037   4.716
31169W        W95113   2.741   6.351   3.264
31170W        W95114  37.046  23.520   4.242
31171W        W95115  37.977  37.042   3.658
31172W        W95116  35.913  14.229   0.393
31173W        W95117  35.557   0.934  12.354
31174W        W95118   5.293   6.911   4.209
31175W        W95119   4.851  40.502   1.320
31176W        W95120  14.127  19.268  14.027
31177W        W95121  40.546  15.784  11.457
31178W        W95122  30.488  26.196   3.788
31179W        W95123   6.415   6.917   0.866
31180W        W95124  12.747  34.890  10.909
31181W        W95125  28.507  38.826   9.588
31182W        W95126   5.866   3.835  11.498
31183W        W95127  34.447   8.803  10.931
31184W        W95128  27.959  24.130   2.358
31185W        W95129  43.442  21.598  14.765
31186W        W95130   9.735  40.481   3.649
31187W        W95131  11.768  15.279   4.340
31188W        W95132  22.718   2.321  11.602
31189W        W95133  19.619  28.943  11.515
31190W        W95134  26.128   3.711   3.266
31191W        W95135  22.507  26.193   1.926
31192W        W95136  32.554   1.769  12.419
31193W        W95137  30.549  36.546  14.436
31194W        W95138  33.093   4.292   2.382
31195W        W95139  44.773  20.061  14.766
31196W        W95140  29.475  22.720  12.902
31197W        W95141  32.444  11.862  12.519
31198W        W95142  39.020  31.103  14.980
31199W        W95143  15.789  20.215  13.968
31200W        W95144  23.170  31.046  13.027
31201W        W95145  10.208  21.050   1.388
31202W        W95146  14.240   2.406   3.314
31203W        W95147   7.866   1.807  13.901
31204W        W95148  34.540   6.812   1.717
31205W        W95149  24.547  16.245  12.351
31206W        W95150  43.349   0.986   4.157
31207W        W95151   1.810  10.835  14.923
31208W        W95152  11.638  20.052   4.205
31209W        W95153  17.623  14.590  13.811
31210W        W95154  12.139  16.272  14.514
31211W        W95155  36.096  25.663  10.550
31212W        W95156  37.550  38.035   3.363
31213W        W95157   0.311  12.828   4.338
31214W        W95158  27.166  15.315   0.428
31215W        W95159  33.597  26.529   2.704
31216W        W95160   9.322  14.773  10.430
31217W        W95161  29.980   5.870  10.941
31218W        W95162  34.407  19.245   2.744
31219W        W95163  25.965  10.663  12.539
31220W        W95164  19.127   3.301   0.945
31221W        W95165  36.011  28.476  14.846
31222W        W95166  35.573  18.703   2.702
31223W        W95167  36.459   4.804  11.514
31224W        W95168  44.484  31.981   2.336
31225W        W95169  18.771  17.217  12.501
31226W        W95170   1.922  13.121  13.047
31227W        W95171  17.182  14.635   3.861
31228W        W95172  19.105   0.494  13.396
31229W        W95173  14.822  18.712   3.232
31230W        W95174   9.162   5.269  13.009
31231W        W95175  29.565  13.156  14.290
31232W        W95176  36.443  37.048  12.921
31233W        W95177  42.292  28.116  11.885
31234W        W95178   8.182   1.351  11.063
31235W        W95179  40.489   9.179  13.975
31236W        W95180  36.955   9.841   4.806
31237W        W95181  27.541  25.592   0.746
31238W        W95182  12.278  41.305  12.091
31239W        W95183   9.674  33.586  12.532
31240W        W95184  36.383   3.453  14.871
31241W        W95185  28.170  37.866   3.825
31242W        W95186  11.681  14.337  13.471
31243W        W95187   0.468  13.693   1.804
31244W        W95188  30.634   4.211  12.365
31245W        W95189  16.598   5.759  12.576
31246W        W95190  36.055  35.514  11.481
31247W        W95191  39.984   0.264   2.229
31248W        W95192   1.912   0.748   1.703
31249W        W95193   5.220  42.009  14.322
31250W        W95194  14.096  10.683   3.356
31251W        W95195   2.909  19.619  11.881
31252W        W95196  29.576  20.523   2.190
31253W        W95197   8.369  27.192   9.484
31254W        W95198  12.779  37.082   3.733
31255W        W95199  13.349  34.876   5.206
31256W        W95200   7.696  21.060   5.086
31257W        W95201  27.069   9.355   1.809
31258W        W95202  25.114  40.382   1.286
31259W        W95203   3.755  25.986  13.957
31260W        W95204  15.802  30.016  11.971
31261W        W95205  40.510  17.067   3.728
31262W        W95206  22.565  39.946   3.366
31263W        W95207  20.191  22.067   3.734
31264W        W95208  28.153  10.214   2.185
31265W        W95209  33.989  43.506   2.203
31266W        W95210  14.121  31.533  11.927
31267W        W95211  24.512   5.269  14.981
31268W        W95212  19.604  31.444   4.270
31269W        W95213   5.877  42.787  14.512
31270W        W95214  29.492  17.788  14.472
31271W        W95215  37.068   1.375  12.536
31272W        W95216  19.613  10.704   2.271
31273W        W95217   6.812  25.519  12.078
31274W        W95218  11.698  31.468  12.491
31275W        W95219  35.957  41.402  10.491
31276W        W95220   4.888  35.911  14.883
31277W        W95221  38.340  42.396   4.251
31278W        W95222   1.466   0.955   4.117
31279W        W95223  20.701  40.009   3.630
31280W        W95224   9.712  14.779   2.246
31281W        W95225  43.927  19.094  12.430
31282W        W95226  43.369  11.648  10.506
31283W        W95227  14.711  11.171  13.062
31284W        W95228  38.339  12.833   3.335
31285W        W95229  25.676  42.293  14.007
31286W        W95230  23.533   3.334  14.331
31287W        W95231  10.686  44.293   1.764
31288W        W95232  29.974  23.158   3.175
31289W        W95233  18.208  37.452   0.929
31290W        W95234  37.463  34.012   0.339
31291W        W95235  28.105   9.306   1.394
31292W        W95236   6.259  32.598  12.449
31293W        W95237  41.352   4.334  12.071
31294W        W95238   8.388   4.833  10.602
31295W        W95239  40.363   5.422   1.749
31296W        W95240  42.798  16.601   1.280
31297W        W95241  15.274  31.575   0.394
31298W        W95242  38.950  26.047   2.416
31299W        W95243  27.541  43.475  13.360
31300W        W95244  22.689  33.911   1.381
31301W        W95245  43.975  38.458  11.939
31302W        W95246   5.736  29.559  10.496
31303W        W95247  29.043  41.321   2.679
31304W        W95248  19.758  36.037  11.945
31305W        W95249   3.279  22.587   2.210
31306W        W95250  32.410  24.987  11.881
31307W        W95251   6.694   5.323  13.488
31308W        W95252  29.595  16.567   3.652
31309W        W95253  23.237   3.936  10.554
31310W        W95254  11.195   3.371   4.286
31311W        W95255  31.114   2.262  10.562
31312W        W95256  15.771   1.369  12.890
31313W        W95257   6.853  16.213   3.329
31314W        W95258   5.766  37.040   4.301
31315W        W95259  21.653  32.469   0.936
31316W        W95260  30.464  14.756  13.829
31317W        W95261  30.119  30.654  11.602
31318W        W95262   6.718   2.797  10.588
31319W        W95263  21.677  20.722  12.553
31320W        W95264  36.569  39.371   2.715
31321W        W95265  17.798  34.477   3.328
31322W        W95266  18.202  11.641  14.959
31323W        W95267  23.206  39.921  14.892
31324W        W95268  24.721   3.780   1.748
31325W        W95269  41.536  20.080  13.375
31326W        W95270   4.308   5.345   3.688
31327W        W95271  33.040  43.998  12.400
31328W        W95272  17.220   0.744   0.927
31329W        W95273  38.372  18.738  12.976
31330W        W95274   2.809   1.310   2.204
31331W        W95275  24.491  35.596   2.296
31332W        W95276  31.117  23.018  12.531
31333W        W95277   0.849  42.928  14.389
31334W        W95278  36.378  25.686  10.992
31335W        W95279  17.648  43.438   2.323
31336W        W95280  42.888  43.466   4.646
31337W        W95281   6.311  28.612  13.043
31338W        W95282  11.369  28.454   4.135
31339W        W95283  42.302   0.364  13.859
31340W        W95284  19.209  35.418   2.310
31341W        W95285  11.818  34.430   0.290
31342W        W95286  39.982   9.323   1.701
31343W        W95287  19.069  12.207  14.409
31344W        W95288  35.037   7.173   2.664
31345W        W95289  26.658   7.172   4.156
31346W        W95290  38.039  43.295   3.709
31347W        W95291  17.177  20.669  13.478
31348W        W95292  12.286  15.795   2.718
31349W        W95293   9.666  34.883  11.484
31350W        W95294  17.297  32.411  14.901
31351W        W95295   3.824  23.658  13.375
31352W        W95296   7.330   6.337  12.901
31353W        W95297  33.492  10.777   3.268
31354W        W95298   2.738  15.266   2.835
31355W        W95299  15.230  40.401   3.782
31356W        W95300   6.869  20.252  11.919
31357W        W95301  40.916  25.029   0.828
31358W        W95302  39.017  43.955  10.515
31359W        W95303  40.015  44.285   4.227
31360W        W95304  40.379  31.109   1.333
31361W        W95305  24.555  12.280   0.392
31362W        W95306  14.106  19.716   3.735
31363W        W95307   1.462  13.236   4.838
31364W        W95308  12.729  28.982  11.543
31365W        W95309  15.213  31.403   1.410
31366W        W95310   8.397  43.290  11.599
31367W        W95311  32.932   3.765  14.294
31368W        W95312  17.724  40.340   4.287
31369W        W95313  16.130  20.564   2.365
31370W        W95314  25.019  16.139  14.896
31371W        W95315   8.167  25.050   3.747
31372W        W95316  38.869  20.079   3.806
31373W        W95317   9.182  16.298  10.939
31374W        W95318  26.631   6.679   3.378
31375W        W95319  16.295  30.934   0.242
31376W        W95320  34.015   6.831  11.080
31377W        W95321  27.004  15.676  13.362
31378W        W95322   0.439  25.147   2.822
31379W        W95323   1.823  32.551   1.846
31380W        W95324   8.739   6.196   3.230
31381W        W95325  40.884   1.289   1.730
31382W        W95326  29.468  34.095   3.300
31383W        W95327  30.483   2.274  14.329
31384W        W95328   9.843  18.787   0.815
31385W        W95329  22.034  44.987   2.817
31386W        W95330  41.450  10.272   0.291
31387W        W95331  16.737  43.455   1.830
31388W        W95332  30.477  10.728   2.716
31389W        W95333   1.796  18.142   2.664
31390W        W95334  39.366  38.965  10.077
31391W        W95335  10.635   0.272   4.770
31392W        W95336   7.902   7.875  13.910
31393W        W95337   1.335   5.322  14.320
31394W        W95338  17.660  12.332   3.366
31395W        W95339   0.268  20.176   3.363
31396W        W95340  24.203  23.493  13.063
31397W        W95341  15.677  35.437  13.951
31398W        W95342  12.818  37.943  10.947
31399W        W95343  21.238  23.085  12.977
31400W        W95344   5.926  41.409  13.052
31401W        W95345  11.673  23.139   1.285
31402W        W95346  22.075  20.107  10.501
31403W        W95347  42.506  18.662  13.489
31404W        W95348   8.368  27.512   4.159
31405W        W95349  16.311  18.113  12.528
31406W        W95350  12.636   0.928  11.518
31407W        W95351  30.467  29.008  13.918
31408W        W95352  41.535  40.461  12.956
31409W        W95353  42.021  10.361  14.423
31410W        W95354  17.721  35.935   2.667
31411W        W95355  20.127  29.431  13.892
31412W        W95356   7.693   3.333   0.384
31413W        W95357  31.494  43.360  13.054
31414W        W95358  41.949  13.842  13.411
31415W        W95359  33.042   1.249   3.811
31416W        W95360  43.303  23.610  14.314
31417W        W95361  33.911  22.722   3.226
31418W        W95362  38.032   5.224   1.827
31419W        W95363  27.577  14.185  13.911
31420W        W95364   8.340   2.249  10.457
31421W        W95365  16.742  29.539  14.972
31422W        W95366  13.785   4.388   9.932
31423W        W95367  25.177   8.726   2.718
31424W        W95368  20.090  36.053  14.387
31425W        W95369  35.443  18.573  13.410
31426W        W95370  13.603  15.643   2.379
31427W        W95371  44.383  34.024   0.939
31428W        W95372  43.430  34.455   3.327
31429W        W95373   2.399  24.005  12.075
31430W        W95374   8.288  32.061  13.854
31431W        W95375  28.947  39.033   0.880
31432W        W95376  29.509  31.921   2.264
31433W        W95377   2.277   0.773   4.600
31434W        W95378  40.054   9.214   1.425
31435W        W95379  13.251   0.437  11.477
31436W        W95380  29.642  31.994   0.352
31437W        W95381  40.411  12.854  12.428
31438W        W95382  20.197  18.703   2.822
31439W        W95383  43.983  32.094   1.893
31440W        W95384  37.549  28.116   0.412
31441W        W95385  42.437  29.989  13.868
31442W        W95386  38.513  43.804  12.984
31443W        W95387  23.209  41.376  10.982
31444W        W95388  41.889  26.691  10.512
31445W        W95389  38.994   1.377  13.870
31446W        W95390  20.755  37.385  10.888
31447W        W95391  36.571  41.445   2.308
31448W        W95392  25.142  30.022   2.841
31449W        W95393  10.861  36.945   0.255
31450W        W95394   5.755   0.917   1.920
31451W        W95395   2.911   5.840  12.453
31452W        W95396  21.144  24.148   4.349
31453W        W95397  33.057  14.704  10.558
31454W        W95398  13.158  35.949   4.124
31455W        W95399   6.372  28.157   3.223
31456W        W95400   6.294  37.037   2.246
31457W        W95401  35.490  31.616  13.545
31458W        W95402   8.297  36.509  10.644
31459W        W95403  33.562  10.653  11.907
31460W        W95404   9.688  20.690   3.238
31461W        W95405  34.474  39.551   0.934
31462W        W95406  18.168  18.790  11.422
31463W        W95407  31.623  25.687  14.356
31464W        W95408   4.852  42.934  11.535
31465W        W95409  31.454  17.162  12.979
31466W        W95410  30.936  28.463  10.532
31467W        W95411  14.107  19.064   1.787
31468W        W95412  27.085   2.771  11.462
31469W        W95413  33.615  29.458  11.102
31470W        W95414  23.595  34.915   4.233
31471W        W95415  38.532  37.491  10.483
31472W        W95416  25.573   4.413  12.895
31473W        W95417  29.023  36.456  10.580
31474W        W95418  22.247   3.289  13.812
31475W        W95419  16.199  40.394  10.534
31476W        W95420   6.286   8.223   2.409
31477W        W95421  19.238  34.882   3.348
31478W        W95422  40.821  14.699   0.727
31479W        W95423   1.346  35.420  11.572
31480W        W95424   9.734  10.156   3.199
31481W        W95425  29.468  44.832   4.202
31482W        W95426  40.957  36.538   4.316
31483W        W95427  31.977  22.189  12.952
31484W        W95428  18.653  41.349  14.310
31485W        W95429  14.685  39.384   3.176
31486W        W95430  23.111  42.832   2.405
31487W        W95431  21.729   3.839  12.573
31488W        W95432   9.368   2.798   3.258
31489W        W95433   8.789  37.078  11.596
31490W        W95434  24.520  18.720  12.967
31491W        W95435  31.451   8.183  11.111
31492W        W95436  13.779  38.353  12.992
31493W        W95437   3.876  11.664   4.653
31494W        W95438  38.470  13.806  11.927
31495W        W95439  14.244  32.908  14.981
31496W        W95440   8.720  27.618   3.789
31497W        W95441  42.415   6.190  13.497
31498W        W95442  39.436  39.331   2.801
31499W        W95443  18.781   2.725   3.307
31500W        W95444   3.390  42.965  13.440
31501W        W95445  33.984  16.580  11.532
31502W        W95446  22.644   8.804  10.948
31503W        W95447  38.467  24.979  12.855
31504W        W95448  41.882  16.115  12.479
31505W        W95449  28.172  39.966  11.908
31506W        W95450   5.235  41.033  14.424
31507W        W95451   3.216  38.901   5.156
31508W        W95452  17.666  17.738   0.395
31509W        W95453   4.842   4.353   0.741
31510W        W95454  38.510  28.616   2.336
31511W        W95455  29.115  39.937  14.429
31512W        W95456  16.731  23.028   2.283
31513W        W95457  15.690  43.991  11.606
31514W        W95458  35.439  33.522  12.435
31515W        W95459   8.672  11.648   4.177
31516W        W95460  37.417   3.397   5.721
31517W        W95461  40.829   2.428  14.941
31518W        W95462  23.156   5.409   0.245
31519W        W95463  20.086  17.132   1.827
31520W        W95464   2.340  39.413   0.379
31521W        W95465  29.511  39.872   2.260
31522W        W95466  41.415  13.749   4.301
31523W        W95467   2.784  44.505  10.579
31524W        W95468  31.966  32.575   4.329
31525W        W95469  43.786  26.593   0.292
31526W        W95470  28.631  24.520  12.854
31527W        W95471  40.894  24.561  13.375
31528W        W95472   2.807   2.436   0.741
31529W        W95473  43.335   3.910   0.259
31530W        W95474  18.617  43.990   4.719
31531W        W95475  40.466  12.749   1.349
31532W        W95476   2.342  37.490  13.898
31533W        W95477  42.413   9.219   4.241
31534W        W95478   7.716   5.691   3.259
31535W        W95479  27.067  24.637   4.216
31536W        W95480   3.287  42.864  14.499
31537W        W95481   0.288  25.216   1.373
31538W        W95482  32.120  21.087  13.018
31539W        W95483  32.021  32.115   4.153
31540W        W95484  37.073   3.814   1.790
31541W        W95485  43.817  29.654  11.109
31542W        W95486  31.151  40.032   0.867
31543W        W95487  11.800  17.664   0.473
31544W        W95488  35.077  35.488  12.992
31545W        W95489   2.292  28.471  13.397
31546W        W95490  11.241  31.994   2.750
31547W        W95491  24.541  22.082   0.765
31548W        W95492   7.362  39.940   3.258
31549W        W95493  39.475  30.996  13.366
31550W        W95494  44.350  25.636   2.194
31551W        W95495  37.083  12.784  13.858
31552W        W95496  22.109  34.016  10.986
31553W        W95497   8.688  39.034   0.295
31554W        W95498  30.468  10.829  13.496
31555W        W95499  40.853  11.641  14.484
31556W        W95500  36.043  14.280  12.911
31557W        W95501  21.094  38.479  12.062
31558W        W95502  11.217  24.643   1.265
31559W        W95503  29.136   7.314   1.329
31560W        W95504  10.815  28.139   2.225
31561W        W95505  17.291   0.357   0.350
31562W        W95506  39.548  26.039  10.888
31563W        W95507  37.849  40.990  12.427
31564W        W95508   7.234  15.590   1.893
31565W        W95509   3.359   3.794  13.472
31566W        W95510  39.847  16.130  12.442
31567W        W95511  22.531  40.905   2.764
31568W        W95512  12.253  30.545  13.353
31569W        W95513  22.177  38.432  11.914
31570W        W95514  35.978  34.954   3.306
31571W        W95515  23.713  22.076   2.366
31572W        W95516  17.139  25.531  11.099
31573W        W95517  29.039  12.334   2.265
31574W        W95518  24.587  23.144   4.327
31575W        W95519  44.775  32.604   3.748
31576W        W95520  11.832   7.416  13.966
31577W        W95521  25.007  37.518   2.731
31578W        W95522  44.442  22.116   2.415
31579W        W95523   5.894  38.867  14.880
31580W        W95524  36.098  38.490  13.009
31581W        W95525  25.678  10.780   1.308
31582W        W95526  32.555  15.823  14.937
31583W        W95527  11.194  21.748  14.347
31584W        W95528  42.468  12.685   1.273
31585W        W95529  39.929  38.908  11.003
31586W        W95530  37.855  21.046   1.901
31587W        W95531  16.572  18.636  11.492
31588W        W95532   3.909   1.904   0.739
31589W        W95533  32.106  40.452  13.816
31590W        W95534   1.869  24.699  10.563
31591W        W95535  22.652   0.311   1.314
31592W        W95536  30.653  24.498  13.895
31593W        W95537   7.404  29.472   2.385
31594W        W95538  37.999  31.587  14.414
31595W        W95539  13.724  14.164   0.281
31596W        W95540  27.646  29.121  14.761
31597W        W95541  44.330  38.355   1.933
31598W        W95542   9.852  37.439  11.493
31599W        W95543  38.073  21.245   0.922
31600W        W95544  40.879  35.476   2.792
31601W        W95545  40.329   0.801  11.593
31602W        W95546   3.829  19.588  10.130
31603W        W95547  24.143  27.163   0.906
31604W        W95548  23.559   6.384   0.250
31605W        W95549  26.701  25.660  10.912
31606W        W95550   5.362  26.135  12.383
31607W        W95551  18.751  31.012   2.779
31608W        W95552   1.899   3.398  10.017
31609W        W95553  24.672  35.400  13.871
31610W        W95554  33.073  29.541  13.843
31611W        W95555  18.780   4.236   4.738
31612W        W95556   9.652  26.556  13.521
31613W        W95557  43.996  16.166   1.274
31614W        W95558  16.159  33.044  13.824
31615W        W95559  17.774  33.393  14.835
31616W        W95560  36.481  25.133  12.346
31617W        W95561   3.381   1.955   2.788
31618W        W95562   2.899  10.151   3.840
31619W        W95563  31.050  40.916   4.229
31620W        W95564  35.901  12.207   2.800
31621W        W95565  38.507  40.497   3.369
31622W        W95566  41.012  36.445  14.363
31623W        W95567  14.116  37.845  14.960
31624W        W95568  16.725  16.606  11.389
31625W        W95569  36.003  22.604  11.896
31626W        W95570  32.429   4.421  13.383
31627W        W95571  20.197   4.835   0.810
31628W        W95572  44.937  28.617  14.770
31629W        W95573  32.100  18.110   4.158
31630W        W95574   3.844  23.688  10.094
31631W        W95575  44.494  17.156   1.812
31632W        W95576  13.694  23.992  13.064
31633W        W95577  14.772  43.363  13.364
31634W        W95578  35.568  37.083   0.900
31635W        W95579  16.138   2.839  11.011
31636W        W95580  16.272  10.155   2.397
31637W        W95581  21.213  32.414  12.447
31638W        W95582  14.218  24.040   1.838
31639W        W95583  25.170  18.600  10.565
31640W        W95584  20.762  30.921   1.223
31641W        W95585   2.720  17.752   2.419
31642W        W95586  44.783  43.892   1.416
31643W        W95587  27.089  28.486  14.862
31644W        W95588  38.059  41.865  11.045
31645W        W95589  10.834   0.840  12.954
31646W        W95590  25.613  21.059   1.318
31647W        W95591  21.703  42.917  12.054
31648W        W95592  28.069   8.814   3.358
31649W        W95593  22.031  38.829   1.913
31650W        W95594  36.550   3.775   9.559
31651W        W95595  32.924  44.894   1.859
31652W        W95596  37.520   8.870  11.578
31653W        W95597   2.246  12.257  12.986
31654W        W95598  32.012  28.979  12.827
31655W        W95599  10.787  26.510   1.385
31656W        W95600   7.309  36.362   3.716
31657W        W95601  32.401  11.325  10.408
31658W        W95602   4.701  41.022   1.761
31659W        W95603  17.595  11.173  11.972
31660W        W95604  14.741   5.900  10.919
31661W        W95605  19.627  43.934  10.439
31662W        W95606  19.655  28.959  12.508
31663W        W95607  42.887   3.826   4.143
31664W        W95608  27.162  39.505   0.952
31665W        W95609  44.782   3.455   2.297
31666W        W95610   7.187  11.224   1.339
31667W        W95611  31.431  34.613   4.354
31668W        W95612  19.184  33.589  13.868
31669W        W95613  43.315  16.598  14.787
31670W        W95614  11.188   4.927  12.018
31671W        W95615   6.812  29.143   3.677
31672W        W95616  38.327  38.863  11.012
31673W        W95617  23.685  44.303  10.602
31674W        W95618  40.357  34.109  12.968
31675W        W95619   5.784  28.075   0.907
31676W        W95620  40.919   5.383  14.014
31677W        W95621  26.104  28.585  11.532
31678W        W95622  42.902  19.739  13.495
31679W        W95623  18.276  16.781   3.701
31680W        W95624   8.701  25.641   0.959
31681W        W95625  14.609  17.636  12.981
31682W        W95626  36.585  15.114  12.930
31683W        W95627  26.540  33.046  10.927
31684W        W95628  36.077  26.057  10.949
31685W        W95629  41.394  16.633  13.894
31686W        W95630   6.293  12.117   1.894
31687W        W95631  17.171  37.841   3.864
31688W        W95632   7.778  23.169   2.371
31689W        W95633   4.278   5.245   0.360
31690W        W95634  35.371  32.415  12.989
31691W        W95635   6.733  27.684  14.770
31692W        W95636  40.391  18.104  12.511
31693W        W95637  29.075  28.520  10.579
31694W        W95638  14.229   7.820   4.269
31695W        W95639   0.825  35.394  12.940
31696W        W95640   3.349  31.435  12.980
31697W        W95641   5.720  42.863   0.393
31698W        W95642  15.716  36.417   5.577
31699W        W95643   7.256   0.333  10.576
31700W        W95644  31.960  40.382  14.453
31701W        W95645  22.595   2.944   3.841
31702W        W95646  34.548  32.000   1.788
31703W        W95647  38.414  15.128  11.098
31704W        W95648  31.036  36.483  11.954
31705W        W95649  13.351  37.541  14.361
31706W        W95650   7.233   1.974  14.782
31707W        W95651  33.078  26.009  11.577
31708W        W95652  40.807  26.557  10.481
31709W        W95653  41.886  41.008   4.815
31710W        W95654   5.854  18.243   1.238
31711W        W95655  33.433  35.974  11.586
31712W        W95656  34.511   9.373  12.342
31713W        W95657  27.003  22.640   0.938
31714W        W95658  14.123   0.279  12.006
31715W        W95659  42.821  17.661  11.417
31716W        W95660  37.386  30.505  12.577
31717W        W95661  24.563  27.584   2.780
31718W        W95662  18.068  12.655   0.802
31719W        W95663   4.896  25.652  11.000
31720W        W95664  11.689  36.451   3.804
31721W        W95665  28.038  37.497  10.094
31722W        W95666  14.315  40.548  14.460
31723W        W95667   5.430  37.354   2.396
31724W        W95668   2.943  34.974   2.888
31725W        W95669   2.800   2.443   4.661
31726W        W95670  28.596  19.285  11.013
31727W        W95671  23.689   8.805   4.736
31728W        W95672  12.158  33.924  14.013
31729W        W95673  36.057  27.180  11.095
31730W        W95674  43.381  21.101  11.400
31731W        W95675   6.385  42.298  10.925
31732W        W95676  13.325   4.311   5.264
31733W        W95677   7.193   8.272   3.654
31734W        W95678  32.592  11.666  11.906
31735W        W95679  25.056   2.265  14.822
31736W        W95680   0.279  25.548   2.413
31737W        W95681  10.215  28.117   4.282
31738W        W95682   2.913  34.414  11.559
31739W        W95683  41.934  26.048  14.373
31740W        W95684  30.627   8.200   0.956
31741W        W95685   8.725   0.823   5.216
31742W        W95686  40.804  44.487  12.088
31743W        W95687   6.774   5.726   0.870
31744W        W95688  42.498  21.057   4.826
31745W        W95689  28.988  22.044  14.928
31746W        W95690  30.446  40.394   5.800
31747W        W95691  35.465  37.918  14.845
31748W        W95692  42.028  19.663   4.272
31749W        W95693  11.768   8.204   0.466
31750W        W95694  13.787   2.341  14.953
31751W        W95695  23.035  25.548  13.470
31752W        W95696   4.928   4.208  14.381
31753W        W95697  26.951  43.513  12.056
31754W        W95698  28.675  13.134   0.806
31755W        W95699  44.441  27.636  12.854
31756W        W95700  39.470  11.191  13.855
31757W        W95701  19.189  16.161   3.263
31758W        W95702  27.968   9.348  12.361
31759W        W95703  27.604  20.714  12.375
31760W        W95704  37.500  29.018   3.639
31761W        W95705  41.909  19.122   1.852
31762W        W95706   2.859  33.015   4.699
31763W        W95707  26.511  13.288  14.372
31764W        W95708  24.674  19.641  13.346
31765W        W95709   7.670  32.569   2.666
31766W        W95710  36.415  30.540  12.506
31767W        W95711  25.662  38.455   0.869
31768W        W95712  13.229  12.759   2.739
31769W        W95713   6.797   6.825   0.753
31770W        W95714   0.428  33.390   1.822
31771W        W95715  25.479   6.250  11.444
31772W        W95716  16.811  19.701  11.049
31773W        W95717  17.625  19.780  12.445
31774W        W95718  39.972   5.288  13.820
31775W        W95719  32.045  30.427  13.024
31776W        W95720   4.785  22.512   4.663
31777W        W95721   8.726  32.508   3.847
31778W        W95722   6.865  15.236   2.776
31779W        W95723  16.774  28.104  11.429
31780W        W95724  11.792   2.776  12.366
31781W        W95725  42.969   8.289   1.277
31782W        W95726   5.919  31.031   2.225
31783W        W95727  22.696  11.228   2.381
31784W        W95728   3.792  13.829  13.046
31785W        W95729  31.988   4.442   3.233
31786W        W95730  31.573  41.475   5.276
31787W        W95731  38.042  18.687  13.512
31788W        W95732   0.304  44.916   2.374
31789W        W95733  37.378  20.622   0.777
31790W        W95734  27.084   4.230  12.829
31791W        W95735  12.342  37.468  13.334
31792W        W95736  27.618  16.705  13.518
31793W        W95737  12.654   4.699   0.963
31794W        W95738  22.026   6.843  11.990
31795W        W95739  16.602  44.991  10.533
31796W        W95740   8.789  34.927   1.242
31797W        W95741  18.136  22.695   0.759
31798W        W95742  34.535  29.093   3.819
31799W        W95743  11.685  12.254  11.422
31800W        W95744  12.146  20.062   1.739
31801W        W95745  19.778  13.307  10.480
31802W        W95746  10.301  23.241  13.347
31803W        W95747  39.981   2.780   4.291
31804W        W95748  19.072  29.934  14.290
31805W        W95749   3.735  43.791  12.509
31806W        W95750   3.325  18.763  13.493
31807W        W95751  29.495  11.663   5.227
31808W        W95752  22.152  11.801   4.786
31809W        W95753  37.482  27.532   4.228
31810W        W95754  27.476  27.120   4.135
31811W        W95755  40.375  30.113  12.997
31812W        W95756   8.322  29.543   0.938
31813W        W95757   2.910  28.473   4.820
31814W        W95758  25.115   1.402   4.204
31815W        W95759  11.223   3.402  10.621
31816W        W95760   5.239  31.408  14.964
31817W        W95761   6.822  12.299  12.877
31818W        W95762  17.724  44.264   4.228
31819W        W95763   5.410  34.039  10.466
31820W        W95764   2.799  42.004   4.771
31821W        W95765  17.780  20.757   9.556
31822W        W95766   6.414  20.587   4.263
31823W        W95767  19.675  37.030  10.554
31824W        W95768  41.999   8.687  11.971
31825W        W95769  24.210   5.206  12.998
31826W        W95770  33.891  41.001  11.900
31827W        W95771  25.647  18.607   2.795
31828W        W95772  33.988  11.235  13.987
31829W        W95773  38.965  21.531  12.456
31830W        W95774   6.373   9.750   2.397
31831W        W95775  20.707  36.376  11.034
31832W        W95776  30.963  34.991  12.069
31833W        W95777  38.550  12.163   1.389
31834W        W95778  12.688  12.235   0.476
31835W        W95779  15.595  13.257   2.804
31836W        W95780  25.045  13.171  13.866
31837W        W95781  16.779  13.646  11.469
31838W        W95782  32.133  15.148  13.509
31839W        W95783  16.576  13.749  13.349
31840W        W95784   7.764   0.306   0.832
31841W        W95785  40.497  27.525  12.919
31842W        W95786   7.827  23.028   0.257
31843W        W95787  11.158  25.662  10.952
31844W        W95788  38.332  23.130   4.658
31845W        W95789  24.091   6.791   1.792
31846W        W95790  38.928  31.626   3.219
31847W        W95791  11.337   3.881  13.009
31848W        W95792  34.119  27.448  13.484
31849W        W95793  19.189  10.872   1.805
31850W        W95794  30.924  11.671   4.695
31851W        W95795  24.536  20.201   2.230
31852W        W95796  41.445  29.506   2.769
31853W        W95797  11.743  22.741   0.396
31854W        W95798  19.588  11.271   4.220
31855W        W95799  35.979   9.184  14.824
31856W        W95800  42.466  13.651  14.436
31857W        W95801  32.994  20.693  13.919
31858W        W95802   6.812  30.991   3.230
31859W        W95803  22.188  26.689  12.839
31860W        W95804  34.098  11.734  12.050
31861W        W95805  18.108  12.646  11.543
31862W        W95806  32.473  40.866  13.361
31863W        W95807   9.881  21.720  10.405
31864W        W95808  41.859  32.471  13.058
31865W        W95809  41.525   1.913   3.769
31866W        W95810  37.838  44.852  11.531
31867W        W95811   6.864  26.202  14.948
31868W        W95812  34.542  10.272   3.202
31869W        W95813  10.793  18.783   4.223
31870W        W95814   5.903  42.300   4.238
31871W        W95815  39.997  15.778  14.327
31872W        W95816  38.387   9.875  13.404
31873W        W95817  11.763   1.897   1.397
31874W        W95818   6.184  11.372  10.597
31875W        W95819  27.953  32.501   0.752
31876W        W95820  21.156  22.181   4.732
31877W        W95821   7.683  20.584   4.815
31878W        W95822  12.712  32.983  11.533
31879W        W95823  18.627  36.081   1.839
31880W        W95824   0.879  35.865   4.315
31881W        W95825  30.107  29.131   3.172
31882W        W95826  22.202   0.316   4.644
31883W        W95827   9.831  39.543   0.790
31884W        W95828   4.828  35.452   3.781
31885W        W95829  30.629   0.389   0.863
31886W        W95830  43.018  14.771   3.356
31887W        W95831  37.430   7.726   2.285
31888W        W95832  17.691   0.783   3.645
31889W        W95833  23.622  13.815  11.421
31890W        W95834  16.288  34.525  12.926
31891W        W95835  43.316  22.074  12.939
31892W        W95836  36.980  20.082   1.868
31893W        W95837   7.285  43.418   2.774
31894W        W95838  29.596   5.818   2.195
31895W        W95839  33.578  18.164  10.946
31896W        W95840   4.797   0.279   1.268
31897W        W95841   5.832  23.583   1.432
31898W        W95842  33.596  32.920  10.584
31899W        W95843  13.252  18.779  11.936
31900W        W95844  37.878   8.811  13.368
31901W        W95845  30.494   2.733  13.542
31902W        W95846  10.864   9.340  13.471
31903W        W95847  19.634  35.021   3.180
31904W        W95848  31.534  26.990  11.087
31905W        W95849   3.790  35.393  10.897
31906W        W95850  27.687  22.633   0.464
31907W        W95851  33.886  34.505   0.381
31908W        W95852   3.934  17.668   2.319
31909W        W95853  19.569   0.454  12.448
31910W        W95854   0.393  43.435   4.731
31911W        W95855  19.700  38.852   2.358
31912W        W95856   8.193  30.570  14.470
31913W        W95857   7.178  43.489  10.562
31914W        W95858   6.385  11.788   3.636
31915W        W95859  39.876  20.209   0.335
31916W        W95860  28.137   9.879  14.481
31917W        W95861  23.143  26.539   4.164
31918W        W95862   2.858  27.161  13.041
31919W        W95863  23.148  27.519  11.443
31920W        W95864  24.532  15.180   1.716
31921W        W95865  37.507  15.689  10.989
31922W        W95866   5.791  11.651   3.152
31923W        W95867   4.372  23.068   0.300
31924W        W95868  12.235   9.719   4.131
31925W        W95869  33.098  15.728  12.830
31926W        W95870  37.073  14.325   2.289
31927W        W95871  27.955  32.480   4.205
31928W        W95872  16.209  38.366   4.307
31929W        W95873  16.629  13.224  13.452
31930W        W95874  18.201   2.310  10.617
31931W        W95875  28.625   4.798  13.823
31932W        W95876  37.008  10.150  13.322
31933W        W95877  31.433  33.596   3.728
31934W        W95878  25.115  13.809  10.898
31935W        W95879  21.032  40.489   3.838
31936W        W95880   5.287  43.835  10.574
31937W        W95881  43.297  36.086  14.864
31938W        W95882  35.960  35.051  12.976
31939W        W95883  37.982  36.858   2.359
31940W        W95884  34.069  43.510  13.450
31941W        W95885  19.090   7.827  11.459
31942W        W95886  11.631   6.713   2.703
31943W        W95887  41.996  43.788  14.379
31944W        W95888  42.956  17.131  14.994
31945W        W95889  43.967  13.670  13.928
31946W        W95890  23.596  14.691  10.410
31947W        W95891  43.923  22.584   3.387
31948W        W95892  44.819  37.462   4.240
31949W        W95893  33.985   3.407   4.767
31950W        W95894  21.101  44.343  11.559
31951W        W95895  16.296  10.169   4.245
31952W        W95896   4.270  43.811   3.239
31953W        W95897  14.202  20.144   0.738
31954W        W95898  12.309  39.334  14.324
31955W        W95899   5.793   1.851   4.829
31956W        W95900  17.075  30.658  12.002
31957W        W95901  14.778  18.618  13.841
31958W        W95902  25.010  22.026  10.585
31959W        W95903   5.779   9.249   2.799
31960W        W95904   1.912  22.149   2.291
31961W        W95905  37.851  43.998   2.395
31962W        W95906   0.782  12.613  12.383
31963W        W95907  29.630  34.553   4.786
31964W        W95908  10.763  44.822   4.300
31965W        W95909  29.951  36.917   1.297
31966W        W95910   8.223  16.117  11.506
31967W        W95911  24.094   4.934  12.049
31968W        W95912  41.509  12.342   4.729
31969W        W95913  22.635  20.647   3.190
31970W        W95914  33.908  28.064   1.767
31971W        W95915  44.487  21.172  12.531
31972W        W95916  13.728  37.046  12.551
31973W        W95917  18.721  14.812  12.925
31974W        W95918  12.646  38.993  14.835
31975W        W95919  39.426  11.191   0.917
31976W        W95920   3.344  23.080  13.921
31977W        W95921  33.975  13.632   3.714
31978W        W95922   8.778  42.854  14.875
31979W        W95923   4.430  39.875   0.398
31980W        W95924  34.504  17.289   1.429
31981W        W95925  23.005  20.607  11.390
31982W        W95926  15.612  10.384  10.492
31983W        W95927  31.585  44.372   4.606
31984W        W95928  41.310  28.017  11.026
31985W        W95929  37.986  32.068   4.777
31986W        W95930  12.124  42.819   9.924
31987W        W95931  21.530  13.740   3.734
31988W        W95932  26.535  24.131   5.242
31989W        W95933   3.397  24.662   3.190
31990W        W95934  17.278  44.471  10.610
31991W        W95935  32.087   9.392   0.907
31992W        W95936  44.504   8.660   1.750
31993W        W95937  10.730  44.919   3.692
31994W        W95938  17.127  44.974   0.885
31995W        W95939  40.811  30.090   0.259
31996W        W95940   4.211  36.478  11.934
31997W        W95941  21.167  19.693   1.298
31998W        W95942  32.568  19.263   1.369
31999W        W95943  31.641  18.688  12.434
32000W        W95944  22.141  36.851  11.919
32001W        W95945  19.744   7.887   3.871
32002W        W95946  12.360  18.288   1.381
32003W        W95947  18.651   9.341   3.839
32004W        W95948  43.922  17.699  12.422
32005W        W95949  20.600  36.922   3.257
32006W        W95950  28.144  21.019  11.003
32007W        W95951  39.903  35.555  14.780
32008W        W95952  42.817  37.461   1.407
32009W        W95953   8.860   8.857   0.960
32010W        W95954  27.463  29.046  10.497
32011W        W95955   3.799  37.846   0.264
32012W        W95956  13.148  12.154  11.024
32013W        W95957  18.556  38.841  10.542
32014W        W95958  14.118  24.480  10.516
32015W        W95959  31.116   3.874   3.181
32016W        W95960  15.188  21.050   4.788
32017W        W95961  26.604  20.581   0.448
32018W        W95962  23.135  25.056  11.470
32019W        W95963   3.440   1.943  11.009
32020W        W95964  10.657  10.270   1.808
32021W        W95965  19.761  34.873   5.154
32022W        W95966  33.980  26.501   4.167
32023W        W95967  37.365   2.915  11.955
32024W        W95968  39.367   0.789  10.621
32025W        W95969  13.599  44.387  10.952
32026W        W95970  20.561  41.478  14.323
32027W        W95971  28.505  10.140  12.834
32028W        W95972  12.843  33.383   2.676
32029W        W95973  20.205  27.985  13.792
32030W        W95974  20.156  28.083   1.727
32031W        W95975   5.409  17.652   3.268
32032W        W95976   0.305  20.619  13.821
32033W        W95977  31.630  31.444   4.657
32034W        W95978  20.744   2.765  12.857
32035W        W95979   5.750  24.614   4.788
32036W        W95980  18.596  30.135  11.527
32037W        W95981  14.790  23.170  13.871
32038W        W95982  20.749  40.474   0.939
32039W        W95983  40.535  24.617   0.426
32040W        W95984  23.631  12.777  13.045
32041W        W95985   3.398   9.772  13.012
32042W        W95986  24.992  26.004  14.385
32043W        W95987  11.165  30.939   3.323
32044W        W95988   9.659  10.209  10.591
32045W        W95989  33.892  13.769   1.840
32046W        W95990   6.804  23.171  14.376
32047W        W95991  36.486  19.137   2.749
32048W        W95992  37.874  42.407  13.329
32049W        W95993  43.317  32.634  12.481
32050W        W95994  12.165  22.508  10.507
32051W        W95995  21.024  10.856   3.667
32052W        W95996   6.383  37.995  10.618
32053W        W95997  43.277   6.359  13.965
32054W        W95998   5.704  27.467  11.384
32055W        W95999  24.079  16.185  12.941
32056W        W96000   1.767   6.799   1.229
32057W        W96001  19.747  28.517  14.794
32058W        W96002  41.941  38.073  11.424
32059W        W96003  14.706  16.766   1.298
32060W        W96004  21.143  24.167   5.091
32061W        W96005  41.979  10.717  13.327
32062W        W96006   6.844  34.952  13.851
32063W        W96007  34.524  23.012  14.833
32064W        W96008  40.411  25.151   3.767
32065W        W96009  43.971  27.059  10.912
32066W        W96010  20.197  27.977  14.995
32067W        W96011  41.403  42.408   0.317
32068W        W96012   3.259  18.631  12.086
32069W        W96013  11.860  17.637   1.725
32070W        W96014  33.398  24.123   4.310
32071W        W96015  19.585  28.128   0.389
32072W        W96016  31.625  16.263  14.808
32073W        W96017   7.783  44.887  11.392
32074W        W96018  13.748  37.506   3.868
32075W        W96019  21.186  15.758   3.181
32076W        W96020  30.515  19.151  11.027
32077W        W96021  10.203   1.275  10.479
32078W        W96022  15.749   9.723  14.297
32079W        W96023  41.928  38.043  13.373
32080W        W96024   3.297  22.554  14.965
32081W        W96025  34.373  33.547  12.561
32082W        W96026  21.092  26.138  10.414
32083W        W96027  27.646   7.346  12.351
32084W        W96028  23.984  16.289   4.205
32085W        W96029  29.969  21.050  10.083
32086W        W96030  16.621  18.763  13.478
32087W        W96031  41.420  32.525   0.389
32088W        W96032  13.834   3.244  11.571
32089W        W96033  21.233   1.300   0.861
32090W        W96034  38.371  14.820  10.470
32091W        W96035  30.044   1.758   3.365
32092W        W96036  12.276  43.985  14.365
32093W        W96037  35.867  19.259   0.935
32094W        W96038  27.121  26.999   4.139
32095W        W96039  17.577  40.918   0.890
32096W        W96040   2.296  40.927  12.559
32097W        W96041  29.544  40.307  14.430
32098W        W96042   9.192  28.516   0.881
32099W        W96043  30.080  17.632  14.417
32100W        W96044  15.674  31.048  14.318
32101W        W96045  29.924  14.716  12.575
32102W        W96046  17.178  43.908  14.288
32103W        W96047  16.286  21.740  10.467
32104W        W96048  27.664  12.819  11.502
32105W        W96049  19.262  36.543   2.361
32106W        W96050  11.278   4.299   1.392
32107W        W96051  12.844  10.162   1.777
32108W        W96052  39.463  26.566  13.317
32109W        W96053  18.107  41.841   0.297
32110W        W96054  43.868  24.652   2.393
32111W        W96055  30.652  25.128  13.038
32112W        W96056   3.850   3.243   3.697
32113W        W96057  30.126  26.521  14.995
32114W        W96058  23.107  13.120   0.843
32115W        W96059  41.401  39.989  13.921
32116W        W96060  16.126  39.950   4.610
32117W        W96061  35.485   8.864  11.446
32118W        W96062  40.011  42.917  10.426
32119W        W96063  32.909  22.091  13.008
32120W        W96064  31.613  37.980   0.355
32121W        W96065  34.055   5.361  10.896
32122W        W96066   6.215  23.082  10.452
32123W        W96067  21.069   7.252   3.155
32124W        W96068  20.593  22.623   3.335
32125W        W96069  22.563  17.727   3.357
32126W        W96070  36.534   4.373   3.750
32127W        W96071  17.173   6.307   4.616
32128W        W96072  33.516  28.622  12.550
32129W        W96073  35.500  36.560   1.880
32130W        W96074  42.464  16.252   1.881
32131W        W96075  34.871  11.641   0.483
32132W        W96076  20.124  21.032   0.428
32133W        W96077   0.420   4.726   1.213
32134W        W96078  33.434  26.611  11.092
32135W        W96079  10.867  30.578   1.886
32136W        W96080  10.166   2.434   0.323
32137W        W96081  40.334   0.827  10.435
32138W        W96082   0.365  25.125  14.892
32139W        W96083  13.286   6.391  11.078
32140W        W96084  43.286  12.203   0.756
32141W        W96085  14.756  22.231  10.979
32142W        W96086  22.093  14.105   0.830
32143W        W96087  28.542  44.800   1.279
32144W        W96088  37.859  14.321   5.169
32145W        W96089  28.151  39.014  13.792
32146W        W96090  34.100  26.688  13.859
32147W        W96091  32.036  37.510  11.909
32148W        W96092  21.644  42.935  11.000
32149W        W96093  34.046  31.645   4.728
32150W        W96094  37.379   9.306  12.425
32151W        W96095   2.334  17.572  13.313
32152W        W96096   6.694   2.259   3.866
32153W        W96097  22.048  42.912   2.827
32154W        W96098  22.013   8.664   1.840
32155W        W96099  10.671  43.393  11.964
32156W        W96100  11.795  17.707  14.325
32157W        W96101  10.714  22.666  13.909
32158W        W96102  21.755   2.283   1.923
32159W        W96103  38.384   1.903   4.194
32160W        W96104  42.464   9.848   4.349
32161W        W96105  10.262  27.164  13.350
32162W        W96106  42.979  11.330   3.302
32163W        W96107   3.383  20.730  13.546
32164W        W96108  39.975  43.310   1.932
32165W        W96109  25.573  44.762   0.284
32166W        W96110  26.071   6.832   1.742
32167W        W96111   0.266  43.835  10.920
32168W        W96112  39.409  33.528  10.995
32169W        W96113  20.701  31.402  11.591
32170W        W96114  35.564  33.065  13.347
32171W        W96115  24.037  30.518  13.867
32172W        W96116  35.938  32.095  14.786
32173W        W96117  13.346  24.008  13.493
32174W        W96118  44.423  43.959   2.737
32175W        W96119  17.647  13.807  10.912
32176W        W96120  19.725   8.378   0.809
32177W        W96121  40.921  34.085   4.178
32178W        W96122   2.384  12.623   5.304
32179W        W96123  26.507  13.657   1.753
32180W        W96124  31.520  42.974  11.488
32181W        W96125  16.725  27.526   4.740
32182W        W96126  33.564  13.631  14.496
32183W        W96127   9.690  19.099  14.924
32184W        W96128  12.680  31.419  12.896
32185W        W96129  27.653  14.637  12.975
32186W        W96130  18.135  35.598  14.017
32187W        W96131  29.064  24.506   2.721
32188W        W96132  30.458  35.854   3.290
32189W        W96133   4.244   3.875   4.754
32190W        W96134  11.214  19.768   4.643
32191W        W96135  24.168  34.511  10.517
32192W        W96136  38.897  38.846   2.789
32193W        W96137   9.818  44.920   2.257
32194W        W96138   1.296  36.893   1.344
32195W        W96139  27.471  10.288  11.575
32196W        W96140  42.360  24.103  14.404
32197W        W96141  21.735  40.019   4.126
32198W        W96142  30.471  35.413   0.813
32199W        W96143  12.663  15.604   2.198
32200W        W96144   7.705   4.848   2.323
32201W        W96145  15.672  31.465  11.024
32202W        W96146  30.088  33.948   1.417
32203W        W96147  26.622  22.174   0.293
32204W        W96148  16.617  18.071  14.993
32205W        W96149  42.367  19.672   1.308
32206W        W96150   2.916  23.602   1.733
32207W        W96151  23.079  13.152  13.799
32208W        W96152  14.589  32.501   4.282
32209W        W96153   0.914   9.298   2.397
32210W        W96154  10.288   0.487  12.344
32211W        W96155  42.472  36.916  13.433
32212W        W96156  37.385  34.582   2.812
32213W        W96157   7.888  10.334   0.826
32214W        W96158   0.951  29.936   1.424
32215W        W96159  26.166  39.849   1.294
32216W        W96160  10.356   0.803   1.255
32217W        W96161  32.415  30.146   4.676
32218W        W96162   4.827  30.132   1.235
32219W        W96163  33.495  36.991  14.967
32220W        W96164  16.192  34.582  14.896
32221W        W96165  16.220  27.607  12.037
32222W        W96166  22.542  38.014  14.000
32223W        W96167   8.684  32.899   9.999
32224W        W96168  29.967  17.755   2.862
32225W        W96169  12.157  28.677  10.582
32226W        W96170  37.940  34.464  12.014
32227W        W96171   7.226  40.808   4.254
32228W        W96172  18.638  31.514   4.673
32229W        W96173  34.952  27.033   1.311
32230W        W96174   2.365  38.917  14.791
32231W        W96175  23.578   7.193  10.494
32232W        W96176  30.494  42.912   3.302
32233W        W96177   2.887  28.989  13.487
32234W        W96178   1.877  44.362   5.175
32235W        W96179  21.530  17.086   2.902
32236W        W96180  41.368   7.279  10.542
32237W        W96181  15.761  19.668   0.757
32238W        W96182   8.332  22.179  14.406
32239W        W96183  28.678  41.311   2.401
32240W        W96184  40.401  30.581  10.467
32241W        W96185   1.810   1.347  12.468
32242W        W96186  33.036  12.276   4.665
32243W        W96187   1.386  40.877  13.966
32244W        W96188  38.375  43.496   4.195
32245W        W96189  26.143  18.065   4.701
32246W        W96190  28.086  18.714  13.330
32247W        W96191   0.908  19.206  13.394
32248W        W96192  38.440  37.971   3.811
32249W        W96193  11.134  36.546   0.803
32250W        W96194  38.992   2.850  10.494
32251W        W96195   7.816  26.186  11.999
32252W        W96196  41.431  30.591   1.288
32253W        W96197  35.031  38.883  11.123
32254W        W96198  32.945   5.418  14.462
32255W        W96199  33.029  35.989   1.238
32256W        W96200   8.760  11.168  10.467
32257W        W96201   2.447  44.479  10.160
32258W        W96202  15.239  32.394   3.152
32259W        W96203  12.782  38.455  12.884
32260W        W96204  34.456   4.704  14.467
32261W        W96205   0.942   1.853   0.305
32262W        W96206  17.610  15.122  12.066
32263W        W96207  28.567  26.464   3.776
32264W        W96208  29.973  37.076   4.173
32265W        W96209  36.048  22.694   4.274
32266W        W96210  44.428   5.323  11.526
32267W        W96211  36.491  42.335  12.022
32268W        W96212  16.283  39.958   3.812
32269W        W96213   6.906  28.115  13.316
32270W        W96214   8.390   7.214   4.350
32271W        W96215   7.827  30.144   5.144
32272W        W96216  38.014  19.077   1.321
32273W        W96217  41.509  13.766   0.729
32274W        W96218  24.715  36.350  14.003
32275W        W96219  33.507   3.216  11.081
32276W        W96220   1.339   8.257   0.751
32277W        W96221  42.450  35.861  12.903
32278W        W96222  33.116  38.532  14.423
32279W        W96223  40.829  41.981  10.601
32280W        W96224   4.263  32.999  13.314
32281W        W96225  13.158   6.696  14.304
32282W        W96226  39.410  15.173  13.427
32283W        W96227   5.344  31.100  13.381
32284W        W96228  25.125  29.499   0.443
32285W        W96229  28.108   9.863   1.349
32286W        W96230  18.171  26.054  10.088
32287W        W96231  11.344  28.535  13.416
32288W        W96232  38.959  41.330  11.610
32289W        W96233   9.882  17.067   3.364
32290W        W96234  26.037  40.021   5.154
32291W        W96235  43.987  40.835  14.806
32292W        W96236  15.600  27.188   2.408
32293W        W96237  16.313   2.358  11.019
32294W        W96238  18.283  14.230  11.546
32295W        W96239  17.254  16.598  10.981
32296W        W96240  11.844  18.628   1.437
32297W        W96241  41.898   5.859   0.882
32298W        W96242  35.401  16.667   1.261
32299W        W96243  22.235  33.896  10.554
32300W        W96244  43.850  37.849  13.019
32301W        W96245  35.042   0.769  11.577
32302W        W96246  35.511  31.520  13.886
32303W        W96247  20.131  41.472  11.924
32304W        W96248  25.023  36.406  10.637
32305W        W96249  34.554  14.702  11.462
32306W        W96250   7.905  44.495  12.994
32307W        W96251  27.055  21.626  13.922
32308W        W96252  20.723   4.215   4.711
32309W        W96253  34.871  18.710   4.609
32310W        W96254   4.777  43.853   3.759
32311W        W96255  25.648  22.013   1.706
32312W        W96256  24.560  44.972  11.875
32313W        W96257  14.600   4.228   0.962
32314W        W96258  16.680   9.184   3.343
32315W        W96259  40.454  21.242  10.136
32316W        W96260  20.710  20.196  12.008
32317W        W96261   9.249  16.287  12.532
32318W        W96262  41.396   1.923  12.392
32319W        W96263  24.014   0.417   2.752
32320W        W96264  44.345  14.101   3.852
32321W        W96265  10.202  36.407  11.442
32322W        W96266  43.864  11.786   1.748
32323W        W96267  17.639   6.183   2.794
32324W        W96268  11.769  15.792   9.991
32325W        W96269  10.201  26.501   4.737
32326W        W96270  33.527  24.502   0.793
32327W        W96271  31.108   1.290   3.707
32328W        W96272  14.605   3.452   2.699
32329W        W96273   8.853  18.728  12.994
32330W        W96274  34.927  31.966   3.332
32331W        W96275  10.758  36.955  12.379
32332W        W96276   3.245   1.962   4.291
32333W        W96277  41.437  27.600  10.915
32334W        W96278  14.106  31.464  13.044
32335W        W96279  43.409  11.223  14.283
32336W        W96280  24.620  42.507   1.700
32337W        W96281  11.358   6.872  10.574
32338W        W96282   9.697   9.728  12.426
32339W        W96283   5.424   6.680   0.855
32340W        W96284  18.781  12.832   1.420
32341W        W96285  40.807  24.496  13.044
32342W        W96286  35.508  42.830   2.775
32343W        W96287  20.540  36.086   0.770
32344W        W96288  33.007   4.320  10.416
32345W        W96289   1.974  16.136   3.685
32346W        W96290  34.437  29.635  13.802
32347W        W96291  33.598   7.377   1.825
32348W        W96292  32.902  27.600  14.317
32349W        W96293  35.993  36.427  12.520
32350W        W96294  19.608  38.545   0.837
32351W        W96295  13.187  37.886   4.258
32352W        W96296  15.099   7.885  11.378
32353W        W96297  29.668  36.060  14.409
32354W        W96298   4.867  14.712  14.325
32355W        W96299   0.755  30.535  12.561
32356W        W96300  23.695  36.844  14.299
32357W        W96301  41.800   2.884  14.882
32358W        W96302  34.918   1.353   1.280
32359W        W96303  18.735  11.773   4.778
32360W        W96304  10.802  34.420   0.441
32361W        W96305  43.431   7.225  10.596
32362W        W96306  19.752  15.116   4.796
32363W        W96307  11.197   4.433   4.790
32364W        W96308   2.414  36.847   1.393
32365W        W96309  27.631  18.581   2.193
32366W        W96310  18.714  20.549   5.183
32367W        W96311  36.950  35.515  13.456
32368W        W96312  37.335  36.902   1.236
32369W        W96313  38.967   5.396  14.384
32370W        W96314  37.521   3.360  13.880
32371W        W96315  26.006  16.746   1.773
32372W        W96316  41.917   3.738  13.342
32373W        W96317  40.460  32.483  14.510
32374W        W96318  38.905  16.751   4.751
32375W        W96319  25.578  36.408  12.086
32376W        W96320   0.365  10.695   0.397
32377W        W96321   4.909  31.921  10.482
32378W        W96322  33.953  15.806  13.813
32379W        W96323   7.859  35.855  13.547
32380W        W96324  31.065  34.999  11.570
32381W        W96325  34.437  21.647   4.728
32382W        W96326  37.411  26.569   3.243
32383W        W96327  33.428  26.607   4.819
32384W        W96328  32.609   3.731  14.892
32385W        W96329  32.109  44.300   1.262
32386W        W96330   6.720  34.921   3.762
32387W        W96331  28.099   8.236   0.727
32388W        W96332  38.491  28.552   4.650
32389W        W96333   9.395  30.416  13.809
32390W        W96334   8.794  24.047   0.320
32391W        W96335  44.469  39.328   1.291
32392W        W96336  41.993  32.494   1.253
32393W        W96337  16.138   3.397   2.886
32394W        W96338  25.996  10.682   4.817
32395W        W96339  28.488   3.373   0.837
32396W        W96340  10.221  17.250  11.000
32397W        W96341   2.463   1.888   4.761
32398W        W96342  32.396  10.839  12.950
32399W        W96343  11.258   5.794   4.210
32400W        W96344   2.233   3.218  13.475
32401W        W96345  38.400  17.121  13.913
32402W        W96346  35.416  28.617   4.152
32403W        W96347  37.855  25.984   0.917
32404W        W96348  27.542  37.491  12.503
32405W        W96349  28.151   1.325  13.817
32406W        W96350   4.294  26.039  10.590
32407W        W96351   9.344  38.038  11.549
32408W        W96352  28.065  14.205   1.370
32409W        W96353  38.982  34.074  12.065
32410W        W96354  23.587  15.757  12.575
32411W        W96355   1.373   1.323  10.994
32412W        W96356  37.408   9.242  11.963
32413W        W96357  34.386   9.254   0.957
32414W        W96358  26.983  35.014  13.995
32415W        W96359  11.733  17.132  13.543
32416W        W96360  16.731  20.749   2.810
32417W        W96361  15.595   7.358   2.392
32418W        W96362  28.074  30.913   2.667
32419W        W96363  15.249  30.653  14.860
32420W        W96364  43.448  35.593   2.720
32421W        W96365  41.492   4.384   1.918
32422W        W96366  26.654  37.989  13.995
32423W        W96367  14.332  43.339   2.233
32424W        W96368  17.090  32.426   0.738
32425W        W96369   8.895  17.148  12.026
32426W        W96370  35.392  30.556  14.972
32427W        W96371  30.477  42.492   3.734
32428W        W96372  43.855  16.145  11.008
32429W        W96373   3.820  37.508  11.986
32430W        W96374  23.591   7.283  12.918
32431W        W96375  37.887  42.422  11.429
32432W        W96376  35.418   6.201   1.835
32433W        W96377   7.901  43.385  13.036
32434W        W96378  33.101  37.512  13.334
32435W        W96379  18.747  13.694   1.251
32436W        W96380  26.202  39.535  13.903
32437W        W96381  12.686  17.801  11.518
32438W        W96382  25.538  36.057   4.792
32439W        W96383  12.139   5.900  11.424
32440W        W96384  24.541   2.360   1.796
32441W        W96385  35.991  28.037  14.394
32442W        W96386  40.472  15.774   5.122
32443W        W96387  25.068  23.647   2.860
32444W        W96388  29.613  13.675   3.199
32445W        W96389  44.993   3.939  12.852
32446W        W96390  10.851  20.168   3.697
32447W        W96391  41.013  40.497   1.764
32448W        W96392  44.890   2.373  14.955
32449W        W96393  31.966   9.876   1.434
32450W        W96394  38.965  22.562   2.235
32451W        W96395  32.630   2.405  14.277
32452W        W96396  42.851  11.651  12.835
32453W        W96397  41.006  22.610   0.822
32454W        W96398  11.329  30.608   1.740
32455W        W96399  38.331   1.889   0.886
32456W        W96400  28.951   3.282  11.534
32457W        W96401  39.982   1.315  13.063
32458W        W96402  28.163  19.646   2.393
32459W        W96403  11.636  15.202  14.327
32460W        W96404   3.773  27.045   4.281
32461W        W96405  43.972  35.588  14.373
32462W        W96406  11.798   3.717  11.892
32463W        W96407  25.686  44.308  14.780
32464W        W96408  18.208  20.597  12.514
32465W        W96409  37.342  12.194   3.361
32466W        W96410  38.010  14.630   4.753
32467W        W96411  14.119   2.266  13.431
32468W        W96412  17.769  21.741  10.581
32469W        W96413   3.790  23.165  12.488
32470W        W96414  38.526   5.243  10.121
32471W        W96415  36.404   0.388   1.360
32472W        W96416  20.169  38.926   3.382
32473W        W96417  20.586  33.444  11.526
32474W        W96418  27.960   1.245  13.385
32475W        W96419  25.520   5.895   1.911
32476W        W96420   8.290  42.996   0.346
32477W        W96421  24.685  38.357   0.967
32478W        W96422   1.888  21.678  10.440
32479W        W96423  44.838   3.760   4.810
32480W        W96424  15.634  16.118   2.705
32481W        W96425   8.328  35.901  11.971
32482W        W96426  29.125   6.829  10.414
32483W        W96427  21.540   5.422   4.323
32484W        W96428  41.517  21.561  11.588
32485W        W96429  28.443  39.923   3.220
32486W        W96430  42.313  14.757  11.406
32487W        W96431  43.812  43.917  14.996
32488W        W96432  37.953  42.415   1.297
32489W        W96433   5.325  18.155   2.345
32490W        W96434   1.308   3.246  13.883
32491W        W96435  27.647   5.879   4.301
32492W        W96436  33.100  12.721   0.860
32493W        W96437  18.595  37.347   4.145
32494W        W96438   5.210  24.558   2.797
32495W        W96439  23.204  38.911   2.877
32496W        W96440  21.257  14.325   3.765
32497W        W96441  13.834  12.344   3.301
32498W        W96442  43.430  43.390   4.808
32499W        W96443  36.048  18.613  13.049
32500W        W96444  38.947  30.061  10.955
32501W        W96445  33.491   1.749   3.745
32502W        W96446  11.645   2.237   4.272
32503W        W96447   5.336  40.375  11.072
32504W        W96448  18.236  12.236   4.178
32505W        W96449  34.440  11.814  12.019
32506W        W96450  24.975  17.780   3.814
32507W        W96451  30.628  27.149   1.841
32508W        W96452  23.715  30.553   3.859
32509W        W96453   4.865  13.733   3.769
32510W        W96454   1.912  18.248   1.760
32511W        W96455  12.165  21.559  12.958
32512W        W96456  20.074  38.418   1.749
32513W        W96457  17.636  20.629  14.937
32514W        W96458  31.533  42.972  11.034
32515W        W96459  24.609  32.135  10.060
32516W        W96460  39.053   0.919  10.594
32517W        W96461  39.375  20.173   1.247
32518W        W96462  24.117   3.422   0.788
32519W        W96463   9.856  11.288  13.038
32520W        W96464   0.841   5.859  12.885
32521W        W96465  21.753  29.963  13.475
32522W        W96466   0.850   8.191  14.830
32523W        W96467   5.929   3.286   1.795
32524W        W96468  28.159  25.614   4.643
32525W        W96469  15.580  24.631   2.179
32526W        W96470   9.722  11.276   1.428
32527W        W96471   2.247  36.404   3.829
32528W        W96472   7.211  41.312  10.936
32529W        W96473  40.530  11.791  10.944
32530W        W96474   5.761  39.417  14.389
32531W        W96475  42.412  34.946  13.914
32532W        W96476  42.447   0.948   1.230
32533W        W96477  13.182  30.570  14.993
32534W        W96478  15.225  23.082  10.997
32535W        W96479  34.056  25.512  14.457
32536W        W96480  15.218  35.013  12.483
32537W        W96481  18.561  24.619  11.008
32538W        W96482  32.901  34.028  14.426
32539W        W96483   1.466   4.852   1.277
32540W        W96484  26.635   2.336   5.254
32541W        W96485  30.907   7.835  11.007
32542W        W96486  28.070  24.699   0.255
32543W        W96487  15.178   4.869  14.388
32544W        W96488   1.296   9.669   4.670
32545W        W96489  19.195  29.999  12.417
32546W        W96490  21.660  20.711   4.760
32547W        W96491  21.569   7.376  10.575
32548W        W96492   9.224   6.732   0.846
32549W        W96493  42.395   5.706  12.437
32550W        W96494  14.643   9.684   0.743
32551W        W96495  16.114  15.207  13.397
32552W        W96496   2.320   0.480   0.432
32553W        W96497   1.960   8.666   4.187
32554W        W96498   7.174  29.668   4.349
32555W        W96499  19.544  25.682   1.870
32556W        W96500  35.540  31.569   0.781
32557W        W96501  24.990  18.635  14.443
32558W        W96502  34.488  18.681  12.866
32559W        W96503  35.881  10.678   1.705
32560W        W96504  43.333   4.378   1.773
32561W        W96505   1.960  11.645  14.351
32562W        W96506   0.910  11.139  11.890
32563W        W96507   0.442  38.845   4.709
32564W        W96508  25.004   9.189   0.371
32565W        W96509   8.360   1.862   0.857
32566W        W96510  38.461  25.577  12.865
32567W        W96511  36.485  19.046  13.966
32568W        W96512  41.525  10.869  11.948
32569W        W96513  17.271  31.007   0.734
32570W        W96514  20.130  37.049   4.221
32571W        W96515  44.966   6.807   2.363
32572W        W96516  33.057  34.599  10.904
32573W        W96517  17.228  15.760   2.387
32574W        W96518   9.158  31.506   0.789
32575W        W96519  31.935  33.043  14.896
32576W        W96520  40.515   3.333   0.913
32577W        W96521  10.268   0.397   9.467
32578W        W96522  11.648   1.342  13.474
32579W        W96523  39.331  21.534  12.345
32580W        W96524  31.606   8.670  13.911
32581W        W96525  25.126  22.104  12.075
32582W        W96526  25.690  15.612   4.797
32583W        W96527   8.868  33.879  12.060
32584W        W96528  19.079   4.873  11.586
32585W        W96529  31.472  42.804  14.019
32586W        W96530  36.400   0.307   4.745
32587W        W96531  32.978   6.866   0.451
32588W        W96532  17.147  29.036   0.474
32589W        W96533  25.702   1.874   1.351
32590W        W96534  20.231   7.819   2.883
32591W        W96535  37.894  29.038  13.061
32592W        W96536  14.290  26.958  13.935
32593W        W96537  39.884  29.668  11.109
32594W        W96538  40.366   5.933  14.496
32595W        W96539  15.280  35.904   4.708
32596W        W96540  11.237  14.339  13.341
32597W        W96541  23.514  37.079  10.489
32598W        W96542  16.809   3.793   3.843
32599W        W96543  35.880   4.747  13.997
32600W        W96544  44.972  32.910   4.126
32601W        W96545   6.806  28.941   2.888
32602W        W96546  41.503  16.769   0.268
32603W        W96547  30.933  11.756  11.020
32604W        W96548  44.897  27.006  10.580
32605W        W96549   6.817  13.114   4.292
32606W        W96550  32.104  41.393   3.318
32607W        W96551  14.751   0.989   1.389
32608W        W96552   0.948  36.055   2.313
32609W        W96553  24.150   8.297  13.373
32610W        W96554  17.751  26.031  10.955
32611W        W96555  20.138  13.758   1.703
32612W        W96556  11.687   0.439   2.682
32613W        W96557  30.632   1.288  12.480
32614W        W96558  28.459  17.783  10.552
32615W        W96559  41.519  42.938  13.050
32616W        W96560   7.263  23.514  12.511
32617W        W96561  32.413  43.294   1.434
32618W        W96562  38.462  37.006  11.487
32619W        W96563  14.657  14.287  10.989
32620W        W96564  26.198  36.581  12.929
32621W        W96565  38.492  23.715   4.806
32622W        W96566  11.204  18.616  10.957
32623W        W96567   1.442  29.050   1.363
32624W        W96568  24.608  15.236   0.887
32625W        W96569   7.843  26.584  14.855
32626W        W96570  17.211  17.235   0.356
32627W        W96571  33.075   5.712   3.715
32628W        W96572  16.601  15.672   2.244
32629W        W96573  19.096  43.979  12.440
32630W        W96574  10.247  22.516   4.622
32631W        W96575  35.070   5.366  11.409
32632W        W96576  14.205   5.793   1.278
32633W        W96577  31.029   4.733  14.804
32634W        W96578  12.823  44.824  10.934
32635W        W96579  25.073   5.821  14.903
32636W        W96580  25.665  34.442   0.403
32637W        W96581  28.070  18.729   2.680
32638W        W96582  14.817  16.111   4.657
32639W        W96583  33.884  44.763   1.376
32640W        W96584  13.336  23.506   3.185
32641W        W96585  25.685  15.658   9.981
32642W        W96586  38.971  13.231   4.310
32643W        W96587   9.699   7.313   4.622
32644W        W96588  12.166  14.290   1.833
32645W        W96589   8.187   4.944  10.971
32646W        W96590  33.946  30.118  12.438
32647W        W96591  10.180   8.393   2.376
32648W        W96592  22.590  20.125   0.933
32649W        W96593  17.689   5.793  14.002
32650W        W96594  32.123  24.519  10.440
32651W        W96595   4.925   3.711  13.389
32652W        W96596   4.445  16.206   4.659
32653W        W96597  14.134  43.785  10.640
32654W        W96598  34.466  32.447  12.410
32655W        W96599   6.801  15.646  13.357
32656W        W96600  29.571  26.044   0.951
32657W        W96601  23.518  25.546  11.995
32658W        W96602  22.526   6.197   4.349
32659W        W96603   3.813  22.237   4.130
32660W        W96604  33.008  41.508  13.537
32661W        W96605  17.207  11.131  10.514
32662W        W96606  39.320  17.269   2.297
32663W        W96607  30.490  35.036  13.834
32664W        W96608  25.045  39.066   4.169
32665W        W96609  35.963  19.772   3.803
32666W        W96610   0.309  30.141  12.489
32667W        W96611  26.678  44.895   0.366
32668W        W96612  31.934  21.210  13.920
32669W        W96613  27.085  16.184  12.371
32670W        W96614  13.647   6.265   1.275
32671W        W96615   0.261  40.918  11.404
32672W        W96616  11.131  26.553   2.319
32673W        W96617   1.902  39.998   2.789
32674W        W96618  10.319  30.159   0.748
32675W        W96619  13.625  36.909   3.733
32676W        W96620  41.923  32.088   3.783
32677W        W96621  24.493  30.112  12.968
32678W        W96622  41.843  11.781   1.294
32679W        W96623  30.471   4.278  10.629
32680W        W96624  44.269  14.797  12.949
32681W        W96625  19.705  17.780   3.762
32682W        W96626  34.038  32.964  13.459
32683W        W96627  10.676  25.001  13.481
32684W        W96628  22.233  24.061  13.418
32685W        W96629  36.884  29.990  13.796
32686W        W96630  12.149   3.281  14.972
32687W        W96631  11.651  10.878  12.541
32688W        W96632  44.758  11.660   3.285
32689W        W96633  20.568  24.521   1.725
32690W        W96634  12.260   5.278   2.712
32691W        W96635   3.445  10.195  14.835
32692W        W96636  29.924  30.122  11.575
32693W        W96637  18.788   6.422   3.194
32694W        W96638   3.717  15.087  12.999
32695W        W96639  29.497  41.430   1.324
32696W        W96640  20.545   3.252  10.574
32697W        W96641  14.725  26.658  12.454
32698W        W96642  21.228  23.120   3.369
32699W        W96643   5.713  20.193  12.082
32700W        W96644  36.516  19.091  14.474
32701W        W96645  40.503  35.921  13.431
32702W        W96646  11.241  15.124  10.404
32703W        W96647  18.253   3.921  14.356
32704W        W96648  21.234  33.989   0.885
32705W        W96649  24.612  44.464   3.231
32706W        W96650  38.568  25.543  12.055
32707W        W96651  43.319  38.552   4.629
32708W        W96652  16.786  15.299  10.483
32709W        W96653   5.724  11.339  10.437
32710W        W96654  40.441  22.594  10.927
32711W        W96655  43.311  11.704   1.301
32712W        W96656  25.108  24.159   2.714
32713W        W96657  14.660  18.768  12.413
32714W        W96658   3.789  11.314   4.641
32715W        W96659  26.952  37.072   0.747
32716W        W96660   1.255   9.717   1.875
32717W        W96661  11.146  27.007  13.900
32718W        W96662  37.465   7.415  12.004
32719W        W96663  22.167  26.158   0.475
32720W        W96664  20.140  10.648  14.360
32721W        W96665  31.589  23.699   4.600
32722W        W96666  27.562  26.195  14.007
32723W        W96667  11.319  29.582   0.772
32724W        W96668  39.940  10.786   1.839
32725W        W96669   2.936  32.423  14.865
32726W        W96670  36.523   5.895  10.575
32727W        W96671  37.923  29.433   0.393
32728W        W96672  13.187  24.132   4.782
32729W        W96673  19.095  33.541  12.001
32730W        W96674  40.445  20.154   0.458
32731W        W96675  26.578   3.298   2.687
32732W        W96676  29.936  16.186   0.895
32733W        W96677  28.011  14.239  13.976
32734W        W96678  13.789  19.537   3.804
32735W        W96679  19.571   0.310   1.350
32736W        W96680  11.307  22.671   2.405
32737W        W96681  43.811   8.860  12.856
32738W        W96682  13.202  37.409  12.995
32739W        W96683   5.256   8.399   3.806
32740W        W96684  22.672  35.440   3.182
32741W        W96685  30.041  34.551  12.432
32742W        W96686  16.633  10.794  13.956
32743W        W96687  27.982   9.795  11.102
32744W        W96688  42.362  39.370  14.327
32745W        W96689  44.882  24.507   1.315
32746W        W96690  11.296   9.280  11.381
32747W        W96691  17.201  37.952   0.297
32748W        W96692  41.898  17.664  11.961
32749W        W96693  15.816   4.434   1.709
32750W        W96694  32.066  40.332   3.740
32751W        W96695  24.560  27.450  11.004
32752W        W96696  16.666   3.436  11.926
32753W        W96697   5.850  23.025  14.341
32754W        W96698  27.062  29.426  14.851
32755W        W96699  31.578  41.936  10.484
32756W        W96700   3.444  35.014   5.264
32757W        W96701  17.685  21.091   2.318
32758W        W96702   7.725  28.055   0.771
32759W        W96703  40.529   1.928  11.966
32760W        W96704  19.097   5.924  14.894
32761W        W96705  35.906  28.458  14.355
32762W        W96706  26.094  28.607  13.333
32763W        W96707  23.162   1.476  13.535
32764W        W96708  17.755   9.226  14.880
32765W        W96709  17.184   0.972   2.708
32766W        W96710  20.153  32.085  14.395
32767W        W96711  41.331  25.543   1.848
32768W        W96712   1.800  26.138   2.786
32769W        W96713  29.641  12.840  13.864
32770W        W96714   9.857   8.677  10.889
32771W        W96715  16.786  29.544  11.948
32772W        W96716  12.301  16.318  12.348
32773W        W96717  43.805  31.645   4.349
32774W        W96718  10.320  13.793  12.987
32775W        W96719  20.188  14.177  13.886
32776W        W96720  10.708  33.434  14.989
32777W        W96721   6.804  31.951  13.945
32778W        W96722  36.385   4.814   3.706
32779W        W96723   5.829  19.224  11.452
32780W        W96724  32.529  30.597   1.880
32781W        W96725   1.849   9.356   4.286
32782W        W96726   7.731  17.306   1.236
32783W        W96727  23.104  21.115   1.407
32784W        W96728  18.698  30.484   5.224
32785W        W96729  10.641  41.411   2.736
32786W        W96730  43.008  37.882   2.353
32787W        W96731  13.140  33.386  14.930
32788W        W96732  11.147  12.292   0.466
32789W        W96733  35.109  27.032  14.845
32790W        W96734  41.833  15.788   3.695
32791W        W96735   9.734  39.451   3.757
32792W        W96736   2.283   8.315   2.209
32793W        W96737  22.223  43.292  14.283
32794W        W96738  25.195  41.523   5.173
32795W        W96739  17.131  40.030  14.021
32796W        W96740   1.304  30.996   0.277
32797W        W96741  20.196  35.876  10.112
32798W        W96742  14.211  21.155  11.992
32799W        W96743  36.506  38.861  10.447
32800W        W96744  41.859  11.166  12.033
32801W        W96745  11.621  16.175   2.792
32802W        W96746  44.485  21.063   4.618
32803W        W96747  41.405  25.994  11.418
32804W        W96748  26.566  29.592  13.402
32805W        W96749  10.816  24.612   1.834
32806W        W96750   4.354  39.439  14.863
32807W        W96751   9.190  35.453   2.710
32808W        W96752  22.202   7.842  13.025
32809W        W96753  21.608  23.089   0.856
32810W        W96754  21.543   1.794   0.877
32811W        W96755  23.660  11.670  14.805
32812W        W96756  26.077  25.041   4.222
32813W        W96757  25.067  39.473  11.605
32814W        W96758  11.287  19.059   0.346
32815W        W96759  23.078  16.746  13.935
32816W        W96760   4.325   7.277   0.286
32817W        W96761   4.774  39.495   1.835
32818W        W96762  12.302  39.535  13.407
32819W        W96763  29.535  21.067  12.350
32820W        W96764  39.022  24.553  12.453
32821W        W96765  42.860   3.332   2.726
32822W        W96766  43.835  24.990   4.656
32823W        W96767  16.794  11.225  14.292
32824W        W96768  31.608   6.803   4.268
32825W        W96769   7.179  37.393   2.367
32826W        W96770  40.991  40.317   0.840
32827W        W96771  34.520  13.620   1.835
32828W        W96772  40.451  13.835  14.303
32829W        W96773  22.194  20.684   2.254
32830W        W96774  38.819  40.328   1.886
32831W        W96775  34.444  16.164   3.257
32832W        W96776  21.696  11.201   3.737
32833W        W96777   1.770  31.440   2.301
32834W        W96778  20.610  16.600   0.789
32835W        W96779   0.770  18.103  14.390
32836W        W96780  14.158  36.356   1.784
32837W        W96781   7.222   4.314   0.245
32838W        W96782  44.480  15.244   1.775
32839W        W96783  11.361  39.532  14.860
32840W        W96784  42.780  10.340  10.472
32841W        W96785  21.249  33.485   3.163
32842W        W96786   9.796  44.940  13.057
32843W        W96787  39.811  34.936   3.870
32844W        W96788  34.870  43.965  12.504
32845W        W96789  30.414  33.614   0.956
32846W        W96790  27.181   5.369  14.852
32847W        W96791  29.483  23.694   4.601
32848W        W96792   6.903  29.463   4.684
32849W        W96793   9.291  21.261  11.035
32850W        W96794  35.417  34.876   2.898
32851W        W96795  28.068  17.651   0.287
32852W        W96796  16.719  21.745   0.751
32853W        W96797   9.367  29.011   4.653
32854W        W96798   3.856  10.314  11.900
32855W        W96799  33.927  21.722  10.910
32856W        W96800   7.692  37.833  12.349
32857W        W96801  41.292  33.008  13.522
32858W        W96802  26.127  36.922   4.838
32859W        W96803  10.642   0.296  12.972
32860W        W96804   0.414  22.737  11.547
32861W        W96805  31.089  23.995   2.323
32862W        W96806  33.977   6.182  13.941
32863W        W96807   9.174  26.172   0.290
32864W        W96808  13.641  27.054  11.570
32865W        W96809  16.128  30.016  12.385
32866W        W96810  38.996  13.806   2.728
32867W        W96811  25.057  15.307   3.758
32868W        W96812   9.226  13.114   2.771
32869W        W96813   5.264   5.220   0.458
32870W        W96814  29.006  21.719   3.187
32871W        W96815  11.755  35.946  13.948
32872W        W96816  16.130   7.286   3.859
32873W        W96817  30.918  42.963   1.425
32874W        W96818  20.066   0.839  14.427
32875W        W96819   7.292  12.131   4.686
32876W        W96820  15.768  17.572  10.429
32877W        W96821  33.381   4.733  11.081
32878W        W96822  10.145  40.513   2.824
32879W        W96823  24.614   3.365  11.906
32880W        W96824  19.102   1.902   1.879
32881W        W96825   5.764  34.938  14.853
32882W        W96826   8.776  22.500   3.692
32883W        W96827  24.134  12.190  13.969
32884W        W96828  13.764  35.010  10.581
32885W        W96829  43.270  12.158   4.716
32886W        W96830   7.373  41.991   0.837
32887W        W96831  18.725  39.521  11.003
32888W        W96832  43.341   1.790  14.809
32889W        W96833  12.805  44.869   2.218
32890W        W96834  19.726  38.958  13.521
32891W        W96835  41.926  27.078  11.859
32892W        W96836  24.146  38.484  11.469
32893W        W96837  32.455  33.384   0.337
32894W        W96838  18.785  24.692   1.367
32895W        W96839  24.547  35.060   2.392
32896W        W96840  36.867  11.696   0.400
32897W        W96841  22.600  18.614   1.829
32898W        W96842  14.721  19.158  12.345
32899W        W96843  37.057  28.184  10.977
32900W        W96844  27.647   3.856  14.838
32901W        W96845  37.577   5.429  12.525
32902W        W96846  32.516  22.610   3.734
32903W        W96847  10.708  21.096   0.916
32904W        W96848  36.031   4.256  11.568
32905W        W96849  35.468  17.218   2.802
32906W        W96850  26.586  25.505   1.868
32907W        W96851  19.748   5.852   3.818
32908W        W96852   4.788  32.469   4.123
32909W        W96853  28.583  28.972  14.834
32910W        W96854  25.600  11.208   4.319
32911W        W96855  11.820  11.139  12.823
32912W        W96856   9.159  26.963   2.365
32913W        W96857   0.856  25.659  14.847
32914W        W96858  23.606  11.215   3.674
32915W        W96859  38.996  27.114  14.777
32916W        W96860  34.063  42.345  13.380
32917W        W96861  24.989   3.282  11.535
32918W        W96862  27.970   8.248  10.631
32919W        W96863  29.104  13.830  12.574
32920W        W96864  26.468  30.952  12.860
32921W        W96865  30.100  26.534   0.439
32922W        W96866  24.102  37.967   1.881
32923W        W96867  16.276   4.876   3.635
32924W        W96868  40.032  18.100   0.899
32925W        W96869  44.938  14.140  10.985
32926W        W96870  28.963   4.266   1.380
32927W        W96871   5.400  43.434  14.360
32928W        W96872  35.385  38.333  10.475
32929W        W96873  11.144   2.353  13.006
32930W        W96874  12.263  15.659  12.360
32931W        W96875  19.715  28.506  11.880
32932W        W96876  36.567   9.746  13.900
32933W        W96877   4.429  33.093  11.480
32934W        W96878  17.156   9.177   1.293
32935W        W96879  43.283  31.471  10.902
32936W        W96880  27.980   1.479   2.374
32937W        W96881  37.956  29.068   3.844
32938W        W96882  13.298  19.600  12.415
32939W        W96883  13.649  42.522   1.847
32940W        W96884  32.561   3.791   0.293
32941W        W96885  41.832  37.506  11.016
32942W        W96886  29.080  38.869  13.447
32943W        W96887  18.168  40.978   2.203
32944W        W96888  19.151   0.754   2.353
32945W        W96889  41.010  29.435   2.248
32946W        W96890  18.057  29.159  10.552
32947W        W96891   5.208  25.214  10.932
32948W        W96892  31.010  18.068   4.834
32949W        W96893   8.320  30.590   1.391
32950W        W96894  19.571  40.810  14.958
32951W        W96895  38.441  20.611  11.570
32952W        W96896  24.140  28.105  12.041
32953W        W96897  35.961  31.492   4.141
32954W        W96898  21.596  42.891   1.227
32955W        W96899   3.222   3.222  10.443
32956W        W96900  31.508  19.161   0.947
32957W        W96901  14.179  19.669   1.230
32958W        W96902   8.782  16.311  12.044
32959W        W96903  44.998  43.019  13.441
32960W        W96904   5.909  38.070  10.423
32961W        W96905  38.327  35.364  12.506
32962W        W96906  42.952  21.615  12.491
32963W        W96907  32.637   2.805  12.864
32964W        W96908  42.971  12.331   4.765
32965W        W96909   4.382  29.972   1.368
32966W        W96910  22.185   6.761  13.828
32967W        W96911   7.259  22.150  11.572
32968W        W96912  34.973  17.149   3.705
32969W        W96913  31.127  10.142  14.909
32970W        W96914  24.601  32.049   0.739
32971W        W96915  43.457   8.678   2.757
32972W        W96916  32.031  17.734   2.894
32973W        W96917  27.044  39.463   9.456
32974W        W96918  30.425   0.461   2.392
32975W        W96919  25.698  44.423   1.451
32976W        W96920  29.929  23.211   0.248
32977W        W96921  34.464  38.913  12.414
32978W        W96922  33.455  40.311   3.852
32979W        W96923   2.298  32.980  10.635
32980W        W96924   7.405   8.275  12.445
32981W        W96925   7.804  32.417  12.033
32982W        W96926   9.370  43.354   3.801
32983W        W96927   7.361   5.205  12.467
32984W        W96928   0.342  26.641   1.265
32985W        W96929  27.982  32.111   2.412
32986W        W96930   4.426  29.024  14.792
32987W        W96931   7.273  14.665  13.970
32988W        W96932   1.813  24.605  12.979
32989W        W96933  21.143  37.051  12.948
32990W        W96934  22.629  16.110   1.245
32991W        W96935  21.060  16.206  12.409
32992W        W96936  33.614  24.074  12.479
32993W        W96937   0.935   8.742   1.903
32994W        W96938  30.946  32.105   1.442
32995W        W96939  22.678  34.109  10.517
32996W        W96940  10.709   5.389  13.341
32997W        W96941  36.500  35.571   3.774
32998W        W96942  12.797   0.872  14.879
32999W        W96943   8.187   3.890   2.843
33000W        W96944   2.906   4.747   5.708
33001W        W96945   4.791   0.863   0.948
33002W        W96946  40.472  15.586  12.089
33003W        W96947  35.587  26.507   0.410
33004W        W96948  44.355  39.390  10.537
33005W        W96949  42.490  22.667   3.631
33006W        W96950   0.769  32.139  12.002
33007W        W96951  42.850   9.752   3.817
33008W        W96952  21.110   6.284   5.280
33009W        W96953  39.444  23.071  14.342
33010W        W96954  15.161   7.903  10.546
33011W        W96955   3.895  16.165   0.441
33012W        W96956  29.574  20.702  14.860
33013W        W96957  35.875  10.214   5.187
33014W        W96958  21.246  23.143  13.833
33015W        W96959  10.823  26.956   1.791
33016W        W96960  18.550  29.150  10.453
33017W        W96961  19.660  32.051   1.265
33018W        W96962  22.185  21.146  11.506
33019W        W96963  35.853  33.600   1.735
33020W        W96964  39.441  44.463   2.734
33021W        W96965  39.960  22.560  13.439
33022W        W96966  29.499  36.348  13.984
33023W        W96967  19.093  33.990  12.386
33024W        W96968  15.260  10.781  13.395
33025W        W96969  26.195  28.658  14.435
33026W        W96970  25.177   8.825   2.279
33027W        W96971   0.847  16.786   1.934
33028W        W96972  39.330  37.501  12.487
33029W        W96973   2.841  14.625  13.893
33030W        W96974   7.321  24.494  10.423
33031W        W96975  29.498   1.456  13.454
33032W        W96976  15.219  21.127   4.163
33033W        W96977  21.653  22.712   0.435
33034W        W96978  11.295  36.449   2.306
33035W        W96979   6.760   5.210  14.012
33036W        W96980  25.170  20.160  12.500
33037W        W96981  16.753  25.067  14.353
33038W        W96982   4.846  40.505   2.333
33039W        W96983   6.727  27.030  12.469
33040W        W96984   3.936  33.554  12.369
33041W        W96985  36.586   6.876  13.877
33042W        W96986  33.530   3.370  14.965
33043W        W96987  19.751  38.568  10.612
33044W        W96988  33.919  14.330   4.354
33045W        W96989  32.402  25.178   4.179
33046W        W96990  20.110  27.664   2.252
33047W        W96991  30.564   1.895  10.520
33048W        W96992  40.892  39.882   2.835
33049W        W96993  33.491  13.845   4.759
33050W        W96994  30.921  25.690  10.980
33051W        W96995   5.723  24.205   3.793
33052W        W96996  19.052  18.725  14.375
33053W        W96997  12.220  31.982  12.999
33054W        W96998  14.232   5.870  10.520
33055W        W96999  41.330  34.552   3.196
33056W        W97000  36.927  20.130   2.410
33057W        W97001  37.072  38.469   4.243
33058W        W97002  10.661   8.252   1.260
33059W        W97003  44.455  41.354  11.498
33060W        W97004  12.611  39.553  14.872
33061W        W97005  14.276  31.590  11.530
33062W        W97006   8.847   8.730  14.370
33063W        W97007   0.813  28.648   4.821
33064W        W97008  14.312  30.934  13.509
33065W        W97009  39.927  15.818  10.923
33066W        W97010  42.353  40.531   3.771
33067W        W97011   4.351  44.005   3.744
33068W        W97012  12.856  23.220  13.424
33069W        W97013  30.426   1.452   3.734
33070W        W97014  44.890  38.875  13.851
33071W        W97015  31.941  18.254  12.950
33072W        W97016  34.473   3.265   4.648
33073W        W97017  20.272   9.294  14.005
33074W        W97018  40.931  35.003   1.918
33075W        W97019   6.691  36.927   2.387
33076W        W97020  10.765  18.117   4.337
33077W        W97021  43.409  11.820   4.745
33078W        W97022   6.829  34.425  13.049
33079W        W97023  32.545  34.966   0.380
33080W        W97024  41.509   7.780  10.549
33081W        W97025  33.968  18.209  10.486
33082W        W97026  21.168  38.995  14.503
33083W        W97027   4.890  38.367  14.361
33084W        W97028  12.760  18.150   1.702
33085W        W97029  40.383   4.345   2.727
33086W        W97030  34.073  19.775  13.399
33087W        W97031  13.660  11.353  13.855
33088W        W97032  43.794  30.550  13.874
33089W        W97033  32.408  15.809   1.260
33090W        W97034  25.198  36.474   5.248
33091W        W97035  39.952   3.875   3.205
33092W        W97036  31.997  30.017  14.773
33093W        W97037  37.064  30.653   1.326
33094W        W97038  10.308   7.346   1.352
33095W        W97039  34.598  35.083  10.600
33096W        W97040  13.648  32.095   3.149
33097W        W97041  43.946  29.984   0.281
33098W        W97042  24.015  26.524   2.222
33099W        W97043  22.099   0.400  10.645
33100W        W97044   8.392  39.822   3.675
33101W        W97045   3.784  13.687   0.824
33102W        W97046  20.262  16.080   1.229
33103W        W97047  14.681  15.202  12.826
33104W        W97048  10.645  40.312   3.227
33105W        W97049  10.675  44.327   3.695
33106W        W97050  19.766  38.895  12.945
33107W        W97051  10.214  14.812   3.667
33108W        W97052   6.701  19.616  11.590
33109W        W97053   5.349   0.862   3.824
33110W        W97054  40.424  39.333  13.819
33111W        W97055  23.218  38.032  12.893
33112W        W97056  26.021  18.740  11.092
33113W        W97057   8.207  39.390   3.712
33114W        W97058   2.915  39.028  12.986
33115W        W97059  13.270  27.600   0.961
33116W        W97060  38.457  25.164   4.236
33117W        W97061  13.239  31.601   4.812
33118W        W97062  19.699  26.531  12.406
33119W        W97063   1.346   8.400  13.386
33120W        W97064   7.809   5.206   3.262
33121W        W97065   4.806  30.560   4.777
33122W        W97066  31.471  43.913   2.882
33123W        W97067  32.505  24.154   0.741
33124W        W97068  27.947   2.392   2.417
33125W        W97069   8.238   0.466  13.420
33126W        W97070  40.482  36.958   4.695
33127W        W97071  25.031  25.494   3.691
33128W        W97072   2.958  16.572   0.866
33129W        W97073   6.867  39.062   4.837
33130W        W97074  22.136  15.226  14.465
33131W        W97075  28.611  29.934   4.631
33132W        W97076  36.933  34.034   4.240
33133W        W97077  29.161  11.319  14.372
33134W        W97078   0.776  42.512   3.180
33135W        W97079   7.350  18.161   2.413
33136W        W97080  25.988  19.162  12.536
33137W        W97081  25.553  33.077  13.837
33138W        W97082   1.376  36.533   2.228
33139W        W97083  40.548  28.498   0.785
33140W        W97084  29.535  20.652  10.901
33141W        W97085   2.828  25.508  13.498
33142W        W97086   9.735  15.102  11.437
33143W        W97087  43.003  28.956  14.331
33144W        W97088  40.915  11.851  10.447
33145W        W97089   1.394  41.884   1.912
33146W        W97090   3.446   6.774  14.324
33147W        W97091  12.353  30.111   5.584
33148W        W97092  12.313  25.585   1.880
33149W        W97093   9.244  11.366  12.428
33150W        W97094  30.988  15.218   0.435
33151W        W97095  18.574  23.195  12.085
33152W        W97096  31.089  33.936  12.471
33153W        W97097  41.462  34.573  10.582
33154W        W97098  20.747  25.217  14.433
33155W        W97099  25.100  40.987  11.022
33156W        W97100  43.781  19.221   0.244
33157W        W97101  36.969   8.689  13.352
33158W        W97102  36.069  22.652  13.849
33159W        W97103  32.616  14.245  14.948
33160W        W97104  18.788  43.453   1.317
33161W        W97105  11.286  35.014   1.237
33162W        W97106  11.737  43.007   1.428
33163W        W97107  33.089  14.322   3.197
33164W        W97108  10.208  33.625   4.324
33165W        W97109  20.069  24.520   1.224
33166W        W97110  29.051  34.426   3.154
33167W        W97111  29.589  28.602   0.301
33168W        W97112  42.912  11.153   1.442
33169W        W97113  38.354   8.178   1.871
33170W        W97114  35.100  16.662   1.823
33171W        W97115  30.058  32.556   0.313
33172W        W97116  22.565  38.361   3.151
33173W        W97117  33.100  13.622  12.381
33174W        W97118  20.664  19.637  10.529
33175W        W97119  39.553  27.989  12.061
33176W        W97120  42.400  15.120  10.602
33177W        W97121  39.359  27.675  12.478
33178W        W97122  21.739  40.410  13.055
33179W        W97123  32.606  38.008  12.906
33180W        W97124   3.436  28.478  12.386
33181W        W97125  42.335  31.572   0.885
33182W        W97126  28.118  13.647   0.879
33183W        W97127  32.612   8.290   3.847
33184W        W97128  42.911  37.428   3.203
33185W        W97129  13.123  12.216   3.678
33186W        W97130  28.610  35.043   4.747
33187W        W97131  37.960   9.382  11.029
33188W        W97132   4.788  43.471  10.486
33189W        W97133   0.317  44.319   4.188
33190W        W97134  39.869  43.346   3.305
33191W        W97135  31.540  38.920   4.766
33192W        W97136  17.091  26.530   4.716
33193W        W97137  42.373  20.620   4.758
33194W        W97138  44.815  32.577   2.319
33195W        W97139  28.604  38.881  10.528
33196W        W97140  41.805   5.319   0.816
33197W        W97141  36.444  40.399  14.390
33198W        W97142  34.469  29.052  12.491
33199W        W97143   0.465  11.837  12.908
33200W        W97144  19.247  21.520   3.196
33201W        W97145  19.083  19.112   4.276
33202W        W97146   1.296  30.931   4.754
33203W        W97147  14.324  36.472   0.870
33204W        W97148  33.432  35.385   1.262
33205W        W97149  15.772   7.263   1.827
33206W        W97150  14.252  43.484   0.374
33207W        W97151   6.839   6.266   1.423
33208W        W97152   7.380  21.174  14.359
33209W        W97153  35.582   6.196  10.431
33210W        W97154   5.381  35.966  13.035
33211W        W97155   5.892  21.674  14.398
33212W        W97156  14.725  13.660  11.507
33213W        W97157  16.094   9.835   3.846
33214W        W97158  38.952  11.716   1.817
33215W        W97159  39.836  20.215   1.775
33216W        W97160   7.725  41.982  14.393
33217W        W97161  18.611  34.489  12.023
33218W        W97162  31.103  43.431   4.807
33219W        W97163  41.012  20.043  11.100
33220W        W97164  41.840  35.879  14.798
33221W        W97165  41.504  11.806   1.797
33222W        W97166  20.203  39.457  13.991
33223W        W97167  34.559  24.479  13.820
33224W        W97168   1.947  12.128   2.405
33225W        W97169  38.362  15.131   3.255
33226W        W97170  44.324  14.253  11.083
33227W        W97171  43.427  25.046   1.390
33228W        W97172  15.274   5.439  10.428
33229W        W97173  31.569  42.016   2.717
33230W        W97174  37.457  17.077   0.285
33231W        W97175  43.784  39.888  12.860
33232W        W97176  20.751  42.325   2.766
33233W        W97177  39.353  44.463   1.757
33234W        W97178  34.396  34.381  12.959
33235W        W97179  19.166  38.538   2.382
33236W        W97180  14.641  31.978  12.941
33237W        W97181  35.570  43.312   2.369
33238W        W97182   4.743  19.245  10.890
33239W        W97183   3.358  26.617   0.840
33240W        W97184  15.315  25.211   1.830
33241W        W97185  40.524  14.799   4.296
33242W        W97186  28.102  37.055  11.547
33243W        W97187  40.456  23.990  13.377
33244W        W97188  20.054  42.964  14.393
33245W        W97189  24.039  25.172   3.319
33246W        W97190  26.992   6.260   2.701
33247W        W97191  12.663  11.846  11.567
33248W        W97192  32.131  16.703   2.697
33249W        W97193  37.484  32.536   4.655
33250W        W97194   4.784  15.142  13.004
33251W        W97195  24.724  13.801  10.527
33252W        W97196  31.966  31.492   2.293
33253W        W97197   7.385  18.248   4.816
33254W        W97198  36.435   8.878  10.489
33255W        W97199  28.499  32.494   1.432
33256W        W97200   2.871  18.676  13.883
33257W        W97201   7.876  34.526  14.476
33258W        W97202  32.040  29.452   1.238
33259W        W97203  26.019   1.970   4.707
33260W        W97204   2.782   8.750   3.326
33261W        W97205  17.696  35.442  14.921
33262W        W97206  38.856  14.809  11.909
33263W        W97207  13.695   3.876  12.017
33264W        W97208   2.933  44.476   4.699
33265W        W97209  31.023  30.088  14.292
33266W        W97210  42.831  33.114  11.492
33267W        W97211  32.949  13.786  10.517
33268W        W97212  17.790  26.189   2.820
33269W        W97213  44.500  41.417   0.275
33270W        W97214   4.889  43.916  12.981
33271W        W97215  29.125  29.977  13.313
33272W        W97216  34.879  29.501  13.401
33273W        W97217  19.266  34.556   3.664
33274W        W97218  24.096  28.072   2.878
33275W        W97219  25.112  13.225  10.956
33276W        W97220  44.366  27.003   0.317
33277W        W97221  30.934  31.607  10.424
33278W        W97222  21.036  23.203  14.493
33279W        W97223  26.637  26.011   2.867
33280W        W97224  13.303  18.145  10.631
33281W        W97225  15.812  15.788  12.437
33282W        W97226   2.862  43.442   4.690
33283W        W97227  25.205   1.426   3.831
33284W        W97228  28.499   4.400   0.358
33285W        W97229  29.165   4.840  13.395
33286W        W97230   8.237  24.025   3.230
33287W        W97231  24.647  35.075   0.469
33288W        W97232  34.000   2.878  14.769
33289W        W97233  26.206  23.731   0.410
33290W        W97234  25.977   8.751  14.785
33291W        W97235  28.929   5.269  14.912
33292W        W97236  32.105  16.770  10.516
33293W        W97237  40.999  39.057  13.859
33294W        W97238  32.092   4.445   2.781
33295W        W97239   7.360  28.577   4.623
33296W        W97240  21.187  27.469  10.488
33297W        W97241  30.007  35.463   0.440
33298W        W97242  18.576  15.307  10.924
33299W        W97243  43.372  31.602  12.849
33300W        W97244   1.864   2.455   0.481
33301W        W97245  38.509  27.558  14.782
33302W        W97246  41.521  43.372   4.790
33303W        W97247  10.849  40.479  13.952
33304W        W97248  16.725   3.234  13.457
33305W        W97249  20.031  19.696  12.537
33306W        W97250  40.829  40.868   2.771
33307W        W97251  37.464  11.820  11.448
33308W        W97252  44.898  18.089  13.031
33309W        W97253  44.782  38.900   0.362
33310W        W97254   1.327   0.883   1.411
33311W        W97255  24.032  30.141   3.340
33312W        W97256   4.323   9.151   0.378
33313W        W97257  38.982   9.650   1.374
33314W        W97258  34.005  38.432   1.813
33315W        W97259  23.527  30.490   4.651
33316W        W97260   5.776   9.334  14.516
33317W        W97261  32.576  12.856   4.203
33318W        W97262  37.499   3.756   1.325
33319W        W97263   2.251  14.735  14.396
33320W        W97264  17.588   2.341  10.520
33321W        W97265  31.954   9.652   0.397
33322W        W97266  21.546  24.052   5.114
33323W        W97267  34.079  24.583  12.881
33324W        W97268  16.146  24.713   5.299
33325W        W97269  11.629   4.307   1.210
33326W        W97270   0.780  12.792  13.540
33327W        W97271  24.065  11.847  12.497
33328W        W97272  29.559   5.245   2.414
33329W        W97273   5.217  16.775  14.342
33330W        W97274  16.194  15.755  14.378
33331W        W97275  36.876   1.248   4.256
33332W        W97276  19.164   0.779   2.816
33333W        W97277  28.510  25.189  10.491
33334W        W97278  29.141  16.308  11.915
33335W        W97279  31.008  33.894  14.467
33336W        W97280  39.985  31.957   0.800
33337W        W97281  33.015  40.897  11.899
33338W        W97282   8.276   2.911   0.940
33339W        W97283  11.635  22.150  10.432
33340W        W97284  26.000   5.884   4.151
33341W        W97285  31.067  32.460  11.598
33342W        W97286  11.270  35.595   0.469
33343W        W97287  15.763  29.573   4.336
33344W        W97288  24.686  38.057  12.471
33345W        W97289   2.452  29.035  10.944
33346W        W97290  21.750  10.141  12.578
33347W        W97291  35.871   1.747  13.797
33348W        W97292  20.050   1.903   2.188
33349W        W97293  38.328  33.956  10.573
33350W        W97294  16.315  32.397   3.270
33351W        W97295  27.607  16.223  10.005
33352W        W97296  41.969  29.437   0.874
33353W        W97297  18.222  38.510  11.870
33354W        W97298   4.729   0.938   5.117
33355W        W97299  19.672   1.851   4.141
33356W        W97300  40.826  27.097  11.597
33357W        W97301  14.116  11.720   0.473
33358W        W97302  14.201  10.267   2.258
33359W        W97303  44.833  27.542   1.835
33360W        W97304  23.234   4.923  10.594
33361W        W97305  25.712  18.240  13.431
33362W        W97306  24.014   0.463   4.665
33363W        W97307  42.910   8.366   3.733
33364W        W97308  23.586  18.202  10.958
33365W        W97309  18.790  18.288  11.489
33366W        W97310  33.078  37.464   0.771
33367W        W97311  27.967  20.595  12.342
33368W        W97312  29.149  23.093   2.243
33369W        W97313  44.976  16.793   0.829
33370W        W97314  12.855  10.840  14.823
33371W        W97315   6.694   5.755  13.403
33372W        W97316  25.486  32.622   3.684
33373W        W97317  43.420  38.427  13.334
33374W        W97318  27.173  21.032  10.612
33375W        W97319   6.343  27.163   2.760
33376W        W97320  40.307  24.497   3.221
33377W        W97321  40.539  43.783  12.467
33378W        W97322  38.930   1.375   0.393
33379W        W97323   2.874  30.110   3.317
33380W        W97324  24.514  41.359   2.183
33381W        W97325  16.280  28.618  12.071
33382W        W97326  44.782  36.953  14.491
33383W        W97327  16.638   7.829  13.420
33384W        W97328  26.078   4.443   0.828
33385W        W97329  15.289  41.311   1.423
33386W        W97330  42.951  29.165  10.551
33387W        W97331  26.102  40.386  11.886
33388W        W97332  33.492  26.179   5.178
33389W        W97333  27.562  33.916   2.233
33390W        W97334  27.471  44.925  14.775
33391W        W97335  43.772   1.884  10.633
33392W        W97336  24.713   5.281   1.271
33393W        W97337  20.069   0.986  13.012
33394W        W97338  27.136  13.332   4.797
33395W        W97339  18.204   1.300   0.311
33396W        W97340  23.662  22.585   3.811
33397W        W97341   7.817  42.338  13.336
33398W        W97342  25.468  25.069   5.148
33399W        W97343  41.989   7.858  11.003
33400W        W97344  21.151  30.045  13.827
33401W        W97345  17.182  17.781  12.004
33402W        W97346   5.246   2.777   1.348
33403W        W97347  34.579  16.261   2.329
33404W        W97348   8.238  14.300   4.715
33405W        W97349  35.394  30.617   3.226
33406W        W97350  26.133  13.252  11.490
33407W        W97351  44.801  29.438   2.396
33408W        W97352  38.843  18.183  13.540
33409W        W97353   0.786   1.435  11.074
33410W        W97354  22.505  40.933  12.428
33411W        W97355  21.074  37.958   3.733
33412W        W97356  33.893  19.206  13.505
33413W        W97357  22.578  14.250   2.761
33414W        W97358   1.938   2.344  12.542
33415W        W97359  13.164  22.193   2.874
33416W        W97360  43.876  38.840   3.725
33417W        W97361  32.449  26.135   1.285
33418W        W97362  36.426  12.145   4.216
33419W        W97363  11.283  23.582  12.858
33420W        W97364   4.212  35.375  11.128
33421W        W97365   9.157  32.505   1.873
33422W        W97366  44.453  11.639  10.459
33423W        W97367  28.645  27.482  12.916
33424W        W97368  39.505  10.774   2.280
33425W        W97369  12.141  25.508  11.899
33426W        W97370  43.273  22.091  12.048
33427W        W97371  40.926  28.562  12.416
33428W        W97372  24.700  12.702   3.713
33429W        W97373  38.927  30.498  10.004
33430W        W97374  37.368  10.834  14.330
33431W        W97375  13.733   2.280  14.367
33432W        W97376  15.149  29.456  14.292
33433W        W97377  17.795  26.525   4.230
33434W        W97378   1.774  41.489  13.024
33435W        W97379   8.254  19.258  13.034
33436W        W97380  35.936   0.852  12.391
33437W        W97381  11.849  36.573   1.932
33438W        W97382  22.161  43.352  13.425
33439W        W97383  12.159  40.501   2.755
33440W        W97384   0.770  40.419   0.949
33441W        W97385  40.320  28.476  14.371
33442W        W97386   7.320  17.228   5.167
33443W        W97387  29.538  10.797  14.837
33444W        W97388   1.930  35.426  12.443
33445W        W97389  11.797   8.805   0.410
33446W        W97390  41.811  30.520  10.626
33447W        W97391  16.601  24.639  13.869
33448W        W97392  23.077  16.114  10.620
33449W        W97393  18.544  36.452   4.271
33450W        W97394  39.022  41.333  11.972
33451W        W97395  29.147  28.509  12.365
33452W        W97396   3.309  24.553   0.851
33453W        W97397  38.528  13.257  12.880
33454W        W97398  28.153  41.460   3.677
33455W        W97399   0.982  25.980   0.279
33456W        W97400  34.890  40.546   1.813
33457W        W97401  10.249  16.261  13.025
33458W        W97402  36.884  36.436  13.489
33459W        W97403   4.720  38.517   4.165
33460W        W97404   7.800  24.590  11.033
33461W        W97405  15.745  36.378  12.826
33462W        W97406  29.028  27.520   3.850
33463W        W97407  20.749  15.637   4.294
33464W        W97408  24.719  43.781   0.760
33465W        W97409  34.410  14.106  13.409
33466W        W97410   5.353  36.538  12.016
33467W        W97411  27.553  22.504   0.784
33468W        W97412   2.735  22.576   1.719
33469W        W97413  13.172   0.931   0.405
33470W        W97414  13.766   0.471  13.976
33471W        W97415  10.815  11.716   4.800
33472W        W97416  18.160  25.973   3.701
33473W        W97417  26.186  42.922   1.881
33474W        W97418  35.920  12.199  14.006
33475W        W97419   3.252  30.950  12.824
33476W        W97420  18.681  19.214   1.903
33477W        W97421  34.059  25.659  11.000
33478W        W97422   4.218  39.475   2.180
33479W        W97423  26.181   0.336  13.503
33480W        W97424  29.070   9.217   2.273
33481W        W97425  22.128  36.433   4.822
33482W        W97426   2.419   9.307   0.934
33483W        W97427   6.807  18.149   3.364
33484W        W97428  30.488  10.310   0.440
33485W        W97429  20.235  16.228   2.728
33486W        W97430  17.088  29.029   4.681
33487W        W97431  20.084   9.372  10.065
33488W        W97432  10.301  41.877   4.121
33489W        W97433   9.789   4.294  11.002
33490W        W97434  30.572  43.858   4.298
33491W        W97435   6.337  42.843  10.620
33492W        W97436  29.041  21.531  13.876
33493W        W97437  20.698  12.711   2.853
33494W        W97438  16.568  43.820   0.356
33495W        W97439   8.171  16.616   2.210
33496W        W97440  33.927  37.942  11.093
33497W        W97441  26.589  27.198   2.678
33498W        W97442  16.155  27.554   3.856
33499W        W97443  40.871  12.197  13.990
33500W        W97444  11.133  10.661   3.215
33501W        W97445  10.767  33.592   0.307
33502W        W97446   8.163  12.162   0.298
33503W        W97447   2.262  12.248   0.467
33504W        W97448  40.398  25.049  12.916
33505W        W97449  26.690   1.760   3.153
33506W        W97450  40.384   6.270   2.340
33507W        W97451  36.951  28.580   4.810
33508W        W97452  19.569  11.147   1.451
33509W        W97453  18.194  41.303  14.955
33510W        W97454  27.456  24.654  14.938
33511W        W97455  42.837  40.389  13.351
33512W        W97456  35.429  32.419   0.381
33513W        W97457   4.437  12.257   2.872
33514W        W97458  21.590  23.641   0.422
33515W        W97459  29.572  12.623  12.342
33516W        W97460  34.461  19.649  12.978
33517W        W97461  42.525  11.237   4.734
33518W        W97462  18.635  23.520  14.773
33519W        W97463  18.183  30.643  12.379
33520W        W97464  40.529  18.692  11.606
33521W        W97465  29.092  19.684  10.548
33522W        W97466  28.434   5.207  14.983
33523W        W97467   9.289  14.139   4.765
33524W        W97468  24.011   2.312   4.270
33525W        W97469   1.825  15.151  13.420
33526W        W97470  10.749  18.193  14.330
33527W        W97471  40.854  42.442   2.765
33528W        W97472  21.515  38.060   2.721
33529W        W97473  44.323  14.642   0.950
33530W        W97474   3.443   7.411   2.342
33531W        W97475  33.531  11.838  11.917
33532W        W97476   5.898  25.099  14.418
33533W        W97477  36.913  38.839   4.326
33534W        W97478  35.996  24.064   1.713
33535W        W97479  31.633  10.874   2.317
33536W        W97480  21.231  28.592   1.237
33537W        W97481  39.986  24.007   1.881
33538W        W97482  36.977  35.970   1.696
33539W        W97483  11.142  22.022   0.293
33540W        W97484  30.633  33.587   3.387
33541W        W97485   8.712   1.938   1.756
33542W        W97486  32.466  12.241  11.111
33543W        W97487  10.638  41.504  10.934
33544W        W97488  12.284  12.686  14.840
33545W        W97489  44.367  30.958   0.941
33546W        W97490   8.287   2.358   3.654
33547W        W97491  28.155  23.195   4.607
33548W        W97492  27.142  25.658   4.141
33549W        W97493  11.312  44.786   1.261
33550W        W97494  16.271   2.250   0.753
33551W        W97495  34.503  28.676   2.278
33552W        W97496  43.419  14.098  10.552
33553W        W97497  18.547   6.718   0.877
33554W        W97498  36.897  14.242   3.180
33555W        W97499   2.777  33.053  12.958
33556W        W97500  31.624  26.522  10.972
33557W        W97501   1.277  15.706  14.372
33558W        W97502  39.544   7.411   4.808
33559W        W97503  33.530  10.773   1.442
33560W        W97504  29.921   1.299  13.329
33561W        W97505  27.478  37.045  11.080
33562W        W97506   7.784  43.815   2.212
33563W        W97507  30.545  11.789  11.906
33564W        W97508   1.848  21.235   4.172
33565W        W97509  44.901  26.675  14.911
33566W        W97510  37.484  32.898   2.712
33567W        W97511  30.533  19.163  12.021
33568W        W97512   1.976   8.255  11.911
33569W        W97513  14.632  29.587  12.547
33570W        W97514  16.280  14.116   3.340
33571W        W97515   1.409  14.114   2.414
33572W        W97516  12.632   7.187  11.516
33573W        W97517  37.041  10.639  12.939
33574W        W97518  15.723   6.352  14.867
33575W        W97519  30.601  25.211   4.620
33576W        W97520   6.874  24.031   3.184
33577W        W97521  19.547  11.337  13.016
33578W        W97522   8.234  23.551   4.795
33579W        W97523  14.111  35.906  13.388
33580W        W97524   7.693  30.588   0.462
33581W        W97525  32.891  30.101   2.215
33582W        W97526  12.252  42.509  10.613
33583W        W97527   2.780  29.919   0.834
33584W        W97528  18.606  14.322   3.173
33585W        W97529   2.755  10.154   2.878
33586W        W97530  41.436  18.053   4.728
33587W        W97531  19.661  12.302   1.752
33588W        W97532   5.244  30.546   3.742
33589W        W97533  39.514  41.460  11.070
33590W        W97534   6.679  26.656  12.916
33591W        W97535  39.329   2.877  12.368
33592W        W97536  24.037  16.659   1.220
33593W        W97537   8.340  23.063  14.449
33594W        W97538  25.565  42.463  14.880
33595W        W97539   1.766   5.393  14.312
33596W        W97540  26.982  37.029  13.859
33597W        W97541   0.482   6.288   3.345
33598W        W97542  23.521  24.189   4.229
33599W        W97543  36.018   2.267  11.385
33600W        W97544  43.516  40.817   1.922
33601W        W97545  34.475  32.428  11.031
33602W        W97546  18.713   4.935   5.181
33603W        W97547  18.273  26.054  11.046
33604W        W97548   0.326   3.446  10.572
33605W        W97549  20.715  10.339   1.401
33606W        W97550  14.111   8.248  14.308
33607W        W97551  15.708  18.130   0.763
33608W        W97552  25.656  29.919  10.642
33609W        W97553  41.878  31.955  13.847
33610W        W97554  34.875  26.178  11.378
33611W        W97555  29.437  14.228   2.818
33612W        W97556  30.575  40.381  14.329
33613W        W97557  30.604  21.241   1.271
33614W        W97558  14.682   5.707   2.415
33615W        W97559  42.978  38.955   2.369
33616W        W97560   6.390  15.629   3.349
33617W        W97561  32.471   2.314  12.478
33618W        W97562  36.515   9.874  14.314
33619W        W97563  22.212  36.579   0.346
33620W        W97564  39.483  25.037  12.565
33621W        W97565  20.112  28.473   0.899
33622W        W97566  16.082  36.844  14.379
33623W        W97567  10.661  10.865  10.951
33624W        W97568  11.646  10.281   4.757
33625W        W97569  43.487   7.826   3.378
33626W        W97570   3.815  19.165  10.528
33627W        W97571   1.465   6.221  14.978
33628W        W97572  15.747  34.081   3.355
33629W        W97573  10.286  29.503   2.810
33630W        W97574  17.232  37.943  10.495
33631W        W97575   7.346  24.538  10.991
33632W        W97576  28.459  12.275  13.837
33633W        W97577  23.035  40.437  14.961
33634W        W97578  40.453  30.561   4.619
33635W        W97579  13.726  33.023  14.426
33636W        W97580  25.052  16.277  11.523
33637W        W97581  21.757   7.333   0.759
33638W        W97582  25.094  33.553  12.570
33639W        W97583  34.046  18.575  12.495
33640W        W97584  26.695  28.055   4.735
33641W        W97585   2.734  26.999  14.371
33642W        W97586  11.287  27.581  11.972
33643W        W97587  11.831  24.495   1.314
33644W        W97588  19.160  27.528   4.136
33645W        W97589  11.278  31.044   4.695
33646W        W97590  21.546  30.658  14.413
33647W        W97591  13.237  16.683   0.929
33648W        W97592  17.662  39.899   3.309
33649W        W97593  15.202  30.506   0.733
33650W        W97594  17.279  27.195  12.433
33651W        W97595  30.015  25.980   0.339
33652W        W97596  36.536  33.973   2.878
33653W        W97597  18.579  27.046  11.584
33654W        W97598  16.308  21.589   0.898
33655W        W97599  33.578  25.076   4.308
33656W        W97600  38.971   5.865  14.305
33657W        W97601  13.719  19.227  12.347
33658W        W97602  24.990  30.140   2.384
33659W        W97603  44.833  14.267   0.356
33660W        W97604  28.448  29.547   0.367
33661W        W97605   0.451  38.953  12.949
33662W        W97606  11.650  36.930   1.915
33663W        W97607  12.130  14.168  10.561
33664W        W97608   4.337  22.550  13.814
33665W        W97609  39.537  29.125   2.408
33666W        W97610  14.598  26.577   9.990
33667W        W97611  40.006  40.321   2.192
33668W        W97612  28.059  17.559  12.874
33669W        W97613  32.455  12.846   0.476
33670W        W97614  22.555  28.585   3.247
33671W        W97615  40.039   3.371   2.693
33672W        W97616  13.785  39.046   1.715
33673W        W97617   8.385  40.935  12.829
33674W        W97618  27.030  39.831  14.900
33675W        W97619  15.177   5.709  13.447
33676W        W97620  44.812   1.818   0.408
33677W        W97621  24.544   4.290  13.530
33678W        W97622   3.350  13.724  11.460
33679W        W97623  15.668  31.044  14.963
33680W        W97624  29.175  25.603  12.058
33681W        W97625   4.807  36.465   3.757
33682W        W97626  13.722  12.173   4.710
33683W        W97627   7.750  24.130  12.855
33684W        W97628  34.954  14.690   3.254
33685W        W97629  30.920  35.038   4.776
33686W        W97630   8.856   3.881   3.724
33687W        W97631  21.031  41.506   4.128
33688W        W97632  30.598  43.897   0.359
33689W        W97633  13.336  27.589   4.827
33690W        W97634  18.129  16.620   1.824
33691W        W97635  38.893  29.481   4.135
33692W        W97636  19.095  17.064   0.264
33693W        W97637  36.940  11.853  12.460
33694W        W97638  33.585  34.445   2.299
33695W        W97639  20.600  20.743   2.748
33696W        W97640  16.207  42.942  13.539
33697W        W97641   6.419   4.775  12.082
33698W        W97642   3.874  21.023  11.533
33699W        W97643   3.953  30.599   2.278
33700W        W97644  14.135  35.933  14.912
33701W        W97645  15.800  34.013  14.982
33702W        W97646   5.207   2.408  12.903
33703W        W97647  39.435   5.267   2.208
33704W        W97648  22.520  13.132  12.498
33705W        W97649  24.110   6.725  12.546
33706W        W97650  38.337  39.329  14.886
33707W        W97651  15.659  12.688  13.006
33708W        W97652   1.427  22.677  14.834
33709W        W97653  20.648  13.790   1.324
33710W        W97654  17.577   3.342   3.787
33711W        W97655  31.153  24.075  10.457
33712W        W97656  35.538   7.345  14.903
33713W        W97657  24.159   4.409  11.074
33714W        W97658  31.514  21.682  14.781
33715W        W97659  11.369  17.664   3.317
33716W        W97660  20.187  35.444   3.286
33717W        W97661   4.828  35.511  13.979
33718W        W97662  22.123   8.249  13.880
33719W        W97663  13.748  16.133  13.868
33720W        W97664  44.503  31.632   4.689
33721W        W97665  37.001  42.898   4.790
33722W        W97666  11.136  18.183  14.934
33723W        W97667  37.485  35.432   2.843
33724W        W97668  13.177  37.952   1.245
33725W        W97669  40.866   3.418  13.838
33726W        W97670   2.300  40.867  13.870
33727W        W97671  28.456  30.009   2.285
33728W        W97672  43.770  19.255  13.864
33729W        W97673  33.458  32.398  11.889
33730W        W97674  40.825   4.865  10.142
33731W        W97675  36.522  32.968  10.963
33732W        W97676  15.169  35.969   0.765
33733W        W97677  19.576   0.256  11.462
33734W        W97678  17.232  10.641   1.230
33735W        W97679   7.256   2.336  11.112
33736W        W97680   7.714   3.288  10.157
33737W        W97681   7.220  43.304   4.344
33738W        W97682  19.250  30.942  13.425
33739W        W97683  39.972   2.291  13.824
33740W        W97684  41.878  35.477  12.978
33741W        W97685   1.318  39.917  13.817
33742W        W97686   9.682   5.346  12.012
33743W        W97687   6.411  26.492   0.445
33744W        W97688   1.461  44.288  10.444
33745W        W97689   5.843  17.201   1.332
33746W        W97690  17.245   8.180   4.756
33747W        W97691   0.914  25.035  14.370
33748W        W97692   0.493  43.886  12.453
33749W        W97693  16.194   8.160   4.161
33750W        W97694  40.391  15.809   2.227
33751W        W97695  22.094  38.331  12.876
33752W        W97696  29.954  14.295   0.748
33753W        W97697  13.656  18.754  13.027
33754W        W97698  29.936  44.322   2.749
33755W        W97699  11.755  38.360  11.576
33756W        W97700   3.309  20.679   2.341
33757W        W97701   1.896  42.979   3.252
33758W        W97702  39.029  39.986   4.188
33759W        W97703   7.287  38.402  13.912
33760W        W97704  10.174  18.072   2.677
33761W        W97705  19.754  31.144  14.919
33762W        W97706  17.612  36.891   1.447
33763W        W97707  37.520  27.958  10.941
33764W        W97708  40.371  44.868   1.429
33765W        W97709  33.029  39.376   4.651
33766W        W97710  30.564  33.011  12.975
33767W        W97711   2.832  44.319   1.717
33768W        W97712  39.353  17.076  10.448
33769W        W97713  12.754  39.382  10.888
33770W        W97714   8.240  41.858   2.387
33771W        W97715   0.441  41.923   0.278
33772W        W97716  38.431  33.571   3.845
33773W        W97717   5.923   2.383   1.709
33774W        W97718  10.872  22.678  11.101
33775W        W97719  27.614   5.698  14.348
33776W        W97720  20.140  42.494   1.866
33777W        W97721  22.677  14.659  12.579
33778W        W97722  13.241   9.273  13.505
33779W        W97723   3.337  40.416  14.423
33780W        W97724  19.643  38.939  14.513
33781W        W97725  35.503  44.952   1.331
33782W        W97726  40.317   4.314  13.968
33783W        W97727  38.565  18.073   3.829
33784W        W97728  21.532  27.690   4.769
33785W        W97729  31.583  14.745  12.516
33786W        W97730  42.301  35.096  13.366
33787W        W97731  13.712  31.061  13.524
33788W        W97732  30.087  24.115   1.270
33789W        W97733  37.080  39.900   0.283
33790W        W97734  26.578  35.576   4.766
33791W        W97735   2.462  23.229   3.755
33792W        W97736  19.214  21.158   4.804
33793W        W97737  30.511   6.802  11.935
33794W        W97738  37.530  21.145  13.018
33795W        W97739   0.852  13.348   4.229
33796W        W97740  20.231  28.947  12.447
33797W        W97741  33.448  25.587   2.328
33798W        W97742  31.129  31.958   2.893
33799W        W97743   6.915  34.876  12.375
33800W        W97744  40.362  35.941   0.761
33801W        W97745  42.981  32.947   4.270
33802W        W97746  12.294  35.898  13.803
33803W        W97747  34.502  41.860   1.814
33804W        W97748   2.870  26.619   4.831
33805W        W97749  28.141  16.778  10.959
33806W        W97750  37.480  16.643   2.252
33807W        W97751  39.925  40.508   3.336
33808W        W97752  33.577   1.368  12.413
33809W        W97753  32.930   1.856  12.087
33810W        W97754  37.490  32.095   3.235
33811W        W97755   6.901  18.214   4.134
33812W        W97756  32.466  25.623   3.247
33813W        W97757  23.138  14.223   1.931
33814W        W97758  30.594   2.446  11.421
33815W        W97759  37.491  20.215   2.857
33816W        W97760  24.015  17.782  14.276
33817W        W97761  15.717  44.919   1.847
33818W        W97762   9.703  42.790   2.321
33819W        W97763   8.892  17.597   1.434
33820W        W97764  29.542  24.690   3.167
33821W        W97765  17.074  26.639  12.860
33822W        W97766   5.384  42.461  14.785
33823W        W97767   4.246   4.288   2.852
33824W        W97768   9.259  23.617   1.322
33825W        W97769  41.433   3.902  12.532
33826W        W97770  21.255  42.302   2.813
33827W        W97771   4.874  38.389  10.550
33828W        W97772  23.098  18.761   2.354
33829W        W97773  10.798  43.309   2.310
33830W        W97774  29.947  13.214  13.832
33831W        W97775  35.875  28.935   2.669
33832W        W97776  33.624  31.930  11.960
33833W        W97777  24.157  11.859  11.049
33834W        W97778   4.782  38.567  10.893
33835W        W97779  44.332  16.684  13.946
33836W        W97780  30.606  18.244  12.533
33837W        W97781  35.854  24.038  13.527
33838W        W97782  41.990  19.182   1.382
33839W        W97783   3.325  36.403  13.414
33840W        W97784  21.587  17.233   3.679
33841W        W97785  37.982  42.459   4.273
33842W        W97786  16.280  37.980   2.379
33843W        W97787  23.562  35.435   3.286
33844W        W97788   0.257  10.806  11.935
33845W        W97789  44.785  14.318  13.453
33846W        W97790  18.291   3.918   1.225
33847W        W97791  35.874  30.482   4.649
33848W        W97792  23.662  22.996   4.808
33849W        W97793  34.401   4.727   3.214
33850W        W97794  41.921  25.514  11.534
33851W        W97795   9.223  18.195   5.605
33852W        W97796   3.215  43.777  10.562
33853W        W97797   8.354  13.650   0.271
33854W        W97798  25.129  19.193   0.347
33855W        W97799  12.286  18.101   0.404
33856W        W97800  40.038  34.035   3.691
33857W        W97801  43.830  12.670   4.699
33858W        W97802  11.278  42.956   2.736
33859W        W97803  37.087  39.482  13.869
33860W        W97804  14.730  24.502   4.294
33861W        W97805  25.077  19.701  14.871
33862W        W97806   4.879  28.681  14.804
33863W        W97807   0.759  27.979  12.041
33864W        W97808  29.106  40.455  11.450
33865W        W97809  13.645  10.353  10.961
33866W        W97810  43.779  24.047   0.776
33867W        W97811  26.076   3.756   2.290
33868W        W97812  40.973  33.498  14.794
33869W        W97813  24.105  25.041  14.026
33870W        W97814  27.682  22.208  12.417
33871W        W97815  35.997   7.704  13.035
33872W        W97816  38.355   1.914  14.300
33873W        W97817  38.325  20.144   2.295
33874W        W97818  16.288   0.918  13.852
33875W        W97819   2.824   3.321   4.209
33876W        W97820  25.471  31.008  14.835
33877W        W97821  28.173  40.413  10.436
33878W        W97822  14.780  32.452  14.466
33879W        W97823  32.011  41.510   4.246
33880W        W97824   1.414  36.486  12.858
33881W        W97825  21.127  24.061   3.770
33882W        W97826  39.400  11.697   2.891
33883W        W97827   2.465  19.726   4.717
33884W        W97828  34.032  18.764   1.812
33885W        W97829  39.927  21.626   0.413
33886W        W97830  29.481  11.719   3.254
33887W        W97831   6.371   7.831   1.706
33888W        W97832  33.607  17.115   4.210
33889W        W97833   4.225  29.538  11.975
33890W        W97834  32.499   4.249  13.032
33891W        W97835  15.701  10.727  11.892
33892W        W97836  31.452   8.244  11.910
33893W        W97837   1.249  25.004   4.236
33894W        W97838   3.427  23.570   3.674
33895W        W97839   9.169  30.150  12.472
33896W        W97840  12.279  20.094  14.006
33897W        W97841  29.436   2.465   3.668
33898W        W97842  21.106  36.561  11.895
33899W        W97843  12.768   4.427   5.116
33900W        W97844   3.217  30.438  11.533
33901W        W97845  44.956  16.726  13.344
33902W        W97846  12.229  19.548   4.214
33903W        W97847  38.542  36.423   0.314
33904W        W97848  44.315  44.383  10.409
33905W        W97849   2.851  16.254   3.225
33906W        W97850  43.910  11.652   2.777
33907W        W97851  37.033  40.854  11.037
33908W        W97852  23.208  37.073   2.256
33909W        W97853  32.608  41.956  13.984
33910W        W97854  31.597  43.397  12.433
33911W        W97855  38.027  21.588  12.853
33912W        W97856  24.138  25.532   3.147
33913W        W97857  29.939  27.137  10.450
33914W        W97858   9.785  42.285   1.731
33915W        W97859  11.669   3.825  14.776
33916W        W97860   2.737  37.382  12.046
33917W        W97861  16.285  41.968  12.393
33918W        W97862  18.218  20.726  11.499
33919W        W97863  12.773  15.625  14.498
33920W        W97864  37.012  30.043  12.938
33921W        W97865  35.093   7.224   4.745
33922W        W97866  32.992  44.331  14.391
33923W        W97867  43.787   2.927  12.421
33924W        W97868  10.779  41.977  10.497
33925W        W97869  25.079  26.110   0.739
33926W        W97870  33.550  14.782  14.759
33927W        W97871  30.128  31.546  14.856
33928W        W97872   9.701  25.199  11.420
33929W        W97873  21.756  43.347   1.737
33930W        W97874  29.439  32.489   3.218
33931W        W97875  27.051  14.228   4.707
33932W        W97876  11.754  24.530   2.307
33933W        W97877   2.800  22.136   2.309
33934W        W97878   3.359   1.439  14.995
33935W        W97879  17.719  40.535  14.915
33936W        W97880  15.679  32.534  11.033
33937W        W97881  41.899  21.232   1.366
33938W        W97882  23.137   9.859   1.244
33939W        W97883  15.772  12.816  12.031
33940W        W97884  32.448   8.330  13.062
33941W        W97885  11.222  24.129   1.266
33942W        W97886   6.309   2.243  11.969
33943W        W97887  42.802  11.282  10.026
33944W        W97888   7.772  44.358   4.634
33945W        W97889  43.380  24.615   3.772
33946W        W97890   8.875  22.196  13.921
33947W        W97891  22.597  42.844   0.890
33948W        W97892  10.318  33.079  12.087
33949W        W97893  37.444  19.219  13.471
33950W        W97894  28.956  24.990   3.306
33951W        W97895  28.525  29.527  10.580
33952W        W97896   9.862  30.125   3.785
33953W        W97897  29.075  20.262   4.675
33954W        W97898  16.258  34.895   1.704
33955W        W97899  15.635  20.171  13.063
33956W        W97900  16.284  27.019   2.743
33957W        W97901  34.059   2.444  10.610
33958W        W97902  34.444  35.884   1.438
33959W        W97903   1.416  41.461   3.642
33960W        W97904   1.737   9.866  14.373
33961W        W97905  32.604  22.502  12.967
33962W        W97906  27.476  11.824   2.208
33963W        W97907  20.103  28.553  12.980
33964W        W97908  14.674  12.739  10.968
33965W        W97909  38.980   0.479  12.425
33966W        W97910  13.831   9.240   2.417
33967W        W97911  40.876   2.953   2.258
33968W        W97912  12.730  14.286  10.940
33969W        W97913  17.765  37.064  12.445
33970W        W97914  29.006  31.590   1.415
33971W        W97915  15.195  34.553  10.017
33972W        W97916  30.983  30.099   3.327
33973W        W97917  33.513   7.739   0.300
33974W        W97918  25.525   8.762   4.150
33975W        W97919   6.727  34.534   4.705
33976W        W97920  13.219  32.011  11.462
33977W        W97921  40.043  25.094  10.609
33978W        W97922  43.500  29.637   1.409
33979W        W97923  13.657  20.543   1.819
33980W        W97924  17.623   4.751   1.731
33981W        W97925  43.296  40.317   2.893
33982W        W97926  38.560  42.374   3.277
33983W        W97927  31.058  31.629   4.753
33984W        W97928  19.237   0.742  13.458
33985W        W97929   3.359   4.226   1.350
33986W        W97930   0.850  19.155  14.763
33987W        W97931  10.140  44.315  11.520
33988W        W97932  31.452  31.433   2.849
33989W        W97933   2.793  43.874  12.893
33990W        W97934  20.191  31.420   4.204
33991W        W97935  33.053  33.130  12.933
33992W        W97936  33.960  29.628   1.886
33993W        W97937   5.358  39.448  10.636
33994W        W97938  36.425   4.306  13.347
33995W        W97939   7.813  35.583  11.944
33996W        W97940  37.471  37.872  14.871
33997W        W97941   7.875  39.867   3.147
33998W        W97942  18.105  15.130   2.765
33999W        W97943   1.861  10.233   0.278
34000W        W97944  10.710  12.350  14.879
34001W        W97945   2.796   8.387  13.994
34002W        W97946  24.591  30.961   2.266
34003W        W97947  27.137  16.715  13.803
34004W        W97948  13.305  21.086   3.710
34005W        W97949  20.750   0.936  13.467
34006W        W97950  14.107   4.238   2.757
34007W        W97951  34.960   2.796   4.726
34008W        W97952  36.879  44.982  13.968
34009W        W97953  35.880  43.319   0.388
34010W        W97954  44.487  18.188   0.278
34011W        W97955  36.946  34.603   1.356
34012W        W97956  35.015  25.133  11.417
34013W        W97957  40.369  34.594   0.900
34014W        W97958  20.739   5.723  14.852
34015W        W97959  36.546   7.882   0.800
34016W        W97960  30.907  29.990  12.493
34017W        W97961  28.606  27.957   3.197
34018W        W97962  24.038  41.995   2.747
34019W        W97963  25.633  37.864   1.451
34020W        W97964  35.867  11.266  10.631
34021W        W97965  13.675  11.787   0.400
34022W        W97966  32.574  34.451   2.240
34023W        W97967  42.961   2.346   4.263
34024W        W97968  32.484  43.418  14.321
34025W        W97969   0.846  34.119   0.291
34026W        W97970  11.652  17.244   4.140
34027W        W97971  43.484   9.876   2.866
34028W        W97972   4.244  15.205   0.483
34029W        W97973  38.069  20.573   0.784
34030W        W97974   5.361  12.206  11.106
34031W        W97975   7.238   9.153   2.711
34032W        W97976  37.380  15.785   4.201
34033W        W97977   9.228   4.268   3.169
34034W        W97978  12.669  27.515   4.180
34035W        W97979  16.251  24.197   0.905
34036W        W97980  21.162   0.750  10.556
34037W        W97981  42.374  25.034  14.932
34038W        W97982  32.552  36.037  13.486
34039W        W97983  13.690  42.356   2.362
34040W        W97984  31.908   9.798  14.993
34041W        W97985  10.150  11.792  12.011
34042W        W97986  16.130  39.911  14.464
34043W        W97987  15.755   3.916  12.428
34044W        W97988  42.490  23.020   0.441
34045W        W97989   7.683   0.754   3.213
34046W        W97990  40.052   9.655  11.479
34047W        W97991  23.524  14.819   3.732
34048W        W97992   9.345  39.972  14.876
34049W        W97993  27.612  19.603   0.459
34050W        W97994  10.263  20.555  10.125
34051W        W97995  32.016  24.579  13.417
34052W        W97996   0.797   0.951  14.814
34053W        W97997  11.729  31.916  12.449
34054W        W97998  20.052  11.674   2.864
34055W        W97999  28.948   3.780  11.523
34056W        W98000  18.052   9.208   2.256
34057W        W98001  35.550  18.775  13.917
34058W        W98002  34.118   4.269  14.809
34059W        W98003  41.457   7.172   0.467
34060W        W98004  34.105   3.752  14.006
34061W        W98005  24.548  43.412  12.340
34062W        W98006  20.105   4.753   2.295
34063W        W98007   3.782  25.486   4.782
34064W        W98008  37.013  41.381   3.764
34065W        W98009  15.637  12.651  11.052
34066W        W98010  26.524  22.615  12.086
34067W        W98011  42.981  23.713   1.723
34068W        W98012  27.151   3.955  11.572
34069W        W98013  34.072  29.032  11.404
34070W        W98014  26.987  26.018   4.333
34071W        W98015  29.663  12.264  14.941
34072W        W98016  28.519  20.661   1.421
34073W        W98017   0.924  25.043   1.736
34074W        W98018  36.860  32.443  12.482
34075W        W98019  28.046  32.044  13.037
34076W        W98020  29.024  36.522   3.868
34077W        W98021  18.062  13.230  14.884
34078W        W98022  23.531  29.453  14.283
34079W        W98023  15.601  43.319   0.751
34080W        W98024  32.582  32.960   1.284
34081W        W98025  11.823  41.316   3.650
34082W        W98026  18.221  21.625  10.550
34083W        W98027  41.795   4.438   3.829
34084W        W98028  30.552  34.412  14.881
34085W        W98029   4.215   8.762   0.469
34086W        W98030  14.815  12.323  12.006
34087W        W98031  17.295  27.683   4.658
34088W        W98032   9.379   5.884  13.827
34089W        W98033  36.913  23.562   0.290
34090W        W98034   3.713  11.686  12.851
34091W        W98035  41.424   3.225  11.431
34092W        W98036  30.457  42.892   0.856
34093W        W98037   0.844  30.098  11.071
34094W        W98038  23.990  25.110  11.450
34095W        W98039  30.591  34.579   4.745
34096W        W98040  37.002   5.879  14.475
34097W        W98041  25.196  21.259   1.309
34098W        W98042  33.011  20.635  11.926
34099W        W98043  36.844  33.064   1.898
34100W        W98044  12.234  37.015   1.382
34101W        W98045  26.594  18.093  14.779
34102W        W98046  20.071  20.742   3.852
34103W        W98047  24.514  14.299   1.765
34104W        W98048  10.762  16.681  12.038
34105W        W98049  30.941  24.096  14.957
34106W        W98050  26.040   4.263  11.094
34107W        W98051   2.831  30.049   1.796
34108W        W98052  20.106   1.862  14.018
34109W        W98053  19.546  37.428  12.574
34110W        W98054  37.886  33.886   4.704
34111W        W98055  24.530  29.063   2.180
34112W        W98056   1.969  23.041  13.443
34113W        W98057   9.312   1.305  12.527
34114W        W98058  36.481  44.377  12.509
34115W        W98059  34.997   1.297  12.847
34116W        W98060  31.991  21.216  12.445
34117W        W98061  33.569  40.042  12.449
34118W        W98062  33.106   5.728  13.991
34119W        W98063  33.116  15.179   4.605
34120W        W98064  25.713  25.641   4.698
34121W        W98065  22.582  40.038  11.598
34122W        W98066  26.614  32.538  14.817
34123W        W98067  11.804  41.908  12.839
34124W        W98068  22.604  27.151   0.759
34125W        W98069  22.549  20.636   0.754
34126W        W98070  12.197   9.648  13.447
34127W        W98071  30.113  37.832   4.207
34128W        W98072  35.896   2.778   0.912
34129W        W98073   8.387  28.110  11.119
34130W        W98074   3.228   9.287   0.839
34131W        W98075  28.595   1.964   0.851
34132W        W98076  25.038  37.010   4.178
34133W        W98077  18.152  17.113  11.049
34134W        W98078  32.626  30.956   4.673
34135W        W98079  35.935  16.640  14.963
34136W        W98080  22.218   0.293  12.552
34137W        W98081   4.387  38.368   2.219
34138W        W98082  35.552   4.317  11.908
34139W        W98083  34.534   4.346   3.151
34140W        W98084   5.241  11.697   2.267
34141W        W98085   5.247   1.949   0.388
34142W        W98086   4.233  14.800   3.323
34143W        W98087  34.503  29.054   0.733
34144W        W98088  33.584  17.758   2.231
34145W        W98089   0.467  28.658   3.715
34146W        W98090   6.398  34.024   3.378
34147W        W98091  12.351   3.336   3.732
34148W        W98092  28.534   0.762   3.686
34149W        W98093  35.916  42.857  13.384
34150W        W98094  15.676  44.784   1.234
34151W        W98095   3.903   0.457  14.472
34152W        W98096  31.116  39.322  10.611
34153W        W98097  34.038   0.378   2.253
34154W        W98098  19.058  22.027   0.727
34155W        W98099   5.265  35.918   3.282
34156W        W98100  24.479  15.619   4.681
34157W        W98101  15.655   1.336  13.804
34158W        W98102  37.956  32.404  14.424
34159W        W98103   6.763   4.811  14.938
34160W        W98104  29.456  35.014  13.458
34161W        W98105  18.675  23.512   3.267
34162W        W98106  35.502  32.518  13.515
34163W        W98107   8.869  19.166  14.934
34164W        W98108  17.704  22.562  12.410
34165W        W98109  35.977  30.023  14.494
34166W        W98110  14.736  34.083  14.501
34167W        W98111  36.558  28.061   1.793
34168W        W98112  40.417  26.990   1.873
34169W        W98113  30.976   8.759  10.134
34170W        W98114  27.081  44.984   4.324
34171W        W98115  32.479   8.716  12.959
34172W        W98116  29.023  27.529   0.326
34173W        W98117  18.680  14.708   3.176
34174W        W98118  32.496  29.624  10.509
34175W        W98119  28.472  29.013  12.891
34176W        W98120  40.028  18.230  14.830
34177W        W98121  39.419  16.310  13.313
34178W        W98122  43.927  39.876  13.813
34179W        W98123  13.150  38.948   3.736
34180W        W98124  25.042   6.196  14.494
34181W        W98125   5.805  11.747   0.794
34182W        W98126  11.201  44.756  12.002
34183W        W98127   3.233  32.065  12.391
34184W        W98128  42.397  19.226  12.012
34185W        W98129   5.349  39.958  14.800
34186W        W98130  15.600  21.017  10.915
34187W        W98131  17.603  19.771   4.272
34188W        W98132  39.851  26.580  12.918
34189W        W98133  16.105   5.743  10.515
34190W        W98134  31.938  29.494   2.767
34191W        W98135  17.126   7.218  12.947
34192W        W98136  21.644  36.568  12.383
34193W        W98137  11.258  44.417  14.406
34194W        W98138  22.741   0.969   2.733
34195W        W98139   8.379  42.522   3.675
34196W        W98140  14.300  20.714   2.251
34197W        W98141  26.097  31.487   2.841
34198W        W98142  42.984   2.324  14.919
34199W        W98143  15.747  13.288   3.692
34200W        W98144  36.847  41.948  12.394
34201W        W98145  34.552  42.371   1.744
34202W        W98146   6.875  24.559  12.907
34203W        W98147  28.637  14.164  11.984
34204W        W98148  18.072  14.120  13.821
34205W        W98149  33.560  18.221  10.062
34206W        W98150  32.065  20.212   1.822
34207W        W98151  29.067  29.159   2.816
34208W        W98152  38.569   7.897  13.968
34209W        W98153   0.322  12.814  13.052
34210W        W98154  39.359  38.857  10.901
34211W        W98155  27.031  14.775  11.511
34212W        W98156  39.815  14.704  11.974
34213W        W98157  35.418  43.343  13.991
34214W        W98158   8.678  24.510   1.227
34215W        W98159  24.058   2.891   0.870
34216W        W98160   4.859   8.301  11.531
34217W        W98161   2.801  30.498  11.950
34218W        W98162  19.758  26.578   1.762
34219W        W98163  12.832  32.125   3.338
34220W        W98164  38.542  13.666   4.311
34221W        W98165  39.065  30.539   1.909
34222W        W98166  19.614  34.070   0.921
34223W        W98167  20.747  35.042   3.695
34224W        W98168  26.166  43.006  12.341
34225W        W98169  41.338  10.339   1.704
34226W        W98170  37.940  38.826   4.241
34227W        W98171  17.611  10.695  12.929
34228W        W98172  18.117  20.609  13.479
34229W        W98173  44.844  21.555   1.337
34230W        W98174  42.995  39.910   1.385
34231W        W98175  12.650  27.149   3.261
34232W        W98176   2.303  25.478   3.373
34233W        W98177   8.765  15.116   0.920
34234W        W98178  21.165  31.148   0.847
34235W        W98179   4.706  37.575   1.218
34236W        W98180  30.630  22.709  14.282
34237W        W98181  15.674  20.755   1.796
34238W        W98182   2.272   6.763  12.348
34239W        W98183   1.947   2.884   2.264
34240W        W98184  24.170  27.118  10.417
34241W        W98185  25.158   1.431   3.281
34242W        W98186   6.689   7.807  13.855
34243W        W98187  21.737  27.014  12.485
34244W        W98188   9.671  20.176   3.853
34245W        W98189  32.567  26.209  12.488
34246W        W98190  34.864  20.103   3.151
34247W        W98191  32.404   5.880  11.056
34248W        W98192   9.261  28.595   3.829
34249W        W98193   5.369  44.378   1.765
34250W        W98194  21.571   7.908   3.793
34251W        W98195  17.187   1.843   3.806
34252W        W98196  18.560  18.241  12.437
34253W        W98197  27.153  38.353  11.084
34254W        W98198   4.274  32.961   3.809
34255W        W98199  35.059  15.163   4.335
34256W        W98200   7.310  13.758   3.202
34257W        W98201  20.235   9.175  14.875
34258W        W98202  37.360  32.056   4.792
34259W        W98203  31.483  39.826  12.370
34260W        W98204  20.551  15.226   0.815
34261W        W98205  27.088  26.084  13.344
34262W        W98206  16.620  28.659  10.484
34263W        W98207  10.189  42.791  10.545
34264W        W98208  29.601  28.672   1.409
34265W        W98209   1.288  35.961   3.213
34266W        W98210   2.304  17.720   2.777
34267W        W98211  11.146  17.100  13.503
34268W        W98212   2.446  10.183   4.286
34269W        W98213   1.969  38.370  12.430
34270W        W98214  28.979  41.385   3.309
34271W        W98215  25.064  15.279  11.937
34272W        W98216  23.160  39.446   2.214
34273W        W98217   9.650   8.364   4.818
34274W        W98218  33.601  29.661   4.199
34275W        W98219  43.339  21.613   4.231
34276W        W98220  25.101   2.406   0.963
34277W        W98221   4.433   0.774   4.128
34278W        W98222  27.193  40.501  13.038
34279W        W98223  36.916  22.637   0.358
34280W        W98224  16.577   7.907  14.414
34281W        W98225  36.909  27.483   1.312
34282W        W98226  34.946   9.238   1.931
34283W        W98227   0.314  40.868  14.311
34284W        W98228  37.487   7.860   3.758
34285W        W98229  44.967  27.529  11.103
34286W        W98230   6.306   7.200  13.000
34287W        W98231  10.750  28.152   2.828
34288W        W98232  27.994  38.352   1.886
34289W        W98233  42.974   6.314   3.209
34290W        W98234  29.966  29.122  13.522
34291W        W98235  42.816  20.702   3.679
34292W        W98236  27.197  15.772   4.327
34293W        W98237  37.988  34.536   4.264
34294W        W98238   1.874   9.331  14.870
34295W        W98239  42.029  12.839  12.876
34296W        W98240  43.764  35.477   4.318
34297W        W98241   6.360  28.106   0.335
34298W        W98242  41.932  24.720   3.748
34299W        W98243  41.939   8.689   2.847
34300W        W98244  40.807   5.912   2.709
34301W        W98245   5.723  39.407  12.360
34302W        W98246  24.158   4.836   0.286
34303W        W98247  33.444  15.724   3.199
34304W        W98248  27.457  30.108  12.881
34305W        W98249  23.184  25.985   3.293
34306W        W98250   5.921   4.814   2.701
34307W        W98251  22.556  25.643   1.346
34308W        W98252  28.450  12.330   1.806
34309W        W98253  36.954  37.015  14.940
34310W        W98254  10.862  26.003   0.425
34311W        W98255  42.443  42.470  13.938
34312W        W98256   2.739   2.846  11.082
34313W        W98257   3.848  42.857   3.674
34314W        W98258   3.387  19.228  14.909
34315W        W98259  29.021   9.718   4.275
34316W        W98260   7.253  13.305  12.942
34317W        W98261  12.173  36.934   4.696
34318W        W98262   8.717   7.334  14.877
34319W        W98263  22.549  40.421  13.399
34320W        W98264  27.479  40.800   3.250
34321W        W98265  36.484  40.851  14.898
34322W        W98266  19.181  21.161   4.117
34323W        W98267   5.436  11.805   3.350
34324W        W98268  20.552  32.632  11.382
34325W        W98269   2.257  14.233   1.259
34326W        W98270   2.299  31.917  12.034
34327W        W98271  34.398  31.434   2.676
34328W        W98272  16.144  38.997  10.568
34329W        W98273  16.124  12.252  10.618
34330W        W98274  32.623  17.092  11.953
34331W        W98275   0.847  13.821   4.217
34332W        W98276  36.494  31.614   3.672
34333W        W98277  36.414  21.261  10.969
34334W        W98278  22.542  36.962  14.435
34335W        W98279  21.545  13.706  13.381
34336W        W98280   5.787   4.931  13.809
34337W        W98281  28.106   3.450   0.259
34338W        W98282  16.217  43.398   2.189
34339W        W98283  42.977  30.543   2.293
34340W        W98284  11.751   3.368  13.421
34341W        W98285  22.134   4.363  11.394
34342W        W98286  37.999  34.611   2.398
34343W        W98287  11.753  17.100   5.120
34344W        W98288  13.191  37.886  13.928
34345W        W98289   7.416   3.784   4.173
34346W        W98290  27.118  30.926   0.800
34347W        W98291   3.448  38.364  13.492
34348W        W98292  28.554  34.002  12.982
34349W        W98293  43.275  19.718   1.382
34350W        W98294   6.724  25.579   0.259
34351W        W98295   5.206  44.867  12.533
34352W        W98296  43.410  38.954  12.456
34353W        W98297  33.526   0.978   4.174
34354W        W98298  32.561  37.433   5.094
34355W        W98299   2.268  12.172  14.515
34356W        W98300  13.340  22.690  13.996
34357W        W98301  33.111   0.320   0.404
34358W        W98302  11.776  35.504   0.297
34359W        W98303   1.966  32.572   0.818
34360W        W98304  27.129  42.494  12.465
34361W        W98305  23.230  13.692   3.275
34362W        W98306  11.673  30.603   0.374
34363W        W98307  30.508   0.338  13.524
34364W        W98308  18.611  35.881  14.464
34365W        W98309   7.707  41.835   0.387
34366W        W98310  44.941  22.716   2.773
34367W        W98311  13.164   8.822   1.384
34368W        W98312  28.946  23.609   3.228
34369W        W98313  31.107   6.789  11.499
34370W        W98314  28.521  37.488   1.827
34371W        W98315   6.696  27.471   9.979
34372W        W98316   2.350   9.678   5.248
34373W        W98317  39.550  35.971  14.924
34374W        W98318  11.799   3.287   1.230
34375W        W98319  36.012   2.777  14.348
34376W        W98320  15.801   5.234   2.893
34377W        W98321  15.188  25.472  11.085
34378W        W98322  23.698  20.536   0.465
34379W        W98323  28.060  24.508  11.102
34380W        W98324  33.033  41.469  12.901
34381W        W98325   3.798  29.136  13.502
34382W        W98326  15.299  42.371   2.740
34383W        W98327  24.590  34.530  11.593
34384W        W98328   5.429  26.048   1.356
34385W        W98329  30.654   8.256   3.314
34386W        W98330  27.114  41.856   3.652
34387W        W98331  39.352  35.893  13.022
34388W        W98332  21.713  39.835  11.437
34389W        W98333  26.984  14.682  12.022
34390W        W98334  21.636   5.404  12.878
34391W        W98335   3.361  23.240  10.500
34392W        W98336  43.971   3.270  13.049
34393W        W98337  43.834  10.747  12.409
34394W        W98338  34.908   7.306   2.380
34395W        W98339  20.068  14.729   2.180
34396W        W98340  25.691  30.510  12.345
34397W        W98341   4.384  32.974  10.968
34398W        W98342  14.732   9.201   1.914
34399W        W98343  24.707  24.054   2.332
34400W        W98344  37.039   9.802   3.815
34401W        W98345  41.503  43.442   3.851
34402W        W98346  12.129  29.445  11.438
34403W        W98347  34.921  43.881  13.869
34404W        W98348  16.574  44.912  12.455
34405W        W98349  25.217   0.881  12.891
34406W        W98350  32.563  22.187   0.434
34407W        W98351  16.723  36.857   3.233
34408W        W98352  22.737  35.057  12.367
34409W        W98353  40.802   8.685   4.604
34410W        W98354  35.401  19.103  14.493
34411W        W98355  17.628   5.247   5.657
34412W        W98356   4.212   5.814  12.950
34413W        W98357  28.517  16.629  10.001
34414W        W98358  33.078  12.646   2.230
34415W        W98359   2.760   7.357  12.019
34416W        W98360  20.654  21.230   0.912
34417W        W98361  23.699  24.178  14.280
34418W        W98362   9.338   7.288  11.505
34419W        W98363  29.122  22.508   2.279
34420W        W98364  38.887  17.578   0.463
34421W        W98365  13.130   4.300   0.755
34422W        W98366  31.074  22.524  10.542
34423W        W98367  15.623   3.431   1.398
34424W        W98368  38.037  36.936   2.749
34425W        W98369   7.774  41.386  11.040
34426W        W98370  10.275  22.645   3.781
34427W        W98371  40.799  17.626  12.874
34428W        W98372  25.651  40.329   0.472
34429W        W98373  43.269  25.110  12.535
34430W        W98374  43.832  18.098   4.773
34431W        W98375   9.164  34.927   3.232
34432W        W98376  23.733  13.775   2.200
34433W        W98377  33.434   8.830  10.481
34434W        W98378  29.947  17.203  13.492
34435W        W98379   7.212  25.041   2.756
34436W        W98380  29.055  21.663  11.595
34437W        W98381  37.344   9.361  13.429
34438W        W98382   5.731  36.015   2.725
34439W        W98383   7.171  10.827  11.444
34440W        W98384  39.453  16.121   0.324
34441W        W98385   7.758  15.715  13.950
34442W        W98386  18.222   7.763  12.008
34443W        W98387  36.952   8.209   2.250
34444W        W98388  35.927  30.073  11.115
34445W        W98389  36.453  17.703   2.828
34446W        W98390   3.844  13.830  12.467
34447W        W98391  28.028  25.519  12.002
34448W        W98392  34.453  17.593  13.392
34449W        W98393  22.587  10.863  10.520
34450W        W98394  44.340  40.929  11.476
34451W        W98395  11.185  10.641  13.542
34452W        W98396   2.825  30.033   2.364
34453W        W98397  37.349  20.677   4.768
34454W        W98398  29.445  27.186   1.884
34455W        W98399  28.015  16.273  14.503
34456W        W98400   1.445  14.290  12.879
34457W        W98401  31.050  43.271  12.506
34458W        W98402  31.923  22.012  13.966
34459W        W98403  40.399  11.158   3.248
34460W        W98404  18.616   4.730   0.260
34461W        W98405  15.096  28.046   0.294
34462W        W98406  27.011  12.832   0.742
34463W        W98407   7.417  11.230  14.783
34464W        W98408   5.795  11.680   4.252
34465W        W98409  38.869  10.314  12.449
34466W        W98410  10.693   6.871   1.394
34467W        W98411  36.510  22.194  12.368
34468W        W98412  24.511  20.159  12.943
34469W        W98413  34.101  30.542  10.969
34470W        W98414  23.528   4.426   4.337
34471W        W98415  26.106  26.663   1.348
34472W        W98416  39.024  33.032   1.397
34473W        W98417  26.671   9.820  11.462
34474W        W98418  24.203  13.352  12.888
34475W        W98419  11.703  29.168  10.070
34476W        W98420  10.875  21.657  12.532
34477W        W98421  15.609  27.458   2.703
34478W        W98422  18.051   1.305  14.863
34479W        W98423   4.265  34.114  14.866
34480W        W98424  42.870  30.115   2.208
34481W        W98425   9.742   7.336   3.820
34482W        W98426  11.225  23.986  12.410
34483W        W98427   7.278  11.741  13.515
34484W        W98428  38.437  35.403   0.465
34485W        W98429  19.055   8.266   4.129
34486W        W98430   0.892  21.053  11.908
34487W        W98431  24.635  11.780  14.947
34488W        W98432  26.036   9.224   4.123
34489W        W98433  25.691   1.919   3.215
34490W        W98434   6.269  41.487  10.511
34491W        W98435  11.302  15.261  14.854
34492W        W98436  34.486   6.365   4.334
34493W        W98437  22.577  31.513   1.921
34494W        W98438  37.975   5.724  13.443
34495W        W98439   6.183  25.508   4.625
34496W        W98440  17.572  42.969  14.996
34497W        W98441  12.857   5.934  14.454
34498W        W98442  43.291  24.705   4.692
34499W        W98443  20.630  38.013   4.624
34500W        W98444  43.805  29.019  12.023
34501W        W98445  18.199  23.670  12.350
34502W        W98446   2.827  35.383   2.271
34503W        W98447  18.786  34.029   3.260
34504W        W98448  35.855  39.917   3.701
34505W        W98449  22.624  17.630   3.636
34506W        W98450   3.238   5.715   1.444
34507W        W98451  27.589  18.159  14.317
34508W        W98452  26.515  32.526  10.988
34509W        W98453   0.391   6.264  10.908
34510W        W98454   1.889  15.631   2.664
34511W        W98455   5.284  24.670   2.269
34512W        W98456  34.570  11.146   3.333
34513W        W98457  36.970  31.070  13.511
34514W        W98458  20.522  10.341   0.370
34515W        W98459  17.678  19.626  14.436
34516W        W98460  15.264   4.827   4.762
34517W        W98461   1.327  14.651   3.208
34518W        W98462  14.659  39.503   4.747
34519W        W98463   6.816  29.937  11.463
34520W        W98464  41.455  29.054  12.054
34521W        W98465  11.658  40.365  13.038
34522W        W98466  10.636  18.139   0.740
34523W        W98467  28.519  31.039   4.351
34524W        W98468  38.039  37.485   4.833
34525W        W98469  12.708  25.522  12.387
34526W        W98470  20.135  14.225   5.186
34527W        W98471  12.149  18.065   1.747
34528W        W98472  25.478  18.655   1.403
34529W        W98473  33.598  19.660   3.684
34530W        W98474   7.358   7.831  12.954
34531W        W98475  33.409  13.208  12.832
34532W        W98476  22.639  22.636  13.056
34533W        W98477  28.080  34.922   4.784
34534W        W98478  11.134  11.812  11.972
34535W        W98479  40.356  10.267  14.388
34536W        W98480  33.079  34.945   0.810
34537W        W98481  35.482  44.465   3.209
34538W        W98482  22.212  35.525   4.185
34539W        W98483  12.145  28.524  11.114
34540W        W98484  23.594  27.483   1.787
34541W        W98485  39.336  10.344  11.453
34542W        W98486  21.233  36.907   2.662
34543W        W98487  10.294   0.784   3.369
34544W        W98488  18.598  27.463   2.744
34545W        W98489  40.388  30.544  14.467
34546W        W98490   9.260  15.764   2.392
34547W        W98491   1.929  15.744   3.758
34548W        W98492  29.994   3.318  12.907
34549W        W98493  11.353  20.034  11.554
34550W        W98494  22.054   9.779  10.435
34551W        W98495  37.885  24.980   4.197
34552W        W98496  32.079  32.420  13.812
34553W        W98497  23.199   6.208   2.232
34554W        W98498   4.734   9.672   4.226
34555W        W98499  24.143   5.277   1.833
34556W        W98500  23.143  15.127   0.954
34557W        W98501   7.762  36.064  10.987
34558W        W98502   8.758  35.895  11.420
34559W        W98503  26.125  30.150  13.514
34560W        W98504  35.557  28.106  10.910
34561W        W98505  41.459   3.764  10.450
34562W        W98506  12.725  12.275   3.658
34563W        W98507  13.751   3.244   3.750
34564W        W98508   2.872  27.633   1.821
34565W        W98509  15.810  18.144  13.988
34566W        W98510  35.940  29.629   1.709
34567W        W98511   2.302  42.509   0.729
34568W        W98512   5.302   9.666   2.217
34569W        W98513  21.519  20.115  12.909
34570W        W98514  11.334   8.353   0.908
34571W        W98515  29.609  11.632   4.343
34572W        W98516  39.463   2.899   4.243
34573W        W98517  34.093  32.574  13.417
34574W        W98518  17.701  32.029   0.952
34575W        W98519  19.700  30.021  10.991
34576W        W98520  33.911   9.706  13.024
34577W        W98521   6.326   4.917  11.497
34578W        W98522  32.900  12.202  13.884
34579W        W98523  15.775  41.448  11.555
34580W        W98524  13.187  34.999   3.310
34581W        W98525  26.979  10.668  13.508
34582W        W98526  22.631  44.763  14.916
34583W        W98527  33.382  42.992   2.394
34584W        W98528   2.836   8.855  11.467
34585W        W98529  27.528  37.451   1.808
34586W        W98530   8.725  40.917   4.351
34587W        W98531  20.735  44.334  12.442
34588W        W98532  34.375  10.654  14.819
34589W        W98533  28.964  13.244   1.307
34590W        W98534  34.394  43.980   2.178
34591W        W98535  43.333   7.390  13.439
34592W        W98536  14.310  33.885   4.314
34593W        W98537   8.708   1.387  12.975
34594W        W98538  43.284  12.629   2.374
34595W        W98539  23.031  41.815   4.661
34596W        W98540  14.685  43.946  11.994
34597W        W98541  36.521  10.189  14.804
34598W        W98542  12.235  25.593  12.468
34599W        W98543  37.062  31.054   1.866
34600W        W98544  28.013  18.157  10.136
34601W        W98545  35.927  25.050   4.273
34602W        W98546  41.003  36.998  11.568
34603W        W98547   6.193  31.003   4.188
34604W        W98548  13.197  41.369   4.269
34605W        W98549  15.323  13.705  12.917
34606W        W98550  42.436  35.023  14.471
34607W        W98551  39.940  32.477  12.517
34608W        W98552  43.366  15.282  10.992
34609W        W98553  34.058  31.949   1.884
34610W        W98554  22.212  34.991   4.764
34611W        W98555   1.960  16.748   0.375
34612W        W98556   3.777  44.419   3.343
34613W        W98557  24.053  32.544   1.814
34614W        W98558  32.529   3.385   3.278
34615W        W98559  15.720  35.446  13.349
34616W        W98560  28.656  40.963   3.779
34617W        W98561  19.614  36.997  14.441
34618W        W98562  32.125  25.104  14.338
34619W        W98563   3.309  37.984   0.920
34620W        W98564  25.485  12.226  12.521
34621W        W98565  35.922   5.710   9.981
34622W        W98566  23.731  20.100  12.041
34623W        W98567  21.050  25.534  12.889
34624W        W98568  39.981   3.268  11.087
34625W        W98569  26.974  35.897   5.219
34626W        W98570  10.713  41.999  11.059
34627W        W98571   3.286  43.773   1.794
34628W        W98572  14.649  38.853   2.419
34629W        W98573   6.773   0.405  14.310
34630W        W98574  14.820  21.262  10.070
34631W        W98575  23.600  20.100  10.948
34632W        W98576   2.416  28.558   2.244
34633W        W98577   0.348   4.714   4.266
34634W        W98578  19.629  42.450  13.003
34635W        W98579  11.682   3.769   5.277
34636W        W98580  40.525  29.112  11.427
34637W        W98581  26.205  34.051   2.403
34638W        W98582   2.793  28.622  11.421
34639W        W98583  28.470   7.811   2.330
34640W        W98584  39.941  39.504  11.891
34641W        W98585  22.640  26.070   1.308
34642W        W98586  27.692  34.068   2.705
34643W        W98587  33.443   9.236   4.275
34644W        W98588  16.249  13.763   2.713
34645W        W98589   5.694  16.137   9.629
34646W        W98590  23.116  33.944  14.513
34647W        W98591   9.343  22.249   0.370
34648W        W98592  34.393  37.033   0.361
34649W        W98593  11.783  26.625  12.421
34650W        W98594  22.118   1.766  11.464
34651W        W98595  24.509  28.586   2.736
34652W        W98596  21.719  23.996  13.471
34653W        W98597   6.693  29.173  11.563
34654W        W98598  16.285   5.706   0.925
34655W        W98599  16.722  37.542   0.286
34656W        W98600  32.473   5.343  10.602
34657W        W98601  28.144  15.793  13.534
34658W        W98602  30.487  44.422  14.900
34659W        W98603   9.169   7.225   0.962
34660W        W98604  22.095   6.889  13.520
34661W        W98605   9.717   9.643   3.357
34662W        W98606   1.868  19.603  13.803
34663W        W98607   3.252  11.632   1.226
34664W        W98608  32.471  25.695   1.324
34665W        W98609   6.375  37.969   1.293
34666W        W98610  29.504  43.442  11.116
34667W        W98611  31.982  30.007   1.306
34668W        W98612   4.720  14.186   2.413
34669W        W98613  44.362  37.016  12.456
34670W        W98614  26.054  15.770  13.063
34671W        W98615  19.185  10.762  11.073
34672W        W98616   2.377  33.980  11.922
34673W        W98617  14.825  34.878  14.951
34674W        W98618  17.738  27.992   1.276
34675W        W98619  27.471  10.232   4.172
34676W        W98620  38.986  17.689   0.856
34677W        W98621  15.318  12.784  10.630
34678W        W98622  24.622  11.203  14.295
34679W        W98623  37.494  26.469  14.806
34680W        W98624  24.225  33.046   2.825
34681W        W98625  31.934  44.010   3.751
34682W        W98626  23.547  36.551  14.363
34683W        W98627  38.923   0.901  11.974
34684W        W98628  31.149  26.958  14.361
34685W        W98629   1.769  42.381  11.537
34686W        W98630   1.737  10.289  12.351
34687W        W98631   9.761   2.368   1.726
34688W        W98632  16.197  25.006   5.201
34689W        W98633   5.343  44.318  12.868
34690W        W98634  14.820  12.302   1.347
34691W        W98635   4.708  39.500  13.988
34692W        W98636  10.729  14.779  11.447
34693W        W98637   2.927  42.281  13.839
34694W        W98638   8.743   2.962   2.838
34695W        W98639  12.277  41.023  14.875
34696W        W98640   2.387  33.514  10.121
34697W        W98641  41.857  39.903  13.854
34698W        W98642   9.374  12.291   2.240
34699W        W98643  40.854   3.334  12.383
34700W        W98644  43.351   8.817  14.802
34701W        W98645  34.496  11.303   0.347
34702W        W98646  34.389   2.945   4.695
34703W        W98647  42.867  14.816  13.925
34704W        W98648  41.369   5.879  12.089
34705W        W98649  43.898  18.229  10.521
34706W        W98650  37.902  29.559  12.898
34707W        W98651  17.216  41.433   1.905
34708W        W98652   2.467  38.967  13.876
34709W        W98653  41.966   6.812   3.662
34710W        W98654  31.475   8.750   1.856
34711W        W98655  37.870  43.386   0.483
34712W        W98656  27.990  35.545   1.302
34713W        W98657  15.280  31.576   4.823
34714W        W98658  16.650  38.942  11.111
34715W        W98659  35.526  11.860   0.931
34716W        W98660  12.257   6.813   3.195
34717W        W98661  17.195  26.138  12.494
34718W        W98662   3.423  38.995  13.864
34719W        W98663   8.307  38.057   4.603
34720W        W98664   9.226  33.434   0.314
34721W        W98665  36.920   3.377   2.692
34722W        W98666  24.554   2.957   2.402
34723W        W98667  39.047   3.442  12.568
34724W        W98668  12.761  18.126  13.983
34725W        W98669   7.821  17.067  13.989
34726W        W98670  24.171  17.608   1.320
34727W        W98671  39.031  15.206   0.261
34728W        W98672  21.180  32.912  12.500
34729W        W98673  10.661  39.840   0.472
34730W        W98674  41.975  13.204  13.354
34731W        W98675  43.911  42.349  14.414
34732W        W98676   4.781   9.227  13.332
34733W        W98677   9.681  37.580  10.589
34734W        W98678   0.425  12.762  14.915
34735W        W98679  42.421  15.691   0.776
34736W        W98680   5.309   6.730  14.893
34737W        W98681   1.926   6.368  11.503
34738W        W98682  33.485  36.057  12.383
34739W        W98683  34.529   4.803  13.860
34740W        W98684  10.233  10.350   2.685
34741W        W98685  25.516  26.180   1.713
34742W        W98686   7.887  28.592   3.163
34743W        W98687  10.867  35.886   2.759
34744W        W98688   1.243  23.528   4.643
34745W        W98689  16.186   3.404  13.003
34746W        W98690  37.994   8.733   2.332
34747W        W98691  36.909  27.008   4.783
34748W        W98692   3.754   9.307  11.071
34749W        W98693  26.116   1.757  10.512
34750W        W98694  13.839  34.370   2.670
34751W        W98695  30.025  21.096  10.603
34752W        W98696  14.691  19.143   2.721
34753W        W98697  40.024  41.990  12.449
34754W        W98698   3.803  30.605  13.955
34755W        W98699  11.685  11.145   1.725
34756W        W98700  12.666  16.672   1.787
34757W        W98701  14.797  18.180  11.520
34758W        W98702  20.216  18.552  14.024
34759W        W98703  15.598   7.712  12.410
34760W        W98704  30.040  20.691   2.778
34761W        W98705  16.671   1.292   2.355
34762W        W98706  12.729  22.236   3.755
34763W        W98707  40.007  32.941  13.050
34764W        W98708  12.676  33.596   5.219
34765W        W98709   7.173  26.573  14.816
34766W        W98710  24.657   5.737  10.465
34767W        W98711  35.075  15.198  13.449
34768W        W98712  38.939  16.597  14.894
34769W        W98713  19.044   5.350   2.338
34770W        W98714  38.837   1.879   1.371
34771W        W98715  12.761  26.642  14.896
34772W        W98716  31.446  42.448  12.420
34773W        W98717   2.235  36.503  11.998
34774W        W98718  33.107   7.373   4.147
34775W        W98719  28.073   4.759  13.919
34776W        W98720  15.199  10.645  14.403
34777W        W98721  28.631  33.945  11.509
34778W        W98722   9.222  34.984  13.803
34779W        W98723  10.349   0.956   5.275
34780W        W98724  23.712   2.299   2.298
34781W        W98725  12.749  30.435  10.897
34782W        W98726  43.438  13.279  13.799
34783W        W98727  30.588  11.324   1.294
34784W        W98728  32.588  27.178  13.043
34785W        W98729  24.140  43.938  13.358
34786W        W98730  21.580  23.006   0.438
34787W        W98731  16.146   5.894   1.442
34788W        W98732   8.846  17.254  14.936
34789W        W98733  17.801  12.358  11.909
34790W        W98734  44.318  10.341  11.915
34791W        W98735  13.308  43.958   4.158
34792W        W98736  15.241  40.039  13.440
34793W        W98737  31.948  11.667   1.392
34794W        W98738  21.183  10.645  14.436
34795W        W98739  24.654   7.899   1.251
34796W        W98740  24.061   3.843   0.257
34797W        W98741   0.351  32.983  13.850
34798W        W98742  39.367  25.006  10.574
34799W        W98743  34.567  24.636  11.884
34800W        W98744   0.888  41.895   3.675
34801W        W98745  44.478  32.618  14.831
34802W        W98746  10.697   4.426  12.944
34803W        W98747   1.328  44.302  11.419
34804W        W98748  23.197   3.756   2.799
34805W        W98749  32.907   6.405   4.651
34806W        W98750  21.703  20.183   3.352
34807W        W98751  17.562  16.179  14.770
34808W        W98752  38.842  36.407   2.732
34809W        W98753  25.648   0.857   0.758
34810W        W98754  37.579  44.334   1.836
34811W        W98755  33.564  36.975  11.876
34812W        W98756  16.318  12.230   1.863
34813W        W98757   4.787   6.861  11.044
34814W        W98758  35.389  14.144   4.688
34815W        W98759  41.314  29.664  14.853
34816W        W98760   2.338  21.062   1.751
34817W        W98761  31.639  20.633   2.752
34818W        W98762   1.836   1.332  13.950
34819W        W98763  41.935   2.375   0.251
34820W        W98764  44.956   8.856   0.752
34821W        W98765  13.313  26.984  13.957
34822W        W98766   7.882  18.549  11.089
34823W        W98767  27.943  34.379  14.301
34824W        W98768  32.482  38.969   4.808
34825W        W98769  16.132  35.452   1.378
34826W        W98770  18.237   4.251   3.636
34827W        W98771  28.947  34.964   1.775
34828W        W98772   0.927  40.397   4.211
34829W        W98773  40.038  29.961   0.923
34830W        W98774  32.453   0.430   0.440
34831W        W98775  24.227   3.296   4.757
34832W        W98776  32.616  10.678   2.291
34833W        W98777  37.969  36.979  10.571
34834W        W98778  25.176  39.546   3.853
34835W        W98779  38.540  27.192   2.419
34836W        W98780   6.428  40.321   5.242
34837W        W98781  29.175   4.431  14.903
34838W        W98782  13.685  21.650   2.413
34839W        W98783  22.180  30.149   1.407
34840W        W98784   4.272  44.339  13.948
34841W        W98785   3.897  36.521   2.339
34842W        W98786  24.714   3.387   2.677
34843W        W98787  39.465   0.775   4.786
34844W        W98788   0.944  41.522  10.592
34845W        W98789  16.653  13.820   4.227
34846W        W98790   2.743  20.665   0.337
34847W        W98791   9.791  17.577  13.977
34848W        W98792   1.398  37.413  13.915
34849W        W98793  36.009  23.217  14.017
34850W        W98794   8.263  34.385   3.860
34851W        W98795   7.197  10.812  12.056
34852W        W98796  26.115  26.107   4.158
34853W        W98797  36.491   7.239  11.043
34854W        W98798  18.255  35.913   3.317
34855W        W98799  39.858   5.731  14.770
34856W        W98800  26.648   8.671   1.905
34857W        W98801   8.744  24.639   0.294
34858W        W98802  24.152  30.126  12.878
34859W        W98803  21.163  19.552   2.291
34860W        W98804  20.553  30.081   1.725
34861W        W98805   3.905  19.702   3.767
34862W        W98806  10.784  13.156   0.841
34863W        W98807  20.672   0.412   0.349
34864W        W98808  25.505  37.947  11.012
34865W        W98809  17.702  27.186   3.698
34866W        W98810   7.691  23.653  12.936
34867W        W98811  25.071  38.984  13.988
34868W        W98812  33.539   7.727  12.418
34869W        W98813  37.838  33.555  11.581
34870W        W98814  24.059  23.027  14.929
34871W        W98815  12.688  24.522   3.152
34872W        W98816  17.782  42.798  13.035
34873W        W98817  34.610  12.789   4.676
34874W        W98818  26.195  19.122  14.940
34875W        W98819  19.098  34.962   0.737
34876W        W98820   0.292  41.361   4.820
34877W        W98821  10.863   8.700   3.644
34878W        W98822  36.355  27.140  11.508
34879W        W98823  21.020  16.075  10.630
34880W        W98824   8.729  15.225   4.320
34881W        W98825  16.160  21.587   2.758
34882W        W98826   4.728  25.128  14.840
34883W        W98827  36.015  31.048  10.896
34884W        W98828   2.280  23.120   3.163
34885W        W98829  26.686  43.303  11.942
34886W        W98830  15.287  16.630   2.227
34887W        W98831   1.766   3.351  14.350
34888W        W98832  16.086  13.220   3.805
34889W        W98833  13.766  24.612  12.366
34890W        W98834  21.560  14.817   2.811
34891W        W98835  17.099  34.955  14.428
34892W        W98836  32.084  36.857   2.690
34893W        W98837   1.361  29.945  11.862
34894W        W98838   1.467  30.503  11.604
34895W        W98839  16.280  35.931   5.248
34896W        W98840  20.605  39.354   0.411
34897W        W98841  34.965  23.611  11.123
34898W        W98842  25.008  39.518   1.296
34899W        W98843  43.337  25.499   0.478
34900W        W98844  12.159  44.888  13.038
34901W        W98845  24.152   2.814  14.399
34902W        W98846  11.680  28.629   5.666
34903W        W98847  23.046  17.675   2.366
34904W        W98848  24.185   1.825   2.301
34905W        W98849  16.164  41.331   0.447
34906W        W98850  15.712  15.159   2.377
34907W        W98851   9.741  16.762   2.900
34908W        W98852  42.896  19.178   3.778
34909W        W98853  22.124  33.010  11.944
34910W        W98854  35.930   3.919   3.240
34911W        W98855   0.444  35.936   1.285
34912W        W98856   0.948  17.589  13.313
34913W        W98857  43.814  11.751   3.799
34914W        W98858  26.647  36.907   1.728
34915W        W98859  34.487  21.551   2.755
34916W        W98860  31.149  15.261   1.393
34917W        W98861  31.963  34.562   3.241
34918W        W98862   5.302  23.021  14.411
34919W        W98863  39.057  38.548   1.873
34920W        W98864  30.636  32.531  13.516
34921W        W98865   0.382  16.135  10.573
34922W        W98866  11.197  13.346  14.759
34923W        W98867  27.095  14.097  14.840
34924W        W98868  44.463  43.790   2.275
34925W        W98869   6.218  30.987  13.483
34926W        W98870  30.152  19.141  10.964
34927W        W98871  37.358  10.637   1.315
34928W        W98872   1.817  31.920  11.498
34929W        W98873  23.515  25.145   0.868
34930W        W98874  30.061  19.158  11.858
34931W        W98875  44.969  25.564   4.257
34932W        W98876  21.560  28.481  13.993
34933W        W98877  30.453  44.823   2.247
34934W        W98878  25.576  25.967  13.422
34935W        W98879  19.122  39.856  12.388
34936W        W98880  40.804  20.168  14.014
34937W        W98881  31.529  30.489   1.280
34938W        W98882  23.223  27.956   0.422
34939W        W98883   0.875  27.611  10.424
34940W        W98884   5.804  30.052   3.203
34941W        W98885  21.518  44.810  14.929
34942W        W98886   7.292   3.709  12.498
34943W        W98887   9.285  36.497   2.901
34944W        W98888   0.412   0.487  10.627
34945W        W98889  32.102  13.755  13.932
34946W        W98890   7.750  35.480   3.713
34947W        W98891  17.638   6.836   2.344
34948W        W98892   9.833  41.330   2.800
34949W        W98893   2.241  31.134   2.315
34950W        W98894   3.230   7.865  14.793
34951W        W98895  21.736  23.714  13.000
34952W        W98896  41.927  12.227  10.404
34953W        W98897  18.261  37.970   1.394
34954W        W98898   3.939  38.335  14.953
34955W        W98899  29.573  29.093  11.553
34956W        W98900   1.970  29.091   0.729
34957W        W98901  14.214   2.402  14.882
34958W        W98902   4.892   0.749   2.757
34959W        W98903  20.274  38.483   4.786
34960W        W98904  44.923   6.345  10.966
34961W        W98905  38.465  43.987   1.737
34962W        W98906   9.246  14.297   1.730
34963W        W98907  28.673  37.572  10.441
34964W        W98908   6.255  20.180   3.352
34965W        W98909   9.698  15.152  12.087
34966W        W98910   3.249  25.652  11.909
34967W        W98911  27.472  20.065   0.844
34968W        W98912   7.323  25.584  10.538
34969W        W98913   3.880  25.150  14.499
34970W        W98914  13.628  35.914   1.342
34971W        W98915  11.666  10.302  12.027
34972W        W98916  22.139  43.440  11.019
34973W        W98917  27.592  41.338   1.301
34974W        W98918   3.833  10.354  11.102
34975W        W98919   4.410  39.926   3.820
34976W        W98920  17.677   7.762  14.365
34977W        W98921  44.919  27.523  13.960
34978W        W98922  34.506  27.500   1.382
34979W        W98923   3.955  36.064   2.876
34980W        W98924  28.478   8.758   3.281
34981W        W98925   6.266  24.989   1.334
34982W        W98926   7.300  34.882   3.648
34983W        W98927  12.133  23.056  13.422
34984W        W98928  13.116  41.451   2.671
34985W        W98929  38.032   9.734  13.796
34986W        W98930  10.877  28.454   5.317
34987W        W98931  40.040   6.735   1.392
34988W        W98932  26.032  42.304  10.027
34989W        W98933  32.051  10.832   4.152
34990W        W98934  38.449  34.970  14.476
34991W        W98935  20.744  41.382   0.779
34992W        W98936  36.960  38.832  13.988
34993W        W98937  43.865  24.010   4.814
34994W        W98938  28.582  41.986   5.129
34995W        W98939  25.606   4.342   4.602
34996W        W98940  34.382   1.347   3.752
34997W        W98941   2.941  26.526  12.429
34998W        W98942  11.325  31.102  13.375
34999W        W98943  12.809  12.828  12.943
35000W        W98944  11.249  21.160  14.856
35001W        W98945   0.773  23.654   9.977
35002W        W98946  39.038   9.217  13.442
35003W        W98947  24.683  21.071  10.404
35004W        W98948  33.062  35.908   4.299
35005W        W98949  37.027  27.945   0.863
35006W        W98950  22.534   5.434  11.985
35007W        W98951   3.912  44.305   4.150
35008W        W98952  42.935  42.852   4.322
35009W        W98953  39.968  28.560  10.632
35010W        W98954   6.234  36.482   4.215
35011W        W98955  40.842  21.541   3.203
35012W        W98956  41.954   6.425   3.255
35013W        W98957  12.155  40.485   0.357
35014W        W98958  41.989  21.067  12.522
35015W        W98959  24.576   2.742   1.918
35016W        W98960  21.263  37.406  11.033
35017W        W98961  26.109  10.791   4.244
35018W        W98962  36.588  24.124  14.771
35019W        W98963  37.359   1.257   3.806
35020W        W98964   2.805  21.073  12.924
35021W        W98965  42.779   4.273   0.780
35022W        W98966   4.778   6.729   0.908
35023W        W98967  30.943  39.828  14.799
35024W        W98968  31.473  35.990  11.448
35025W        W98969   5.703  42.501   2.401
35026W        W98970  14.742  11.780   2.700
35027W        W98971  16.669  22.591   4.156
35028W        W98972  13.800  31.419   5.218
35029W        W98973   3.942  11.724  14.377
35030W        W98974  26.611  37.393   1.396
35031W        W98975   9.344   4.904   2.393
35032W        W98976  21.133  41.968  13.853
35033W        W98977   1.945  23.999  14.432
35034W        W98978  29.540  31.467   2.740
35035W        W98979  18.228  44.324  13.388
35036W        W98980  25.133  13.778  14.355
35037W        W98981  24.204  42.998  14.280
35038W        W98982  38.558  39.931   2.800
35039W        W98983  43.917  11.811  10.481
35040W        W98984   4.406   8.388  10.419
35041W        W98985  39.515  37.963  12.542
35042W        W98986  25.616  38.503  14.468
35043W        W98987  33.444  12.641  14.019
35044W        W98988  24.160  34.471   2.212
35045W        W98989  33.969  38.396  13.963
35046W        W98990  21.541   0.808  14.022
35047W        W98991   7.870   5.236  13.855
35048W        W98992  31.449  15.771  13.794
35049W        W98993  14.708  16.773  12.964
35050W        W98994  14.151   2.774   2.381
35051W        W98995  15.253  37.902   1.864
35052W        W98996  35.052  33.446  11.956
35053W        W98997  24.999  31.082   0.332
35054W        W98998   9.697  41.346  13.961
35055W        W98999  29.017  35.068   4.124
35056W        W99000  23.551   1.402   3.657
35057W        W99001  15.273  29.980  10.567
35058W        W99002  16.148  15.179  11.111
35059W        W99003  33.029  30.511  14.414
35060W        W99004  21.528  34.425  12.906
35061W        W99005   4.743   9.186   5.187
35062W        W99006  15.319  33.954  13.846
35063W        W99007   2.225  10.189  13.375
35064W        W99008  20.545  19.533  14.767
35065W        W99009  41.499  12.174  13.839
35066W        W99010   3.271  37.873   3.766
35067W        W99011   1.333  10.283   2.772
35068W        W99012  42.877   0.325   1.366
35069W        W99013   9.372  21.111   1.718
35070W        W99014  18.709  40.979  10.435
35071W        W99015  40.318  41.336  10.139
35072W        W99016  39.508  23.612  12.832
35073W        W99017  26.003   5.785  14.454
35074W        W99018  28.113   2.948   3.239
35075W        W99019   0.264   7.241   1.831
35076W        W99020   1.744  32.929   2.805
35077W        W99021  23.183  33.079  12.357
35078W        W99022  37.476   7.771  11.024
35079W        W99023   6.789  36.898  13.864
35080W        W99024  33.526  44.801   2.334
35081W        W99025  44.765  12.142  14.293
35082W        W99026  42.469  26.613  13.827
35083W        W99027  25.644   7.306  12.904
35084W        W99028  16.180  11.167  10.451
35085W        W99029  10.276  37.011   2.774
35086W        W99030  29.959  16.199   3.163
35087W        W99031  29.645  14.335   5.290
35088W        W99032   4.703   8.256   3.160
35089W        W99033  31.121  38.976  10.461
35090W        W99034  38.978  34.489   4.755
35091W        W99035  39.509  36.360  13.505
35092W        W99036  27.673  38.015   4.643
35093W        W99037  37.463  11.852  14.863
35094W        W99038  13.148  10.226   5.195
35095W        W99039  44.830   9.762  14.778
35096W        W99040  16.783   4.740   0.878
35097W        W99041  40.798  35.025  14.497
35098W        W99042  19.714  12.806  11.532
35099W        W99043  16.710   4.909   3.726
35100W        W99044   6.309  41.380   1.901
35101W        W99045  35.941  15.707   2.871
35102W        W99046  30.651  43.321  12.542
35103W        W99047  35.475  15.193  14.843
35104W        W99048  34.900   9.275  12.840
35105W        W99049   1.369  21.636  10.428
35106W        W99050  34.904  44.492  14.759
35107W        W99051  11.832  26.164   2.333
35108W        W99052  36.412   4.439   3.350
35109W        W99053  41.426  34.979  11.084
35110W        W99054   4.353  11.136  13.003
35111W        W99055  11.826  34.075  12.516
35112W        W99056  30.613  35.528   4.755
35113W        W99057  33.480  20.136  14.314
35114W        W99058   7.800  18.147  11.990
35115W        W99059  16.278  39.385  11.564
35116W        W99060  12.166  19.069   1.718
35117W        W99061  25.998  37.926   2.705
35118W        W99062  12.788  37.534  11.120
35119W        W99063  34.393  26.150  10.423
35120W        W99064  40.828  10.170   2.797
35121W        W99065  33.999  21.524   1.875
35122W        W99066  25.174  10.794   1.407
35123W        W99067  31.613  25.156  14.919
35124W        W99068  29.935  15.660  13.460
35125W        W99069   6.374  14.237   1.897
35126W        W99070  37.831   9.204  11.475
35127W        W99071  15.721   0.283  14.501
35128W        W99072  29.947  25.018  14.367
35129W        W99073  15.188  26.466   0.919
35130W        W99074  41.523   7.231  12.404
35131W        W99075  28.962  22.536   4.355
35132W        W99076  36.051   6.286   0.727
35133W        W99077  25.134  16.072   2.263
35134W        W99078  18.613  38.920   1.779
35135W        W99079  36.908  30.160   3.681
35136W        W99080  29.095   7.284  13.044
35137W        W99081  28.014  42.912  11.905
35138W        W99082  23.524  16.136   4.308
35139W        W99083  38.462  41.480   4.792
35140W        W99084   5.337   7.235  10.904
35141W        W99085   1.421   3.944  11.018
35142W        W99086   4.712  25.586  10.133
35143W        W99087  29.555  12.658  11.118
35144W        W99088   7.781  41.411  12.341
35145W        W99089  14.175  12.844  13.521
35146W        W99090  36.887  21.228   1.214
35147W        W99091  19.153  21.064  13.874
35148W        W99092  31.039  34.450   5.261
35149W        W99093  30.460  30.460   1.378
35150W        W99094  28.175  35.952  13.804
35151W        W99095   1.963  39.318   2.883
35152W        W99096  16.199  34.057  13.377
35153W        W99097  18.215  31.428  12.374
35154W        W99098   7.759  12.141   4.204
35155W        W99099  33.878  10.201  14.373
35156W        W99100  36.373  19.128  11.082
35157W        W99101  17.595  29.012   3.731
35158W        W99102   2.429  24.563   4.688
35159W        W99103   5.776  26.057   0.956
35160W        W99104  12.637  32.894   4.616
35161W        W99105  36.365  38.403   4.784
35162W        W99106   8.815   8.771   1.446
35163W        W99107  31.551  29.938  10.618
35164W        W99108  26.498   1.376  13.447
35165W        W99109  42.378  44.301  14.377
35166W        W99110  33.455  25.515   0.307
35167W        W99111  11.274  24.210   3.866
35168W        W99112  16.576  41.813   3.838
35169W        W99113  44.952  37.920  12.934
35170W        W99114   2.241  35.373   2.357
35171W        W99115  39.412  35.108   4.279
35172W        W99116  15.161  20.182   0.837
35173W        W99117  36.545  36.973  11.541
35174W        W99118   9.357  15.203   5.587
35175W        W99119  41.807  26.625  14.817
35176W        W99120   3.931   0.315   4.170
35177W        W99121  31.548  26.998  11.406
35178W        W99122  32.551  34.438   4.181
35179W        W99123  44.778   2.747   2.739
35180W        W99124  38.974  27.625  14.500
35181W        W99125  24.223  32.127  13.368
35182W        W99126  20.097  10.153  10.121
35183W        W99127   7.750  42.958  12.015
35184W        W99128  13.304   9.362   1.806
35185W        W99129  20.074  33.619  10.049
35186W        W99130  28.034  38.819  14.427
35187W        W99131  32.004  42.447   3.799
35188W        W99132   9.314  14.602  10.031
35189W        W99133  36.457  24.036  13.948
35190W        W99134  20.220  26.101  11.066
35191W        W99135   8.872  19.276   4.139
35192W        W99136  34.494  25.541  11.599
35193W        W99137  39.414  14.644  11.402
35194W        W99138  12.122  22.627  14.946
35195W        W99139  17.718  13.139   1.760
35196W        W99140   3.893  30.110  11.401
35197W        W99141  40.517  11.203   2.271
35198W        W99142  33.960  40.495   4.326
35199W        W99143  24.172   1.840  12.441
35200W        W99144   5.270  13.759   2.417
35201W        W99145  43.274  41.818  14.782
35202W        W99146   0.776  24.563  13.969
35203W        W99147  30.545  38.996  14.462
35204W        W99148  34.901  15.799   3.766
35205W        W99149  29.963  11.695   3.661
35206W        W99150  20.031  20.588   0.283
35207W        W99151   1.878  17.777   0.293
35208W        W99152  43.294   2.924  13.474
35209W        W99153  27.488  33.960  11.537
35210W        W99154  24.497   6.304   1.313
35211W        W99155  17.604  11.720  12.037
35212W        W99156  31.584   5.279   0.283
35213W        W99157  14.156   7.381   1.799
35214W        W99158  44.913   0.367  12.551
35215W        W99159   7.263  20.645   4.321
35216W        W99160  28.510  37.862   4.839
35217W        W99161  44.404  19.253  12.364
35218W        W99162  16.100  30.468   4.268
35219W        W99163   0.402  29.446   3.299
35220W        W99164   4.746  30.652  11.083
35221W        W99165  34.598  26.504  14.399
35222W        W99166  37.496  25.166  13.998
35223W        W99167  12.807  36.369   4.138
35224W        W99168  24.181  21.087   0.269
35225W        W99169  24.721  37.975  13.431
35226W        W99170  10.831  27.687  11.432
35227W        W99171  41.845   3.362  13.539
35228W        W99172  41.364   1.346  11.476
35229W        W99173   3.910  17.605  12.456
35230W        W99174  24.131  35.995   0.310
35231W        W99175   2.965  14.129   1.412
35232W        W99176  28.489   3.776   1.362
35233W        W99177   4.376   9.377  13.873
35234W        W99178  32.124  12.118   3.847
35235W        W99179  39.961   3.870  12.896
35236W        W99180  31.090  30.127  11.412
35237W        W99181  13.132  30.948   0.437
35238W        W99182   9.153  38.506   1.764
35239W        W99183  38.439  43.356  12.451
35240W        W99184   2.729  11.829   2.350
35241W        W99185  20.147  42.462   2.862
35242W        W99186  13.639  28.145  12.038
35243W        W99187  41.319  10.333   2.769
35244W        W99188  30.655  18.778   3.718
35245W        W99189   3.845  32.975   4.659
35246W        W99190  14.120  26.526   2.208
35247W        W99191  17.666  42.470   3.827
35248W        W99192  24.098  32.578   3.748
35249W        W99193  22.517  30.509  12.023
35250W        W99194  13.304  29.093  12.897
35251W        W99195  32.525   7.717  13.817
35252W        W99196  36.389  10.313  12.400
35253W        W99197  31.086  10.140  10.976
35254W        W99198  43.921  26.186   0.842
35255W        W99199  39.509   9.235  12.009
35256W        W99200  23.515  25.998  14.925
35257W        W99201  38.975  31.095  10.906
35258W        W99202  15.182  27.592   4.161
35259W        W99203  19.715  31.416   0.773
35260W        W99204  40.906  14.787   1.305
35261W        W99205   7.340  20.650  11.039
35262W        W99206   1.743  28.463   0.354
35263W        W99207  16.781  26.546  11.106
35264W        W99208  23.664  24.002  14.836
35265W        W99209  10.296  38.052  10.898
35266W        W99210  23.521   9.709  14.030
35267W        W99211  35.862   1.446   2.354
35268W        W99212  43.795  19.125  11.564
35269W        W99213  11.150   4.791  14.474
35270W        W99214  18.237  35.034  13.925
35271W        W99215  14.277  27.629  14.282
35272W        W99216  28.594  30.118  11.009
35273W        W99217  19.690  23.139   1.780
35274W        W99218   8.780  31.973   3.208
35275W        W99219  18.703  40.919   1.319
35276W        W99220  17.169   7.286  10.515
35277W        W99221  39.869  37.867  14.403
35278W        W99222  29.153  10.669  11.073
35279W        W99223  16.164  25.035  13.034
35280W        W99224  27.079  17.785  12.045
35281W        W99225  22.553  20.757   0.476
35282W        W99226  26.568  34.019   4.251
35283W        W99227  33.010  44.377  10.443
35284W        W99228  26.045  42.923   4.249
35285W        W99229  12.301  44.904  14.978
35286W        W99230   9.746   9.847  12.952
35287W        W99231  14.675  29.932  10.574
35288W        W99232   7.840  33.940   1.744
35289W        W99233  13.714   3.722   0.854
35290W        W99234  34.897   6.854   3.666
35291W        W99235  15.660  31.402  14.834
35292W        W99236   9.242  35.025  12.386
35293W        W99237  15.667  36.871  11.001
35294W        W99238  34.945   7.259  13.920
35295W        W99239  44.493   0.273   4.829
35296W        W99240  31.466   1.758   4.733
35297W        W99241  33.921  22.121  12.406
35298W        W99242  25.079  24.516   1.900
35299W        W99243   8.364  21.104  10.545
35300W        W99244  21.618  36.446  14.831
35301W        W99245  42.809  22.714   1.703
35302W        W99246  37.973  44.882  12.542
35303W        W99247  22.610   1.934   3.241
35304W        W99248  41.343  32.396  14.811
35305W        W99249  15.657  14.097   4.230
35306W        W99250  29.083  37.851  12.341
35307W        W99251  43.974  22.236  12.526
35308W        W99252   2.795  23.189   0.901
35309W        W99253  17.709  14.098  14.444
35310W        W99254   9.852  40.484   1.798
35311W        W99255  27.996  12.274   3.835
35312W        W99256  14.268  37.465   2.183
35313W        W99257   8.713  35.095  13.020
35314W        W99258  13.753   0.297   2.285
35315W        W99259  17.108  17.156   4.172
35316W        W99260  12.735   2.819  12.373
35317W        W99261  17.081   6.775   4.169
35318W        W99262  12.845   1.312  13.855
35319W        W99263  42.926  14.197   3.778
35320W        W99264  36.859  13.699  14.952
35321W        W99265   2.361   7.376  12.034
35322W        W99266  44.854  16.596   1.718
35323W        W99267  35.430  20.629   1.742
35324W        W99268  20.117  19.067  14.466
35325W        W99269  21.727  13.144  12.497
35326W        W99270  17.731  17.648  13.442
35327W        W99271  10.322  31.034  11.983
35328W        W99272  19.614   5.298   2.672
35329W        W99273   8.201  12.754   1.702
35330W        W99274  27.463  27.976   4.767
35331W        W99275  25.986  43.844  12.941
35332W        W99276  40.833  26.069  14.336
35333W        W99277   5.917  37.401   1.376
35334W        W99278  16.766  11.685  12.858
35335W        W99279  32.634   8.896  10.541
35336W        W99280  12.283  31.469   3.282
35337W        W99281  42.986  32.613   0.871
35338W        W99282  28.457   6.703   4.291
35339W        W99283  26.951   7.797  13.849
35340W        W99284  14.215  30.636  14.460
35341W        W99285  25.154  13.319   3.700
35342W        W99286   3.295  27.193   3.633
35343W        W99287  17.783  39.557   0.814
35344W        W99288   0.875  34.969  12.347
35345W        W99289  12.202   9.694  11.083
35346W        W99290  15.699  12.216  14.807
35347W        W99291  31.561  18.246  13.433
35348W        W99292  39.346  33.589   4.128
35349W        W99293  15.212  12.807  13.031
35350W        W99294  20.111  20.151   3.359
35351W        W99295   1.260  17.163   1.274
35352W        W99296  23.026  36.901   0.471
35353W        W99297  28.522  23.717  11.863
35354W        W99298  44.425  39.010  10.621
35355W        W99299  10.845  18.254  14.784
35356W        W99300  34.864  40.378   4.114
35357W        W99301  27.057  19.642   1.782
35358W        W99302   6.902  13.838  14.862
35359W        W99303   8.386  34.957  14.451
35360W        W99304  44.312   6.745   1.386
35361W        W99305   1.411  20.571   1.430
35362W        W99306  44.782  21.677   0.824
35363W        W99307  14.631   9.160  12.431
35364W        W99308  34.979  32.528   2.260
35365W        W99309   7.269  26.644   1.270
35366W        W99310  12.690  31.992   2.322
35367W        W99311  37.875  21.168  13.485
35368W        W99312   7.353  26.135  10.461
35369W        W99313  21.667  43.905  14.819
35370W        W99314  38.498  29.484   3.257
35371W        W99315  20.530   0.379  14.314
35372W        W99316  43.847  21.043  11.062
35373W        W99317  27.077  31.129   2.399
35374W        W99318  18.566  36.990   4.170
35375W        W99319  39.360   6.414   0.809
35376W        W99320  11.775  24.526  13.546
35377W        W99321  42.929   6.288   1.754
35378W        W99322  31.927  18.242  11.519
35379W        W99323  42.311   2.763  12.915
35380W        W99324   3.338   2.780  14.509
35381W        W99325  12.613  17.062   1.221
35382W        W99326  33.885  13.705   3.150
35383W        W99327   6.349  10.359  12.549
35384W        W99328  33.934  28.076  14.350
35385W        W99329  18.070  39.456  14.823
35386W        W99330   9.153  14.248  10.081
35387W        W99331  28.624   8.688   1.714
35388W        W99332  16.267  36.015   2.676
35389W        W99333  37.970  32.627  10.452
35390W        W99334  11.196  18.290   4.750
35391W        W99335  19.551  23.010   2.314
35392W        W99336  37.968   8.797  13.851
35393W        W99337   7.251   5.320   3.234
35394W        W99338  10.873  21.137   1.223
35395W        W99339  16.117  36.486  11.010
35396W        W99340   5.248  43.865   2.836
35397W        W99341  38.886   2.821   4.705
35398W        W99342   3.348  27.987   2.665
35399W        W99343  33.039  11.706   4.777
35400W        W99344   2.798  11.179   0.745
35401W        W99345  12.750  32.601   2.307
35402W        W99346  44.830  34.874  13.336
35403W        W99347  39.836   4.269  12.931
35404W        W99348  13.211   7.275   2.180
35405W        W99349  25.088  41.311  11.533
35406W        W99350   3.435  30.024   1.444
35407W        W99351   0.802  43.277   0.438
35408W        W99352   7.309  11.719  11.391
35409W        W99353  19.631  19.734   3.301
35410W        W99354  30.998   7.222  12.909
35411W        W99355  11.130  30.104   4.310
35412W        W99356  15.131   3.932  11.522
35413W        W99357  14.779   0.980  11.596
35414W        W99358  15.135  15.756  10.633
35415W        W99359  31.093  16.264  12.534
35416W        W99360  19.096  11.285  12.431
35417W        W99361   1.273   3.716  13.375
35418W        W99362  41.503  15.204   1.863
35419W        W99363  37.870  36.374  11.864
35420W        W99364   6.744  23.498   1.695
35421W        W99365  22.027  28.661  10.507
35422W        W99366  22.710  44.361   2.318
35423W        W99367  30.994  38.361  11.974
35424W        W99368  26.023   8.780   4.332
35425W        W99369  21.018  42.447   0.247
35426W        W99370  13.207  30.149   1.406
35427W        W99371  15.711  18.586   1.306
35428W        W99372  14.151  19.661   0.740
35429W        W99373  35.434  23.682   2.823
35430W        W99374  32.406  23.176   1.392
35431W        W99375   0.466  19.172  14.872
35432W        W99376  33.440  10.744  13.801
35433W        W99377   3.260   4.427  10.899
35434W        W99378  42.892  30.581   2.739
35435W        W99379  12.832   2.746  14.443
35436W        W99380  40.898  21.225   2.722
35437W        W99381  43.873   2.831   0.890
35438W        W99382   5.399  23.663   0.371
35439W        W99383  38.052   0.424  12.950
35440W        W99384  31.506  40.363   2.825
35441W        W99385  27.593   7.723   2.180
35442W        W99386  12.321  20.129  11.080
35443W        W99387  28.488  20.748   1.916
35444W        W99388  33.956  30.534   2.727
35445W        W99389  15.152  13.715   0.483
35446W        W99390  37.492   3.331  12.000
35447W        W99391   3.720   2.403  14.382
35448W        W99392  29.609  42.966   1.763
35449W        W99393  11.784  25.050   3.293
35450W        W99394  38.430  22.550   1.812
35451W        W99395   8.372  26.989   2.211
35452W        W99396  43.858  10.336   0.876
35453W        W99397  30.442  22.710   4.835
35454W        W99398  34.591  42.921  11.112
35455W        W99399  31.931  26.457   1.875
35456W        W99400  25.533  11.327  13.399
35457W        W99401  32.469  22.119   1.931
35458W        W99402  26.041  27.995  10.489
35459W        W99403  11.277  22.139   2.843
35460W        W99404  13.777   4.430   3.162
35461W        W99405  33.478   7.417   1.246
35462W        W99406  21.059  43.895   2.402
35463W        W99407  34.990  32.528  14.899
35464W        W99408  12.312  40.469  13.990
35465W        W99409  42.391  10.289   4.282
35466W        W99410  13.217  37.056   3.835
35467W        W99411  23.076  18.206   1.403
35468W        W99412  27.987  41.866  11.452
35469W        W99413  10.680  29.173  11.463
35470W        W99414  26.184  31.125   0.950
35471W        W99415  36.412   8.760   3.214
35472W        W99416  14.223  25.032  14.276
35473W        W99417  38.876  38.930  10.593
35474W        W99418  18.731  26.122   4.638
35475W        W99419  37.888  16.202   2.290
35476W        W99420  30.932  25.127   1.427
35477W        W99421  36.937  12.777  14.426
35478W        W99422  29.595  32.050  10.107
35479W        W99423  40.547  21.615  12.363
35480W        W99424  15.629  25.098   9.999
35481W        W99425  12.680  25.708  11.902
35482W        W99426  26.574   2.398  10.902
35483W        W99427  22.113   3.933  11.479
35484W        W99428  16.812  39.965   3.346
35485W        W99429  34.420  15.148   1.302
35486W        W99430  12.347  40.931   1.747
35487W        W99431  10.364  39.026  11.883
35488W        W99432  22.738  25.681   9.953
35489W        W99433   9.173  21.156   4.719
35490W        W99434   7.332  11.645   1.215
35491W        W99435  28.982  23.113   4.265
35492W        W99436  25.579   1.786  13.355
35493W        W99437  29.985  23.521   4.684
35494W        W99438   1.272   3.783   3.655
35495W        W99439  13.259  38.528   0.257
35496W        W99440  16.105  30.647  14.835
35497W        W99441   7.713   7.261   0.257
35498W        W99442  25.467  21.116  10.405
35499W        W99443  31.481  10.355  14.489
35500W        W99444   0.817  14.106   2.698
35501W        W99445  33.612   4.349   3.311
35502W        W99446  36.429  28.137   2.717
35503W        W99447   2.298   7.807  12.553
35504W        W99448  20.153  28.619  12.354
35505W        W99449  44.378   7.877  14.968
35506W        W99450  36.433  12.692   0.358
35507W        W99451  22.250   6.378   2.310
35508W        W99452  14.630   0.256  13.930
35509W        W99453  13.122   9.788  12.369
35510W        W99454  43.909  23.632  14.827
35511W        W99455  40.980  21.073  14.900
35512W        W99456  35.394  13.113  14.483
35513W        W99457  40.500  29.146  13.978
35514W        W99458  39.382  21.591  13.902
35515W        W99459  14.664  29.668  10.452
35516W        W99460   3.806   4.776   2.316
35517W        W99461  13.133   4.857  11.565
35518W        W99462  30.911  16.080   3.323
35519W        W99463  21.078  41.295  11.549
35520W        W99464  18.216   1.831   0.255
35521W        W99465  26.460  21.129   4.784
35522W        W99466  20.108   5.852   1.360
35523W        W99467  36.913  36.884   2.384
35524W        W99468  14.130  21.112   1.398
35525W        W99469   9.870  20.711  14.434
35526W        W99470   6.904  43.290   0.280
35527W        W99471  22.177  16.132  13.369
35528W        W99472   6.243  17.655   4.628
35529W        W99473  20.728  19.218   0.793
35530W        W99474  17.666   8.815  13.890
35531W        W99475  35.531  31.454   0.408
35532W        W99476  17.627  27.150   0.314
35533W        W99477  35.568  40.454   2.793
35534W        W99478  20.199  41.880   2.666
35535W        W99479  11.347  42.922   4.685
35536W        W99480  40.500   5.779  11.110
35537W        W99481  44.442  11.261   1.272
35538W        W99482  20.740  12.332   3.247
35539W        W99483  20.258   2.470  10.983
35540W        W99484  25.988   0.752   4.306
35541W        W99485  28.038   1.920  13.929
35542W        W99486  20.765   5.374  14.869
35543W        W99487  12.778  11.837   0.919
35544W        W99488  43.939   2.349  11.511
35545W        W99489  43.435  22.676  12.929
35546W        W99490   4.300  14.328   1.843
35547W        W99491   8.857   7.405   0.742
35548W        W99492  27.135  30.158  12.343
35549W        W99493  10.872  31.105  11.987
35550W        W99494  32.952  35.098  11.988
35551W        W99495   0.420  16.107   3.796
35552W        W99496  42.414  27.170  12.079
35553W        W99497  13.115  17.644   4.284
35554W        W99498  22.135  32.020  12.964
35555W        W99499   6.189  10.835   2.183
35556W        W99500  30.069   6.367  14.789
35557W        W99501   8.322  25.704   2.226
35558W        W99502  38.932  34.010  13.406
35559W        W99503  24.639   9.852   4.702
35560W        W99504  17.262   5.920  12.056
35561W        W99505  24.001   4.404  11.899
35562W        W99506   0.909  25.988   4.306
35563W        W99507  19.098  42.434  12.052
35564W        W99508  16.145  37.378   4.652
35565W        W99509  24.595  34.404  12.523
35566W        W99510   7.247   6.841   3.235
35567W        W99511  28.597  16.198   5.774
35568W        W99512  34.020  32.408   4.197
35569W        W99513  20.166  28.485  14.319
35570W        W99514  10.265  20.767   4.664
35571W        W99515   2.422  20.666  10.910
35572W        W99516   2.426  37.885  14.473
35573W        W99517  10.370  23.704   9.985
35574W        W99518  31.460   4.882   1.442
35575W        W99519  43.904   3.921  13.326
35576W        W99520  22.075  17.738   2.342
35577W        W99521  31.134  39.429  12.047
35578W        W99522  12.851  22.167   1.852
35579W        W99523  19.270  16.200  12.845
35580W        W99524  14.130  29.091   1.752
35581W        W99525  35.870  40.036  12.045
35582W        W99526   9.717   1.959  14.929
35583W        W99527  11.865  38.339  12.010
35584W        W99528  13.621  24.553   4.121
35585W        W99529   1.949  35.507   2.200
35586W        W99530   1.843  31.450  14.280
35587W        W99531  40.803   5.839   1.920
35588W        W99532  28.527  14.776   0.929
35589W        W99533  13.677   8.324  10.591
35590W        W99534  44.893  19.043   3.705
35591W        W99535   1.385  13.794   0.382
35592W        W99536  19.658  42.329   4.703
35593W        W99537  17.116  35.535  13.935
35594W        W99538  23.628  42.924   2.693
35595W        W99539  27.565  25.615  12.852
35596W        W99540   7.250  12.118  13.439
35597W        W99541   5.802   5.267  10.891
35598W        W99542  15.822  16.208  13.827
35599W        W99543  19.149  32.094   0.483
35600W        W99544  23.608   6.806  11.873
35601W        W99545  33.078  11.138   4.675
35602W        W99546   2.315  36.538  10.950
35603W        W99547  20.732  18.075   4.296
35604W        W99548   6.415  25.965   1.233
35605W        W99549  40.509   7.284  12.034
35606W        W99550  15.811  10.694   1.831
35607W        W99551  17.730  32.974  11.088
35608W        W99552  37.070  39.966   1.243
35609W        W99553  25.054  27.140   2.848
35610W        W99554  13.746  29.486  14.019
35611W        W99555   5.834  21.581   2.357
35612W        W99556  18.262  30.986  11.537
35613W        W99557  10.198  28.151   3.861
35614W        W99558  32.911  31.909   3.849
35615W        W99559   4.838  10.140  13.367
35616W        W99560  12.289  23.492  14.278
35617W        W99561  24.129  32.912  13.412
35618W        W99562   6.778  10.161   2.764
35619W        W99563  17.688  38.511  11.553
35620W        W99564  28.181  28.519  11.047
35621W        W99565  22.227   2.863  14.287
35622W        W99566   6.760  11.793  10.638
35623W        W99567  44.404  22.700  14.966
35624W        W99568  40.846   0.308  13.857
35625W        W99569  11.693  24.182   0.916
35626W        W99570  14.693   7.693   3.670
35627W        W99571  20.209  23.677  11.909
35628W        W99572  43.453  34.432   1.807
35629W        W99573   9.881  30.494   0.308
35630W        W99574  21.198  32.120   5.239
35631W        W99575  42.910   2.840   1.286
35632W        W99576  31.994  31.594   1.270
35633W        W99577  26.042  24.615  10.604
35634W        W99578  14.185   7.854  12.460
35635W        W99579   2.440   3.741  14.314
35636W        W99580  23.536  15.679   3.310
35637W        W99581  26.080  20.533   1.298
35638W        W99582  41.395  37.438  11.525
35639W        W99583   1.399   2.414   4.630
35640W        W99584  22.622  15.226   3.799
35641W        W99585  13.659  18.271  14.808
35642W        W99586   9.704  25.548   1.249
35643W        W99587  32.139  13.612  12.897
35644W        W99588  34.942  24.085  13.394
35645W        W99589   5.797  32.560  12.931
35646W        W99590   5.391  27.085   2.719
35647W        W99591  33.923  28.603   1.351
35648W        W99592   4.886   1.757   2.286
35649W        W99593  18.279   9.881   4.698
35650W        W99594  33.093  11.253  12.875
35651W        W99595  14.095   2.315   1.292
35652W        W99596  15.684  26.580   1.826
35653W        W99597  22.681  17.182   4.182
35654W        W99598   5.249   9.176   3.325
35655W        W99599  32.052  35.421  14.413
35656W        W99600  43.774  38.954  11.607
35657W        W99601   0.476  41.445  11.906
35658W        W99602  34.474  18.741  14.902
35659W        W99603  41.855  27.631  13.537
35660W        W99604  37.959  40.480   0.801
35661W        W99605  18.193  30.017  10.579
35662W        W99606  18.163  16.567  12.361
35663W        W99607  29.465  14.811   0.245
35664W        W99608  32.499   7.283  11.982
35665W        W99609  22.560  24.162  12.403
35666W        W99610  36.929  18.180   2.705
35667W        W99611   7.363   5.397   4.151
35668W        W99612  36.494  26.121  14.780
35669W        W99613  13.292  27.146   4.767
35670W        W99614  21.087  44.931   4.290
35671W        W99615  44.848  43.498  14.337
35672W        W99616  41.468  37.839   4.181
35673W        W99617  15.124  23.700  13.388
35674W        W99618   8.321  13.741  14.436
35675W        W99619  33.622  36.592  14.419
35676W        W99620  10.808  20.164  12.063
35677W        W99621  13.797  38.897   1.308
35678W        W99622  12.158   1.390  14.760
35679W        W99623   5.742  39.016   0.254
35680W        W99624   2.352   4.876   4.805
35681W        W99625   5.827  34.944   4.148
35682W        W99626  28.560  34.063   1.708
35683W        W99627  33.964  43.769  12.853
35684W        W99628  29.087  28.593   2.680
35685W        W99629  18.554  29.582   9.968
35686W        W99630   6.236  15.307   0.826
35687W        W99631  11.715   5.885   2.872
35688W        W99632  22.036  19.061  10.953
35689W        W99633  39.543   6.189  10.123
35690W        W99634   2.346  22.201   0.819
35691W        W99635   7.770  43.353  14.968
35692W        W99636  26.050  39.935  10.077
35693W        W99637   9.683  17.766  11.405
35694W        W99638   3.360  35.573  12.940
35695W        W99639  13.637  42.482   3.790
35696W        W99640  16.592   0.763  13.393
35697W        W99641  39.949  20.178  12.015
35698W        W99642  32.886  29.589  11.389
35699W        W99643  36.975  40.371   2.703
35700W        W99644  26.042  24.676  13.401
35701W        W99645  19.639  37.508  14.823
35702W        W99646   4.786   7.174   2.798
35703W        W99647  10.701   0.978   1.246
35704W        W99648  41.825  30.979  12.975
35705W        W99649  42.825   2.385   3.777
35706W        W99650  37.975  26.138  12.348
35707W        W99651   4.421  31.535   3.758
35708W        W99652  33.441  20.272   4.155
35709W        W99653  22.025   2.270   2.395
35710W        W99654  29.597  29.602  13.052
35711W        W99655   8.822  15.277   3.693
35712W        W99656  33.020  19.656   4.760
35713W        W99657   2.425   1.270  14.293
35714W        W99658  28.532  15.654   5.199
35715W        W99659  18.722  22.530   2.794
35716W        W99660  14.670  13.176   3.217
35717W        W99661  35.371  26.474  14.919
35718W        W99662  34.880  21.226  11.479
35719W        W99663   4.773  33.578   5.104
35720W        W99664  22.714   4.857  12.059
35721W        W99665  16.294  33.537   2.273
35722W        W99666  36.409  12.322   0.349
35723W        W99667  13.261   2.861   5.106
35724W        W99668  40.908  26.122   3.801
35725W        W99669  43.304  19.645   3.267
35726W        W99670  17.609  14.230  12.373
35727W        W99671   4.267  29.103  11.974
35728W        W99672  24.057  16.604   0.785
35729W        W99673   8.733   0.872   0.883
35730W        W99674  24.714  32.963  10.908
35731W        W99675  33.615  32.964  12.834
35732W        W99676   1.741  29.016  10.562
35733W        W99677  28.553  14.147  14.999
35734W        W99678  38.926  18.577   4.793
35735W        W99679  13.823  36.501  12.004
35736W        W99680  40.475  10.865  13.406
35737W        W99681  33.429  38.874  10.530
35738W        W99682  14.232   6.725   0.277
35739W        W99683  43.408  41.307  11.537
35740W        W99684   4.819   2.809  14.758
35741W        W99685  28.456  41.971  13.310
35742W        W99686  25.127   3.456  14.778
35743W        W99687  21.662  37.452   3.201
35744W        W99688  41.791  40.810   1.707
35745W        W99689  29.668  21.145  11.429
35746W        W99690  40.371  12.839  14.434
35747W        W99691   8.889  38.473  12.540
35748W        W99692   4.414  37.372  14.394
35749W        W99693  28.036  37.479   3.364
35750W        W99694  43.011  44.821   1.857
35751W        W99695  43.423  31.936  13.522
35752W        W99696  27.619  23.665   3.151
35753W        W99697   4.450  38.560  12.982
35754W        W99698  21.055   3.239   3.371
35755W        W99699  35.040  32.074  10.986
35756W        W99700  33.130   6.844  11.546
35757W        W99701  23.553  18.706  11.889
35758W        W99702  13.261  41.987   4.314
35759W        W99703  38.330  44.891   4.756
35760W        W99704  26.983  44.417  13.862
35761W        W99705  33.599  14.750  11.886
35762W        W99706  10.830  42.993   2.325
35763W        W99707   5.209  39.322  14.462
35764W        W99708   8.781  21.234   5.210
35765W        W99709  12.828  18.625   3.780
35766W        W99710  40.369  16.649  12.501
35767W        W99711  25.022  22.707  12.532
35768W        W99712  12.691  33.901   3.199
35769W        W99713  14.731  23.498   2.338
35770W        W99714  33.065  15.243   0.339
35771W        W99715  32.927  12.307   4.320
35772W        W99716  13.137  34.029  14.806
35773W        W99717  20.233  40.306  12.373
35774W        W99718  13.749  37.913  13.867
35775W        W99719  42.346   4.324  12.357
35776W        W99720  20.163  21.734   0.471
35777W        W99721  24.698   9.230   4.764
35778W        W99722  30.498  39.952  12.568
35779W        W99723  31.034  10.762  12.413
35780W        W99724  37.399  26.617  11.405
35781W        W99725  38.562   5.398   4.302
35782W        W99726   7.673   2.957   1.239
35783W        W99727   2.887  39.916   1.750
35784W        W99728  28.535  26.042  12.425
35785W        W99729   7.243  35.867  10.488
35786W        W99730   1.290   1.386   4.262
35787W        W99731  23.010  27.618  12.002
35788W        W99732  27.565  40.482   2.802
35789W        W99733  41.995  28.477  11.532
35790W        W99734  25.579  30.539   5.103
35791W        W99735  30.018  24.567  11.552
35792W        W99736  38.898   7.251   0.263
35793W        W99737  11.727   8.273   1.366
35794W        W99738  21.125  15.806  12.908
35795W        W99739   4.264   1.337   4.244
35796W        W99740  36.454  21.652   2.712
35797W        W99741  33.565  41.891  13.313
35798W        W99742   8.680   1.777  12.500
35799W        W99743  27.080   1.314  11.436
35800W        W99744  26.040   1.940  10.960
35801W        W99745   6.890  39.484  13.918
35802W        W99746   6.230  23.186   4.750
35803W        W99747  15.623   2.408  13.961
35804W        W99748  17.302  43.393  12.971
35805W        W99749  27.106   4.424   4.618
35806W        W99750   4.839  33.901   3.852
35807W        W99751  22.647  37.476  13.960
35808W        W99752  31.112  30.047   0.957
35809W        W99753  13.136  37.011   0.806
35810W        W99754  28.638  19.187   5.299
35811W        W99755  39.419  16.110  13.995
35812W        W99756  13.174  34.460  14.422
35813W        W99757  17.184  13.273  13.379
35814W        W99758  17.689  13.125  10.964
35815W        W99759  23.172  23.049   2.260
35816W        W99760   7.807  35.931   1.931
35817W        W99761  34.111  32.903   0.750
35818W        W99762  12.688  38.837  11.427
35819W        W99763  29.667  42.334   2.821
35820W        W99764   1.941   4.443   0.474
35821W        W99765  30.922  36.920   0.793
35822W        W99766  27.024  16.273   2.722
35823W        W99767   5.917   3.809   1.272
35824W        W99768  34.044  41.492   3.254
35825W        W99769  37.025   8.220  10.645
35826W        W99770   6.788  23.684   2.860
35827W        W99771  23.537  39.399  12.913
35828W        W99772  36.044   9.830   3.318
35829W        W99773   0.427  25.491  11.941
35830W        W99774  12.799  20.187   0.772
35831W        W99775   3.359  27.189  11.429
35832W        W99776  29.934   5.308  12.454
35833W        W99777  21.754  19.050   2.785
35834W        W99778  28.000  42.425   3.155
35835W        W99779  11.647  38.475   4.634
35836W        W99780  30.097   0.944  13.882
35837W        W99781  26.208   8.787   1.808
35838W        W99782  28.114  25.490   3.332
35839W        W99783   1.322   5.762   1.309
35840W        W99784  36.348  20.535   1.296
35841W        W99785  37.446  20.057   0.787
35842W        W99786  18.626  33.111  11.583
35843W        W99787  11.265  43.867  10.951
35844W        W99788  44.298   8.308   4.680
35845W        W99789  26.594  37.981   3.320
35846W        W99790  11.851  20.647   0.849
35847W        W99791  16.206  29.567   1.787
35848W        W99792   5.345  12.299   2.183
35849W        W99793  34.426  44.297   4.714
35850W        W99794  27.070  17.571  14.971
35851W        W99795   8.205  44.766  13.941
35852W        W99796  29.568   5.198  10.510
35853W        W99797  18.053  17.616   3.188
35854W        W99798  26.075  26.972   0.352
35855W        W99799  20.121  18.777  13.444
35856W        W99800  26.995   9.255   3.753
35857W        W99801   7.734  16.307  13.344
35858W        W99802  21.560  26.519   0.964
35859W        W99803  34.100  18.612   0.265
35860W        W99804  20.256   3.387  14.924
35861W        W99805  35.998   5.197  10.012
35862W        W99806  33.481  14.790   4.313
35863W        W99807  44.908  16.308   4.783
35864W        W99808  25.665  28.469  11.039
35865W        W99809  25.528  40.515  12.929
35866W        W99810  27.105   1.384  10.904
35867W        W99811  37.000  16.118  12.554
35868W        W99812  19.123   1.975  14.410
35869W        W99813   3.917  36.990  10.897
35870W        W99814  18.708  12.685  10.614
35871W        W99815  42.010  30.089  11.018
35872W        W99816  18.723  14.327   4.729
35873W        W99817  15.658   8.677   1.286
35874W        W99818   4.731  18.608  13.946
35875W        W99819  41.793  42.355  10.479
35876W        W99820  43.401  43.371  14.779
35877W        W99821  21.549  21.103  12.872
35878W        W99822  14.798  44.436  14.452
35879W        W99823  11.181  16.281  14.410
35880W        W99824  34.079  21.715  10.516
35881W        W99825  19.134  31.047   2.831
35882W        W99826   0.942   3.290  13.435
35883W        W99827  10.650  30.064  12.852
35884W        W99828  27.026  16.785   2.758
35885W        W99829   3.825  41.310  11.075
35886W        W99830  26.541   6.914   1.385
35887W        W99831   3.249  40.436  10.474
35888W        W99832   5.749  38.970  13.341
35889W        W99833  17.270   1.417   2.696
35890W        W99834  40.370  22.604   1.362
35891W        W99835  42.517  13.632   3.337
35892W        W99836   0.490  25.689   2.871
35893W        W99837  38.060  18.291   4.147
35894W        W99838  39.820  35.956  11.399
35895W        W99839  10.326  32.613   4.712
35896W        W99840   5.879  20.702  10.916
35897W        W99841  17.615  15.614   1.374
35898W        W99842   9.296  41.393   0.961
35899W        W99843   7.345  35.574   2.198
35900W        W99844  37.441  14.254  13.002
35901W        W99845   6.714  43.495   2.770
35902W        W99846   6.743   0.796  13.424
35903W        W99847  40.460  26.535  13.900
35904W        W99848  26.035   6.332  11.003
35905W        W99849  29.164   7.211   4.327
35906W        W99850  14.152  44.879  12.049
35907W        W99851  15.682  30.510  11.580
35908W        W99852  22.552   1.924  14.994
35909W        W99853   4.381  23.530   2.356
35910W        W99854  31.556  41.298   0.407
35911W        W99855   9.254   8.326  13.459
35912W        W99856  31.540  38.916  12.014
35913W        W99857  19.723  35.497  13.824
35914W        W99858  32.528  13.347  13.917
35915W        W99859   8.663  13.798  11.459
35916W        W99860  42.414  40.876  13.024
35917W        W99861   1.784  41.503  10.521
35918W        W99862  33.974  27.025  12.832
35919W        W99863  44.454  13.143   4.245
35920W        W99864  12.776  11.690  11.965
35921W        W99865   8.809   3.907  14.330
35922W        W99866  28.009  34.588   0.898
35923W        W99867  27.562  22.011   0.332
35924W        W99868   7.829   9.224  10.640
35925W        W99869  37.855   0.461   0.352
35926W        W99870   0.258  15.158   2.410
35927W        W99871  29.037  18.102  11.497
35928W        W99872  14.121  41.885   3.262
35929W        W99873  31.434  32.453  13.908
35930W        W99874   3.306   9.352   0.405
35931W        W99875   2.962   2.296  12.836
35932W        W99876   4.233  14.750  14.827
35933W        W99877   7.406  11.865  10.412
35934W        W99878  33.486   4.799   3.818
35935W        W99879  23.612  14.324  12.351
35936W        W99880  38.848   9.780   4.611
35937W        W99881  18.739   9.876  13.941
35938W        W99882  38.839  43.420   3.635
35939W        W99883  14.241   5.373  10.903
35940W        W99884  18.261  31.639  14.825
35941W        W99885  11.240  43.311  10.584
35942W        W99886  13.293  10.275  10.084
35943W        W99887  16.789  23.692  13.385
35944W        W99888   1.291  25.088   2.269
35945W        W99889  43.817  38.489   4.292
35946W        W99890   4.240  27.065  11.945
35947W        W99891  16.164  12.824  14.359
35948W        W99892  14.234  32.487   5.567
35949W        W99893  19.653   6.905   1.839
35950W        W99894  12.704   2.280   5.103
35951W        W99895   8.322  25.055  13.867
35952W        W99896   2.441  27.060  10.599
35953W        W99897  37.389  18.563   2.880
35954W        W99898  10.169  12.824   3.692
35955W        W99899  11.745   2.795  13.019
35956W        W99900  36.958   4.931  11.539
35957W        W99901  12.131  41.356  13.483
35958W        W99902  25.128  27.002  14.998
35959W        W99903  13.681  28.448  13.050
35960W        W99904  33.074  42.020   3.833
35961W        W99905   4.704  23.094   4.116
35962W        W99906   0.473  25.518  12.933
35963W        W99907  35.860  14.756   4.715
35964W        W99908  35.502   8.235  11.552
35965W        W99909  44.825  39.506  13.021
35966W        W99910  43.492  36.053   4.794
35967W        W99911  32.516  11.631   4.149
35968W        W99912   3.801  36.981  11.917
35969W        W99913  26.060  15.758   0.375
35970W        W99914  11.340   7.338  14.352
35971W        W99915   6.183  33.553  12.533
35972W        W99916  28.027  13.261  12.048
35973W        W99917  13.656  33.421  14.368
35974W        W99918  35.442   1.752   4.304
35975W        W99919  16.238  35.475   9.507
35976W        W99920   0.371  19.646  10.492
35977W        W99921  14.723   7.707   0.336
35978W        W99922  40.313  15.777  13.927
35979W        W99923  28.002  34.456  11.039
35980W        W99924  29.512  24.586  12.501
35981W        W99925  18.667  14.630  11.960
35982W        W99926  13.758  39.536  11.452
35983W        W99927  23.223  32.502  10.479
35984W        W99928  35.513  13.712  10.459
35985W        W99929   7.221  15.642  11.034
35986W        W99930   4.867  36.053   2.388
35987W        W99931  26.513  29.485  11.906
35988W        W99932  44.913  29.511  14.378
35989W        W99933  36.039   8.252  12.048
35990W        W99934  37.448  23.560  13.456
35991W        W99935  38.542   9.161  11.480
35992W        W99936  12.206  32.062  11.486
35993W        W99937  35.961  16.135   4.274
35994W        W99938  13.753  37.028   2.740
35995W        W99939  29.161  40.412   3.164
35996W        W99940  40.499   6.275   2.721
35997W        W99941   2.382  13.241  13.858
35998W        W99942  13.629  21.227   2.833
35999W        W99943  37.344  33.050  13.525
36000W        W99944   1.920  37.923   1.355
36001W        W99945  12.340  17.644   0.386
36002W        W99946  41.977  19.210   4.246
36003W        W99947  44.391  12.175  11.539
36004W        W99948  30.482  24.003  13.813
36005W        W99949  30.529  22.210  12.967
36006W        W99950  14.822  23.717   1.433
36007W        W99951  40.996  10.347  13.891
36008W        W99952  40.324  10.809   4.773
36009W        W99953  31.587  32.480  11.886
36010W        W99954  38.003  30.457  11.534
36011W        W99955  33.987   3.734   2.276
36012W        W99956  25.508  28.508   2.315
36013W        W99957  44.399  13.114  13.057
36014W        W99958  37.362  28.112   0.912
36015W        W99959   6.885  22.109  12.040
36016W        W99960   3.445  10.766  13.455
36017W        W99961   4.320  23.499   1.446
36018W        W99962  21.161  14.095  14.986
36019W        W99963  17.163  36.411   4.792
36020W        W99964  18.716  16.647   0.351
36021W        W99965  41.946   0.421  11.430
36022W        W99966  16.597  27.547   2.895
36023W        W99967   2.300   3.845   4.610
36024W        W99968  35.974  40.493  10.522
36025W        W99969  29.041  33.478   4.230
36026W        W99970   1.817  31.628  11.399
36027W        W99971  16.290   4.446  10.630
36028W        W99972   4.314  35.009  12.024
36029W        W99973   7.264  25.186  14.354
36030W        W99974  36.012  11.731   2.851
36031W        W99975  26.097  21.076   4.835
36032W        W99976  41.385  43.490  12.009
36033W        W99977  43.512  31.139   2.811
36034W        W99978  10.334  10.724  14.856
36035W        W99979   2.862  37.010  14.908
36036W        W99980  15.304  36.927   1.380
36037W        W99981  37.461  43.817   0.878
36038W        W99982  17.133  41.532   4.761
36039W        W99983  27.610  31.564  10.934
36040W        W99984  40.498  40.490   0.397
36041W        W99985  34.907  36.357   3.684
36042W        W99986   4.917  44.808   4.723
36043W        W99987  19.215  40.464   3.743
36044W        W99988  11.789  15.818  13.813
36045W        W99989   4.332  37.558   4.206
36046W        W99990  22.209   2.254  12.460
36047W        W99991   8.878  15.629   3.297
36048W        W99992   5.895  37.472   4.601
36049W        W99993  24.529  33.990  14.360
36050W        W99994  27.532  37.411  14.343
36051W        W99995  23.551   3.409   4.160
36052W        W99996  43.893   9.305   2.191
36053W        W99997  33.954   8.754  10.589
36054W        W99998   5.429  38.438   3.736
36055W        W99999  25.602   5.725  12.952
36056W        W    0  41.871  30.041   4.322
36057W        W    1  27.944  36.062   0.777
36058W        W    2  39.046  19.057   4.814
36059W        W    3  11.728   5.704   3.314
36060W        W    4  35.954  23.191   0.804
36061W        W    5  40.849  18.771   3.376
36062W        W    6  36.969  35.051  10.512
36063W        W    7  26.558  29.075  10.470
36064W        W    8  35.589   2.303  12.872
36065W        W    9  36.024  37.340   0.827
36066W        W   10  19.642  14.728  13.955
36067W        W   11  12.257   4.933   4.702
36068W        W   12   2.770  14.686   2.317
36069W        W   13  21.139  21.701   4.299
36070W        W   14  17.091  34.422   0.451
36071W        W   15   4.786  27.486   3.748
36072W        W   16  32.138  39.018  12.064
36073W        W   17  29.096  19.072   0.334
36074W        W   18   5.238  24.720  11.987
36075W        W   19  39.929  15.633  12.499
36076W        W   20  28.170  13.241  14.890
36077W        W   21  30.938   2.254   4.667
36078W        W   22  28.000  26.461   4.716
36079W        W   23  27.028  39.348   4.697
36080W        W   24   1.374   5.261  14.890
36081W        W   25  36.926  40.987  12.497
36082W        W   26   4.310  17.260  14.826
36083W        W   27  43.996   0.794  13.536
36084W        W   28  39.440  24.716  12.515
36085W        W   29  22.048   0.972   4.159
36086W        W   30   1.256  35.921   3.696
36087W        W   31  16.620  31.110  12.468
36088W        W   32  36.096  15.594  14.346
36089W        W   33   4.382   7.410   1.820
36090W        W   34  13.725  35.041  14.818
36091W        W   35   0.473   9.854  14.413
36092W        W   36  13.684   9.352  11.418
36093W        W   37  25.170   5.750   1.390
36094W        W   38  28.587   1.310  12.529
36095W        W   39  39.494   1.309   0.366
36096W        W   40  32.899  42.826   1.304
36097W        W   41   7.413  30.066   0.841
36098W        W   42  30.072  32.602   4.728
36099W        W   43  22.140  21.642   3.720
36100W        W   44   3.231  30.165  11.381
36101W        W   45  44.999  28.553  12.391
36102W        W   46  32.634  19.274  13.009
36103W        W   47  33.550  26.634  10.076
36104W        W   48   2.442  18.215   1.882
36105W        W   49  32.138  10.233   5.260
36106W        W   50   4.901  25.089   0.314
36107W        W   51  10.343  17.189   3.647
36108W        W   52  33.948  32.059  12.988
36109W        W   53  35.404   3.287  12.470
36110W        W   54  22.741   8.714  13.991
36111W        W   55  11.755  19.585   0.453
36112W        W   56  43.360  33.015   3.369
36113W        W   57  35.978  15.757   1.900
36114W        W   58  11.299   3.749   1.283
36115W        W   59  14.097  13.672  10.607
36116W        W   60  31.479  40.401  13.500
36117W        W   61  26.114  16.169   1.274
36118W        W   62  37.496   7.699   5.213
36119W        W   63  33.531  17.103  12.539
36120W        W   64  24.482  26.656   0.404
36121W        W   65   9.173  26.548  13.524
36122W        W   66  24.199   6.417  14.464
36123W        W   67  38.494  33.998   0.785
36124W        W   68  28.085   6.183   1.266
36125W        W   69   7.380   4.404   4.741
36126W        W   70  38.538   0.902   2.415
36127W        W   71  14.261   9.826  14.292
36128W        W   72  13.325  36.973   4.808
36129W        W   73  13.788   6.840  10.550
36130W        W   74  17.649  41.878   3.202
36131W        W   75  32.886  35.943   0.784
36132W        W   76  14.169  33.956   1.858
36133W        W   77  26.186   5.843  13.026
36134W        W   78  31.627  30.440  12.494
36135W        W   79  44.351  38.403   0.407
36136W        W   80  40.459  23.703   1.741
36137W        W   81  10.686  35.959   3.727
36138W        W   82  41.340  18.130  14.957
36139W        W   83  43.768   2.820   1.929
36140W        W   84  26.491   8.772  13.061
36141W        W   85  16.729  43.923  11.881
36142W        W   86  12.745  30.987  13.440
36143W        W   87  37.534  19.679  10.463
36144W        W   88   0.793   3.401  14.910
36145W        W   89  38.412   8.822  12.568
36146W        W   90  27.126  38.853  13.485
36147W        W   91  21.060  36.347  12.825
36148W        W   92  26.078  29.130  11.387
36149W        W   93  29.525  22.568  13.337
36150W        W   94  32.935  22.233  12.005
36151W        W   95  43.334  15.596  10.461
36152W        W   96  27.957  44.488  14.304
36153W        W   97   8.312  44.984  10.974
36154W        W   98  42.490  26.980  14.397
36155W        W   99   1.245   2.762   1.876
36156W        W  100  25.088  31.419   1.899
36157W        W  101  29.558  25.135  14.816
36158W        W  102   3.215  31.563  10.509
36159W        W  103  30.445  25.018  12.021
36160W        W  104  21.669   0.827  10.109
36161W        W  105  40.485  38.073   1.322
36162W        W  106  12.729   3.914  10.018
36163W        W  107   2.245  34.519   1.899
36164W        W  108  14.625  25.005  10.031
36165W        W  109  44.906  16.076   3.659
36166W        W  110  39.049  19.670  11.079
36167W        W  111  41.339  35.896  12.059
36168W        W  112  12.654  17.202  12.374
36169W        W  113  12.704   2.407   2.882
36170W        W  114  15.124  42.522  12.001
36171W        W  115   3.303  27.472   1.768
36172W        W  116   1.389  44.353  13.392
36173W        W  117  41.901  37.844   2.869
36174W        W  118  38.833  30.962   4.247
36175W        W  119  13.757  18.604   4.163
36176W        W  120  33.892  39.986  13.389
36177W        W  121   8.163  13.106   4.728
36178W        W  122  23.132  34.927   2.371
36179W        W  123  32.972  32.510  14.284
36180W        W  124   4.343   4.920   5.314
36181W        W  125  23.191   7.801  12.908
36182W        W  126  11.813  21.653   0.312
36183W        W  127  28.559  34.915   2.697
36184W        W  128  33.492  23.023  13.453
36185W        W  129  28.019  30.087   0.921
36186W        W  130   9.716  43.018   0.395
36187W        W  131  18.226  14.185  10.600
36188W        W  132   5.898  41.796   0.838
36189W        W  133  21.057  13.687  10.445
36190W        W  134  25.649  44.978  11.062
36191W        W  135  31.905  11.635  11.475
36192W        W  136  44.836  30.113   0.341
36193W        W  137  30.014  22.095   4.233
36194W        W  138  36.945  22.581  11.592
36195W        W  139  31.969  13.234   4.674
36196W        W  140  41.464  42.289  14.811
36197W        W  141   5.293   0.469  12.994
36198W        W  142  36.022  33.902   0.451
36199W        W  143  20.615  32.525   4.259
36200W        W  144  37.469  13.729  12.429
36201W        W  145  17.125  22.124   1.802
36202W        W  146  13.262  12.622  14.895
36203W        W  147  33.455   1.403  12.950
36204W        W  148   6.899   9.293   4.182
36205W        W  149  22.565  36.904   2.181
36206W        W  150   9.335  11.173  14.401
36207W        W  151   2.754  28.185  12.446
36208W        W  152  41.917   3.338  14.279
36209W        W  153  41.352  12.682  12.429
36210W        W  154  29.616  38.489  14.760
36211W        W  155  29.646   6.235   3.774
36212W        W  156  12.689  34.014   5.189
36213W        W  157  21.241  31.611  10.464
36214W        W  158  39.454  19.249   4.652
36215W        W  159  13.632  42.334   4.146
36216W        W  160  38.336  13.148   3.772
36217W        W  161  36.421  35.042   3.768
36218W        W  162   5.393  43.923  14.929
36219W        W  163  35.958  29.956   2.259
36220W        W  164  13.655  44.875   3.317
36221W        W  165   8.726  25.499   2.708
36222W        W  166   9.842  42.354  11.071
36223W        W  167  40.875  28.168   2.685
36224W        W  168  10.655  36.366   2.363
36225W        W  169   5.741  41.974  14.469
36226W        W  170  22.568  41.336   1.867
36227W        W  171   5.687  15.293  11.913
36228W        W  172  37.852  18.546  12.425
36229W        W  173  28.542   7.823   3.317
36230W        W  174  41.376   3.328   1.409
36231W        W  175   6.827  31.993  10.955
36232W        W  176  22.612   3.237  13.803
36233W        W  177  30.577  34.548  10.428
36234W        W  178   2.397  19.069   4.791
36235W        W  179  15.275  43.996   3.796
36236W        W  180  25.638  44.975  13.921
36237W        W  181  12.843   7.887  14.324
36238W        W  182  21.696   2.268   3.761
36239W        W  183  38.057  31.094   3.336
36240W        W  184  27.020  38.352  12.565
36241W        W  185   3.320  34.375   4.741
36242W        W  186  13.632  13.698  10.599
36243W        W  187  37.924  39.471  12.978
36244W        W  188  36.416  35.508  11.380
36245W        W  189  11.710  10.179  14.878
36246W        W  190  31.009  20.559   4.734
36247W        W  191  43.333   7.789  12.991
36248W        W  192  26.608  13.649   1.229
36249W        W  193  35.406  27.655   4.673
36250W        W  194   5.792  36.585  13.883
36251W        W  195   8.235  28.654   2.225
36252W        W  196  33.998   2.340   1.696
36253W        W  197  10.324  27.018  12.464
36254W        W  198  28.564  38.823   3.166
36255W        W  199  18.586  28.590  11.036
36256W        W  200   0.934  29.165  11.578
36257W        W  201   4.254  28.069  11.865
36258W        W  202   8.674  40.476   3.865
36259W        W  203   1.767   6.735  11.401
36260W        W  204  15.243  24.189   4.229
36261W        W  205  40.542  32.582   0.738
36262W        W  206  41.376  35.037   2.885
36263W        W  207  19.712  42.456   3.639
36264W        W  208  23.706  25.615   1.753
36265W        W  209  24.648   4.443  14.825
36266W        W  210   6.259  35.936  14.940
36267W        W  211  16.653  11.798   9.982
36268W        W  212  24.184  16.599  12.381
36269W        W  213   7.770  39.027  12.881
36270W        W  214  29.449  18.673   0.366
36271W        W  215  31.044   4.449   2.860
36272W        W  216  42.791   4.441  13.819
36273W        W  217  38.854  44.962   2.205
36274W        W  218  15.277  14.770   1.329
36275W        W  219   1.946  25.068   1.889
36276W        W  220  35.581   7.901   3.849
36277W        W  221  16.794   4.893   9.947
36278W        W  222  32.112  37.871  12.842
36279W        W  223  40.302  42.505   1.423
36280W        W  224  22.700  13.181   3.238
36281W        W  225  42.023  26.590   5.167
36282W        W  226  35.448  29.508  10.575
36283W        W  227  17.119  12.287   0.852
36284W        W  228   7.818  21.152   0.797
36285W        W  229   0.387  22.243  13.020
36286W        W  230  36.574   8.661   0.866
36287W        W  231  40.877  21.193   2.181
36288W        W  232  20.677   5.297   4.314
36289W        W  233  21.711  15.652  11.606
36290W        W  234   0.472  35.363  14.488
36291W        W  235   9.392  32.007   3.253
36292W        W  236  34.951   0.450  14.508
36293W        W  237  26.094  18.735   0.287
36294W        W  238  31.579  14.241  13.878
36295W        W  239  21.716   6.305   1.353
36296W        W  240  28.544  11.339   1.283
36297W        W  241  17.762  33.953  13.389
36298W        W  242  18.224   4.815  12.477
36299W        W  243  10.301   3.846  10.893
36300W        W  244  44.310  17.774   0.775
36301W        W  245  18.113  12.270   2.885
36302W        W  246  29.099  12.274  12.848
36303W        W  247  41.325  15.658   3.236
36304W        W  248  23.984  19.096   3.699
36305W        W  249  12.716  17.603   4.164
36306W        W  250  34.561  30.429  11.107
36307W        W  251  32.913  27.689  11.031
36308W        W  252   9.338  37.430  13.380
36309W        W  253  37.567  15.168   0.255
36310W        W  254   1.958  23.513  12.406
36311W        W  255  28.942  24.070   2.215
36312W        W  256   0.275  43.328   3.304
36313W        W  257  29.925   4.304   0.476
36314W        W  258  39.520  26.646  12.400
36315W        W  259  25.012   8.725   3.150
36316W        W  260   9.227  13.765   1.873
36317W        W  261  42.425  15.775   2.354
36318W        W  262  44.834  38.841   3.700
36319W        W  263  29.118  32.912   4.181
36320W        W  264  10.274  18.700   3.301
36321W        W  265  28.494  19.083  11.901
36322W        W  266   5.801   3.294   0.750
36323W        W  267  32.400  12.164   1.231
36324W        W  268  28.649   2.875   3.857
36325W        W  269  37.565  41.498   4.125
36326W        W  270  43.285   4.366  14.919
36327W        W  271   3.877  11.162   2.761
36328W        W  272  34.940  44.951  13.386
36329W        W  273  10.316  35.514   3.166
36330W        W  274  11.319  24.991   3.676
36331W        W  275  22.551  41.973   3.758
36332W        W  276  17.111  29.474   3.761
36333W        W  277  38.949  11.203   2.395
36334W        W  278  20.042  30.614  11.448
36335W        W  279  18.277   6.702  13.350
36336W        W  280  30.525   3.868  10.563
36337W        W  281   4.348  32.142   0.335
36338W        W  282  20.605   7.350   4.316
36339W        W  283  36.003  32.093   4.826
36340W        W  284  23.614  32.122  14.342
36341W        W  285  19.184  19.043  10.480
36342W        W  286  15.698   1.315   4.123
36343W        W  287  17.220  41.397  11.416
36344W        W  288   9.269   2.878   1.827
36345W        W  289  19.268  40.410   0.823
36346W        W  290  17.260  42.406  11.401
36347W        W  291  32.612  17.298  13.887
36348W        W  292  23.625  32.055   1.874
36349W        W  293   6.724  38.360   1.363
36350W        W  294  25.605   8.270   1.225
36351W        W  295  13.718  35.490   1.432
36352W        W  296  22.154   2.362  10.413
36353W        W  297  24.544  24.715   2.211
36354W        W  298  22.711  32.115   2.193
36355W        W  299  43.020   3.867   4.615
36356W        W  300  26.015  13.291   1.299
36357W        W  301  20.726   0.249  12.082
36358W        W  302  10.321  16.612   3.793
36359W        W  303  26.536  22.090  11.594
36360W        W  304  11.841   2.230  11.490
36361W        W  305  26.621  22.620   5.215
36362W        W  306  18.205  13.658   2.329
36363W        W  307  26.686  28.633  14.362
36364W        W  308  35.008   0.791  10.955
36365W        W  309  27.479   7.377  11.591
36366W        W  310  36.461  34.507   3.262
36367W        W  311  30.412   5.365  13.473
36368W        W  312  35.919  27.564  13.965
36369W        W  313  21.753  19.631   1.408
36370W        W  314  30.907  16.757   2.408
36371W        W  315  34.420  24.984   1.884
36372W        W  316  22.025  25.168   3.791
36373W        W  317  23.066  30.635  12.023
36374W        W  318   1.932  21.106  10.474
36375W        W  319  16.598   1.875  13.914
36376W        W  320   3.240  38.893   1.451
36377W        W  321  24.667  36.034  13.064
36378W        W  322  43.493  21.156  14.419
36379W        W  323  17.273  26.996   3.301
36380W        W  324  19.072  22.135   4.173
36381W        W  325  32.022   8.391   4.296
36382W        W  326  13.232  22.556  10.520
36383W        W  327  43.966  16.203  14.794
36384W        W  328  27.461   7.710  12.424
36385W        W  329  25.096  32.890  13.796
36386W        W  330  13.107  26.695  13.394
36387W        W  331  42.960  17.769   0.776
36388W        W  332  18.760   1.943  12.929
36389W        W  333  13.215  40.807  11.452
36390W        W  334  39.869  19.157  14.865
36391W        W  335  34.119  23.033   0.257
36392W        W  336  31.541  36.464  13.022
36393W        W  337  40.881  28.577   4.115
36394W        W  338  15.822  11.323  10.612
36395W        W  339  41.465  13.738   1.891
36396W        W  340  22.552  14.688  12.830
36397W        W  341  26.516   4.314  14.029
36398W        W  342  23.646  20.175  11.576
36399W        W  343  24.112  17.154   1.447
36400W        W  344   8.238  38.957   4.331
36401W        W  345   6.427  13.154   0.735
36402W        W  346   0.405   6.890  12.896
36403W        W  347  18.083  31.106  14.372
36404W        W  348  33.491  19.769   4.782
36405W        W  349  17.084  32.031   4.129
36406W        W  350  20.223  15.799  14.370
36407W        W  351   0.293  41.357   4.137
36408W        W  352  24.191  28.590  13.513
36409W        W  353   2.273  11.677  10.552
36410W        W  354  31.504  14.731  10.936
36411W        W  355  37.406  28.049  13.391
36412W        W  356  12.225  37.533   3.695
36413W        W  357  11.802  41.498  12.839
36414W        W  358  35.944   3.759  11.511
36415W        W  359  17.732  30.146   4.325
36416W        W  360  28.493   8.833  12.961
36417W        W  361  37.972   2.815   4.708
36418W        W  362  31.493  14.269   4.330
36419W        W  363   5.247  32.037  12.907
36420W        W  364   4.387   0.395   4.264
36421W        W  365   9.294  35.363   1.232
36422W        W  366  27.078  12.315   0.871
36423W        W  367   2.407   2.789  14.300
36424W        W  368  37.873  21.720   4.169
36425W        W  369  14.648  42.880   3.730
36426W        W  370  20.136  31.535   1.226
36427W        W  371  36.089  12.727  10.541
36428W        W  372   2.784  18.721   3.708
36429W        W  373  12.746  27.195   1.897
36430W        W  374  16.118  18.135   0.925
36431W        W  375  44.421  23.208   3.634
36432W        W  376  13.818  14.700   1.740
36433W        W  377   3.303  40.493  12.970
36434W        W  378   2.336  34.429   3.347
36435W        W  379  10.297  21.187   2.774
36436W        W  380  27.584  17.104  11.115
36437W        W  381  11.772  44.480   4.788
36438W        W  382  42.885  17.133  11.441
36439W        W  383  17.716  28.496  11.512
36440W        W  384  35.908   6.843   1.803
36441W        W  385   1.420   2.293   0.406
36442W        W  386  19.121   9.798  14.896
36443W        W  387  44.954  35.862  14.913
36444W        W  388  27.534  15.642   3.377
36445W        W  389  15.720  14.810   0.904
36446W        W  390  23.001  21.596   4.782
36447W        W  391  23.618  28.527  10.539
36448W        W  392  20.094  41.839   0.290
36449W        W  393  31.615  40.360   3.760
36450W        W  394   3.453  13.822  10.566
36451W        W  395  16.174  31.511  13.473
36452W        W  396  14.114  29.057  14.979
36453W        W  397   4.826  15.815  10.068
36454W        W  398  22.121  24.561   0.738
36455W        W  399  39.526  11.288  11.549
36456W        W  400  24.703   6.825   4.759
36457W        W  401  19.595  18.554  14.458
36458W        W  402  31.944  15.255  11.954
36459W        W  403  18.613  15.624  11.571
36460W        W  404  24.046  23.628  11.451
36461W        W  405  15.310  10.369   2.322
36462W        W  406  22.197  13.200   0.788
36463W        W  407   2.290  28.526   0.757
36464W        W  408   0.249   0.430   4.192
36465W        W  409  22.665  33.593   5.149
36466W        W  410  39.337  20.718   3.264
36467W        W  411  19.247  42.894   1.324
36468W        W  412  16.242  33.068   2.695
36469W        W  413  31.637   8.299  10.540
36470W        W  414  33.909  34.944  13.323
36471W        W  415  17.083  26.138   1.303
36472W        W  416  34.486   2.945   4.229
36473W        W  417  35.507  31.486   1.220
36474W        W  418  35.003  29.559   4.716
36475W        W  419   5.917   0.399  12.025
36476W        W  420  15.279  11.202   2.203
36477W        W  421  31.527  22.596   1.299
36478W        W  422  15.169  41.431  14.803
36479W        W  423   8.244  34.612  13.004
36480W        W  424  42.815  25.173  12.367
36481W        W  425  18.632  33.530  10.101
36482W        W  426  10.679  18.703  13.973
36483W        W  427  34.966  42.320  12.839
36484W        W  428  41.333  36.358  12.472
36485W        W  429  24.677  18.128   2.197
36486W        W  430  10.837  40.370   1.281
36487W        W  431  13.796  14.110  14.401
36488W        W  432   2.754  19.576  10.981
36489W        W  433  18.179  29.959   3.363
36490W        W  434  34.484  26.978  14.414
36491W        W  435  15.670  28.545   2.785
36492W        W  436  17.070  40.982  11.088
36493W        W  437  12.334  32.070   3.153
36494W        W  438  28.465  18.194   2.407
36495W        W  439  12.644  27.154   2.750
36496W        W  440   1.249  10.285  10.902
36497W        W  441  34.556   4.803  10.141
36498W        W  442  20.733  22.208   1.210
36499W        W  443   5.318  13.350  13.810
36500W        W  444  35.973  31.998  11.977
36501W        W  445  13.289  30.000   4.755
36502W        W  446  16.567  43.277   0.910
36503W        W  447  12.214  38.034   4.747
36504W        W  448  41.923   4.898   2.704
36505W        W  449  24.590  17.798  14.774
36506W        W  450  34.476  37.945   2.299
36507W        W  451  18.788  14.249   4.228
36508W        W  452  39.888   9.171   2.844
36509W        W  453  29.432  14.302   0.318
36510W        W  454  10.255  16.301  13.824
36511W        W  455  21.226  21.702  10.973
36512W        W  456  39.518  13.285  11.599
36513W        W  457  16.256  17.105   4.649
36514W        W  458  10.744  40.866  12.470
36515W        W  459   6.344   3.789  12.348
36516W        W  460  39.421  14.609   3.382
36517W        W  461   5.344  32.920  10.939
36518W        W  462  25.991   2.339   0.355
36519W        W  463  11.644  14.222   4.164
36520W        W  464  10.718  18.715   1.862
36521W        W  465  25.094  15.802   1.701
36522W        W  466  22.010  13.256   2.362
36523W        W  467  28.528  41.328  13.025
36524W        W  468  36.026  18.549   5.282
36525W        W  469  34.896  14.723  11.085
36526W        W  470  16.262  30.502  14.424
36527W        W  471  32.105  39.411   1.705
36528W        W  472  20.235  20.212  11.410
36529W        W  473  43.843   6.361  13.461
36530W        W  474   1.393  31.939   2.816
36531W        W  475  21.586  13.198   4.327
36532W        W  476  27.123  31.437  12.537
36533W        W  477  42.320  29.026   3.710
36534W        W  478   0.417  22.557  14.867
36535W        W  479   5.840  28.519   0.842
36536W        W  480  27.999  31.407  12.561
36537W        W  481  40.321   9.194   4.707
36538W        W  482   6.867  13.311  10.898
36539W        W  483  34.116  20.180   0.812
36540W        W  484   8.282  24.576   2.783
36541W        W  485  32.051  11.824   4.211
36542W        W  486  20.614   8.213  10.610
36543W        W  487  14.172   2.372  12.824
36544W        W  488  32.124  16.245   4.291
36545W        W  489   8.321  34.379   0.735
36546W        W  490  40.943   2.784   1.784
36547W        W  491  15.136  31.960  13.906
36548W        W  492  10.840  10.198   3.184
36549W        W  493  35.405  36.992  11.603
36550W        W  494  32.612  35.358  13.436
36551W        W  495  31.915  24.680   4.791
36552W        W  496   8.160  12.206   3.271
36553W        W  497  18.722  15.637  12.907
36554W        W  498  32.132  27.063   4.238
36555W        W  499  20.603   4.448   3.295
36556W        W  500   9.173  14.204   2.663
36557W        W  501  15.105  20.170   2.382
36558W        W  502  16.724   6.898  10.966
36559W        W  503  32.576  30.115   3.323
36560W        W  504  44.851  29.427   3.152
36561W        W  505  28.643  37.038   1.247
36562W        W  506  18.565  10.205  13.993
36563W        W  507  14.784   7.382   2.721
36564W        W  508  36.583  11.187   3.645
36565W        W  509  29.469  11.294  13.002
36566W        W  510  36.848  15.735   2.409
36567W        W  511  22.072  36.086  12.441
36568W        W  512  30.149  24.012  13.414
36569W        W  513  29.088   7.320  14.954
36570W        W  514  16.676  15.285  12.528
36571W        W  515  13.781  38.398   1.225
36572W        W  516  38.453  32.529  14.970
36573W        W  517   4.752  19.594   1.844
36574W        W  518  34.516   0.490  12.863
36575W        W  519  38.507  19.542  12.453
36576W        W  520  12.301  15.131   3.355
36577W        W  521  41.893  21.545   4.835
36578W        W  522  31.145  25.165   4.332
36579W        W  523  32.943  21.548  14.908
36580W        W  524  28.488  10.690   3.375
36581W        W  525  39.395  38.443  13.320
36582W        W  526  30.578  35.907  13.923
36583W        W  527  21.185  39.336  13.490
36584W        W  528  11.317  38.560   1.767
36585W        W  529  19.096   4.440  13.455
36586W        W  530  34.988  42.929   1.361
36587W        W  531  25.112  17.610  14.372
36588W        W  532  18.076   0.422   3.211
36589W        W  533  42.334  44.916   2.404
36590W        W  534  26.459  24.161   0.948
36591W        W  535  22.649  10.688   1.418
36592W        W  536  35.500  36.553   3.251
36593W        W  537  27.010  32.398   2.884
36594W        W  538  14.261  35.108  12.036
36595W        W  539  17.743  24.071   1.744
36596W        W  540  13.303   0.848   2.233
36597W        W  541   1.878  12.647  11.126
36598W        W  542  19.773  29.922   4.277
36599W        W  543   2.929  30.994  10.491
36600W        W  544  43.891   7.849   3.226
36601W        W  545  24.652  15.143  11.595
36602W        W  546  24.681  38.943   4.321
36603W        W  547  25.524  17.705  11.524
36604W        W  548  42.902  12.614   2.273
36605W        W  549   4.288  43.980  10.596
36606W        W  550  12.289  19.147   4.661
36607W        W  551  35.929  25.981   4.785
36608W        W  552  19.673  22.104  11.999
36609W        W  553  34.957   0.379   3.224
36610W        W  554  30.456  16.619   1.365
36611W        W  555  27.044  16.787   3.383
36612W        W  556  28.525  34.567  14.378
36613W        W  557   3.731  40.542   2.804
36614W        W  558   7.320  37.501  14.030
36615W        W  559  38.997  22.018  14.326
36616W        W  560   1.772  36.902   0.306
36617W        W  561  12.345   2.948  11.495
36618W        W  562  36.999  26.595  11.994
36619W        W  563  36.847  37.430  12.824
36620W        W  564  18.552   1.867   2.328
36621W        W  565  32.115   1.439  12.559
36622W        W  566  30.574  38.999   9.995
36623W        W  567  37.850  25.108   1.767
36624W        W  568   2.921  40.869   1.916
36625W        W  569  33.095  25.531   3.158
36626W        W  570  22.060  27.491   1.372
36627W        W  571  18.610  37.850   0.745
36628W        W  572  17.765  17.591  12.992
36629W        W  573  12.683   2.334  12.566
36630W        W  574   8.815   6.287  12.422
36631W        W  575  14.631  39.447  11.119
36632W        W  576  13.713  14.784  11.372
36633W        W  577   2.783  10.366   4.756
36634W        W  578  10.284   1.450  12.363
36635W        W  579  12.778  39.922   3.846
36636W        W  580  17.164   3.889  10.589
36637W        W  581  40.470  22.736   4.188
36638W        W  582  20.667  23.038  10.467
36639W        W  583   2.408  42.382   1.346
36640W        W  584  18.229   1.284   4.740
36641W        W  585  32.122  29.079   1.725
36642W        W  586  38.977  35.580   2.344
36643W        W  587  25.483  16.635   5.660
36644W        W  588   0.853  11.136  12.845
36645W        W  589  40.540   8.689   2.707
36646W        W  590  11.369  39.026   1.310
36647W        W  591   0.479   0.769  13.057
36648W        W  592  15.646   2.774  11.036
36649W        W  593  38.440  21.702   2.237
36650W        W  594  26.617  22.166   1.703
36651W        W  595  21.167  44.447  12.084
36652W        W  596  23.000  15.587  10.428
36653W        W  597   9.817  22.018  11.562
36654W        W  598   8.346  13.130   2.209
36655W        W  599  27.069  16.754   0.367
36656W        W  600  35.590  39.376   4.320
36657W        W  601  41.983  37.950  12.482
36658W        W  602  25.097  28.929  13.512
36659W        W  603  36.436  25.096   3.335
36660W        W  604  43.366  13.158  11.038
36661W        W  605  19.230  20.720   1.907
36662W        W  606   5.389  34.523   3.229
36663W        W  607   2.854  10.161   1.834
36664W        W  608   2.248  24.539   2.388
36665W        W  609  41.799  26.651  11.864
36666W        W  610   7.321  20.609   3.727
36667W        W  611  41.349  23.556   1.884
36668W        W  612  40.982  39.352  13.322
36669W        W  613  30.603  26.136  14.358
36670W        W  614  42.521   5.747  14.403
36671W        W  615  32.094   6.313  11.419
36672W        W  616  38.360  23.620   1.922
36673W        W  617  34.896   7.725  10.645
36674W        W  618  43.466  41.034  11.391
36675W        W  619  37.412   9.873  11.874
36676W        W  620  43.945  32.512  12.825
36677W        W  621  10.702  43.943  12.550
36678W        W  622   0.945  24.974  12.846
36679W        W  623  43.873   0.844   3.711
36680W        W  624  42.333   8.326  14.825
36681W        W  625   7.872  24.710   4.803
36682W        W  626   5.927  27.985   0.260
36683W        W  627  28.170   6.710  10.527
36684W        W  628  40.345   6.428  10.944
36685W        W  629  43.422  12.142  13.314
36686W        W  630  18.579  36.347   3.766
36687W        W  631   0.282  10.757  13.406
36688W        W  632  34.054  31.594  14.511
36689W        W  633  33.079  20.703   4.686
36690W        W  634   3.847  33.544  11.084
36691W        W  635  15.237  26.192  12.014
36692W        W  636  37.397  36.096  14.407
36693W        W  637  14.656  13.812   3.322
36694W        W  638   6.331  36.911   2.891
36695W        W  639  33.033  33.123   4.667
36696W        W  640  27.159  36.466   0.797
36697W        W  641  40.811   1.442  11.388
36698W        W  642  43.418  14.826   0.935
36699W        W  643  26.500  38.562   0.340
36700W        W  644  16.116  39.879   1.869
36701W        W  645  22.657  25.565   3.343
36702W        W  646  16.790  21.514  11.484
36703W        W  647  27.946  25.061  12.089
36704W        W  648   9.196  44.409  10.945
36705W        W  649  12.326  40.438  12.856
36706W        W  650  13.327  11.290  12.463
36707W        W  651  28.173   1.906  14.285
36708W        W  652  26.510  26.133  12.440
36709W        W  653  30.095  27.048   1.294
36710W        W  654  35.383  26.954  10.443
36711W        W  655  13.280   1.444  14.913
36712W        W  656   5.927  10.207  13.811
36713W        W  657  28.623   4.732   0.953
36714W        W  658  15.131   5.921  11.405
36715W        W  659  36.370   2.343   4.800
36716W        W  660   5.240  10.705  13.003
36717W        W  661  38.470  44.965   4.178
36718W        W  662  35.446  14.622  11.982
36719W        W  663   7.293  15.245  10.004
36720W        W  664  28.617  17.732   4.804
36721W        W  665  22.057  15.737   2.415
36722W        W  666  25.686  16.580   4.696
36723W        W  667   8.322   2.421   4.126
36724W        W  668  13.307  31.001   4.802
36725W        W  669  27.952   3.313  14.288
36726W        W  670  38.862  35.479   1.239
36727W        W  671  20.562  30.039  13.885
36728W        W  672  14.316  36.882   2.198
36729W        W  673  24.100  36.517  11.044
36730W        W  674  31.563  20.163   1.304
36731W        W  675   4.817  26.165  12.907
36732W        W  676   9.876  33.994   1.821
36733W        W  677  17.073   1.934  13.847
36734W        W  678  26.654  22.047  11.982
36735W        W  679  26.179  15.206  11.066
36736W        W  680   7.797  12.186   2.374
36737W        W  681  36.923  12.200   0.422
36738W        W  682  31.089  37.399  14.800
36739W        W  683  18.187  27.962   1.791
36740W        W  684  44.762  11.233  13.473
36741W        W  685  17.764  10.346  10.636
36742W        W  686  44.002  28.627   1.283
36743W        W  687  44.307  28.068  11.943
36744W        W  688  40.830  13.110   4.728
36745W        W  689  39.452  25.542  12.827
36746W        W  690  28.572  15.651   3.871
36747W        W  691  15.823  30.572  13.398
36748W        W  692  11.235  10.282   3.762
36749W        W  693  38.924  11.259  12.367
36750W        W  694  38.887  14.100   3.756
36751W        W  695  43.385  35.368  12.509
36752W        W  696  19.044  17.100  14.465
36753W        W  697  38.377   5.436   4.636
36754W        W  698  29.151  18.570   0.393
36755W        W  699   8.675  25.672   3.180
36756W        W  700  13.121  16.791  11.965
36757W        W  701   9.870  43.307  10.935
36758W        W  702   2.279   9.752  12.528
36759W        W  703  31.646  16.729  14.817
36760W        W  704  23.641  12.742   0.431
36761W        W  705  24.552  38.024   1.269
36762W        W  706  32.939   6.880  12.958
36763W        W  707  42.795   8.692   2.351
36764W        W  708  31.088  30.939   4.710
36765W        W  709   1.249   9.307  11.934
36766W        W  710  19.769  18.787  12.428
36767W        W  711  36.551  17.134   2.180
36768W        W  712  22.136  16.665  12.858
36769W        W  713   2.454  40.053  12.835
36770W        W  714  31.524  16.168  14.031
36771W        W  715  26.639  24.108  12.540
36772W        W  716   9.849  36.945   3.796
36773W        W  717  13.202  16.250  14.307
36774W        W  718   6.788  40.962   3.864
36775W        W  719   3.459  37.919  10.620
36776W        W  720  17.177  31.902  13.866
36777W        W  721  29.956  16.310  14.464
36778W        W  722   1.265  26.114   4.667
36779W        W  723  28.970  18.224  14.464
36780W        W  724   4.748  43.845  11.090
36781W        W  725  36.364  27.004   1.742
36782W        W  726  28.054  29.494   2.784
36783W        W  727  24.509  14.735   1.880
36784W        W  728  11.131  43.935   0.369
36785W        W  729  21.731  32.043  14.793
36786W        W  730  42.003   0.918   2.767
36787W        W  731  29.014  19.660  13.403
36788W        W  732  28.523  21.601   2.276
36789W        W  733   2.341  41.301  13.459
36790W        W  734  13.204  13.134   3.853
36791W        W  735  22.514  21.675   0.751
36792W        W  736  44.786   6.275  11.919
36793W        W  737  34.912  41.378  10.580
36794W        W  738  14.281  13.104  13.871
36795W        W  739  12.680  19.272  13.799
36796W        W  740  45.000  14.275   4.606
36797W        W  741  28.471  16.760   1.744
36798W        W  742   0.251  22.588  10.518
36799W        W  743   8.700   4.820   2.882
36800W        W  744   0.755  34.601  13.983
36801W        W  745  32.980  19.208  10.997
36802W        W  746  13.739   7.824  10.939
36803W        W  747  36.388  29.941  12.071
36804W        W  748  40.411  28.540   2.695
36805W        W  749   7.245   4.765  10.477
36806W        W  750  31.996  30.131   1.887
36807W        W  751  43.930  18.746   1.357
36808W        W  752   9.809  23.066  14.442
36809W        W  753  40.336   7.260  10.600
36810W        W  754  22.184   7.232  10.921
36811W        W  755  13.825  42.010  11.925
36812W        W  756  20.531   8.656  13.350
36813W        W  757   1.444   8.287  12.579
36814W        W  758   6.415   3.455   0.411
36815W        W  759   3.413  11.827  14.326
36816W        W  760  43.300  34.944  14.895
36817W        W  761  32.494  28.961   2.215
36818W        W  762  29.944   5.835   3.671
36819W        W  763  26.189  22.637   1.215
36820W        W  764  44.816  27.142   4.264
36821W        W  765  25.175   3.351   2.736
36822W        W  766  32.573  27.101   2.228
36823W        W  767  29.039  24.678  12.560
36824W        W  768  15.777   6.428   3.162
36825W        W  769  42.421  29.135   1.375
36826W        W  770  33.117  27.062   1.228
36827W        W  771  41.826   7.274  13.031
36828W        W  772  18.556  14.246  10.643
36829W        W  773  11.752  28.162  11.891
36830W        W  774  19.098  32.055  14.425
36831W        W  775  16.781  10.656  14.456
36832W        W  776  43.346  12.700  14.351
36833W        W  777  19.723  21.067   1.892
36834W        W  778  29.110  28.604  12.035
36835W        W  779   8.367   4.350  12.451
36836W        W  780  18.569  16.592   1.372
36837W        W  781   0.477   0.784   0.408
36838W        W  782  31.136  41.352   3.661
36839W        W  783  26.096   5.255   3.704
36840W        W  784  37.959  13.732   0.804
36841W        W  785  32.103  41.949  14.891
36842W        W  786  21.216  34.109  11.598
36843W        W  787   4.718  10.380  11.084
36844W        W  788  26.515  26.128  10.493
36845W        W  789  36.485  32.625   2.708
36846W        W  790  16.796  21.610  13.044
36847W        W  791   3.326  36.534   4.169
36848W        W  792   8.803  30.524  12.890
36849W        W  793  32.941  22.133   2.869
36850W        W  794  40.034  29.635   0.898
36851W        W  795   5.720  33.492  10.930
36852W        W  796   3.716  30.587  13.485
36853W        W  797   3.393  32.123  14.927
36854W        W  798  42.354  19.119  12.855
36855W        W  799   5.251  41.368  13.898
36856W        W  800   4.846   5.911   5.164
36857W        W  801   8.388  18.784   0.822
36858W        W  802  29.151   8.741   1.425
36859W        W  803  14.284  38.552  13.811
36860W        W  804  25.652  35.949  13.403
36861W        W  805   6.776  41.858   0.273
36862W        W  806  40.457  21.725  14.335
36863W        W  807   5.730   7.192   0.839
36864W        W  808   3.365   3.893   2.743
36865W        W  809  21.614   9.764   2.186
36866W        W  810  17.672  42.948   2.800
36867W        W  811   5.858  33.130  14.901
36868W        W  812  22.502  24.626  13.527
36869W        W  813  23.146   4.383   3.214
36870W        W  814  26.633  21.213  11.478
36871W        W  815  31.488  13.698   4.795
36872W        W  816  43.868  18.165   2.684
36873W        W  817  32.527  10.785   3.186
36874W        W  818  31.485  20.201   4.349
36875W        W  819  11.308   3.361  14.435
36876W        W  820  29.130   7.906   0.787
36877W        W  821  32.966  29.138  10.639
36878W        W  822   6.241   2.299   1.269
36879W        W  823  21.171  20.655  11.096
36880W        W  824   8.190  37.874  10.926
36881W        W  825  31.129   6.882  10.408
36882W        W  826  16.211  36.460  13.394
36883W        W  827  34.987  31.982   0.406
36884W        W  828  25.085   4.445   0.463
36885W        W  829  10.825   2.325  11.405
36886W        W  830  16.140  42.820   5.144
36887W        W  831  43.779   7.292   3.370
36888W        W  832  39.943  19.284   4.682
36889W        W  833  16.153  41.859   2.708
36890W        W  834  37.852  34.055   1.272
36891W        W  835   0.937   0.969   0.351
36892W        W  836  12.811  15.742   1.766
36893W        W  837  25.601  21.155  11.498
36894W        W  838  22.224  38.434  11.577
36895W        W  839  21.665  33.509   4.741
36896W        W  840  31.464  24.111  10.407
36897W        W  841  22.684  11.213   1.888
36898W        W  842  17.556  40.990   4.739
36899W        W  843  43.022  18.275  11.884
36900W        W  844   9.765  35.475  13.926
36901W        W  845  19.706  25.609  10.616
36902W        W  846   3.267  22.609   0.347
36903W        W  847  27.997  32.043  11.506
36904W        W  848   9.159  11.759   1.296
36905W        W  849  34.507  14.616  12.420
36906W        W  850  30.945  40.310  14.329
36907W        W  851  18.259  27.012   4.647
36908W        W  852  41.894   8.801  14.946
36909W        W  853  44.921  14.616   1.432
36910W        W  854   4.310   6.274   2.870
36911W        W  855  17.115   4.750   2.677
36912W        W  856  14.703   7.388  10.934
36913W        W  857   9.816  32.090  11.856
36914W        W  858   8.828  16.611  12.086
36915W        W  859  30.149  10.226  14.493
36916W        W  860   1.243  23.643  13.933
36917W        W  861  38.347  12.289   4.737
36918W        W  862  44.893  10.727  12.965
36919W        W  863   1.481  31.626  13.385
36920W        W  864  35.969  36.018  10.969
36921W        W  865   5.197  11.335  12.493
36922W        W  866  27.631  42.293  12.409
36923W        W  867   4.907  29.099  11.391
36924W        W  868  27.605  37.541   3.199
36925W        W  869  20.044  39.332  11.967
36926W        W  870   3.304  32.959   3.765
36927W        W  871  39.949  13.193   1.392
36928W        W  872  32.111  15.614   0.264
36929W        W  873   2.375  34.054   1.451
36930W        W  874  41.902  31.557   1.887
36931W        W  875  32.469  39.497  11.970
36932W        W  876  23.988  35.065   4.187
36933W        W  877   1.919  39.946   0.906
36934W        W  878   5.409  11.373  13.792
36935W        W  879  32.091  14.191   2.880
36936W        W  880   5.282   7.761  10.608
36937W        W  881   9.683  15.125   0.822
36938W        W  882  29.172  19.588   5.081
36939W        W  883  33.504  12.145  10.565
36940W        W  884  19.193  13.133  10.942
36941W        W  885  34.904   5.318  14.394
36942W        W  886  18.581   0.882   4.755
36943W        W  887  39.009  22.160   2.392
36944W        W  888  20.535  31.098   0.476
36945W        W  889  38.964   9.156  13.946
36946W        W  890  11.336  15.300  13.877
36947W        W  891   6.800  38.523  10.915
36948W        W  892  19.129  33.380   3.227
36949W        W  893  41.960  32.922  10.644
36950W        W  894  23.650  44.306  12.545
36951W        W  895  35.062  35.539   1.844
36952W        W  896  16.176  22.043  10.471
36953W        W  897  33.985  42.809   0.280
36954W        W  898  35.071   4.708   4.690
36955W        W  899  40.840  11.251   0.257
36956W        W  900  24.685  37.843  11.962
36957W        W  901  20.034  31.089  11.472
36958W        W  902  31.150   7.885   3.228
36959W        W  903   0.755  24.215   2.686
36960W        W  904   0.448  19.751  13.425
36961W        W  905  21.612  25.968   1.229
36962W        W  906  40.336  24.702   0.798
36963W        W  907   9.784  25.707  11.929
36964W        W  908  33.559  37.344   0.852
36965W        W  909  30.949  20.069  12.083
36966W        W  910   5.216  21.522   1.272
36967W        W  911  10.230   9.787  14.989
36968W        W  912  34.048   1.960   1.723
36969W        W  913  29.565   0.953   5.087
36970W        W  914  23.676  39.001   3.747
36971W        W  915   4.710  24.567  12.018
36972W        W  916   5.364  11.653  11.876
36973W        W  917  40.852  23.121   3.734
36974W        W  918  12.710  42.005  14.436
36975W        W  919  29.515  26.115   3.798
36976W        W  920  40.048  17.745  14.789
36977W        W  921  25.529   2.940  11.389
36978W        W  922  39.823  42.854   4.117
36979W        W  923   7.813   9.714   3.266
36980W        W  924  36.036  36.968  11.006
36981W        W  925  34.545   5.318  14.027
36982W        W  926  42.281  10.300  12.500
36983W        W  927  21.573   2.472  13.794
36984W        W  928  26.500   6.230  12.008
36985W        W  929  20.536  37.833  10.454
36986W        W  930  43.361   5.385   4.761
36987W        W  931   1.740  44.293   1.820
36988W        W  932   7.372  28.585  10.417
36989W        W  933  15.816  41.835   3.363
36990W        W  934  24.632  10.790  11.377
36991W        W  935   4.900  26.644   1.277
36992W        W  936  29.038  44.889  14.449
36993W        W  937   8.834  14.260   1.861
36994W        W  938   6.407  30.645  11.987
36995W        W  939   8.876  10.277  13.515
36996W        W  940  40.466  30.444   5.212
36997W        W  941   6.203  22.679   4.674
36998W        W  942  27.097  39.427  11.383
36999W        W  943  16.588  11.723   3.739
37000W        W  944  41.949  20.752  12.557
37001W        W  945  23.640   6.277   3.819
37002W        W  946  19.234  39.539   4.218
37003W        W  947  39.817  14.693   0.767
37004W        W  948  38.335  13.165  13.806
37005W        W  949   9.880  33.433   0.872
37006W        W  950  25.021  34.101   4.333
37007W        W  951  44.944  26.080   2.683
37008W        W  952  10.153  34.986  13.951
37009W        W  953  11.355  22.635   4.334
37010W        W  954  36.466   8.392  10.479
37011W        W  955  26.622   2.281   0.743
37012W        W  956  13.653  14.240   3.297
37013W        W  957  36.094  14.202   2.798
37014W        W  958  13.197  11.132   2.356
37015W        W  959   0.785  12.638  11.594
37016W        W  960  40.998   2.250   5.220
37017W        W  961   5.698   0.755   4.329
37018W        W  962  29.568  23.076  10.571
37019W        W  963   2.398  37.400  10.018
37020W        W  964  33.379  12.818   4.333
37021W        W  965  16.301  19.537  13.348
37022W        W  966   0.791   2.921  14.968
37023W        W  967  28.046  12.717   3.679
37024W        W  968  24.693  34.084   2.897
37025W        W  969  12.617  32.050  10.455
37026W        W  970  11.342  42.967  12.842
37027W        W  971  16.073  15.114   0.243
37028W        W  972  25.608  26.956  14.787
37029W        W  973   2.926  21.566  14.510
37030W        W  974   3.292  25.609   3.238
37031W        W  975  17.153  13.657  11.516
37032W        W  976  25.708  24.573  12.868
37033W        W  977  21.712  44.325   4.283
37034W        W  978   5.286  20.612   4.620
37035W        W  979  23.659  41.419   3.170
37036W        W  980  12.755   1.257  12.555
37037W        W  981  20.560  30.954  13.816
37038W        W  982   3.897  38.873   1.910
37039W        W  983  39.422  15.233  12.938
37040W        W  984  19.746  35.482  14.770
37041W        W  985   6.305  38.839  13.533
37042W        W  986  16.587  38.425  10.515
37043W        W  987  32.476  22.569  12.505
37044W        W  988  31.053  19.135   3.760
37045W        W  989   2.453  39.921   1.384
37046W        W  990  41.347  21.229  11.494
37047W        W  991  40.411  14.817   1.903
37048W        W  992  29.944  26.106  14.310
37049W        W  993  31.067  31.132  12.867
37050W        W  994  13.187  32.578   2.301
37051W        W  995  39.509  28.079   2.676
37052W        W  996   4.807  22.242  13.895
37053W        W  997   0.358  24.007  14.859
37054W        W  998  34.889  14.231  11.080
37055W        W  999  25.970  31.120   1.793
37056W        W 1000  24.584  16.730   1.733
37057W        W 1001   4.768  36.882  14.877
37058W        W 1002  15.151  35.884  10.460
37059W        W 1003   9.233   5.331   3.358
37060W        W 1004  18.073  41.524   1.210
37061W        W 1005   2.418   0.950   5.186
37062W        W 1006  12.774   1.833   0.737
37063W        W 1007  18.239  39.870  12.550
37064W        W 1008  41.534  12.681  13.844
37065W        W 1009  12.699  34.569   3.211
37066W        W 1010  17.672   6.427  11.007
37067W        W 1011   8.829   6.202  11.900
37068W        W 1012  21.672  42.778  10.613
37069W        W 1013  22.029  18.636  12.575
37070W        W 1014  32.992  21.127   3.176
37071W        W 1015  23.984   1.904  13.987
37072W        W 1016  39.484  22.552  11.595
37073W        W 1017  32.040  37.422   4.155
37074W        W 1018  24.993  16.590  14.830
37075W        W 1019  30.976  17.217   2.382
37076W        W 1020  25.594  43.338   0.785
37077W        W 1021  43.369  37.836   0.258
37078W        W 1022   4.788  37.960   4.790
37079W        W 1023   7.782   7.370  13.042
37080W        W 1024  44.813  16.623  10.629
37081W        W 1025  25.160  25.554  13.960
37082W        W 1026  40.474  23.236  12.059
37083W        W 1027   7.315  30.089   2.313
37084W        W 1028  23.649  19.188  10.523
37085W        W 1029   2.951  24.718  14.508
37086W        W 1030  35.938  40.927   1.444
37087W        W 1031  19.150  23.508   3.206
37088W        W 1032  14.188  25.204   2.711
37089W        W 1033  37.856  20.139   1.226
37090W        W 1034  37.946   7.353   1.917
37091W        W 1035  12.206  18.268   3.349
37092W        W 1036  37.425  44.965  11.071
37093W        W 1037  40.965  34.453   4.629
37094W        W 1038  31.572  11.239   0.939
37095W        W 1039  44.315  30.950  12.365
37096W        W 1040  23.657  37.509  14.358
37097W        W 1041   0.416  40.039   4.113
37098W        W 1042  36.374  42.495   1.695
37099W        W 1043  42.518   2.449  13.040
37100W        W 1044  21.721  11.205   2.264
37101W        W 1045  15.725  36.514   2.735
37102W        W 1046  30.651  12.812   1.329
37103W        W 1047   2.867  16.149  14.785
37104W        W 1048  18.776  12.200  11.450
37105W        W 1049  34.116  27.467  11.871
37106W        W 1050  14.240  12.139   2.320
37107W        W 1051  40.343  35.908  11.498
37108W        W 1052  29.663  25.064   5.134
37109W        W 1053  17.575   3.783   0.925
37110W        W 1054  27.558  42.785  12.838
37111W        W 1055  31.503  23.135   3.352
37112W        W 1056  14.143  16.779  11.870
37113W        W 1057   3.776  33.428  14.416
37114W        W 1058  30.522  28.042  10.435
37115W        W 1059  16.184  37.561  10.053
37116W        W 1060  26.984  34.107  13.842
37117W        W 1061  42.849  33.077   4.749
37118W        W 1062   6.313  19.197  10.641
37119W        W 1063   0.881   5.284  12.090
37120W        W 1064  36.893  33.965   2.812
37121W        W 1065  42.362   0.287   2.202
37122W        W 1066  43.422  32.887   0.396
37123W        W 1067  44.959   6.848   1.213
37124W        W 1068  22.079  14.601   1.876
37125W        W 1069   9.786  37.486   2.233
37126W        W 1070  33.406   2.893   4.216
37127W        W 1071   0.772  36.420   4.649
37128W        W 1072  12.270   5.226   1.765
37129W        W 1073   3.252  42.973   0.791
37130W        W 1074   3.869   2.257   1.361
37131W        W 1075  23.241  39.405  12.427
37132W        W 1076  34.397   2.314  14.458
37133W        W 1077  13.649  14.136   2.836
37134W        W 1078   5.747  14.697  14.972
37135W        W 1079  38.042  30.596   1.863
37136W        W 1080  19.166   3.289   5.106
37137W        W 1081  44.888  29.170   4.186
37138W        W 1082  23.029  40.848  14.309
37139W        W 1083  21.075  38.536   2.185
37140W        W 1084  25.530  42.986   3.224
37141W        W 1085  36.054  19.593   0.881
37142W        W 1086  14.220  30.483  13.376
37143W        W 1087   1.754  25.678   2.341
37144W        W 1088   8.865  29.582  13.488
37145W        W 1089   3.299   2.782   2.342
37146W        W 1090   5.740  33.942   1.300
37147W        W 1091  40.947  32.502  11.406
37148W        W 1092  33.395  29.175  11.045
37149W        W 1093  28.154  23.202  14.783
37150W        W 1094   3.773  43.413  11.502
37151W        W 1095  40.985  44.003   0.778
37152W        W 1096  26.620  33.966   0.906
37153W        W 1097   9.266  42.883  13.035
37154W        W 1098  24.491  39.371  13.023
37155W        W 1099  15.815   4.768   3.725
37156W        W 1100  20.623  44.980   0.774
37157W        W 1101  18.211   2.865  13.031
37158W        W 1102  33.083   4.327  14.970
37159W        W 1103   8.257  34.471  14.393
37160W        W 1104  26.558  16.739  12.935
37161W        W 1105  17.730  28.078  11.555
37162W        W 1106  12.172  16.598   1.822
37163W        W 1107  35.542  43.824  13.434
37164W        W 1108  17.668  32.418   3.300
37165W        W 1109  10.791  27.468  13.383
37166W        W 1110   3.719  44.445   4.811
37167W        W 1111  15.320   3.333  12.050
37168W        W 1112  37.045   4.936   0.768
37169W        W 1113  26.684  15.282  10.546
37170W        W 1114   0.255  40.989   0.440
37171W        W 1115  23.652  24.479  10.480
37172W        W 1116   0.790  10.820   4.614
37173W        W 1117   3.306  16.262   1.307
37174W        W 1118  19.147  21.546   1.328
37175W        W 1119  43.777  39.004  12.985
37176W        W 1120  28.014  13.782   1.895
37177W        W 1121  41.831  14.188   0.447
37178W        W 1122  29.994  24.209  12.388
37179W        W 1123  17.743   0.399   1.905
37180W        W 1124  42.954   2.840  13.925
37181W        W 1125  38.467  19.610   2.376
37182W        W 1126  20.211  32.551   0.364
37183W        W 1127  40.353   8.246   0.960
37184W        W 1128  28.150  33.488  14.284
37185W        W 1129  26.970  40.861   9.546
37186W        W 1130  25.075   3.347  10.516
37187W        W 1131  38.426  31.986   4.301
37188W        W 1132  33.447  28.492  14.026
37189W        W 1133  34.119  32.063  11.610
37190W        W 1134  35.457  17.064   1.219
37191W        W 1135   1.435  33.914  11.040
37192W        W 1136  40.964  26.511  11.550
37193W        W 1137  42.464  36.346  10.433
37194W        W 1138  11.801  11.820   4.175
37195W        W 1139  44.955  13.770  14.925
37196W        W 1140   5.439  37.476  11.471
37197W        W 1141   1.921  21.628  12.372
37198W        W 1142   0.287  34.568   4.156
37199W        W 1143  40.343  37.007   4.198
37200W        W 1144  40.434   2.274   2.823
37201W        W 1145  20.058  31.999   3.250
37202W        W 1146  13.690   4.834   3.165
37203W        W 1147  20.545  23.550   4.305
37204W        W 1148  20.077   9.281  12.083
37205W        W 1149  28.949   1.359   0.403
37206W        W 1150  39.421   6.846   3.229
37207W        W 1151   9.655  15.093   9.938
37208W        W 1152  40.962   5.238  14.860
37209W        W 1153   6.875   8.871  12.958
37210W        W 1154  25.084  32.957   4.165
37211W        W 1155  37.930  16.157  13.356
37212W        W 1156  30.423  44.804  11.031
37213W        W 1157  10.877   0.417  10.969
37214W        W 1158  33.098  34.373  11.536
37215W        W 1159  11.768  10.254   3.632
37216W        W 1160  19.738  19.169  14.362
37217W        W 1161   8.789  38.372   4.231
37218W        W 1162  34.910  39.958   1.859
37219W        W 1163  28.023  34.936  10.993
37220W        W 1164   4.840  35.913  10.910
37221W        W 1165   7.196  34.929  14.296
37222W        W 1166  21.077   8.663  13.426
37223W        W 1167  13.298  35.592  14.434
37224W        W 1168   4.297  19.742   1.313
37225W        W 1169  33.986  43.813   2.887
37226W        W 1170  41.329   1.841   0.377
37227W        W 1171   3.286  10.138  11.576
37228W        W 1172  23.038   5.743   3.320
37229W        W 1173  20.644  42.440  11.968
37230W        W 1174  40.955  24.007  11.463
37231W        W 1175   6.709  29.987  12.445
37232W        W 1176   0.374   7.194   4.784
37233W        W 1177  25.012  27.487  14.346
37234W        W 1178   2.368   5.324   5.666
37235W        W 1179   2.437  22.692  12.093
37236W        W 1180  12.664  41.421   0.750
37237W        W 1181  32.554   2.962   2.692
37238W        W 1182  12.269  41.527  11.444
37239W        W 1183  13.266  33.477   5.254
37240W        W 1184  37.043  31.087   3.349
37241W        W 1185  28.016  31.456   4.204
37242W        W 1186  17.580  10.747   2.383
37243W        W 1187  26.593   5.351  10.450
37244W        W 1188  13.190  30.104  12.093
37245W        W 1189  34.442   9.390   4.223
37246W        W 1190   2.296   7.328  14.302
37247W        W 1191   8.818  35.554   4.651
37248W        W 1192  43.815  29.568  14.282
37249W        W 1193  10.648  15.636   1.351
37250W        W 1194  34.946  26.188   3.314
37251W        W 1195  36.927  40.005   0.805
37252W        W 1196  12.260  36.985   3.754
37253W        W 1197  23.626  27.541  12.928
37254W        W 1198  30.135  37.076  14.861
37255W        W 1199   1.897  20.084   0.311
37256W        W 1200  39.538  18.720   2.785
37257W        W 1201  28.177  36.952  10.451
37258W        W 1202  27.099  24.561  11.994
37259W        W 1203  29.532  31.118  12.845
37260W        W 1204  29.424  36.868  14.445
37261W        W 1205  27.545  15.155   2.672
37262W        W 1206   6.692  14.232   1.382
37263W        W 1207  36.099   5.699   2.857
37264W        W 1208   1.390   4.769  10.546
37265W        W 1209  44.435   6.834  12.859
37266W        W 1210  20.673  20.558   2.315
37267W        W 1211   9.804  22.187  11.975
37268W        W 1212  19.593  30.049  11.612
37269W        W 1213  44.004   7.906  14.793
37270W        W 1214  16.090  41.332  12.919
37271W        W 1215  26.460  35.963  14.492
37272W        W 1216  13.626  34.507   0.847
37273W        W 1217  15.164  29.137   3.839
37274W        W 1218   2.777  36.856  14.023
37275W        W 1219   8.367  18.198  11.460
37276W        W 1220  28.670  42.022  14.962
37277W        W 1221  20.058   9.193   1.240
37278W        W 1222  37.393   4.859  11.872
37279W        W 1223   6.796  42.477  12.857
37280W        W 1224  44.359  34.941   1.320
37281W        W 1225  19.713  27.532  12.391
37282W        W 1226   2.408   9.375   0.306
37283W        W 1227  16.213   0.390   1.896
37284W        W 1228  34.913  28.062   2.773
37285W        W 1229  12.753  36.048   4.739
37286W        W 1230  38.897  35.031  14.514
37287W        W 1231  12.698  12.203   3.367
37288W        W 1232   4.723   2.432   1.432
37289W        W 1233  43.827  13.182   4.753
37290W        W 1234  38.397  34.606   3.382
37291W        W 1235   9.886  42.799   4.644
37292W        W 1236  19.566  39.960  11.449
37293W        W 1237  15.271  28.517  13.920
37294W        W 1238  31.137  31.099   0.891
37295W        W 1239  27.041   7.296  13.866
37296W        W 1240  44.438  21.136  14.989
37297W        W 1241   6.688  27.638  10.553
37298W        W 1242   1.384  14.770  12.932
37299W        W 1243  24.070  44.322  10.948
37300W        W 1244   2.752  20.631   2.406
37301W        W 1245  32.630   5.437  11.575
37302W        W 1246  16.262  44.885  14.365
37303W        W 1247  36.843  16.088  14.981
37304W        W 1248  23.079  42.897  10.594
37305W        W 1249  10.210  21.669  13.424
37306W        W 1250  27.683  34.464   4.261
37307W        W 1251  37.489   7.276  14.001
37308W        W 1252  25.997  35.005  14.954
37309W        W 1253  38.554   5.259   1.876
37310W        W 1254  16.287   3.414  13.327
37311W        W 1255  12.652   0.849  12.391
37312W        W 1256  23.144  28.153   2.806
37313W        W 1257  21.170  26.591  11.024
37314W        W 1258  22.699  22.683   4.607
37315W        W 1259  37.461  10.172  12.056
37316W        W 1260  15.623  14.813  10.609
37317W        W 1261  21.183  24.978  10.513
37318W        W 1262   4.316  21.732   4.329
37319W        W 1263   3.899   1.463  10.520
37320W        W 1264  17.697   1.758  13.795
37321W        W 1265  26.967  21.220  14.849
37322W        W 1266  39.970  40.541   0.945
37323W        W 1267  16.779  12.359   3.300
37324W        W 1268   2.384  32.014   0.935
37325W        W 1269  25.013   3.457  14.493
37326W        W 1270   4.807  23.540  13.361
37327W        W 1271  29.028  42.359  10.587
37328W        W 1272  39.530  44.401  13.014
37329W        W 1273   6.859  32.403   3.708
37330W        W 1274  25.102  20.205  14.399
37331W        W 1275  36.842  41.979  13.399
37332W        W 1276  11.744  40.806  13.314
37333W        W 1277   0.412   8.713   1.904
37334W        W 1278  14.185  44.998   4.821
37335W        W 1279  26.647  27.973   3.691
37336W        W 1280  26.532  42.838  10.141
37337W        W 1281   8.813  14.731   5.669
37338W        W 1282  37.385   7.681   4.808
37339W        W 1283   9.799  32.622   4.266
37340W        W 1284  15.577  18.780  11.027
37341W        W 1285  24.656   4.242  14.308
37342W        W 1286  26.017  24.646  14.910
37343W        W 1287  24.054   1.441  11.941
37344W        W 1288  15.669   4.800  13.794
37345W        W 1289  14.783  44.778  12.562
37346W        W 1290  15.137  24.188   1.312
37347W        W 1291  32.968  31.547  10.643
37348W        W 1292   8.244  13.255  14.388
37349W        W 1293  22.686  23.190  14.893
37350W        W 1294  16.086  33.560  13.931
37351W        W 1295  20.671   8.349  12.827
37352W        W 1296   6.734  39.431  13.357
37353W        W 1297   4.394  11.339   2.359
37354W        W 1298  44.003  37.899  14.002
37355W        W 1299  19.700   9.199   3.362
37356W        W 1300   1.302   0.970  11.945
37357W        W 1301   6.320  27.600   1.274
37358W        W 1302  42.983  28.453   3.772
37359W        W 1303  41.031  22.233  12.387
37360W        W 1304  24.017  32.603   3.275
37361W        W 1305   3.225   6.284  13.868
37362W        W 1306   6.422  24.659  10.156
37363W        W 1307  40.807  17.590   0.334
37364W        W 1308  30.931   2.278   3.267
37365W        W 1309  23.087  44.482  13.851
37366W        W 1310   6.773  42.920   4.720
37367W        W 1311  29.109  26.017   1.441
37368W        W 1312   8.785  35.063   3.731
37369W        W 1313  30.426  11.707   2.700
37370W        W 1314  39.923   5.821  12.340
37371W        W 1315  18.601  41.376   4.817
37372W        W 1316  20.594  22.740   2.833
37373W        W 1317  25.663  12.613   4.124
37374W        W 1318   5.347  12.197   4.708
37375W        W 1319  11.721  14.796  14.427
37376W        W 1320  42.363  22.135   0.860
37377W        W 1321  20.567   1.773   0.802
37378W        W 1322  42.812  35.402  11.934
37379W        W 1323  28.956  26.690  10.564
37380W        W 1324  31.032   0.463  10.083
37381W        W 1325  21.574   5.334   0.322
37382W        W 1326  12.265  10.216  12.957
37383W        W 1327  34.111  27.983  14.878
37384W        W 1328  21.180  44.826  10.503
37385W        W 1329  26.064  33.006  11.016
37386W        W 1330  11.312   6.853   4.664
37387W        W 1331   9.718  23.631  12.417
37388W        W 1332  18.062  12.851  11.040
37389W        W 1333  33.124   8.364  14.816
37390W        W 1334   4.230  10.307  13.375
37391W        W 1335  12.706  13.719  11.523
37392W        W 1336  13.239   3.452  10.160
37393W        W 1337  24.128   7.376   9.927
37394W        W 1338  40.529  37.963   2.842
37395W        W 1339  34.566  29.648   2.390
37396W        W 1340  25.624  17.227  14.357
37397W        W 1341  37.006  18.268  11.054
37398W        W 1342   1.775   6.247   4.300
37399W        W 1343   3.896  44.939  11.968
37400W        W 1344  36.058  15.726  11.953
37401W        W 1345   8.330  18.597  10.923
37402W        W 1346  16.281   2.277  13.932
37403W        W 1347  30.937  27.677   0.781
37404W        W 1348  26.108   1.886   1.893
37405W        W 1349   7.688  41.975  10.486
37406W        W 1350  44.767  41.462   4.664
37407W        W 1351  13.338  32.562   3.325
37408W        W 1352  30.656  32.994  11.102
37409W        W 1353  21.609  30.544  13.046
37410W        W 1354  24.166  31.599  12.494
37411W        W 1355  32.024  28.511  11.487
37412W        W 1356  44.996  25.201   0.939
37413W        W 1357   0.273  11.761  10.950
37414W        W 1358   5.745   7.666   1.374
37415W        W 1359  27.188  19.659   0.345
37416W        W 1360  29.939  12.195   2.721
37417W        W 1361  30.970  21.589  10.956
37418W        W 1362  16.310  44.439  12.342
37419W        W 1363   4.864  21.046   1.720
37420W        W 1364  33.946  28.982   0.294
37421W        W 1365  26.529  12.797   4.126
37422W        W 1366  12.251  43.865   0.736
37423W        W 1367  13.648  12.768   1.897
37424W        W 1368  40.880  11.211  13.475
37425W        W 1369   2.921  12.688  13.868
37426W        W 1370  12.729  41.462  11.471
37427W        W 1371  40.016  19.588  13.421
37428W        W 1372  42.884   1.815   4.725
37429W        W 1373  25.076  27.996   1.765
37430W        W 1374  10.352   6.746   3.643
37431W        W 1375  36.348  41.519  11.374
37432W        W 1376  23.058   8.662   0.758
37433W        W 1377  25.963  39.529   0.375
37434W        W 1378  40.827  35.559   2.178
37435W        W 1379  41.992  29.119  11.983
37436W        W 1380  35.871   6.378   1.729
37437W        W 1381  15.647  37.566   1.776
37438W        W 1382  40.872  30.147   2.187
37439W        W 1383  30.600   3.953  13.819
37440W        W 1384   7.263   9.854  12.988
37441W        W 1385  32.506  35.375   3.816
37442W        W 1386  37.952   7.252   2.850
37443W        W 1387  20.193  42.845  12.550
37444W        W 1388  24.035  31.909   2.816
37445W        W 1389  41.303  10.206   0.857
37446W        W 1390  32.489  39.341  11.494
37447W        W 1391  17.143  13.604   1.853
37448W        W 1392   7.319  14.153   0.902
37449W        W 1393  26.622   8.336  10.409
37450W        W 1394  26.088  17.116   2.670
37451W        W 1395  24.641  22.546  12.986
37452W        W 1396  38.042  18.233  14.277
37453W        W 1397   8.398  35.957   1.827
37454W        W 1398  36.558  36.380  13.331
37455W        W 1399  14.220  44.387  11.864
37456W        W 1400  25.106  20.063  12.060
37457W        W 1401   3.763  21.085  14.993
37458W        W 1402  39.473  37.379   5.232
37459W        W 1403   0.282   0.437  11.401
37460W        W 1404  27.944  26.046   2.380
37461W        W 1405  19.585  23.006   2.734
37462W        W 1406  40.505  34.940  13.420
37463W        W 1407  39.005   1.966   2.799
37464W        W 1408  40.994  34.059  12.069
37465W        W 1409  19.629  21.529   0.446
37466W        W 1410  34.384  39.060  13.330
37467W        W 1411  44.498   5.276  10.994
37468W        W 1412   2.238  11.315  12.479
37469W        W 1413  23.585   4.703  12.983
37470W        W 1414  19.095  32.929  14.873
37471W        W 1415  25.699  40.932  14.968
37472W        W 1416   3.408  14.674   4.732
37473W        W 1417  17.795  44.362  10.923
37474W        W 1418  17.179  38.446  14.479
37475W        W 1419  11.165  39.473   0.359
37476W        W 1420  14.786  18.284   4.825
37477W        W 1421  19.149  35.562   2.699
37478W        W 1422  15.112  35.368  12.517
37479W        W 1423  24.693   7.255  12.410
37480W        W 1424  24.225  36.893   3.829
37481W        W 1425  18.118  26.150   0.854
37482W        W 1426  14.118  39.339   3.259
37483W        W 1427  27.126  38.953  10.415
37484W        W 1428  42.950  32.978  13.355
37485W        W 1429  31.473   1.315   0.780
37486W        W 1430   0.335  28.460   2.669
37487W        W 1431  18.135  26.547  14.850
37488W        W 1432  28.150  28.610   3.819
37489W        W 1433  24.623   3.761  14.371
37490W        W 1434  38.881  33.990  14.489
37491W        W 1435  31.473   1.906  14.340
37492W        W 1436  32.097   6.239   1.216
37493W        W 1437  20.217  32.475   4.336
37494W        W 1438  42.924  20.097   4.350
37495W        W 1439  37.066  39.364  12.412
37496W        W 1440  35.056  10.821   3.644
37497W        W 1441   3.910  17.573   0.268
37498W        W 1442  14.314  42.509   2.182
37499W        W 1443  38.960  20.638  11.468
37500W        W 1444  33.032  42.314   1.303
37501W        W 1445  30.437  42.804  11.033
37502W        W 1446  24.647   6.879  14.977
37503W        W 1447  44.840   2.782  12.339
37504W        W 1448  26.478  16.176  12.391
37505W        W 1449  22.013   3.321  14.836
37506W        W 1450   3.281  42.889   1.903
37507W        W 1451  10.797  24.074  13.363
37508W        W 1452  19.587  29.141  13.924
37509W        W 1453  36.873  32.110  12.892
37510W        W 1454  42.793   8.668  11.885
37511W        W 1455   4.924  26.697   4.342
37512W        W 1456  42.311   9.197   3.382
37513W        W 1457  22.511  13.842  13.355
37514W        W 1458  39.045  12.773  13.837
37515W        W 1459  32.458  21.618  13.030
37516W        W 1460  14.211  28.932   0.244
37517W        W 1461   4.205  22.744  12.935
37518W        W 1462  30.036  13.295   3.861
37519W        W 1463   2.913  20.660  12.887
37520W        W 1464  23.179  15.286   3.355
37521W        W 1465  37.844  19.658  10.424
37522W        W 1466   0.798  28.058   3.160
37523W        W 1467  14.745  18.708  10.557
37524W        W 1468  29.018  13.148  10.544
37525W        W 1469  41.998  44.779   0.890
37526W        W 1470   6.319  26.605  14.862
37527W        W 1471  39.316  28.671  10.927
37528W        W 1472   3.821   6.384  13.542
37529W        W 1473  15.802  35.514  14.884
37530W        W 1474  21.127   0.861  13.032
37531W        W 1475   7.365  31.569   3.697
37532W        W 1476  18.670  13.706  14.015
37533W        W 1477  19.077  21.231   0.760
37534W        W 1478  41.522  29.623  12.371
37535W        W 1479  11.695   3.393   0.747
37536W        W 1480  31.545   1.757   3.312
37537W        W 1481  10.786  30.148   2.796
37538W        W 1482   6.229   2.783  13.806
37539W        W 1483  16.587  15.300   1.697
37540W        W 1484   6.376  17.264   4.767
37541W        W 1485  35.876  23.526   3.764
37542W        W 1486   3.449  11.636  13.043
37543W        W 1487  41.485  28.047   1.349
37544W        W 1488  15.637  41.436   2.878
37545W        W 1489  11.342  28.065  12.987
37546W        W 1490  18.284   8.191  11.540
37547W        W 1491  34.042   8.681  12.952
37548W        W 1492  25.505  23.573   4.619
37549W        W 1493   2.340  17.700   3.165
37550W        W 1494  41.877  12.755  12.520
37551W        W 1495  31.581  18.584   3.208
37552W        W 1496   1.401  44.984   0.469
37553W        W 1497  22.659  30.072  13.045
37554W        W 1498   5.327   6.219  10.559
37555W        W 1499   7.775  19.574   3.262
37556W        W 1500  22.997   1.767   4.624
37557W        W 1501   4.304  39.043  10.631
37558W        W 1502  19.149  39.401  12.372
37559W        W 1503  13.713  22.065  13.417
37560W        W 1504  42.321  28.498  10.934
37561W        W 1505  37.071  31.104   0.244
37562W        W 1506   6.356  32.628   0.859
37563W        W 1507  12.625  16.783  12.093
37564W        W 1508  35.408  43.302  12.401
37565W        W 1509  30.086  38.926  14.984
37566W        W 1510  34.473  28.059  14.022
37567W        W 1511   8.840  18.666   3.673
37568W        W 1512  39.534  22.011  14.511
37569W        W 1513   2.723  10.217  11.422
37570W        W 1514  20.538   3.392   3.170
37571W        W 1515  22.582  24.587  12.438
37572W        W 1516  34.929  34.903   2.783
37573W        W 1517  15.671  29.938   1.372
37574W        W 1518  24.076  29.583   4.204
37575W        W 1519  13.162   2.726  11.399
37576W        W 1520  15.797  10.208   0.741
37577W        W 1521  18.075  19.704  12.371
37578W        W 1522  18.670  28.094  11.883
37579W        W 1523  33.523  27.620  14.316
37580W        W 1524  43.490  10.681  12.960
37581W        W 1525  14.644  16.797  14.843
37582W        W 1526  11.664  14.619   0.454
37583W        W 1527   7.233  22.143   3.764
37584W        W 1528  16.694   5.691  13.360
37585W        W 1529  32.931  30.584   2.358
37586W        W 1530   3.460  43.827   3.800
37587W        W 1531   3.269  41.805  12.936
37588W        W 1532   6.268   9.888  12.486
37589W        W 1533  29.032  41.438  14.414
37590W        W 1534  28.181   7.733   3.191
37591W        W 1535  35.928  17.125   1.373
37592W        W 1536  32.635  27.193   1.319
37593W        W 1537  31.538  28.090  12.910
37594W        W 1538  19.597  38.525  12.363
37595W        W 1539  38.847  34.582   4.120
37596W        W 1540  31.098  12.678   0.755
37597W        W 1541  44.985  11.240   0.920
37598W        W 1542   0.478  30.138  10.955
37599W        W 1543   4.865  32.602   3.176
37600W        W 1544  29.046  36.046  12.922
37601W        W 1545  15.084  22.656  11.549
37602W        W 1546  32.017   0.290   2.238
37603W        W 1547  17.159  17.741  14.953
37604W        W 1548  11.300  18.547   2.724
37605W        W 1549   1.976  32.979  12.992
37606W        W 1550  24.184  20.653   4.268
37607W        W 1551   0.778   2.864  11.509
37608W        W 1552   9.159  17.769  12.034
37609W        W 1553  25.069   5.201  11.978
37610W        W 1554  17.134   8.833   1.358
37611W        W 1555  16.296  32.101   2.749
37612W        W 1556   1.827   3.933   4.691
37613W        W 1557  16.160  37.574   0.356
37614W        W 1558   3.335   6.920  12.470
37615W        W 1559  29.642   3.359  13.376
37616W        W 1560  31.990  37.337   3.845
37617W        W 1561  40.992   1.787  13.791
37618W        W 1562  28.147  19.558  12.517
37619W        W 1563   2.806  27.112   4.302
37620W        W 1564  37.471  26.657   0.777
37621W        W 1565  14.123  25.536  10.978
37622W        W 1566  25.979  38.832   2.806
37623W        W 1567  28.183  22.656  11.024
37624W        W 1568  36.888  37.920  11.978
37625W        W 1569  28.972  17.156   1.424
37626W        W 1570   4.754  26.208  11.875
37627W        W 1571  15.712  34.956   4.232
37628W        W 1572  39.984   0.764   4.653
37629W        W 1573  41.979   9.656   1.838
37630W        W 1574   6.851  37.555  10.896
37631W        W 1575  38.952  37.387  12.932
37632W        W 1576  16.314  14.626   2.201
37633W        W 1577  19.677  30.598  11.893
37634W        W 1578  14.317   4.893  13.527
37635W        W 1579  33.603  31.482  11.977
37636W        W 1580   0.432  30.130   2.817
37637W        W 1581   4.881  39.528   4.728
37638W        W 1582  37.475   1.783  14.021
37639W        W 1583   2.961   2.757   2.233
37640W        W 1584  12.737  41.295  13.370
37641W        W 1585   2.334   8.236  11.877
37642W        W 1586  13.226  39.064   0.319
37643W        W 1587  32.047  18.545   1.340
37644W        W 1588  21.229  15.767   2.243
37645W        W 1589   2.291  35.432  12.473
37646W        W 1590  21.224   4.804  13.314
37647W        W 1591  17.213  39.852   0.288
37648W        W 1592  13.221  39.487   1.264
37649W        W 1593   8.176  18.566   3.787
37650W        W 1594  35.916  20.264   3.217
37651W        W 1595  12.343  21.601  14.890
37652W        W 1596   3.236  41.794  13.443
37653W        W 1597   3.359   9.780   2.401
37654W        W 1598  22.122   2.794   4.224
37655W        W 1599  34.581  37.500   4.670
37656W        W 1600   6.752  36.585  11.531
37657W        W 1601   7.703  24.059  14.935
37658W        W 1602   9.155  24.013  14.820
37659W        W 1603  17.091  12.358   3.353
37660W        W 1604   4.846  13.704   2.261
37661W        W 1605   9.716  15.793   3.666
37662W        W 1606  30.598  17.304   3.761
37663W        W 1607  18.710   0.894   2.379
37664W        W 1608  21.587   3.414  11.601
37665W        W 1609  37.911  10.141  14.795
37666W        W 1610   0.987   6.778  14.337
37667W        W 1611  28.169  23.685  11.953
37668W        W 1612  39.866  13.645  13.871
37669W        W 1613  31.538   1.379  14.448
37670W        W 1614  23.719  16.090  11.110
37671W        W 1615   3.385  43.820  13.519
37672W        W 1616  10.648  20.751   1.320
37673W        W 1617   7.336  26.021  13.503
37674W        W 1618   0.348  24.165  10.614
37675W        W 1619  30.929   2.864  13.806
37676W        W 1620  14.221   6.755  14.428
37677W        W 1621  31.480  15.773   3.726
37678W        W 1622  11.354  13.143  13.320
37679W        W 1623  42.968  40.039  13.318
37680W        W 1624  30.414  38.497   1.433
37681W        W 1625   2.406  38.349   1.233
37682W        W 1626  18.774  12.668   5.317
37683W        W 1627  34.977  32.553   2.789
37684W        W 1628  16.138  31.455   3.695
37685W        W 1629  25.987   7.670   3.750
37686W        W 1630  37.078  34.908   3.219
37687W        W 1631  31.967  20.173  10.468
37688W        W 1632  40.363  41.493  10.563
37689W        W 1633  11.358  38.570  11.975
37690W        W 1634  12.129  30.008   5.134
37691W        W 1635   5.315   3.894   4.704
37692W        W 1636  16.081   9.341  11.112
37693W        W 1637  15.198  22.646   3.696
37694W        W 1638  34.051  35.358  11.571
37695W        W 1639  41.378  21.642  14.852
37696W        W 1640  23.578  42.952   0.383
37697W        W 1641   6.214  10.668  10.627
37698W        W 1642  15.322  36.477   3.193
37699W        W 1643  26.146  14.338  10.558
37700W        W 1644  40.976  19.696   4.114
37701W        W 1645   5.228  28.153  13.895
37702W        W 1646  10.785  18.680   1.410
37703W        W 1647   5.293  25.681  14.025
37704W        W 1648  26.660   2.445   0.471
37705W        W 1649   8.209  36.482   1.730
37706W        W 1650   0.400  11.280   3.773
37707W        W 1651   6.867   4.881  13.535
37708W        W 1652  31.489  30.129   1.316
37709W        W 1653   5.746  18.170   3.810
37710W        W 1654  12.220  42.464  13.972
37711W        W 1655  27.451  11.836  11.912
37712W        W 1656  24.644  40.376  13.511
37713W        W 1657  18.105  13.781  12.524
37714W        W 1658  38.940  40.548   4.306
37715W        W 1659  42.367  38.456   3.640
37716W        W 1660  16.723  18.697   1.733
37717W        W 1661   2.378  25.211  13.476
37718W        W 1662  35.973  10.325  13.045
37719W        W 1663  44.828  18.057   2.866
37720W        W 1664   0.398   2.381  11.908
37721W        W 1665  31.021  12.749   1.356
37722W        W 1666  20.592  33.573   3.731
37723W        W 1667  42.426  37.863  10.571
37724W        W 1668  33.129  43.834  11.077
37725W        W 1669   2.740  18.658  11.077
37726W        W 1670  23.589  34.571   1.281
37727W        W 1671  15.752  19.737  10.013
37728W        W 1672  16.714   6.340   3.192
37729W        W 1673  11.814  28.006   5.295
37730W        W 1674  27.051  10.873  14.011
37731W        W 1675  12.292  34.016  10.472
37732W        W 1676  35.860  41.331   0.798
37733W        W 1677   6.314  10.653   0.922
37734W        W 1678  30.136  33.125   1.303
37735W        W 1679  15.086  25.573  12.361
37736W        W 1680  33.442  11.680   9.957
37737W        W 1681  12.781  26.098  11.032
37738W        W 1682  14.665  31.577  13.512
37739W        W 1683  34.470  18.693   4.729
37740W        W 1684  32.965  19.249  12.059
37741W        W 1685  44.832  41.832   2.852
37742W        W 1686   4.912  27.190   1.380
37743W        W 1687   7.894   3.953  10.934
37744W        W 1688  27.602  27.025  13.432
37745W        W 1689  32.621  30.580   4.188
37746W        W 1690  28.952  18.196  14.823
37747W        W 1691  35.588  43.940   0.391
37748W        W 1692   5.764   7.732  13.474
37749W        W 1693  25.169  13.127  11.582
37750W        W 1694  24.224  26.677  11.443
37751W        W 1695  14.238  43.013   9.936
37752W        W 1696   0.340  39.377   4.740
37753W        W 1697  21.254   4.398   0.828
37754W        W 1698   8.339   4.363  13.912
37755W        W 1699  22.563  29.541  13.450
37756W        W 1700   4.226  11.643  10.593
37757W        W 1701  36.849  18.599  10.941
37758W        W 1702  26.185  19.654   5.132
37759W        W 1703  35.969  19.134   1.405
37760W        W 1704  36.585  41.406  11.975
37761W        W 1705  15.166  29.473   2.898
37762W        W 1706  27.457  10.792  10.642
37763W        W 1707  24.719  19.130   1.418
37764W        W 1708  13.629  19.645  12.944
37765W        W 1709   8.765  14.735  14.359
37766W        W 1710   5.778  20.192   1.832
37767W        W 1711  32.943   1.795  13.996
37768W        W 1712  33.560  24.657   2.680
37769W        W 1713  27.130  15.663   4.660
37770W        W 1714  41.942  38.494  10.445
37771W        W 1715  18.143   1.303  14.322
37772W        W 1716  14.269  26.198  12.358
37773W        W 1717  13.177  14.649   1.773
37774W        W 1718  41.831   0.482  14.480
37775W        W 1719  43.482   3.797  12.068
37776W        W 1720  22.030  18.765   2.418
37777W        W 1721   8.724  21.182   0.775
37778W        W 1722   1.804   5.286   0.813
37779W        W 1723  29.573  26.972  12.526
37780W        W 1724  24.719  39.810   2.308
37781W        W 1725  43.355  18.203   5.280
37782W        W 1726  38.388  35.078   3.205
37783W        W 1727   9.802  14.795  11.112
37784W        W 1728  14.591   1.948   2.263
37785W        W 1729  15.186  24.707   2.696
37786W        W 1730  33.900  11.310  12.504
37787W        W 1731   5.287  27.576   1.923
37788W        W 1732  12.250  12.271  13.924
37789W        W 1733  14.589  38.351  11.876
37790W        W 1734   4.875  23.575  11.074
37791W        W 1735  28.965  10.732  13.384
37792W        W 1736  20.530  44.851  13.820
37793W        W 1737   6.828  17.132   4.331
37794W        W 1738  14.601  11.323  12.038
37795W        W 1739   8.889   9.841  12.087
37796W        W 1740  35.914  35.446   1.850
37797W        W 1741  25.541  42.816  13.030
37798W        W 1742   6.285   5.922  12.845
37799W        W 1743  21.215  21.221   1.271
37800W        W 1744  28.099  19.773  13.441
37801W        W 1745   1.811  38.445   4.197
37802W        W 1746  33.985  11.358  11.940
37803W        W 1747  28.177  27.672  12.912
37804W        W 1748  18.173  24.723  10.113
37805W        W 1749   4.353  33.477  13.048
37806W        W 1750  26.671  21.612   2.229
37807W        W 1751  32.135  22.545   5.199
37808W        W 1752  11.250  35.568   4.693
37809W        W 1753  39.551  23.632   0.748
37810W        W 1754  29.658  30.498   1.215
37811W        W 1755   0.813  11.661  12.533
37812W        W 1756  26.986  24.123  13.332
37813W        W 1757   9.874  21.661  12.512
37814W        W 1758  33.988  43.335   3.366
37815W        W 1759  37.947  26.557   2.897
37816W        W 1760  42.337  39.017   0.400
37817W        W 1761  18.234   4.245  14.772
37818W        W 1762  34.116   7.205  10.525
37819W        W 1763   4.326   3.240   2.392
37820W        W 1764  41.408  34.998   3.188
37821W        W 1765   4.234  12.734   4.736
37822W        W 1766  29.943  31.473  11.945
37823W        W 1767  28.662  43.400   0.480
37824W        W 1768  36.568   1.798  11.412
37825W        W 1769   5.878   0.766   2.728
37826W        W 1770  21.715  39.549   2.854
37827W        W 1771   4.416  27.506  11.473
37828W        W 1772   9.808  10.187   4.355
37829W        W 1773  34.591  22.244  14.945
37830W        W 1774  39.529  42.932  13.397
37831W        W 1775  33.531   1.917  11.119
37832W        W 1776  32.461   8.374   1.308
37833W        W 1777  16.629  25.666  12.017
37834W        W 1778  41.868  14.608  14.402
37835W        W 1779  35.920  38.999   3.629
37836W        W 1780  27.485  32.130  12.424
37837W        W 1781  35.499  34.455   1.375
37838W        W 1782   0.442   8.402  13.314
37839W        W 1783  30.474   2.824  14.960
37840W        W 1784   6.780  36.511   1.920
37841W        W 1785   6.907  26.701  14.956
37842W        W 1786   2.273  41.982   3.338
37843W        W 1787   0.956  17.195  13.800
37844W        W 1788  44.433  15.128  14.501
37845W        W 1789  25.519  37.012   1.356
37846W        W 1790  43.903  38.848   3.156
37847W        W 1791   5.724   5.892  10.639
37848W        W 1792  35.076  12.667   5.322
37849W        W 1793  44.435  24.038  13.005
37850W        W 1794  40.821  30.968   0.307
37851W        W 1795  27.048   3.903   2.323
37852W        W 1796  37.864   3.444   0.426
37853W        W 1797   1.384  19.221  14.395
37854W        W 1798   3.758  22.736   2.781
37855W        W 1799  17.137  12.243  13.970
37856W        W 1800  28.067  26.512   0.778
37857W        W 1801  32.086  17.079  13.467
37858W        W 1802  26.547  27.455  14.939
37859W        W 1803  44.264  38.557  10.630
37860W        W 1804  33.519  30.132  14.987
37861W        W 1805  17.683  43.322  12.536
37862W        W 1806   6.792  44.318  12.830
37863W        W 1807  34.487   3.739  11.011
37864W        W 1808   6.231   8.171  13.489
37865W        W 1809  17.728   4.280  11.924
37866W        W 1810  26.989  12.728  10.559
37867W        W 1811  29.148  14.298  14.372
37868W        W 1812  31.515  32.488   4.166
37869W        W 1813   3.365  36.066   4.620
37870W        W 1814  24.618  28.178   2.878
37871W        W 1815  15.586   2.296  11.515
37872W        W 1816  18.565  32.426   1.317
37873W        W 1817  25.591  18.133   1.313
37874W        W 1818   7.188  18.204  11.900
37875W        W 1819   9.207  22.166   2.409
37876W        W 1820  39.379  43.947   0.941
37877W        W 1821   0.875  10.248  11.006
37878W        W 1822  31.952  22.728   1.275
37879W        W 1823   5.767  13.766   1.827
37880W        W 1824  39.062  39.846   3.822
37881W        W 1825   4.433  11.750  10.947
37882W        W 1826  39.867   8.878  11.866
37883W        W 1827  19.668  28.012   4.692
37884W        W 1828  16.219  30.951  10.901
37885W        W 1829   0.420   4.397  12.855
37886W        W 1830  21.658  26.176  12.001
37887W        W 1831  30.581   5.894  11.031
37888W        W 1832  40.025  42.488  10.444
37889W        W 1833  40.325  40.461   2.755
37890W        W 1834  39.026  13.268  12.087
37891W        W 1835  36.514  44.773   4.234
37892W        W 1836  37.535   6.354   3.213
37893W        W 1837  24.697   2.449   4.722
37894W        W 1838  12.731  24.539   0.398
37895W        W 1839  18.748  11.342   2.871
37896W        W 1840  38.366   7.837  12.435
37897W        W 1841  16.640  29.600  13.940
37898W        W 1842  23.025  11.695  11.973
37899W        W 1843  44.487  14.335  10.535
37900W        W 1844  26.058   2.244   0.924
37901W        W 1845  31.940   2.393  12.421
37902W        W 1846  10.244  18.232  11.872
37903W        W 1847  16.706  40.509   3.668
37904W        W 1848  40.866  43.814  10.557
37905W        W 1849  36.872  32.563  12.931
37906W        W 1850  34.970   7.687   3.201
37907W        W 1851  34.074  32.138   2.333
37908W        W 1852   3.830  15.656  13.381
37909W        W 1853  38.496   2.411  12.866
37910W        W 1854   8.390  38.836  13.523
37911W        W 1855   6.420  43.485  10.895
37912W        W 1856  41.461  18.141  11.981
37913W        W 1857  24.607   1.745   3.349
37914W        W 1858   3.891   5.866   1.898
37915W        W 1859   2.849  40.321   3.220
37916W        W 1860  15.781  40.502  11.867
37917W        W 1861  43.513  17.229  11.912
37918W        W 1862  10.307  39.415  12.352
37919W        W 1863  44.332  41.829   4.669
37920W        W 1864  38.348  29.093   1.750
37921W        W 1865  12.663   6.856  14.026
37922W        W 1866  23.606  24.089  13.885
37923W        W 1867  18.095  10.377   5.293
37924W        W 1868  26.016  42.792  10.977
37925W        W 1869  22.019  13.148   3.364
37926W        W 1870  15.779  16.169   4.119
37927W        W 1871  36.960   0.395  14.470
37928W        W 1872   4.275  27.654   2.381
37929W        W 1873  28.940  38.048  13.483
37930W        W 1874  38.353  33.500   2.762
37931W        W 1875  34.387  44.819   0.250
37932W        W 1876  38.036  40.467  13.929
37933W        W 1877  34.491  20.561  10.911
37934W        W 1878  12.277  40.048  12.364
37935W        W 1879  42.331   4.855  11.419
37936W        W 1880   6.223   8.360   0.359
37937W        W 1881  27.158  25.037  13.059
37938W        W 1882  30.129  30.056  12.460
37939W        W 1883  21.109  40.450   2.745
37940W        W 1884  25.691  38.037   3.640
37941W        W 1885  38.385  22.234  13.996
37942W        W 1886  30.909  41.945  12.940
37943W        W 1887   9.217  14.262   5.236
37944W        W 1888  33.547  28.954   0.874
37945W        W 1889  13.682  34.885   4.302
37946W        W 1890  16.693   0.400  13.887
37947W        W 1891  29.041   9.819   1.290
37948W        W 1892  20.737  12.197  11.027
37949W        W 1893  43.823  39.560   4.714
37950W        W 1894   7.209  25.202  10.589
37951W        W 1895  41.908  25.049   4.683
37952W        W 1896  39.440  31.465   0.871
37953W        W 1897  28.615  18.099  11.054
37954W        W 1898  34.992  16.585   0.915
37955W        W 1899  41.036  18.178   2.867
37956W        W 1900  10.669  19.269  14.018
37957W        W 1901   7.307  23.709   1.726
37958W        W 1902   9.375  37.396   4.185
37959W        W 1903   9.158  39.852  13.907
37960W        W 1904  36.055  37.982  12.456
37961W        W 1905  10.747   6.366  12.975
37962W        W 1906  22.032  27.673  11.447
37963W        W 1907  18.663  26.481  11.406
37964W        W 1908  30.011  29.021  14.475
37965W        W 1909  21.536  31.608  12.935
37966W        W 1910  15.585  17.209   5.163
37967W        W 1911  15.179  22.747   2.741
37968W        W 1912  35.874  13.223   5.193
37969W        W 1913   7.737  31.013  12.918
37970W        W 1914   7.704  20.680   2.893
37971W        W 1915  34.115  28.579  10.452
37972W        W 1916   9.794  20.612  11.070
37973W        W 1917  36.971  33.383  11.564
37974W        W 1918  33.429  29.530  12.376
37975W        W 1919  39.447  24.672  14.363
37976W        W 1920  10.231  13.273  12.855
37977W        W 1921  32.589  17.232   0.334
37978W        W 1922  30.120   9.174   1.260
37979W        W 1923  11.762  25.986  13.490
37980W        W 1924  34.968  17.194   0.874
37981W        W 1925  18.556  14.180  14.966
37982W        W 1926  22.711   7.258  13.799
37983W        W 1927   0.421  37.489   1.425
37984W        W 1928  25.539  39.017  11.979
37985W        W 1929  37.505  20.187  12.083
37986W        W 1930   4.774  33.004   0.317
37987W        W 1931  24.206  27.663   1.328
37988W        W 1932  18.269  19.117   0.273
37989W        W 1933   6.874  12.227   1.820
37990W        W 1934  16.720  14.286   4.328
37991W        W 1935  23.546  41.926  14.983
37992W        W 1936  23.030  28.604  14.004
37993W        W 1937  26.963  37.456   2.663
37994W        W 1938   2.800  38.499   4.232
37995W        W 1939  42.402  24.043  13.796
37996W        W 1940   9.652  43.885  11.876
37997W        W 1941  38.827  31.562  12.449
37998W        W 1942  44.347  24.038   5.168
37999W        W 1943  34.094  42.841   1.856
38000W        W 1944  38.393  13.117   4.247
38001W        W 1945   9.304   9.359   4.311
38002W        W 1946  42.851  13.765  13.970
38003W        W 1947  12.307  14.631   3.188
38004W        W 1948  29.496  13.284   2.364
38005W        W 1949  33.389  32.558  10.414
38006W        W 1950  22.152   7.713   0.865
38007W        W 1951   2.252  20.608  14.876
38008W        W 1952  38.496  11.735  13.366
38009W        W 1953  24.101  30.921   3.722
38010W        W 1954  22.509  39.366  14.895
38011W        W 1955   5.275   2.258   1.349
38012W        W 1956  33.048  39.460  11.442
38013W        W 1957  20.069   5.266  12.045
38014W        W 1958  18.756  36.513   0.856
38015W        W 1959   8.333   0.297   0.806
38016W        W 1960  10.365  27.543  12.965
38017W        W 1961  26.041   9.264  13.527
38018W        W 1962  20.183  30.008   3.742
38019W        W 1963  17.717  27.019  14.018
38020W        W 1964  22.560   0.350  13.025
38021W        W 1965  18.633  35.031  12.357
38022W        W 1966  17.673  13.624   1.374
38023W        W 1967   5.708  16.809  12.079
38024W        W 1968  40.494  25.194   5.296
38025W        W 1969   3.259   3.455   0.308
38026W        W 1970   0.958  33.985  14.868
38027W        W 1971   1.942  24.143  10.601
38028W        W 1972  24.171  44.303  10.011
38029W        W 1973  25.137  16.085   1.886
38030W        W 1974  19.168  13.133   0.832
38031W        W 1975   3.724  23.649   4.828
38032W        W 1976  34.521   0.370  11.410
38033W        W 1977  19.137  14.095   3.202
38034W        W 1978   2.412  39.952  12.572
38035W        W 1979  32.943  43.467   0.368
38036W        W 1980   0.851  27.150  14.284
38037W        W 1981  39.521  43.782   2.298
38038W        W 1982  26.142  28.592  12.564
38039W        W 1983   7.205  27.554   1.382
38040W        W 1984  39.844  15.290  13.992
38041W        W 1985   2.386  13.639   3.362
38042W        W 1986   2.925  13.769   3.375
38043W        W 1987  32.983   8.252  12.096
38044W        W 1988  18.207  43.829   4.128
38045W        W 1989  35.091  28.611  11.953
38046W        W 1990  12.849  15.652  12.426
38047W        W 1991  27.086  27.121  12.549
38048W        W 1992  26.477  17.137  12.916
38049W        W 1993   9.654  29.050   1.405
38050W        W 1994  11.189   9.237  13.017
38051W        W 1995   8.326  24.141  11.123
38052W        W 1996   4.335  18.722  14.437
38053W        W 1997  17.715  37.417  14.790
38054W        W 1998   1.317   2.926   2.875
38055W        W 1999  28.108  25.473   0.249
38056W        W 2000  40.332   5.784   4.656
38057W        W 2001   4.368  20.246   1.251
38058W        W 2002  40.946  43.929  14.387
38059W        W 2003   8.884  30.993   4.209
38060W        W 2004  22.056  28.454   0.433
38061W        W 2005  14.192  15.579  14.395
38062W        W 2006  43.807  34.057  13.394
38063W        W 2007  37.480   4.868  12.343
38064W        W 2008   0.446  15.606  11.549
38065W        W 2009   7.270  40.409   3.304
38066W        W 2010  28.100  12.681  12.506
38067W        W 2011   8.867   7.726   4.701
38068W        W 2012  24.642  18.286  14.815
38069W        W 2013  38.917  29.430   2.267
38070W        W 2014  30.627  23.490   4.339
38071W        W 2015  31.603  37.580   4.702
38072W        W 2016  20.266  20.176  10.918
38073W        W 2017  24.030  37.474  12.863
38074W        W 2018  38.538  30.437   2.731
38075W        W 2019  27.677  41.860   2.679
38076W        W 2020  36.047  32.973   0.859
38077W        W 2021   5.850  25.687   0.897
38078W        W 2022  19.598   0.798  13.798
38079W        W 2023   1.342  36.867   3.241
38080W        W 2024  27.511  31.020  12.479
38081W        W 2025   9.164  30.907   2.371
38082W        W 2026  44.452  33.990  11.031
38083W        W 2027  29.644  10.365   2.803
38084W        W 2028  14.659  21.251  11.117
38085W        W 2029  24.200  29.434   2.673
38086W        W 2030  41.327  19.045   2.750
38087W        W 2031  31.622  34.523  14.890
38088W        W 2032   1.364  21.718  11.601
38089W        W 2033   5.820  13.171   3.675
38090W        W 2034  32.008  34.489   2.202
38091W        W 2035  21.686  31.453  14.468
38092W        W 2036  41.939  18.783  11.876
38093W        W 2037  12.803  37.991  14.303
38094W        W 2038  29.544  18.785  10.472
38095W        W 2039  35.053  37.035  11.075
38096W        W 2040  35.598  12.630  11.911
38097W        W 2041   7.695  24.723   0.383
38098W        W 2042  35.359   2.455  11.477
38099W        W 2043   5.220  14.830   0.426
38100W        W 2044  16.755  32.077   2.385
38101W        W 2045  38.058  10.832  11.499
38102W        W 2046  34.927  39.919   1.221
38103W        W 2047  40.895  16.713  12.365
38104W        W 2048  11.841  26.103  10.945
38105W        W 2049  17.589  15.252  14.349
38106W        W 2050   8.403  11.222   1.834
38107W        W 2051  18.149   7.291  13.993
38108W        W 2052  24.089  35.455   4.651
38109W        W 2053  35.094   8.202  14.326
38110W        W 2054  44.475  25.646  11.422
38111W        W 2055  19.763  20.526  14.764
38112W        W 2056  34.949  24.149  11.541
38113W        W 2057  26.624   1.927   2.339
38114W        W 2058  14.802   6.428  10.119
38115W        W 2059   6.686  16.752   2.684
38116W        W 2060  26.551  24.045  14.978
38117W        W 2061  13.631  10.722   3.149
38118W        W 2062   6.407  16.778   4.275
38119W        W 2063  32.532   3.757  11.031
38120W        W 2064  30.464  30.137  10.541
38121W        W 2065  41.834  30.541   4.704
38122W        W 2066  10.328  28.076  10.915
38123W        W 2067  23.232  20.081   3.207
38124W        W 2068  17.087   5.907  13.531
38125W        W 2069   1.404  27.516  11.927
38126W        W 2070   2.351  28.999   4.711
38127W        W 2071  12.220  23.124  10.606
38128W        W 2072  15.687  12.765   4.653
38129W        W 2073  12.809  25.594  10.623
38130W        W 2074  35.100   5.837   3.371
38131W        W 2075   1.750   1.737  13.393
38132W        W 2076  42.905  28.938   1.756
38133W        W 2077  28.662   8.753  10.440
38134W        W 2078   1.418  35.930  13.048
38135W        W 2079  42.424   7.693   2.410
38136W        W 2080  33.439  37.908  12.495
38137W        W 2081   8.230  40.964   2.832
38138W        W 2082  38.879  15.193  10.458
38139W        W 2083  15.579  42.776   0.321
38140W        W 2084  13.812   5.823   0.842
38141W        W 2085  24.000  35.452  11.424
38142W        W 2086  18.069  36.458   0.262
38143W        W 2087   2.740   7.287   3.217
38144W        W 2088  23.159  11.663   3.790
38145W        W 2089  37.908   5.388  14.024
38146W        W 2090  22.740  44.331  14.503
38147W        W 2091  25.647  37.946  12.881
38148W        W 2092   5.354  13.673   0.784
38149W        W 2093   8.887   4.928   0.793
38150W        W 2094  16.153   6.881   0.472
38151W        W 2095  28.035  27.629   2.208
38152W        W 2096  43.811  11.694  14.003
38153W        W 2097   8.846  33.919  13.454
38154W        W 2098   4.724  18.259  10.100
38155W        W 2099  25.015  30.991   4.737
38156W        W 2100  11.369  13.219  13.829
38157W        W 2101  41.995  25.536  12.833
38158W        W 2102  23.047  16.590  12.440
38159W        W 2103  11.784  38.900   0.415
38160W        W 2104  36.994  14.632  14.500
38161W        W 2105  38.435  27.139  14.026
38162W        W 2106  27.550  19.724  14.447
38163W        W 2107  38.045  22.226   1.328
38164W        W 2108  43.825   4.766  14.357
38165W        W 2109  16.254  25.018   1.833
38166W        W 2110  38.922  36.958  14.008
38167W        W 2111  20.727  16.697  10.578
38168W        W 2112  17.197  30.641   2.294
38169W        W 2113  26.139  41.459  13.483
38170W        W 2114   8.713  44.937  13.409
38171W        W 2115  37.368  21.134  13.508
38172W        W 2116  31.133  28.060   4.285
38173W        W 2117  41.006  12.751   4.324
38174W        W 2118  33.895  41.343   1.210
38175W        W 2119   0.351  29.016  13.524
38176W        W 2120  30.528  40.961  10.597
38177W        W 2121  37.000  44.427  11.898
38178W        W 2122   2.340  15.628   4.169
38179W        W 2123  31.032   1.890  14.925
38180W        W 2124  13.324   8.304   1.275
38181W        W 2125  24.108   9.785  11.000
38182W        W 2126  14.630  19.686   3.670
38183W        W 2127  15.811  18.751   4.335
38184W        W 2128  21.612  33.078   0.744
38185W        W 2129  31.584  29.545   4.776
38186W        W 2130  32.401   6.426  12.048
38187W        W 2131  24.128  39.349  11.456
38188W        W 2132  22.036   0.956   2.387
38189W        W 2133   1.360  27.654   3.268
38190W        W 2134  21.718   7.290  12.352
38191W        W 2135  21.141  26.980  14.812
38192W        W 2136  38.339  14.210  14.975
38193W        W 2137  34.592   7.865  14.377
38194W        W 2138  13.673  32.047  14.794
38195W        W 2139   7.203   7.367   3.861
38196W        W 2140  14.687  20.242  13.872
38197W        W 2141  13.802  31.064   0.936
38198W        W 2142  13.239  11.713  14.930
38199W        W 2143  26.079  42.391  11.443
38200W        W 2144  32.949  10.363  12.406
38201W        W 2145  11.161   0.454   0.284
38202W        W 2146  12.758  39.908  10.906
38203W        W 2147  28.637  35.968  13.815
38204W        W 2148   5.303  36.410   0.777
38205W        W 2149  27.094   5.847  12.477
38206W        W 2150  24.094  39.820   3.324
38207W        W 2151  25.565   3.405  11.475
38208W        W 2152   8.339  14.633  12.510
38209W        W 2153  28.158  13.772   4.816
38210W        W 2154  36.867  19.613   4.615
38211W        W 2155  30.475  21.073   2.879
38212W        W 2156   5.711  21.631   2.682
38213W        W 2157   3.748  25.640  14.764
38214W        W 2158  20.079  34.882  12.092
38215W        W 2159  26.001  24.190  13.061
38216W        W 2160  28.989  15.650  12.354
38217W        W 2161  31.012   5.207   1.898
38218W        W 2162  41.885  34.562  14.767
38219W        W 2163  42.388  25.966   2.820
38220W        W 2164  32.894  12.318  10.484
38221W        W 2165   1.884   3.356   1.342
38222W        W 2166  22.642  39.434   4.643
38223W        W 2167  18.578  26.978   0.389
38224W        W 2168   7.765  11.830   3.691
38225W        W 2169   0.350  35.037   2.809
38226W        W 2170  38.534  38.402  10.909
38227W        W 2171  25.547  21.600  13.469
38228W        W 2172   6.826  33.406   0.754
38229W        W 2173  42.464  17.298   2.714
38230W        W 2174  32.923  27.665  10.613
38231W        W 2175  15.320  16.239   1.438
38232W        W 2176  41.536  20.169   4.193
38233W        W 2177  30.027  18.698  14.967
38234W        W 2178  29.975  12.223  12.014
38235W        W 2179  14.332  10.810   1.288
38236W        W 2180  44.428  34.872  14.392
38237W        W 2181  43.425  18.748  12.546
38238W        W 2182  28.488  15.106  11.860
38239W        W 2183  43.783  31.413  11.128
38240W        W 2184  44.884  24.043  14.472
38241W        W 2185  12.333  30.003  10.480
38242W        W 2186  38.837  25.592   4.799
38243W        W 2187  36.887  22.159  12.832
38244W        W 2188   5.835  12.742  13.809
38245W        W 2189  40.952  26.076   1.225
38246W        W 2190  20.610  16.093   4.234
38247W        W 2191  30.474   6.253   3.709
38248W        W 2192  27.995  18.609  14.999
38249W        W 2193  22.542  30.581   4.278
38250W        W 2194   2.819  27.632  12.350
38251W        W 2195   5.347  14.644  10.421
38252W        W 2196  25.121   4.266   4.661
38253W        W 2197  22.538   7.261   0.838
38254W        W 2198  28.576  44.287   4.765
38255W        W 2199  29.948  31.571  11.377
38256W        W 2200  26.083  14.683  11.110
38257W        W 2201  30.968  15.306   2.249
38258W        W 2202  41.905  34.033   3.781
38259W        W 2203  18.769  31.601   3.629
38260W        W 2204  35.369  24.215   4.235
38261W        W 2205  19.230   1.252   4.165
38262W        W 2206   0.745  44.397   4.350
38263W        W 2207  25.669  11.208   2.331
38264W        W 2208  29.654  30.554  13.889
38265W        W 2209  41.872  25.036   4.299
38266W        W 2210   2.400  15.716  14.509
38267W        W 2211  11.243  15.800  12.911
38268W        W 2212  22.737   2.364   4.704
38269W        W 2213  25.162  19.632  12.905
38270W        W 2214  22.688   4.424   9.947
38271W        W 2215  34.528   2.298   0.313
38272W        W 2216  25.590  40.334  11.536
38273W        W 2217  19.703  33.002  14.951
38274W        W 2218  30.605  15.614  10.455
38275W        W 2219  27.452  18.755   2.857
38276W        W 2220  28.440   6.183   3.184
38277W        W 2221  23.663  34.010  14.513
38278W        W 2222  20.568  24.550   1.303
38279W        W 2223   1.287  19.628  13.339
38280W        W 2224   9.707  26.680  10.892
38281W        W 2225   1.293  29.602  13.526
38282W        W 2226  22.555   8.335   4.772
38283W        W 2227  41.011  13.616   3.232
38284W        W 2228   4.773  29.505   2.215
38285W        W 2229  27.165  25.609  12.339
38286W        W 2230  39.507  12.769   4.830
38287W        W 2231  24.204  24.198  13.825
38288W        W 2232  38.825  18.746   5.253
38289W        W 2233   1.318  20.058  14.365
38290W        W 2234  18.067   5.244  11.013
38291W        W 2235   2.339  39.975  13.910
38292W        W 2236  27.044  17.777  11.473
38293W        W 2237  33.523  43.910  12.046
38294W        W 2238  25.633   9.186  13.010
38295W        W 2239   7.254  38.947  11.520
38296W        W 2240  42.838  44.913   3.736
38297W        W 2241  24.592  27.128   3.284
38298W        W 2242  23.715  12.820   2.324
38299W        W 2243   1.823   9.210  13.933
38300W        W 2244  34.493  28.493  14.467
38301W        W 2245  24.482  24.648   0.340
38302W        W 2246  32.097  13.196  10.644
38303W        W 2247  19.208  18.151   4.617
38304W        W 2248   3.895  11.275   1.923
38305W        W 2249  31.532  19.551   2.817
38306W        W 2250  22.620  41.912  14.505
38307W        W 2251   7.815   8.209   2.766
38308W        W 2252   0.784  33.425   1.741
38309W        W 2253   4.851  20.076   2.768
38310W        W 2254  12.764  31.622   0.429
38311W        W 2255  23.085  42.313  10.537
38312W        W 2256  22.227  24.113   1.877
38313W        W 2257  44.440   1.239   3.636
38314W        W 2258  25.686   3.785   0.406
38315W        W 2259  43.877  25.569  11.440
38316W        W 2260  16.098  29.056   1.361
38317W        W 2261  43.972  12.147  12.984
38318W        W 2262  28.970  19.206   2.350
38319W        W 2263  30.433  27.147   3.757
38320W        W 2264  30.007  43.364   0.250
38321W        W 2265  44.271  33.531   0.931
38322W        W 2266  19.276   3.911   2.708
38323W        W 2267  24.983  35.956  11.873
38324W        W 2268   7.801  16.097  13.923
38325W        W 2269  43.937  16.214  11.973
38326W        W 2270  42.510  32.098  13.984
38327W        W 2271  37.832  19.646  11.919
38328W        W 2272  22.697  43.929  12.017
38329W        W 2273  14.656  32.456  14.956
38330W        W 2274  28.117  11.316   1.772
38331W        W 2275  24.497   6.199   1.779
38332W        W 2276  21.178  16.695   4.741
38333W        W 2277  43.003   9.206  13.322
38334W        W 2278  17.578  12.620   0.435
38335W        W 2279  44.380  37.562   0.306
38336W        W 2280  17.158   8.247  11.107
38337W        W 2281  30.530  36.946   4.657
38338W        W 2282  30.519   2.324  14.803
38339W        W 2283  34.986  18.646  10.935
38340W        W 2284  30.648  44.500   0.940
38341W        W 2285   6.705  16.153  12.540
38342W        W 2286  36.092  19.616  13.973
38343W        W 2287   1.366   9.163  14.843
38344W        W 2288  37.380  18.587  14.801
38345W        W 2289  32.419  32.511   0.368
38346W        W 2290  33.079  28.606   4.773
38347W        W 2291  32.438  34.109  13.905
38348W        W 2292   0.839  10.374   0.820
38349W        W 2293   7.373  29.960  12.055
38350W        W 2294  38.870  16.635   3.305
38351W        W 2295  27.534  26.566  12.994
38352W        W 2296  20.639   8.788   4.126
38353W        W 2297  11.836  32.409  10.602
38354W        W 2298  39.546  20.162  14.284
38355W        W 2299  26.639  18.726  11.051
38356W        W 2300  19.119  16.680  14.872
38357W        W 2301   3.755  35.856  11.521
38358W        W 2302  11.820  32.908   0.880
38359W        W 2303   8.334  10.271  14.884
38360W        W 2304  39.021  43.434   3.384
38361W        W 2305   4.254  27.052  11.581
38362W        W 2306   5.404  44.352   4.774
38363W        W 2307  27.655   1.841   0.927
38364W        W 2308  26.669  23.658   4.603
38365W        W 2309   1.763  22.008  14.848
38366W        W 2310  42.979  11.183  10.568
38367W        W 2311  32.472  33.071  12.044
38368W        W 2312  42.365   6.257  12.919
38369W        W 2313  25.007  44.777   4.284
38370W        W 2314   0.266  17.696   4.766
38371W        W 2315  34.999  11.200   4.716
38372W        W 2316   6.427  38.840   0.799
38373W        W 2317  35.576  41.980   2.292
38374W        W 2318   5.899  34.515   2.206
38375W        W 2319  27.965  43.469   4.122
38376W        W 2320  38.912  32.097   2.807
38377W        W 2321  17.267   5.734   4.279
38378W        W 2322  40.891  41.036  14.854
38379W        W 2323   8.309  26.566  12.530
38380W        W 2324  43.886  10.186   4.312
38381W        W 2325  41.911  35.981  10.993
38382W        W 2326  31.069  34.465  13.387
38383W        W 2327   7.225  43.300  13.806
38384W        W 2328  15.810  32.395  12.030
38385W        W 2329   9.831  27.074   3.312
38386W        W 2330  24.074  11.694   2.286
38387W        W 2331  15.218  31.983  14.435
38388W        W 2332  25.024   8.705   4.776
38389W        W 2333  12.267   5.290   4.341
38390W        W 2334  31.947  16.192  10.523
38391W        W 2335  37.892  36.013  13.977
38392W        W 2336  24.977  39.809  10.439
38393W        W 2337   4.379  38.429  14.402
38394W        W 2338   0.850  23.707  11.492
38395W        W 2339  13.181   5.690   4.211
38396W        W 2340   4.374  26.961  11.056
38397W        W 2341  10.377  15.651   0.737
38398W        W 2342   5.364  42.463  10.960
38399W        W 2343  39.556   8.826  12.361
38400W        W 2344   8.224  25.681  13.851
38401W        W 2345  34.120  23.616  10.436
38402W        W 2346   7.804  14.631  11.092
38403W        W 2347  39.820  17.786  12.876
38404W        W 2348  28.181  26.951   0.430
38405W        W 2349  37.906  37.399   2.713
38406W        W 2350  10.294  41.027   1.241
38407W        W 2351  34.394  41.805  14.790
38408W        W 2352  22.217  21.117   0.467
38409W        W 2353  35.454  25.711   4.174
38410W        W 2354  42.888  10.148   0.246
38411W        W 2355  33.460   0.420  14.905
38412W        W 2356  17.173  12.122   0.374
38413W        W 2357   8.897   9.664  11.518
38414W        W 2358  34.609  14.654   0.879
38415W        W 2359  18.743  11.642   3.371
38416W        W 2360  29.642  34.386   0.958
38417W        W 2361  27.940  29.953   2.663
38418W        W 2362  36.382  41.837  10.921
38419W        W 2363   0.786  18.677  12.381
38420W        W 2364  36.869  19.605   2.196
38421W        W 2365  41.297  13.178  13.990
38422W        W 2366   0.883  30.091   1.899
38423W        W 2367   0.833  19.653   3.161
38424W        W 2368   6.833  15.247  14.950
38425W        W 2369  33.489  30.632  11.514
38426W        W 2370   8.241   6.713   3.778
38427W        W 2371  12.305  24.982  11.502
38428W        W 2372   6.796  34.452   0.392
38429W        W 2373  11.623  25.041   0.260
38430W        W 2374   5.312  40.334   1.701
38431W        W 2375  19.695   7.894  12.487
38432W        W 2376  16.254  17.742  14.888
38433W        W 2377  21.634  15.115  10.520
38434W        W 2378  40.442  39.315   1.345
38435W        W 2379  20.653  24.551   3.673
38436W        W 2380  16.679  16.309   1.872
38437W        W 2381  29.605   8.230   3.635
38438W        W 2382  26.551  41.860   4.686
38439W        W 2383  13.325  44.820   0.816
38440W        W 2384  10.150  41.472  11.115
38441W        W 2385   5.849  44.387  11.374
38442W        W 2386   0.445  38.459  12.874
38443W        W 2387  43.827   2.263   1.701
38444W        W 2388  39.853  38.503   1.706
38445W        W 2389  43.485  41.861  14.026
38446W        W 2390  34.476   2.299  10.478
38447W        W 2391  35.553  35.422   4.124
38448W        W 2392  35.030  20.767   3.790
38449W        W 2393   5.839  41.937   1.922
38450W        W 2394  36.869  40.017  11.906
38451W        W 2395  31.028  13.771  11.904
38452W        W 2396  28.594   9.764  14.298
38453W        W 2397  15.717  22.095  11.025
38454W        W 2398  44.428  13.819   2.194
38455W        W 2399  27.093  36.554   2.770
38456W        W 2400  20.701  14.271  13.473
38457W        W 2401   8.716  26.521   3.653
38458W        W 2402  18.667  30.471  10.014
38459W        W 2403  12.698   8.710  12.005
38460W        W 2404  35.394  15.727   0.817
38461W        W 2405  10.854   7.262  12.429
38462W        W 2406  19.066  38.453   3.757
38463W        W 2407   8.362  15.328   3.150
38464W        W 2408   2.264  30.612   2.303
38465W        W 2409  20.555  41.915  11.101
38466W        W 2410  32.522   2.804   4.200
38467W        W 2411  19.572  10.759  11.601
38468W        W 2412  28.452   2.266   2.202
38469W        W 2413  42.883  27.551  14.795
38470W        W 2414  28.186   6.229  14.021
38471W        W 2415  27.956  26.987   0.761
38472W        W 2416  30.428  24.485  12.945
38473W        W 2417   0.474  24.118   3.797
38474W        W 2418  43.974  21.743   2.353
38475W        W 2419  14.197   2.821  13.009
38476W        W 2420   2.454  31.460  14.502
38477W        W 2421  17.772  28.170  14.798
38478W        W 2422   2.885  30.155  13.372
38479W        W 2423  40.389  13.694   1.273
38480W        W 2424  42.009  29.585  14.951
38481W        W 2425  35.374  25.545  13.920
38482W        W 2426  20.153   7.717  10.594
38483W        W 2427   3.720  32.515  10.539
38484W        W 2428  13.732   6.274  14.768
38485W        W 2429   2.783  25.709   4.619
38486W        W 2430  33.102  41.864  11.515
38487W        W 2431   9.205  38.345   0.373
38488W        W 2432  32.475  15.120   3.650
38489W        W 2433  25.641  31.065  11.053
38490W        W 2434  13.200  23.195   3.810
38491W        W 2435  29.562  11.253  12.351
38492W        W 2436  13.688   3.745  12.396
38493W        W 2437  39.457   9.740   0.395
38494W        W 2438  33.876  44.457  12.928
38495W        W 2439  11.628  33.064  14.782
38496W        W 2440  44.986  19.757  12.362
38497W        W 2441   1.942   3.439  13.381
38498W        W 2442  43.961  40.330   0.327
38499W        W 2443  12.118  22.662  11.907
38500W        W 2444  18.206  20.709   3.157
38501W        W 2445  37.387  23.238  13.797
38502W        W 2446   3.416  23.623  14.805
38503W        W 2447  15.231   3.310   2.756
38504W        W 2448  33.533  35.467  13.828
38505W        W 2449  33.535  25.184  10.024
38506W        W 2450  28.011  38.850  11.498
38507W        W 2451  19.613  31.408   3.856
38508W        W 2452  37.045  28.529  12.422
38509W        W 2453  27.567   2.316  13.010
38510W        W 2454  14.300  30.497   2.180
38511W        W 2455  34.384  25.997  11.484
38512W        W 2456   2.822  35.869  14.837
38513W        W 2457   2.236  21.075  13.505
38514W        W 2458  27.638  13.106  14.893
38515W        W 2459   4.289  29.573   0.746
38516W        W 2460  23.663  24.479  14.958
38517W        W 2461  39.414   7.322  11.018
38518W        W 2462   2.337  17.695   4.678
38519W        W 2463  42.355  11.296  12.927
38520W        W 2464  36.519  26.959   2.184
38521W        W 2465  18.197  29.592  14.381
38522W        W 2466   9.771  19.269   0.363
38523W        W 2467  29.130   2.430  11.397
38524W        W 2468  43.480  32.497  11.496
38525W        W 2469   1.952  13.284  13.365
38526W        W 2470   8.718  26.693   0.798
38527W        W 2471  35.426  25.683  11.567
38528W        W 2472  28.579  43.343   0.964
38529W        W 2473  15.646  15.143  12.411
38530W        W 2474  38.885  24.148  14.971
38531W        W 2475  41.916  33.074  14.930
38532W        W 2476   8.757   2.450   5.241
38533W        W 2477   9.378  27.102   1.779
38534W        W 2478   1.382  14.110  11.608
38535W        W 2479  31.452   6.247   2.269
38536W        W 2480  23.242   0.366   1.405
38537W        W 2481  12.657  25.660   1.787
38538W        W 2482  33.073   0.293   2.881
38539W        W 2483  32.501  26.089  13.373
38540W        W 2484  39.066  27.095   1.238
38541W        W 2485  21.155  19.280  14.429
38542W        W 2486   7.681  30.912   4.676
38543W        W 2487  10.325  12.224  14.286
38544W        W 2488  18.607  36.083   4.180
38545W        W 2489  23.730  40.901   2.762
38546W        W 2490  28.479   5.232  13.311
38547W        W 2491  21.555   5.846   3.347
38548W        W 2492   3.796  14.198  11.913
38549W        W 2493  28.621   0.947  10.933
38550W        W 2494  39.838  41.332  11.566
38551W        W 2495  30.060  24.160   0.397
38552W        W 2496  29.967  37.987  14.481
38553W        W 2497  11.793   4.379   3.223
38554W        W 2498  15.678  12.324  14.351
38555W        W 2499  26.964  36.472  11.445
38556W        W 2500  21.657  15.320   4.786
38557W        W 2501  40.542  19.777   0.798
38558W        W 2502   3.383  29.582  11.407
38559W        W 2503  42.517  27.489  13.832
38560W        W 2504  10.332  27.951  11.992
38561W        W 2505   5.194   2.836   2.814
38562W        W 2506  25.601   9.292  14.802
38563W        W 2507  17.558  41.900  14.346
38564W        W 2508  37.337  32.008  12.450
38565W        W 2509   3.868  25.073   4.215
38566W        W 2510  41.353  37.993   2.409
38567W        W 2511   8.329  40.309  12.838
38568W        W 2512   3.856  26.002  14.860
38569W        W 2513  32.936  38.481  10.634
38570W        W 2514   3.855   7.315  11.012
38571W        W 2515  21.100  17.681  12.376
38572W        W 2516  44.499  27.995  10.927
38573W        W 2517  40.801  35.394   0.841
38574W        W 2518  11.803  17.730  10.904
38575W        W 2519  37.902  35.522  12.946
38576W        W 2520  31.970  33.399  14.511
38577W        W 2521  28.566  11.342  11.111
38578W        W 2522  20.136   8.737   4.352
38579W        W 2523  26.514  31.962   4.702
38580W        W 2524  33.463  41.336   1.924
38581W        W 2525  41.924   1.889  10.444
38582W        W 2526  33.436  36.975  13.968
38583W        W 2527  21.734  11.324  12.092
38584W        W 2528  19.618  31.489   1.889
38585W        W 2529  31.410  19.091  11.455
38586W        W 2530  23.572   3.333   2.662
38587W        W 2531   7.285   7.238  11.924
38588W        W 2532   0.857   7.818  14.780
38589W        W 2533  44.489  13.152   2.387
38590W        W 2534  16.675   5.415   2.696
38591W        W 2535  18.249  38.893  11.121
38592W        W 2536  15.628  12.714   3.755
38593W        W 2537  27.643  36.932  13.529
38594W        W 2538  39.350  39.391  11.027
38595W        W 2539  40.462   7.376   4.238
38596W        W 2540  35.405   6.268   2.312
38597W        W 2541   8.866  28.064  10.539
38598W        W 2542  27.621  24.531   3.324
38599W        W 2543  17.132   0.376  14.493
38600W        W 2544  13.227  15.608   0.253
38601W        W 2545   3.821  30.503  11.862
38602W        W 2546  24.662  36.488  12.942
38603W        W 2547   6.880  41.006   2.366
38604W        W 2548   3.241  37.348  13.833
38605W        W 2549   9.252  36.896   2.314
38606W        W 2550   5.823  27.173   1.386
38607W        W 2551  44.477   7.829  13.420
38608W        W 2552   7.767   0.862  11.865
38609W        W 2553  23.147  40.401  10.572
38610W        W 2554  25.664  38.481   1.412
38611W        W 2555  38.393  44.271  11.450
38612W        W 2556   0.376  11.778   1.761
38613W        W 2557  12.736  40.889  10.964
38614W        W 2558  12.121   2.425   3.635
38615W        W 2559  37.073  35.930  12.456
38616W        W 2560  21.514  21.086  11.875
38617W        W 2561   1.455  30.623  12.034
38618W        W 2562  22.123  29.597   4.329
38619W        W 2563  39.886  33.072   4.201
38620W        W 2564  22.504  35.890   4.703
38621W        W 2565  35.548   3.753   0.359
38622W        W 2566   0.466  37.940   4.709
38623W        W 2567  21.229  29.560  12.471
38624W        W 2568  14.731  25.109  14.943
38625W        W 2569  25.649  11.746  10.615
38626W        W 2570  36.001  41.497   4.282
38627W        W 2571  14.740  19.713   4.135
38628W        W 2572   6.348  37.443   1.366
38629W        W 2573  27.658  21.034  13.013
38630W        W 2574  32.400  15.670   2.847
38631W        W 2575  20.605  33.609  11.873
38632W        W 2576  13.746  41.475  13.546
38633W        W 2577  25.563   6.763   0.866
38634W        W 2578  39.471  11.775  11.024
38635W        W 2579  22.996  11.653  11.416
38636W        W 2580  15.626  33.028   1.410
38637W        W 2581  18.616  23.207  12.537
38638W        W 2582   5.851  11.175   0.777
38639W        W 2583  26.956  37.037  14.802
38640W        W 2584   1.325  35.081   4.612
38641W        W 2585  33.045  43.816   1.910
38642W        W 2586   9.851  21.102   4.795
38643W        W 2587  28.669  28.487  13.483
38644W        W 2588  28.108  16.075   9.447
38645W        W 2589   4.757  39.835   3.290
38646W        W 2590  23.142   8.184  12.867
38647W        W 2591  36.426  36.553   2.298
38648W        W 2592  27.505   6.301  12.960
38649W        W 2593  35.091  42.831  12.541
38650W        W 2594   9.347  29.918   1.917
38651W        W 2595  29.606  12.140   2.297
38652W        W 2596   6.676  21.054  11.943
38653W        W 2597  34.436  25.644  10.534
38654W        W 2598  10.647   7.416  14.789
38655W        W 2599  17.215  23.493  14.801
38656W        W 2600  35.438  42.998   0.310
38657W        W 2601  25.654   2.226  12.962
38658W        W 2602  37.556  16.116  12.965
38659W        W 2603   5.836   7.185   2.244
38660W        W 2604   7.185  28.073  11.539
38661W        W 2605   3.275   4.322   4.600
38662W        W 2606  32.462  41.815  10.933
38663W        W 2607  20.769  10.260  11.858
38664W        W 2608  16.804  37.073   3.738
38665W        W 2609   7.180  13.279  14.423
38666W        W 2610   1.426   4.260   3.364
38667W        W 2611  23.501  27.502  11.868
38668W        W 2612  17.766  29.617  13.334
38669W        W 2613   0.933  11.238  14.929
38670W        W 2614  37.848  16.313   3.146
38671W        W 2615  18.662  40.536  14.994
38672W        W 2616  21.594  33.961   0.803
38673W        W 2617   1.934  31.450   3.634
38674W        W 2618   8.742  29.111   1.310
38675W        W 2619   5.840  26.973   0.964
38676W        W 2620  33.563  38.850  11.482
38677W        W 2621   7.739   4.735   2.731
38678W        W 2622  42.922  44.431   4.294
38679W        W 2623  24.568  25.570   4.643
38680W        W 2624  34.369  28.129  11.486
38681W        W 2625  16.664  16.233  14.019
38682W        W 2626  21.663  15.295  14.778
38683W        W 2627  15.195   3.878   4.771
38684W        W 2628  36.911  28.569   3.698
38685W        W 2629   3.907   2.963  10.981
38686W        W 2630  13.662  17.212   0.263
38687W        W 2631  40.331  21.531   3.732
38688W        W 2632  12.128  23.534   1.932
38689W        W 2633  31.902   2.252   1.313
38690W        W 2634  10.789  19.609   1.841
38691W        W 2635  36.985  24.179  14.803
38692W        W 2636  31.032  24.616  10.491
38693W        W 2637  10.154  44.268  14.870
38694W        W 2638  30.093   8.185  10.933
38695W        W 2639  37.383  42.517  11.866
38696W        W 2640  17.744  28.073  13.399
38697W        W 2641  34.493  11.248  10.895
38698W        W 2642  13.319  18.223  11.494
38699W        W 2643   7.235   9.750  10.580
38700W        W 2644  33.589  44.284   1.772
38701W        W 2645  17.216  12.152  13.028
38702W        W 2646  42.881  38.947   0.358
38703W        W 2647   9.260  30.039   0.880
38704W        W 2648   3.393  43.838  11.049
38705W        W 2649  21.020  41.862  11.857
38706W        W 2650  36.864  13.821  12.075
38707W        W 2651  39.470  22.167   1.836
38708W        W 2652  32.487  32.998   3.854
38709W        W 2653  39.382  35.869   1.912
38710W        W 2654  23.045   6.231   1.854
38711W        W 2655  43.404  22.147  13.340
38712W        W 2656  27.183   6.240  11.951
38713W        W 2657  13.711  44.950  13.392
38714W        W 2658  15.822  39.419  11.564
38715W        W 2659  10.839  43.957  11.880
38716W        W 2660  23.529   3.267   3.751
38717W        W 2661  18.636  31.974  12.515
38718W        W 2662  42.878  29.002  12.073
38719W        W 2663  15.585  21.682   0.390
38720W        W 2664  34.896  17.061   3.295
38721W        W 2665  22.514  20.082   1.851
38722W        W 2666   7.762   5.862   1.854
38723W        W 2667  27.059  13.705  14.382
38724W        W 2668  25.133  25.502  12.367
38725W        W 2669  16.152  15.783   1.853
38726W        W 2670  36.961  21.652  12.082
38727W        W 2671  29.049   7.779  12.522
38728W        W 2672  27.949  36.906   2.310
38729W        W 2673  37.356  39.364  13.879
38730W        W 2674  39.523   7.784  11.551
38731W        W 2675  10.246   2.350  14.859
38732W        W 2676  19.653   0.318  11.950
38733W        W 2677  38.345  36.456   2.334
38734W        W 2678  31.485   0.310  11.571
38735W        W 2679  17.267  41.436   2.791
38736W        W 2680  33.556  37.998   0.413
38737W        W 2681   3.278  24.590  12.869
38738W        W 2682  12.125  22.719   4.294
38739W        W 2683  43.364  29.944  14.481
38740W        W 2684   6.377  11.373  12.987
38741W        W 2685   7.332  32.057  11.121
38742W        W 2686  33.895  21.146   2.383
38743W        W 2687  14.643  42.448   1.757
38744W        W 2688   7.269  28.011  10.005
38745W        W 2689  16.303  23.064  11.567
38746W        W 2690  37.344  18.780   4.315
38747W        W 2691   8.764   5.250   0.350
38748W        W 2692  23.607  15.735   4.120
38749W        W 2693  18.238   4.942  14.378
38750W        W 2694   3.298  21.109   3.149
38751W        W 2695   2.920   0.959  12.535
38752W        W 2696  19.140  17.750   1.788
38753W        W 2697   6.765   2.392   1.788
38754W        W 2698  30.062  35.403   4.827
38755W        W 2699  13.741  17.789   1.718
38756W        W 2700  18.058  15.641  13.040
38757W        W 2701  16.315  32.919   0.343
38758W        W 2702  10.808  25.145  10.964
38759W        W 2703  23.191   8.870   2.284
38760W        W 2704  40.886  43.354   0.428
38761W        W 2705   2.462   4.740  12.343
38762W        W 2706  18.216  19.073   4.704
38763W        W 2707  26.033  33.422  14.497
38764W        W 2708  34.448   9.204  13.005
38765W        W 2709   6.693  40.872  10.980
38766W        W 2710  44.330  25.660  10.934
38767W        W 2711   4.439  12.328  13.888
38768W        W 2712  26.068   7.409   0.839
38769W        W 2713  41.538  31.641   2.337
38770W        W 2714   7.904  12.210  12.841
38771W        W 2715  39.501  17.205   4.818
38772W        W 2716  30.030  27.138   4.711
38773W        W 2717  31.017  14.305  11.413
38774W        W 2718  12.633   7.711   1.411
38775W        W 2719   9.861  44.485  14.877
38776W        W 2720  20.096  20.721   2.876
38777W        W 2721  37.532  19.654   4.776
38778W        W 2722  14.188  17.291  10.509
38779W        W 2723  19.090  15.753  12.387
38780W        W 2724  30.642  38.935   5.177
38781W        W 2725  11.172  36.068  12.061
38782W        W 2726   4.333  25.136  14.998
38783W        W 2727   8.788  18.604   1.930
38784W        W 2728  23.083  27.590   2.828
38785W        W 2729   4.419   8.369  13.022
38786W        W 2730  24.993   5.299  12.349
38787W        W 2731  33.007  13.782  14.854
38788W        W 2732  37.370  32.042  12.081
38789W        W 2733   8.728  26.085   4.726
38790W        W 2734  37.511  38.851   2.373
38791W        W 2735  15.791  24.220  14.937
38792W        W 2736  14.108  17.116   5.243
38793W        W 2737  35.043  28.477  10.415
38794W        W 2738   9.846  39.328  11.396
38795W        W 2739  23.072  15.699  13.947
38796W        W 2740  22.188  17.129   2.833
38797W        W 2741   6.876   8.288  11.927
38798W        W 2742  27.492  21.665   0.911
38799W        W 2743   5.337  32.553   1.771
38800W        W 2744  10.731  43.501   3.710
38801W        W 2745   3.839  43.503   2.390
38802W        W 2746  36.394  22.182   2.413
38803W        W 2747   7.673  27.464   1.323
38804W        W 2748  26.483  13.119   0.315
38805W        W 2749  15.289  31.544  14.016
38806W        W 2750  29.567  26.184   1.722
38807W        W 2751   8.345  29.992   3.761
38808W        W 2752  35.388  16.744  13.927
38809W        W 2753  24.650  22.137  13.421
38810W        W 2754   6.729   6.417  11.077
38811W        W 2755  29.588  29.161   1.795
38812W        W 2756   6.237   6.810   1.810
38813W        W 2757  44.449  24.100  10.575
38814W        W 2758  37.894  35.920  11.440
38815W        W 2759  11.336  41.492   2.274
38816W        W 2760  21.129  34.478   0.402
38817W        W 2761   7.837  35.413   1.753
38818W        W 2762  22.096   3.325  11.104
38819W        W 2763   5.870  40.344  13.471
38820W        W 2764   5.221  22.155  13.357
38821W        W 2765  30.559  20.258   4.622
38822W        W 2766  24.063  44.318  12.543
38823W        W 2767  38.954   8.673  10.640
38824W        W 2768  29.003   5.824   3.659
38825W        W 2769  29.045  19.745   2.302
38826W        W 2770   0.906  33.474  14.339
38827W        W 2771  32.902  42.371   1.908
38828W        W 2772  22.690  29.162   3.645
38829W        W 2773  16.113  30.946   2.248
38830W        W 2774  23.022  15.755  12.890
38831W        W 2775   3.332   4.879  11.998
38832W        W 2776  40.029  14.283  12.892
38833W        W 2777  20.251   0.342   2.903
38834W        W 2778   0.371  30.492   1.931
38835W        W 2779  24.151  13.637   4.246
38836W        W 2780  44.457  42.835  14.965
38837W        W 2781   7.841  14.275  10.608
38838W        W 2782  15.755  44.455   0.285
38839W        W 2783  23.190  15.635  14.870
38840W        W 2784  27.578  13.824   1.821
38841W        W 2785  22.595  36.897  13.007
38842W        W 2786  28.152  43.477   0.317
38843W        W 2787  14.219  32.897   1.313
38844W        W 2788  26.022  17.207   5.164
38845W        W 2789  22.061   1.260  14.913
38846W        W 2790  16.782   9.647  10.449
38847W        W 2791  13.613  32.490  14.495
38848W        W 2792  22.614  21.175  11.549
38849W        W 2793  20.754  28.115   0.921
38850W        W 2794  27.022  31.962  10.963
38851W        W 2795  12.210  32.929   4.117
38852W        W 2796  12.319  36.539   4.692
38853W        W 2797  10.208   5.874  13.470
38854W        W 2798   0.820  17.185   1.344
38855W        W 2799  37.953  23.146  12.368
38856W        W 2800  10.652  30.135  10.922
38857W        W 2801  40.365  23.637  12.848
38858W        W 2802  36.842  37.373   3.864
38859W        W 2803   6.841   0.485   2.419
38860W        W 2804  39.438  13.791  12.485
38861W        W 2805  13.620  19.155  11.593
38862W        W 2806  10.752  12.208  10.603
38863W        W 2807  11.625   3.372  10.538
38864W        W 2808  44.754  44.300  13.945
38865W        W 2809  44.919   0.338   2.746
38866W        W 2810  11.774  32.420  14.995
38867W        W 2811  15.103  22.054  13.038
38868W        W 2812  14.595  31.415   5.250
38869W        W 2813  29.607  29.593   2.684
38870W        W 2814  11.736  34.529  12.560
38871W        W 2815  20.102   7.222   2.792
38872W        W 2816  42.786  41.471   1.841
38873W        W 2817   8.841   8.389  12.019
38874W        W 2818  25.575  27.495  13.886
38875W        W 2819  44.972  23.561   2.416
38876W        W 2820  10.767  31.120  12.537
38877W        W 2821  13.230   3.304  10.421
38878W        W 2822   0.438   9.772   0.878
38879W        W 2823  14.656  14.762  11.983
38880W        W 2824  19.625  24.061   1.755
38881W        W 2825  35.571  11.330  13.368
38882W        W 2826  30.020  42.308  13.870
38883W        W 2827  31.593   3.332  11.973
38884W        W 2828  12.671  41.833   3.249
38885W        W 2829  43.817   3.373  14.833
38886W        W 2830  13.631  11.250   1.447
38887W        W 2831   0.832  16.245   3.684
38888W        W 2832  40.392  44.300   0.823
38889W        W 2833  43.348  41.509  12.994
38890W        W 2834  18.103  41.998  14.280
38891W        W 2835  10.313  30.909  12.378
38892W        W 2836  16.108  22.122   0.823
38893W        W 2837  39.422   1.968  13.827
38894W        W 2838  10.859  24.595   3.223
38895W        W 2839  35.603  36.502  10.466
38896W        W 2840  25.034   2.802   3.643
38897W        W 2841  43.852   0.382  12.508
38898W        W 2842  20.540  35.443  14.830
38899W        W 2843  11.293  43.777  14.802
38900W        W 2844   8.801  32.579  14.889
38901W        W 2845   2.950  36.857  10.947
38902W        W 2846  33.510   4.892   1.308
38903W        W 2847  32.547  44.398  13.416
38904W        W 2848  32.411   4.406  11.397
38905W        W 2849  42.387   0.950   0.799
38906W        W 2850  13.170   7.698  13.022
38907W        W 2851   7.713   6.314  14.812
38908W        W 2852  24.572  11.785   4.294
38909W        W 2853   2.403   2.234   1.822
38910W        W 2854  27.041  42.408  10.638
38911W        W 2855  22.025  23.636  13.995
38912W        W 2856  36.473  21.155   2.397
38913W        W 2857  36.576  33.440   0.817
38914W        W 2858  16.294  28.548   2.243
38915W        W 2859  14.698  13.693  11.969
38916W        W 2860  31.631  28.008   3.320
38917W        W 2861  14.651  28.502  10.627
38918W        W 2862  36.914  26.971   3.272
38919W        W 2863  16.726  23.490   3.193
38920W        W 2864  29.485  30.045   0.297
38921W        W 2865   6.267  34.497  12.887
38922W        W 2866  24.151  33.107   4.301
38923W        W 2867   6.406   0.353  11.917
38924W        W 2868  22.079  26.155   4.290
38925W        W 2869  36.024  39.319  12.963
38926W        W 2870  19.079   3.229   2.208
38927W        W 2871  23.026  22.198   4.708
38928W        W 2872  17.725  38.497   2.391
38929W        W 2873  42.334  44.010   3.267
38930W        W 2874  35.515  11.857   0.249
38931W        W 2875  41.859  21.108   3.683
38932W        W 2876   7.360  38.462  13.361
38933W        W 2877  21.591   6.774   1.422
38934W        W 2878   5.324  24.210  10.572
38935W        W 2879  27.119  13.133  12.030
38936W        W 2880   4.900  33.875   2.406
38937W        W 2881  33.608   1.755  12.410
38938W        W 2882  28.114  15.089   1.443
38939W        W 2883  12.737  44.893  10.490
38940W        W 2884  23.672  15.315  11.943
38941W        W 2885   8.286  35.555   0.798
38942W        W 2886  30.064  40.336  14.279
38943W        W 2887  13.165  26.608   0.302
38944W        W 2888  31.463  32.939  11.409
38945W        W 2889  42.363  26.982  10.893
38946W        W 2890   1.390  36.054   1.381
38947W        W 2891  39.917  31.527   0.363
38948W        W 2892  36.965   7.835   2.662
38949W        W 2893  33.464  35.997  12.877
38950W        W 2894  11.691  28.012  13.041
38951W        W 2895  19.682   2.360   1.807
38952W        W 2896  27.029  15.587   1.430
38953W        W 2897  31.114  42.828   4.145
38954W        W 2898  18.785  30.474   0.816
38955W        W 2899  29.075   6.828  14.766
38956W        W 2900  17.094  16.578   3.301
38957W        W 2901  17.743  24.186   1.345
38958W        W 2902  38.944  20.163  13.308
38959W        W 2903  37.390  44.495  12.573
38960W        W 2904  15.166  42.413  10.432
38961W        W 2905   1.424  16.622   4.247
38962W        W 2906  32.105  27.116   4.676
38963W        W 2907  23.570  42.519  11.417
38964W        W 2908  26.546  41.464  13.522
38965W        W 2909  24.150  33.399   0.770
38966W        W 2910  34.115  28.476  13.325
38967W        W 2911  33.967   3.933   4.794
38968W        W 2912  21.639  40.426  11.384
38969W        W 2913  30.605  41.345  14.786
38970W        W 2914  37.520  28.501  11.376
38971W        W 2915  30.163  30.977  11.577
38972W        W 2916   3.838  39.051  11.863
38973W        W 2917   6.232   8.360   0.919
38974W        W 2918  27.451  15.620   1.406
38975W        W 2919   8.877  20.183   0.780
38976W        W 2920  29.155  30.444   3.838
38977W        W 2921  32.095  16.110   2.346
38978W        W 2922  21.140  42.870  11.434
38979W        W 2923   5.261  33.960   3.671
38980W        W 2924   5.216   9.782   0.886
38981W        W 2925  31.068  31.408   1.392
38982W        W 2926   2.870   5.304  11.920
38983W        W 2927   0.776  38.352   2.182
38984W        W 2928  13.284   4.395  11.067
38985W        W 2929   7.329  44.837   2.358
38986W        W 2930  33.606  37.389   4.114
38987W        W 2931   3.397  16.716  13.003
38988W        W 2932   9.835   6.355  13.545
38989W        W 2933  11.205  31.139   3.738
38990W        W 2934  15.160   9.340   2.891
38991W        W 2935  24.212  44.778   4.732
38992W        W 2936  20.549  17.719   3.177
38993W        W 2937   3.751  11.178  14.385
38994W        W 2938  12.844  25.657  13.842
38995W        W 2939   2.229   5.360   1.862
38996W        W 2940   3.369  30.115  10.567
38997W        W 2941  17.258  25.143   4.716
38998W        W 2942  20.051  21.263   3.275
38999W        W 2943  30.658  36.854   1.354
39000W        W 2944   5.927  41.805  12.085
39001W        W 2945  25.135  40.351  10.127
39002W        W 2946  19.761   6.782  14.403
39003W        W 2947   2.757  32.459   0.453
39004W        W 2948   4.932  18.597   5.122
39005W        W 2949   4.324   0.914   1.368
39006W        W 2950   3.332   7.295  11.433
39007W        W 2951  36.429  39.860   3.375
39008W        W 2952  30.976  23.989  12.499
39009W        W 2953  41.006  19.665  11.014
39010W        W 2954  10.790  36.061  13.421
39011W        W 2955  38.344   1.454   4.707
39012W        W 2956  13.276   4.793  12.984
39013W        W 2957  42.891   4.877   1.704
39014W        W 2958   6.205  19.099   2.317
39015W        W 2959  27.976  25.607  14.885
39016W        W 2960  13.701  29.567  12.557
39017W        W 2961  10.638   5.237  12.970
39018W        W 2962   7.172  16.216  12.934
39019W        W 2963  42.872  35.518  12.414
39020W        W 2964  12.692  32.438  11.871
39021W        W 2965   6.707  27.536  11.904
39022W        W 2966   9.728  20.211  12.498
39023W        W 2967  37.040   5.302   5.249
39024W        W 2968  24.643  21.559   4.695
39025W        W 2969  34.428  44.920  11.988
39026W        W 2970  12.304  34.996   3.771
39027W        W 2971  16.665  29.114   4.623
39028W        W 2972  20.742  13.321   2.235
39029W        W 2973  42.029  30.509   9.966
39030W        W 2974  38.967  40.836   0.419
39031W        W 2975  36.492   8.327   3.739
39032W        W 2976  36.525  29.567  11.112
39033W        W 2977   6.850  29.994  13.929
39034W        W 2978  44.321  17.665   9.938
39035W        W 2979   8.771  28.934   0.414
39036W        W 2980  17.657  39.952   3.652
39037W        W 2981   9.790  37.456   0.746
39038W        W 2982  15.583   3.786  12.968
39039W        W 2983  43.460   5.878   1.287
39040W        W 2984  18.073   5.837   4.658
39041W        W 2985  32.598  30.088  11.108
39042W        W 2986  12.700  29.541   3.304
39043W        W 2987  15.765   4.399  11.519
39044W        W 2988  14.680  29.143  10.047
39045W        W 2989  20.626  43.019   1.292
39046W        W 2990  44.371  16.194   2.787
39047W        W 2991  31.134  41.813   0.866
39048W        W 2992  31.450  31.095   1.709
39049W        W 2993   3.302   1.775  14.360
39050W        W 2994   5.242  21.515  10.626
39051W        W 2995  22.503  15.283  14.298
39052W        W 2996   2.262  42.806  14.874
39053W        W 2997  34.997  14.116  12.046
39054W        W 2998  31.553  12.788   2.395
39055W        W 2999  19.621  42.421  13.825
39056W        W 3000   7.904  13.327  10.552
39057W        W 3001  15.119  39.455  11.516
39058W        W 3002  25.556  43.921  13.431
39059W        W 3003  44.316  22.537  13.798
39060W        W 3004  18.762  42.918   4.228
39061W        W 3005  20.159  30.505  14.485
39062W        W 3006  20.096  36.357   1.418
39063W        W 3007  17.114  38.434   1.325
39064W        W 3008  36.086   3.299  14.780
39065W        W 3009  16.734  40.348  10.573
39066W        W 3010  31.142  33.625  11.379
39067W        W 3011  22.674  19.271  11.036
39068W        W 3012  17.765  11.785  14.779
39069W        W 3013  14.111  32.004   1.356
39070W        W 3014   2.737   0.888  10.602
39071W        W 3015  25.556   9.247  14.486
39072W        W 3016  38.045   6.338  10.451
39073W        W 3017   5.227  19.285   3.334
39074W        W 3018  20.590  33.963   1.785
39075W        W 3019  25.091  17.689   3.191
39076W        W 3020  27.689  32.126  11.040
39077W        W 3021  35.473  22.111  14.961
39078W        W 3022  11.844   7.274   1.706
39079W        W 3023  14.236  13.271   2.375
39080W        W 3024  22.162  21.518  12.834
39081W        W 3025  36.933  33.449   1.212
39082W        W 3026  31.466  38.516  11.048
39083W        W 3027  32.450  38.053   4.814
39084W        W 3028  32.508   0.315  10.522
39085W        W 3029   0.831   8.779   3.665
39086W        W 3030   5.813   3.457  13.803
39087W        W 3031   7.205  39.512   3.215
39088W        W 3032   3.224  19.599   4.754
39089W        W 3033   0.267  33.929  10.922
39090W        W 3034  26.069   5.357  14.819
39091W        W 3035  32.970  11.339   3.658
39092W        W 3036  13.647   0.256  14.495
39093W        W 3037   6.291   9.160  11.586
39094W        W 3038  32.005  34.026   2.757
39095W        W 3039  13.643  33.014   2.757
39096W        W 3040   4.896  36.474  12.994
39097W        W 3041  41.829  27.155   1.841
39098W        W 3042  39.883  23.657   0.882
39099W        W 3043  16.300  27.194   3.707
39100W        W 3044  25.171   2.794  12.011
39101W        W 3045  25.488   7.889   1.753
39102W        W 3046  27.002  32.920  13.510
39103W        W 3047  30.945  18.100   0.883
39104W        W 3048  29.454  33.435  14.408
39105W        W 3049  43.886   8.349  14.028
39106W        W 3050  28.677   3.355  13.356
39107W        W 3051   2.895  33.545   1.741
39108W        W 3052  32.002   5.302  12.965
39109W        W 3053   0.430  39.017  11.517
39110W        W 3054  36.349  44.925   3.843
39111W        W 3055  43.464  23.996   2.864
39112W        W 3056  42.899   2.801  11.508
39113W        W 3057  32.497  20.718   0.424
39114W        W 3058  41.991  44.451   3.685
39115W        W 3059  29.125  36.862   0.796
39116W        W 3060   4.809   8.809   1.232
39117W        W 3061  25.107  20.597   1.382
39118W        W 3062   3.330   1.416   1.823
39119W        W 3063  35.063  40.007   2.847
39120W        W 3064   5.721  12.126   1.421
39121W        W 3065  23.149  33.532   4.317
39122W        W 3066   4.243  14.214   2.819
39123W        W 3067   5.714  15.121   0.739
39124W        W 3068  43.355  24.195   3.241
39125W        W 3069  12.197  36.906  12.031
39126W        W 3070   6.293  22.738  13.311
39127W        W 3071  38.360  15.259   1.450
39128W        W 3072  24.547  24.561  12.920
39129W        W 3073  35.103  21.752   4.211
39130W        W 3074  16.652  17.656   3.743
39131W        W 3075   0.472  23.200  10.642
39132W        W 3076  17.785  31.137  10.594
39133W        W 3077  26.079  35.873   0.432
39134W        W 3078  41.411   2.416   1.860
39135W        W 3079   5.730  23.491   3.349
39136W        W 3080  31.116  32.458  11.029
39137W        W 3081  38.872  18.060   3.776
39138W        W 3082  43.801  10.830   0.935
39139W        W 3083  12.757   0.436   2.892
39140W        W 3084  22.530  20.542  14.358
39141W        W 3085  43.319  39.387   2.851
39142W        W 3086  12.834  44.810  13.055
39143W        W 3087  27.970  33.592   2.752
39144W        W 3088  39.532  33.966   2.887
39145W        W 3089  44.500   0.282  11.906
39146W        W 3090  31.585  19.696  13.037
39147W        W 3091  35.992  33.410  12.558
39148W        W 3092  20.595  17.169   1.266
39149W        W 3093  24.057  41.998   3.770
39150W        W 3094  38.835  29.023  11.007
39151W        W 3095  41.292  19.690  10.963
39152W        W 3096  20.147  15.131  10.601
39153W        W 3097  41.904  23.075  12.425
39154W        W 3098  13.324   4.848   4.710
39155W        W 3099  43.015  11.358  14.446
39156W        W 3100  15.250   0.894   4.785
39157W        W 3101  12.775  29.066  10.643
39158W        W 3102  26.138  19.208   9.939
39159W        W 3103  21.706  32.491   3.861
39160W        W 3104  21.750  38.860  11.975
39161W        W 3105  38.891  21.192  10.441
39162W        W 3106  33.501  44.266  11.055
39163W        W 3107   5.818   5.909  14.349
39164W        W 3108  13.725   8.302  12.571
39165W        W 3109  19.548  18.109  11.126
39166W        W 3110   2.837  12.193   1.387
39167W        W 3111   1.403   9.202   4.117
39168W        W 3112  30.558  14.825   5.303
39169W        W 3113  28.609  18.118   5.752
39170W        W 3114  19.676  15.636  10.521
39171W        W 3115   3.916  14.238   4.333
39172W        W 3116  34.552  27.462  13.445
39173W        W 3117  41.905  21.708   1.902
39174W        W 3118   1.423  36.902   0.424
39175W        W 3119  33.900   3.730  14.509
39176W        W 3120  15.153   3.792  12.473
39177W        W 3121   6.272   4.336   1.912
39178W        W 3122  28.099  40.374  14.841
39179W        W 3123  19.695  44.958  12.074
39180W        W 3124   4.775  39.884  14.277
39181W        W 3125   4.859  22.210  12.476
39182W        W 3126  21.608  37.942   3.292
39183W        W 3127  21.733  21.725  12.429
39184W        W 3128  19.091  22.547   2.671
39185W        W 3129  37.466  34.435   3.324
39186W        W 3130  10.786  16.690   3.379
39187W        W 3131  43.889  39.404   1.700
39188W        W 3132  22.619   2.892   4.796
39189W        W 3133  21.672   3.901   3.360
39190W        W 3134  30.942  33.050   1.778
39191W        W 3135  14.290  28.575  13.901
39192W        W 3136  42.461   1.921  14.363
39193W        W 3137  11.233  37.890  12.392
39194W        W 3138  12.303  15.271   1.247
39195W        W 3139  20.198  22.667   4.122
39196W        W 3140  42.501  28.609   4.794
39197W        W 3141  35.460  33.403  13.439
39198W        W 3142  42.499  37.909   2.299
39199W        W 3143  17.090  32.601  12.447
39200W        W 3144  43.784  44.360  11.041
39201W        W 3145  27.033   1.273   2.230
39202W        W 3146  20.683  26.669  10.451
39203W        W 3147  16.761  14.685  14.319
39204W        W 3148   3.803  27.965   4.235
39205W        W 3149   5.794  15.173  12.837
39206W        W 3150   1.397   5.885   0.813
39207W        W 3151   2.346   0.907  12.479
39208W        W 3152  27.496   3.312  10.461
39209W        W 3153  11.370  35.523  14.329
39210W        W 3154  18.724   6.282  13.516
39211W        W 3155  33.896  31.557   0.421
39212W        W 3156  13.819  35.878  10.626
39213W        W 3157  30.103  31.112   0.877
39214W        W 3158  41.835   9.333  11.859
39215W        W 3159   4.450  26.981   3.856
39216W        W 3160  39.419  22.055   0.481
39217W        W 3161  15.769  10.701  10.050
39218W        W 3162  33.580  16.184  12.876
39219W        W 3163  40.965   2.287   0.874
39220W        W 3164  10.274  16.778  14.014
39221W        W 3165  15.596  23.631   0.850
39222W        W 3166  39.497  35.045   1.280
39223W        W 3167  19.102  13.794   3.241
39224W        W 3168  38.342  43.400   3.330
39225W        W 3169  22.098  37.939  13.040
39226W        W 3170  35.485  30.119   0.464
39227W        W 3171   2.339  43.769  11.383
39228W        W 3172  19.702  35.908   0.806
39229W        W 3173  39.837  35.435  14.434
39230W        W 3174  35.017  34.867  11.494
39231W        W 3175  15.253  44.321  10.530
39232W        W 3176  41.340  24.506  11.871
39233W        W 3177   1.820   2.865   0.857
39234W        W 3178  32.974  42.860   2.811
39235W        W 3179   0.957  39.474   4.646
39236W        W 3180  10.764  14.272  12.841
39237W        W 3181  36.851  17.187   4.209
39238W        W 3182   6.792  43.310   2.331
39239W        W 3183  16.196   6.316  14.866
39240W        W 3184  43.886   8.363  11.097
39241W        W 3185  24.001  43.363   2.231
39242W        W 3186  30.145   2.766   2.815
39243W        W 3187  36.406   7.341  13.508
39244W        W 3188  35.579   4.388   0.731
39245W        W 3189  30.913  17.120  11.553
39246W        W 3190  12.622   7.871  10.976
39247W        W 3191   3.455  33.519  11.994
39248W        W 3192  31.497   5.873   3.198
39249W        W 3193  40.008   8.698   1.739
39250W        W 3194  15.714  23.684   1.259
39251W        W 3195   3.269   8.242   3.846
39252W        W 3196  29.087  20.102   0.860
39253W        W 3197  43.452  33.106   1.252
39254W        W 3198  32.545   3.277   2.391
39255W        W 3199  21.598  16.753  13.001
39256W        W 3200  41.977  19.559   0.851
39257W        W 3201  26.133   5.738   4.733
39258W        W 3202  20.592  25.040  10.513
39259W        W 3203  35.566  10.214   4.669
39260W        W 3204   5.742  38.480  13.354
39261W        W 3205  38.383   5.193   2.196
39262W        W 3206  40.980   0.431   1.317
39263W        W 3207  19.602  39.880  11.896
39264W        W 3208  18.591  34.451   4.711
39265W        W 3209   5.408  33.914  11.080
39266W        W 3210  28.476  19.132  12.371
39267W        W 3211  19.068  33.420   3.854
39268W        W 3212  43.862   9.155   2.816
39269W        W 3213  25.146  27.541  11.949
39270W        W 3214  27.655  15.773  14.355
39271W        W 3215  35.483   5.877   1.242
39272W        W 3216  19.042  40.360  14.919
39273W        W 3217  23.076  31.995  10.007
39274W        W 3218   0.988  43.511   3.233
39275W        W 3219  38.833  32.578   9.961
39276W        W 3220  27.055  12.686  13.836
39277W        W 3221  18.546  18.115   4.689
39278W        W 3222  34.112   6.808   4.681
39279W        W 3223  39.546  14.150   2.800
39280W        W 3224   0.286   0.860   4.286
39281W        W 3225  21.543  44.997   0.769
39282W        W 3226  39.372  42.810   3.716
39283W        W 3227  16.681  33.402  14.500
39284W        W 3228   1.952  30.152   0.923
39285W        W 3229  17.222   7.356   1.432
39286W        W 3230   3.220  42.363   4.723
39287W        W 3231  30.597  32.515   3.243
39288W        W 3232  41.828   6.323  11.962
39289W        W 3233  27.167   2.918   3.178
39290W        W 3234   5.346  27.584   2.708
39291W        W 3235  20.191  19.698  12.083
39292W        W 3236   5.194  33.391  10.922
39293W        W 3237  32.411  11.348   3.847
39294W        W 3238  31.896  19.597   0.307
39295W        W 3239  38.347  43.855  11.428
39296W        W 3240   6.723  23.518  10.527
39297W        W 3241  15.819  19.677  10.604
39298W        W 3242   9.311  28.170   4.328
39299W        W 3243  36.450  39.033  12.960
39300W        W 3244  36.348  33.602   4.700
39301W        W 3245  19.214  21.515   0.846
39302W        W 3246  40.809   1.783  11.009
39303W        W 3247   5.798   1.281   0.881
39304W        W 3248  11.129  33.026   2.751
39305W        W 3249  27.679  26.570   4.648
39306W        W 3250  12.720  27.632   3.702
39307W        W 3251  16.599   0.815  13.017
39308W        W 3252  43.284  31.415   2.803
39309W        W 3253   5.725  37.369   2.296
39310W        W 3254  44.943  42.338   1.870
39311W        W 3255  10.270  25.149   4.254
39312W        W 3256   0.320   9.171  12.011
39313W        W 3257  30.161  34.074  13.481
39314W        W 3258   3.451  37.364  14.819
39315W        W 3259  10.702   3.297  12.367
39316W        W 3260  22.644  11.350  11.579
39317W        W 3261  29.642   2.857  11.080
39318W        W 3262  40.320  20.713  11.959
39319W        W 3263  41.404  20.533  12.374
39320W        W 3264  27.569  44.791   4.194
39321W        W 3265  20.720  22.554   4.284
39322W        W 3266  18.250  40.995  14.956
39323W        W 3267  16.604  34.872  11.492
39324W        W 3268  30.121   8.183   4.745
39325W        W 3269  27.985  43.329   4.781
39326W        W 3270  24.656  41.305   0.440
39327W        W 3271  25.673  34.588   2.238
39328W        W 3272   9.862  26.697  12.557
39329W        W 3273  26.087  34.568   4.343
39330W        W 3274  41.312   0.273  14.478
39331W        W 3275  21.169  21.128   5.081
39332W        W 3276  30.427   1.936  12.990
39333W        W 3277  41.328  22.663  12.078
39334W        W 3278  41.392  23.514  11.408
39335W        W 3279  42.370  29.119   2.696
39336W        W 3280   0.471  33.572   4.260
39337W        W 3281  22.652  13.253  12.979
39338W        W 3282  32.040  17.152  11.034
39339W        W 3283  13.662   9.887  11.450
39340W        W 3284  24.138  11.672  13.356
39341W        W 3285  43.361   8.160  11.011
39342W        W 3286  27.152  30.043   3.764
39343W        W 3287  14.248  39.846  12.345
39344W        W 3288  25.998  44.294  14.306
39345W        W 3289  31.402  31.115  14.927
39346W        W 3290  28.542   0.954  13.056
39347W        W 3291  26.645  29.921   0.269
39348W        W 3292   6.909  41.985  13.843
39349W        W 3293  41.859   6.331   4.647
39350W        W 3294  22.050   7.761   2.328
39351W        W 3295  24.002  11.311   3.804
39352W        W 3296  34.034  31.104  13.007
39353W        W 3297   4.296   7.746  11.996
39354W        W 3298  32.927  31.084  13.339
39355W        W 3299  10.656   9.165  12.346
39356W        W 3300  42.351  44.502   3.349
39357W        W 3301  10.306  30.650   0.248
39358W        W 3302  14.278  42.948   3.220
39359W        W 3303  24.652  23.603   4.833
39360W        W 3304   5.276  29.665  14.930
39361W        W 3305  17.111  18.549  11.992
39362W        W 3306  28.999  10.260   2.734
39363W        W 3307  22.528  24.593   3.294
39364W        W 3308   8.398  30.632   5.198
39365W        W 3309  10.277  16.138  13.421
39366W        W 3310  31.564  23.030  11.491
39367W        W 3311  20.093  25.117  11.023
39368W        W 3312  38.054  30.146  12.887
39369W        W 3313  22.061   0.263  12.904
39370W        W 3314   4.722   6.790  12.824
39371W        W 3315   4.853  27.084   2.338
39372W        W 3316  41.357   0.849  13.453
39373W        W 3317  32.439  13.282  12.833
39374W        W 3318  14.749  44.428   0.883
39375W        W 3319  32.953  12.616   1.328
39376W        W 3320  21.712  27.960  14.442
39377W        W 3321   2.732  11.755   3.667
39378W        W 3322  41.385  17.558  14.472
39379W        W 3323   6.776  28.500   5.244
39380W        W 3324  27.103  10.171  11.476
39381W        W 3325  29.423  12.678   2.363
39382W        W 3326   0.438  36.566  11.442
39383W        W 3327   6.342  23.999   0.292
39384W        W 3328  26.013   8.172  14.513
39385W        W 3329  18.711  26.026  11.973
39386W        W 3330  26.087  29.093   4.165
39387W        W 3331  17.733  32.940   0.772
39388W        W 3332  28.032  12.787   5.290
39389W        W 3333  37.565  11.179  11.524
39390W        W 3334   3.726   9.270   4.115
39391W        W 3335  14.765  27.956   0.893
39392W        W 3336  33.588  39.458   2.805
39393W        W 3337  13.123   7.850   3.830
39394W        W 3338  21.058  22.995   0.796
39395W        W 3339  37.981  15.158  14.453
39396W        W 3340  24.686  17.695  13.806
39397W        W 3341  26.007  35.012   2.680
39398W        W 3342  36.049  32.568  12.012
39399W        W 3343  32.971  26.104  11.065
39400W        W 3344  24.697  27.074   0.475
39401W        W 3345  35.975   3.454  12.970
39402W        W 3346  36.911  18.094   2.325
39403W        W 3347  16.775  15.206  13.401
39404W        W 3348  25.098   6.710   4.288
39405W        W 3349  35.406  29.431   2.359
39406W        W 3350  29.116   0.830   0.779
39407W        W 3351  12.729   6.215   1.892
39408W        W 3352  14.203  30.093   2.220
39409W        W 3353  18.702   3.310  11.501
39410W        W 3354  26.151  30.092   0.914
39411W        W 3355  15.765  19.105  13.325
39412W        W 3356  30.517  28.126   4.348
39413W        W 3357  34.441  36.429  11.091
39414W        W 3358  28.046  43.504  13.968
39415W        W 3359  44.934  16.643   1.250
39416W        W 3360  18.556  11.711   1.878
39417W        W 3361  30.452   9.840  13.368
39418W        W 3362   7.839   2.814  11.383
39419W        W 3363   2.923  31.547   1.240
39420W        W 3364  25.117   1.971  11.495
39421W        W 3365  23.651  39.449  11.898
39422W        W 3366  29.662  31.925   1.882
39423W        W 3367   0.360  18.555   3.285
39424W        W 3368   6.797  25.138  14.349
39425W        W 3369   8.380   0.334   0.375
39426W        W 3370  32.090  15.704   1.375
39427W        W 3371  20.185  10.683   4.310
39428W        W 3372   7.285  36.898   3.779
39429W        W 3373   8.351  17.719   4.207
39430W        W 3374  30.471  40.953   5.736
39431W        W 3375   0.757  16.118   1.778
39432W        W 3376  29.051  10.169  13.384
39433W        W 3377  22.628  26.026  14.775
39434W        W 3378   8.878  41.802  14.799
39435W        W 3379  40.973   8.866  12.526
39436W        W 3380  25.990   9.208  14.501
39437W        W 3381  35.948  44.407  13.048
39438W        W 3382  36.848  19.056  13.907
39439W        W 3383  10.353  21.601  12.488
39440W        W 3384  10.790  39.379   0.912
39441W        W 3385   9.167  14.787  11.120
39442W        W 3386  26.702   4.371   1.299
39443W        W 3387  21.540  25.163   2.724
39444W        W 3388   7.406   3.419   0.781
39445W        W 3389   8.406  36.937  10.587
39446W        W 3390  38.353  17.582   2.807
39447W        W 3391  19.621  37.480  13.444
39448W        W 3392   1.353  32.956  14.362
39449W        W 3393  33.563  29.047  14.283
39450W        W 3394  18.121  29.053  11.436
39451W        W 3395   8.740   7.701  12.479
39452W        W 3396   9.174  37.052  11.107
39453W        W 3397  24.000  33.894   0.460
39454W        W 3398   8.866  37.508   3.648
39455W        W 3399   2.788  15.282   1.284
39456W        W 3400   4.290  31.916   4.671
39457W        W 3401  44.864  34.482  11.561
39458W        W 3402  39.333  29.568  13.874
39459W        W 3403   8.754  25.069  13.855
39460W        W 3404   5.844  14.216   2.771
39461W        W 3405  39.320  19.666  12.974
39462W        W 3406  34.925  32.588  11.567
39463W        W 3407  42.810  43.972  11.061
39464W        W 3408  38.507  14.683  14.780
39465W        W 3409  10.154  30.986   2.764
39466W        W 3410  25.173   6.330   4.199
39467W        W 3411  17.145  13.741  12.440
39468W        W 3412  31.049   0.388  12.364
39469W        W 3413  41.961  44.795   2.300
39470W        W 3414  13.723  43.945   9.655
39471W        W 3415  11.369  43.352  11.606
39472W        W 3416  28.964  11.273  13.043
39473W        W 3417  32.110  22.998  13.976
39474W        W 3418  18.788  21.151  11.897
39475W        W 3419  37.906   5.701   0.756
39476W        W 3420   0.420  27.631  10.531
39477W        W 3421  21.612   9.343  13.310
39478W        W 3422  37.971  37.364  11.553
39479W        W 3423  23.675   0.893   4.274
39480W        W 3424  10.729  29.477   0.332
39481W        W 3425   9.192   7.414   1.859
39482W        W 3426  22.607  32.993  10.427
39483W        W 3427  18.760  26.517  14.882
39484W        W 3428  42.390  10.761  13.516
39485W        W 3429  23.689  42.517  12.447
39486W        W 3430  27.074  22.695   2.202
39487W        W 3431  10.252  31.926  12.549
39488W        W 3432  12.277  31.556  14.329
39489W        W 3433  28.041  35.926  12.922
39490W        W 3434  41.311  37.086  11.432
39491W        W 3435   9.190   0.290  10.897
39492W        W 3436  17.120  10.222  13.038
39493W        W 3437  36.843  30.950  11.935
39494W        W 3438  28.169  21.648  11.013
39495W        W 3439  27.134   8.375  14.512
39496W        W 3440   9.244  22.221  13.955
39497W        W 3441  36.372  33.021  14.998
39498W        W 3442  43.375  14.751  13.904
39499W        W 3443  19.561  15.229   1.227
39500W        W 3444  12.686  39.859  11.563
39501W        W 3445   7.855   4.236  13.851
39502W        W 3446  20.769   0.315   4.157
39503W        W 3447  31.536  25.041   4.707
39504W        W 3448  25.616  44.435   3.231
39505W        W 3449  40.522  38.888  14.999
39506W        W 3450  43.980   7.243  13.944
39507W        W 3451  22.656  33.117   1.789
39508W        W 3452  35.370   7.238   1.819
39509W        W 3453  35.005   3.305   4.316
39510W        W 3454   3.316  26.139  10.942
39511W        W 3455   9.655  30.594  13.916
39512W        W 3456  29.622   0.974  12.502
39513W        W 3457  41.866  36.862   1.842
39514W        W 3458  29.110  34.530   1.268
39515W        W 3459  17.276   5.783   0.370
39516W        W 3460  30.542   1.818   4.693
39517W        W 3461  17.636  41.512  10.609
39518W        W 3462   5.861  24.608   0.832
39519W        W 3463   8.663  42.395   1.761
39520W        W 3464  28.601  13.793  10.577
39521W        W 3465  11.741  13.602  14.933
39522W        W 3466   4.221  10.741   3.308
39523W        W 3467  26.503  28.050   2.844
39524W        W 3468  41.439  29.517   4.689
39525W        W 3469  24.975  30.030  12.389
39526W        W 3470  27.190   3.314   0.799
39527W        W 3471  38.840   6.766   3.785
39528W        W 3472   4.258  44.407  10.478
39529W        W 3473   2.792   3.835  14.399
39530W        W 3474  19.605  16.100  13.420
39531W        W 3475  11.301  16.750   9.490
39532W        W 3476  20.586  11.834  12.384
39533W        W 3477   7.182  29.623   3.307
39534W        W 3478  37.011  43.406   4.817
39535W        W 3479  26.108  20.585  12.532
39536W        W 3480  19.053  38.511  14.416
39537W        W 3481  44.328  26.530  13.045
39538W        W 3482  13.822   4.339   0.322
39539W        W 3483  42.800   9.384   3.244
39540W        W 3484  40.877   0.335   0.268
39541W        W 3485  18.127   4.900   3.264
39542W        W 3486  35.958   2.463  14.850
39543W        W 3487  15.148  21.605   3.741
39544W        W 3488  22.739  33.024  11.953
39545W        W 3489   8.246  40.341   3.277
39546W        W 3490  35.072  37.863  13.512
39547W        W 3491  41.503  27.455  14.382
39548W        W 3492   7.293  43.932   2.806
39549W        W 3493   6.221  37.546   0.311
39550W        W 3494   7.908   4.920  13.819
39551W        W 3495  33.439  39.433  14.969
39552W        W 3496  18.635   6.317  14.852
39553W        W 3497  40.987  20.082  13.410
39554W        W 3498  44.397   2.786  13.944
39555W        W 3499  21.677  18.756  11.901
39556W        W 3500  36.869  32.101  10.057
39557W        W 3501   1.475   1.290   0.415
39558W        W 3502  20.719  23.132   0.948
39559W        W 3503  15.607  31.104   3.245
39560W        W 3504  43.945  36.091  10.915
39561W        W 3505   3.437  36.571  12.849
39562W        W 3506  38.858  44.382  12.568
39563W        W 3507  32.513  34.032  12.993
39564W        W 3508   5.870  22.193   4.299
39565W        W 3509  19.233  11.713   4.762
39566W        W 3510  30.557  19.094   4.122
39567W        W 3511  27.093   3.741  14.898
39568W        W 3512  22.579   9.159   3.165
39569W        W 3513  10.860  22.730   1.824
39570W        W 3514  12.819  40.343  14.812
39571W        W 3515  20.759  31.517   2.353
39572W        W 3516  33.436  14.737   0.394
39573W        W 3517  17.164  31.641   4.686
39574W        W 3518  37.408  15.815  12.018
39575W        W 3519  12.825  21.247  10.064
39576W        W 3520  20.670  36.519   1.740
39577W        W 3521  43.338  37.032  11.395
39578W        W 3522  12.660  40.393  11.011
39579W        W 3523  14.794  23.237   0.454
39580W        W 3524  18.658   6.721   1.852
39581W        W 3525  25.110  44.283   2.834
39582W        W 3526  28.572  36.593   4.720
39583W        W 3527  14.134  28.143  11.502
39584W        W 3528  31.489  39.982   2.358
39585W        W 3529   4.277  14.707  12.878
39586W        W 3530  12.755  19.735   3.353
39587W        W 3531   0.832   9.251   5.188
39588W        W 3532  31.517   9.752  13.837
39589W        W 3533  28.644  29.946  11.517
39590W        W 3534   1.449   3.920   2.717
39591W        W 3535  25.112  25.554   1.882
39592W        W 3536  32.903  38.362   2.338
39593W        W 3537  33.555  39.548  11.900
39594W        W 3538  26.484  26.660  11.400
39595W        W 3539  26.975  24.210  13.969
39596W        W 3540  29.015  21.153   1.390
39597W        W 3541  14.254  17.306   1.864
39598W        W 3542  12.323  21.531  12.002
39599W        W 3543  25.980  27.000  11.111
39600W        W 3544  28.638  24.116  11.439
39601W        W 3545  15.100  37.440   1.755
39602W        W 3546   2.912  25.565  11.950
39603W        W 3547  25.698  28.584  10.608
39604W        W 3548   4.884  15.297  11.091
39605W        W 3549  16.268  17.730  12.526
39606W        W 3550  15.823   3.333  12.094
39607W        W 3551  32.457   4.738   2.681
39608W        W 3552  28.054  18.625   2.336
39609W        W 3553   8.302   9.743  10.409
39610W        W 3554  22.741  11.287   2.763
39611W        W 3555  43.484  10.772   2.190
39612W        W 3556   6.228  24.670   0.271
39613W        W 3557  20.155  17.160  10.097
39614W        W 3558  32.391  13.241  11.013
39615W        W 3559  16.692  21.086   4.622
39616W        W 3560  37.379  14.211  12.376
39617W        W 3561  41.321  14.724  12.501
39618W        W 3562  28.600  22.193  10.640
39619W        W 3563  39.907  39.001  13.497
39620W        W 3564  15.094  35.975  13.540
39621W        W 3565  35.464  29.444  12.490
39622W        W 3566   7.758  36.917   0.881
39623W        W 3567  15.581   2.458  12.951
39624W        W 3568  24.114  23.615   0.456
39625W        W 3569  14.602  13.316  12.981
39626W        W 3570  37.547  15.734   5.304
39627W        W 3571  29.645  17.721   2.883
39628W        W 3572  35.979   7.841   1.315
39629W        W 3573  25.654  12.680  12.835
39630W        W 3574   8.345  12.713   0.277
39631W        W 3575  39.043  35.402  10.099
39632W        W 3576  18.133   5.374   3.740
39633W        W 3577  37.378  26.466   0.299
39634W        W 3578  15.631  24.194   4.794
39635W        W 3579  11.329   3.935   0.482
39636W        W 3580  34.383   7.271  13.901
39637W        W 3581  27.503  42.798   5.153
39638W        W 3582  35.501   3.216   3.761
39639W        W 3583  23.174   3.728  13.922
39640W        W 3584   1.857  27.589   0.329
39641W        W 3585  13.241  29.081   5.151
39642W        W 3586  32.473   7.272   3.793
39643W        W 3587  38.877  38.340  13.448
39644W        W 3588  11.813  13.759  12.036
39645W        W 3589  40.031  18.689  12.096
39646W        W 3590   5.924   5.859   4.117
39647W        W 3591   7.335  43.865   0.428
39648W        W 3592  25.710  34.869   3.304
39649W        W 3593  16.284  34.997   2.685
39650W        W 3594  43.777  32.613   2.728
39651W        W 3595  35.489  23.582  13.005
39652W        W 3596  34.063   0.846   1.820
39653W        W 3597  15.646  32.532  13.852
39654W        W 3598  15.666  17.558   2.353
39655W        W 3599  21.701  19.637   3.764
39656W        W 3600  29.047  40.961  14.016
39657W        W 3601   8.708  25.637  12.366
39658W        W 3602  35.533   9.795   0.887
39659W        W 3603  21.185  39.808   1.295
39660W        W 3604  24.145  13.132   1.292
39661W        W 3605  34.068  34.043  14.473
39662W        W 3606  31.018  13.255   0.300
39663W        W 3607  12.166  30.636  14.765
39664W        W 3608  36.422  16.647  12.565
39665W        W 3609  34.551  24.682   2.869
39666W        W 3610  28.074  38.891  10.593
39667W        W 3611  24.577  30.573  11.437
39668W        W 3612  44.334  19.269   1.379
39669W        W 3613  12.279  18.745   4.217
39670W        W 3614  17.668  40.973  13.364
39671W        W 3615   9.301  10.854   0.280
39672W        W 3616  10.234  33.068   1.697
39673W        W 3617   9.308  29.462  12.435
39674W        W 3618  33.906  33.093  13.819
39675W        W 3619   4.332  25.551   3.808
39676W        W 3620  11.158  12.678   2.220
39677W        W 3621  17.077  37.531   1.377
39678W        W 3622   0.421  31.633  13.527
39679W        W 3623  20.241   7.369   5.794
39680W        W 3624  32.926  22.507  12.896
39681W        W 3625  21.548   1.812   4.175
39682W        W 3626  31.105  35.507  11.933
39683W        W 3627  27.623  11.276   1.409
39684W        W 3628  37.570  24.221  12.058
39685W        W 3629  30.502  43.297  11.928
39686W        W 3630  14.703  26.096  11.591
39687W        W 3631  43.483  41.496  13.910
39688W        W 3632  23.604   6.892   4.623
39689W        W 3633  24.012  13.816   0.378
39690W        W 3634   6.753  19.719   1.853
39691W        W 3635  18.662  25.102   3.240
39692W        W 3636  18.199  16.127  14.377
39693W        W 3637   0.876   2.256   3.635
39694W        W 3638  17.180   6.685   0.246
39695W        W 3639  37.380  30.503  10.622
39696W        W 3640  30.953   7.863  10.599
39697W        W 3641  34.499  37.987  13.835
39698W        W 3642  29.545  25.661  10.557
39699W        W 3643   1.762  32.454  13.882
39700W        W 3644  42.521  41.974   2.864
39701W        W 3645   4.289  31.073  11.104
39702W        W 3646   4.206  20.262  11.129
39703W        W 3647  26.048   0.270   1.768
39704W        W 3648  13.225  43.811  12.496
39705W        W 3649  42.379  19.708  14.968
39706W        W 3650   7.178  12.759   3.269
39707W        W 3651  44.492  19.572   0.310
39708W        W 3652  31.614  24.226   1.435
39709W        W 3653  23.638  30.975   3.858
39710W        W 3654  30.508   0.475   1.699
39711W        W 3655  32.417  33.951   0.480
39712W        W 3656   9.863   2.863   0.322
39713W        W 3657  38.427  15.777   4.794
39714W        W 3658  35.005  23.728   0.819
39715W        W 3659  26.542   6.800   2.707
39716W        W 3660  10.319  30.022   2.843
39717W        W 3661  25.645  16.276   3.280
39718W        W 3662  21.536  23.073  13.515
39719W        W 3663  20.099  11.844   4.133
39720W        W 3664   0.270  16.238  14.485
39721W        W 3665  10.246   4.415  14.798
39722W        W 3666  20.553  36.970  11.375
39723W        W 3667  41.407   1.441   3.229
39724W        W 3668   7.177  36.949   4.193
39725W        W 3669  42.420  22.639   4.285
39726W        W 3670  38.846  20.583   0.799
39727W        W 3671  26.515  15.594  13.489
39728W        W 3672  15.135  36.926   2.814
39729W        W 3673  25.703  17.204   3.784
39730W        W 3674  27.965  15.248  14.293
39731W        W 3675  33.121  37.475   3.182
39732W        W 3676  13.350  30.551   1.228
39733W        W 3677  36.966  24.018   3.182
39734W        W 3678  37.560  42.382   1.337
39735W        W 3679  13.808  37.838   0.900
39736W        W 3680  29.974   0.918   1.697
39737W        W 3681  44.504  11.364  12.030
39738W        W 3682  33.517  32.907   4.332
39739W        W 3683  25.061  20.065  12.926
39740W        W 3684  36.397  42.423   0.928
39741W        W 3685   9.760   0.914   3.790
39742W        W 3686  15.796  27.988  13.805
39743W        W 3687  37.969   4.222  11.088
39744W        W 3688   0.744   4.841   1.768
39745W        W 3689  11.713  29.542  11.428
39746W        W 3690  31.599  44.410   3.678
39747W        W 3691   6.355  41.413   4.333
39748W        W 3692  37.900   4.388  12.985
39749W        W 3693  11.737  38.029   2.283
39750W        W 3694   5.369  24.164   2.221
39751W        W 3695   0.754  41.462  12.558
39752W        W 3696  34.481  24.132  13.344
39753W        W 3697   0.263  28.022   1.714
39754W        W 3698  11.656  39.046  11.061
39755W        W 3699  24.558  42.982   4.700
39756W        W 3700   4.273  22.569   4.244
39757W        W 3701  22.634  23.646  10.443
39758W        W 3702   3.248  31.405  14.354
39759W        W 3703  17.695  44.959  11.083
39760W        W 3704  44.494  33.058   4.827
39761W        W 3705  12.223   2.750   0.925
39762W        W 3706  38.508  11.180   4.233
39763W        W 3707  35.458  23.153  13.934
39764W        W 3708  35.052  17.764  10.551
39765W        W 3709  37.489  31.907  13.478
39766W        W 3710  23.697  30.645  13.835
39767W        W 3711   0.391  38.337  10.622
39768W        W 3712  16.292  21.730   1.309
39769W        W 3713  16.085  30.038  11.028
39770W        W 3714  20.639   5.708   0.290
39771W        W 3715   1.938   5.796   2.886
39772W        W 3716  40.390  28.624   4.119
39773W        W 3717  37.418   5.901  12.437
39774W        W 3718   3.731  24.522  10.628
39775W        W 3719   9.883  14.806  13.474
39776W        W 3720  29.082  15.241  13.054
39777W        W 3721   1.305  29.957   3.252
39778W        W 3722  26.970  30.981   4.117
39779W        W 3723  33.891  31.115   0.790
39780W        W 3724  19.047  42.788  13.477
39781W        W 3725  25.047  34.878  12.340
39782W        W 3726  17.155  37.455  11.877
39783W        W 3727  15.216   2.241   3.347
39784W        W 3728   8.661  39.441  14.932
39785W        W 3729  42.387  16.606  11.556
39786W        W 3730  40.422  13.205   0.293
39787W        W 3731  19.563   1.961  10.979
39788W        W 3732  23.496  44.395  10.120
39789W        W 3733  10.766  42.021  13.929
39790W        W 3734  16.798  30.527   2.219
39791W        W 3735   1.851  44.990   3.778
39792W        W 3736   8.817  31.907   0.299
39793W        W 3737  16.699   5.281   5.602
39794W        W 3738  14.320  35.879  11.496
39795W        W 3739   8.190   9.242   0.743
39796W        W 3740  26.030   2.942   1.348
39797W        W 3741   0.345  43.958  14.784
39798W        W 3742  16.671   9.661  13.493
39799W        W 3743   7.753  15.816   9.476
39800W        W 3744  17.714   7.383   4.824
39801W        W 3745  39.522   6.804   4.671
39802W        W 3746   3.318  19.123   1.329
39803W        W 3747  32.958  17.727  13.515
39804W        W 3748  15.220  37.524  14.847
39805W        W 3749  38.822   3.287   4.215
39806W        W 3750   5.886  35.934   0.816
39807W        W 3751   4.242   8.314   4.696
39808W        W 3752  19.581  30.936  11.894
39809W        W 3753   7.175  24.558   0.359
39810W        W 3754  39.998  35.004  10.426
39811W        W 3755  27.478  31.144   4.241
39812W        W 3756  38.072   2.830  12.511
39813W        W 3757  27.037  35.934  10.890
39814W        W 3758   1.810  41.538   0.366
39815W        W 3759  24.144  15.667   2.277
39816W        W 3760  39.387   3.436   0.476
39817W        W 3761   4.747  44.466   1.804
39818W        W 3762  30.031   4.739   2.331
39819W        W 3763  23.630  24.125   2.889
39820W        W 3764   0.872  23.606   5.158
39821W        W 3765  10.649  31.520  10.637
39822W        W 3766  14.655  21.021   1.798
39823W        W 3767   7.815  28.173  10.576
39824W        W 3768  26.058  16.190  12.059
39825W        W 3769  22.079  43.976   3.669
39826W        W 3770  15.124   2.320  13.501
39827W        W 3771  25.128   0.834   2.354
39828W        W 3772  33.944  35.366   1.890
39829W        W 3773  30.430  23.223  14.381
39830W        W 3774  29.982  40.983  11.066
39831W        W 3775  24.499  15.749  13.461
39832W        W 3776  43.874  37.041  14.445
39833W        W 3777  31.634  16.595   5.645
39834W        W 3778  13.347   3.773  12.555
39835W        W 3779  34.448  28.479  13.526
39836W        W 3780  34.988  16.107   4.120
39837W        W 3781  13.273  29.142  13.357
39838W        W 3782  27.606  13.842   2.793
39839W        W 3783  39.963  19.591   2.799
39840W        W 3784  13.149   9.883   4.601
39841W        W 3785  26.176  23.686   2.243
39842W        W 3786   6.358  26.684  10.550
39843W        W 3787  44.458  36.593   3.797
39844W        W 3788   1.761  19.630  12.005
39845W        W 3789   3.284  30.036   2.729
39846W        W 3790  12.781   3.950   0.833
39847W        W 3791  37.905   0.494  13.455
39848W        W 3792   6.719  13.248  12.489
39849W        W 3793  40.971  13.694   2.743
39850W        W 3794  30.609  35.579   4.307
39851W        W 3795  10.764  37.464  11.468
39852W        W 3796  31.419   8.736  11.066
39853W        W 3797  16.676  43.420  13.888
39854W        W 3798  40.401  25.998  12.053
39855W        W 3799   9.808  41.842   1.449
39856W        W 3800  42.015  15.796   0.464
39857W        W 3801   9.247  23.167  14.905
39858W        W 3802   7.263  22.207  12.008
39859W        W 3803   5.754  37.507  12.058
39860W        W 3804  41.019  22.721  14.506
39861W        W 3805  20.089  33.074  13.514
39862W        W 3806  21.696  44.949   3.719
39863W        W 3807  42.397  11.355   0.370
39864W        W 3808   2.348   1.446  11.463
39865W        W 3809  32.403  38.355  10.956
39866W        W 3810  42.358  10.802   1.343
39867W        W 3811  37.382  30.959   0.818
39868W        W 3812  34.559  35.964  13.853
39869W        W 3813  42.452  24.155  11.072
39870W        W 3814  11.154   0.788  10.919
39871W        W 3815  20.620  28.043   4.624
39872W        W 3816  22.574  15.156   0.373
39873W        W 3817   3.928  18.062   0.372
39874W        W 3818  44.948  21.188   0.845
39875W        W 3819  29.443  27.016  14.423
39876W        W 3820  29.594  34.008  13.836
39877W        W 3821  26.631  39.857  12.418
39878W        W 3822  12.725  13.193  14.870
39879W        W 3823   3.271  14.604  11.066
39880W        W 3824  18.735  43.508   3.648
39881W        W 3825  33.398  36.535  13.930
39882W        W 3826  36.495  23.651   3.681
39883W        W 3827  21.116  33.086   0.920
39884W        W 3828  30.956  31.140  12.464
39885W        W 3829  20.244  13.308  14.424
39886W        W 3830  25.562  12.247  14.898
39887W        W 3831  18.225  24.060  10.901
39888W        W 3832  19.227  10.721  13.494
39889W        W 3833   0.320  15.817  14.467
39890W        W 3834  14.735  11.689  12.091
39891W        W 3835   9.784  27.590  14.434
39892W        W 3836  31.515  21.070  10.607
39893W        W 3837  42.843   9.249  12.090
39894W        W 3838  12.276   4.315   3.725
39895W        W 3839  20.755  40.986   1.346
39896W        W 3840  18.168  18.634   0.762
39897W        W 3841  27.589  25.539  11.004
39898W        W 3842  43.020  28.176  12.438
39899W        W 3843  33.501  21.222   5.108
39900W        W 3844  15.164  23.573   0.344
39901W        W 3845   9.339  15.800   4.165
39902W        W 3846  26.993  41.460   1.220
39903W        W 3847   1.467   2.728   1.369
39904W        W 3848  36.521  23.099   3.822
39905W        W 3849   0.887  12.229   3.380
39906W        W 3850  20.628  21.528   1.831
39907W        W 3851  31.463  10.645   0.382
39908W        W 3852   0.976  15.605  13.451
39909W        W 3853   6.411  22.743  12.340
39910W        W 3854  19.222  13.133   2.337
39911W        W 3855  10.142  39.448  14.414
39912W        W 3856  32.557  18.116   3.347
39913W        W 3857   4.824  13.169  14.787
39914W        W 3858  44.857  40.053   3.714
39915W        W 3859  14.186  10.730  10.540
39916W        W 3860  10.185  12.266  10.488
39917W        W 3861  31.121  23.677  12.076
39918W        W 3862  37.932  24.578   0.368
39919W        W 3863  22.608  35.505   0.855
39920W        W 3864  10.862  37.511   4.297
39921W        W 3865  12.658  18.577  12.937
39922W        W 3866  25.097  32.056   4.681
39923W        W 3867  20.599   8.866  10.484
39924W        W 3868  23.678  18.772  10.900
39925W        W 3869  44.258  33.481   2.754
39926W        W 3870  15.725  36.455   4.216
39927W        W 3871  23.671  23.997   3.852
39928W        W 3872   7.737   3.267  13.343
39929W        W 3873  20.073  31.599   0.426
39930W        W 3874   7.313  35.956  11.093
39931W        W 3875  44.461  22.690  11.857
39932W        W 3876  36.570  37.903  14.812
39933W        W 3877  31.974  20.176  14.898
39934W        W 3878   5.722   0.985   0.301
39935W        W 3879  24.551  23.122  10.644
39936W        W 3880  19.722  44.320  11.866
39937W        W 3881  18.136   0.865   3.361
39938W        W 3882   9.389  26.064   3.798
39939W        W 3883  28.150  34.412   1.355
39940W        W 3884  41.968  23.139  10.496
39941W        W 3885  17.294   8.778   3.733
39942W        W 3886  42.032  38.360   4.658
39943W        W 3887  15.619  41.389  12.841
39944W        W 3888  37.358   1.300   0.869
39945W        W 3889   1.867  24.695  14.857
39946W        W 3890  23.595  32.970  10.944
39947W        W 3891  23.137   6.419   0.943
39948W        W 3892   6.713  42.993   0.808
39949W        W 3893  20.672  23.186  14.428
39950W        W 3894  11.802  29.529  14.857
39951W        W 3895  20.769   2.272   1.270
39952W        W 3896  30.913  16.729  11.927
39953W        W 3897  13.240  18.621   4.715
39954W        W 3898  29.128   8.265   0.356
39955W        W 3899   4.740  34.503   1.338
39956W        W 3900  44.395  23.536  14.495
39957W        W 3901  20.114  29.591   0.863
39958W        W 3902  33.881  20.031   3.831
39959W        W 3903  33.583   3.889   0.907
39960W        W 3904   7.375  25.665  12.973
39961W        W 3905   3.732  33.386  13.025
39962W        W 3906  37.519  38.367   1.245
39963W        W 3907  28.102  20.064  12.876
39964W        W 3908  40.391  32.942  12.401
39965W        W 3909   4.826  35.404  11.576
39966W        W 3910  20.231  26.179   2.280
39967W        W 3911  39.422   5.777   4.822
39968W        W 3912  44.337   5.236  10.463
39969W        W 3913  26.164  43.865  12.436
39970W        W 3914  38.001  21.609  11.495
39971W        W 3915  34.096  19.543  11.531
39972W        W 3916  20.150  32.434  12.984
39973W        W 3917  10.869  42.977  12.018
39974W        W 3918   9.293  12.726  10.909
39975W        W 3919  12.644  33.979   1.320
39976W        W 3920  25.700  27.500   1.445
39977W        W 3921  16.665   0.345   4.759
39978W        W 3922  41.945   9.875  13.374
39979W        W 3923   8.688  10.833  12.081
39980W        W 3924  39.984  21.613   4.224
39981W        W 3925   9.249  27.012   5.266
39982W        W 3926  38.850  39.957   4.606
39983W        W 3927  12.752  18.232   1.421
39984W        W 3928  36.055  24.679   0.857
39985W        W 3929   8.328  11.801  10.473
39986W        W 3930  31.137  32.048  12.054
39987W        W 3931  34.035  34.383  11.972
39988W        W 3932  30.441  19.131   2.326
39989W        W 3933  14.759   3.885   0.358
39990W        W 3934  10.179  38.326  12.364
39991W        W 3935   1.264  35.998   4.180
39992W        W 3936  16.179  36.524  12.981
39993W        W 3937  24.982  44.378  11.451
39994W        W 3938  21.571  32.104   3.666
39995W        W 3939  29.603  27.987  14.911
39996W        W 3940  23.105  18.748  13.405
39997W        W 3941   2.842  25.537   0.905
39998W        W 3942  25.007  32.094  11.587
39999W        W 3943   3.719   9.337   3.226
40000W        W 3944  28.653  20.247  14.317
40001W        W 3945   0.302   8.720  14.962
40002W        W 3946  19.540  37.471   1.289
40003W        W 3947   6.734  37.856  11.535
40004W        W 3948  18.159  42.965  13.308
40005W        W 3949  44.415  32.599   0.785
40006W        W 3950  20.691  28.075   1.359
40007W        W 3951  12.850  36.981   3.198
40008W        W 3952  11.326   7.275  14.937
40009W        W 3953  33.065  34.003  14.818
40010W        W 3954  23.514  19.694  10.450
40011W        W 3955  17.222  42.909  13.307
40012W        W 3956  41.994  27.529  14.340
40013W        W 3957   7.323  22.119  12.419
40014W        W 3958  17.201  19.199   3.631
40015W        W 3959   6.204  44.760  13.933
40016W        W 3960  40.485   7.827   2.836
40017W        W 3961  32.969   8.309   2.896
40018W        W 3962  10.227   1.430  13.545
40019W        W 3963  44.495  40.886  11.917
40020W        W 3964  37.577  28.983   0.760
40021W        W 3965  39.543  44.885   1.449
40022W        W 3966  20.045  29.001   2.752
40023W        W 3967  29.060   3.837   3.268
40024W        W 3968  21.161  27.002  13.471
40025W        W 3969  35.576  30.909  10.984
40026W        W 3970  27.967  16.751  14.440
40027W        W 3971  33.618  36.515   2.845
40028W        W 3972   0.923  19.578   0.957
40029W        W 3973  22.705  23.538   0.841
40030W        W 3974  11.795  37.980   1.223
40031W        W 3975  19.109  13.158  10.570
40032W        W 3976   5.243  42.408  12.480
40033W        W 3977  15.254  18.283  14.782
40034W        W 3978  40.342  15.687   3.689
40035W        W 3979  22.659  25.111   2.395
40036W        W 3980   5.726  25.062   2.346
40037W        W 3981   8.768  30.619   3.671
40038W        W 3982   1.279  27.970   4.131
40039W        W 3983  15.596   0.441   2.774
40040W        W 3984  40.941  24.500   2.383
40041W        W 3985  33.449  37.029  11.007
40042W        W 3986  38.467  29.633  13.325
40043W        W 3987  16.730  25.611   3.667
40044W        W 3988  36.500  33.974   0.465
40045W        W 3989  43.863   6.824   3.720
40046W        W 3990   8.750  19.113  11.991
40047W        W 3991   4.296   1.306   2.805
40048W        W 3992  29.444  14.612  13.883
40049W        W 3993   9.666  43.859  12.995
40050W        W 3994  24.073  36.931   1.802
40051W        W 3995  30.048  40.817   1.865
40052W        W 3996  38.377  42.475   0.411
40053W        W 3997  27.125  15.219  14.412
40054W        W 3998   1.742  18.734   3.842
40055W        W 3999   9.396  40.912   2.179
40056W        W 4000  38.829  18.216  14.760
40057W        W 4001  12.718  41.877   4.742
40058W        W 4002  44.780  25.162   4.734
40059W        W 4003  25.074  28.617   1.724
40060W        W 4004  13.205  13.628   2.733
40061W        W 4005  38.385  29.075   0.802
40062W        W 4006  20.622  24.193   1.401
40063W        W 4007  28.990  14.234  14.817
40064W        W 4008  44.326   1.740   4.215
40065W        W 4009   8.895  31.591  10.968
40066W        W 4010  19.779   7.338   1.279
40067W        W 4011  30.132  28.177  12.970
40068W        W 4012  16.202   0.885   1.250
40069W        W 4013  33.457  26.011  11.996
40070W        W 4014  29.483   6.778  14.381
40071W        W 4015  34.425  26.581  12.970
40072W        W 4016  16.696  11.264  13.466
40073W        W 4017  13.241  26.509   4.182
40074W        W 4018   7.363  37.933   1.722
40075W        W 4019  16.100  21.172   5.096
40076W        W 4020  20.224  15.769   1.852
40077W        W 4021   9.872  30.096  14.815
40078W        W 4022   6.350  17.749   2.218
40079W        W 4023  20.580   3.348  14.840
40080W        W 4024   4.842  12.827  13.959
40081W        W 4025  19.127  10.168  12.938
40082W        W 4026  27.686  41.975   1.376
40083W        W 4027  21.517  21.591   4.295
40084W        W 4028  40.349  20.533  14.505
40085W        W 4029  35.964  30.511   3.849
40086W        W 4030  34.586   1.276  11.984
40087W        W 4031   5.252  20.749   0.802
40088W        W 4032  18.695  29.110  14.396
40089W        W 4033  19.703  11.866  10.587
40090W        W 4034  37.914  25.988  14.790
40091W        W 4035  20.746  12.615  14.480
40092W        W 4036  12.691  41.512   4.147
40093W        W 4037  33.390  22.161  10.458
40094W        W 4038   9.182  35.391   0.446
40095W        W 4039  12.732  41.922   1.895
40096W        W 4040   8.373   0.770   3.319
40097W        W 4041  30.946  11.127  14.853
40098W        W 4042  32.496  40.972   4.131
40099W        W 4043  43.920   6.706  11.054
40100W        W 4044  17.729   2.802   4.616
40101W        W 4045   6.347  27.519  14.444
40102W        W 4046  12.844  19.100   1.726
40103W        W 4047  31.896  22.559   4.233
40104W        W 4048  24.193   3.893   1.371
40105W        W 4049  39.345  33.106   4.206
40106W        W 4050  27.585   3.925   0.793
40107W        W 4051  28.448  37.366   4.607
40108W        W 4052  10.324   5.881   0.761
40109W        W 4053  33.044  15.791   0.295
40110W        W 4054  17.140  23.150   0.786
40111W        W 4055  31.985  11.829  14.762
40112W        W 4056  23.211  26.128  13.428
40113W        W 4057   8.750  28.144  13.878
40114W        W 4058  35.488  19.724  14.490
40115W        W 4059  37.392  17.175  12.039
40116W        W 4060   6.765   4.882   3.827
40117W        W 4061  38.888  43.870  14.004
40118W        W 4062  12.693  38.827  12.566
40119W        W 4063  19.078  10.698   2.278
40120W        W 4064  20.221  33.093  11.011
40121W        W 4065   2.382   9.380  14.839
40122W        W 4066   6.783   2.764   4.659
40123W        W 4067  12.354  38.966  11.433
40124W        W 4068   4.767  36.963  12.522
40125W        W 4069  28.480  25.493  13.976
40126W        W 4070  36.394  37.356   3.329
40127W        W 4071  20.613  44.758  10.592
40128W        W 4072  15.657  29.142   2.202
40129W        W 4073  33.508  19.700   5.276
40130W        W 4074  27.059  41.446   1.751
40131W        W 4075  25.084  42.794   1.310
40132W        W 4076  19.047  30.536  12.435
40133W        W 4077  31.990  39.954  11.946
40134W        W 4078   0.259  32.507  13.013
40135W        W 4079  27.008  16.601  13.044
40136W        W 4080  10.721   3.921   3.634
40137W        W 4081  34.553  33.936  11.917
40138W        W 4082   6.825  16.294  13.011
40139W        W 4083   8.282   1.867  13.988
40140W        W 4084  15.648   3.245  11.094
40141W        W 4085  27.538   6.873   2.324
40142W        W 4086  30.594  33.981   1.873
40143W        W 4087  26.602  34.541   3.162
40144W        W 4088   2.934   0.811   1.758
40145W        W 4089   8.676  36.895  13.434
40146W        W 4090  21.721  39.851   0.350
40147W        W 4091  32.522  16.774  12.440
40148W        W 4092  20.610  14.613  10.970
40149W        W 4093  26.497   9.737   1.788
40150W        W 4094   9.713   3.934  13.009
40151W        W 4095   6.708  16.263  10.144
40152W        W 4096  39.441  38.542   3.319
40153W        W 4097   5.385  26.044  11.456
40154W        W 4098  42.306  27.169  12.897
40155W        W 4099  39.010  34.614  12.928
40156W        W 4100  24.723  35.081  10.524
40157W        W 4101   7.874  20.031   4.297
40158W        W 4102  30.566  29.997  13.928
40159W        W 4103   1.250  11.826   1.418
40160W        W 4104  33.586   0.946   0.954
40161W        W 4105  40.342  26.956   3.271
40162W        W 4106  34.115  26.010   0.734
40163W        W 4107   9.344  23.550   0.778
40164W        W 4108  43.833  26.150   2.183
40165W        W 4109  20.649  20.617   0.929
40166W        W 4110  24.487   6.212  11.126
40167W        W 4111  44.311   8.252   4.149
40168W        W 4112  22.581  22.629  10.045
40169W        W 4113   0.430  29.092   3.725
40170W        W 4114  12.254  12.743   2.775
40171W        W 4115  31.499  42.954   3.317
40172W        W 4116  12.814   0.303   2.326
40173W        W 4117  28.108  42.486   1.423
40174W        W 4118  19.110  31.543   3.698
40175W        W 4119  29.624  11.756  11.458
40176W        W 4120  17.281  23.686   2.185
40177W        W 4121  22.582  13.646  11.559
40178W        W 4122  34.041  11.819   2.414
40179W        W 4123  42.384  32.467   0.897
40180W        W 4124  32.392  44.791  10.598
40181W        W 4125   0.835  24.645   2.181
40182W        W 4126  16.703  15.665  14.820
40183W        W 4127  14.621  30.582  11.856
40184W        W 4128  13.155  39.915  14.307
40185W        W 4129   0.479   9.236   2.836
40186W        W 4130  41.474   5.703  14.783
40187W        W 4131   3.287  30.018   4.257
40188W        W 4132  41.837  37.515  14.499
40189W        W 4133  25.107  36.062   4.829
40190W        W 4134   4.801  26.547   0.349
40191W        W 4135  24.146  14.827   0.805
40192W        W 4136  31.645  38.966  12.945
40193W        W 4137  11.845  35.537  12.549
40194W        W 4138  44.848   4.366   4.194
40195W        W 4139  43.502  30.579   3.325
40196W        W 4140  25.519  34.386   3.203
40197W        W 4141  27.618  42.960  14.875
40198W        W 4142   7.849  22.543   2.239
40199W        W 4143  24.665  23.663   1.797
40200W        W 4144  35.943  38.873  11.962
40201W        W 4145  11.282  15.130  10.914
40202W        W 4146  37.887  11.175  13.830
40203W        W 4147  29.517  13.609  11.410
40204W        W 4148  28.436  17.296   4.710
40205W        W 4149  41.891  28.090   0.751
40206W        W 4150  10.790  27.945   0.886
40207W        W 4151   6.709  17.254  10.936
40208W        W 4152   3.832  12.297  14.026
40209W        W 4153  13.778   7.728  11.981
40210W        W 4154   0.825  33.125   1.744
40211W        W 4155  12.196   4.843   0.927
40212W        W 4156  35.430  27.551  13.313
40213W        W 4157  17.083   6.233   1.314
40214W        W 4158   9.324  35.401  13.800
40215W        W 4159   4.793  28.680  14.016
40216W        W 4160  40.410  17.569  11.567
40217W        W 4161   0.473  16.798   2.825
40218W        W 4162   0.814  23.994  11.483
40219W        W 4163  14.202  12.319  14.924
40220W        W 4164   7.834  10.718   3.712
40221W        W 4165  17.743  23.047  13.357
40222W        W 4166   7.228   9.713  13.395
40223W        W 4167  36.380  29.121  11.953
40224W        W 4168   2.318  34.544  12.509
40225W        W 4169   0.870  40.891  11.603
40226W        W 4170  23.027  16.626  11.569
40227W        W 4171  14.790   1.375   1.410
40228W        W 4172  22.013  39.551   4.327
40229W        W 4173   9.257  31.027  14.761
40230W        W 4174  13.171   0.260   2.234
40231W        W 4175  27.640  14.807   0.904
40232W        W 4176  42.417  31.470  13.016
40233W        W 4177  15.196  21.103  10.442
40234W        W 4178  32.465  15.144  13.315
40235W        W 4179  42.307  27.544   2.348
40236W        W 4180  27.050   5.255  13.361
40237W        W 4181  24.224  21.217  13.034
40238W        W 4182  32.458  28.084  11.578
40239W        W 4183  26.599  12.855   2.793
40240W        W 4184  22.524  43.790   0.802
40241W        W 4185  30.947  21.195   2.707
40242W        W 4186   7.869   4.406  12.879
40243W        W 4187  22.098  14.797   2.837
40244W        W 4188  43.894   2.328   2.209
40245W        W 4189  37.025  44.338   2.209
40246W        W 4190   2.748  22.727  10.610
40247W        W 4191  42.474  23.239  13.829
40248W        W 4192  41.814   4.390  13.045
40249W        W 4193  43.472   1.771  12.553
40250W        W 4194  27.641  39.926  13.916
40251W        W 4195  18.157  40.367  12.894
40252W        W 4196  14.639  10.709  13.988
40253W        W 4197  26.984  28.638   4.796
40254W        W 4198  39.514  23.032  13.058
40255W        W 4199  26.601  22.181  10.987
40256W        W 4200  26.107  10.736  12.963
40257W        W 4201  27.131   7.369   0.858
40258W        W 4202  19.101   7.867  14.032
40259W        W 4203  44.449  43.409   0.371
40260W        W 4204  14.141  15.262   0.396
40261W        W 4205   3.759  19.225   0.402
40262W        W 4206  28.620  31.926   2.228
40263W        W 4207  15.225  24.568  10.459
40264W        W 4208  18.058  10.377  11.986
40265W        W 4209  31.577  19.737   1.379
40266W        W 4210  15.274   4.422   2.211
40267W        W 4211  42.873   5.767   1.895
40268W        W 4212  19.534  37.852   4.772
40269W        W 4213  11.182  16.292  11.018
40270W        W 4214  43.830  43.502  12.928
40271W        W 4215  14.140  29.024   3.265
40272W        W 4216  30.527  30.914  10.951
40273W        W 4217   4.913  10.171  14.289
40274W        W 4218  35.031  23.071  13.872
40275W        W 4219  21.091  29.041   1.824
40276W        W 4220   5.731  12.777  12.541
40277W        W 4221  41.445   6.260  12.454
40278W        W 4222  29.470   1.879   0.307
40279W        W 4223   0.943  22.670   4.275
40280W        W 4224  37.055  10.226  13.963
40281W        W 4225  41.437   9.868  11.493
40282W        W 4226   3.315   1.368  14.510
40283W        W 4227  44.463   1.380   1.861
40284W        W 4228  43.449  23.148  11.448
40285W        W 4229  31.514   9.392   3.861
40286W        W 4230  13.631  13.213  11.003
40287W        W 4231  37.578  26.536   2.353
40288W        W 4232  12.249  27.136  13.367
40289W        W 4233   4.795  13.823  12.003
40290W        W 4234  25.134  13.113   1.308
40291W        W 4235  37.931  26.614   0.255
40292W        W 4236  17.155  20.730  14.994
40293W        W 4237  29.554  42.510  11.478
40294W        W 4238  18.129  15.253   0.334
40295W        W 4239  41.366  32.477  13.819
40296W        W 4240  20.129   4.428  13.397
40297W        W 4241  17.095  21.175  14.417
40298W        W 4242   5.828  28.496   3.697
40299W        W 4243  23.073  16.240  12.026
40300W        W 4244  23.540  36.361   1.898
40301W        W 4245  32.992  37.464  12.350
40302W        W 4246  33.022  25.550  14.392
40303W        W 4247  34.576  26.603  13.475
40304W        W 4248   8.177  40.045   4.728
40305W        W 4249  35.932   6.800   3.819
40306W        W 4250   6.254   9.653   1.904
40307W        W 4251  34.962   4.698  12.978
40308W        W 4252  40.905  41.892   3.804
40309W        W 4253  17.682  10.147  13.916
40310W        W 4254   5.762   4.309   3.858
40311W        W 4255   0.920  27.593  11.895
40312W        W 4256  35.885  36.094   1.844
40313W        W 4257  38.947  30.049   3.366
40314W        W 4258   9.772  35.022   0.454
40315W        W 4259  20.174  23.637  13.830
40316W        W 4260  11.830  27.485  14.278
40317W        W 4261  18.143  43.377  13.059
40318W        W 4262  18.134   8.672   1.743
40319W        W 4263  19.072  42.461  10.435
40320W        W 4264   8.241   9.656  11.375
40321W        W 4265   2.231   2.326   3.257
40322W        W 4266   0.272  32.406  11.101
40323W        W 4267   0.269  44.445   2.775
40324W        W 4268  33.953   2.413   2.793
40325W        W 4269   8.679  26.110  13.387
40326W        W 4270  38.563  33.581  14.381
40327W        W 4271  11.267  24.208   2.886
40328W        W 4272  23.025  28.948   1.315
40329W        W 4273  44.330  39.330   0.279
40330W        W 4274  17.120  19.565   1.426
40331W        W 4275  23.696   0.898   0.259
40332W        W 4276  26.004  16.172   0.390
40333W        W 4277  21.141   1.413  12.376
40334W        W 4278  14.176  27.964   3.819
40335W        W 4279   1.293  38.474  13.882
40336W        W 4280  39.013   6.299  10.577
40337W        W 4281  34.911  15.121  10.988
40338W        W 4282  24.483  25.508   3.795
40339W        W 4283  19.229  27.527   3.190
40340W        W 4284  24.699  23.993   0.869
40341W        W 4285   2.955  32.954  14.376
40342W        W 4286  34.606  20.164  12.008
40343W        W 4287   8.886  44.781   0.403
40344W        W 4288  13.736  16.680   2.765
40345W        W 4289   5.890  24.064  14.482
40346W        W 4290  26.461  11.356  12.858
40347W        W 4291  23.055   4.713   4.627
40348W        W 4292  15.099   9.665   3.714
40349W        W 4293   3.452  15.754   3.858
40350W        W 4294  10.137  13.325  11.446
40351W        W 4295  35.482  23.064   3.846
40352W        W 4296   6.278   1.423  10.488
40353W        W 4297  33.408  19.548  14.388
40354W        W 4298  41.331  26.544   1.776
40355W        W 4299  40.929  36.462   2.396
40356W        W 4300   4.756  39.008   5.111
40357W        W 4301   9.311   5.338  14.352
40358W        W 4302   3.319  41.967   2.416
40359W        W 4303  14.336  18.176  12.996
40360W        W 4304  23.159  41.434  10.489
40361W        W 4305  14.179  14.593   1.812
40362W        W 4306  35.484  15.235   0.346
40363W        W 4307  20.092   4.264   2.267
40364W        W 4308  32.551  26.660   0.765
40365W        W 4309  36.350  30.569  10.588
40366W        W 4310   7.802  40.503   2.221
40367W        W 4311  24.162  31.922   1.254
40368W        W 4312  43.015   1.916  12.374
40369W        W 4313  30.500  20.098  11.900
40370W        W 4314  37.067  37.562   0.757
40371W        W 4315  23.112  31.130   2.313
40372W        W 4316  33.099   3.324  12.364
40373W        W 4317  15.259  26.466   2.238
40374W        W 4318  27.104  18.638  14.774
40375W        W 4319   8.187  32.113   2.895
40376W        W 4320   0.323  34.983  12.851
40377W        W 4321  14.320  10.807   3.738
40378W        W 4322  23.086  31.014  10.957
40379W        W 4323  32.555  40.456  14.850
40380W        W 4324  13.220   5.267  14.820
40381W        W 4325  43.433   2.935   0.843
40382W        W 4326  24.064   4.301   2.669
40383W        W 4327   5.301  29.974  13.986
40384W        W 4328  41.454  34.019   4.651
40385W        W 4329  16.089  21.070   4.738
40386W        W 4330  21.722  41.377   4.684
40387W        W 4331  11.833  27.504  10.610
40388W        W 4332  33.387  32.901   1.301
40389W        W 4333   0.773  40.039   2.783
40390W        W 4334  15.312  14.126  13.475
40391W        W 4335  13.288  39.834  10.478
40392W        W 4336  36.551  23.070   2.890
40393W        W 4337   4.245  20.605  14.025
40394W        W 4338  25.626  36.396  14.824
40395W        W 4339  44.407  29.530   5.259
40396W        W 4340  12.263  39.019   3.854
40397W        W 4341  31.641   6.318   3.727
40398W        W 4342  32.928   8.770   3.369
40399W        W 4343  22.686  16.208   2.333
40400W        W 4344  27.662  36.060  12.997
40401W        W 4345   2.404  21.172  13.985
40402W        W 4346   7.331  43.856   1.402
40403W        W 4347  38.884  27.088   2.662
40404W        W 4348   6.862  10.242   2.247
40405W        W 4349  44.353  40.854  14.936
40406W        W 4350   1.300  13.194  10.605
40407W        W 4351  19.669   0.912   0.414
40408W        W 4352   4.339  31.579   1.733
40409W        W 4353  29.471   6.754  12.928
40410W        W 4354  24.221  13.310  10.536
40411W        W 4355  22.609  14.130  11.060
40412W        W 4356  44.914  35.531  12.859
40413W        W 4357  30.631  31.411  14.398
40414W        W 4358  15.260  40.873  11.005
40415W        W 4359  11.796   3.291   1.753
40416W        W 4360  14.225  14.830   4.826
40417W        W 4361  21.660  42.931   0.861
40418W        W 4362   1.328  17.689   4.632
40419W        W 4363  13.808   0.440   0.726
40420W        W 4364  13.731  15.624  14.783
40421W        W 4365   5.257  35.883   0.259
40422W        W 4366  16.141   0.968   0.943
40423W        W 4367  22.708  36.587  10.501
40424W        W 4368  13.621  14.105  13.431
40425W        W 4369  28.450  15.659  10.094
40426W        W 4370  17.294  40.357  13.918
40427W        W 4371  27.571  21.240   4.743
40428W        W 4372   3.866  12.835  14.494
40429W        W 4373   9.217  26.207  11.541
40430W        W 4374   6.704  35.420  14.972
40431W        W 4375   7.854  43.002  13.015
40432W        W 4376   1.393  42.357   4.724
40433W        W 4377  30.963  20.171  10.969
40434W        W 4378  14.331  10.203  12.401
40435W        W 4379   1.350  18.718  11.597
40436W        W 4380  27.187  39.530  10.897
40437W        W 4381  31.596  35.099  12.929
40438W        W 4382  32.125  31.536   5.141
40439W        W 4383  27.063  20.109  14.791
40440W        W 4384  16.691   6.764  10.039
40441W        W 4385  16.780   5.332   0.299
40442W        W 4386  28.677   3.873  12.448
40443W        W 4387  14.328  35.491  13.009
40444W        W 4388  38.518  28.103   2.344
40445W        W 4389  23.144   8.750  13.901
40446W        W 4390   4.799  30.651   1.340
40447W        W 4391  26.155   3.763  11.009
40448W        W 4392  19.755  31.926  12.444
40449W        W 4393  17.219   2.944   2.730
40450W        W 4394  26.553  16.641  10.007
40451W        W 4395   1.862   0.424  14.984
40452W        W 4396   9.750  37.576  10.992
40453W        W 4397  10.297   3.929  12.393
40454W        W 4398  14.729   4.914   0.794
40455W        W 4399  43.379  24.648   1.276
40456W        W 4400  10.717  22.702  13.546
40457W        W 4401  39.326  29.434   0.248
40458W        W 4402  34.903  13.304  12.888
40459W        W 4403  28.594  42.472  14.355
40460W        W 4404  20.056  38.571  13.908
40461W        W 4405  37.373   4.282   0.777
40462W        W 4406  32.926  30.142   4.608
40463W        W 4407  12.298  37.945   3.688
40464W        W 4408  38.050   9.313   0.892
40465W        W 4409   7.722  27.101  12.827
40466W        W 4410   8.843  10.791   3.796
40467W        W 4411   7.373   3.229   4.121
40468W        W 4412  33.470  28.154  14.323
40469W        W 4413   6.314  24.158   3.261
40470W        W 4414  22.657  25.104   2.727
40471W        W 4415  34.964  13.807  14.346
40472W        W 4416  16.736  12.686  11.918
40473W        W 4417  17.223  33.901   4.117
40474W        W 4418   2.842  17.300  10.929
40475W        W 4419  42.838  41.957   2.346
40476W        W 4420   7.848  24.559  13.873
40477W        W 4421  25.082   2.926   2.335
40478W        W 4422  42.851   6.736  12.909
40479W        W 4423   9.337   7.787   4.751
40480W        W 4424   8.835  37.437  10.160
40481W        W 4425  41.305  13.719   1.429
40482W        W 4426  16.263  11.226  12.517
40483W        W 4427   6.309  22.700  14.826
40484W        W 4428   8.664  36.527   1.334
40485W        W 4429  40.839  16.204   0.369
40486W        W 4430  31.128  35.923  12.916
40487W        W 4431  16.670  19.159  13.511
40488W        W 4432  28.116  20.721   3.747
40489W        W 4433  29.431  15.285  10.546
40490W        W 4434   3.757  35.483  13.473
40491W        W 4435  36.932  20.681  11.390
40492W        W 4436  26.582  15.710  11.487
40493W        W 4437  41.296  18.731  11.959
40494W        W 4438  41.888  21.755  10.548
40495W        W 4439  29.455  29.667   0.879
40496W        W 4440  27.087  35.541  12.874
40497W        W 4441  15.258  35.905  12.563
40498W        W 4442  15.672  25.164   4.696
40499W        W 4443  23.528  35.900   1.704
40500W        W 4444  13.755   6.278  13.470
40501W        W 4445  21.664  17.639   0.277
40502W        W 4446  16.190   1.775  11.553
40503W        W 4447  29.161   1.335  13.009
40504W        W 4448  29.933  37.469  13.816
40505W        W 4449  17.792   3.260   0.862
40506W        W 4450  44.318  40.331  10.575
40507W        W 4451  19.658   8.381   1.909
40508W        W 4452  20.238   2.816  13.898
40509W        W 4453   4.903  31.597  14.949
40510W        W 4454  44.495  25.002  13.375
40511W        W 4455  31.148  32.488   2.305
40512W        W 4456  19.194   3.738   0.459
40513W        W 4457   0.859   4.229  11.034
40514W        W 4458  30.562  13.812  12.070
40515W        W 4459   3.301  26.483   1.388
40516W        W 4460  40.357  24.030   0.277
40517W        W 4461  23.008   8.877  10.416
40518W        W 4462  32.571  21.649  12.357
40519W        W 4463  36.402  38.953   1.783
40520W        W 4464  19.174  23.627   2.402
40521W        W 4465  35.526  38.536   4.195
40522W        W 4466  31.409   1.742  10.931
40523W        W 4467  33.421  35.859   4.791
40524W        W 4468  42.422  31.642  11.119
40525W        W 4469  44.985  33.463   3.262
40526W        W 4470  27.579   0.351  11.975
40527W        W 4471   8.257  28.152  11.991
40528W        W 4472   2.872   1.309  14.376
40529W        W 4473  35.471  13.726   2.757
40530W        W 4474   9.712   5.877   1.444
40531W        W 4475  19.095   6.852  11.040
40532W        W 4476   7.182  36.545   4.141
40533W        W 4477  43.873  33.125   3.310
40534W        W 4478  12.302  37.039   4.160
40535W        W 4479   5.270  40.534   2.825
40536W        W 4480  19.129  43.000   3.665
40537W        W 4481  41.835  36.472  10.949
40538W        W 4482  18.678  14.152  12.511
40539W        W 4483   7.316   3.434  13.850
40540W        W 4484  18.684   2.859   3.705
40541W        W 4485   1.812  24.653  13.972
40542W        W 4486  41.921   1.334   4.643
40543W        W 4487  42.385  13.711   1.342
40544W        W 4488  26.489  21.741   3.865
40545W        W 4489  14.266  13.738   1.314
40546W        W 4490  41.402   7.345  13.863
40547W        W 4491  44.918   2.370   3.810
40548W        W 4492   2.440  32.098   1.795
40549W        W 4493  33.576  40.930  13.951
40550W        W 4494  36.350  10.756  10.476
40551W        W 4495  34.084  34.965  12.912
40552W        W 4496   5.350  27.077   2.388
40553W        W 4497  17.116  41.959   3.302
40554W        W 4498  37.500   8.847   4.276
40555W        W 4499  17.110  40.006   1.757
40556W        W 4500  24.570  41.907  13.416
40557W        W 4501  11.297  13.271   4.327
40558W        W 4502  16.298  35.380  12.938
40559W        W 4503   4.289  13.175   2.181
40560W        W 4504  29.050  37.878  14.353
40561W        W 4505  10.723  21.227  11.419
40562W        W 4506  16.203  11.316   2.773
40563W        W 4507   9.648  12.178  14.389
40564W        W 4508  32.457  19.715  14.290
40565W        W 4509  43.284  41.012  10.437
40566W        W 4510   5.788  41.537  10.474
40567W        W 4511  37.343  36.435  13.851
40568W        W 4512  17.663   6.380  13.033
40569W        W 4513  28.681  10.855   0.820
40570W        W 4514   5.353  28.606  11.583
40571W        W 4515  24.157  16.177   4.672
40572W        W 4516  22.701  20.218   4.283
40573W        W 4517   8.193  11.681   3.688
40574W        W 4518  34.981   6.408   1.278
40575W        W 4519  26.146  35.451   4.772
40576W        W 4520  42.400  33.020   3.684
40577W        W 4521  20.118  44.892  14.895
40578W        W 4522   3.449  16.085   3.367
40579W        W 4523   4.424   0.306   0.349
40580W        W 4524  28.621   6.419  10.888
40581W        W 4525  31.449  36.912   3.175
40582W        W 4526   0.460   7.871   4.827
40583W        W 4527   7.696  42.807   4.139
40584W        W 4528  16.159  19.048   4.268
40585W        W 4529  15.194   7.795   4.636
40586W        W 4530  21.517  38.481  12.531
40587W        W 4531  33.620  17.684   1.833
40588W        W 4532  15.257  41.424  13.897
40589W        W 4533  36.371  43.287  13.005
40590W        W 4534  43.477  40.874   1.235
40591W        W 4535  40.001  34.897   1.927
40592W        W 4536   7.270  41.492  14.861
40593W        W 4537  40.506   8.286   4.324
40594W        W 4538  26.064  10.148  11.489
40595W        W 4539  37.902  38.347  13.418
40596W        W 4540  34.897   5.832   4.301
40597W        W 4541   3.307  27.137  11.886
40598W        W 4542  20.094  11.729   3.181
40599W        W 4543  36.858  42.004  10.426
40600W        W 4544   2.792  42.388  14.422
40601W        W 4545  23.002  38.374   4.183
40602W        W 4546  21.190  28.623  10.607
40603W        W 4547  43.346  43.816  13.041
40604W        W 4548  20.057  10.349   1.798
40605W        W 4549   8.166  35.585  13.989
40606W        W 4550  12.781  36.411  11.442
40607W        W 4551  43.769  13.309  13.470
40608W        W 4552  17.676  26.474   1.388
40609W        W 4553  26.468  25.552  10.449
40610W        W 4554  37.353   0.319  12.952
40611W        W 4555  10.253   9.344  13.007
40612W        W 4556   7.326  40.863   1.810
40613W        W 4557  42.983   5.842   0.872
40614W        W 4558  42.353   6.874   4.216
40615W        W 4559  37.864  28.040   2.244
40616W        W 4560  32.021  39.847  14.396
40617W        W 4561  23.038  32.494   1.268
40618W        W 4562   8.807  24.228   1.365
40619W        W 4563  15.312  43.284   3.202
40620W        W 4564  35.498  42.001  12.033
40621W        W 4565  44.277  16.296   4.788
40622W        W 4566  12.190  13.776  12.359
40623W        W 4567  25.711  38.835   4.827
40624W        W 4568  16.624  20.706  12.041
40625W        W 4569  39.316  32.459   0.836
40626W        W 4570  10.802  32.967  12.521
40627W        W 4571  22.561   7.385   1.286
40628W        W 4572  26.604  38.397   1.892
40629W        W 4573   5.883  19.598   4.221
40630W        W 4574  11.321  17.683   2.411
40631W        W 4575   5.895  39.864  10.458
40632W        W 4576  31.630  20.182  12.955
40633W        W 4577  43.977  38.536  10.970
40634W        W 4578  33.040  27.142  13.012
40635W        W 4579  37.044  40.354  13.873
40636W        W 4580  22.076  17.238   1.386
40637W        W 4581  37.392  38.468  13.465
40638W        W 4582   8.888  41.986   1.809
40639W        W 4583  14.625  22.230   1.914
40640W        W 4584   5.305  38.882   2.267
40641W        W 4585   5.340   3.855  10.940
40642W        W 4586   8.886   3.217   4.163
40643W        W 4587  30.564  16.717   3.313
40644W        W 4588   3.787  39.370   0.862
40645W        W 4589  28.596   1.778   1.451
40646W        W 4590  38.961  33.061  11.410
40647W        W 4591  42.504  39.526   0.913
40648W        W 4592  21.195  31.027  12.011
40649W        W 4593   1.450  33.030  11.089
40650W        W 4594  36.552  15.693   1.213
40651W        W 4595  21.070  38.835   0.436
40652W        W 4596  14.730  30.078  14.403
40653W        W 4597   1.798  19.042  10.582
40654W        W 4598  19.058  44.837  10.536
40655W        W 4599   4.219  41.911   1.401
40656W        W 4600  24.089   0.442  14.020
40657W        W 4601  31.622  40.377  11.544
40658W        W 4602   8.823  41.014   3.319
40659W        W 4603   9.784  13.315  13.992
40660W        W 4604  37.462   3.428  14.421
40661W        W 4605  13.128   1.744  14.417
40662W        W 4606   0.986  11.158   2.399
40663W        W 4607  37.057   3.724   4.804
40664W        W 4608  32.621  23.536  12.984
40665W        W 4609  22.564  35.088   5.110
40666W        W 4610  32.629  23.138   2.749
40667W        W 4611   0.306  27.964   0.929
40668W        W 4612  16.682  25.144  11.460
40669W        W 4613  13.652  38.946   3.205
40670W        W 4614   4.935  25.028  11.528
40671W        W 4615  12.156  25.065  11.037
40672W        W 4616   4.414  29.926   0.866
40673W        W 4617  30.056  28.463   3.304
40674W        W 4618  10.700   1.852   1.247
40675W        W 4619   2.961  40.952  14.415
40676W        W 4620   8.207  32.116  14.422
40677W        W 4621   5.839  30.549   2.206
40678W        W 4622  15.105  33.540  10.895
40679W        W 4623  32.459  35.534  13.949
40680W        W 4624  14.633   0.411   2.383
40681W        W 4625  22.127   2.467  13.512
40682W        W 4626  41.975  21.622   2.206
40683W        W 4627  25.659  39.532   1.705
40684W        W 4628  33.914  31.000   3.189
40685W        W 4629  14.607  38.447   1.363
40686W        W 4630  22.525  21.164  14.981
40687W        W 4631  32.037  28.584  14.436
40688W        W 4632  21.180  37.058   0.965
40689W        W 4633  13.747  13.221   2.749
40690W        W 4634   4.863  34.938  10.593
40691W        W 4635  19.186  19.669  12.467
40692W        W 4636  35.375  11.715  12.564
40693W        W 4637   8.884  32.120  13.390
40694W        W 4638  27.527  26.593   3.260
40695W        W 4639   4.876  37.883  12.937
40696W        W 4640  31.910  13.172   0.398
40697W        W 4641  38.873  10.874   1.743
40698W        W 4642  19.664   5.729  14.299
40699W        W 4643   4.340  11.307  12.547
40700W        W 4644  39.425  23.632   0.465
40701W        W 4645  14.596  17.557  10.581
40702W        W 4646   9.371   9.742  11.452
40703W        W 4647  32.040  28.950   4.324
40704W        W 4648  20.767  30.587  12.544
40705W        W 4649  39.542  41.907  11.124
40706W        W 4650   1.320  26.070  10.504
40707W        W 4651  34.094  43.984   3.342
40708W        W 4652   5.774  18.211   0.810
40709W        W 4653  14.689  19.283  14.949
40710W        W 4654  38.366  32.436  10.411
40711W        W 4655  18.706  36.888   3.386
40712W        W 4656  33.551  26.512  10.629
40713W        W 4657  41.530  31.548   1.851
40714W        W 4658  13.610  14.691   1.251
40715W        W 4659  20.179  35.551   2.752
40716W        W 4660   6.253  43.310  13.852
40717W        W 4661  11.624  20.070   4.662
40718W        W 4662   7.863   5.693   4.317
40719W        W 4663  31.491  15.136  11.408
40720W        W 4664  32.037  10.353  14.366
40721W        W 4665  34.933   4.931  11.530
40722W        W 4666  19.134  22.554  13.914
40723W        W 4667   7.206  24.647  11.612
40724W        W 4668  19.721  37.858  14.321
40725W        W 4669  22.084  22.668  11.402
40726W        W 4670  12.122  29.043   0.817
40727W        W 4671  18.560  31.553   1.310
40728W        W 4672  24.671  30.103  12.387
40729W        W 4673  30.058  41.813   4.184
40730W        W 4674  26.139  30.054   1.277
40731W        W 4675   6.200   7.740  10.965
40732W        W 4676  21.651   5.818  11.905
40733W        W 4677   4.904   3.945  14.298
40734W        W 4678  22.633  28.648  11.058
40735W        W 4679   5.712   1.442   0.291
40736W        W 4680   6.221  22.597  14.346
40737W        W 4681  12.689   7.277   1.720
40738W        W 4682  37.997   3.444  10.959
40739W        W 4683  24.075   8.900  10.078
40740W        W 4684  29.063  19.673  13.040
40741W        W 4685  33.940   9.253  11.473
40742W        W 4686   0.744  27.028  13.828
40743W        W 4687  27.990  41.516  11.889
40744W        W 4688  39.507  42.017   4.757
40745W        W 4689  13.138  24.137   2.297
40746W        W 4690  19.706  34.610   4.675
40747W        W 4691  43.485  36.559   1.274
40748W        W 4692   4.766  33.530   0.260
40749W        W 4693  20.544  21.637  11.953
40750W        W 4694  39.861  16.185   1.354
40751W        W 4695   6.677  39.885   1.864
40752W        W 4696  20.080  28.643  13.457
40753W        W 4697  10.694  28.515   3.332
40754W        W 4698   2.911   6.859   1.745
40755W        W 4699  10.806  43.796  10.435
40756W        W 4700  39.352   0.297   2.707
40757W        W 4701  13.691   5.300  13.339
40758W        W 4702  32.892  41.921  12.013
40759W        W 4703  42.800  26.971  14.302
40760W        W 4704  23.696  40.535  13.972
40761W        W 4705  36.583  32.126  12.866
40762W        W 4706   3.260   7.226   2.770
40763W        W 4707   2.807  27.947  12.066
40764W        W 4708  41.011  31.453  10.600
40765W        W 4709  18.175   5.923   4.298
40766W        W 4710  23.215   2.292  12.825
40767W        W 4711  18.077   0.960  12.421
40768W        W 4712   4.783   3.905   4.739
40769W        W 4713  26.539  29.614   4.261
40770W        W 4714  22.053   1.860  13.028
40771W        W 4715   9.645  23.042   0.283
40772W        W 4716   4.440  37.507  13.469
40773W        W 4717  31.016   2.246  14.464
40774W        W 4718  27.990  16.254   0.277
40775W        W 4719   3.281  21.185  14.288
40776W        W 4720  33.563  10.673  10.003
40777W        W 4721  21.648  40.333   1.304
40778W        W 4722  24.183  30.655   5.180
40779W        W 4723  15.593  40.361   3.851
40780W        W 4724  34.984  28.172   3.644
40781W        W 4725  16.192  43.322   1.377
40782W        W 4726  35.074  13.620   2.896
40783W        W 4727   1.751   6.783  13.360
40784W        W 4728  20.240  21.660  12.947
40785W        W 4729   6.840  20.115  12.448
40786W        W 4730  21.263  18.126  14.283
40787W        W 4731  34.528  10.761  12.913
40788W        W 4732   5.915  40.836   2.806
40789W        W 4733  40.895  23.666   0.399
40790W        W 4734   3.766  37.004   3.359
40791W        W 4735  10.736  28.064  11.563
40792W        W 4736   7.850  23.217  12.997
40793W        W 4737  16.736  22.515  11.414
40794W        W 4738  26.024  17.684  11.571
40795W        W 4739  32.540  25.606   4.831
40796W        W 4740  38.429  17.112   3.852
40797W        W 4741  29.150   8.723  10.569
40798W        W 4742  32.999  23.239   0.463
40799W        W 4743  39.338  19.772  10.524
40800W        W 4744  27.675  35.564   0.286
40801W        W 4745  36.513   0.901  14.435
40802W        W 4746   7.890   9.294   0.768
40803W        W 4747  34.587   0.837   0.858
40804W        W 4748  16.154   4.795   1.227
40805W        W 4749  22.059  40.326  13.017
40806W        W 4750  21.576  28.678   2.809
40807W        W 4751  24.629  33.930  14.988
40808W        W 4752  38.470  10.803   2.265
40809W        W 4753  11.777  13.153  14.981
40810W        W 4754  15.272   9.379   3.633
40811W        W 4755  32.897  25.491  14.857
40812W        W 4756   3.432  15.773  10.152
40813W        W 4757  23.725  15.283  13.980
40814W        W 4758  27.960  38.056  11.898
40815W        W 4759  27.052  37.408   4.238
40816W        W 4760  20.093  11.365  12.541
40817W        W 4761  20.036  10.184   0.337
40818W        W 4762   9.267  23.120   1.213
40819W        W 4763  21.211  12.629  14.908
40820W        W 4764   3.898  21.669  10.619
40821W        W 4765  22.534  12.158  10.038
40822W        W 4766   3.273  37.963  12.008
40823W        W 4767  27.121   9.653  12.838
40824W        W 4768  28.000   8.673   5.251
40825W        W 4769  42.930   7.205   4.774
40826W        W 4770  19.597  37.443   0.787
40827W        W 4771  10.828   2.453  13.003
40828W        W 4772  43.446  23.559  12.576
40829W        W 4773  41.323  38.529   2.806
40830W        W 4774  11.843  36.085   0.777
40831W        W 4775  20.092  10.847  13.894
40832W        W 4776  11.324  10.646  14.881
40833W        W 4777  43.974  26.663   0.839
40834W        W 4778   8.894  17.598  11.396
40835W        W 4779  26.618  37.006   0.321
40836W        W 4780  38.029  26.122  13.054
40837W        W 4781  11.668   0.372  13.971
40838W        W 4782  35.872  20.718   1.915
40839W        W 4783  31.128  17.302   3.145
40840W        W 4784  41.530  23.179   4.723
40841W        W 4785  43.473   8.655  11.955
40842W        W 4786  39.403  16.741  11.927
40843W        W 4787  28.522  32.926   2.316
40844W        W 4788   5.760  25.468  12.537
40845W        W 4789  39.028  22.116  11.049
40846W        W 4790  18.194  44.397  12.933
40847W        W 4791  40.856   5.765   2.209
40848W        W 4792  39.423  30.502  13.834
40849W        W 4793   6.821  29.931   5.798
40850W        W 4794  18.220  22.721  12.483
40851W        W 4795  22.028   8.258   2.321
40852W        W 4796   2.355   3.835  11.932
40853W        W 4797   1.900   2.779   0.460
40854W        W 4798  16.318  19.102   0.288
40855W        W 4799  35.868   0.985  13.948
40856W        W 4800  29.552  31.930  13.414
40857W        W 4801  42.497  32.075   4.778
40858W        W 4802  43.500  15.779   3.769
40859W        W 4803  37.978   7.209  14.852
40860W        W 4804   6.863  17.645   1.872
40861W        W 4805  26.499  30.481  12.905
40862W        W 4806  14.132  38.916   2.336
40863W        W 4807  15.188   2.881   0.803
40864W        W 4808  27.593  42.375  14.463
40865W        W 4809   9.217  40.534  11.007
40866W        W 4810  22.182  22.018  11.376
40867W        W 4811  29.954  29.510   1.231
40868W        W 4812   6.301   2.380  10.960
40869W        W 4813  18.711  30.441   3.259
40870W        W 4814   2.815  19.218  10.413
40871W        W 4815  21.570  23.011  14.397
40872W        W 4816  19.707  27.538  10.578
40873W        W 4817   8.200  36.419   2.336
40874W        W 4818  18.235  20.106  12.469
40875W        W 4819   6.864  28.155   1.751
40876W        W 4820  37.382  25.974   4.116
40877W        W 4821  31.068  39.521   2.269
40878W        W 4822  15.282  39.505   0.870
40879W        W 4823  22.998  24.039  14.417
40880W        W 4824   4.721  23.106  14.952
40881W        W 4825  26.127  25.124  14.313
40882W        W 4826  44.843  34.507   1.805
40883W        W 4827   5.930  17.079   3.176
40884W        W 4828  30.439   6.742  13.006
40885W        W 4829  36.531  28.525   4.244
40886W        W 4830  44.984   5.907  14.423
40887W        W 4831  38.542  22.094   3.654
40888W        W 4832  43.502   7.754   1.702
40889W        W 4833  42.386  11.713  14.891
40890W        W 4834  28.566  27.192  11.552
40891W        W 4835  40.851   7.775  12.559
40892W        W 4836  14.320  20.065  14.907
40893W        W 4837  30.586  13.141   0.425
40894W        W 4838  32.045  19.699  13.355
40895W        W 4839  42.444  11.138   1.700
40896W        W 4840  21.022  21.215  12.858
40897W        W 4841  33.472  43.890  12.996
40898W        W 4842  28.027  10.346   2.852
40899W        W 4843  44.973  17.069  13.823
40900W        W 4844  41.897  21.626  11.916
40901W        W 4845   7.705  10.690  12.088
40902W        W 4846  27.115  37.496   3.678
40903W        W 4847   9.168  10.302  14.414
40904W        W 4848   6.793   2.860   0.740
40905W        W 4849  36.855  14.146  13.443
40906W        W 4850  37.915  17.643   4.225
40907W        W 4851  37.383  21.197   4.353
40908W        W 4852  32.088  30.936  12.989
40909W        W 4853  38.385  27.595   3.386
40910W        W 4854  19.541  22.194   3.773
40911W        W 4855  38.465  39.050   3.831
40912W        W 4856  10.210  15.091  14.475
40913W        W 4857   1.915  28.468   2.687
40914W        W 4858  42.798   7.666  13.919
40915W        W 4859  27.587  36.992  12.889
40916W        W 4860  13.106  18.554   2.228
40917W        W 4861   5.799  42.492   2.666
40918W        W 4862  32.137  28.499   3.843
40919W        W 4863  40.850  43.428   3.655
40920W        W 4864  36.924   7.685   0.877
40921W        W 4865  43.484  33.476  14.810
40922W        W 4866  26.695  29.625  12.923
40923W        W 4867  36.592  38.346   0.888
40924W        W 4868  35.956  39.064   5.260
40925W        W 4869   1.326  34.540  14.451
40926W        W 4870  31.087  26.672  11.425
40927W        W 4871  10.180   4.235  12.955
40928W        W 4872  30.624   0.898  10.590
40929W        W 4873  34.958  41.924   1.219
40930W        W 4874  17.600  12.759  13.857
40931W        W 4875  27.164  34.043   3.378
40932W        W 4876  36.876  44.495   4.620
40933W        W 4877  18.636   0.849  12.023
40934W        W 4878  38.984  41.043   2.902
40935W        W 4879  42.827   2.822  11.958
40936W        W 4880  37.553  39.430   1.348
40937W        W 4881  37.888  38.826  14.285
40938W        W 4882   8.767   3.293  12.868
40939W        W 4883  14.748  41.379  12.577
40940W        W 4884  35.460  38.955  12.004
40941W        W 4885  18.227  29.008  13.343
40942W        W 4886   7.395  39.452   0.470
40943W        W 4887   3.884   0.836   3.747
40944W        W 4888  20.639  32.462  13.904
40945W        W 4889  34.508  18.242  12.027
40946W        W 4890   4.755   9.173   1.930
40947W        W 4891  22.732  22.182  10.552
40948W        W 4892  28.034  19.199   0.264
40949W        W 4893  10.787  35.890   1.216
40950W        W 4894  15.582  34.449  12.367
40951W        W 4895  32.513  11.743  11.118
40952W        W 4896  42.842  12.748  14.457
40953W        W 4897  23.596  27.096  14.885
40954W        W 4898  24.500  27.468  13.521
40955W        W 4899  18.642   3.759   1.750
40956W        W 4900  31.634  21.640  13.013
40957W        W 4901  12.274  17.714  14.359
40958W        W 4902  35.104  38.948  12.417
40959W        W 4903   5.216  19.746   3.779
40960W        W 4904   8.252   7.773   0.836
40961W        W 4905  32.039  23.712   2.663
40962W        W 4906  21.211  13.820   0.452
40963W        W 4907  34.894  20.140   0.268
40964W        W 4908  32.902  20.618  14.392
40965W        W 4909  41.488   0.812  13.004
40966W        W 4910  38.973  41.472   9.964
40967W        W 4911  27.657   9.858   3.352
40968W        W 4912  14.717  10.654  13.381
40969W        W 4913  29.523  31.973   3.345
40970W        W 4914  27.029  27.959   1.428
40971W        W 4915  32.115  11.648  12.354
40972W        W 4916  36.940  28.578   2.239
40973W        W 4917  23.557   5.196   4.168
40974W        W 4918  42.397  28.143   2.663
40975W        W 4919  23.720  21.198   0.908
40976W        W 4920  16.585  15.734   4.114
40977W        W 4921  31.402  32.914  14.355
40978W        W 4922  37.921  44.772   3.288
40979W        W 4923  21.115  30.040   1.699
40980W        W 4924  24.698  39.049   2.806
40981W        W 4925  27.968  21.540   0.796
40982W        W 4926  32.527  36.573   0.457
40983W        W 4927  32.531  26.576   1.314
40984W        W 4928   1.431  34.491  10.405
40985W        W 4929  42.289  40.389   1.839
40986W        W 4930   1.259  12.761   3.702
40987W        W 4931  30.556  24.160   4.160
40988W        W 4932  13.203  25.174  10.625
40989W        W 4933  31.078  15.249   2.847
40990W        W 4934  12.661   7.201  14.968
40991W        W 4935  40.982   6.684   9.545
40992W        W 4936  39.025  25.135  14.880
40993W        W 4937  33.929  34.964   2.868
40994W        W 4938   4.369  38.940   4.260
40995W        W 4939  18.077  31.148   4.665
40996W        W 4940  33.977  30.617  11.960
40997W        W 4941  34.044  27.944  10.506
40998W        W 4942  35.393  26.035   0.399
40999W        W 4943  24.999   0.281  10.913
41000W        W 4944  16.690  43.413  13.461
41001W        W 4945   0.809  36.082  10.633
41002W        W 4946  27.965  39.899  14.906
41003W        W 4947  34.918  44.368   2.233
41004W        W 4948  13.813  17.139   4.714
41005W        W 4949  22.561  33.492   3.166
41006W        W 4950  30.047  36.550   0.745
41007W        W 4951  37.057  42.324   1.840
41008W        W 4952   0.420   0.282   2.704
41009W        W 4953   2.337  10.778  11.022
41010W        W 4954  34.530  31.639   4.767
41011W        W 4955   6.819  23.078   2.240
41012W        W 4956  33.019  32.587   4.628
41013W        W 4957  21.186  32.972  11.858
41014W        W 4958   0.765  43.868  14.430
41015W        W 4959  42.500  11.228  11.930
41016W        W 4960  30.916  43.471  11.528
41017W        W 4961  44.987  34.909   2.204
41018W        W 4962  30.971  17.746   3.759
41019W        W 4963  43.328  20.092   0.445
41020W        W 4964  16.744  21.245  14.956
41021W        W 4965   8.801  18.162  12.901
41022W        W 4966  22.660  27.630  13.344
41023W        W 4967  18.686   5.273  14.423
41024W        W 4968  15.292  10.175   4.679
41025W        W 4969  36.884  44.813   1.226
41026W        W 4970   0.787  32.017  14.370
41027W        W 4971  42.970  36.423   3.317
41028W        W 4972  29.571  43.878   2.722
41029W        W 4973  14.624  36.401  12.079
41030W        W 4974   4.928  18.199   0.853
41031W        W 4975  22.649  22.073  11.549
41032W        W 4976  23.573  33.978  10.976
41033W        W 4977  38.878  25.031  12.029
41034W        W 4978  22.010  39.923  10.597
41035W        W 4979  27.609   3.342   0.936
41036W        W 4980  31.129  29.613   1.824
41037W        W 4981  36.998   9.221  14.021
41038W        W 4982  24.497   8.236  12.842
41039W        W 4983  24.194   4.377  13.402
41040W        W 4984  16.751  34.465   5.268
41041W        W 4985  29.129  20.084  12.457
41042W        W 4986   8.261  31.132   4.635
41043W        W 4987  27.537  27.169   2.201
41044W        W 4988  11.621  23.710  14.281
41045W        W 4989   1.868  12.656   1.277
41046W        W 4990  31.615  41.834   5.284
41047W        W 4991  34.379   3.378  11.585
41048W        W 4992   0.986  32.615   4.224
41049W        W 4993  42.415  20.565  11.862
41050W        W 4994   1.471  38.361  11.411
41051W        W 4995   9.828  30.521   3.363
41052W        W 4996   4.916  18.188  13.448
41053W        W 4997  20.102  44.798  13.334
41054W        W 4998  21.758  31.558   1.293
41055W        W 4999  15.646  36.006  11.456
41056W        W 5000  36.882   2.773   2.204
41057W        W 5001  16.754  38.924  11.939
41058W        W 5002  25.694  23.170  11.867
41059W        W 5003  23.013   3.903  13.383
41060W        W 5004  23.154  15.128   1.802
41061W        W 5005   7.232  36.393  10.559
41062W        W 5006  29.661  21.732   3.850
41063W        W 5007  32.895  44.863  13.384
41064W        W 5008  34.405   4.281   4.653
41065W        W 5009  16.253  10.300  13.457
41066W        W 5010  21.729   0.386   0.825
41067W        W 5011  19.126  42.872   3.318
41068W        W 5012  20.752  36.963   0.367
41069W        W 5013  38.031  14.107   2.747
41070W        W 5014  14.204   6.406  14.980
41071W        W 5015   8.354  29.530  12.899
41072W        W 5016  36.487   6.723  11.040
41073W        W 5017   0.440  36.074  14.405
41074W        W 5018  36.473  22.646   3.267
41075W        W 5019  15.218  12.267   2.746
41076W        W 5020  23.011   0.941  14.786
41077W        W 5021   3.285  30.561  13.388
41078W        W 5022  19.222  12.180  12.436
41079W        W 5023   4.927  33.957  12.373
41080W        W 5024  21.615   8.398  13.441
41081W        W 5025  26.048  35.065   0.950
41082W        W 5026  27.688  36.512   4.744
41083W        W 5027  24.694   4.364   4.144
41084W        W 5028  13.326  26.605   2.336
41085W        W 5029   9.306  14.800   4.679
41086W        W 5030  31.004  31.581   3.202
41087W        W 5031  30.044  12.772   4.265
41088W        W 5032  44.842  36.457   3.842
41089W        W 5033  13.775  42.411   4.703
41090W        W 5034  38.927  30.542  13.311
41091W        W 5035  39.318  38.951  14.391
41092W        W 5036  28.488  37.957  11.415
41093W        W 5037  20.088  23.212  13.060
41094W        W 5038  34.375  34.972  12.440
41095W        W 5039  35.469   8.388   1.235
41096W        W 5040   2.880  30.610   3.782
41097W        W 5041  35.981  44.797   1.813
41098W        W 5042  18.678  37.413  10.085
41099W        W 5043  41.831  42.025  11.435
41100W        W 5044  34.083   5.251   3.725
41101W        W 5045  21.628  28.509   2.197
41102W        W 5046  10.719  14.336   1.927
41103W        W 5047  11.317   4.943   0.837
41104W        W 5048  12.205  44.778  14.299
41105W        W 5049   1.947  44.975  11.515
41106W        W 5050  20.582  44.491   0.922
41107W        W 5051  41.010  16.581  14.482
41108W        W 5052   4.933  42.370  10.645
41109W        W 5053  41.952  20.074   1.321
41110W        W 5054  17.667  22.013  11.572
41111W        W 5055  43.320  44.870  12.948
41112W        W 5056  42.868  14.667   4.118
41113W        W 5057   5.792  29.445   1.881
41114W        W 5058  32.606   6.348   1.323
41115W        W 5059   1.295  16.302   1.830
41116W        W 5060   4.316   6.228   0.455
41117W        W 5061  19.627  13.756   2.888
41118W        W 5062  33.473   3.338   4.742
41119W        W 5063   7.375  20.653   0.276
41120W        W 5064  29.099  35.556   0.800
41121W        W 5065  17.111  44.330  13.491
41122W        W 5066  34.540  23.212   2.675
41123W        W 5067  34.470  26.157   4.804
41124W        W 5068  44.427   6.804  14.349
41125W        W 5069  42.959  40.957   2.662
41126W        W 5070  15.156  33.909   2.198
41127W        W 5071  43.346   4.411   0.314
41128W        W 5072  10.729  29.493   3.245
41129W        W 5073  23.224  44.938  11.530
41130W        W 5074   9.260   4.222   2.323
41131W        W 5075   6.290  27.640  12.514
41132W        W 5076  12.348  13.655  13.794
41133W        W 5077  29.093  24.032  13.048
41134W        W 5078  37.083   0.939  10.433
41135W        W 5079  27.452  32.117   1.846
41136W        W 5080  36.096  10.845   3.369
41137W        W 5081  33.436  44.968   0.731
41138W        W 5082   3.955  13.684  11.952
41139W        W 5083  32.508   3.356  14.951
41140W        W 5084  16.649  36.502   0.860
41141W        W 5085  27.167  32.613   3.745
41142W        W 5086  33.028  34.539  10.426
41143W        W 5087   9.780  11.130  14.892
41144W        W 5088  29.943  15.626  12.872
41145W        W 5089  17.628  12.279   2.412
41146W        W 5090  36.554  16.767  11.590
41147W        W 5091  16.788  19.753  14.316
41148W        W 5092  30.033   8.891  14.965
41149W        W 5093  20.192   5.737  13.362
41150W        W 5094  20.585  43.466  11.606
41151W        W 5095   3.883   2.721  10.559
41152W        W 5096  10.244  18.230  14.031
41153W        W 5097   7.684  32.615  11.577
41154W        W 5098  37.493  21.039  13.799
41155W        W 5099  40.322  37.504   2.790
41156W        W 5100  41.026  12.830   3.245
41157W        W 5101  23.532  10.169  13.366
41158W        W 5102   0.349  28.498   1.695
41159W        W 5103  29.936  34.548   3.792
41160W        W 5104   7.797  18.154  10.431
41161W        W 5105  22.694  44.295   4.806
41162W        W 5106  32.026  17.595  12.086
41163W        W 5107   3.321  21.522  10.501
41164W        W 5108  24.147  40.394  10.628
41165W        W 5109  14.303  20.623   3.645
41166W        W 5110  13.290  14.695   1.411
41167W        W 5111  22.672  30.112  13.966
41168W        W 5112   7.757  11.370   0.875
41169W        W 5113  29.451   2.944   4.668
41170W        W 5114  16.681  11.644   1.797
41171W        W 5115   5.339  34.011  13.838
41172W        W 5116  37.028   0.907   3.769
41173W        W 5117  14.145  39.923   2.672
41174W        W 5118   1.251  20.757   2.353
41175W        W 5119  30.948  13.112  12.366
41176W        W 5120  29.922   4.856  11.572
41177W        W 5121  14.114   3.245  10.573
41178W        W 5122  36.895   3.244  14.338
41179W        W 5123   2.915  20.264  13.921
41180W        W 5124  25.117  23.623  12.991
41181W        W 5125  20.088   3.897  13.541
41182W        W 5126  35.451  24.601  12.083
41183W        W 5127  25.106  33.030  14.991
41184W        W 5128  39.368  22.524  10.981
41185W        W 5129  35.499  40.023  14.971
41186W        W 5130  18.136  42.502   4.680
41187W        W 5131  28.178  22.057   2.714
41188W        W 5132  39.009  24.554   2.364
41189W        W 5133  10.206  13.834   3.232
41190W        W 5134   2.833  13.646   2.286
41191W        W 5135  34.541   6.882  10.451
41192W        W 5136   1.330   7.233  11.020
41193W        W 5137  32.412  15.131  12.949
41194W        W 5138  36.064   4.322  10.482
41195W        W 5139  39.520  32.481  13.891
41196W        W 5140   6.276  44.975   2.334
41197W        W 5141   2.725   2.906  11.404
41198W        W 5142  44.929  23.140  14.469
41199W        W 5143   8.303  20.766  13.418
41200W        W 5144   5.341   6.402  13.385
41201W        W 5145  24.558  16.187  13.972
41202W        W 5146  25.477  31.925   3.670
41203W        W 5147  13.257  21.530   4.831
41204W        W 5148  16.090  12.221   1.354
41205W        W 5149  16.123  19.597   1.891
41206W        W 5150  37.390  42.411  10.923
41207W        W 5151  29.557  39.494  14.879
41208W        W 5152  22.681  23.549   1.919
41209W        W 5153  33.585  44.813   2.721
41210W        W 5154  38.500  31.616  14.343
41211W        W 5155  44.465  40.404   4.698
41212W        W 5156  32.991   8.762   1.866
41213W        W 5157  16.128  13.681   1.816
41214W        W 5158  16.593  37.020  14.913
41215W        W 5159  26.642   7.285   2.745
41216W        W 5160  26.462   6.750  13.904
41217W        W 5161  29.953  20.207   3.277
41218W        W 5162  15.600  26.046   1.843
41219W        W 5163  33.436  32.968  10.983
41220W        W 5164  24.549  31.537   3.688
41221W        W 5165   7.386  12.203   3.365
41222W        W 5166  26.458  39.445   4.774
41223W        W 5167  30.452  39.507  12.372
41224W        W 5168  43.292  25.022  11.568
41225W        W 5169  31.601   5.858   2.273
41226W        W 5170  38.904  21.595  14.335
41227W        W 5171  31.627  19.045  10.998
41228W        W 5172  30.587  38.514  12.561
41229W        W 5173  34.869   3.807   1.703
41230W        W 5174   6.357  17.625  12.897
41231W        W 5175   0.357  23.574   2.222
41232W        W 5176  21.658  15.664   0.935
41233W        W 5177  20.527  29.469   4.750
41234W        W 5178  17.769   6.790  14.463
41235W        W 5179  33.472  33.572  11.875
41236W        W 5180   2.834  23.151  11.120
41237W        W 5181   3.288  21.021   9.993
41238W        W 5182  32.902  21.145  13.854
41239W        W 5183  17.635  13.811   2.391
41240W        W 5184  13.317   1.324   4.240
41241W        W 5185  15.603  28.657  13.320
41242W        W 5186  22.178  18.264   3.649
41243W        W 5187  18.735  29.618   0.902
41244W        W 5188  42.847  12.256  11.908
41245W        W 5189  19.086  42.023   3.353
41246W        W 5190  42.920  10.749   4.237
41247W        W 5191  33.932  41.356   3.728
41248W        W 5192  44.272  37.045   2.267
41249W        W 5193  25.576  11.732  11.482
41250W        W 5194  28.609  15.320   2.767
41251W        W 5195  17.727  17.187   3.720
41252W        W 5196  18.591  17.626   0.780
41253W        W 5197  41.409  25.631   0.373
41254W        W 5198  20.733  11.645  13.948
41255W        W 5199  23.692  44.810   4.143
41256W        W 5200   2.893  42.484  11.577
41257W        W 5201  27.063   8.824   4.176
41258W        W 5202  22.204  15.608   2.714
41259W        W 5203  11.671   8.736  12.464
41260W        W 5204  26.154  38.412  13.332
41261W        W 5205  14.746  38.901  13.005
41262W        W 5206   2.308  32.604  13.939
41263W        W 5207  28.500  21.709   1.770
41264W        W 5208   5.729  29.084   3.716
41265W        W 5209  39.947  41.972   2.756
41266W        W 5210  10.228  23.133  13.897
41267W        W 5211   9.863  32.914   3.372
41268W        W 5212   8.707  32.134  14.893
41269W        W 5213  40.490  16.199  11.551
41270W        W 5214  27.507  27.994   0.305
41271W        W 5215  25.110  34.112   4.828
41272W        W 5216  18.080  21.751   4.809
41273W        W 5217  18.623  26.162  12.918
41274W        W 5218  10.681  39.423   1.699
41275W        W 5219   8.354  12.830   4.632
41276W        W 5220  38.510  32.068   0.324
41277W        W 5221  38.374   8.366  14.877
41278W        W 5222  17.185  30.100   1.843
41279W        W 5223   3.757  25.713   4.287
41280W        W 5224  22.533  37.428  12.035
41281W        W 5225   2.240   2.894  13.817
41282W        W 5226  15.273  16.803   1.735
41283W        W 5227  30.043  10.778   4.636
41284W        W 5228  32.132  30.487   0.749
41285W        W 5229  26.145  42.296   4.235
41286W        W 5230  13.757  11.291  12.384
41287W        W 5231  32.086  16.236   4.725
41288W        W 5232  20.568  21.684  11.417
41289W        W 5233  25.531  30.963   3.377
41290W        W 5234  31.638  22.033  12.847
41291W        W 5235  38.997   2.738   2.739
41292W        W 5236  31.966  44.932  12.067
41293W        W 5237   0.379  44.880  12.510
41294W        W 5238  12.227   6.920   0.746
41295W        W 5239  39.928   0.392   4.691
41296W        W 5240  33.066  38.006  11.085
41297W        W 5241  38.502  25.554  13.401
41298W        W 5242  21.169  24.073   2.260
41299W        W 5243  24.194   0.868  13.864
41300W        W 5244  41.965  16.186   1.417
41301W        W 5245   8.248  41.437   2.755
41302W        W 5246  38.462  19.613  13.445
41303W        W 5247  42.394   5.877   3.167
41304W        W 5248   8.326  15.252  14.444
41305W        W 5249   4.226  13.717  11.485
41306W        W 5250  33.535  36.554   0.806
41307W        W 5251  10.719  23.191  12.481
41308W        W 5252  34.974  44.300   3.649
41309W        W 5253  21.619  11.825  11.554
41310W        W 5254   2.280  35.381   0.311
41311W        W 5255   4.935  27.022   4.246
41312W        W 5256   9.275  10.339  12.953
41313W        W 5257   7.277  18.065  13.428
41314W        W 5258  39.881   6.839  10.633
41315W        W 5259  35.558  10.765  13.848
41316W        W 5260   4.446  14.747  10.540
41317W        W 5261  40.323  16.282   4.827
41318W        W 5262  28.176   7.684   2.699
41319W        W 5263  44.982  44.964   3.340
41320W        W 5264  16.782   7.781   1.750
41321W        W 5265  24.012  35.581  14.974
41322W        W 5266  25.061  17.751  13.400
41323W        W 5267  33.452  41.915  10.525
41324W        W 5268   2.896  10.860  12.381
41325W        W 5269   2.804  42.796   0.813
41326W        W 5270   7.849  25.638  13.502
41327W        W 5271   8.242  27.622   9.938
41328W        W 5272  29.170   8.175  12.080
41329W        W 5273  36.999  24.211  10.606
41330W        W 5274  16.655   2.313  14.403
41331W        W 5275   5.747  25.160  10.553
41332W        W 5276   4.867  28.659   3.161
41333W        W 5277  22.251  36.099  12.079
41334W        W 5278  18.104   7.908   2.238
41335W        W 5279   4.400  13.772   4.348
41336W        W 5280   9.864  33.455   4.808
41337W        W 5281  18.284  14.786  11.467
41338W        W 5282  20.204  38.325   0.804
41339W        W 5283   0.280  42.473  11.053
41340W        W 5284  10.373  18.178  12.566
41341W        W 5285  20.080  14.824  13.028
41342W        W 5286  29.023  36.484  14.849
41343W        W 5287  38.018  17.079   1.694
41344W        W 5288  43.851  15.286   3.362
41345W        W 5289  23.615  12.181  13.315
41346W        W 5290  19.252  19.275  14.795
41347W        W 5291   4.242  14.802   0.391
41348W        W 5292   1.908  40.869  12.446
41349W        W 5293  22.552  20.573  10.512
41350W        W 5294  27.014  37.508  11.542
41351W        W 5295  44.354   0.944   1.301
41352W        W 5296  19.133  12.228   3.709
41353W        W 5297   8.400  40.802   3.251
41354W        W 5298  14.133  31.913  10.542
41355W        W 5299  43.389  28.155   3.803
41356W        W 5300  41.472   7.240   0.908
41357W        W 5301   7.237  18.761   0.318
41358W        W 5302   6.237  13.722   3.332
41359W        W 5303  37.994  18.578   1.255
41360W        W 5304  32.070  22.143   2.840
41361W        W 5305  42.822  16.257   2.260
41362W        W 5306  35.369  25.712  11.070
41363W        W 5307  37.428  42.343   4.113
41364W        W 5308   9.378  34.092   2.677
41365W        W 5309   6.247  34.964   0.894
41366W        W 5310  41.433  15.194   0.470
41367W        W 5311   4.878  33.109   2.196
41368W        W 5312  22.037  27.670  11.026
41369W        W 5313  24.143  36.941  10.479
41370W        W 5314  29.038  26.485  11.022
41371W        W 5315  38.829  21.745  11.480
41372W        W 5316  34.566   3.905  13.805
41373W        W 5317   9.367   8.857   2.216
41374W        W 5318  26.171   4.285  12.522
41375W        W 5319  30.104  11.299   4.836
41376W        W 5320  27.581   5.852   4.707
41377W        W 5321  19.042  20.139  14.791
41378W        W 5322  36.990  32.468   2.757
41379W        W 5323  26.694  34.982   3.220
41380W        W 5324  25.567   7.858  13.539
41381W        W 5325  24.068  16.127   1.450
41382W        W 5326  43.981  16.101   4.263
41383W        W 5327  29.601  33.576   0.859
41384W        W 5328   6.248  16.640   1.281
41385W        W 5329  12.621  41.519   1.270
41386W        W 5330  34.981  13.156   3.636
41387W        W 5331  42.030   7.875  12.386
41388W        W 5332  14.299  26.590  11.554
41389W        W 5333  25.692  36.452   3.306
41390W        W 5334   8.322  32.967  10.559
41391W        W 5335  42.782   3.750  12.520
41392W        W 5336  43.344  34.885   1.376
41393W        W 5337  32.131   6.723  10.575
41394W        W 5338  29.612  43.425   2.275
41395W        W 5339  12.261   6.870  13.524
41396W        W 5340  22.023   6.788  14.768
41397W        W 5341  27.628  12.308  13.493
41398W        W 5342  11.283  31.994   0.913
41399W        W 5343   1.392  11.793  14.965
41400W        W 5344  31.452  29.584  11.033
41401W        W 5345  31.403  17.094  10.631
41402W        W 5346  37.386  42.880  13.421
41403W        W 5347  37.038  23.562  12.843
41404W        W 5348  36.851  10.284  11.972
41405W        W 5349  23.084  37.024  13.487
41406W        W 5350  11.703  11.206  12.069
41407W        W 5351  18.226  43.441   0.360
41408W        W 5352   5.361  40.885   0.829
41409W        W 5353   0.949  20.058  13.990
41410W        W 5354  15.221   3.936   1.414
41411W        W 5355  11.665  34.587  11.083
41412W        W 5356  18.588  16.172  10.984
41413W        W 5357  25.119  36.991   1.877
41414W        W 5358   2.813  21.715  11.009
41415W        W 5359   5.288  37.513   1.778
41416W        W 5360  29.113   8.329   0.907
41417W        W 5361   2.932   9.360  13.522
41418W        W 5362  13.185   1.846  14.972
41419W        W 5363  30.540  38.827  10.522
41420W        W 5364   7.188  40.339  12.451
41421W        W 5365  43.274  26.512   0.403
41422W        W 5366  44.990   5.280   4.784
41423W        W 5367   3.906  17.627  11.978
41424W        W 5368  21.717  31.093  10.407
41425W        W 5369  18.684  24.068  11.574
41426W        W 5370  17.120  17.739   4.709
41427W        W 5371  30.910   8.340  14.294
41428W        W 5372   9.696  42.515  14.785
41429W        W 5373  15.196  37.426  12.062
41430W        W 5374  12.787  23.731  13.471
41431W        W 5375   1.306  41.390  11.022
41432W        W 5376  23.086  26.985   1.240
41433W        W 5377  31.506   1.827   0.958
41434W        W 5378  35.906  17.294   2.396
41435W        W 5379  17.719  44.364  13.804
41436W        W 5380  18.151  21.087   2.800
41437W        W 5381   3.226   9.674   1.892
41438W        W 5382   9.298   6.821  14.012
41439W        W 5383  19.733  34.407   1.443
41440W        W 5384  13.173  24.565   4.637
41441W        W 5385  40.547   6.726   4.305
41442W        W 5386  37.059  34.399   1.844
41443W        W 5387   0.250   1.401  12.865
41444W        W 5388  17.189  15.780  14.843
41445W        W 5389  11.662   3.894   4.795
41446W        W 5390  27.983  43.823   3.806
41447W        W 5391  16.593   1.450   1.378
41448W        W 5392  44.909  37.409  10.954
41449W        W 5393   7.699   4.902   4.297
41450W        W 5394   7.730  30.021  11.590
41451W        W 5395  42.976   9.835   3.299
41452W        W 5396  33.942  24.549  13.804
41453W        W 5397  30.647  24.510   0.774
41454W        W 5398  30.037   6.800   3.829
41455W        W 5399  30.614  32.593   2.244
41456W        W 5400  17.671  31.016   4.165
41457W        W 5401   6.319   3.728  14.393
41458W        W 5402  44.304   1.766   0.838
41459W        W 5403  43.497  18.183   0.726
41460W        W 5404  31.939   3.359  14.942
41461W        W 5405  32.478  18.053  14.449
41462W        W 5406  11.659  25.645   0.763
41463W        W 5407  38.560  32.122   2.398
41464W        W 5408  40.896  26.162  12.405
41465W        W 5409  28.032   6.682   4.669
41466W        W 5410   8.324   2.950  13.427
41467W        W 5411  41.006  10.328   1.901
41468W        W 5412   3.422  13.302   5.218
41469W        W 5413  24.660  18.777  11.979
41470W        W 5414  16.266  18.267   4.757
41471W        W 5415   7.299  18.745  13.856
41472W        W 5416   3.906  31.067  13.521
41473W        W 5417  15.660  26.099  11.414
41474W        W 5418   0.459  11.361   0.771
41475W        W 5419  20.708   3.304   2.821
41476W        W 5420   2.907  40.331  11.528
41477W        W 5421   9.262  42.477   4.211
41478W        W 5422   7.180   5.924  14.856
41479W        W 5423  10.310  17.633   1.449
41480W        W 5424  10.716   1.273   1.714
41481W        W 5425   9.733  34.415   3.781
41482W        W 5426  24.115   3.709  14.946
41483W        W 5427  40.525  16.226  14.789
41484W        W 5428  43.778  12.736   3.254
41485W        W 5429  39.487  23.013   1.438
41486W        W 5430  30.601  11.157   4.631
41487W        W 5431  40.039  10.298   1.921
41488W        W 5432  34.978   1.270  12.054
41489W        W 5433  15.255  18.632  10.480
41490W        W 5434  25.208   8.201   0.761
41491W        W 5435  32.479  43.483  13.343
41492W        W 5436   8.179  32.392  12.361
41493W        W 5437  37.436  12.320  11.503
41494W        W 5438  30.535  32.922  14.790
41495W        W 5439  43.998  24.209  12.825
41496W        W 5440  41.958   5.414   0.386
41497W        W 5441  20.141  41.873   3.862
41498W        W 5442  33.430  33.422  10.417
41499W        W 5443  26.073  25.165  10.574
41500W        W 5444  38.341  43.380  14.767
41501W        W 5445  39.463  37.987   3.351
41502W        W 5446  10.232  10.232  11.414
41503W        W 5447  16.672  25.130  12.865
41504W        W 5448  17.083  17.278   4.728
41505W        W 5449  19.054  26.152   1.280
41506W        W 5450  27.175  36.560  14.467
41507W        W 5451  40.380  27.473   1.850
41508W        W 5452   7.772   6.190   4.699
41509W        W 5453  38.426  26.988   3.818
41510W        W 5454  19.666  33.395   0.819
41511W        W 5455  15.748   8.821  14.464
41512W        W 5456  15.593  12.244  13.878
41513W        W 5457  36.026  43.408   3.798
41514W        W 5458  42.799  24.162  13.943
41515W        W 5459  42.957  27.047  11.556
41516W        W 5460  22.578  31.418  13.501
41517W        W 5461  27.531  19.066   2.679
41518W        W 5462  36.482  18.550  10.525
41519W        W 5463  31.547  19.711  10.422
41520W        W 5464  35.396  33.624   0.469
41521W        W 5465  43.925   1.797   3.659
41522W        W 5466  12.724   7.182   2.869
41523W        W 5467  32.495  20.200  14.453
41524W        W 5468  18.219  41.894  10.541
41525W        W 5469  19.588  19.640   2.218
41526W        W 5470  24.525  17.300  13.834
41527W        W 5471   2.430  16.271  14.471
41528W        W 5472   0.975  35.440  13.896
41529W        W 5473  11.696  41.977   3.732
41530W        W 5474  21.193  18.652   5.251
41531W        W 5475  32.544  13.629  11.926
41532W        W 5476  24.050  28.054  11.099
41533W        W 5477  41.534   7.778   3.219
41534W        W 5478  11.316   8.356  14.289
41535W        W 5479  43.020  15.144  14.849
41536W        W 5480  35.380  12.749   2.892
41537W        W 5481  44.415  38.338   2.818
41538W        W 5482  40.979  16.633   4.314
41539W        W 5483  29.936  34.929  13.857
41540W        W 5484  14.113  15.594  11.038
41541W        W 5485   1.945  17.615  10.541
41542W        W 5486  26.476   0.811  14.774
41543W        W 5487  16.245   4.903  14.337
41544W        W 5488   5.374  38.895   3.294
41545W        W 5489  42.954  22.072   9.921
41546W        W 5490  14.311  11.167   3.231
41547W        W 5491  19.600  34.002  11.583
41548W        W 5492  40.427   3.861   1.368
41549W        W 5493  40.381  24.088  11.482
41550W        W 5494  33.969   3.820  12.364
41551W        W 5495  14.262  33.043  11.871
41552W        W 5496   3.724  39.539   2.215
41553W        W 5497  34.894   9.771  11.936
41554W        W 5498  11.865  14.777   2.875
41555W        W 5499  26.639  10.652  11.096
41556W        W 5500  12.190  14.636   2.308
41557W        W 5501  29.163  26.536   2.819
41558W        W 5502   3.723  39.999   0.383
41559W        W 5503   5.789  23.082   2.812
41560W        W 5504   4.922   1.769   0.964
41561W        W 5505  13.721  26.993   0.817
41562W        W 5506  21.711   0.432  13.935
41563W        W 5507  25.963  27.675   4.651
41564W        W 5508  34.513  26.583   4.663
41565W        W 5509  38.950  21.054   0.815
41566W        W 5510  42.453   8.891   3.816
41567W        W 5511   8.198  14.749   2.793
41568W        W 5512  11.244   7.790   2.300
41569W        W 5513   2.424  33.955   0.468
41570W        W 5514  33.965  38.529   2.332
41571W        W 5515   7.283  32.475  13.474
41572W        W 5516  11.241  41.942  10.474
41573W        W 5517  43.448  20.633   3.639
41574W        W 5518  14.277  24.587  14.976
41575W        W 5519  44.980   1.825   2.239
41576W        W 5520  40.527  14.134  10.614
41577W        W 5521  23.169  38.523  11.561
41578W        W 5522  13.330  38.044   3.654
41579W        W 5523   6.408  35.506  13.319
41580W        W 5524  34.038   1.311  12.942
41581W        W 5525  33.452  16.578  12.504
41582W        W 5526  25.472  31.072  13.023
41583W        W 5527   6.392   5.211  13.905
41584W        W 5528  38.019  33.411   0.359
41585W        W 5529  21.636  43.425   0.243
41586W        W 5530  18.596   3.948  14.850
41587W        W 5531  41.960   2.933  11.991
41588W        W 5532  42.299  31.432   2.684
41589W        W 5533  30.630   7.850   4.237
41590W        W 5534  28.595  27.982   4.278
41591W        W 5535  34.097  20.167   2.312
41592W        W 5536  43.878  44.317  14.769
41593W        W 5537  33.035  36.553  10.977
41594W        W 5538  19.042   9.807  12.506
41595W        W 5539   5.721  27.637  12.526
41596W        W 5540   2.916  20.167   2.891
41597W        W 5541  39.386  13.601  14.496
41598W        W 5542  44.261  20.736  12.017
41599W        W 5543   0.745  24.143  13.345
41600W        W 5544  29.960  25.499   4.222
41601W        W 5545   2.440  12.139  11.493
41602W        W 5546  13.684  21.687   0.762
41603W        W 5547  18.730  42.403  14.883
41604W        W 5548  10.662  24.222  12.066
41605W        W 5549   9.746  24.127   3.843
41606W        W 5550  14.209  23.552   4.282
41607W        W 5551  10.713  10.268  12.967
41608W        W 5552  11.351  23.650  14.963
41609W        W 5553  32.138  16.218   3.761
41610W        W 5554  36.382  23.642   1.768
41611W        W 5555  14.272  26.598  10.595
41612W        W 5556  16.786  19.202   0.880
41613W        W 5557  23.196  20.597   0.325
41614W        W 5558   9.254  42.808   2.673
41615W        W 5559  39.907  18.579   2.282
41616W        W 5560  21.522  10.783  11.474
41617W        W 5561  35.926  14.228   4.753
41618W        W 5562   3.867  11.158   2.331
41619W        W 5563  36.900  29.613  11.563
41620W        W 5564  40.019  15.584   0.935
41621W        W 5565  44.284  18.757  13.875
41622W        W 5566  29.961  36.938  12.340
41623W        W 5567  25.116  14.782  12.402
41624W        W 5568  19.050  25.708  13.340
41625W        W 5569  38.432  17.748   2.259
41626W        W 5570  42.487  12.270   3.674
41627W        W 5571   6.693  26.156  13.323
41628W        W 5572  24.505  24.220   1.305
41629W        W 5573  23.086  15.812   4.152
41630W        W 5574  32.912  24.089   0.779
41631W        W 5575  12.674  23.559   3.319
41632W        W 5576   2.307  18.726  12.499
41633W        W 5577  39.475  20.527  11.956
41634W        W 5578   1.297  36.390   0.940
41635W        W 5579  26.650  36.411  12.915
41636W        W 5580   4.399  15.322  11.868
41637W        W 5581  24.207  22.191  13.320
41638W        W 5582  37.459   7.725  14.429
41639W        W 5583  30.430  41.311  13.868
41640W        W 5584  15.202  15.797  14.425
41641W        W 5585  24.209  31.020  10.478
41642W        W 5586  29.152  34.535   2.293
41643W        W 5587  31.025   3.345  13.040
41644W        W 5588  21.660  36.078   4.638
41645W        W 5589  30.635  29.050   0.843
41646W        W 5590  36.500   7.840   2.877
41647W        W 5591  31.536  23.023  14.957
41648W        W 5592   5.428  18.585   3.635
41649W        W 5593  43.936  35.412  11.461
41650W        W 5594   6.196   1.371   3.728
41651W        W 5595  42.946  13.739   4.161
41652W        W 5596  40.428  20.742   4.679
41653W        W 5597  11.743  16.285   3.381
41654W        W 5598  26.185  13.631   2.273
41655W        W 5599   7.188  36.437   4.772
41656W        W 5600   2.271  40.946   3.338
41657W        W 5601  24.536  37.069   2.879
41658W        W 5602  12.610  41.981   0.866
41659W        W 5603  40.919  39.968   4.726
41660W        W 5604  21.197  41.489  12.370
41661W        W 5605  20.707  37.354  14.493
41662W        W 5606  30.999  21.075   5.150
41663W        W 5607  31.625   4.428   3.706
41664W        W 5608  40.042  19.593   3.154
41665W        W 5609  38.882  37.016  11.096
41666W        W 5610  32.101  37.578  14.816
41667W        W 5611  12.633   4.781   2.695
41668W        W 5612  37.898  29.454  13.499
41669W        W 5613  13.815  30.969  12.069
41670W        W 5614  18.119   4.718  11.871
41671W        W 5615  33.581  14.316   3.839
41672W        W 5616   7.839  10.193   4.760
41673W        W 5617  11.768  15.205   2.797
41674W        W 5618  24.023  23.192  13.792
41675W        W 5619  33.544  26.667  11.570
41676W        W 5620  26.639  25.502  12.047
41677W        W 5621  11.346  35.379  12.339
41678W        W 5622  17.284  42.507   0.272
41679W        W 5623  17.224  27.024   2.865
41680W        W 5624  43.837  13.602   0.289
41681W        W 5625  16.108  32.956   3.222
41682W        W 5626  28.985  21.216  10.468
41683W        W 5627  39.028   3.352  14.421
41684W        W 5628   8.246  27.011   1.799
41685W        W 5629  16.670  42.387  14.412
41686W        W 5630  15.155  12.223  11.868
41687W        W 5631   1.456  18.277   2.353
41688W        W 5632  28.473   6.374  14.021
41689W        W 5633  25.613   5.268   0.854
41690W        W 5634  35.880  30.132   4.775
41691W        W 5635  31.003  13.774  13.482
41692W        W 5636  20.750   2.890   0.831
41693W        W 5637  10.242  41.854  12.520
41694W        W 5638  42.939  38.995  14.798
41695W        W 5639  14.634   8.898  11.503
41696W        W 5640   2.766  21.221  12.415
41697W        W 5641   0.474  12.746  10.480
41698W        W 5642  35.392  36.069   1.228
41699W        W 5643  44.796  11.854  14.311
41700W        W 5644  25.564  14.178   4.619
41701W        W 5645  40.422  23.590   0.959
41702W        W 5646  31.615   2.330  14.879
41703W        W 5647  37.075  16.190   2.353
41704W        W 5648  23.226  30.636  11.027
41705W        W 5649  38.529  43.797   3.169
41706W        W 5650  30.532  23.643   2.259
41707W        W 5651  10.647  22.191  10.641
41708W        W 5652  22.720  42.318  14.987
41709W        W 5653  30.994  12.239  10.410
41710W        W 5654  43.381  13.830  14.978
41711W        W 5655   9.783  35.584  11.111
41712W        W 5656  38.355  16.720   1.888
41713W        W 5657  13.608  28.495   0.852
41714W        W 5658  30.620   4.401   2.772
41715W        W 5659  16.649  34.901   3.656
41716W        W 5660  21.706  19.571   2.847
41717W        W 5661  31.452   2.886   2.682
41718W        W 5662  28.634  13.654   2.301
41719W        W 5663   7.864  12.292   0.362
41720W        W 5664  36.413  20.549   0.848
41721W        W 5665  17.663  44.505   0.764
41722W        W 5666  32.968  20.578   4.281
41723W        W 5667  36.403   8.805  14.413
41724W        W 5668  33.558   1.875   1.303
41725W        W 5669  29.945  28.056  12.404
41726W        W 5670  43.447   3.268  11.996
41727W        W 5671  24.633  16.213   0.308
41728W        W 5672  35.030   0.972  12.545
41729W        W 5673  41.338  41.483  14.851
41730W        W 5674  24.639  13.789   3.253
41731W        W 5675   2.831   7.401  14.923
41732W        W 5676  29.623  22.196  11.415
41733W        W 5677  14.641  10.668  13.005
41734W        W 5678   9.794  32.401   0.860
41735W        W 5679   0.896   0.826  11.401
41736W        W 5680  21.667  41.305   1.212
41737W        W 5681   7.850   9.847   1.298
41738W        W 5682  27.605  42.385   4.338
41739W        W 5683  33.955   4.313   4.697
41740W        W 5684  17.121  30.649   4.784
41741W        W 5685  15.216  21.511   1.835
41742W        W 5686   2.858  28.670  13.024
41743W        W 5687  27.124   4.824   1.898
41744W        W 5688  40.500  14.663   2.716
41745W        W 5689   9.838  19.714   2.228
41746W        W 5690  12.121  41.915  11.547
41747W        W 5691  28.545  34.954   2.264
41748W        W 5692  20.725  20.141   0.726
41749W        W 5693  43.986  22.731   2.803
41750W        W 5694  20.055   9.859   3.197
41751W        W 5695  17.563  12.615  14.884
41752W        W 5696  13.677  21.648  11.107
41753W        W 5697  23.491  17.304   0.283
41754W        W 5698  28.005  40.516   4.800
41755W        W 5699  31.566  10.152   2.333
41756W        W 5700  44.315  32.012  14.504
41757W        W 5701  27.107  13.726   1.440
41758W        W 5702  35.927   5.352   2.269
41759W        W 5703  10.875   9.669   3.225
41760W        W 5704  37.010   2.239  14.422
41761W        W 5705   9.731  28.077  11.112
41762W        W 5706  32.043  19.617   3.203
41763W        W 5707  12.780   9.232  14.495
41764W        W 5708  28.045  31.443  10.126
41765W        W 5709  30.918  44.273  14.927
41766W        W 5710  32.898  37.968  13.932
41767W        W 5711  27.013  26.196  12.035
41768W        W 5712  17.149  44.856  12.856
41769W        W 5713   5.306  38.830  12.353
41770W        W 5714  42.862  40.839  13.491
41771W        W 5715  29.606  18.554  12.420
41772W        W 5716   5.418  33.430   1.331
41773W        W 5717   1.830  22.187   1.279
41774W        W 5718   4.763  25.154  12.836
41775W        W 5719  27.469  20.132  13.926
41776W        W 5720  34.452  40.461   4.180
41777W        W 5721  11.260  33.439  12.946
41778W        W 5722  17.235  12.307  11.040
41779W        W 5723  42.509  17.598  10.944
41780W        W 5724   6.330  20.036   1.265
41781W        W 5725  33.955   2.779  10.504
41782W        W 5726  18.569  28.144  13.487
41783W        W 5727  11.666  19.155  14.357
41784W        W 5728   3.381  37.450  12.532
41785W        W 5729  31.455   0.769  13.854
41786W        W 5730  17.151   6.793  13.045
41787W        W 5731  15.153  33.470   1.362
41788W        W 5732  29.116  23.642  10.415
41789W        W 5733  17.648  42.776   4.625
41790W        W 5734  13.155  34.505   2.243
41791W        W 5735  37.924  24.192   1.852
41792W        W 5736   3.774  43.386  14.930
41793W        W 5737  30.651   8.733  10.982
41794W        W 5738  19.205  20.571  14.781
41795W        W 5739   0.360  21.123   1.736
41796W        W 5740  21.097  37.454  11.857
41797W        W 5741  40.985  40.535   3.629
41798W        W 5742  41.999  28.059   4.781
41799W        W 5743  11.171  20.680   4.326
41800W        W 5744   9.807   2.803  14.999
41801W        W 5745  32.022  10.238  10.069
41802W        W 5746  42.458   5.743  10.925
41803W        W 5747  27.572  39.869  12.573
41804W        W 5748  31.947   8.320   2.855
41805W        W 5749  14.150  32.466   0.339
41806W        W 5750  38.941  21.130  13.996
41807W        W 5751  38.830   2.801   5.738
41808W        W 5752  32.103  26.547  13.039
41809W        W 5753  37.913  10.785  10.899
41810W        W 5754  32.405   1.828  11.372
41811W        W 5755  40.432  35.101  12.091
41812W        W 5756  39.381  28.100  12.873
41813W        W 5757  17.734  18.263   2.662
41814W        W 5758  39.345  15.789   1.733
41815W        W 5759  16.228  13.156   2.353
41816W        W 5760  32.398   1.285  14.391
41817W        W 5761  13.179  29.546   4.735
41818W        W 5762  15.779  32.428   3.355
41819W        W 5763   2.383  14.264  14.796
41820W        W 5764  41.461  15.744  12.409
41821W        W 5765  23.011  24.530   1.248
41822W        W 5766  23.094  32.083  13.533
41823W        W 5767  29.086   8.315   1.326
41824W        W 5768   4.801  11.684   1.892
41825W        W 5769  17.568  21.668   3.692
41826W        W 5770   1.914  40.509  10.955
41827W        W 5771  16.679  24.114   2.353
41828W        W 5772  10.651  42.376  13.967
41829W        W 5773   7.884  39.044   2.222
41830W        W 5774  43.924  30.048  11.923
41831W        W 5775   3.227  29.426  14.426
41832W        W 5776  25.594  25.536   0.322
41833W        W 5777  29.924  29.489  12.467
41834W        W 5778  37.880   0.760  13.798
41835W        W 5779   0.321  40.516   2.179
41836W        W 5780  14.594  14.249   1.347
41837W        W 5781  43.303  30.148  13.918
41838W        W 5782  24.602  12.844   4.620
41839W        W 5783  23.099  24.509  13.320
41840W        W 5784   8.389  22.592  11.391
41841W        W 5785  14.209  17.222   0.764
41842W        W 5786   4.377  14.698   3.849
41843W        W 5787  21.023  35.466   0.869
41844W        W 5788  25.131  43.516  12.424
41845W        W 5789   6.273  37.509   1.850
41846W        W 5790   7.278  12.165   3.671
41847W        W 5791  22.688  25.060  11.940
41848W        W 5792  36.063  40.923   3.813
41849W        W 5793   5.256  10.221   0.451
41850W        W 5794  37.506   2.446  10.569
41851W        W 5795  33.991   4.838  10.043
41852W        W 5796  15.581  34.046  14.379
41853W        W 5797  21.026  35.088  13.057
41854W        W 5798  42.282   7.380   1.219
41855W        W 5799  21.227  21.029   2.700
41856W        W 5800  17.624  10.815   1.721
41857W        W 5801  10.667  40.363   2.875
41858W        W 5802  30.646   5.342  13.951
41859W        W 5803  43.310  41.420   1.219
41860W        W 5804  26.652   3.251   3.668
41861W        W 5805   7.302  28.543   0.755
41862W        W 5806  29.989  24.658  13.315
41863W        W 5807   0.423  20.659  12.991
41864W        W 5808  24.553  21.157  13.934
41865W        W 5809  27.041  31.550   1.711
41866W        W 5810  10.180  18.058   1.344
41867W        W 5811  36.464  14.213   1.435
41868W        W 5812  13.118  29.595  10.628
41869W        W 5813  34.879   9.653  13.870
41870W        W 5814  25.562   3.461   1.235
41871W        W 5815  26.032  37.832   1.367
41872W        W 5816   7.862   3.447  13.900
41873W        W 5817  24.536   2.732  13.424
41874W        W 5818  34.548   5.352   4.173
41875W        W 5819   1.783  44.006  12.501
41876W        W 5820  36.485  22.033   4.211
41877W        W 5821  19.697  27.622  12.933
41878W        W 5822   2.815  13.148  11.868
41879W        W 5823  20.185  29.467   3.709
41880W        W 5824  18.620  24.635  11.564
41881W        W 5825  15.796  32.120  13.922
41882W        W 5826  40.836   5.323   9.954
41883W        W 5827   4.293  30.484  14.355
41884W        W 5828  28.056  32.556  14.311
41885W        W 5829  18.758  10.846   3.168
41886W        W 5830  43.363   4.294   4.194
41887W        W 5831  12.215   6.746   0.291
41888W        W 5832  14.643  38.367   4.702
41889W        W 5833  35.860  35.064   2.286
41890W        W 5834  21.704  38.374   0.336
41891W        W 5835  16.799  43.800  10.507
41892W        W 5836  30.123  42.303  10.483
41893W        W 5837  42.880   8.875   4.315
41894W        W 5838   9.776   3.290   2.184
41895W        W 5839  40.804   0.257   3.676
41896W        W 5840  13.675  43.013   5.153
41897W        W 5841  37.507  39.364  11.610
41898W        W 5842  19.158  20.588   3.213
41899W        W 5843  23.135  24.131  11.963
41900W        W 5844  16.084  12.815   4.214
41901W        W 5845  31.117  27.004   0.358
41902W        W 5846   8.814  29.041   0.926
41903W        W 5847  38.835  37.503   0.420
41904W        W 5848   1.890  35.603  13.984
41905W        W 5849  16.265  41.395  13.887
41906W        W 5850  11.195   2.310  13.961
41907W        W 5851   0.803  20.752  11.546
41908W        W 5852  14.273  42.984  12.558
41909W        W 5853  41.510  21.685  10.483
41910W        W 5854   9.688   9.671   1.851
41911W        W 5855  16.716  32.031   4.159
41912W        W 5856  34.481  23.122   3.260
41913W        W 5857  13.323   1.452   2.389
41914W        W 5858  18.638   1.760  14.912
41915W        W 5859   3.936  43.806   1.414
41916W        W 5860  40.822  26.968   1.882
41917W        W 5861  14.216  19.197   0.934
41918W        W 5862  29.559  31.487  14.861
41919W        W 5863   4.732  28.449   0.309
41920W        W 5864  20.573  22.542   1.843
41921W        W 5865  24.096   7.840   0.879
41922W        W 5866  27.944  14.228  13.037
41923W        W 5867  13.623  13.654  11.513
41924W        W 5868  29.166  36.592   4.346
41925W        W 5869  17.240  15.588  12.972
41926W        W 5870  25.114   2.391   4.725
41927W        W 5871  10.306  31.564  13.439
41928W        W 5872   3.408  41.930  14.443
41929W        W 5873  15.151  24.495  11.042
41930W        W 5874  30.559  22.058   0.454
41931W        W 5875  20.089  42.778   3.707
41932W        W 5876  44.808  29.494   3.737
41933W        W 5877  37.549  21.677   3.216
41934W        W 5878  12.778  40.970   2.248
41935W        W 5879  44.981  18.206  12.566
41936W        W 5880  42.826   9.845   0.802
41937W        W 5881  11.297  35.378  12.040
41938W        W 5882  44.832  44.902   4.751
41939W        W 5883  35.591  19.225   1.241
41940W        W 5884  43.984  32.899  10.439
41941W        W 5885  43.951  24.569  12.580
41942W        W 5886  38.837  28.945  12.445
41943W        W 5887  28.112  10.759   4.771
41944W        W 5888  32.578  44.412   0.303
41945W        W 5889  26.113  41.512  10.966
41946W        W 5890  44.791   3.284   1.310
41947W        W 5891  21.093   1.752   9.957
41948W        W 5892  13.137  16.087   3.252
41949W        W 5893  43.403  44.813   2.715
41950W        W 5894  37.955  25.639   2.730
41951W        W 5895  18.193  32.901  11.592
41952W        W 5896  12.217  25.981   2.368
41953W        W 5897  22.550   1.289   1.383
41954W        W 5898   0.310  25.117  11.520
41955W        W 5899  14.246  13.777   4.796
41956W        W 5900  18.626  19.635   3.196
41957W        W 5901  10.669  20.705  12.986
41958W        W 5902  29.547   5.740  13.344
41959W        W 5903   4.870  30.449   2.348
41960W        W 5904  12.188  24.027   2.895
41961W        W 5905  11.868  36.024   9.957
41962W        W 5906  21.621  38.424  12.014
41963W        W 5907  29.933  29.940   4.740
41964W        W 5908  11.149   4.413  11.940
41965W        W 5909  40.922   9.311  14.439
41966W        W 5910  10.382  10.761   0.753
41967W        W 5911  34.892   0.970  11.974
41968W        W 5912  33.041  41.330   0.344
41969W        W 5913  26.525  37.435   0.881
41970W        W 5914  27.645  38.431   1.245
41971W        W 5915  40.485  38.374   1.791
41972W        W 5916   2.904  17.246   3.691
41973W        W 5917  20.131   4.813   3.841
41974W        W 5918   1.448  22.548  13.440
41975W        W 5919  19.676  37.845   2.409
41976W        W 5920  19.772  29.047  10.903
41977W        W 5921  40.840  38.449  14.503
41978W        W 5922  16.680  36.004   1.775
41979W        W 5923  34.898  15.188  11.407
41980W        W 5924  41.018  22.534   3.758
41981W        W 5925  21.049  18.151   3.230
41982W        W 5926  11.161  15.304   1.253
41983W        W 5927  30.422   3.805  14.934
41984W        W 5928  40.866   6.372  14.351
41985W        W 5929  37.531  16.803   1.276
41986W        W 5930  23.114  26.533  12.431
41987W        W 5931  27.663  44.399  12.902
41988W        W 5932  23.492  40.548  11.435
41989W        W 5933  44.455  23.095   4.344
41990W        W 5934  33.966  11.644   4.814
41991W        W 5935  31.941  17.242  10.452
41992W        W 5936  18.556  26.018   1.875
41993W        W 5937  44.796   8.848  13.416
41994W        W 5938  17.138  43.358   9.985
41995W        W 5939  18.271  11.212   4.325
41996W        W 5940  13.665  38.994  14.866
41997W        W 5941  18.549  31.071   4.167
41998W        W 5942  44.003  44.333   2.844
41999W        W 5943  27.124  10.298   3.295
42000W        W 5944  44.968   8.737  12.438
42001W        W 5945  24.594  34.602   2.846
42002W        W 5946  43.781  13.838  13.526
42003W        W 5947  21.258  28.044  11.575
42004W        W 5948   1.758  14.102  14.319
42005W        W 5949  22.543   1.964  11.956
42006W        W 5950  44.847  13.639   0.282
42007W        W 5951  41.886  23.998   2.289
42008W        W 5952  25.542   0.768  13.539
42009W        W 5953   5.266  18.247  11.402
42010W        W 5954  24.532  30.130  11.116
42011W        W 5955  15.682  37.438   4.222
42012W        W 5956  32.110  42.490   0.867
42013W        W 5957  19.184   8.677  11.534
42014W        W 5958  44.493   8.696  10.483
42015W        W 5959  15.619  17.232  14.449
42016W        W 5960  11.191  18.096   2.892
42017W        W 5961  17.194  22.711   2.738
42018W        W 5962  24.077  44.437  14.451
42019W        W 5963  42.506  20.530  10.614
42020W        W 5964   0.257  23.626   4.617
42021W        W 5965  20.681  17.710  13.039
42022W        W 5966  18.190  18.659  11.044
42023W        W 5967  23.548  15.114  13.484
42024W        W 5968  37.450  30.133   0.904
42025W        W 5969  43.862  22.104  14.798
42026W        W 5970  27.067  32.892   2.195
42027W        W 5971  33.887  30.945  13.314
42028W        W 5972  21.671  13.792  11.607
42029W        W 5973  22.522  36.029   2.890
42030W        W 5974  14.236  38.369   0.950
42031W        W 5975  40.360  27.027   2.670
42032W        W 5976   7.197   3.829   1.403
42033W        W 5977   7.696  21.148  13.352
42034W        W 5978  34.013  39.002  14.952
42035W        W 5979   8.763  16.666   1.212
42036W        W 5980  35.469   0.762   1.382
42037W        W 5981  27.162  18.749   5.152
42038W        W 5982   3.786  17.690   4.216
42039W        W 5983  29.472   7.716  11.432
42040W        W 5984  15.297  25.154   0.310
42041W        W 5985   1.404  26.984  12.878
42042W        W 5986   8.871  42.780  11.016
42043W        W 5987   4.315  27.626  11.898
42044W        W 5988  27.044   1.750   2.405
42045W        W 5989   4.352   6.870   3.357
42046W        W 5990   6.900  34.587   4.187
42047W        W 5991  16.083  11.862   3.292
42048W        W 5992  35.581  44.430   4.113
42049W        W 5993  19.739  42.865   4.805
42050W        W 5994  17.766  17.171  13.928
42051W        W 5995  29.131  31.429   3.646
42052W        W 5996   3.919  27.131   3.368
42053W        W 5997  35.961  15.742  12.895
42054W        W 5998  24.019   8.829  10.456
42055W        W 5999  29.490  32.510   2.294
42056W        W 6000  30.032  23.994   0.868
42057W        W 6001   1.401  23.667   1.230
42058W        W 6002  33.483  38.506  14.878
42059W        W 6003  40.814  24.160  14.018
42060W        W 6004  15.590  29.944  11.489
42061W        W 6005  29.173  13.841  14.842
42062W        W 6006  39.423  18.198   1.371
42063W        W 6007  22.605  20.227  14.355
42064W        W 6008  31.969   4.730   2.896
42065W        W 6009  25.026  40.447  11.536
42066W        W 6010  37.398  10.151   3.658
42067W        W 6011  22.566  11.341   4.151
42068W        W 6012   0.326  25.561  12.413
42069W        W 6013  27.110  23.211   4.170
42070W        W 6014  21.588  24.209   0.478
42071W        W 6015   1.868   0.964  14.507
42072W        W 6016   6.883  42.926  11.570
42073W        W 6017  41.935  18.696   3.166
42074W        W 6018  37.571  11.131   9.940
42075W        W 6019  23.645   2.836   4.825
42076W        W 6020   2.354  18.574   0.350
42077W        W 6021   1.781   5.699  11.916
42078W        W 6022   0.917  18.705  10.546
42079W        W 6023  22.624  40.528  10.136
42080W        W 6024  17.743  42.988   1.719
42081W        W 6025  37.065  19.047   4.693
42082W        W 6026  42.978  39.048  10.620
42083W        W 6027  27.667  17.701  14.311
42084W        W 6028  17.269  32.491   4.748
42085W        W 6029  23.144  21.240  10.635
42086W        W 6030  14.734  44.005   0.731
42087W        W 6031  10.755  19.096  14.794
42088W        W 6032   2.388  16.586  13.521
42089W        W 6033  30.130  37.468  10.502
42090W        W 6034  43.946  30.093   2.837
42091W        W 6035  27.068  42.510   3.637
42092W        W 6036  28.515  32.986  13.896
42093W        W 6037  17.796  17.156   4.180
42094W        W 6038  17.667  15.321   3.698
42095W        W 6039  32.521  17.787   1.225
42096W        W 6040  38.845  39.996  13.410
42097W        W 6041  30.085   3.436   3.700
42098W        W 6042  10.215  33.131   2.669
42099W        W 6043  23.510  12.120  12.984
42100W        W 6044  27.956  20.033   2.665
42101W        W 6045  13.184  40.360   1.270
42102W        W 6046   2.946   7.817   0.264
42103W        W 6047  29.475  36.869   4.654
42104W        W 6048  18.194   6.261  12.999
42105W        W 6049  33.435  44.505   5.186
42106W        W 6050  34.925  30.612  12.532
42107W        W 6051  28.537  11.722   4.656
42108W        W 6052  12.828  20.618  14.911
42109W        W 6053  42.784  36.415   0.397
42110W        W 6054  41.960  34.042   4.832
42111W        W 6055  34.942   1.454   1.709
42112W        W 6056  13.242  14.781  12.494
42113W        W 6057   5.282  32.634   3.800
42114W        W 6058  42.019  26.012   1.792
42115W        W 6059  26.989  27.990  13.047
42116W        W 6060   4.879  34.991  13.009
42117W        W 6061  13.242  41.429  10.045
42118W        W 6062   9.665   1.433   2.870
42119W        W 6063  28.021   3.347  10.893
42120W        W 6064  16.298  18.069   1.746
42121W        W 6065  10.714  18.754   2.297
42122W        W 6066  34.102  16.655   4.337
42123W        W 6067  31.504   2.383   4.194
42124W        W 6068  16.611   4.357   4.268
42125W        W 6069  37.344  21.065  14.510
42126W        W 6070  27.994   3.877  13.396
42127W        W 6071  18.288  43.908   0.746
42128W        W 6072  18.662  24.214  14.302
42129W        W 6073  36.432  30.642   1.293
42130W        W 6074  16.730  28.022  14.407
42131W        W 6075  16.240  15.578  10.502
42132W        W 6076  29.629   0.774   3.169
42133W        W 6077  32.515   7.901  14.317
42134W        W 6078   1.266   8.705  14.476
42135W        W 6079  27.957  40.962   1.832
42136W        W 6080   4.794  13.306  13.827
42137W        W 6081   0.978  21.549  14.274
42138W        W 6082  38.845  33.564  11.095
42139W        W 6083  17.302  41.347  14.994
42140W        W 6084   7.191  30.927  11.600
42141W        W 6085   6.706   6.815   4.682
42142W        W 6086  20.151  28.186   2.352
42143W        W 6087  34.615  41.328  12.457
42144W        W 6088  27.476  14.750  14.478
42145W        W 6089  19.684  39.474  11.900
42146W        W 6090  44.919  23.078   3.796
42147W        W 6091   0.353  24.480   2.294
42148W        W 6092  16.720  14.323   2.842
42149W        W 6093  11.816   1.415   1.383
42150W        W 6094  28.931  16.732  14.004
42151W        W 6095  43.514  20.105   1.866
42152W        W 6096  12.159  18.616  14.379
42153W        W 6097  32.108  12.315  10.899
42154W        W 6098  35.567  19.762   4.837
42155W        W 6099   6.878  15.782   0.866
42156W        W 6100  39.946  32.461  12.973
42157W        W 6101  11.238  19.071  12.040
42158W        W 6102   9.687  19.195   1.831
42159W        W 6103  30.522  33.594  11.060
42160W        W 6104  13.225  20.582   3.218
42161W        W 6105  33.625  44.486   2.252
42162W        W 6106  39.856   7.248  11.125
42163W        W 6107  15.644   6.364   5.256
42164W        W 6108  38.869  16.752   4.196
42165W        W 6109   8.845  22.211  11.408
42166W        W 6110  28.113  43.985   1.297
42167W        W 6111  26.176  20.678  14.983
42168W        W 6112   9.818  20.582   4.612
42169W        W 6113  37.919   6.236  14.339
42170W        W 6114  20.675  26.082  10.437
42171W        W 6115  25.597   2.723   3.262
42172W        W 6116  23.541   5.720  11.125
42173W        W 6117  27.638  42.797  12.461
42174W        W 6118  39.937  31.482   3.813
42175W        W 6119   2.239  12.802  14.869
42176W        W 6120   8.342  10.848  13.330
42177W        W 6121   6.858  17.616  14.786
42178W        W 6122  18.593  16.123   2.830
42179W        W 6123  31.636  20.644   0.354
42180W        W 6124  29.583  28.675   4.139
42181W        W 6125  25.482  13.758   3.846
42182W        W 6126  37.079  26.032   4.686
42183W        W 6127   8.891  34.606  13.064
42184W        W 6128  11.325   8.738  13.917
42185W        W 6129   6.742   3.254  12.987
42186W        W 6130  14.291  39.389  13.488
42187W        W 6131   8.822   0.255  13.504
42188W        W 6132  27.577  31.039   2.779
42189W        W 6133   9.761  16.234  14.772
42190W        W 6134  34.380  18.282  10.596
42191W        W 6135  10.308   0.817  14.350
42192W        W 6136  38.449  24.092  12.982
42193W        W 6137  11.133  28.472  11.593
42194W        W 6138   4.873   0.777  12.003
42195W        W 6139  14.306  32.988   3.234
42196W        W 6140   7.177  38.845   1.391
42197W        W 6141  11.668   6.261   2.779
42198W        W 6142  27.524  27.086   4.647
42199W        W 6143  27.517  25.968   3.163
42200W        W 6144  14.304   5.420  11.578
42201W        W 6145  16.679  43.779  13.905
42202W        W 6146  14.652  27.943  14.997
42203W        W 6147   3.852  37.390   0.251
42204W        W 6148  10.817   7.681   4.334
42205W        W 6149  12.814  26.157   1.839
42206W        W 6150  23.652  39.505   1.430
42207W        W 6151  28.114  32.630   2.330
42208W        W 6152  31.448  39.960  11.036
42209W        W 6153  11.724  39.943  13.943
42210W        W 6154  43.504  17.635   4.809
42211W        W 6155  37.869   4.237   2.381
42212W        W 6156  41.367  42.788   1.251
42213W        W 6157  38.828   8.222   0.873
42214W        W 6158  32.544   1.237   4.672
42215W        W 6159  21.061  22.657   5.255
42216W        W 6160  35.569  31.522   2.253
42217W        W 6161  24.486  13.126  13.483
42218W        W 6162  11.660  38.420   1.325
42219W        W 6163   9.878  36.406  11.975
42220W        W 6164  12.190  10.345  13.535
42221W        W 6165  16.571  40.345   4.710
42222W        W 6166  44.990  22.230   3.778
42223W        W 6167  11.312  24.033  12.071
42224W        W 6168   9.394  11.705  11.007
42225W        W 6169  14.627   3.740   1.329
42226W        W 6170   6.746   0.310   3.162
42227W        W 6171  31.027   0.373   4.316
42228W        W 6172  41.886   9.212  13.933
42229W        W 6173  29.134  34.426   1.927
42230W        W 6174  16.132  36.381  14.365
42231W        W 6175  26.503  26.464   4.660
42232W        W 6176  37.875  15.816   1.932
42233W        W 6177  30.065  35.856   1.732
42234W        W 6178  30.923  16.113   0.293
42235W        W 6179  24.130  35.922  10.047
42236W        W 6180  12.334  33.527   0.303
42237W        W 6181  27.525  43.423  14.766
42238W        W 6182  19.550  42.451  10.432
42239W        W 6183   1.251  19.761   1.296
42240W        W 6184  30.913  17.634  14.460
42241W        W 6185  38.895  44.488   2.203
42242W        W 6186  28.587  41.813  11.480
42243W        W 6187  17.604   6.202   0.481
42244W        W 6188  18.580  30.487   4.207
42245W        W 6189  27.126   4.318  13.440
42246W        W 6190  31.937   0.940   3.213
42247W        W 6191  38.822  16.086   3.678
42248W        W 6192  28.680  17.300  14.983
42249W        W 6193  39.976  25.035  14.437
42250W        W 6194  11.307  35.929  14.772
42251W        W 6195  17.651  23.114  13.990
42252W        W 6196   4.223   0.858   4.832
42253W        W 6197  40.515  16.741   1.748
42254W        W 6198   3.447   5.345   2.754
42255W        W 6199  22.527  28.531  12.058
42256W        W 6200  34.496  14.323  12.426
42257W        W 6201  18.291   0.268  14.845
42258W        W 6202   0.400  25.492  10.623
42259W        W 6203   7.690  31.440   2.868
42260W        W 6204  27.471  29.938   2.733
42261W        W 6205  26.114  31.134   4.724
42262W        W 6206  23.111  30.139   3.682
42263W        W 6207   7.780  44.783   1.890
42264W        W 6208  28.487  42.422  10.052
42265W        W 6209   9.706  18.199   4.288
42266W        W 6210   5.787   4.211  12.388
42267W        W 6211  17.724  24.599  10.028
42268W        W 6212  43.389   4.235  10.509
42269W        W 6213  27.961  30.153  10.601
42270W        W 6214   9.880   2.293  11.006
42271W        W 6215   1.286   6.854   3.337
42272W        W 6216  31.117   9.881   0.268
42273W        W 6217  17.704   1.312  13.385
42274W        W 6218   0.811  37.512  12.925
42275W        W 6219  25.991  38.366   3.737
42276W        W 6220  28.613  33.131   0.340
42277W        W 6221  42.352  31.464  11.989
42278W        W 6222   7.683  33.569   3.272
42279W        W 6223  37.402  23.580   2.343
42280W        W 6224  41.020  19.711  14.492
42281W        W 6225   8.301  44.471  11.887
42282W        W 6226  19.220  41.363  13.510
42283W        W 6227  23.176  36.534  10.562
42284W        W 6228  29.139  26.015  11.860
42285W        W 6229  29.471   4.297   0.805
42286W        W 6230  16.073  38.906  13.794
42287W        W 6231  10.679  39.536  11.958
42288W        W 6232  29.440  15.633  14.774
42289W        W 6233  11.777  18.248   0.321
42290W        W 6234   1.418  31.091   1.871
42291W        W 6235   4.296   4.315   2.367
42292W        W 6236   7.271   3.823  11.112
42293W        W 6237  12.842   6.415   1.319
42294W        W 6238  36.950   4.709   3.807
42295W        W 6239  34.526  44.786   3.276
42296W        W 6240   7.689  34.923   2.839
42297W        W 6241  15.726   2.303  14.497
42298W        W 6242   1.976  35.063   0.447
42299W        W 6243  20.591  16.581   2.817
42300W        W 6244  13.257   5.881  13.891
42301W        W 6245  10.835  10.687  14.845
42302W        W 6246  10.185   2.731   2.276
42303W        W 6247  34.532   8.798  13.535
42304W        W 6248   8.900   8.686   4.735
42305W        W 6249  18.696  42.498  12.076
42306W        W 6250   9.186   9.661   0.842
42307W        W 6251  22.569  15.091   0.856
42308W        W 6252  10.744   5.425  14.861
42309W        W 6253   9.853   6.751   2.376
42310W        W 6254   0.978   1.734  11.533
42311W        W 6255  26.208  13.799   1.752
42312W        W 6256  29.515  26.523   3.779
42313W        W 6257  27.020   5.808  11.990
42314W        W 6258  37.413  40.498   2.328
42315W        W 6259  16.674  23.991  10.577
42316W        W 6260  29.174  14.631  14.979
42317W        W 6261  33.935   7.741   4.241
42318W        W 6262  22.044  16.584  14.864
42319W        W 6263  19.623   1.388  11.465
42320W        W 6264  12.284  37.076   3.183
42321W        W 6265  25.471  25.069  13.409
42322W        W 6266  18.132   0.264  12.085
42323W        W 6267  27.171  40.919  13.886
42324W        W 6268   9.696  20.217   4.774
42325W        W 6269  37.503  25.690   5.267
42326W        W 6270   5.921   1.750  14.286
42327W        W 6271  37.848  43.405  12.381
42328W        W 6272   6.862   6.851  12.396
42329W        W 6273  17.646   9.195   4.257
42330W        W 6274   1.333  18.620   1.216
42331W        W 6275  39.544  40.834  14.829
42332W        W 6276  33.070   4.919  13.338
42333W        W 6277  22.580  35.858   1.921
42334W        W 6278   9.389  24.537  13.364
42335W        W 6279  43.484  15.090   1.323
42336W        W 6280  36.468  24.554  14.334
42337W        W 6281  35.065  20.661  13.995
42338W        W 6282  28.572  22.237   3.648
42339W        W 6283  34.902  34.983  12.564
42340W        W 6284  10.311  28.472   2.227
42341W        W 6285  44.802   2.831   3.787
42342W        W 6286  43.365  31.637   4.686
42343W        W 6287  11.253  26.989  13.434
42344W        W 6288   0.309  33.099   2.715
42345W        W 6289   6.420  19.759   4.749
42346W        W 6290   3.403  43.950   3.357
42347W        W 6291   3.388  12.280   4.627
42348W        W 6292  38.868   6.893  12.364
42349W        W 6293  42.339   9.224  12.997
42350W        W 6294   5.832  35.865  13.931
42351W        W 6295  26.665  13.337  10.511
42352W        W 6296  11.775  40.329   4.708
42353W        W 6297  23.132   8.390  13.502
42354W        W 6298  42.858   5.828  13.948
42355W        W 6299  37.459  19.111   2.781
42356W        W 6300   4.867  31.549   0.301
42357W        W 6301  26.175  22.737   0.342
42358W        W 6302  39.333  10.361   2.824
42359W        W 6303  15.258   1.895  11.605
42360W        W 6304  21.708  42.392  13.924
42361W        W 6305   0.249  39.876   1.223
42362W        W 6306  24.675   3.372  14.875
42363W        W 6307   8.336  42.409  12.538
42364W        W 6308   4.830   6.384  12.351
42365W        W 6309  15.267  38.405   1.931
42366W        W 6310  18.706  31.481  10.068
42367W        W 6311  17.237  16.115  14.383
42368W        W 6312  22.527  34.545  10.034
42369W        W 6313  39.336  32.924  10.897
42370W        W 6314  39.940  41.040   2.887
42371W        W 6315  20.702   5.781   1.784
42372W        W 6316  42.472  39.865  14.307
42373W        W 6317  20.242   1.334   2.873
42374W        W 6318  11.234  29.104   3.799
42375W        W 6319   3.762  14.664   1.696
42376W        W 6320  16.261  25.009   3.764
42377W        W 6321   5.244  16.142  14.425
42378W        W 6322  19.086  37.038   0.296
42379W        W 6323  41.521  39.352   1.439
42380W        W 6324  43.375  39.340   2.318
42381W        W 6325   6.252   8.772  11.911
42382W        W 6326   6.802  42.907  14.469
42383W        W 6327   8.296  35.532   2.731
42384W        W 6328  14.178  14.737  14.889
42385W        W 6329  34.971  27.184  13.348
42386W        W 6330  16.649  41.936   4.603
42387W        W 6331  25.008  14.202  10.581
42388W        W 6332   6.680  30.968  12.507
42389W        W 6333  44.397  18.288  10.464
42390W        W 6334  30.529  39.048   4.788
42391W        W 6335  10.240   3.941   2.402
42392W        W 6336  28.618  14.632  11.888
42393W        W 6337  27.001  17.170   1.872
42394W        W 6338  41.441  28.169   1.853
42395W        W 6339  16.204  26.193  14.934
42396W        W 6340   2.842  34.432   4.154
42397W        W 6341  19.169  32.131   1.849
42398W        W 6342  27.619  43.804   1.928
42399W        W 6343  17.634  17.680  12.377
42400W        W 6344   4.815  27.075  13.845
42401W        W 6345  21.555   7.216   4.318
42402W        W 6346   5.237   6.753  10.564
42403W        W 6347  24.196  26.609  10.548
42404W        W 6348  25.680  15.711   3.649
42405W        W 6349  31.589  36.388   2.741
42406W        W 6350   9.239  30.979   9.617
42407W        W 6351   0.818  28.481  14.879
42408W        W 6352  19.084   6.884   2.760
42409W        W 6353  12.772  44.806   9.531
42410W        W 6354  32.076  13.208   0.861
42411W        W 6355  19.555  41.865   2.368
42412W        W 6356  39.551  23.036   3.151
42413W        W 6357  20.117   7.375  13.401
42414W        W 6358  18.158  38.856  14.442
42415W        W 6359  32.109  35.428   3.766
42416W        W 6360  20.068  31.127  13.340
42417W        W 6361  36.535  21.162  10.479
42418W        W 6362  39.843  11.266   4.156
42419W        W 6363  17.576  32.010  10.516
42420W        W 6364  10.226   0.804  13.836
42421W        W 6365  18.167   9.159   3.629
42422W        W 6366  30.089  24.680  14.375
42423W        W 6367  13.163  15.684   1.804
42424W        W 6368  28.446  20.538  13.041
42425W        W 6369  42.935  18.546   1.381
42426W        W 6370  11.747  19.265  11.520
42427W        W 6371  40.912  12.193  13.372
42428W        W 6372  38.532  10.722  14.990
42429W        W 6373  33.625  24.019   2.742
42430W        W 6374   6.747  13.176   2.206
42431W        W 6375  19.742  11.688  11.491
42432W        W 6376  40.406  37.835   2.342
42433W        W 6377  29.633  41.924   3.659
42434W        W 6378  10.839  21.073  12.007
42435W        W 6379  33.002  10.760  12.571
42436W        W 6380  42.978  29.593   1.435
42437W        W 6381  29.978  32.537   2.293
42438W        W 6382  44.349   8.815   3.148
42439W        W 6383  20.085  33.941  11.385
42440W        W 6384  17.645  42.313   0.438
42441W        W 6385   4.880  17.269  10.407
42442W        W 6386  41.003   1.238   4.123
42443W        W 6387  30.915  19.554   2.292
42444W        W 6388   4.797   6.288   1.909
42445W        W 6389  18.200  43.422   1.246
42446W        W 6390  23.990  26.530   1.369
42447W        W 6391  13.164  32.599  11.377
42448W        W 6392   0.829  20.251  14.807
42449W        W 6393  24.187  19.675  10.951
42450W        W 6394  23.720  24.720  12.874
42451W        W 6395  25.705  28.620   0.364
42452W        W 6396  13.224  38.387  14.498
42453W        W 6397  11.159  32.000  14.831
42454W        W 6398   3.338   6.782  11.075
42455W        W 6399  29.165  22.071   1.234
42456W        W 6400  41.465  31.616   4.740
42457W        W 6401  34.910   8.698  13.468
42458W        W 6402  41.377  42.476  11.376
42459W        W 6403  27.610   9.318  10.619
42460W        W 6404  24.675  12.341  10.590
42461W        W 6405  14.710  39.425   3.829
42462W        W 6406  34.527  40.532   2.416
42463W        W 6407  22.211  27.083   3.165
42464W        W 6408  28.480  27.487   0.772
42465W        W 6409  42.296  34.531   2.252
42466W        W 6410  10.273   8.845   5.174
42467W        W 6411  15.242   1.885   4.665
42468W        W 6412  44.363  25.026  14.400
42469W        W 6413  42.863  31.035  14.031
42470W        W 6414  35.483  18.114   2.838
42471W        W 6415  30.536  21.599  14.880
42472W        W 6416  34.004  28.094   1.413
42473W        W 6417   4.914   5.714   1.390
42474W        W 6418  26.103   8.753   4.686
42475W        W 6419  35.596   0.275  14.488
42476W        W 6420  37.395  39.900  10.928
42477W        W 6421  39.488  33.403   1.362
42478W        W 6422  34.998   1.895  13.354
42479W        W 6423  33.444  30.463   9.953
42480W        W 6424  44.423  43.861   1.889
42481W        W 6425   3.830   6.739   2.855
42482W        W 6426   2.784   1.957   4.181
42483W        W 6427   7.903  43.873   1.864
42484W        W 6428  40.481  15.681   4.822
42485W        W 6429  11.152  24.552   0.798
42486W        W 6430   2.733  17.167   2.232
42487W        W 6431   6.292  17.284   2.335
42488W        W 6432   5.796  21.677   3.317
42489W        W 6433  41.991  22.105   4.835
42490W        W 6434  36.569   1.902  12.834
42491W        W 6435   1.807   2.961  10.507
42492W        W 6436  31.916  23.713   0.375
42493W        W 6437   3.409  19.243  12.870
42494W        W 6438   5.804  38.444   3.198
42495W        W 6439  30.483  11.710  12.488
42496W        W 6440   9.155  15.148   4.627
42497W        W 6441   3.898   1.449   3.799
42498W        W 6442  44.833  37.048   2.310
42499W        W 6443  38.551   4.244  13.354
42500W        W 6444   2.400  35.413   4.296
42501W        W 6445  30.516  39.913  11.522
42502W        W 6446   6.200  18.784  14.822
42503W        W 6447  15.684  28.462   0.766
42504W        W 6448  13.738   7.816  12.423
42505W        W 6449  11.638   8.779  14.276
42506W        W 6450  34.051  43.436  12.056
42507W        W 6451  25.143  28.581   0.865
42508W        W 6452  26.701   8.245  14.502
42509W        W 6453  22.562  20.216   3.160
42510W        W 6454  32.480  32.416  13.916
42511W        W 6455  12.693  38.049  14.772
42512W        W 6456   1.883   3.325   0.868
42513W        W 6457  20.699  12.749   1.920
42514W        W 6458  26.689  17.749  11.062
42515W        W 6459  30.566  40.461  11.944
42516W        W 6460  25.567  33.546  10.960
42517W        W 6461   1.469  12.158  11.894
42518W        W 6462  36.957  43.288   1.812
42519W        W 6463  31.483   4.781  13.020
42520W        W 6464  21.074  38.060   0.740
42521W        W 6465   5.909  13.838  14.024
42522W        W 6466  13.232   7.357   1.930
42523W        W 6467  10.715  18.148  11.933
42524W        W 6468  36.571  31.000  13.826
42525W        W 6469  22.069  22.160   0.962
42526W        W 6470  39.013  44.996  12.857
42527W        W 6471  10.213  29.461   1.374
42528W        W 6472  19.577   1.389   1.749
42529W        W 6473  11.286   1.406  13.045
42530W        W 6474  35.538   7.837  13.384
42531W        W 6475  11.241   8.834   0.330
42532W        W 6476  21.257   1.413   4.293
42533W        W 6477  19.598  22.153   0.774
42534W        W 6478  33.027   2.883   2.231
42535W        W 6479  18.083   1.965   4.195
42536W        W 6480   3.796  22.091   3.636
42537W        W 6481  32.886  28.481   3.358
42538W        W 6482  43.847   4.326  13.903
42539W        W 6483   2.228  38.332  13.373
42540W        W 6484  44.942  38.053  13.533
42541W        W 6485  29.600   7.812  13.881
42542W        W 6486  18.245  35.411   1.317
42543W        W 6487   6.371  17.744   9.589
42544W        W 6488  40.335  26.678  13.503
42545W        W 6489  36.950  44.420  11.101
42546W        W 6490  37.020  32.611   0.919
42547W        W 6491  20.702  42.498  13.872
42548W        W 6492  32.900   6.260   3.246
42549W        W 6493  33.505  35.430  14.759
42550W        W 6494  31.973  36.046  12.961
42551W        W 6495  44.003  28.474  11.396
42552W        W 6496  13.684  27.106  11.075
42553W        W 6497   0.392  36.946  13.038
42554W        W 6498  17.794   6.257  11.420
42555W        W 6499   3.744  15.660   2.865
42556W        W 6500  41.015   4.889  11.934
42557W        W 6501  29.451  40.370  13.438
42558W        W 6502  40.870  43.341  11.533
42559W        W 6503  13.192  27.058   2.319
42560W        W 6504  17.239  35.373  11.019
42561W        W 6505  38.850   8.847   0.847
42562W        W 6506  24.646   7.313   4.751
42563W        W 6507  35.468  25.012  11.527
42564W        W 6508   1.361  20.052   0.897
42565W        W 6509  32.524  38.443  13.851
42566W        W 6510  14.255   9.698   3.269
42567W        W 6511  37.421  44.305   2.786
42568W        W 6512  11.132   3.948   4.832
42569W        W 6513  34.043  26.984  11.062
42570W        W 6514   8.689  29.086  12.569
42571W        W 6515  31.553  36.022   4.276
42572W        W 6516  16.701   6.206  10.143
42573W        W 6517  18.568  10.264   3.341
42574W        W 6518  20.591   6.710  14.003
42575W        W 6519   1.412   2.297  13.897
42576W        W 6520  35.992   9.225   4.135
42577W        W 6521  27.593  18.127   0.858
42578W        W 6522  16.812  14.309   0.903
42579W        W 6523  44.839  31.625   0.428
42580W        W 6524   9.657   1.796  11.425
42581W        W 6525  14.172  22.618   1.357
42582W        W 6526  41.433   4.222  11.407
42583W        W 6527  27.450  21.745  11.076
42584W        W 6528  22.204  16.316  12.489
42585W        W 6529   5.834  21.663  11.490
42586W        W 6530   3.905  12.354   4.760
42587W        W 6531   1.300  12.704  14.341
42588W        W 6532  33.625  31.429   2.798
42589W        W 6533  29.091  25.080  13.823
42590W        W 6534  34.046   6.291  13.480
42591W        W 6535  16.813  43.364   2.327
42592W        W 6536   2.336  24.116   0.339
42593W        W 6537  23.988  33.599  11.477
42594W        W 6538  30.624  36.870  10.537
42595W        W 6539  36.577   3.394  10.949
42596W        W 6540  41.362  25.639   1.318
42597W        W 6541   5.392  42.420  13.459
42598W        W 6542  32.995  15.154  13.356
42599W        W 6543  44.783  30.530   1.239
42600W        W 6544  27.670  20.718  13.451
42601W        W 6545   4.704   5.709  13.054
42602W        W 6546  36.987  40.923  14.828
42603W        W 6547  14.626  16.763   4.787
42604W        W 6548  16.107  15.713   0.323
42605W        W 6549  43.423   9.737  14.766
42606W        W 6550  27.516  37.835   2.730
42607W        W 6551  43.290  40.998  14.908
42608W        W 6552   5.251  31.541  10.419
42609W        W 6553  13.343  23.525   3.767
42610W        W 6554   7.276  43.877  12.952
42611W        W 6555   0.858   3.782   4.729
42612W        W 6556  24.221   6.912  14.455
42613W        W 6557   0.453   9.771  11.419
42614W        W 6558  15.137   9.714  11.055
42615W        W 6559   7.794   2.268  13.821
42616W        W 6560   8.800  32.599   2.234
42617W        W 6561  29.560  44.781   3.689
42618W        W 6562  33.443  43.919   3.283
42619W        W 6563  10.854  44.439   0.427
42620W        W 6564  14.597  24.492   1.290
42621W        W 6565  40.444  11.161   1.375
42622W        W 6566  40.998   7.205  10.517
42623W        W 6567   5.430  34.909   0.921
42624W        W 6568  28.175  36.928  14.025
42625W        W 6569   5.768   9.385   1.874
42626W        W 6570  35.064   7.809  11.890
42627W        W 6571  12.131  43.382   3.666
42628W        W 6572  12.797  38.075   3.784
42629W        W 6573  42.859  17.765   2.832
42630W        W 6574  17.299  31.621   4.134
42631W        W 6575  39.416  41.831  10.544
42632W        W 6576  36.511  39.023   3.765
42633W        W 6577  12.299  10.369   0.395
42634W        W 6578  42.920   6.419   0.813
42635W        W 6579  19.246  19.604  11.378
42636W        W 6580  14.589  38.439  12.981
42637W        W 6581  22.136  17.754   2.722
42638W        W 6582  24.550   8.832   5.202
42639W        W 6583  12.791  32.418   3.767
42640W        W 6584   7.872   0.333   3.677
42641W        W 6585  26.136   4.344   1.931
42642W        W 6586  30.652  24.536   1.353
42643W        W 6587  38.490  20.768  10.610
42644W        W 6588  22.681   3.257   2.337
42645W        W 6589  30.106  10.309  12.079
42646W        W 6590  21.694  21.599   2.382
42647W        W 6591   9.884  39.894   3.273
42648W        W 6592  36.056  37.009  12.908
42649W        W 6593   8.878  23.025   1.907
42650W        W 6594  12.166   6.417  14.464
42651W        W 6595  29.035  26.161   1.783
42652W        W 6596  18.263  32.130   9.625
42653W        W 6597   0.900  36.374   3.750
42654W        W 6598  17.182  13.141  14.895
42655W        W 6599  37.582  31.910   1.787
42656W        W 6600  13.250  30.590   2.718
42657W        W 6601   9.366  13.710  11.104
42658W        W 6602  43.777   4.722  12.444
42659W        W 6603  33.897  15.137  15.000
42660W        W 6604  27.150  30.637  13.416
42661W        W 6605  25.538   4.855  14.848
42662W        W 6606  30.987  42.927   3.153
42663W        W 6607  43.319  18.718  13.531
42664W        W 6608   9.686  33.125  14.015
42665W        W 6609  16.174  31.486  14.494
42666W        W 6610  35.061   2.830  10.447
42667W        W 6611  36.410  15.177   2.276
42668W        W 6612  38.549   2.898  14.496
42669W        W 6613  21.162   2.832  11.095
42670W        W 6614   6.822  24.221  11.946
42671W        W 6615  13.252  23.210  11.026
42672W        W 6616   8.824  16.125  10.898
42673W        W 6617   5.762  25.481   4.622
42674W        W 6618  24.133  22.652  11.418
42675W        W 6619  16.809  21.622  14.781
42676W        W 6620  28.029   3.362   9.932
42677W        W 6621  36.892  22.616  11.975
42678W        W 6622   5.733  17.713   4.330
42679W        W 6623  15.715  34.032  11.056
42680W        W 6624  40.527  13.683  12.893
42681W        W 6625   9.166  35.074   0.803
42682W        W 6626  33.437  32.610   4.135
42683W        W 6627  27.687  20.260  12.900
42684W        W 6628  31.597  35.010   4.692
42685W        W 6629   7.337   4.737   4.811
42686W        W 6630  34.573  30.995  10.413
42687W        W 6631   2.403   7.365   1.934
42688W        W 6632  37.968  43.012  12.424
42689W        W 6633  12.237   4.220  14.780
42690W        W 6634  37.409  25.490   1.849
42691W        W 6635  43.350   7.787   2.676
42692W        W 6636  42.932   9.791  11.003
42693W        W 6637  31.129  43.418   1.386
42694W        W 6638  28.055  17.140  14.945
42695W        W 6639  20.658   4.746  13.411
42696W        W 6640  16.800  34.482  14.002
42697W        W 6641  10.856  41.460  13.321
42698W        W 6642  30.537  24.076  12.071
42699W        W 6643  18.072  30.580  10.470
42700W        W 6644   5.217  23.707  12.368
42701W        W 6645  44.988  12.280   3.297
42702W        W 6646   5.853  13.821   2.231
42703W        W 6647  43.010  14.690  12.433
42704W        W 6648  27.165  26.497   2.293
42705W        W 6649  20.197  16.800   4.692
42706W        W 6650  21.749  20.588  13.833
42707W        W 6651  33.452  29.102  12.930
42708W        W 6652  10.292  13.244  11.906
42709W        W 6653  11.183  17.169  11.598
42710W        W 6654  33.415  19.552   0.470
42711W        W 6655  27.005   0.412  13.973
42712W        W 6656  22.221  37.884   2.762
42713W        W 6657   8.228   4.233   4.208
42714W        W 6658   6.866   1.296  11.112
42715W        W 6659  36.887  18.651  10.555
42716W        W 6660  14.208  38.957   2.733
42717W        W 6661  43.830  40.363  13.895
42718W        W 6662  26.622   1.784   4.145
42719W        W 6663  44.791   3.282  10.928
42720W        W 6664  21.085   9.832   1.874
42721W        W 6665  35.572  41.989  10.990
42722W        W 6666  42.961  15.821  10.460
42723W        W 6667  39.890  23.234  13.381
42724W        W 6668  16.753  26.161   3.732
42725W        W 6669  44.802   7.260  11.019
42726W        W 6670  33.901  39.496   0.422
42727W        W 6671  44.900   1.867  11.524
42728W        W 6672  38.522  33.912  11.858
42729W        W 6673   4.274  44.950  13.058
42730W        W 6674  40.368  35.566  10.561
42731W        W 6675   5.786  36.417  11.117
42732W        W 6676  41.041  38.529  13.318
42733W        W 6677  35.050  12.773  13.825
42734W        W 6678  38.943  34.454   0.931
42735W        W 6679  16.220  13.796   4.745
42736W        W 6680  30.603  14.750  12.394
42737W        W 6681   0.385  20.665   1.854
42738W        W 6682  23.132  21.727  12.998
42739W        W 6683   1.732  42.359  12.852
42740W        W 6684  18.269  37.871   0.458
42741W        W 6685  12.151  19.114  13.026
42742W        W 6686   4.447  40.875   2.806
42743W        W 6687  27.561  34.043  10.915
42744W        W 6688   3.828  41.364   5.121
42745W        W 6689  20.084  27.503   1.211
42746W        W 6690  30.515   2.966  12.930
42747W        W 6691  29.939  36.018   3.836
42748W        W 6692   2.291  22.638   2.192
42749W        W 6693  14.326  31.621  14.909
42750W        W 6694  22.715  29.537  14.910
42751W        W 6695   0.802  22.747   3.205
42752W        W 6696   1.947  23.991   4.321
42753W        W 6697  18.096  29.553  10.466
42754W        W 6698  31.068  29.460  13.988
42755W        W 6699  20.733   0.985  10.471
42756W        W 6700  42.891  20.177  13.006
42757W        W 6701  37.060  36.503   0.947
42758W        W 6702  32.472  39.895   2.745
42759W        W 6703  30.062   9.875   3.659
42760W        W 6704  21.047  32.933  14.890
42761W        W 6705  41.440  42.303  14.298
42762W        W 6706  20.097   0.872  10.413
42763W        W 6707  15.702  16.587   0.294
42764W        W 6708  36.481   3.714  13.317
42765W        W 6709  34.589   1.248   1.251
42766W        W 6710  15.263  39.887  14.784
42767W        W 6711  17.716  28.537  14.423
42768W        W 6712  16.792  16.619  12.492
42769W        W 6713   3.266   4.407  13.847
42770W        W 6714  17.170  42.343   4.831
42771W        W 6715  34.923  37.847  13.976
42772W        W 6716  15.640  19.748  11.612
42773W        W 6717  28.588  43.838   0.773
42774W        W 6718  42.503  16.688  13.009
42775W        W 6719   1.316  38.469  14.434
42776W        W 6720  30.924  11.155   4.135
42777W        W 6721   8.295  43.479  14.027
42778W        W 6722  34.412  32.523  11.447
42779W        W 6723  38.493  30.554  11.938
42780W        W 6724  17.126  23.524  11.946
42781W        W 6725  23.185  24.512   2.299
42782W        W 6726  37.479   5.739   1.368
42783W        W 6727  14.670   9.784  11.019
42784W        W 6728   4.286   2.858   0.310
42785W        W 6729  28.101   4.450  12.441
42786W        W 6730  22.085  15.227   3.798
42787W        W 6731   2.778  16.107  11.027
42788W        W 6732   0.963  24.482   3.319
42789W        W 6733   3.216   8.317   1.923
42790W        W 6734  44.774  15.308   0.810
42791W        W 6735  23.165  36.493   3.174
42792W        W 6736  10.876   7.745   1.903
42793W        W 6737  15.613  37.898   2.346
42794W        W 6738  18.575  39.899  10.624
42795W        W 6739  23.567   0.415   0.907
42796W        W 6740   0.369   2.408  14.006
42797W        W 6741  35.865  41.487   2.301
42798W        W 6742   3.455  20.716  12.399
42799W        W 6743  12.834  21.254   4.737
42800W        W 6744   6.270  11.643  13.506
42801W        W 6745  32.895  16.133  14.814
42802W        W 6746  10.182  32.551  11.030
42803W        W 6747   7.268  38.834  14.008
42804W        W 6748  35.549  30.578   2.259
42805W        W 6749  26.039  27.189   1.774
42806W        W 6750  29.000   9.165   3.759
42807W        W 6751   2.861  20.619  14.300
42808W        W 6752  36.493  21.699  11.024
42809W        W 6753  22.548  30.431   2.726
42810W        W 6754  21.139  42.328  13.470
42811W        W 6755  35.938  44.779  14.968
42812W        W 6756  34.882  41.804   3.771
42813W        W 6757  34.600  21.657  12.409
42814W        W 6758  36.940  17.558   3.802
42815W        W 6759  42.333  29.642   3.858
42816W        W 6760   5.720  43.800  12.982
42817W        W 6761  13.777  20.695   4.697
42818W        W 6762  44.452   0.298  13.433
42819W        W 6763   2.945  44.415   3.803
42820W        W 6764   2.824  40.444   0.930
42821W        W 6765  12.283  43.415   3.237
42822W        W 6766  18.570  18.568  13.976
42823W        W 6767   5.839  32.467   4.201
42824W        W 6768  16.169  36.589  12.069
42825W        W 6769   3.781  18.203  13.989
42826W        W 6770   1.433  14.776   2.330
42827W        W 6771  35.454  31.489   4.685
42828W        W 6772  41.802  30.971  11.072
42829W        W 6773  40.815  18.162  12.399
42830W        W 6774  15.760  36.430   2.236
42831W        W 6775  29.070   5.780  11.089
42832W        W 6776  14.120   2.260  13.993
42833W        W 6777  36.393  17.206  10.918
42834W        W 6778  39.822  22.729  10.419
42835W        W 6779  39.046  42.936  13.794
42836W        W 6780  26.544  37.990  12.995
42837W        W 6781   0.783  10.850  11.113
42838W        W 6782  36.439   3.320   0.353
42839W        W 6783  33.950  44.968   4.677
42840W        W 6784  41.385  13.125   0.942
42841W        W 6785  15.767   5.740   2.825
42842W        W 6786  10.693  34.548   0.757
42843W        W 6787  30.635  13.138   1.710
42844W        W 6788   0.303  21.228  12.094
42845W        W 6789  42.007   8.392  10.532
42846W        W 6790  32.614  19.553   1.317
42847W        W 6791  24.630  22.685  10.425
42848W        W 6792  19.621  13.663  11.474
42849W        W 6793  21.742   4.877  12.825
42850W        W 6794   0.885  37.899   3.865
42851W        W 6795  13.286  20.569  10.517
42852W        W 6796  23.073  40.024  11.902
42853W        W 6797  14.778  16.310  14.378
42854W        W 6798   4.802  20.086   0.906
42855W        W 6799  34.440   3.850   3.205
42856W        W 6800  38.503  13.351   3.350
42857W        W 6801  23.624  33.987  11.522
42858W        W 6802  39.821   7.774  13.348
42859W        W 6803  23.073  40.462  14.426
42860W        W 6804  14.814  14.664   0.313
42861W        W 6805  44.771  19.088   3.260
42862W        W 6806   8.844  30.492  11.487
42863W        W 6807   8.222  27.524  13.937
42864W        W 6808  14.804  30.514   3.834
42865W        W 6809  30.153  30.612  13.810
42866W        W 6810  30.432  34.378  13.887
42867W        W 6811  27.000  26.501  11.496
42868W        W 6812   2.905  15.109   4.612
42869W        W 6813   1.764   2.958   4.720
42870W        W 6814  32.395  39.055  12.907
42871W        W 6815   2.795  19.778   1.310
42872W        W 6816  41.409   1.744   4.343
42873W        W 6817  43.998  19.264   2.406
42874W        W 6818  38.328  32.894  14.415
42875W        W 6819   0.744  28.052   1.710
42876W        W 6820   5.263  27.561  13.941
42877W        W 6821  34.038  32.425   2.316
42878W        W 6822  24.620  44.480  13.396
42879W        W 6823  16.783  14.819  12.451
42880W        W 6824  40.328  38.388  11.063
42881W        W 6825   7.734  16.315  11.890
42882W        W 6826  30.593  12.155   4.762
42883W        W 6827   1.746   5.206   4.172
42884W        W 6828   9.163   1.384  13.495
42885W        W 6829   3.377  13.162  11.500
42886W        W 6830  20.060   1.950   0.412
42887W        W 6831  15.288  18.167   1.903
42888W        W 6832  17.247  40.888  14.376
42889W        W 6833  41.422  15.239  12.952
42890W        W 6834  32.637  16.812  11.587
42891W        W 6835  39.859  27.993  11.553
42892W        W 6836   8.816   9.172   3.740
42893W        W 6837  26.557  11.358   2.246
42894W        W 6838  15.239  13.311  12.498
42895W        W 6839  23.130   6.404  11.967
42896W        W 6840  21.139  36.508   3.286
42897W        W 6841  17.276  20.693   3.373
42898W        W 6842  22.023  21.217  12.507
42899W        W 6843  28.637  32.421   4.813
42900W        W 6844   6.909  33.514   3.318
42901W        W 6845  15.323  15.731   4.217
42902W        W 6846   4.920   5.286  10.116
42903W        W 6847  24.634  34.435   0.465
42904W        W 6848  23.541  19.697  13.530
42905W        W 6849  13.679  18.229  13.055
42906W        W 6850  16.664  30.632  10.482
42907W        W 6851  34.072  17.792   3.870
42908W        W 6852  17.234  16.124   2.214
42909W        W 6853   8.708  15.266   5.260
42910W        W 6854  15.121  25.064  11.434
42911W        W 6855   3.945  32.938   3.648
42912W        W 6856  28.991  42.436  13.409
42913W        W 6857   8.891  17.302  11.096
42914W        W 6858  31.453   0.437  10.608
42915W        W 6859  19.542  12.129   4.816
42916W        W 6860   6.831  36.378   3.164
42917W        W 6861  15.640  13.834   2.271
42918W        W 6862  11.214  38.052   2.787
42919W        W 6863  26.999  21.520   2.889
42920W        W 6864   8.279   4.361   1.234
42921W        W 6865  23.202   4.208  14.774
42922W        W 6866   4.756  17.175  11.935
42923W        W 6867   4.322  43.445   4.818
42924W        W 6868   2.472  28.053   0.743
42925W        W 6869  17.634   9.152   5.184
42926W        W 6870  34.598  22.621   3.377
42927W        W 6871   6.420  11.329  14.800
42928W        W 6872  16.206  42.359  13.340
42929W        W 6873   8.816  18.172   9.644
42930W        W 6874  34.505   3.368  12.556
42931W        W 6875  22.236  21.521   3.283
42932W        W 6876  17.268   9.185  10.999
42933W        W 6877  27.991  35.440  10.962
42934W        W 6878  42.804  22.615   5.305
42935W        W 6879  24.975  10.868   2.684
42936W        W 6880  35.434  43.837  11.123
42937W        W 6881  26.041   1.462   4.331
42938W        W 6882  29.474  21.625   2.692
42939W        W 6883  18.643  15.085   3.831
42940W        W 6884  41.889  33.543   3.637
42941W        W 6885  31.484  11.805   1.419
42942W        W 6886  10.782  29.538   2.696
42943W        W 6887  19.233  10.649   3.322
42944W        W 6888  35.903  20.121   0.305
42945W        W 6889  38.002  32.064   5.223
42946W        W 6890  21.111  14.189   3.292
42947W        W 6891  32.062   2.434   4.808
42948W        W 6892  24.490  16.812   0.781
42949W        W 6893   2.324  13.182  14.349
42950W        W 6894  37.863   8.163  11.084
42951W        W 6895   2.743  37.921  13.836
42952W        W 6896  37.454  33.554   3.849
42953W        W 6897  28.537  44.345   1.911
42954W        W 6898   0.304  34.444  14.836
42955W        W 6899  37.881  16.589  10.487
42956W        W 6900  21.033  39.477   0.850
42957W        W 6901  37.549  32.888   1.788
42958W        W 6902  32.481  21.205   3.308
42959W        W 6903  42.782  22.049   1.391
42960W        W 6904  16.713  20.648   2.339
42961W        W 6905  16.086  36.533  13.831
42962W        W 6906  31.926  33.000   0.403
42963W        W 6907  12.357  24.139  10.450
42964W        W 6908  13.122  35.080  14.826
42965W        W 6909  14.625   8.718   9.987
42966W        W 6910  12.727  38.372  13.974
42967W        W 6911  10.853   2.885   4.271
42968W        W 6912  21.633   5.726  14.330
42969W        W 6913  11.326  15.329   2.902
42970W        W 6914  41.516   6.413  13.353
42971W        W 6915  26.188  29.635   4.327
42972W        W 6916   6.731  18.052  13.999
42973W        W 6917  34.867  21.198   1.732
42974W        W 6918  19.685  40.949   0.371
42975W        W 6919  44.846  19.600  13.845
42976W        W 6920  32.910  41.960   0.744
42977W        W 6921  29.163  22.181   3.291
42978W        W 6922  15.313  39.895  13.800
42979W        W 6923  34.555   8.254   0.948
42980W        W 6924  41.851  25.182   0.908
42981W        W 6925  11.136  10.781  11.406
42982W        W 6926  14.304  32.634  14.787
42983W        W 6927  38.356  44.823   2.754
42984W        W 6928  21.673  37.479   2.408
42985W        W 6929   8.381  29.115   0.903
42986W        W 6930  16.729  42.012  14.811
42987W        W 6931  13.704  25.486  13.496
42988W        W 6932  10.694  28.624  11.593
42989W        W 6933  23.530  31.896   4.298
42990W        W 6934   0.341   5.800  10.524
42991W        W 6935  26.662  25.182   0.307
42992W        W 6936  10.779   8.700  13.843
42993W        W 6937   1.447  43.501  14.799
42994W        W 6938  25.149  22.046   4.658
42995W        W 6939  34.972   0.922   2.697
42996W        W 6940  43.985  33.446   4.672
42997W        W 6941  38.499  20.654   3.737
42998W        W 6942  17.180  12.238   1.703
42999W        W 6943  16.665  13.770   4.703
43000W        W 6944  36.067  31.544   4.797
43001W        W 6945  30.922  12.854  14.494
43002W        W 6946  22.530  17.157   9.956
43003W        W 6947  28.084   5.372  12.005
43004W        W 6948  44.409  42.949   5.119
43005W        W 6949  14.658  38.401   3.267
43006W        W 6950  26.981  16.803  14.765
43007W        W 6951  40.344  11.205  11.542
43008W        W 6952  29.523  42.788   0.803
43009W        W 6953  21.157  16.652  14.883
43010W        W 6954  25.001  33.114  11.462
43011W        W 6955  39.985   2.238   1.840
43012W        W 6956   0.908  16.636   0.446
43013W        W 6957   7.277  19.663   1.880
43014W        W 6958   2.794  34.424  14.872
43015W        W 6959  28.143  16.670   2.740
43016W        W 6960   1.396  38.941  11.004
43017W        W 6961  23.665  44.393   1.420
43018W        W 6962  13.179  38.900  13.818
43019W        W 6963   7.841   3.932   0.769
43020W        W 6964  32.406  14.277  11.889
43021W        W 6965  37.540   6.724  12.039
43022W        W 6966  11.759   6.258  12.456
43023W        W 6967  36.909  14.625  10.633
43024W        W 6968  33.128   0.285  14.323
43025W        W 6969   9.295  41.436   3.706
43026W        W 6970  27.142   6.220  13.370
43027W        W 6971  31.616  21.201  14.015
43028W        W 6972   0.859  36.955  11.974
43029W        W 6973  30.648  22.031   2.850
43030W        W 6974  27.529  43.491   2.784
43031W        W 6975   8.252  40.392   2.369
43032W        W 6976   9.341   5.789  11.463
43033W        W 6977  32.568   3.942  11.972
43034W        W 6978  25.220  36.002   3.255
43035W        W 6979  29.050   0.758  13.998
43036W        W 6980  11.827   1.894  14.453
43037W        W 6981  23.071  39.061  12.858
43038W        W 6982  11.853  26.087  12.897
43039W        W 6983   0.290   9.232  12.947
43040W        W 6984  21.062  12.330   3.760
43041W        W 6985   7.301  10.794   1.354
43042W        W 6986  18.090  36.081  14.818
43043W        W 6987  11.707  13.225  12.983
43044W        W 6988   3.254  27.091  10.532
43045W        W 6989  38.022  41.365  10.630
43046W        W 6990   9.643  22.590  11.884
43047W        W 6991   0.349  31.141  14.026
43048W        W 6992  31.543   7.712   1.705
43049W        W 6993   3.369   1.871  13.818
43050W        W 6994   6.394  20.603   2.381
43051W        W 6995  12.122  28.169   2.326
43052W        W 6996  16.745  42.785  12.986
43053W        W 6997  13.176  29.919  14.479
43054W        W 6998  30.531  31.478   3.682
43055W        W 6999  35.442  44.387  12.895
43056W        W 7000   6.760  22.226  14.962
43057W        W 7001  29.095  15.192  11.075
43058W        W 7002  31.636  30.566  13.536
43059W        W 7003  27.032  32.594  12.835
43060W        W 7004  35.395  33.894  11.885
43061W        W 7005  14.598   9.225   4.239
43062W        W 7006  41.959  34.416  13.039
43063W        W 7007  33.568  39.898   3.844
43064W        W 7008  24.047  44.771   1.450
43065W        W 7009  36.575  35.467  14.507
43066W        W 7010  41.027   5.708  12.409
43067W        W 7011  13.655  27.110  12.845
43068W        W 7012   9.326   9.854   3.634
43069W        W 7013  19.685   8.167   3.828
43070W        W 7014  17.595  33.888  12.522
43071W        W 7015  40.479  10.264   1.239
43072W        W 7016  34.392   7.373   0.316
43073W        W 7017  14.653  26.461   5.255
43074W        W 7018   4.766  11.729   3.753
43075W        W 7019   7.807  14.219   4.216
43076W        W 7020   4.847   2.342  13.049
43077W        W 7021  19.678  42.886  14.977
43078W        W 7022  28.447  26.995   4.197
43079W        W 7023  19.741  13.656  14.371
43080W        W 7024  16.085  38.428  10.996
43081W        W 7025  26.059  34.585   3.331
43082W        W 7026  18.572  17.272  12.058
43083W        W 7027   9.832  44.995   4.222
43084W        W 7028  22.516   7.670   2.413
43085W        W 7029  13.272   3.292   1.845
43086W        W 7030  26.656  22.573  10.426
43087W        W 7031  32.530  42.878   4.774
43088W        W 7032  30.992  39.416  14.448
43089W        W 7033   2.905  33.906  14.389
43090W        W 7034  11.292  21.074  10.512
43091W        W 7035   9.850  14.333   3.849
43092W        W 7036  41.820   2.780   1.321
43093W        W 7037  16.744  30.578  13.865
43094W        W 7038   1.284  12.658  13.316
43095W        W 7039  11.360  24.512  11.978
43096W        W 7040  13.186  30.028   3.196
43097W        W 7041  13.123  32.488  11.071
43098W        W 7042  22.247  15.323   1.297
43099W        W 7043  39.383  20.599  10.623
43100W        W 7044  28.476  20.605  14.017
43101W        W 7045  28.978  13.718  13.483
43102W        W 7046  16.266  34.962   5.772
43103W        W 7047  40.975  28.959   2.673
43104W        W 7048  39.401  41.883  14.930
43105W        W 7049  35.390  39.921   2.815
43106W        W 7050  19.053   6.904   4.786
43107W        W 7051  20.190  23.131  11.946
43108W        W 7052  36.942  13.130   3.328
43109W        W 7053  27.689  42.384  12.052
43110W        W 7054  32.465  19.185  13.945
43111W        W 7055  24.135   1.435  14.458
43112W        W 7056  40.547  42.296   0.894
43113W        W 7057  12.756  27.457   2.334
43114W        W 7058  38.475  36.988  12.049
43115W        W 7059  25.137  39.041   2.727
43116W        W 7060  39.386  24.121   4.769
43117W        W 7061  24.596  15.220  13.887
43118W        W 7062  40.945   7.337   3.800
43119W        W 7063   6.301  16.681   3.257
43120W        W 7064  25.708   9.856  14.901
43121W        W 7065  44.003  18.617   3.248
43122W        W 7066  19.753  37.438   3.831
43123W        W 7067  14.328  22.670  12.367
43124W        W 7068  29.538  21.725  14.877
43125W        W 7069  11.319   8.179  14.783
43126W        W 7070  34.437  40.360  11.098
43127W        W 7071  33.919   6.854   3.708
43128W        W 7072  32.051  44.769   1.830
43129W        W 7073  43.985   4.772  12.067
43130W        W 7074  33.001   1.824   3.223
43131W        W 7075  15.172  21.249  14.796
43132W        W 7076  16.766  24.529   0.810
43133W        W 7077   8.705  15.247  10.555
43134W        W 7078  22.196   5.366  10.509
43135W        W 7079  40.390  22.054  10.555
43136W        W 7080  25.534  35.530   4.627
43137W        W 7081  10.285  31.531  14.985
43138W        W 7082  13.338  22.214  14.817
43139W        W 7083  39.472   4.426  12.981
43140W        W 7084  29.096  44.897   3.300
43141W        W 7085  24.135  10.757   1.411
43142W        W 7086  26.520  29.115  11.938
43143W        W 7087  38.072  32.106  11.064
43144W        W 7088  38.902  43.420  10.497
43145W        W 7089  41.007  30.511  13.884
43146W        W 7090   5.917  14.623  10.968
43147W        W 7091  22.192  27.574   1.794
43148W        W 7092  40.505  32.937  11.421
43149W        W 7093  20.258   5.702  10.952
43150W        W 7094  32.032  29.007   2.387
43151W        W 7095  35.430  37.385   3.854
43152W        W 7096  13.108  20.572  12.882
43153W        W 7097   9.361  18.052   9.481
43154W        W 7098   5.394  27.017  11.582
43155W        W 7099  35.958  39.489  12.049
43156W        W 7100  36.021  28.667   1.389
43157W        W 7101   4.810  25.023  13.799
43158W        W 7102  38.468  14.722   2.743
43159W        W 7103  33.907  24.990   1.921
43160W        W 7104  26.073  10.644  13.533
43161W        W 7105  37.910  41.943   2.851
43162W        W 7106  42.306   6.868   2.399
43163W        W 7107   4.813  27.992   5.232
43164W        W 7108  14.286  27.453  14.842
43165W        W 7109  37.960   6.876   1.775
43166W        W 7110  15.288  10.869  11.006
43167W        W 7111  12.815  21.036  11.433
43168W        W 7112  10.293  14.243  12.903
43169W        W 7113  40.490  36.531   2.893
43170W        W 7114   3.346   8.344  11.893
43171W        W 7115  41.831   5.834   1.281
43172W        W 7116  16.597  29.120   2.732
43173W        W 7117  26.504  43.498  11.429
43174W        W 7118   1.961  17.775  12.014
43175W        W 7119   1.845  13.788   3.774
43176W        W 7120  29.469  26.661   0.885
43177W        W 7121  42.350  36.849  14.016
43178W        W 7122  40.447   4.788  13.455
43179W        W 7123   9.647  42.872  14.495
43180W        W 7124  26.088  18.696   4.650
43181W        W 7125  39.991  11.323   0.838
43182W        W 7126   9.329  21.068  12.539
43183W        W 7127  26.040  44.796  10.963
43184W        W 7128   0.804   9.263   9.921
43185W        W 7129  16.765  19.116   0.465
43186W        W 7130   4.933   4.400   2.375
43187W        W 7131  10.788   6.679   2.340
43188W        W 7132  12.743  13.790   1.269
43189W        W 7133  16.574  26.063  13.510
43190W        W 7134   1.341  35.544   3.717
43191W        W 7135  39.523  35.886  10.974
43192W        W 7136   3.837  21.220   1.420
43193W        W 7137  25.176  10.320   0.836
43194W        W 7138  37.353  26.526   1.749
43195W        W 7139  37.928  11.626  11.105
43196W        W 7140  43.298  29.495   2.417
43197W        W 7141   8.684  34.983  11.051
43198W        W 7142  31.117  15.326   1.897
43199W        W 7143  30.441  10.788  10.535
43200W        W 7144  13.666  31.564   9.979
43201W        W 7145  33.437  12.334   0.879
43202W        W 7146  19.585  36.081  11.502
43203W        W 7147  43.373  42.379  14.429
43204W        W 7148  27.487  32.407  10.483
43205W        W 7149  19.739  44.380   2.410
43206W        W 7150  21.117  38.484   5.192
43207W        W 7151  38.421  13.169   0.902
43208W        W 7152  19.065  18.767   3.367
43209W        W 7153  25.114   0.944   4.776
43210W        W 7154   1.923  42.811   3.751
43211W        W 7155  14.761  35.415   4.602
43212W        W 7156   0.963   8.843  12.845
43213W        W 7157   1.350  21.567  12.889
43214W        W 7158  28.501  27.961  13.929
43215W        W 7159  23.068  18.181   1.807
43216W        W 7160  28.649   4.916   0.257
43217W        W 7161  23.058  14.735  10.593
43218W        W 7162  36.940  40.377   1.231
43219W        W 7163   9.714  13.609  10.908
43220W        W 7164   5.435  11.135   4.810
43221W        W 7165  28.480   6.717  13.445
43222W        W 7166  25.987  19.071  10.914
43223W        W 7167  10.342  30.912  13.869
43224W        W 7168  20.160  12.693  14.869
43225W        W 7169  11.737  41.008  11.008
43226W        W 7170   3.242   1.762   1.851
43227W        W 7171   6.734  20.523   1.339
43228W        W 7172   0.808  41.858  10.435
43229W        W 7173   3.378   6.728   4.259
43230W        W 7174  25.638  35.427  11.943
43231W        W 7175  26.105   2.382  10.562
43232W        W 7176  17.089  18.161   4.191
43233W        W 7177  31.137  24.003   3.371
43234W        W 7178  41.444   7.331   2.228
43235W        W 7179   2.858   4.435   2.880
43236W        W 7180  39.969  31.079  10.482
43237W        W 7181  38.998  21.051  14.963
43238W        W 7182   4.409  12.647   3.774
43239W        W 7183  21.246   9.759  11.029
43240W        W 7184  31.513   1.450  11.390
43241W        W 7185  26.004  16.735  13.472
43242W        W 7186  36.952   7.770  14.934
43243W        W 7187  25.695  10.354  13.983
43244W        W 7188   4.814  40.828   2.321
43245W        W 7189  36.861  10.709  10.564
43246W        W 7190  20.737   9.194  11.475
43247W        W 7191  41.952  13.343  11.531
43248W        W 7192  20.525  15.087   2.843
43249W        W 7193   9.385  21.710  11.548
43250W        W 7194  29.429  28.183  13.360
43251W        W 7195  34.104   8.817  12.349
43252W        W 7196  18.087  21.589  13.316
43253W        W 7197  11.821   5.720  14.307
43254W        W 7198  31.129  23.150  10.407
43255W        W 7199  26.085  26.144  12.364
43256W        W 7200  27.582   8.839   3.782
43257W        W 7201  31.406  22.508  12.344
43258W        W 7202  34.461   7.810   1.916
43259W        W 7203  14.638  39.860  14.884
43260W        W 7204  44.266  25.556   4.286
43261W        W 7205  26.472  36.865  11.580
43262W        W 7206   1.791  16.295  13.951
43263W        W 7207  28.664   1.800  10.576
43264W        W 7208  11.351  10.675   2.784
43265W        W 7209  32.948   2.335  12.418
43266W        W 7210  31.609  36.363   1.768
43267W        W 7211  15.190  39.318   3.364
43268W        W 7212  39.902  41.448  11.966
43269W        W 7213  36.929  25.203  11.057
43270W        W 7214  33.492  13.761  10.534
43271W        W 7215   4.848  28.477   1.817
43272W        W 7216  20.595  40.427  14.971
43273W        W 7217  43.786  22.589   0.310
43274W        W 7218  37.853  41.956   3.332
43275W        W 7219  43.961   5.833   0.356
43276W        W 7220  19.732  12.799  11.034
43277W        W 7221  40.805  12.809   0.319
43278W        W 7222  36.482  19.582   5.181
43279W        W 7223   9.354  37.904  11.912
43280W        W 7224  11.697   9.709  13.938
43281W        W 7225  38.466  30.012  13.331
43282W        W 7226   5.425  17.692   1.400
43283W        W 7227  39.509  41.433  12.475
43284W        W 7228   7.735  27.608  10.592
43285W        W 7229  43.425   1.251  11.612
43286W        W 7230  23.092  18.278   0.454
43287W        W 7231  14.697  38.874  14.381
43288W        W 7232  23.630  12.215   3.189
43289W        W 7233  38.019  33.524  12.032
43290W        W 7234  24.707  21.611  12.840
43291W        W 7235   1.462  43.855  13.030
43292W        W 7236  42.498  27.028   0.307
43293W        W 7237  15.317  41.859  14.396
43294W        W 7238  23.228  34.508   0.844
43295W        W 7239   7.229  18.628   3.755
43296W        W 7240  22.595  28.488   2.815
43297W        W 7241  10.665   6.774  13.474
43298W        W 7242   5.921  28.121   3.713
43299W        W 7243  29.435  37.533   1.795
43300W        W 7244  21.562  24.202  11.929
43301W        W 7245  23.028  21.728   2.258
43302W        W 7246  37.990   0.808  12.470
43303W        W 7247  15.604  40.860  11.499
43304W        W 7248  19.143  10.798   0.439
43305W        W 7249  12.250   5.831   2.228
43306W        W 7250  28.546  20.161   3.798
43307W        W 7251  10.318  14.707  14.383
43308W        W 7252   3.278  14.204  13.417
43309W        W 7253  41.892  42.509  13.332
43310W        W 7254  17.273  42.478  13.332
43311W        W 7255  37.390   9.183   3.718
43312W        W 7256  26.129  38.551   4.708
43313W        W 7257  43.359  10.801  14.301
43314W        W 7258  10.179  24.087   3.731
43315W        W 7259  19.637  16.609   4.116
43316W        W 7260  32.027   9.773   3.797
43317W        W 7261  44.347  24.515   0.936
43318W        W 7262  26.082  41.403   3.338
43319W        W 7263  15.634  44.916   4.135
43320W        W 7264   9.668  35.109  13.827
43321W        W 7265  29.562   1.805   1.752
43322W        W 7266  42.893  14.284   2.787
43323W        W 7267  34.999   3.877  14.857
43324W        W 7268   8.656  12.767   1.848
43325W        W 7269  36.930  30.528   1.908
43326W        W 7270  10.705  36.546  14.833
43327W        W 7271  14.807   3.418  13.868
43328W        W 7272   8.338   1.419   1.248
43329W        W 7273  36.843  39.380  13.522
43330W        W 7274   2.856   4.361   3.690
43331W        W 7275  23.171  24.040   0.865
43332W        W 7276  17.229  37.942  13.885
43333W        W 7277   3.796  24.134   3.240
43334W        W 7278   3.824  38.379   0.825
43335W        W 7279   8.879  19.624  13.500
43336W        W 7280  26.479   9.668  14.963
43337W        W 7281  13.118   2.248   3.165
43338W        W 7282  23.522   2.963  14.490
43339W        W 7283  42.870  24.544  13.321
43340W        W 7284  41.479   4.917  13.990
43341W        W 7285   6.824  16.078  14.984
43342W        W 7286  34.069  34.082   4.636
43343W        W 7287  25.587   9.779  13.331
43344W        W 7288  17.690   7.705   4.251
43345W        W 7289  35.912  35.106  12.345
43346W        W 7290  36.582   8.664  11.541
43347W        W 7291  42.356   8.219  11.384
43348W        W 7292  19.645   3.406  11.387
43349W        W 7293   6.307  41.857   1.245
43350W        W 7294   5.307  18.589   2.362
43351W        W 7295  35.913  29.125  13.974
43352W        W 7296  32.134   9.278  10.559
43353W        W 7297  17.235   4.841  11.125
43354W        W 7298  36.473  41.341   1.811
43355W        W 7299  24.169   2.276  11.479
43356W        W 7300  28.539  29.515  14.812
43357W        W 7301  14.279  33.560   0.874
43358W        W 7302  30.515  14.675  12.842
43359W        W 7303  23.020  13.686  11.911
43360W        W 7304  31.011  41.309  14.498
43361W        W 7305  30.487  28.118   2.739
43362W        W 7306  42.839  30.650   4.838
43363W        W 7307   3.269  29.078   4.325
43364W        W 7308  32.399  36.558  11.864
43365W        W 7309  38.400  36.404  13.341
43366W        W 7310  12.222  30.493  10.639
43367W        W 7311  30.043   3.320  14.774
43368W        W 7312  21.693  14.792  14.815
43369W        W 7313  11.816  21.104  12.847
43370W        W 7314   4.904  18.127   1.752
43371W        W 7315  19.540  16.765  13.901
43372W        W 7316  30.421  31.466  14.800
43373W        W 7317  34.378  38.973   1.442
43374W        W 7318  17.120  27.158   1.270
43375W        W 7319  39.348   4.381   2.341
43376W        W 7320  42.289   2.872  14.480
43377W        W 7321  12.353  12.353   4.707
43378W        W 7322  38.555  15.109   0.939
43379W        W 7323  40.820   8.401  11.423
43380W        W 7324   3.287  22.037   3.724
43381W        W 7325  38.073  36.909  14.502
43382W        W 7326  22.653  44.952  10.613
43383W        W 7327  29.624  28.933  10.010
43384W        W 7328  16.129  31.071   9.556
43385W        W 7329  35.442  17.190  11.933
43386W        W 7330  12.750  25.665   0.823
43387W        W 7331  26.012  11.644  11.085
43388W        W 7332   6.912  25.576   0.860
43389W        W 7333  11.726  27.042  10.641
43390W        W 7334  15.580  41.990  11.432
43391W        W 7335   3.901  11.635   3.802
43392W        W 7336  41.968  16.570   3.289
43393W        W 7337  29.477  22.731   2.780
43394W        W 7338  15.154   9.209  14.997
43395W        W 7339   3.348  29.653  11.937
43396W        W 7340  38.860  16.166   4.117
43397W        W 7341   6.285  21.607  11.084
43398W        W 7342  42.481  43.343  14.433
43399W        W 7343  28.581  13.153  14.930
43400W        W 7344  26.622  42.990   2.376
43401W        W 7345   3.307   7.207  11.924
43402W        W 7346   8.330  39.511  14.784
43403W        W 7347  28.033   7.307   1.866
43404W        W 7348  21.546  44.406   0.290
43405W        W 7349  28.468   3.225   3.305
43406W        W 7350  22.701  24.558   1.424
43407W        W 7351  39.849   1.853   4.605
43408W        W 7352   8.260  43.943  10.990
43409W        W 7353  15.112  19.111   0.757
43410W        W 7354  35.378  33.119  12.370
43411W        W 7355  18.704  30.615  13.851
43412W        W 7356  31.551  16.295   3.330
43413W        W 7357  13.678  37.918   2.184
43414W        W 7358   0.461  29.960   1.933
43415W        W 7359   0.776  21.104  13.453
43416W        W 7360  31.922   3.402  13.893
43417W        W 7361  39.990  30.974   2.822
43418W        W 7362  11.784   9.860   2.809
43419W        W 7363   9.648  41.891   0.859
43420W        W 7364  28.122  38.327   0.805
43421W        W 7365  39.319  37.882   1.278
43422W        W 7366  44.986  42.784  10.574
43423W        W 7367  18.592  39.391   1.708
43424W        W 7368  15.216  19.659   0.272
43425W        W 7369  42.482  23.684   3.204
43426W        W 7370  43.467  11.662   0.306
43427W        W 7371   2.800  32.630  12.913
43428W        W 7372  38.380   6.721   1.363
43429W        W 7373  11.254  13.831   0.344
43430W        W 7374  34.042  18.552   3.175
43431W        W 7375  23.577   5.851  10.529
43432W        W 7376   2.390  12.348   3.724
43433W        W 7377  23.659  44.389   2.797
43434W        W 7378  31.619   3.709   0.350
43435W        W 7379  17.207  28.480  13.464
43436W        W 7380   0.806  33.031  11.871
43437W        W 7381  25.504  12.311   1.916
43438W        W 7382  42.798  42.328  11.865
43439W        W 7383  33.523  28.517   4.833
43440W        W 7384  17.247  38.371   3.311
43441W        W 7385  30.565  22.684  13.004
43442W        W 7386  21.262  12.809   3.220
43443W        W 7387   3.216  35.951  14.385
43444W        W 7388  19.115  11.261   0.477
43445W        W 7389  38.445  15.609  10.497
43446W        W 7390   4.795  36.386  10.947
43447W        W 7391  26.531  33.626  13.057
43448W        W 7392  36.444  11.245   4.201
43449W        W 7393  28.466  10.249   4.242
43450W        W 7394  37.086   8.779  10.906
43451W        W 7395  40.002  36.563  13.059
43452W        W 7396  37.469   1.428   4.639
43453W        W 7397  38.821  15.122  14.305
43454W        W 7398   9.760  27.481  11.452
43455W        W 7399  13.708  42.957  12.901
43456W        W 7400  11.647  42.874  14.787
43457W        W 7401   7.359  42.381   4.265
43458W        W 7402  33.950  13.708   4.731
43459W        W 7403  43.308  18.657   4.206
43460W        W 7404  18.066  25.138   9.964
43461W        W 7405  11.183  36.905   0.292
43462W        W 7406  21.182  31.125  14.513
43463W        W 7407  16.105  36.014   0.832
43464W        W 7408  19.248  30.573   4.832
43465W        W 7409  37.483  29.147  13.514
43466W        W 7410   1.963  42.325  12.551
43467W        W 7411  13.242  32.431   0.925
43468W        W 7412  24.543  13.711  11.952
43469W        W 7413  37.894  40.039  12.933
43470W        W 7414  34.903  36.078   2.340
43471W        W 7415   4.233  19.622   4.270
43472W        W 7416  32.427   0.742   4.254
43473W        W 7417  23.160  28.446   1.443
43474W        W 7418  40.429   1.848  11.376
43475W        W 7419  27.509  14.213  11.949
43476W        W 7420  41.491  26.619  10.937
43477W        W 7421  39.879  33.488   3.856
43478W        W 7422  26.482  31.403   3.306
43479W        W 7423   7.748   1.837   5.272
43480W        W 7424   0.490   5.812   2.723
43481W        W 7425  21.586   2.285   1.216
43482W        W 7426  36.098   7.382  14.957
43483W        W 7427  42.389  37.850  11.385
43484W        W 7428   2.301  27.460   0.362
43485W        W 7429  33.898  43.007  12.887
43486W        W 7430   1.349  10.656  12.973
43487W        W 7431  26.612   2.888  14.909
43488W        W 7432   0.459  18.630   4.745
43489W        W 7433  27.055  18.140   5.248
43490W        W 7434  43.888  33.617   3.767
43491W        W 7435  22.161   2.273   1.313
43492W        W 7436  40.014   6.887  14.782
43493W        W 7437  35.579   8.225   0.418
43494W        W 7438   8.793  12.719   2.704
43495W        W 7439  41.038  12.687   2.181
43496W        W 7440  25.545  10.748   3.715
43497W        W 7441  23.088   1.387   2.189
43498W        W 7442   1.270   0.373   1.799
43499W        W 7443   2.419  28.517   4.742
43500W        W 7444   9.241  33.532   2.829
43501W        W 7445   8.836   1.797   0.906
43502W        W 7446  32.627  10.375   1.239
43503W        W 7447  16.300  17.781  11.870
43504W        W 7448  26.622  15.301  14.285
43505W        W 7449  13.348  42.402  10.546
43506W        W 7450  31.450  20.028   0.403
43507W        W 7451   1.958  20.086   1.707
43508W        W 7452  11.144  16.180   4.744
43509W        W 7453  26.017  31.590  12.013
43510W        W 7454  38.848  40.404   5.300
43511W        W 7455  12.762   3.906   1.920
43512W        W 7456  33.545  28.677  14.379
43513W        W 7457   5.899  29.951   0.291
43514W        W 7458  37.993   4.790   9.534
43515W        W 7459  22.191  37.049  14.480
43516W        W 7460  32.420  34.012  13.521
43517W        W 7461   7.900   9.655  13.435
43518W        W 7462  34.112  12.268  12.082
43519W        W 7463  13.624  18.119  14.003
43520W        W 7464   2.424   3.853   1.758
43521W        W 7465  38.851  35.602  11.077
43522W        W 7466  37.013  26.141   2.847
43523W        W 7467  40.922  30.538   4.298
43524W        W 7468  27.051   9.222  12.870
43525W        W 7469  20.707   3.795   2.296
43526W        W 7470  32.943   4.872  14.873
43527W        W 7471  10.261  24.553   3.254
43528W        W 7472  40.312  43.846   2.339
43529W        W 7473  16.221  34.099   0.247
43530W        W 7474  28.930  41.867   1.246
43531W        W 7475   6.713  32.993  11.413
43532W        W 7476  29.973  41.339   1.258
43533W        W 7477  24.992  36.047  14.461
43534W        W 7478   0.372  26.608   2.856
43535W        W 7479  23.699  23.144   2.677
43536W        W 7480  38.995  27.941   2.765
43537W        W 7481  12.704  22.695   2.704
43538W        W 7482  37.417  44.988   0.457
43539W        W 7483  34.555  27.613   3.192
43540W        W 7484  29.009  37.070   1.759
43541W        W 7485  30.620  23.531  11.043
43542W        W 7486  24.657  19.078  10.472
43543W        W 7487  43.272  17.173   2.700
43544W        W 7488  25.047  14.203  11.453
43545W        W 7489  27.952  21.135  10.521
43546W        W 7490  21.213   3.413  14.020
43547W        W 7491  10.774   5.301  12.363
43548W        W 7492   5.903  13.635  11.970
43549W        W 7493  35.076  22.635  12.038
43550W        W 7494  38.938  33.951   2.858
43551W        W 7495  37.550  17.689  13.522
43552W        W 7496   9.722  24.719   3.289
43553W        W 7497  37.075  25.062  12.937
43554W        W 7498   3.736   1.944   4.604
43555W        W 7499  23.116  36.551   2.669
43556W        W 7500  16.746  20.576  13.546
43557W        W 7501  43.362  31.505  12.401
43558W        W 7502   1.766  43.326   0.910
43559W        W 7503  43.913  38.330  14.304
43560W        W 7504  32.114   9.789   3.263
43561W        W 7505  10.739  18.635   4.826
43562W        W 7506  36.932  24.670  13.047
43563W        W 7507  32.908   6.736   1.776
43564W        W 7508  38.955   2.753   9.925
43565W        W 7509  20.607  19.082  12.019
43566W        W 7510  10.762  25.683  12.029
43567W        W 7511  19.670   3.734   0.939
43568W        W 7512  16.617  34.941   0.819
43569W        W 7513   6.290  16.754  10.639
43570W        W 7514  41.902  44.912   3.224
43571W        W 7515  16.666   5.887  13.810
43572W        W 7516  25.198   7.702  13.349
43573W        W 7517  27.950  11.830  12.068
43574W        W 7518  27.108  44.883  12.073
43575W        W 7519   7.198   4.221  11.378
43576W        W 7520  41.014  37.831  14.899
43577W        W 7521  24.622  14.130  12.026
43578W        W 7522  25.203  15.207  13.352
43579W        W 7523  18.619  40.388  14.333
43580W        W 7524  30.121  29.043   1.791
43581W        W 7525  32.395  12.231  12.005
43582W        W 7526   5.717  15.207   4.184
43583W        W 7527  12.774  14.682  14.410
43584W        W 7528  20.252  44.971   4.128
43585W        W 7529  42.998  23.231  10.630
43586W        W 7530   5.313  24.043  14.383
43587W        W 7531  37.935  42.495  12.508
43588W        W 7532  36.426  33.623  13.057
43589W        W 7533  21.181  38.858  10.063
43590W        W 7534  17.704  32.582   3.656
43591W        W 7535  26.702  10.352  11.405
43592W        W 7536   9.340  18.555   3.294
43593W        W 7537  33.031  24.627   0.414
43594W        W 7538  37.484  36.576  10.572
43595W        W 7539  33.090  35.866   2.854
43596W        W 7540  28.143   8.680  13.432
43597W        W 7541   5.804  32.560  14.385
43598W        W 7542  22.026  31.488   3.229
43599W        W 7543  33.976  19.754   4.139
43600W        W 7544  13.282  26.554  10.449
43601W        W 7545   9.662   4.758  14.297
43602W        W 7546  41.473   2.265  10.487
43603W        W 7547   2.340   3.345   1.786
43604W        W 7548  17.559  38.969   0.346
43605W        W 7549  35.072  33.415   4.767
43606W        W 7550   7.192  26.192   4.263
43607W        W 7551   0.285   4.770  12.003
43608W        W 7552  27.128  38.831   3.819
43609W        W 7553  39.330  28.040   3.149
43610W        W 7554  26.670  20.223   2.248
43611W        W 7555  20.538  36.958   0.740
43612W        W 7556  14.756   1.912   1.292
43613W        W 7557  30.505  17.125   1.422
43614W        W 7558  44.870  25.479  14.279
43615W        W 7559  23.059  14.751  11.580
43616W        W 7560  28.603  15.246  13.365
43617W        W 7561  14.239  34.415  11.519
43618W        W 7562  30.450  22.575   2.183
43619W        W 7563  33.561  11.201  14.316
43620W        W 7564  10.778  32.513  14.494
43621W        W 7565  20.726  39.343   2.859
43622W        W 7566   6.266  41.816   3.324
43623W        W 7567  12.190  36.577   0.922
43624W        W 7568   9.731  30.609   4.138
43625W        W 7569  30.124  44.890   4.181
43626W        W 7570  32.417  44.854  11.385
43627W        W 7571   8.727   5.849  13.010
43628W        W 7572  18.141  39.332  10.931
43629W        W 7573   1.955  44.351  12.379
43630W        W 7574  16.598  12.279  10.912
43631W        W 7575  16.185  43.269  14.893
43632W        W 7576   6.220  18.677   5.186
43633W        W 7577  44.372  35.490   3.762
43634W        W 7578  42.809  31.534   0.367
43635W        W 7579  27.040  16.157  13.793
43636W        W 7580  20.229   8.374   2.245
43637W        W 7581  33.598  31.975   2.824
43638W        W 7582  11.795  38.418  14.868
43639W        W 7583  34.546  25.702  12.458
43640W        W 7584  18.273  38.039  13.350
43641W        W 7585   8.874  12.684  12.456
43642W        W 7586  18.148  23.002  11.949
43643W        W 7587  27.102  34.008  11.978
43644W        W 7588   2.826  21.560   4.156
43645W        W 7589  43.280   3.397  10.515
43646W        W 7590  20.763   3.757   0.950
43647W        W 7591  39.432  30.080   0.844
43648W        W 7592   7.348  39.009   2.734
43649W        W 7593  17.766  43.784  11.577
43650W        W 7594  36.480  21.590  10.643
43651W        W 7595  17.621  37.085  13.012
43652W        W 7596   3.456  28.046  12.529
43653W        W 7597  17.788  10.329   1.225
43654W        W 7598  10.322  40.392  14.405
43655W        W 7599  13.783  39.963   1.417
43656W        W 7600  39.930  42.439  12.997
43657W        W 7601  10.304  11.344  12.399
43658W        W 7602  34.577   9.677  11.940
43659W        W 7603  22.708  30.497   2.251
43660W        W 7604  29.463  34.094   0.261
43661W        W 7605  26.565  11.354  10.471
43662W        W 7606   5.719  15.139  12.513
43663W        W 7607  20.092  18.245  14.421
43664W        W 7608   2.309  16.135   3.267
43665W        W 7609  35.946   3.755  14.388
43666W        W 7610   0.768  10.282   4.202
43667W        W 7611  17.790  12.324   4.304
43668W        W 7612   5.353  34.461  13.953
43669W        W 7613  25.638  39.811   3.227
43670W        W 7614  12.828  35.860   3.863
43671W        W 7615  26.972  27.679   1.444
43672W        W 7616  13.219  19.716  13.844
43673W        W 7617  35.406  38.044  12.393
43674W        W 7618  17.137  42.911   2.303
43675W        W 7619   8.218  10.162  11.046
43676W        W 7620  43.942  33.896   3.795
43677W        W 7621   3.366  13.669  13.829
43678W        W 7622  11.774  42.004   3.253
43679W        W 7623   5.229  25.091   0.288
43680W        W 7624  42.905  27.042  13.995
43681W        W 7625  12.299  15.602  11.378
43682W        W 7626   7.280   9.230  11.401
43683W        W 7627  24.217  20.717  12.393
43684W        W 7628   1.405   4.826   0.309
43685W        W 7629  32.494   2.848  14.825
43686W        W 7630  39.023   1.346  11.594
43687W        W 7631   9.268   2.428   3.745
43688W        W 7632  34.081  37.867  14.899
43689W        W 7633   8.287  17.097  12.445
43690W        W 7634  14.190  17.733  11.868
43691W        W 7635   2.897   3.764   4.693
43692W        W 7636  11.156   1.883   5.118
43693W        W 7637   5.782  18.292  10.899
43694W        W 7638  21.166  26.118   9.986
43695W        W 7639  28.072  13.173  13.026
43696W        W 7640  42.951  35.368   0.272
43697W        W 7641   1.424  19.537  12.924
43698W        W 7642  18.732   3.405  13.838
43699W        W 7643  39.021  40.451   3.791
43700W        W 7644   2.950   6.840  10.087
43701W        W 7645  40.542   3.814  11.021
43702W        W 7646   2.802  36.495  13.056
43703W        W 7647   8.243   8.376   0.782
43704W        W 7648   9.257  14.107   0.349
43705W        W 7649  23.614  40.053   1.856
43706W        W 7650  31.028  16.649   3.343
43707W        W 7651  42.490  22.129  12.560
43708W        W 7652  39.908  38.988   4.716
43709W        W 7653  28.674  13.212   1.727
43710W        W 7654  18.223  24.530  13.325
43711W        W 7655  36.886   1.326   2.776
43712W        W 7656  14.615  26.546   1.382
43713W        W 7657  15.282   4.781   2.875
43714W        W 7658  34.899   9.751  10.638
43715W        W 7659   5.272  12.782  14.987
43716W        W 7660  11.662  44.485  14.973
43717W        W 7661  37.425  12.222  14.891
43718W        W 7662  21.573  43.999  12.046
43719W        W 7663  16.711  39.012  13.394
43720W        W 7664  28.592  18.547  13.507
43721W        W 7665  14.172  15.229  14.825
43722W        W 7666  26.688  31.964   4.318
43723W        W 7667  21.129   2.725   0.310
43724W        W 7668   5.800   8.232  11.497
43725W        W 7669  23.001  20.235   2.899
43726W        W 7670   6.915  28.541  12.842
43727W        W 7671  18.103  11.622  13.376
43728W        W 7672  44.499   6.796   1.805
43729W        W 7673  17.305  32.414   2.876
43730W        W 7674  41.906  42.288  10.976
43731W        W 7675  35.991  33.486   2.186
43732W        W 7676  44.350  13.189  10.472
43733W        W 7677  38.515  37.444  14.496
43734W        W 7678  13.340  24.604  13.324
43735W        W 7679  32.510  24.089  12.840
43736W        W 7680  25.706   4.283   3.149
43737W        W 7681   9.646  20.266   2.701
43738W        W 7682  31.460  33.592  13.491
43739W        W 7683  18.140  43.273  13.525
43740W        W 7684  17.169  42.832  13.959
43741W        W 7685  37.491  27.040   4.715
43742W        W 7686  10.259  33.130  10.418
43743W        W 7687  28.459  28.618   4.815
43744W        W 7688  13.809   4.880  14.021
43745W        W 7689  37.925  23.048  10.509
43746W        W 7690   9.316  10.326  13.341
43747W        W 7691  18.243  34.051   9.666
43748W        W 7692  34.451  28.591  11.977
43749W        W 7693  33.047  12.253  11.931
43750W        W 7694   8.371  24.539  14.478
43751W        W 7695  39.840   5.197  14.915
43752W        W 7696  20.577  21.027   0.398
43753W        W 7697   2.462  35.362  13.923
43754W        W 7698  40.452  29.430   4.129
43755W        W 7699  31.079  21.605  10.417
43756W        W 7700  15.814  29.568   0.252
43757W        W 7701   9.766  31.461   0.248
43758W        W 7702  10.222  22.087  13.372
43759W        W 7703  11.352  16.691  14.275
43760W        W 7704   2.868  24.069   4.825
43761W        W 7705  16.614  36.430  14.478
43762W        W 7706  26.014  18.621  12.530
43763W        W 7707   0.870  29.929  14.981
43764W        W 7708  31.537  33.891   0.401
43765W        W 7709  11.758  17.598   5.219
43766W        W 7710  33.961  34.435   2.220
43767W        W 7711   4.922  10.649  11.440
43768W        W 7712  20.215  18.261   2.234
43769W        W 7713  18.266  26.489  12.467
43770W        W 7714  27.044  18.188  12.008
43771W        W 7715  32.897  32.089  12.921
43772W        W 7716  34.522   7.313  13.313
43773W        W 7717  36.589  38.960  12.573
43774W        W 7718  20.077  10.279   2.804
43775W        W 7719  41.498  34.567  14.810
43776W        W 7720  36.449   4.803   3.174
43777W        W 7721  40.386  20.109  12.085
43778W        W 7722   2.430  33.113  12.498
43779W        W 7723  13.623  15.267  13.832
43780W        W 7724  43.305  22.729  13.351
43781W        W 7725   3.219  42.483  10.468
43782W        W 7726   6.739   3.847   2.329
43783W        W 7727   5.356  41.018  10.534
43784W        W 7728  25.163  31.050  14.404
43785W        W 7729  43.470  32.064  13.048
43786W        W 7730  23.142  36.566  14.288
43787W        W 7731  27.466  41.419  14.930
43788W        W 7732  17.589   8.775   5.309
43789W        W 7733  39.411  22.613   4.646
43790W        W 7734  29.057  44.412  10.529
43791W        W 7735  43.349  19.059  14.017
43792W        W 7736   3.947  15.681   1.785
43793W        W 7737  44.800  43.307   1.877
43794W        W 7738  40.546  32.523  14.991
43795W        W 7739  24.093  33.463  10.073
43796W        W 7740  11.332  13.333   1.797
43797W        W 7741  18.197  43.931  12.545
43798W        W 7742  11.841  20.099  12.005
43799W        W 7743  24.528  10.338  14.995
43800W        W 7744  19.615  14.327  10.600
43801W        W 7745   6.218  17.124  11.408
43802W        W 7746  38.424   7.375   2.761
43803W        W 7747  37.547  38.495   4.752
43804W        W 7748  20.074  19.231   3.644
43805W        W 7749   2.233  20.700  10.454
43806W        W 7750  28.120   4.204   2.196
43807W        W 7751   0.375  33.499   0.956
43808W        W 7752  39.851  16.750  13.045
43809W        W 7753   2.738  34.476  11.892
43810W        W 7754  36.462  42.417  13.460
43811W        W 7755   8.840   8.196   2.769
43812W        W 7756  29.646   0.769   3.784
43813W        W 7757  10.859  19.592  11.057
43814W        W 7758  33.110   0.907   3.809
43815W        W 7759   6.287  20.675  11.889
43816W        W 7760  41.902   7.800   4.670
43817W        W 7761   7.245  20.273   1.753
43818W        W 7762   2.906  15.143  11.559
43819W        W 7763  34.953  29.027  13.043
43820W        W 7764  44.376  17.159   2.896
43821W        W 7765   5.381  38.452  14.797
43822W        W 7766  13.690  24.698   2.774
43823W        W 7767   2.937  32.480  12.468
43824W        W 7768  32.510   3.821   0.745
43825W        W 7769  30.059   3.372  14.341
43826W        W 7770  26.681   5.711  11.402
43827W        W 7771   4.742  38.568  13.310
43828W        W 7772  12.656  36.526   3.851
43829W        W 7773   2.750  17.688  13.456
43830W        W 7774  27.971   0.421   3.787
43831W        W 7775  41.420  13.119   0.270
43832W        W 7776  19.731   5.746  12.084
43833W        W 7777  25.013   3.940   3.815
43834W        W 7778  39.864  32.898  13.907
43835W        W 7779   2.295   8.235   1.313
43836W        W 7780  18.084  38.870  11.926
43837W        W 7781  34.400  31.926  10.425
43838W        W 7782  15.651  12.123   4.753
43839W        W 7783  35.025  17.271  14.866
43840W        W 7784  38.340  18.761  10.448
43841W        W 7785  35.936  11.717  14.899
43842W        W 7786  35.533  19.283   1.857
43843W        W 7787  39.877  10.805  12.512
43844W        W 7788  37.521  39.045  11.966
43845W        W 7789  11.259  44.292  11.499
43846W        W 7790  10.841  24.989  12.574
43847W        W 7791  14.264  25.541   2.693
43848W        W 7792   6.182  28.489   5.247
43849W        W 7793   2.269  38.000  11.450
43850W        W 7794  44.962  37.979  14.305
43851W        W 7795  29.433   3.364  12.416
43852W        W 7796  31.059  33.581   4.132
43853W        W 7797  28.500   6.835   2.759
43854W        W 7798  26.065  35.097  10.563
43855W        W 7799  33.105  40.435   1.297
43856W        W 7800  35.436  12.171  13.859
43857W        W 7801  40.445  32.413  10.961
43858W        W 7802  34.086  24.657   1.719
43859W        W 7803  15.155  38.559  12.424
43860W        W 7804  28.464  38.517   9.448
43861W        W 7805  19.205  21.732  14.819
43862W        W 7806  21.611   8.197  14.961
43863W        W 7807  43.459  10.702   0.961
43864W        W 7808  16.155  39.376   3.870
43865W        W 7809  19.560  16.250   1.848
43866W        W 7810  24.549  29.985   4.296
43867W        W 7811   7.383  32.097  14.361
43868W        W 7812  40.039  38.964  12.878
43869W        W 7813  38.041  12.855  12.384
43870W        W 7814  31.103  31.591   4.240
43871W        W 7815  39.032   9.836  10.969
43872W        W 7816  13.249  14.293   3.838
43873W        W 7817  40.840  15.664   4.314
43874W        W 7818  37.015   3.812  11.878
43875W        W 7819  33.541  11.361  12.418
43876W        W 7820  20.253  12.136   4.610
43877W        W 7821  37.349  14.213   0.423
43878W        W 7822  18.570   9.843  11.595
43879W        W 7823  32.516   9.732   0.285
43880W        W 7824   3.443  39.996   0.929
43881W        W 7825  14.302  33.118   1.884
43882W        W 7826   4.322  27.689  13.449
43883W        W 7827   4.727   6.880   2.857
43884W        W 7828  21.553  26.206  14.856
43885W        W 7829  34.374  13.298  11.467
43886W        W 7830  21.757   5.228  11.941
43887W        W 7831   8.857   5.766  13.910
43888W        W 7832  38.823   5.237  11.979
43889W        W 7833  39.527   7.707  10.062
43890W        W 7834  28.181  24.630  10.595
43891W        W 7835   3.327  28.459   4.283
43892W        W 7836  41.013  34.045   1.405
43893W        W 7837  31.452   0.745  11.418
43894W        W 7838  25.683  44.306  10.507
43895W        W 7839  20.600  23.678  13.425
43896W        W 7840   2.310  16.246   0.828
43897W        W 7841  32.037   7.198  12.477
43898W        W 7842  27.080  29.478  13.342
43899W        W 7843  12.756  39.061   2.312
43900W        W 7844   0.265  18.219  10.483
43901W        W 7845  27.491  14.242  12.383
43902W        W 7846  31.476  21.661  11.533
43903W        W 7847  43.405  43.009   0.430
43904W        W 7848   3.771  21.533   1.378
43905W        W 7849  28.649  17.725  13.940
43906W        W 7850  33.512  41.538   2.800
43907W        W 7851  34.114  19.225   3.236
43908W        W 7852  35.550  21.716   0.455
43909W        W 7853  43.276   6.363   0.819
43910W        W 7854  22.160   1.795   0.378
43911W        W 7855  38.028   0.368  14.329
43912W        W 7856   3.406  44.931   2.713
43913W        W 7857  29.445  37.942   1.311
43914W        W 7858   5.410  10.318  10.407
43915W        W 7859   2.313  36.574   2.387
43916W        W 7860   6.866  19.704  10.632
43917W        W 7861  31.986  17.070  11.933
43918W        W 7862   4.275  20.706   3.733
43919W        W 7863   9.243   6.909   0.328
43920W        W 7864  16.716  35.477  13.382
43921W        W 7865  23.550  24.532  13.380
43922W        W 7866  22.544  13.153  13.983
43923W        W 7867  11.693  38.976   2.704
43924W        W 7868  28.079  21.053  12.568
43925W        W 7869  44.385  16.742   4.116
43926W        W 7870  44.812  26.551  12.076
43927W        W 7871  25.474  30.948  14.022
43928W        W 7872   4.327  20.210   4.327
43929W        W 7873  38.330  36.430   1.916
43930W        W 7874  25.500  40.048  13.953
43931W        W 7875  13.231  36.876  10.919
43932W        W 7876  11.676  37.997   0.817
43933W        W 7877  13.666   2.754   1.233
43934W        W 7878   9.677  33.900  10.603
43935W        W 7879  15.682   0.370   3.827
43936W        W 7880  30.559  13.254  12.366
43937W        W 7881  24.981  15.156  10.924
43938W        W 7882  14.602  16.137  13.414
43939W        W 7883  11.684  37.882  14.399
43940W        W 7884  20.632  15.675   1.402
43941W        W 7885   5.328  21.713  12.057
43942W        W 7886  28.945  31.103  10.899
43943W        W 7887  15.254  34.945  13.826
43944W        W 7888  19.224  19.106   3.383
43945W        W 7889   1.328   8.329   1.756
43946W        W 7890   9.715  15.093   1.313
43947W        W 7891  31.949  39.942   4.806
43948W        W 7892  44.779  18.779   0.784
43949W        W 7893  18.287  27.124   2.799
43950W        W 7894  36.384  44.773  12.049
43951W        W 7895  15.298   5.731   4.753
43952W        W 7896  19.611  12.775  14.029
43953W        W 7897  12.255   3.797  14.480
43954W        W 7898   8.167  20.211   2.794
43955W        W 7899  19.701  17.276   4.261
43956W        W 7900   4.714   9.884   3.846
43957W        W 7901  23.093  24.602   3.838
43958W        W 7902  31.087  40.881  10.604
43959W        W 7903  26.670  23.591   2.295
43960W        W 7904   9.196   7.283   4.157
43961W        W 7905   5.402  43.404   0.347
43962W        W 7906  33.439  17.688  11.081
43963W        W 7907  10.194  43.436   2.779
43964W        W 7908  16.269  30.061   1.316
43965W        W 7909  44.882   1.364   2.319
43966W        W 7910  37.388  10.855  13.941
43967W        W 7911  14.139   7.686   0.778
43968W        W 7912  29.573  34.434  11.414
43969W        W 7913   5.203   8.187  14.507
43970W        W 7914  42.334  36.347  12.418
43971W        W 7915  20.168  25.650  13.329
43972W        W 7916  14.098  37.043  13.058
43973W        W 7917  18.161  37.475   2.311
43974W        W 7918  22.185   8.200   0.435
43975W        W 7919  20.616  20.112  13.016
43976W        W 7920  15.150  44.936  11.607
43977W        W 7921  10.671  15.723  11.565
43978W        W 7922  17.278  21.019  10.615
43979W        W 7923  30.486  16.644  13.811
43980W        W 7924  18.749  16.180  11.882
43981W        W 7925  10.694  39.969   1.264
43982W        W 7926  24.225  24.637  11.931
43983W        W 7927  41.381   7.684   1.427
43984W        W 7928  29.011  43.939  10.467
43985W        W 7929  35.873  11.307   4.200
43986W        W 7930   4.236  26.039   0.332
43987W        W 7931   2.801  20.636  14.001
43988W        W 7932   7.842   6.817   4.632
43989W        W 7933  26.644  21.171   0.891
43990W        W 7934   1.962  21.647  14.385
43991W        W 7935  22.177  24.661  12.860
43992W        W 7936  21.225  30.117  14.409
43993W        W 7937  44.825  16.123  10.486
43994W        W 7938  38.487  39.975  12.027
43995W        W 7939  33.978  23.623   2.670
43996W        W 7940   0.980   5.833   4.258
43997W        W 7941   3.776  12.803   3.755
43998W        W 7942  21.124  41.867  14.896
43999W        W 7943  41.315  39.058  11.857
44000W        W 7944  25.569  19.075   3.742
44001W        W 7945  34.538  41.497   0.822
44002W        W 7946  40.334  15.238   2.298
44003W        W 7947  29.035   4.860  14.919
44004W        W 7948  38.558   8.891  12.056
44005W        W 7949  33.021   5.829  10.894
44006W        W 7950  12.708  25.092  11.084
44007W        W 7951  24.639   5.229   0.830
44008W        W 7952  23.720  39.438  13.938
44009W        W 7953  37.503  10.638  11.512
44010W        W 7954  29.125  21.666  11.867
44011W        W 7955  15.639  24.522   3.304
44012W        W 7956   3.758  25.034  12.408
44013W        W 7957   9.695  36.904   2.776
44014W        W 7958  12.122   5.227   3.731
44015W        W 7959  25.532  20.180  14.512
44016W        W 7960  27.623  36.361  13.838
44017W        W 7961  21.704   4.421  11.002
44018W        W 7962  10.839  30.417  13.807
44019W        W 7963   6.701  31.966  11.983
44020W        W 7964   5.758  37.082  14.782
44021W        W 7965  44.264  30.038   3.378
44022W        W 7966   5.355  21.181  11.083
44023W        W 7967  16.744   6.793   0.864
44024W        W 7968  33.973  16.157  13.484
44025W        W 7969  42.909   2.411   1.837
44026W        W 7970   9.393  40.802  11.089
44027W        W 7971   5.786  39.345  10.432
44028W        W 7972   0.480  44.366  12.963
44029W        W 7973  16.598   0.315   0.421
44030W        W 7974  39.515  41.834   0.387
44031W        W 7975  21.206  23.658   0.457
44032W        W 7976  27.135  22.557  11.492
44033W        W 7977  19.737  25.506   4.649
44034W        W 7978  28.067  35.579  11.878
44035W        W 7979  22.161   8.237   1.428
44036W        W 7980  40.466  34.442  12.064
44037W        W 7981   1.300  11.140  11.017
44038W        W 7982  32.994  23.146   4.331
44039W        W 7983  17.291  43.458  14.363
44040W        W 7984   7.752  26.072   1.432
44041W        W 7985   3.838  16.779  12.059
44042W        W 7986   2.374   1.959  10.890
44043W        W 7987   8.252  26.976  11.113
44044W        W 7988  20.690  30.967  12.532
44045W        W 7989  23.734   4.273  12.884
44046W        W 7990  25.202  22.546  11.560
44047W        W 7991  19.732   3.726  10.933
44048W        W 7992  14.318  30.026   0.336
44049W        W 7993  26.612   2.380   4.688
44050W        W 7994   9.836  13.770   2.857
44051W        W 7995   0.767  41.825   1.793
44052W        W 7996  43.824  42.017  12.072
44053W        W 7997  15.301   4.337  10.420
44054W        W 7998  21.052  30.526  13.371
44055W        W 7999  40.482  23.577   3.159
44056W        W 8000  38.893  41.863   4.612
44057W        W 8001  21.105  38.362   1.432
44058W        W 8002  17.212  22.228   0.790
44059W        W 8003  18.697   6.248  10.493
44060W        W 8004  27.093  38.392   3.759
44061W        W 8005  31.938   2.895  11.541
44062W        W 8006  19.165  13.661   2.284
44063W        W 8007  29.059  22.729   2.852
44064W        W 8008  26.589  32.439  14.445
44065W        W 8009  41.399  26.699   1.293
44066W        W 8010   0.921  20.186  10.582
44067W        W 8011   5.824  20.119   3.277
44068W        W 8012  18.097  24.146   9.561
44069W        W 8013  33.534  11.712  12.973
44070W        W 8014  34.946  16.600  12.542
44071W        W 8015  33.120  18.755   2.672
44072W        W 8016  28.515  12.852   2.689
44073W        W 8017   7.263  24.568   1.368
44074W        W 8018  25.145  26.618  10.637
44075W        W 8019  34.872  38.450  11.114
44076W        W 8020  11.632  29.562   3.222
44077W        W 8021  44.270  22.544  12.343
44078W        W 8022  21.568   8.204   1.451
44079W        W 8023   9.213  13.734  10.067
44080W        W 8024  38.530   0.855   2.776
44081W        W 8025  27.691  22.169  13.351
44082W        W 8026  41.495  18.791   4.285
44083W        W 8027  12.322  24.146   3.165
44084W        W 8028  40.816   0.944  13.857
44085W        W 8029   5.890  35.053   2.812
44086W        W 8030  15.092  15.190   3.190
44087W        W 8031   4.823   2.885   1.824
44088W        W 8032  35.934  40.848  14.482
44089W        W 8033   6.230   1.246   1.722
44090W        W 8034  30.061  39.475   1.295
44091W        W 8035  21.122  44.315  12.868
44092W        W 8036  41.423  27.477   0.262
44093W        W 8037  33.386  13.780  13.480
44094W        W 8038  36.959  35.581   2.812
44095W        W 8039   2.804  34.868   1.928
44096W        W 8040  11.835   9.745  14.769
44097W        W 8041   0.914  19.695  14.301
44098W        W 8042  37.437   2.966  12.473
44099W        W 8043  38.895   1.857  12.015
44100W        W 8044  41.798   5.414  14.818
44101W        W 8045  26.032   1.423  11.500
44102W        W 8046  32.129   7.754  13.895
44103W        W 8047  19.066   8.747   1.872
44104W        W 8048  36.050   1.382   3.782
44105W        W 8049  41.976   4.703  11.535
44106W        W 8050  17.781   7.692   2.896
44107W        W 8051  29.077  40.541   0.815
44108W        W 8052   8.240   2.411   2.364
44109W        W 8053  17.676  19.650  14.004
44110W        W 8054  29.585   7.256  10.094
44111W        W 8055  37.037  36.845   1.697
44112W        W 8056  42.903  42.329   1.378
44113W        W 8057  35.574  34.491  14.965
44114W        W 8058  44.823  10.661   3.730
44115W        W 8059  27.663   2.423  14.446
44116W        W 8060  37.846  12.718  13.839
44117W        W 8061  25.974  43.276  14.331
44118W        W 8062  16.620  32.013  10.023
44119W        W 8063   6.403  25.607  13.371
44120W        W 8064  22.236  24.492  13.939
44121W        W 8065   2.302  29.922  13.792
44122W        W 8066  15.178  34.943  11.390
44123W        W 8067  44.360  39.531   4.344
44124W        W 8068  17.633  26.028  14.859
44125W        W 8069  37.362  33.108  13.998
44126W        W 8070  34.041  16.643  10.581
44127W        W 8071  19.046   2.778  14.973
44128W        W 8072  11.360  18.716  11.458
44129W        W 8073  25.543  19.549  14.306
44130W        W 8074  23.679  30.942  10.521
44131W        W 8075  29.545  41.511   3.234
44132W        W 8076  34.412  38.350   2.353
44133W        W 8077  37.033  11.324  12.346
44134W        W 8078   3.424  35.453  13.817
44135W        W 8079  24.667   1.880   4.770
44136W        W 8080  35.458  29.429   1.423
44137W        W 8081  22.196  27.980  13.057
44138W        W 8082  12.692  20.072   4.788
44139W        W 8083   3.794  44.919  14.974
44140W        W 8084  14.662  40.996   4.779
44141W        W 8085   0.439  16.799  12.034
44142W        W 8086  23.663  22.519  11.993
44143W        W 8087   1.734  12.314  12.484
44144W        W 8088  11.731  17.797   9.920
44145W        W 8089  36.853  23.109  10.581
44146W        W 8090  12.315   0.249  14.352
44147W        W 8091  27.004  34.530  12.829
44148W        W 8092   2.765  24.639  12.070
44149W        W 8093   3.221  20.143  11.924
44150W        W 8094  22.676  25.113   0.465
44151W        W 8095  14.777  16.125  10.634
44152W        W 8096  42.957  43.948  12.356
44153W        W 8097  12.728  28.943  14.787
44154W        W 8098  35.457  34.948   4.680
44155W        W 8099  15.681  22.230   4.343
44156W        W 8100   1.767  25.563  11.061
44157W        W 8101  38.050  26.655   2.282
44158W        W 8102  33.583  12.835  11.896
44159W        W 8103  34.562  30.116   4.276
44160W        W 8104  29.060   6.206   1.873
44161W        W 8105  24.012  19.742   0.910
44162W        W 8106  43.419  37.401   1.355
44163W        W 8107   5.714  41.364   3.272
44164W        W 8108  32.494   5.225   3.740
44165W        W 8109  17.749  42.309   4.222
44166W        W 8110  37.582  42.935   2.355
44167W        W 8111   2.255  41.455  10.005
44168W        W 8112  21.699   8.370   3.302
44169W        W 8113  27.086   3.370   3.851
44170W        W 8114  25.647  16.299   2.781
44171W        W 8115  37.952  44.982   2.707
44172W        W 8116  12.213  34.889   2.677
44173W        W 8117   4.856  16.735   4.627
44174W        W 8118  31.425  17.072   4.183
44175W        W 8119  31.971  13.312  12.973
44176W        W 8120  30.140  20.657   0.869
44177W        W 8121  35.459  26.674   3.322
44178W        W 8122  38.537   0.949   1.392
44179W        W 8123  22.129  24.104   3.660
44180W        W 8124  32.906  36.458  10.428
44181W        W 8125  24.228  31.564   3.273
44182W        W 8126  16.296  36.538   9.506
44183W        W 8127  43.919   0.328   1.711
44184W        W 8128  10.791  19.168  12.494
44185W        W 8129   6.715  13.111   3.688
44186W        W 8130  39.898  17.800  14.422
44187W        W 8131  16.210  10.828  13.053
44188W        W 8132  24.058   2.722   3.690
44189W        W 8133   3.944   5.283  11.912
44190W        W 8134  23.635   0.927  14.843
44191W        W 8135  44.498  40.339  11.033
44192W        W 8136  14.136   3.327  12.929
44193W        W 8137   6.797  36.853  14.491
44194W        W 8138   6.910  20.607  10.560
44195W        W 8139   2.891  33.442   2.842
44196W        W 8140  14.289  23.235  12.935
44197W        W 8141  30.575  19.237  11.515
44198W        W 8142  34.936  24.117   2.867
44199W        W 8143  15.651  36.973   1.832
44200W        W 8144   1.924   2.830  11.942
44201W        W 8145   5.349  21.650  11.036
44202W        W 8146   0.928  41.469  11.006
44203W        W 8147   7.192  19.220   0.968
44204W        W 8148  21.704  15.181   0.935
44205W        W 8149  37.527  26.700   4.818
44206W        W 8150  25.657  15.769  11.598
44207W        W 8151  30.589  36.504   1.272
44208W        W 8152   3.817  18.780   2.337
44209W        W 8153  12.245   3.365  13.423
44210W        W 8154  16.215  22.009   1.335
44211W        W 8155  23.000  20.192  14.765
44212W        W 8156  19.657  41.367  13.364
44213W        W 8157  33.029   5.327   2.391
44214W        W 8158  18.187  11.260   2.327
44215W        W 8159  43.358   0.773   0.423
44216W        W 8160  32.127  26.593   3.666
44217W        W 8161   2.407  37.389   4.733
44218W        W 8162   4.287  25.508   4.312
44219W        W 8163  21.204  10.203  14.861
44220W        W 8164  36.985   1.840  12.000
44221W        W 8165  39.044  41.330  13.879
44222W        W 8166  26.472   5.910   1.326
44223W        W 8167   0.384  36.593  11.886
44224W        W 8168   6.694   6.764   2.662
44225W        W 8169  13.314  26.014  14.002
44226W        W 8170   0.275   6.815   2.401
44227W        W 8171   2.767  25.074  12.388
44228W        W 8172  18.272   1.256   1.330
44229W        W 8173  18.611  40.445   3.164
44230W        W 8174  11.152  42.029  11.956
44231W        W 8175  44.937  33.465  14.404
44232W        W 8176  35.544  43.800  12.921
44233W        W 8177  29.089  39.555  14.419
44234W        W 8178  20.672  15.151   2.380
44235W        W 8179  30.468  36.966  14.012
44236W        W 8180  10.699  23.182  13.497
44237W        W 8181  30.610  39.318  10.607
44238W        W 8182  15.655  11.734  10.547
44239W        W 8183  22.213  21.709  10.630
44240W        W 8184  35.095  36.528  10.484
44241W        W 8185  26.593  38.998   2.389
44242W        W 8186   0.375  29.016   4.749
44243W        W 8187  14.818   2.769   1.764
44244W        W 8188  24.218  35.475  14.497
44245W        W 8189   4.371  28.971   0.415
44246W        W 8190   2.735  41.459   4.643
44247W        W 8191  27.980   6.874   1.811
44248W        W 8192  23.239  32.619  11.107
44249W        W 8193  27.648  44.479  14.354
44250W        W 8194  44.873  31.489  14.451
44251W        W 8195   3.263  41.838  13.915
44252W        W 8196  34.502  12.338   3.764
44253W        W 8197  31.980  29.616  12.927
44254W        W 8198   4.779  11.249  12.560
44255W        W 8199   5.241  22.043   3.736
44256W        W 8200  35.915  31.413   2.213
44257W        W 8201  11.723  32.569  12.860
44258W        W 8202  35.964  39.314   2.373
44259W        W 8203  11.831  41.438   1.765
44260W        W 8204   2.782  28.586   2.702
44261W        W 8205   5.851  23.688   2.743
44262W        W 8206  26.179  30.952  13.309
44263W        W 8207  30.940  41.296  14.784
44264W        W 8208  25.551  23.682  11.857
44265W        W 8209   9.285  12.309  14.861
44266W        W 8210  37.991   0.983  13.486
44267W        W 8211  39.420  18.152   2.665
44268W        W 8212  10.644  12.346  12.982
44269W        W 8213  26.051   3.918  12.409
44270W        W 8214  44.001  13.750   0.913
44271W        W 8215  20.250  14.331  14.368
44272W        W 8216  17.269  28.061  13.948
44273W        W 8217  30.081  23.730  10.958
44274W        W 8218  28.498  13.655  12.409
44275W        W 8219  24.161  16.149  13.444
44276W        W 8220  42.789  28.175   2.697
44277W        W 8221  33.494   7.902   4.203
44278W        W 8222   5.420  39.520   4.836
44279W        W 8223  35.102   9.259  13.959
44280W        W 8224  23.586  33.507   1.863
44281W        W 8225  39.339  19.203   4.159
44282W        W 8226  13.621  29.423   0.250
44283W        W 8227  43.973   5.875  12.093
44284W        W 8228  41.382  25.621   3.666
44285W        W 8229   5.338  20.163  14.773
44286W        W 8230  27.489  14.793   9.534
44287W        W 8231  18.633  36.495  14.934
44288W        W 8232  22.568  29.130  11.966
44289W        W 8233   5.305  30.121   2.419
44290W        W 8234  27.991  36.462   1.291
44291W        W 8235  39.949  29.545   0.424
44292W        W 8236  10.231  14.123   2.727
44293W        W 8237  41.030  15.141  14.506
44294W        W 8238  34.001   5.388  11.449
44295W        W 8239  23.168   3.269   1.934
44296W        W 8240  28.011  38.369   4.130
44297W        W 8241   4.916  25.103  14.318
44298W        W 8242  23.125  32.408   4.186
44299W        W 8243  20.624  14.779  10.606
44300W        W 8244  17.189  35.939   0.280
44301W        W 8245  34.464  36.934  10.975
44302W        W 8246  32.525  16.795   3.356
44303W        W 8247  35.441  20.658  12.021
44304W        W 8248  27.144  43.295   0.884
44305W        W 8249   6.732  34.959  10.603
44306W        W 8250   9.738  18.122  14.439
44307W        W 8251  15.228  26.193  14.407
44308W        W 8252  37.447   6.352   1.341
44309W        W 8253   2.941   2.931   0.325
44310W        W 8254  29.169  24.177   0.835
44311W        W 8255  27.187   2.773  11.121
44312W        W 8256  23.577  10.319  14.944
44313W        W 8257  12.206  35.945   2.812
44314W        W 8258  14.302   0.393   9.574
44315W        W 8259  32.568  30.534   3.864
44316W        W 8260   5.866  27.594  11.869
44317W        W 8261  36.447   3.842   4.161
44318W        W 8262  27.046  23.699   4.788
44319W        W 8263  16.232  16.295  13.522
44320W        W 8264  43.766  27.099   0.303
44321W        W 8265   5.720  28.658  10.418
44322W        W 8266  41.973   5.830   3.259
44323W        W 8267  10.722   6.381  10.124
44324W        W 8268  15.689  29.483  11.066
44325W        W 8269  37.570  14.679   2.671
44326W        W 8270  35.953  44.500   2.241
44327W        W 8271  40.041  31.499  14.480
44328W        W 8272  35.096  36.546   4.295
44329W        W 8273  41.510  27.991   2.256
44330W        W 8274  34.892  38.507  11.990
44331W        W 8275  27.070  17.682   0.795
44332W        W 8276  21.718  29.155  13.997
44333W        W 8277  22.151  39.434   0.253
44334W        W 8278   4.336  24.148  13.395
44335W        W 8279  39.825  19.625  11.011
44336W        W 8280  10.282  11.280   1.801
44337W        W 8281   0.858  27.954   2.255
44338W        W 8282   5.381  19.772  11.393
44339W        W 8283  32.939   7.272  11.536
44340W        W 8284  27.038  20.723   0.331
44341W        W 8285  35.967  23.065   4.332
44342W        W 8286   4.422   0.485   1.814
44343W        W 8287  35.591  32.567  11.978
44344W        W 8288   3.728  20.573  13.832
44345W        W 8289  24.991   3.299  13.902
44346W        W 8290  31.147  34.522   2.315
44347W        W 8291  25.697  41.341   2.358
44348W        W 8292  34.376  24.115   0.360
44349W        W 8293  43.280  40.339   4.639
44350W        W 8294  40.458  14.197   2.702
44351W        W 8295  42.475  23.518   1.211
44352W        W 8296  10.640  29.011   0.281
44353W        W 8297  30.451  19.770   2.745
44354W        W 8298  31.010  10.287   9.976
44355W        W 8299  42.417   4.924   4.252
44356W        W 8300  27.058  31.138   2.666
44357W        W 8301   4.740   7.373   1.843
44358W        W 8302  38.833  19.653  14.411
44359W        W 8303  21.742  20.104  14.507
44360W        W 8304  27.947  18.786   4.722
44361W        W 8305  42.814  19.569  12.042
44362W        W 8306  28.527  22.056   2.380
44363W        W 8307  10.325  11.851   3.802
44364W        W 8308  10.762   7.721  13.460
44365W        W 8309  30.624   4.383  11.120
44366W        W 8310  36.498  11.635   2.880
44367W        W 8311  33.100  10.772  13.827
44368W        W 8312  41.363  29.982   4.695
44369W        W 8313  16.107  30.048   3.158
44370W        W 8314   4.822  15.262  10.142
44371W        W 8315   5.885  23.588  12.046
44372W        W 8316  43.776  36.099  12.015
44373W        W 8317   1.838  32.948  14.876
44374W        W 8318  44.817  20.631  10.932
44375W        W 8319  22.592  28.074   1.757
44376W        W 8320  17.213   5.218  14.331
44377W        W 8321  39.984   4.283  12.550
44378W        W 8322  17.558   3.850  13.346
44379W        W 8323   4.304  12.138   0.838
44380W        W 8324  31.925  10.719   0.474
44381W        W 8325  19.045  41.018  13.538
44382W        W 8326  20.748  31.970   2.833
44383W        W 8327  40.900  24.710   4.690
44384W        W 8328  36.996  29.574  12.909
44385W        W 8329  20.031   0.424   0.778
44386W        W 8330  44.471  34.578   4.638
44387W        W 8331   5.882  14.808   3.820
44388W        W 8332  37.456   0.768   3.224
44389W        W 8333  19.592  25.559  12.524
44390W        W 8334  41.947   7.199  10.017
44391W        W 8335  24.616   2.407  11.949
44392W        W 8336  33.536  24.043  10.123
44393W        W 8337  41.330  38.348   3.363
44394W        W 8338   3.267  27.196  14.787
44395W        W 8339   1.892  22.660   1.710
44396W        W 8340  38.969  34.532  13.529
44397W        W 8341   1.895   5.235   5.693
44398W        W 8342  19.590  20.054   4.205
44399W        W 8343   0.262  37.368   4.132
44400W        W 8344  10.828  28.651   4.135
44401W        W 8345  31.406  35.434  11.012
44402W        W 8346   5.249  35.963   2.327
44403W        W 8347   7.261   7.313  11.408
44404W        W 8348  35.516  24.019  14.793
44405W        W 8349   9.848  26.638   3.235
44406W        W 8350   7.336  24.627   4.735
44407W        W 8351  41.002  14.821   2.872
44408W        W 8352  14.688  18.667  12.839
44409W        W 8353  22.593  44.469  11.061
44410W        W 8354  10.704  10.190   2.863
44411W        W 8355  38.462  33.561   1.372
44412W        W 8356   4.932  21.657   4.822
44413W        W 8357  17.124  29.979  13.003
44414W        W 8358  21.533   2.368   0.456
44415W        W 8359   0.907  12.718  14.326
44416W        W 8360  15.222  29.436  13.984
44417W        W 8361  19.745  19.729   2.780
44418W        W 8362  35.930  29.942  11.935
44419W        W 8363  19.701   5.265   4.270
44420W        W 8364   2.461  35.010   2.863
44421W        W 8365   9.841  42.854   0.947
44422W        W 8366  43.399  28.042   0.825
44423W        W 8367  27.181   1.844   3.236
44424W        W 8368  18.260  25.498   2.744
44425W        W 8369  22.681  28.982   4.801
44426W        W 8370  32.416  10.776   0.263
44427W        W 8371  43.313   7.909   0.899
44428W        W 8372  40.045   9.815   2.887
44429W        W 8373   7.365  39.326  14.491
44430W        W 8374  26.665   5.395  14.891
44431W        W 8375   7.681  37.061   2.272
44432W        W 8376   6.870  40.460  14.309
44433W        W 8377  44.297  24.564  13.530
44434W        W 8378  32.600  43.481   4.302
44435W        W 8379  27.133  29.042  12.465
44436W        W 8380  43.797  41.393   0.826
44437W        W 8381  32.557   5.259   1.769
44438W        W 8382  38.831  24.516   0.926
44439W        W 8383   4.708  41.003  14.354
44440W        W 8384   3.293   3.398   3.698
44441W        W 8385  14.748   9.877  12.044
44442W        W 8386  24.701  29.970   2.796
44443W        W 8387   4.263  44.970  14.505
44444W        W 8388  32.472   6.873   4.707
44445W        W 8389  24.035   5.778  14.895
44446W        W 8390   1.350   2.874  11.938
44447W        W 8391  41.536  42.487   1.713
44448W        W 8392  12.183   3.781  11.915
44449W        W 8393  38.522   9.186  12.395
44450W        W 8394  26.629  36.975   2.827
44451W        W 8395  39.923   8.291   3.311
44452W        W 8396  12.214  18.699  13.877
44453W        W 8397  32.038  25.645   3.696
44454W        W 8398  12.620  26.613  14.318
44455W        W 8399  18.602  18.649  14.992
44456W        W 8400  41.032  38.864  14.302
44457W        W 8401  33.874  44.920  13.858
44458W        W 8402  38.849  24.722  12.981
44459W        W 8403   9.683  28.596  12.829
44460W        W 8404  20.769   5.373  14.471
44461W        W 8405  37.571  11.311  14.760
44462W        W 8406  24.551  39.963  10.505
44463W        W 8407   3.293  40.312   1.399
44464W        W 8408  28.074  10.865   0.876
44465W        W 8409   4.850   6.384   2.360
44466W        W 8410  21.036  36.990  13.547
44467W        W 8411  32.916  40.512  13.317
44468W        W 8412   9.701  38.892   3.324
44469W        W 8413   7.847  29.619   2.312
44470W        W 8414   1.924  13.125   1.439
44471W        W 8415  18.725   5.282   3.343
44472W        W 8416  32.892   6.408  14.452
44473W        W 8417  26.992  25.616   1.260
44474W        W 8418   8.657   1.263  12.074
44475W        W 8419  39.488  24.106   0.292
44476W        W 8420  40.373  12.753  13.960
44477W        W 8421  37.051  20.176  10.430
44478W        W 8422  43.455  16.225   2.683
44479W        W 8423   2.874   9.714  14.811
44480W        W 8424  29.521  18.785   3.861
44481W        W 8425  16.585  10.816   3.157
44482W        W 8426   8.290   2.353  11.561
44483W        W 8427  16.765  18.103  10.495
44484W        W 8428  23.200  35.538   0.345
44485W        W 8429   0.318  21.154   0.368
44486W        W 8430   3.929  35.978  12.360
44487W        W 8431  25.599  31.541   3.784
44488W        W 8432  27.192  15.677   0.801
44489W        W 8433  24.040  22.596  12.917
44490W        W 8434  36.497  16.171   4.687
44491W        W 8435  36.473  15.672  10.977
44492W        W 8436  30.940  12.674  10.116
44493W        W 8437  10.356  22.066   2.192
44494W        W 8438  17.691  12.208  12.356
44495W        W 8439   4.407   3.899   2.838
44496W        W 8440   1.471  15.303  13.402
44497W        W 8441  25.101  22.117   2.251
44498W        W 8442  34.924  21.088   2.233
44499W        W 8443  34.582  13.677  13.861
44500W        W 8444   0.835  36.024   0.465
44501W        W 8445   6.890  31.076   2.310
44502W        W 8446  17.138  27.044  14.903
44503W        W 8447   5.344  23.231  12.359
44504W        W 8448   4.237  39.871  11.474
44505W        W 8449  16.694   9.200  14.823
44506W        W 8450  16.609  27.086  13.885
44507W        W 8451  35.089   0.922   0.308
44508W        W 8452  26.601  39.965  11.039
44509W        W 8453  39.858  23.995  10.960
44510W        W 8454  15.761  24.003   1.255
44511W        W 8455  25.538  16.661   2.417
44512W        W 8456  37.977  43.934   0.319
44513W        W 8457  15.250  32.935   2.218
44514W        W 8458  31.037  19.046   2.262
44515W        W 8459  16.222  10.739   3.700
44516W        W 8460  10.807  12.815   2.266
44517W        W 8461   9.755   7.897  10.509
44518W        W 8462  10.694  13.740   3.297
44519W        W 8463   3.308  13.701   2.691
44520W        W 8464  10.228  21.034  13.438
44521W        W 8465  12.741  30.557   1.929
44522W        W 8466  23.086  28.174  11.089
44523W        W 8467   4.281  18.135  14.988
44524W        W 8468  16.296  20.698   0.397
44525W        W 8469  26.051  11.761  13.311
44526W        W 8470  34.983  38.952   1.291
44527W        W 8471  32.995  10.295   4.132
44528W        W 8472  11.163  36.082   3.693
44529W        W 8473  35.568  18.142  12.539
44530W        W 8474  22.168  17.571  11.454
44531W        W 8475   4.385  24.570  13.887
44532W        W 8476  32.603  31.642   4.233
44533W        W 8477  26.065  35.586  14.783
44534W        W 8478   9.193  37.374   3.633
44535W        W 8479  24.482  30.123   1.211
44536W        W 8480  26.104  24.539  13.898
44537W        W 8481  23.042   3.717   0.337
44538W        W 8482   3.816  29.575  13.039
44539W        W 8483  36.880  17.164   1.451
44540W        W 8484   9.246  11.792   2.841
44541W        W 8485   0.817  38.955  12.394
44542W        W 8486   9.274  13.766  11.389
44543W        W 8487  19.688   6.719  12.488
44544W        W 8488  30.460  33.442  12.495
44545W        W 8489  40.375  27.622   0.305
44546W        W 8490  28.156  41.851  14.982
44547W        W 8491  32.931  19.599   3.817
44548W        W 8492  29.025  28.607   1.700
44549W        W 8493  12.335   0.806   1.299
44550W        W 8494  24.697  32.031   2.366
44551W        W 8495   9.785  14.600   2.863
44552W        W 8496  21.142  17.736   4.211
44553W        W 8497   0.895  42.280  13.939
44554W        W 8498   5.437  23.643   1.446
44555W        W 8499  42.861  27.974  10.578
44556W        W 8500  18.174  27.124   0.733
44557W        W 8501   8.165  10.737   4.201
44558W        W 8502  15.807  15.220   4.802
44559W        W 8503   6.222  25.616  11.972
44560W        W 8504   0.869  23.129  13.931
44561W        W 8505  35.056  28.156  13.836
44562W        W 8506  34.092   2.239   3.313
44563W        W 8507  31.595  18.740   0.429
44564W        W 8508  16.691  43.499   4.678
44565W        W 8509  29.615   4.875  14.810
44566W        W 8510  21.261  13.138   2.283
44567W        W 8511  13.225  12.199   0.903
44568W        W 8512  23.668  38.963   4.199
44569W        W 8513  36.540  25.209  13.336
44570W        W 8514  43.882  24.992  12.045
44571W        W 8515  31.555  39.345   0.936
44572W        W 8516  22.197   9.833   3.680
44573W        W 8517  41.520  35.602   1.836
44574W        W 8518  30.993   9.323  10.443
44575W        W 8519  31.145  25.176   9.957
44576W        W 8520  21.580  44.969  11.541
44577W        W 8521  10.279  39.998  10.555
44578W        W 8522   1.877  30.473  11.047
44579W        W 8523  30.635  18.225  14.919
44580W        W 8524   4.888  11.850  10.436
44581W        W 8525  39.042  33.387   3.752
44582W        W 8526  27.681  23.585  12.013
44583W        W 8527  13.348  15.237  12.075
44584W        W 8528   6.744  27.099  10.597
44585W        W 8529   0.898  18.620  12.044
44586W        W 8530  25.516  41.915   0.285
44587W        W 8531   5.834  11.163   1.355
44588W        W 8532  15.291  19.583   2.222
44589W        W 8533  32.930   4.369   4.134
44590W        W 8534  24.666  38.352  11.468
44591W        W 8535  26.164  27.574  11.577
44592W        W 8536  28.164  42.379  11.121
44593W        W 8537  39.915  16.609   1.705
44594W        W 8538  43.892   4.374   2.675
44595W        W 8539   4.746  33.082   4.129
44596W        W 8540  29.943   4.355   2.717
44597W        W 8541  26.182  17.183  13.004
44598W        W 8542  30.425  31.469  11.894
44599W        W 8543   9.388  11.706  10.556
44600W        W 8544   6.249  19.131   4.293
44601W        W 8545  26.597  29.051   0.780
44602W        W 8546   0.452   9.758  12.417
44603W        W 8547  40.886  34.055  10.639
44604W        W 8548  40.899  27.602  14.492
44605W        W 8549  42.885   9.333   1.714
44606W        W 8550  15.584  35.551  11.601
44607W        W 8551  31.018   5.424   2.376
44608W        W 8552   5.434   7.413   9.980
44609W        W 8553  39.399  37.852   2.391
44610W        W 8554  14.259  26.071   2.230
44611W        W 8555  43.978  42.801  14.954
44612W        W 8556  42.995  23.041  14.917
44613W        W 8557  12.338   6.268  10.616
44614W        W 8558  15.642   4.729   1.236
44615W        W 8559  24.519  22.503   0.470
44616W        W 8560  23.042  40.372  11.951
44617W        W 8561  36.516  41.499   4.757
44618W        W 8562  11.287  19.145   4.773
44619W        W 8563  30.546  24.183   2.710
44620W        W 8564  27.570  25.566  11.528
44621W        W 8565   2.403   7.316   2.791
44622W        W 8566   3.919  14.718   3.281
44623W        W 8567   8.370  25.545  12.401
44624W        W 8568   1.474   2.950  14.885
44625W        W 8569   2.809  24.690   2.671
44626W        W 8570  19.203  23.106  11.374
44627W        W 8571  11.825  24.088   5.280
44628W        W 8572  36.430  41.319  10.561
44629W        W 8573  14.234  17.093   4.139
44630W        W 8574  29.972  28.623   2.715
44631W        W 8575  33.440  44.389  14.322
44632W        W 8576   4.293  29.961   0.262
44633W        W 8577  27.183  18.782  12.038
44634W        W 8578  17.794  42.487  11.550
44635W        W 8579  44.347   4.218   2.807
44636W        W 8580   2.240  24.539  14.868
44637W        W 8581  33.880  18.195   1.726
44638W        W 8582  24.121  32.940  11.948
44639W        W 8583  44.922  39.979   2.839
44640W        W 8584  41.867  13.635   3.748
44641W        W 8585  27.615  25.714  10.476
44642W        W 8586  34.613  16.807  12.532
44643W        W 8587  24.555   8.807  11.009
44644W        W 8588  17.237  33.124  11.126
44645W        W 8589  11.856   4.791   0.800
44646W        W 8590   4.772  19.186  13.950
44647W        W 8591  39.905  21.058   4.743
44648W        W 8592  16.120   1.803   0.410
44649W        W 8593  33.591  39.853   5.288
44650W        W 8594  18.243  30.123   1.701
44651W        W 8595  41.449  10.646  10.529
44652W        W 8596  22.238   7.721  13.961
44653W        W 8597  26.042  33.120  13.826
44654W        W 8598  35.911  11.816  13.487
44655W        W 8599  39.378  21.251   2.205
44656W        W 8600   2.764  31.961   1.297
44657W        W 8601  23.141   2.312   3.845
44658W        W 8602   1.295  11.290  10.476
44659W        W 8603  38.886  23.131   4.757
44660W        W 8604   1.262  21.580   2.268
44661W        W 8605   8.316   2.345   2.765
44662W        W 8606  33.592  18.118   1.916
44663W        W 8607   2.318  29.093   2.682
44664W        W 8608  34.910  20.184   4.326
44665W        W 8609  15.651  33.516   4.189
44666W        W 8610  29.545  36.356  13.027
44667W        W 8611  31.532  21.742   2.249
44668W        W 8612  26.005  22.707   3.363
44669W        W 8613   7.683   3.773   1.861
44670W        W 8614  21.029  44.275   2.293
44671W        W 8615   1.926  24.148   5.272
44672W        W 8616  41.936  23.545   3.764
44673W        W 8617  12.693   7.350   4.713
44674W        W 8618   5.785  23.000   1.370
44675W        W 8619   2.388  17.110   2.773
44676W        W 8620  39.485  13.202  14.787
44677W        W 8621   8.881  35.006  13.366
44678W        W 8622  10.835  28.434   1.239
44679W        W 8623  43.953  15.264  14.382
44680W        W 8624   6.374   6.728  14.880
44681W        W 8625  34.926   4.292  14.794
44682W        W 8626  20.272  43.770  11.889
44683W        W 8627  42.883   4.871  10.949
44684W        W 8628  37.031  27.609  13.896
44685W        W 8629  41.919  16.770  10.889
44686W        W 8630   5.328  29.117   0.305
44687W        W 8631  39.890  25.608  12.403
44688W        W 8632  19.603  14.161  13.991
44689W        W 8633  22.251  24.491   4.681
44690W        W 8634  29.593  18.269  13.366
44691W        W 8635  41.888  16.149   4.736
44692W        W 8636  25.540  10.638   0.770
44693W        W 8637  18.582  32.446  12.883
44694W        W 8638  13.723  33.116   1.700
44695W        W 8639  33.530  44.813  14.936
44696W        W 8640  36.905  41.374   4.207
44697W        W 8641  16.259  29.499  13.430
44698W        W 8642  20.766  44.437   4.610
44699W        W 8643  35.931  34.403  12.451
44700W        W 8644   1.474  10.320  11.515
44701W        W 8645   3.428  25.096  13.841
44702W        W 8646  34.048  19.533   2.314
44703W        W 8647  13.303  43.008   1.217
44704W        W 8648  23.123  24.130  10.409
44705W        W 8649  25.553   7.790  11.479
44706W        W 8650  32.995  26.461   4.802
44707W        W 8651  42.400  37.947  13.970
44708W        W 8652   1.446  33.993  11.931
44709W        W 8653  44.925  38.369  13.499
44710W        W 8654  28.459  35.530  11.483
44711W        W 8655  21.182  21.669   4.713
44712W        W 8656  39.425  10.215   4.314
44713W        W 8657  19.267   5.349  11.557
44714W        W 8658  21.527  29.167  13.516
44715W        W 8659  20.523  26.542   1.237
44716W        W 8660  26.590  12.780  10.461
44717W        W 8661  26.664  28.442   0.926
44718W        W 8662   0.903  11.725  11.891
44719W        W 8663   4.778  19.654  14.399
44720W        W 8664  23.180  23.239   3.333
44721W        W 8665   9.392   3.889  12.842
44722W        W 8666  17.158  39.486   3.378
44723W        W 8667  37.860  17.685   1.411
44724W        W 8668   8.757  41.446   3.355
44725W        W 8669   8.889  38.863  11.936
44726W        W 8670  31.513  32.041  13.904
44727W        W 8671  41.842  16.125  10.971
44728W        W 8672  17.595  39.478   1.849
44729W        W 8673   2.347  35.589   1.933
44730W        W 8674  11.660  43.287  14.459
44731W        W 8675  36.547  28.440   0.771
44732W        W 8676   2.732  26.058  13.940
44733W        W 8677  15.145   9.668  12.532
44734W        W 8678  41.837  41.021   0.300
44735W        W 8679   5.438  43.374   2.363
44736W        W 8680  10.647  27.090  13.351
44737W        W 8681  34.071  32.057  14.276
44738W        W 8682  29.474  39.432   4.701
44739W        W 8683  24.092  44.298   3.258
44740W        W 8684  41.849  14.607   2.205
44741W        W 8685   9.343   4.426   3.705
44742W        W 8686  38.899  15.265  12.952
44743W        W 8687  11.731  10.810  14.961
44744W        W 8688  17.128  35.517  14.498
44745W        W 8689  26.135   8.711   0.884
44746W        W 8690  44.304   6.863   4.206
44747W        W 8691  15.315   5.371  14.774
44748W        W 8692  28.622  39.516  12.417
44749W        W 8693  43.851  34.507  13.474
44750W        W 8694  34.494  14.326  13.020
44751W        W 8695  29.432  32.635  14.353
44752W        W 8696  34.947  18.730   0.911
44753W        W 8697  34.963  16.677  14.931
44754W        W 8698  34.601  26.100  13.853
44755W        W 8699  30.132  14.194   5.092
44756W        W 8700   1.933   4.374  14.389
44757W        W 8701  39.940  31.085   4.727
44758W        W 8702  22.046  12.118  13.496
44759W        W 8703  41.974  18.110   4.147
44760W        W 8704  12.207  39.336  11.075
44761W        W 8705  18.774  11.833  12.443
44762W        W 8706  10.230  44.766   9.964
44763W        W 8707  38.434   1.350   3.193
44764W        W 8708  36.989  21.087   0.842
44765W        W 8709  21.056  23.068   4.228
44766W        W 8710  34.920  29.947  12.891
44767W        W 8711  14.281   4.241  10.570
44768W        W 8712  35.919  29.963   3.766
44769W        W 8713  11.631  29.171   3.164
44770W        W 8714  32.398  12.728  12.348
44771W        W 8715  41.428  19.548   0.934
44772W        W 8716  12.314  32.953   2.280
44773W        W 8717   3.745  34.094   4.599
44774W        W 8718   9.241  16.241  13.848
44775W        W 8719   6.275  12.208   0.288
44776W        W 8720   1.785  34.106  10.439
44777W        W 8721  12.352  10.656  12.027
44778W        W 8722  30.639  22.151  12.069
44779W        W 8723   5.431  36.376  13.531
44780W        W 8724  27.624   4.743  13.507
44781W        W 8725  31.401  43.428  14.501
44782W        W 8726  38.062  44.377   1.252
44783W        W 8727   2.352  44.803   2.860
44784W        W 8728  14.187  20.586   1.331
44785W        W 8729   1.461  31.034   3.836
44786W        W 8730   1.855  34.098  12.364
44787W        W 8731   0.354  32.071  13.053
44788W        W 8732  32.631  30.505  14.382
44789W        W 8733  19.218   7.743   2.201
44790W        W 8734  12.217  44.010  10.608
44791W        W 8735  34.556  39.962   3.756
44792W        W 8736  19.694   0.760  12.883
44793W        W 8737  28.488  26.063  10.986
44794W        W 8738   2.444  31.558   0.931
44795W        W 8739  26.549   2.232   1.799
44796W        W 8740  11.234  12.785   4.728
44797W        W 8741  25.615  35.867  11.451
44798W        W 8742   3.784  30.629   0.829
44799W        W 8743   3.324  20.662  11.880
44800W        W 8744  18.084  14.164  14.468
44801W        W 8745  24.150  36.403  14.364
44802W        W 8746  24.208  13.652  12.869
44803W        W 8747  17.764  16.190   3.653
44804W        W 8748  15.681   8.322  14.489
44805W        W 8749   8.248  20.681   1.935
44806W        W 8750  20.708  29.058  10.976
44807W        W 8751  17.245  19.074  12.364
44808W        W 8752  28.164   2.731  14.909
44809W        W 8753  35.947  42.986   0.408
44810W        W 8754  28.148  23.699  14.774
44811W        W 8755  34.007  14.238   3.366
44812W        W 8756  19.270   1.802   4.655
44813W        W 8757  24.709  14.286   4.234
44814W        W 8758   4.945  27.641  14.905
44815W        W 8759  39.321  24.523  14.025
44816W        W 8760  25.526   6.356   1.371
44817W        W 8761  37.993  19.539   5.236
44818W        W 8762  35.962  16.115  14.442
44819W        W 8763  36.019   3.922  13.465
44820W        W 8764  17.247  34.582   3.724
44821W        W 8765  13.748  14.661   2.857
44822W        W 8766  41.033  34.483  12.881
44823W        W 8767  10.667  13.641  13.834
44824W        W 8768  32.429  30.034   0.405
44825W        W 8769   1.812   6.769  11.078
44826W        W 8770  24.564   8.754   2.234
44827W        W 8771  42.487  36.941   0.349
44828W        W 8772  30.424   3.411  14.303
44829W        W 8773  35.874  15.619  12.395
44830W        W 8774   0.439  42.029   4.296
44831W        W 8775  18.179  38.891   4.254
44832W        W 8776  20.550  13.129  11.986
44833W        W 8777  37.484  22.535  11.078
44834W        W 8778  31.931  20.691   3.335
44835W        W 8779  42.363   8.296   4.608
44836W        W 8780  37.033  33.607   3.269
44837W        W 8781  40.897  32.409  13.458
44838W        W 8782  37.547  12.818  10.643
44839W        W 8783  13.765   7.407   0.745
44840W        W 8784  28.032  18.195   2.718
44841W        W 8785  44.333  34.607   1.348
44842W        W 8786  28.979   5.719  14.885
44843W        W 8787  42.293  32.945  11.890
44844W        W 8788  41.449  15.083  12.343
44845W        W 8789   1.412  29.105   3.170
44846W        W 8790  31.407  28.445   0.437
44847W        W 8791  28.949  32.635   3.148
44848W        W 8792   6.792  34.114  10.490
44849W        W 8793  42.868  27.476   4.830
44850W        W 8794  43.906  16.223  10.633
44851W        W 8795  25.055  37.444  10.971
44852W        W 8796   8.796   3.452   2.296
44853W        W 8797  20.543  35.963   3.257
44854W        W 8798  23.726  42.343  13.005
44855W        W 8799  40.872  43.348  14.857
44856W        W 8800   9.175  33.440  11.024
44857W        W 8801  22.534  19.550   3.692
44858W        W 8802  31.442  29.110  10.963
44859W        W 8803  40.470  43.395   3.662
44860W        W 8804  36.065  41.927   2.801
44861W        W 8805  17.092  28.478   4.800
44862W        W 8806  38.893  15.247   4.815
44863W        W 8807   5.727  41.340   1.399
44864W        W 8808   8.700  26.115   1.284
44865W        W 8809  35.476   0.912   0.935
44866W        W 8810  31.908  28.463   0.929
44867W        W 8811  20.036   9.318   3.332
44868W        W 8812  33.620  40.391   5.312
44869W        W 8813   1.882  44.971  13.040
44870W        W 8814   3.782  27.044   0.741
44871W        W 8815   6.239   3.233   4.337
44872W        W 8816  39.976  38.052  10.429
44873W        W 8817  17.746  27.582   2.809
44874W        W 8818   1.351  44.367   4.213
44875W        W 8819  30.579  14.213   0.748
44876W        W 8820  13.131  14.692   0.319
44877W        W 8821  20.060   0.935  13.338
44878W        W 8822   1.446  30.015  14.947
44879W        W 8823  23.715   2.375  14.889
44880W        W 8824  44.918  43.927   3.336
44881W        W 8825   2.294   0.282  14.411
44882W        W 8826  21.560  34.406   2.881
44883W        W 8827   1.798   0.386  10.456
44884W        W 8828  38.989  31.076   4.722
44885W        W 8829   6.275   2.254   2.332
44886W        W 8830  17.131  27.683   3.325
44887W        W 8831  11.279   4.923   1.444
44888W        W 8832   7.865   5.305  10.928
44889W        W 8833  36.593  12.289   4.728
44890W        W 8834  20.602  28.442  13.337
44891W        W 8835  43.947  13.611   3.355
44892W        W 8836  24.077  13.209   3.684
44893W        W 8837  42.390   1.425   0.253
44894W        W 8838   2.865  34.555   1.295
44895W        W 8839  28.033  13.182  11.541
44896W        W 8840   7.706   0.774   4.799
44897W        W 8841   0.344  33.043   4.234
44898W        W 8842  40.373  24.613  10.964
44899W        W 8843   9.696   8.883  14.809
44900W        W 8844  29.638  19.107  10.476
44901W        W 8845  15.094  10.221  11.031
44902W        W 8846   3.809  33.093  11.937
44903W        W 8847  39.059  38.076   0.290
44904W        W 8848  10.672  30.009   1.837
44905W        W 8849  11.740   5.799  12.004
44906W        W 8850  43.469  14.118   3.349
44907W        W 8851  12.135  34.119  12.556
44908W        W 8852  29.426  38.329   3.374
44909W        W 8853  22.657  27.084  11.563
44910W        W 8854   9.845   2.778   2.748
44911W        W 8855   5.365  39.373   1.748
44912W        W 8856  22.627  42.426  12.914
44913W        W 8857  36.060  39.872   4.242
44914W        W 8858   1.808  16.741   3.869
44915W        W 8859  21.611  14.127  11.372
44916W        W 8860  30.911  44.331  12.018
44917W        W 8861  29.569  29.930  10.630
44918W        W 8862  27.658  15.253   3.330
44919W        W 8863  35.603  34.077   2.832
44920W        W 8864   3.422   8.398  12.540
44921W        W 8865  41.996  28.492  13.961
44922W        W 8866  11.726  41.505   4.761
44923W        W 8867  22.552  17.688   0.441
44924W        W 8868  42.837  13.277  13.423
44925W        W 8869  42.452  29.979   4.603
44926W        W 8870  13.619  14.747  11.878
44927W        W 8871  25.014  33.538  14.771
44928W        W 8872  27.037  13.337  14.962
44929W        W 8873   5.857   8.243   2.187
44930W        W 8874  33.583   2.734  11.453
44931W        W 8875  28.037  19.671   1.324
44932W        W 8876   3.819  23.731  12.351
44933W        W 8877  14.306  36.084   2.399
44934W        W 8878  18.181  34.465  13.898
44935W        W 8879  33.951  33.107  11.985
44936W        W 8880   6.679   8.173  13.351
44937W        W 8881  34.517  13.727  11.901
44938W        W 8882  32.935   2.292  11.883
44939W        W 8883   0.491  10.693   4.752
44940W        W 8884  15.667   8.681  12.381
44941W        W 8885   8.718   5.313  13.993
44942W        W 8886  40.908  37.559  12.491
44943W        W 8887  35.976  38.358   1.305
44944W        W 8888  37.962   3.877   4.160
44945W        W 8889  19.741  18.110  11.602
44946W        W 8890  13.332  18.177   5.261
44947W        W 8891  28.978  42.338  14.959
44948W        W 8892  28.988  19.125  12.874
44949W        W 8893  35.485  40.882  11.519
44950W        W 8894  36.904  33.501  13.524
44951W        W 8895  37.532  18.583   0.777
44952W        W 8896  30.089  24.666   1.442
44953W        W 8897   6.253  36.998   0.854
44954W        W 8898  29.564  28.086   5.153
44955W        W 8899   4.762  23.058   3.645
44956W        W 8900   8.395   4.721   0.861
44957W        W 8901  26.615  11.294   1.393
44958W        W 8902  12.282   3.854   4.113
44959W        W 8903  19.041  26.642  13.891
44960W        W 8904   0.855   5.747   2.775
44961W        W 8905  42.946  33.889   3.315
44962W        W 8906  35.081  40.521   0.730
44963W        W 8907  15.135  28.651  12.554
44964W        W 8908  40.322   7.340   1.934
44965W        W 8909  17.182  13.735  10.122
44966W        W 8910  15.616  40.837   4.823
44967W        W 8911  25.165  10.692  11.061
44968W        W 8912  22.213  32.042  11.482
44969W        W 8913  23.227   4.835   2.890
44970W        W 8914  33.880  13.612  12.339
44971W        W 8915  27.027  30.025  14.792
44972W        W 8916  21.604  35.019   4.276
44973W        W 8917  27.643  17.590   2.367
44974W        W 8918  18.279   7.213   0.956
44975W        W 8919  10.684   8.379   0.880
44976W        W 8920   7.862  32.089  14.872
44977W        W 8921  31.445  19.556   3.833
44978W        W 8922  17.592   1.396   4.625
44979W        W 8923  18.255   0.823  13.403
44980W        W 8924  28.032  28.094  14.476
44981W        W 8925  36.048   7.841  13.978
44982W        W 8926  31.124   7.811   0.811
44983W        W 8927  38.328  40.420  11.046
44984W        W 8928  24.633  11.716   0.733
44985W        W 8929  19.684   5.843   3.218
44986W        W 8930  21.658  27.096   2.849
44987W        W 8931  11.779  16.677  11.864
44988W        W 8932  21.167   1.740  14.924
44989W        W 8933   6.855  36.419   2.884
44990W        W 8934  43.498  14.160  11.103
44991W        W 8935   5.736  30.914   0.859
44992W        W 8936  12.270  15.729   3.728
44993W        W 8937  27.063   1.964  12.434
44994W        W 8938  29.595  19.757   3.342
44995W        W 8939  41.845   8.848  13.874
44996W        W 8940  15.199  22.131   2.799
44997W        W 8941  41.411  41.938   4.726
44998W        W 8942  13.156   0.852  13.450
44999W        W 8943  27.138  40.054   3.274
45000W        W 8944  36.905  15.197   1.380
45001W        W 8945   7.684  37.834  14.390
45002W        W 8946   8.347  28.047  12.464
45003W        W 8947  33.915   3.341   2.394
45004W        W 8948  40.014   6.361  12.010
45005W        W 8949   0.936   7.842  13.060
45006W        W 8950  12.299  10.741  14.861
45007W        W 8951  14.268   4.782   1.837
45008W        W 8952  32.512   8.725  13.444
45009W        W 8953  27.138  25.057   1.885
45010W        W 8954  42.302   0.836   2.689
45011W        W 8955  37.497  14.284   4.747
45012W        W 8956   6.757   8.161  10.597
45013W        W 8957  18.245   4.772   0.854
45014W        W 8958  19.557  20.252   1.862
45015W        W 8959  23.498  14.337  10.469
45016W        W 8960  18.622  34.540   1.375
45017W        W 8961  33.560  14.199  11.925
45018W        W 8962   9.862  15.667   1.420
45019W        W 8963  19.120  16.162  14.294
45020W        W 8964   2.872  33.937   0.781
45021W        W 8965  26.462  19.216  10.905
45022W        W 8966  20.765  10.765   4.710
45023W        W 8967  37.037  43.978  13.323
45024W        W 8968   8.788  40.885   4.788
45025W        W 8969  12.311  17.603   1.298
45026W        W 8970  20.693  20.034  12.371
45027W        W 8971   7.861  30.093   9.997
45028W        W 8972  38.869  30.912   1.735
45029W        W 8973   3.422   6.724   0.477
45030W        W 8974  39.495  20.571   0.822
45031W        W 8975  13.170  15.260   4.224
45032W        W 8976  30.615  40.514   0.273
45033W        W 8977  38.428  44.362   1.715
45034W        W 8978  13.808   4.878  14.766
45035W        W 8979  34.420  30.634  10.481
45036W        W 8980  38.390   3.453   0.408
45037W        W 8981   2.789  44.960   2.404
45038W        W 8982  11.348  22.743   2.690
45039W        W 8983  16.781   9.801   1.415
45040W        W 8984  36.025   4.372   4.149
45041W        W 8985  11.795  30.000  11.540
45042W        W 8986  27.189  27.453  14.796
45043W        W 8987  35.473   5.381  14.471
45044W        W 8988  23.650   3.838   2.671
45045W        W 8989   6.307  29.145  13.497
45046W        W 8990  33.442   2.947   2.207
45047W        W 8991  21.687  33.108  14.911
45048W        W 8992  36.567  25.544   4.630
45049W        W 8993  26.157  22.509  11.962
45050W        W 8994  37.850  27.494   0.784
45051W        W 8995  18.554  43.011   2.355
45052W        W 8996  37.566  39.869  13.063
45053W        W 8997  28.550  32.037   1.368
45054W        W 8998   4.388  40.973   3.799
45055W        W 8999  29.072  31.077  14.334
45056W        W 9000  21.535   1.446  12.078
45057W        W 9001  10.309  41.035  11.865
45058W        W 9002  30.107  13.240  10.953
45059W        W 9003  15.737  17.680   3.260
45060W        W 9004   3.410  13.835   4.306
45061W        W 9005  26.559   8.787  10.543
45062W        W 9006  29.576   5.435   1.906
45063W        W 9007   0.784  34.966  10.053
45064W        W 9008  38.991  19.225  14.900
45065W        W 9009  35.950  31.954   3.196
45066W        W 9010  28.472   1.893  12.489
45067W        W 9011  41.471  14.800   3.709
45068W        W 9012   0.428  23.522  11.535
45069W        W 9013   7.359  24.140  12.861
45070W        W 9014   9.854  27.060   4.773
45071W        W 9015  43.277  37.550   2.183
45072W        W 9016  13.670  28.617   1.216
45073W        W 9017  12.352  14.619  14.379
45074W        W 9018   5.730  26.476  11.956
45075W        W 9019  24.118  41.329   0.892
45076W        W 9020  15.161  23.210  14.835
45077W        W 9021  12.167  16.204  10.451
45078W        W 9022  41.810  34.924   4.315
45079W        W 9023   6.723  17.273  13.527
45080W        W 9024  18.671  20.034  12.869
45081W        W 9025   1.880  19.263   2.200
45082W        W 9026  15.132  14.634   4.352
45083W        W 9027  19.099  31.424   2.719
45084W        W 9028  24.677  26.146  12.432
45085W        W 9029  21.252  16.807   2.184
45086W        W 9030  43.321  39.019   3.199
45087W        W 9031  38.838   5.772   2.755
45088W        W 9032  44.262  43.948   3.749
45089W        W 9033   5.898   8.721   1.418
45090W        W 9034  39.938  21.662  10.422
45091W        W 9035  13.108  10.286   0.483
45092W        W 9036  23.110  23.651  13.992
45093W        W 9037  44.830   1.767   4.196
45094W        W 9038  15.797  31.600   4.230
45095W        W 9039   6.807   6.864  10.893
45096W        W 9040   2.411  41.038   4.248
45097W        W 9041  27.585   4.823  13.966
45098W        W 9042  16.660  21.169   4.300
45099W        W 9043  11.684  37.386   0.890
45100W        W 9044  32.972  10.304  10.641
45101W        W 9045   7.352  34.112  14.913
45102W        W 9046   0.921  15.127   0.807
45103W        W 9047  43.447  13.240   4.696
45104W        W 9048  37.934  44.387  14.808
45105W        W 9049  22.220  41.888   2.731
45106W        W 9050  26.145  36.899   3.719
45107W        W 9051  12.820  33.605  14.845
45108W        W 9052   2.844  20.642  13.448
45109W        W 9053  15.153  23.681   3.274
45110W        W 9054  22.703  40.414   4.654
45111W        W 9055   9.163   5.395   2.857
45112W        W 9056  41.308  28.447   3.811
45113W        W 9057  38.534  40.327   4.347
45114W        W 9058  43.318   0.768   1.441
45115W        W 9059  38.516  13.807  11.114
45116W        W 9060  12.354   2.953   2.757
45117W        W 9061  21.720  19.208   0.833
45118W        W 9062  19.226   9.188   3.327
45119W        W 9063  12.767  37.466   4.783
45120W        W 9064  23.022  36.419  13.807
45121W        W 9065   3.265  20.744  12.947
45122W        W 9066  20.646  28.575  12.927
45123W        W 9067   5.909  41.347  11.021
45124W        W 9068   0.813  21.183  12.904
45125W        W 9069  41.445  44.884   2.870
45126W        W 9070   9.704  39.342  10.495
45127W        W 9071   6.240  24.709  12.882
45128W        W 9072  25.566  27.550   0.345
45129W        W 9073  21.530  23.187  10.435
45130W        W 9074  13.607  22.130   2.816
45131W        W 9075  40.367  25.670  10.459
45132W        W 9076  32.511  44.996   1.904
45133W        W 9077  20.675  16.169   2.710
45134W        W 9078   5.693  28.111  11.587
45135W        W 9079  29.503  10.648  13.063
45136W        W 9080  27.977  41.467   2.304
45137W        W 9081  25.599  42.831  13.507
45138W        W 9082   9.336  19.653  12.950
45139W        W 9083   2.855  16.767  10.552
45140W        W 9084  20.258   4.271   1.395
45141W        W 9085  20.538  18.721  14.947
45142W        W 9086  19.727  40.967  14.279
45143W        W 9087  40.492  13.271   2.261
45144W        W 9088  10.855  11.350   0.462
45145W        W 9089  21.102  36.398   2.344
45146W        W 9090  27.160  11.144   4.791
45147W        W 9091  40.909  27.976   2.280
45148W        W 9092  22.053  35.988  10.507
45149W        W 9093   4.878   2.348   2.885
45150W        W 9094  40.484  14.628   1.216
45151W        W 9095  26.079  43.460   2.724
45152W        W 9096  36.910  40.859   3.752
45153W        W 9097  13.846   5.242   4.660
45154W        W 9098  18.282   0.963  14.312
45155W        W 9099   8.338  27.081  13.056
45156W        W 9100  38.036   1.364   0.743
45157W        W 9101  14.224  39.935   3.262
45158W        W 9102  31.073  13.182   2.812
45159W        W 9103  13.217   5.865  12.463
45160W        W 9104  23.533  37.543  13.015
45161W        W 9105  30.076  41.372  10.508
45162W        W 9106  36.077  41.530  12.924
45163W        W 9107  39.342  34.470   0.413
45164W        W 9108  15.289  31.119  13.380
45165W        W 9109  15.743   4.906  14.945
45166W        W 9110  10.285   0.860   3.740
45167W        W 9111  35.858  19.652   1.247
45168W        W 9112  20.525  29.121  12.464
45169W        W 9113  25.097  31.641  10.509
45170W        W 9114   7.836  16.693   3.664
45171W        W 9115  44.263  20.744   2.784
45172W        W 9116  39.474  32.009   5.195
45173W        W 9117   0.385   4.780   0.311
45174W        W 9118  20.157  33.105  13.996
45175W        W 9119  44.801  41.871  12.555
45176W        W 9120   3.850  17.254  14.453
45177W        W 9121  43.349  36.461  14.486
45178W        W 9122  31.974  37.044  10.439
45179W        W 9123   9.153  27.512   4.694
45180W        W 9124  28.515  12.648   1.386
45181W        W 9125  21.126   9.766  10.023
45182W        W 9126  15.666  42.011   0.744
45183W        W 9127  37.492   8.898   1.875
45184W        W 9128   7.356  37.064   4.633
45185W        W 9129  32.114   1.877  11.888
45186W        W 9130   5.430  39.388   0.266
45187W        W 9131  16.141  26.585   0.913
45188W        W 9132  33.051  10.686   0.894
45189W        W 9133  20.592  42.022  12.451
45190W        W 9134  18.723  13.601   3.149
45191W        W 9135  36.361  21.745  12.962
45192W        W 9136  28.467   0.433  14.919
45193W        W 9137  21.711   6.310  12.880
45194W        W 9138  20.133  13.226   1.305
45195W        W 9139  31.542  15.720  12.066
45196W        W 9140  36.587   0.291  13.494
45197W        W 9141  15.631   0.368   1.721
45198W        W 9142  20.654  35.450   0.281
45199W        W 9143  41.535  19.564  10.524
45200W        W 9144  29.140  19.623   0.895
45201W        W 9145   4.892  22.080   4.297
45202W        W 9146  43.009  13.161   4.652
45203W        W 9147  13.311  21.246  13.933
45204W        W 9148  41.912  19.139  10.444
45205W        W 9149   5.843   9.844   1.422
45206W        W 9150  24.529  29.045   2.760
45207W        W 9151  36.417  35.910  13.486
45208W        W 9152   6.206  23.211  13.373
45209W        W 9153  44.958  33.956   2.286
45210W        W 9154  41.803  25.675  10.924
45211W        W 9155  17.722  21.541   0.447
45212W        W 9156  23.004  28.177   3.355
45213W        W 9157  22.176  25.690   0.763
45214W        W 9158  31.104  22.247  11.437
45215W        W 9159  31.563  24.518  13.369
45216W        W 9160  31.450   2.306   2.289
45217W        W 9161   0.486   4.790   4.780
45218W        W 9162  16.800  35.502   2.759
45219W        W 9163   3.745  15.682   3.639
45220W        W 9164  23.625  28.547   4.745
45221W        W 9165   6.410  10.833  12.025
45222W        W 9166  21.172  10.270  12.579
45223W        W 9167  30.051  17.193  12.027
45224W        W 9168  16.289  10.741   1.228
45225W        W 9169   0.374  30.975   3.358
45226W        W 9170  27.152  16.748  11.443
45227W        W 9171  31.038  24.021   0.453
45228W        W 9172  38.029  24.574   4.299
45229W        W 9173   0.364  30.468  14.978
45230W        W 9174   9.814  37.854  10.580
45231W        W 9175   7.720  36.546  10.633
45232W        W 9176  40.044  13.731   4.834
45233W        W 9177  37.002  18.790  13.010
45234W        W 9178  40.920   1.809   1.771
45235W        W 9179  26.568  16.567   2.790
45236W        W 9180  43.897   6.421   0.777
45237W        W 9181  36.513  31.054   4.801
45238W        W 9182  43.910  22.623   3.804
45239W        W 9183  12.205  23.063  10.956
45240W        W 9184  34.044  26.174   2.392
45241W        W 9185  40.364  14.610  14.837
45242W        W 9186  36.015  30.536  12.910
45243W        W 9187  21.069  16.572  12.839
45244W        W 9188  44.877  44.951  12.543
45245W        W 9189  43.770   1.256   3.662
45246W        W 9190  15.610  34.374   5.164
45247W        W 9191  15.113  33.015  13.006
45248W        W 9192  35.584  29.460  13.845
45249W        W 9193  23.114  37.400   4.659
45250W        W 9194  14.821  41.790  14.368
45251W        W 9195  37.391  38.471  13.808
45252W        W 9196  20.111  38.939  12.990
45253W        W 9197  39.425  26.601   1.407
45254W        W 9198  10.227   8.323   3.843
45255W        W 9199  18.549  37.473   1.437
45256W        W 9200   5.233  40.394   3.786
45257W        W 9201   6.848  41.311  10.501
45258W        W 9202   8.897  24.108   2.190
45259W        W 9203  32.608  20.222  13.474
45260W        W 9204  14.299  13.748   0.283
45261W        W 9205  30.041  41.837   0.912
45262W        W 9206  40.867  37.972  13.358
45263W        W 9207  26.077   8.726  13.859
45264W        W 9208  40.349  42.281   0.249
45265W        W 9209   3.917  36.915  10.462
45266W        W 9210  34.567  29.486  14.395
45267W        W 9211  17.578  30.492   1.728
45268W        W 9212  13.252  24.722  13.812
45269W        W 9213  11.760   2.961  14.965
45270W        W 9214  14.661  39.816  12.924
45271W        W 9215   4.285  20.604   0.256
45272W        W 9216  21.149   2.889   1.903
45273W        W 9217  44.881  11.301  10.448
45274W        W 9218  32.563  15.585  11.893
45275W        W 9219  35.924   0.469  13.024
45276W        W 9220   4.408  17.761   0.264
45277W        W 9221  41.493  37.884   3.190
45278W        W 9222  41.512   8.892  13.031
45279W        W 9223  23.516  39.969   3.706
45280W        W 9224  20.263  34.494   3.684
45281W        W 9225  38.863  17.098  10.639
45282W        W 9226  21.635  14.820  11.417
45283W        W 9227  34.502  12.730   0.858
45284W        W 9228  42.510  38.360  10.421
45285W        W 9229  29.488  44.997  13.943
45286W        W 9230   6.881  35.099   3.199
45287W        W 9231  39.507  12.288  14.935
45288W        W 9232   3.258  29.035   0.861
45289W        W 9233   9.767   7.254   2.284
45290W        W 9234  11.289  23.236   2.807
45291W        W 9235  40.875   2.327  14.401
45292W        W 9236  41.536  40.484  10.962
45293W        W 9237  43.848  36.013  14.412
45294W        W 9238   2.309   5.740  12.094
45295W        W 9239  38.366   4.349  14.341
45296W        W 9240  30.624  42.460  11.595
45297W        W 9241  39.510  40.531  10.564
45298W        W 9242  37.035  13.106   3.824
45299W        W 9243  23.545   5.209  11.565
45300W        W 9244  37.354   6.261  12.031
45301W        W 9245  18.711  39.927  12.914
45302W        W 9246  25.610  20.721   4.639
45303W        W 9247  14.315   6.427   3.359
45304W        W 9248  24.585  30.521   1.388
45305W        W 9249  17.602  11.714   2.255
45306W        W 9250  17.137  33.395  11.552
45307W        W 9251  14.233   8.676   1.417
45308W        W 9252  25.045  25.168   3.360
45309W        W 9253  29.063  34.995  11.030
45310W        W 9254  40.473   8.280  13.919
45311W        W 9255  42.288  24.001   2.193
45312W        W 9256  37.406  18.678   3.229
45313W        W 9257   0.337  39.994  12.887
45314W        W 9258  37.478  28.531   4.344
45315W        W 9259  13.772   8.813   3.282
45316W        W 9260  35.891  17.176   0.271
45317W        W 9261  31.116  42.419   4.225
45318W        W 9262  10.801  24.143   1.928
45319W        W 9263  29.002  15.283  14.983
45320W        W 9264   0.843   8.817  12.510
45321W        W 9265  42.970  42.400   0.842
45322W        W 9266   1.263  13.201  13.452
45323W        W 9267  37.472   4.370   1.836
45324W        W 9268   2.434  31.537  13.414
45325W        W 9269  13.106  44.004  10.512
45326W        W 9270   6.299  12.343  14.401
45327W        W 9271  13.150  11.669   1.786
45328W        W 9272   6.271  16.576  11.002
45329W        W 9273  20.558  18.128  12.935
45330W        W 9274  22.617  38.950   0.457
45331W        W 9275   8.403  22.187   1.818
45332W        W 9276  42.449  18.166  10.966
45333W        W 9277  24.591  14.712   1.341
45334W        W 9278  30.542  27.455  14.885
45335W        W 9279  38.481  32.578   3.806
45336W        W 9280  12.639  44.940  13.916
45337W        W 9281  23.647  25.655  11.053
45338W        W 9282   1.420  23.055   1.892
45339W        W 9283  19.630  40.432  12.404
45340W        W 9284   3.321  30.470  12.843
45341W        W 9285  28.134   3.245   4.838
45342W        W 9286  37.953  13.696   2.898
45343W        W 9287   3.394   6.852   0.747
45344W        W 9288  27.184   7.368   3.145
45345W        W 9289  12.702  41.917  11.406
45346W        W 9290  13.139  14.693  11.488
45347W        W 9291  12.685  11.625   2.357
45348W        W 9292   7.371   6.403   1.853
45349W        W 9293  38.013  36.054   3.651
45350W        W 9294  34.884  33.901   1.735
45351W        W 9295  10.204  30.628   0.802
45352W        W 9296  16.618  12.317  10.419
45353W        W 9297  20.562   7.328  13.887
45354W        W 9298   8.386  29.643   0.468
45355W        W 9299  19.177  18.725  13.443
45356W        W 9300   3.439  20.150   1.425
45357W        W 9301  13.152  15.609  13.972
45358W        W 9302  28.185  23.092   0.866
45359W        W 9303  28.476  12.174  12.914
45360W        W 9304  23.557  43.332  10.562
45361W        W 9305  13.771  18.129   3.192
45362W        W 9306  16.211   9.650  11.965
45363W        W 9307  30.078   0.858   3.805
45364W        W 9308   5.810  25.636  11.129
45365W        W 9309  40.946  21.261   3.192
45366W        W 9310  42.790  43.956   2.805
45367W        W 9311   4.887  20.575  11.859
45368W        W 9312  29.444  16.711   0.360
45369W        W 9313  44.263  11.757   3.231
45370W        W 9314  36.999  18.612  14.476
45371W        W 9315  16.261  28.018   0.296
45372W        W 9316  28.449  42.797  12.998
45373W        W 9317   1.811   9.720  13.396
45374W        W 9318  34.967  30.532   5.254
45375W        W 9319  17.595  21.065  11.553
45376W        W 9320  11.360  13.711  12.373
45377W        W 9321   3.284  14.741   3.341
45378W        W 9322  44.821  35.449  12.513
45379W        W 9323  39.856  42.956   1.371
45380W        W 9324  12.716  38.984   3.364
45381W        W 9325  22.171  23.225   2.244
45382W        W 9326  39.058  18.670  12.980
45383W        W 9327  38.968  21.113   1.781
45384W        W 9328  20.731  26.952   0.772
45385W        W 9329   5.913  24.546   3.362
45386W        W 9330  18.734  25.167   4.787
45387W        W 9331   0.343  37.018  14.793
45388W        W 9332   4.789  20.661  12.374
45389W        W 9333   6.909  20.042   3.349
45390W        W 9334  22.555  16.707  11.055
45391W        W 9335  27.574  28.134  12.448
45392W        W 9336   9.379  34.398  11.870
45393W        W 9337  29.488   8.296   1.869
45394W        W 9338  43.941  34.458   1.331
45395W        W 9339   1.400  20.576  11.111
45396W        W 9340   7.223  19.285  11.086
45397W        W 9341  13.240  41.426   1.338
45398W        W 9342  31.607  41.434  12.925
45399W        W 9343   5.776   1.331  10.578
45400W        W 9344  40.052  36.501  14.957
45401W        W 9345  22.040   9.209  12.936
45402W        W 9346   3.869  44.329  14.410
45403W        W 9347  13.645   6.704   3.656
45404W        W 9348   2.926  43.767   3.679
45405W        W 9349   1.881  18.767  13.921
45406W        W 9350  23.572  31.105   2.314
45407W        W 9351  18.215   5.895  12.901
45408W        W 9352   8.194   5.300  10.939
45409W        W 9353  20.725  42.900   3.290
45410W        W 9354   1.952  29.151   0.322
45411W        W 9355  14.830  39.961  11.950
45412W        W 9356  23.645  17.758   4.726
45413W        W 9357   2.954   3.924   9.562
45414W        W 9358   4.776   4.818  14.001
45415W        W 9359  38.839  10.383  14.465
45416W        W 9360   8.710  42.931   1.319
45417W        W 9361  35.968   6.367  13.928
45418W        W 9362  11.824  32.617   4.771
45419W        W 9363  17.183  27.980   2.264
45420W        W 9364   3.908  25.010   3.305
45421W        W 9365  12.161   1.246   2.347
45422W        W 9366  23.512   8.263   1.911
45423W        W 9367  33.437  40.544   2.852
45424W        W 9368  35.867  17.577   2.355
45425W        W 9369  36.092  15.704   9.967
45426W        W 9370  10.145  37.532  12.037
45427W        W 9371  15.223  13.612  14.847
45428W        W 9372   1.413  26.471   1.348
45429W        W 9373  26.001  11.746   1.842
45430W        W 9374  25.050   5.327   3.173
45431W        W 9375  32.415  44.319  12.032
45432W        W 9376  36.844  35.518  14.944
45433W        W 9377  33.937  13.183   4.293
45434W        W 9378  37.830   0.424  12.410
45435W        W 9379  15.723  34.435  11.016
45436W        W 9380  33.522  21.076   2.777
45437W        W 9381  33.037  43.514  11.965
45438W        W 9382  29.050  21.555   1.867
45439W        W 9383  41.917  12.819   2.335
45440W        W 9384  18.133  35.043   2.189
45441W        W 9385  21.145  33.566   2.676
45442W        W 9386  34.937  28.937   4.313
45443W        W 9387  23.564   2.943   3.242
45444W        W 9388  25.617   2.916   4.139
45445W        W 9389   5.346  12.317   2.816
45446W        W 9390  27.630  31.012   1.768
45447W        W 9391  23.054  26.160   4.301
45448W        W 9392  10.790  17.287   3.721
45449W        W 9393  12.117   9.856  12.383
45450W        W 9394  40.808  18.068   4.227
45451W        W 9395  23.103   0.912   3.837
45452W        W 9396  41.292  30.560   0.279
45453W        W 9397  11.766  36.556  11.404
45454W        W 9398  39.439   5.775   5.776
45455W        W 9399  20.727  41.926   2.231
45456W        W 9400  30.538  21.592  13.910
45457W        W 9401   4.375   7.682   2.726
45458W        W 9402  26.164  20.090  13.329
45459W        W 9403   3.366  13.770   2.309
45460W        W 9404  15.774  14.107  12.965
45461W        W 9405  18.163  36.357   1.847
45462W        W 9406  17.697   4.384   4.236
45463W        W 9407   5.255   7.415   1.842
45464W        W 9408  19.630  14.766   0.243
45465W        W 9409  43.811  32.117   3.374
45466W        W 9410  16.793  29.518   2.787
45467W        W 9411   4.937  21.147   2.663
45468W        W 9412  16.591  17.252  11.081
45469W        W 9413  26.081   7.708   1.290
45470W        W 9414  38.877  42.431   3.224
45471W        W 9415  17.126  14.598  10.521
45472W        W 9416  16.211  35.598  10.953
45473W        W 9417  33.595  39.990   0.296
45474W        W 9418   1.878   7.694   3.264
45475W        W 9419  18.775  42.937   3.852
45476W        W 9420   8.250   4.847  13.395
45477W        W 9421  11.373   9.790   2.671
45478W        W 9422  10.182   6.922  11.582
45479W        W 9423  39.524   4.721  11.968
45480W        W 9424  12.228  34.053   0.755
45481W        W 9425   0.870  44.335   0.959
45482W        W 9426  42.813  36.884   2.416
45483W        W 9427   1.244  30.946  14.810
45484W        W 9428  35.034  19.158   4.235
45485W        W 9429  23.153   9.732  13.926
45486W        W 9430  39.461   2.347   1.220
45487W        W 9431  29.113  28.934   1.818
45488W        W 9432   3.220  36.477   0.933
45489W        W 9433  15.761  29.610  13.864
45490W        W 9434  17.625  10.686  14.943
45491W        W 9435  28.126  31.565   2.837
45492W        W 9436   2.943   7.313   3.821
45493W        W 9437   7.877  44.932  12.846
45494W        W 9438   2.406   5.304  13.320
45495W        W 9439  16.579  27.009  14.342
45496W        W 9440  31.587  41.371  12.398
45497W        W 9441  26.083  29.082  13.497
45498W        W 9442  30.104  30.142   1.850
45499W        W 9443  20.252   9.368   4.323
45500W        W 9444  11.835  13.831  13.539
45501W        W 9445  37.517  43.918   4.258
45502W        W 9446   3.428  31.957   2.832
45503W        W 9447  12.779  12.690   0.815
45504W        W 9448  10.667   5.926  11.965
45505W        W 9449  13.762  35.907  11.055
45506W        W 9450  22.126  17.241  11.898
45507W        W 9451  10.727  23.567  12.536
45508W        W 9452  14.687  27.046  11.002
45509W        W 9453  23.627  39.811  13.834
45510W        W 9454  41.832  44.994   2.695
45511W        W 9455  40.927   4.762   4.600
45512W        W 9456  42.916   7.738   2.742
45513W        W 9457  42.988  41.965   0.863
45514W        W 9458   1.972  39.020  14.329
45515W        W 9459  13.633   9.239   4.206
45516W        W 9460  40.359  32.921  10.557
45517W        W 9461  41.372  11.335   4.255
45518W        W 9462  44.447   7.302   0.905
45519W        W 9463  26.495  20.063   2.836
45520W        W 9464  19.766  39.325   3.277
45521W        W 9465  18.621  12.707   0.744
45522W        W 9466  23.105  29.614   2.879
45523W        W 9467  21.228  37.989  11.602
45524W        W 9468  39.405  13.637   4.825
45525W        W 9469  29.446  15.735   1.700
45526W        W 9470   8.791  44.908  11.085
45527W        W 9471  42.829  44.778  13.417
45528W        W 9472  36.048  35.596   4.699
45529W        W 9473  16.171   6.911  13.951
45530W        W 9474  25.967  17.786   2.736
45531W        W 9475  40.335   4.828  14.435
45532W        W 9476   3.428  22.124   1.285
45533W        W 9477  30.592  14.750   4.837
45534W        W 9478  20.755   0.742  11.457
45535W        W 9479  26.099   5.337  11.974
45536W        W 9480  14.774  13.619   3.801
45537W        W 9481  19.612  43.995  13.408
45538W        W 9482  13.252  20.247  11.106
45539W        W 9483   2.417  36.965   0.434
45540W        W 9484  23.239  28.944  10.463
45541W        W 9485  30.164  22.224  13.529
45542W        W 9486  37.832   2.236  14.916
45543W        W 9487   8.216   3.909   3.866
45544W        W 9488  42.338   8.707   1.701
45545W        W 9489  14.742  35.876   0.404
45546W        W 9490  26.564  18.700  10.474
45547W        W 9491  25.126  25.027  11.498
45548W        W 9492  10.173  12.682  14.466
45549W        W 9493  28.990  19.162  14.995
45550W        W 9494  26.959   3.924   3.669
45551W        W 9495   5.887  17.215  14.997
45552W        W 9496  34.598  14.806   2.826
45553W        W 9497  42.028  38.410   1.356
45554W        W 9498  34.016  42.400  14.959
45555W        W 9499  41.817  29.027   2.201
45556W        W 9500  20.128  20.550  14.001
45557W        W 9501  37.079  11.253   3.255
45558W        W 9502  11.797  32.019   2.268
45559W        W 9503  17.560  38.348   0.349
45560W        W 9504  30.935   0.266   1.382
45561W        W 9505   3.922   3.926   4.136
45562W        W 9506  44.783   8.743   1.260
45563W        W 9507   7.172   5.434  10.628
45564W        W 9508  32.579  35.926   2.405
45565W        W 9509   2.455  44.429   3.633
45566W        W 9510  32.498  36.412   0.739
45567W        W 9511   7.411   4.934   2.237
45568W        W 9512  32.929   3.774  10.925
45569W        W 9513  25.083   7.323   4.208
45570W        W 9514  38.979  12.639   0.941
45571W        W 9515   4.441  14.661  13.341
45572W        W 9516  14.309  37.488  12.372
45573W        W 9517  15.791   2.227  11.887
45574W        W 9518   7.672  22.586  12.920
45575W        W 9519  44.316  16.192   1.889
45576W        W 9520  14.259  32.485  13.038
45577W        W 9521  14.225   0.463  14.856
45578W        W 9522   6.918  41.305  11.539
45579W        W 9523  41.945  42.853  12.989
45580W        W 9524   4.319  26.043   1.874
45581W        W 9525  22.102  29.083   1.236
45582W        W 9526   8.690  22.520   4.694
45583W        W 9527   0.767  14.173  14.453
45584W        W 9528  12.671  40.805  13.894
45585W        W 9529  34.431  40.310  12.992
45586W        W 9530   6.323  40.936  14.801
45587W        W 9531  16.229  38.368   0.359
45588W        W 9532   0.371  34.105   2.344
45589W        W 9533  18.079  18.613  10.447
45590W        W 9534  30.073  43.977  10.588
45591W        W 9535  25.483   7.177  10.450
45592W        W 9536  35.933  38.432  11.093
45593W        W 9537  36.547  44.954   3.277
45594W        W 9538  30.955  10.850   2.892
45595W        W 9539  30.052  22.509   2.404
45596W        W 9540   9.798  34.485   1.731
45597W        W 9541  37.477  21.516  11.871
45598W        W 9542  16.179   5.314   0.806
45599W        W 9543   5.858  29.035  11.414
45600W        W 9544   8.753  39.507   3.690
45601W        W 9545   1.326  27.502  12.403
45602W        W 9546   5.821  37.038  12.442
45603W        W 9547  43.351  31.944  11.120
45604W        W 9548  39.938  30.574  14.865
45605W        W 9549   2.319   4.914   3.868
45606W        W 9550  37.849  27.545   3.769
45607W        W 9551  20.113  11.298   1.331
45608W        W 9552   5.827  19.119  12.370
45609W        W 9553   3.228  39.355  13.546
45610W        W 9554   5.295  30.018   0.874
45611W        W 9555  21.671  18.638   0.727
45612W        W 9556  42.353  43.820   4.721
45613W        W 9557  22.195  13.185   3.841
45614W        W 9558  15.680  29.981  12.513
45615W        W 9559  23.657  23.055   3.747
45616W        W 9560  28.148  34.460  12.411
45617W        W 9561  37.446  12.295  12.456
45618W        W 9562  29.650   3.831  13.458
45619W        W 9563  12.122  22.639   1.752
45620W        W 9564  24.601  32.410   4.293
45621W        W 9565   4.449  23.504   4.621
45622W        W 9566  16.195  23.043   4.354
45623W        W 9567   2.258   3.307  13.928
45624W        W 9568  11.365  33.926  13.343
45625W        W 9569  26.585   1.803  12.006
45626W        W 9570   5.797   3.409   3.808
45627W        W 9571  12.631  43.300   1.846
45628W        W 9572   4.779  17.231  14.973
45629W        W 9573   2.397  10.178   3.324
45630W        W 9574  18.263  18.784   2.301
45631W        W 9575   2.388   0.942  10.972
45632W        W 9576   8.309   7.906   0.399
45633W        W 9577  27.984   3.258  13.837
45634W        W 9578  41.848  13.710  13.031
45635W        W 9579  36.376  26.519  11.922
45636W        W 9580  22.682  35.912  14.964
45637W        W 9581  22.999  21.131  13.435
45638W        W 9582  34.865   1.909   2.414
45639W        W 9583  13.797  20.757   3.314
45640W        W 9584  26.178  37.512  10.457
45641W        W 9585  13.201  26.549   9.926
45642W        W 9586  26.510  33.404   2.870
45643W        W 9587  44.375  19.220   3.803
45644W        W 9588   2.467  10.310   0.898
45645W        W 9589  21.672  25.085  13.824
45646W        W 9590   0.374  19.564   1.291
45647W        W 9591   3.393   8.788  12.996
45648W        W 9592  19.040   9.195  14.996
45649W        W 9593  22.090   9.713   1.263
45650W        W 9594   2.398  12.672  11.534
45651W        W 9595  20.071  39.919  11.070
45652W        W 9596  13.704  28.123  13.365
45653W        W 9597   6.739  29.524  13.795
45654W        W 9598   2.769  35.914   3.676
45655W        W 9599  40.489   6.261  12.031
45656W        W 9600  23.650   1.363  11.437
45657W        W 9601  22.686  16.810  13.361
45658W        W 9602  38.986  25.164  14.334
45659W        W 9603   7.824  43.949  10.414
45660W        W 9604  23.153  37.498   2.838
45661W        W 9605  20.038  30.524   1.443
45662W        W 9606  22.182  18.608  10.559
45663W        W 9607  19.606   8.174  10.916
45664W        W 9608  11.255  36.039   2.791
45665W        W 9609   6.257   3.789  11.575
45666W        W 9610  10.696   7.704  12.040
45667W        W 9611   0.309  29.050   0.353
45668W        W 9612  20.083  35.862  13.509
45669W        W 9613   8.356  37.886  11.961
45670W        W 9614  17.157   0.453   1.905
45671W        W 9615  37.581   9.727   4.220
45672W        W 9616   1.777  41.994   0.902
45673W        W 9617  12.693   0.821  11.116
45674W        W 9618  28.026  22.127   3.673
45675W        W 9619   5.774  19.574   0.254
45676W        W 9620  22.183  20.729  11.054
45677W        W 9621   0.340  26.010  11.911
45678W        W 9622  28.136  36.979   0.339
45679W        W 9623  13.195  43.431   2.802
45680W        W 9624  42.373  18.544  10.406
45681W        W 9625  17.672  24.034  11.955
45682W        W 9626  36.576   1.386   1.231
45683W        W 9627  34.031  36.543   0.742
45684W        W 9628   3.280  24.177  11.420
45685W        W 9629   6.303  12.231  11.490
45686W        W 9630  22.152  35.063  13.887
45687W        W 9631   7.380   7.294   1.284
45688W        W 9632  42.399  22.128  12.870
45689W        W 9633  39.504   1.912   0.830
45690W        W 9634   5.778  17.667  12.397
45691W        W 9635  22.178  42.890  12.498
45692W        W 9636  14.280  36.535  13.849
45693W        W 9637  23.499  10.665  10.503
45694W        W 9638  23.020  40.808   1.360
45695W        W 9639   3.337  18.569   2.349
45696W        W 9640  32.055  14.127  12.004
45697W        W 9641  29.566  31.467  13.889
45698W        W 9642  13.600  10.292  12.555
45699W        W 9643  31.469  33.981   4.647
45700W        W 9644  15.237  10.719  12.577
45701W        W 9645  10.780  22.651  11.993
45702W        W 9646   4.368  41.028   4.321
45703W        W 9647  28.549  14.114  13.322
45704W        W 9648  12.234   9.357  12.891
45705W        W 9649   7.696  15.314  11.859
45706W        W 9650   5.749  38.891   4.647
45707W        W 9651  26.675  44.861   2.806
45708W        W 9652  18.667   7.666  11.924
45709W        W 9653  28.973  22.231  10.903
45710W        W 9654  37.549   5.245  10.988
45711W        W 9655   7.357  12.717  12.066
45712W        W 9656  20.226  34.002   4.764
45713W        W 9657   6.693  18.084   0.812
45714W        W 9658   5.872  42.299   1.842
45715W        W 9659  25.052  43.345   0.269
45716W        W 9660  27.474  19.618  12.028
45717W        W 9661  26.658  42.520  14.351
45718W        W 9662  31.917  10.239   2.696
45719W        W 9663   7.251  29.534  11.943
45720W        W 9664  19.646  34.986   3.813
45721W        W 9665  10.199  36.476   0.908
45722W        W 9666  21.525  16.144   1.798
45723W        W 9667  28.119  25.034   3.273
45724W        W 9668  32.570  13.704   4.713
45725W        W 9669  44.404  12.279  13.472
45726W        W 9670  23.501  26.672   4.116
45727W        W 9671  35.996  16.269  11.943
45728W        W 9672  19.723  16.138  12.069
45729W        W 9673  40.999  40.537  13.418
45730W        W 9674  33.011  31.406  11.993
45731W        W 9675  35.872   4.420  13.540
45732W        W 9676  28.644  17.075   4.262
45733W        W 9677  15.307  38.481  12.878
45734W        W 9678  27.099  36.587  14.949
45735W        W 9679  30.522  39.544  13.525
45736W        W 9680  26.559  11.853  10.904
45737W        W 9681  21.533  31.952   4.680
45738W        W 9682  20.531  28.614   1.360
45739W        W 9683  32.627  19.696  11.493
45740W        W 9684  11.291   4.240   3.785
45741W        W 9685  37.014  39.395   1.902
45742W        W 9686  44.879  14.834  13.323
45743W        W 9687  41.412  13.604  14.300
45744W        W 9688  32.015   6.685  11.385
45745W        W 9689  14.285  17.762   1.324
45746W        W 9690  10.251  17.094  12.380
45747W        W 9691   1.835  11.350  12.492
45748W        W 9692  41.904   0.930  11.595
45749W        W 9693  40.425  15.661   1.865
45750W        W 9694  14.686  42.943  11.487
45751W        W 9695  15.725  15.613  10.099
45752W        W 9696  29.123  38.517   0.464
45753W        W 9697   1.339  25.041  11.975
45754W        W 9698  27.963  40.833   1.349
45755W        W 9699  30.980  43.769  10.901
45756W        W 9700   5.428  29.542  12.349
45757W        W 9701   7.263  43.894  13.540
45758W        W 9702  23.026   1.356   0.890
45759W        W 9703   2.876  24.141   1.235
45760W        W 9704  34.069  18.278  12.956
45761W        W 9705   4.907  11.702  14.448
45762W        W 9706  31.485  21.574  13.421
45763W        W 9707  14.309   7.327  10.152
45764W        W 9708   7.742  36.555  11.045
45765W        W 9709  15.807  16.721  13.947
45766W        W 9710  30.458  17.758   1.799
45767W        W 9711  25.700  18.701   3.180
45768W        W 9712   6.799  42.461  11.456
45769W        W 9713   5.286  23.597   3.295
45770W        W 9714  39.994  31.990  11.602
45771W        W 9715  36.023  22.576   3.659
45772W        W 9716  41.887  30.042  11.444
45773W        W 9717   5.209   5.432   3.211
45774W        W 9718  14.277  16.750   0.867
45775W        W 9719  13.183  13.274  10.550
45776W        W 9720   1.785  30.606  10.623
45777W        W 9721  42.810  41.329   3.846
45778W        W 9722   0.421   3.218  14.406
45779W        W 9723  36.549  27.636  11.891
45780W        W 9724  39.407  13.645  11.432
45781W        W 9725  43.798   1.445  10.599
45782W        W 9726  14.734  31.495   4.207
45783W        W 9727  21.088  40.000  12.490
45784W        W 9728  38.868  36.983   4.245
45785W        W 9729   3.729  24.097   1.220
45786W        W 9730  40.303  18.213   2.741
45787W        W 9731  33.098  20.223  12.062
45788W        W 9732   3.767  16.186  12.543
45789W        W 9733  17.773  15.671   3.324
45790W        W 9734  31.916  14.112  11.471
45791W        W 9735  31.474  40.867  10.514
45792W        W 9736  42.790  26.478   0.892
45793W        W 9737  42.364  16.256   1.260
45794W        W 9738  19.188  35.031  10.592
45795W        W 9739  13.180  10.239   3.862
45796W        W 9740  32.990  19.706   2.283
45797W        W 9741  35.087   2.453   3.370
45798W        W 9742  19.629  44.843   0.893
45799W        W 9743   8.193  24.554   2.283
45800W        W 9744   0.292  25.510   1.305
45801W        W 9745  25.038  34.880  10.438
45802W        W 9746  18.624  12.117   3.803
45803W        W 9747  17.599  11.866   0.428
45804W        W 9748  10.163  14.769   1.400
45805W        W 9749   9.818  32.095   1.899
45806W        W 9750  15.674  32.118   3.859
45807W        W 9751  10.291  41.500  13.002
45808W        W 9752  13.150  23.081  12.949
45809W        W 9753  26.601  39.977   5.712
45810W        W 9754  31.520  14.328   3.788
45811W        W 9755  14.642  15.127   4.206
45812W        W 9756   5.771  21.217  14.862
45813W        W 9757  10.728  22.082   0.272
45814W        W 9758  43.924   3.793   2.385
45815W        W 9759  38.534   4.253  13.895
45816W        W 9760  11.135  29.943  11.405
45817W        W 9761  44.501  24.981   2.206
45818W        W 9762  34.118  33.407  14.924
45819W        W 9763   9.196   3.735   2.380
45820W        W 9764  19.281   6.420   3.832
45821W        W 9765  13.129   4.877   4.246
45822W        W 9766   7.194  35.095  14.916
45823W        W 9767   9.349   6.232   1.915
45824W        W 9768  23.696  31.022   1.212
45825W        W 9769  30.135  24.205  12.824
45826W        W 9770  24.204  26.044  10.956
45827W        W 9771  34.575  41.477  11.015
45828W        W 9772  22.042  11.803   0.771
45829W        W 9773   1.480  32.410  10.557
45830W        W 9774  20.696  32.128  12.879
45831W        W 9775  22.135  34.993  11.455
45832W        W 9776  36.089  22.693   1.717
45833W        W 9777  37.557  32.954  14.350
45834W        W 9778  38.874  30.936  10.575
45835W        W 9779   5.901  17.108   3.704
45836W        W 9780   3.251  15.142   2.879
45837W        W 9781   8.701  20.696  12.001
45838W        W 9782  34.047  42.977  11.855
45839W        W 9783   7.215  43.348  14.443
45840W        W 9784  33.447  13.736   3.660
45841W        W 9785  35.063  13.262  10.919
45842W        W 9786  19.553  41.976  14.848
45843W        W 9787   7.326  25.621   4.620
45844W        W 9788   3.218  25.096   1.877
45845W        W 9789  24.554  16.308  13.414
45846W        W 9790   7.226  26.058   0.292
45847W        W 9791  34.538  17.784  10.585
45848W        W 9792  21.244  27.153  11.439
45849W        W 9793  13.642   4.257   4.624
45850W        W 9794  14.289  16.153   2.417
45851W        W 9795  40.878  10.765  11.499
45852W        W 9796  22.744  43.858   4.649
45853W        W 9797  15.797  39.867   2.676
45854W        W 9798  38.043  10.744  12.390
45855W        W 9799  10.872  40.802  13.846
45856W        W 9800  14.258  20.633  11.967
45857W        W 9801  20.640   2.332  14.813
45858W        W 9802   3.363  42.799   2.373
45859W        W 9803  25.704   7.212   5.178
45860W        W 9804   0.434  17.178  13.381
45861W        W 9805  28.506  10.276   0.867
45862W        W 9806  21.049  19.095  12.560
45863W        W 9807  19.675  42.393  11.396
45864W        W 9808  43.298  17.283   3.199
45865W        W 9809   7.245   1.468   4.219
45866W        W 9810  35.040  26.492   4.346
45867W        W 9811   7.243  15.102  12.414
45868W        W 9812   0.847   2.259  13.033
45869W        W 9813  31.912  36.084   1.862
45870W        W 9814  42.851  18.114   0.458
45871W        W 9815  39.470  18.251  12.552
45872W        W 9816  33.900   0.808  11.588
45873W        W 9817  39.356  33.923  12.958
45874W        W 9818  41.915   2.399   2.776
45875W        W 9819  19.247  34.492   4.235
45876W        W 9820  42.029  17.145   2.180
45877W        W 9821  32.973  17.093   2.841
45878W        W 9822  17.244  33.079   1.877
45879W        W 9823  37.831  14.192  13.908
45880W        W 9824  22.663  33.041   4.147
45881W        W 9825   9.838  11.170   4.274
45882W        W 9826  26.173  14.228   0.363
45883W        W 9827  31.098  16.275   2.774
45884W        W 9828  32.573   3.221  11.998
45885W        W 9829  42.416   8.752  14.375
45886W        W 9830  32.012   7.666  12.497
45887W        W 9831  27.463  43.447   0.779
45888W        W 9832  41.836  34.948  13.371
45889W        W 9833  37.429  26.003   2.705
45890W        W 9834  24.541  29.661  11.525
45891W        W 9835  37.407  13.751   0.449
45892W        W 9836   9.282  16.301  11.469
45893W        W 9837  38.032  15.188   2.685
45894W        W 9838  33.576  32.078   0.824
45895W        W 9839  44.458  31.408  13.386
45896W        W 9840  23.563  34.523   0.326
45897W        W 9841  11.631  11.191   2.701
45898W        W 9842  43.998   8.745  11.928
45899W        W 9843  37.053  11.276  11.999
45900W        W 9844  30.973  20.226  13.829
45901W        W 9845  12.138  29.570   1.218
45902W        W 9846  40.908  10.373   4.232
45903W        W 9847  42.331  23.660  12.460
45904W        W 9848   5.431  36.019  13.936
45905W        W 9849  37.989  29.625  10.501
45906W        W 9850  13.200   7.199   2.692
45907W        W 9851   3.954  37.007   0.356
45908W        W 9852  20.127   9.160   2.845
45909W        W 9853  21.036  12.133   2.876
45910W        W 9854  13.250   1.396   1.709
45911W        W 9855  26.196  32.497  12.029
45912W        W 9856  42.446  21.116  12.840
45913W        W 9857  32.950  32.113   1.400
45914W        W 9858  31.500  35.478   0.446
45915W        W 9859   3.437  21.160   0.292
45916W        W 9860   8.279   2.786  10.938
45917W        W 9861  32.928   7.343   1.254
45918W        W 9862  35.981  22.550  11.391
45919W        W 9863  40.962  13.799   4.790
45920W        W 9864  26.636   4.305  14.957
45921W        W 9865  25.633  19.678   0.811
45922W        W 9866  14.117  23.186  14.301
45923W        W 9867  30.996  39.315   4.202
45924W        W 9868  36.988  44.298  12.931
45925W        W 9869   9.386   7.343   4.720
45926W        W 9870  27.117   9.757  14.923
45927W        W 9871  19.167   9.279   5.210
45928W        W 9872  22.580  22.231   3.153
45929W        W 9873   8.296  19.166  10.450
45930W        W 9874  23.650  21.098  10.032
45931W        W 9875  32.906  11.653   3.715
45932W        W 9876   4.886  14.780  10.427
45933W        W 9877  39.442   7.221   3.370
45934W        W 9878  41.532   1.318  13.840
45935W        W 9879  10.741   1.436  13.336
45936W        W 9880  25.065  34.527   4.659
45937W        W 9881  18.284   6.228  12.377
45938W        W 9882  21.674  42.379   0.875
45939W        W 9883   2.267   8.353   3.320
45940W        W 9884  42.396  42.905   0.774
45941W        W 9885  15.315  31.481  14.452
45942W        W 9886  12.141  26.036  13.931
45943W        W 9887  25.209  22.075  14.370
45944W        W 9888  38.028   3.424   2.774
45945W        W 9889   3.399   8.693   2.382
45946W        W 9890   9.763  44.855  11.409
45947W        W 9891   8.771  32.490  11.988
45948W        W 9892  20.225  30.008   4.263
45949W        W 9893  38.564  39.015   1.297
45950W        W 9894  40.453  33.942   3.756
45951W        W 9895  24.981  33.497   2.770
45952W        W 9896  10.717   8.757  14.818
45953W        W 9897  23.711  43.359   2.762
45954W        W 9898  41.484  19.085   3.634
45955W        W 9899  14.243  30.106  10.529
45956W        W 9900   4.374   1.966  12.858
45957W        W 9901  36.470  42.982  12.834
45958W        W 9902  40.355  12.799   5.318
45959W        W 9903  44.881  27.580   4.838
45960W        W 9904  44.831   4.818  12.439
45961W        W 9905  27.163   4.347  11.096
45962W        W 9906  23.084   0.845   1.320
45963W        W 9907   2.905  39.960  10.513
45964W        W 9908  20.622  38.831  13.848
45965W        W 9909  26.526  13.607  12.058
45966W        W 9910  20.165  39.400   4.150
45967W        W 9911  25.484  36.843  14.303
45968W        W 9912  21.606  13.163  11.418
45969W        W 9913  40.334  34.099   0.792
45970W        W 9914  28.134  15.196  11.446
45971W        W 9915   9.222  18.664  12.976
45972W        W 9916  12.747  21.668  11.125
45973W        W 9917   1.331  23.055   0.930
45974W        W 9918   6.349  24.230  13.850
45975W        W 9919  11.324  34.908  10.554
45976W        W 9920  43.896  12.245  11.890
45977W        W 9921  36.388  42.801  11.407
45978W        W 9922  25.993  40.952  13.969
45979W        W 9923  42.367  39.933  12.445
45980W        W 9924  17.216  11.361  14.382
45981W        W 9925   7.309  38.528  11.528
45982W        W 9926  29.921  10.374   3.788
45983W        W 9927  11.721  35.553   4.624
45984W        W 9928  16.240  15.633  11.464
45985W        W 9929  42.907   5.314  11.473
45986W        W 9930  26.651  18.591   4.188
45987W        W 9931  27.593   9.251   1.822
45988W        W 9932  16.720  23.032   3.743
45989W        W 9933  40.953  35.906  13.038
45990W        W 9934  10.715   2.817  11.453
45991W        W 9935  24.622  26.467  10.132
45992W        W 9936   1.947  11.811  12.375
45993W        W 9937  22.530  17.162   2.207
45994W        W 9938  41.427  23.120   0.351
45995W        W 9939  42.944   9.326  13.028
45996W        W 9940  22.139  44.300   1.772
45997W        W 9941  15.783   1.896   1.766
45998W        W 9942  13.235  16.659   2.728
45999W        W 9943  15.647  27.654  11.928
46000W        W 9944  35.448  23.048  14.898
46001W        W 9945   1.741  22.599   0.803
46002W        W 9946   9.385   8.202  11.129
46003W        W 9947  42.288  36.502   4.319
46004W        W 9948  29.065   4.783   1.330
46005W        W 9949  20.179  22.141  14.409
46006W        W 9950  33.915  14.630   0.729
46007W        W 9951  42.825   8.270  14.472
46008W        W 9952  35.573   8.699  14.305
46009W        W 9953  25.210  17.295   4.671
46010W        W 9954  37.906   0.342  10.417
46011W        W 9955   4.907  41.988  13.472
46012W        W 9956  18.664  31.119  12.994
46013W        W 9957   6.722  42.802  13.396
46014W        W 9958  23.028  15.305  10.455
46015W        W 9959  41.791  30.596  12.418
46016W        W 9960   5.434  33.923  11.873
46017W        W 9961  17.701  27.017  10.978
46018W        W 9962  11.646  31.106  11.044
46019W        W 9963  32.569  23.028   4.810
46020W        W 9964   6.873  24.674  10.936
46021W        W 9965  12.611  41.356   3.861
46022W        W 9966  10.172  44.874   3.248
46023W        W 9967  29.155   7.758  10.960
46024W        W 9968  11.777   0.266  14.855
46025W        W 9969  33.482  31.648   3.173
46026W        W 9970  19.256  15.178  12.996
46027W        W 9971   7.191  15.615   0.888
46028W        W 9972  25.163  33.960   1.829
46029W        W 9973   8.370  23.585   4.273
46030W        W 9974   8.666  37.088  13.030
46031W        W 9975  34.413  27.031   0.756
46032W        W 9976  40.970  37.507  14.504
46033W        W 9977  31.413  20.645  12.375
46034W        W 9978  25.622  34.050   3.815
46035W        W 9979  25.680   3.749   2.333
46036W        W 9980  21.515  18.123  13.474
46037W        W 9981  12.765  42.919  14.839
46038W        W 9982   1.809  42.787   0.247
46039W        W 9983  18.609  44.919   2.290
46040W        W 9984  40.915  34.435  11.080
46041W        W 9985   5.313  41.788  11.025
46042W        W 9986  18.140  12.206  13.347
46043W        W 9987   1.442  25.975   1.908
46044W        W 9988  18.247  36.012   1.394
46045W        W 9989  17.208   0.906  13.032
46046W        W 9990  38.466  30.934  14.440
46047W        W 9991   7.799   0.394  10.545
46048W        W 9992  17.195  18.135   3.250
46049W        W 9993  38.819   2.822  12.837
46050W        W 9994  12.737  30.943   3.218
46051W        W 9995   1.971  14.589  14.306
46052W        W 9996  44.861   1.938   0.878
46053W        W 9997   4.407  34.597   0.791
46054W        W 9998  36.394   8.175  13.402
46055W        W 9999  42.914  12.791  13.410
46056W        W10000   4.887  29.010   5.289
46057W        W10001   8.161  28.079   4.324
46058W        W10002   8.350  43.960   2.678
46059W        W10003   3.825  16.079  14.985
46060W        W10004  21.112  11.293  10.994
46061W        W10005  21.747   0.368  14.764
46062W        W10006  23.110  14.830   3.738
46063W        W10007  37.911  37.030  10.986
46064W        W10008  13.256   0.905  11.499
46065W        W10009  38.835  43.766  12.573
46066W        W10010   3.234  19.068  13.339
46067W        W10011  40.443  33.546  11.383
46068W        W10012  14.265  22.093   3.268
46069W        W10013  16.111  22.565  13.361
46070W        W10014  20.207   0.260   0.397
46071W        W10015  38.481  37.909   4.703
46072W        W10016  19.570   3.230   3.165
46073W        W10017  23.504  22.704   2.682
46074W        W10018  11.734   4.271  12.396
46075W        W10019  39.983  29.154  10.473
46076W        W10020  31.494  37.523  10.438
46077W        W10021   4.409  43.834   4.604
46078W        W10022  32.127   2.327   4.176
46079W        W10023  38.830  36.579  13.981
46080W        W10024  42.300  24.658  11.941
46081W        W10025  21.187  33.970   0.343
46082W        W10026  12.685   2.866  13.507
46083W        W10027  41.814   5.745  11.491
46084W        W10028  24.514  41.370  12.466
46085W        W10029  17.290   3.457  13.893
46086W        W10030  15.290  33.382  14.804
46087W        W10031   0.942  10.306  14.997
46088W        W10032  36.538  13.320  11.013
46089W        W10033   7.316  31.478   1.849
46090W        W10034  21.629   9.298  14.495
46091W        W10035  40.808  34.917  12.370
46092W        W10036  40.798   6.348   1.371
46093W        W10037   9.370  20.086  13.487
46094W        W10038  28.948   6.246  14.931
46095W        W10039  39.890  10.333   3.687
46096W        W10040  28.992   4.247   4.308
46097W        W10041  10.277  42.837  10.097
46098W        W10042  34.468  20.136  11.572
46099W        W10043   7.742  42.402  12.952
46100W        W10044  43.363   0.484   2.871
46101W        W10045  20.198  36.410   4.614
46102W        W10046  29.930   2.233   4.210
46103W        W10047  17.733  18.218  14.472
46104W        W10048  42.403  35.980   2.397
46105W        W10049  42.860  36.097  13.409
46106W        W10050  14.147  39.993  14.491
46107W        W10051  25.674  24.118   2.257
46108W        W10052  37.402   1.285  10.528
46109W        W10053  42.374  25.136   3.222
46110W        W10054  35.442  19.715  11.932
46111W        W10055  15.313  19.130  14.442
46112W        W10056   4.901  32.140   0.864
46113W        W10057  10.860  21.110  13.322
46114W        W10058  18.122   7.371   4.161
46115W        W10059  27.683   5.349  10.561
46116W        W10060  33.507  11.747   1.730
46117W        W10061  43.943  18.148   4.260
46118W        W10062  10.693  33.966  13.992
46119W        W10063  18.554   3.445   5.302
46120W        W10064   0.348  28.592  14.762
46121W        W10065  28.595  14.243   2.395
46122W        W10066  40.849   4.897  13.832
46123W        W10067  27.963  39.470   3.310
46124W        W10068  36.953  42.871  11.487
46125W        W10069  12.721   1.751  13.900
46126W        W10070   9.721  31.499   1.791
46127W        W10071   1.742  44.315   0.445
46128W        W10072  32.123  40.525  11.445
46129W        W10073   8.368   1.463   3.640
46130W        W10074  34.940  30.919   3.279
46131W        W10075  14.260   4.900   5.246
46132W        W10076  20.039  42.502  10.958
46133W        W10077   2.402  10.772   0.910
46134W        W10078  43.953   0.877  13.818
46135W        W10079  25.697  10.208  11.114
46136W        W10080  24.702  10.751  14.382
46137W        W10081  38.076   5.855   4.319
46138W        W10082  42.407   2.855   0.457
46139W        W10083  37.545  32.463   0.276
46140W        W10084  12.283   1.782   2.208
46141W        W10085  20.613  10.675  10.530
46142W        W10086  31.079  21.725   3.195
46143W        W10087  24.218   3.277  13.830
46144W        W10088  16.714  39.376   0.796
46145W        W10089  11.785  37.062   4.150
46146W        W10090  18.217  12.146  14.793
46147W        W10091  22.515   3.379   3.679
46148W        W10092  32.604  43.389  11.500
46149W        W10093  26.481  40.049   4.735
46150W        W10094  26.171  10.294   1.919
46151W        W10095  11.156  12.612  12.096
46152W        W10096  14.276  28.452   2.388
46153W        W10097   2.809  30.451   0.941
46154W        W10098  13.636  39.817  12.483
46155W        W10099  35.406  30.625  10.420
46156W        W10100  31.637  34.372   2.757
46157W        W10101   8.897  19.101   2.417
46158W        W10102  26.560   5.270  14.474
46159W        W10103  44.334   6.284   4.684
46160W        W10104  20.201  10.687   0.264
46161W        W10105  42.514  43.441   1.935
46162W        W10106  42.457  18.659  11.052
46163W        W10107  18.702  23.683  12.002
46164W        W10108  17.160  27.684  13.433
46165W        W10109  21.218  12.682  10.044
46166W        W10110  29.031  12.669   3.300
46167W        W10111  43.909  13.764  14.846
46168W        W10112  32.115  42.963   3.659
46169W        W10113   4.205   8.662   0.898
46170W        W10114  30.164  35.884  10.915
46171W        W10115  36.553   0.954  13.357
46172W        W10116  34.883  26.486  13.413
46173W        W10117  35.039  19.540  12.007
46174W        W10118  14.256  19.070  11.379
46175W        W10119  35.592  40.949  13.342
46176W        W10120  20.656  19.155   3.277
46177W        W10121  37.537  34.100  13.506
46178W        W10122   6.794  34.884  13.440
46179W        W10123  30.530  25.661  13.491
46180W        W10124  21.657  19.150   3.651
46181W        W10125  21.567   8.311  11.997
46182W        W10126  29.661  16.241   2.755
46183W        W10127  22.667  17.250   2.783
46184W        W10128   4.387  26.983   2.231
46185W        W10129  25.560  17.665  10.486
46186W        W10130   4.746   9.390   0.843
46187W        W10131   7.848   2.249  14.278
46188W        W10132   0.415   1.900  10.964
46189W        W10133  12.121  32.490   3.165
46190W        W10134   1.402  31.607   0.730
46191W        W10135   2.278  26.199   3.268
46192W        W10136  17.120  36.586   2.293
46193W        W10137   5.292   2.265  14.816
46194W        W10138  38.941   2.318  12.475
46195W        W10139  43.451  35.004  13.374
46196W        W10140  23.074  42.939   2.796
46197W        W10141   1.904  39.001  10.408
46198W        W10142  17.630  40.316   0.387
46199W        W10143  28.549  24.135  14.419
46200W        W10144  28.031  23.582   0.776
46201W        W10145  10.281  37.835  14.948
46202W        W10146  24.501   8.241  12.072
46203W        W10147  15.824  22.187   2.810
46204W        W10148  23.712  42.894  14.437
46205W        W10149  19.212  29.006  13.448
46206W        W10150  24.185  17.287  11.117
46207W        W10151  34.587  26.535   1.714
46208W        W10152  27.145  33.440   0.333
46209W        W10153   4.871  30.609  14.467
46210W        W10154  36.080  39.460   4.237
46211W        W10155  18.548  18.082   3.272
46212W        W10156  10.807  15.292  10.568
46213W        W10157  35.954  40.841  13.912
46214W        W10158   8.840  37.390   4.716
46215W        W10159  39.361  30.635   2.259
46216W        W10160  26.548   2.278   1.383
46217W        W10161   9.173  44.418   2.350
46218W        W10162  24.078  41.036  10.436
46219W        W10163  22.545  15.693  11.055
46220W        W10164  16.209   2.382   4.115
46221W        W10165  44.440  44.999  14.441
46222W        W10166  43.509  25.655  10.409
46223W        W10167  44.807  20.557   1.792
46224W        W10168   5.247  36.938   1.778
46225W        W10169   6.343  12.647  12.952
46226W        W10170   0.779  16.132   4.282
46227W        W10171  13.186  29.997  14.814
46228W        W10172  19.774  33.457   4.180
46229W        W10173  25.996  13.282  11.106
46230W        W10174  26.074  43.362  14.918
46231W        W10175   0.472  33.463  13.949
46232W        W10176  19.535   5.820   4.630
46233W        W10177  10.806  42.931   1.334
46234W        W10178  31.415  13.670  12.936
46235W        W10179  40.353  11.777   5.130
46236W        W10180  30.907  11.645   0.266
46237W        W10181  42.006  44.267  10.573
46238W        W10182  14.193  28.532  14.857
46239W        W10183   6.873  15.199   0.905
46240W        W10184  15.085  19.226  11.463
46241W        W10185  36.408   2.888  12.447
46242W        W10186   9.717  31.449   5.673
46243W        W10187  25.002  12.343   3.869
46244W        W10188  22.164   5.890   0.739
46245W        W10189   2.316  10.182  14.511
46246W        W10190  11.667   9.823  10.569
46247W        W10191  30.607  21.181  10.949
46248W        W10192  27.582  22.995  13.485
46249W        W10193  15.263  40.427  10.943
46250W        W10194  30.415   7.338   1.757
46251W        W10195  13.688  43.296  13.013
46252W        W10196  14.664  16.128  13.010
46253W        W10197   8.321  20.102  12.438
46254W        W10198  20.674   6.878   4.760
46255W        W10199   0.451  11.283   2.889
46256W        W10200  20.194   5.225  11.450
46257W        W10201  31.552  28.518   4.801
46258W        W10202  22.684  36.098  13.812
46259W        W10203  22.226  39.884   1.325
46260W        W10204  18.219  27.098   1.418
46261W        W10205  35.455  16.625   4.211
46262W        W10206  43.280  30.427   1.316
46263W        W10207  24.647  27.194   4.288
46264W        W10208  28.496   9.179  12.083
46265W        W10209  15.161  29.663  13.039
46266W        W10210  42.835  18.736   4.126
46267W        W10211  14.118  28.958   4.342
46268W        W10212  34.609   2.870  12.966
46269W        W10213  43.488   0.259   1.305
46270W        W10214   6.396  31.590   4.610
46271W        W10215  40.849  23.687  13.045
46272W        W10216  11.808  23.043  11.557
46273W        W10217  41.969  19.141  12.567
46274W        W10218  36.945  40.835   4.198
46275W        W10219  37.529  33.887   3.153
46276W        W10220  14.831  26.700  11.412
46277W        W10221  36.882  11.369   0.786
46278W        W10222  17.699  43.366   4.739
46279W        W10223   6.871  10.682  14.392
46280W        W10224  17.301  38.467   1.919
46281W        W10225  35.060  18.615   3.737
46282W        W10226   3.749  40.869   1.245
46283W        W10227   5.384   1.274   4.661
46284W        W10228  19.153   9.770  11.393
46285W        W10229  40.016  34.110  11.489
46286W        W10230  13.827   2.798  14.489
46287W        W10231  27.158   8.678   0.310
46288W        W10232  30.001  36.892  11.422
46289W        W10233   0.263  44.349   1.342
46290W        W10234  38.922  19.062   4.315
46291W        W10235  10.752  21.117   3.199
46292W        W10236   1.306  30.557   4.336
46293W        W10237  16.215  13.689   3.732
46294W        W10238  15.820  11.762   4.710
46295W        W10239  22.207   1.365   4.188
46296W        W10240   9.167  38.550   0.847
46297W        W10241  43.805  28.186   0.313
46298W        W10242   5.306  37.071   0.265
46299W        W10243  16.706  33.946  14.876
46300W        W10244  24.996   9.149  13.010
46301W        W10245  34.443  10.269   1.230
46302W        W10246  20.742  17.712   0.845
46303W        W10247   9.674   2.826   3.183
46304W        W10248  16.118  14.196   4.722
46305W        W10249  34.893  31.051  14.793
46306W        W10250  31.950  12.799   0.872
46307W        W10251   7.189  41.792   4.730
46308W        W10252  23.003   6.758  12.997
46309W        W10253  26.573  33.387   4.803
46310W        W10254  20.540  14.833   4.278
46311W        W10255  13.159  41.925   1.291
46312W        W10256  35.365  25.991  11.067
46313W        W10257  32.986  14.333  13.802
46314W        W10258  11.195  39.430   2.892
46315W        W10259  10.732  12.841  13.325
46316W        W10260  42.363  26.064  13.517
46317W        W10261  39.499  18.270  12.918
46318W        W10262   1.974  19.243  12.953
46319W        W10263  26.132  17.712   1.278
46320W        W10264  25.992  22.731  10.405
46321W        W10265   9.732  35.905  14.449
46322W        W10266  28.037   9.349   1.776
46323W        W10267  34.491  44.388   2.418
46324W        W10268   6.728  27.482  11.375
46325W        W10269  23.040   7.766   2.399
46326W        W10270  43.886  28.580  11.971
46327W        W10271  17.073  39.056   3.648
46328W        W10272   5.194  32.130  10.950
46329W        W10273  25.505  15.238  14.969
46330W        W10274  29.058  15.227  11.578
46331W        W10275  42.932  14.773   3.854
46332W        W10276  14.163  30.935  11.949
46333W        W10277   2.941  26.003  12.852
46334W        W10278  24.510   2.351   2.725
46335W        W10279  13.133  21.731   3.869
46336W        W10280  44.841  41.870   3.192
46337W        W10281   9.776  15.730  10.948
46338W        W10282   7.845   7.760  11.417
46339W        W10283  14.155  27.968  14.306
46340W        W10284  31.955  24.150   4.796
46341W        W10285  19.109  24.497   2.872
46342W        W10286   7.732  23.615  13.446
46343W        W10287  27.958  28.031  11.541
46344W        W10288   7.808  17.676  13.323
46345W        W10289  31.141   2.238   2.270
46346W        W10290   5.917   0.333   4.738
46347W        W10291  28.075  17.303   3.632
46348W        W10292   4.297  31.038  13.462
46349W        W10293  11.737   5.263  11.966
46350W        W10294   1.748  29.994  14.282
46351W        W10295  14.696  29.955   2.349
46352W        W10296  33.960  39.316  13.809
46353W        W10297  18.217  24.189   4.283
46354W        W10298  22.542  18.284  10.977
46355W        W10299  13.716   8.250   4.261
46356W        W10300   3.442  36.355  12.054
46357W        W10301  11.230  37.461   2.807
46358W        W10302  14.796  16.568   0.260
46359W        W10303  44.006   1.797   0.911
46360W        W10304  42.365  43.340  10.964
46361W        W10305   4.288   5.320  11.084
46362W        W10306   9.666  40.808   4.741
46363W        W10307  38.353  38.527  11.560
46364W        W10308  29.669  30.543  12.039
46365W        W10309  14.197   8.205  11.947
46366W        W10310  16.586  22.220  13.924
46367W        W10311  14.095  27.672  13.895
46368W        W10312  16.772  24.012  12.576
46369W        W10313  27.099   2.781   3.740
46370W        W10314   5.417  37.994   0.465
46371W        W10315   6.913   2.456  13.530
46372W        W10316   4.912   2.871  13.405
46373W        W10317  20.093  23.097  13.332
46374W        W10318  13.680  31.489  14.940
46375W        W10319  23.172   7.681  11.547
46376W        W10320  25.215  18.188  12.486
46377W        W10321   3.394  36.565  12.398
46378W        W10322  16.732  21.025   0.743
46379W        W10323  25.112  28.527   4.267
46380W        W10324  13.155  24.572  12.344
46381W        W10325  27.981  29.126   0.441
46382W        W10326   4.894  33.028  11.108
46383W        W10327  26.634  38.948  10.925
46384W        W10328  12.692  32.912   9.962
46385W        W10329   2.308  17.688   0.885
46386W        W10330   3.794   3.798   0.958
46387W        W10331  15.681  37.919  11.970
46388W        W10332  44.921  29.606  12.856
46389W        W10333  32.102  34.894   0.322
46390W        W10334  32.080  17.788   3.796
46391W        W10335   6.231   5.891  12.528
46392W        W10336  36.508  39.354   1.713
46393W        W10337  38.826   2.387   4.718
46394W        W10338  40.501   3.431  10.091
46395W        W10339  31.126  33.877   4.278
46396W        W10340  12.634  26.178   3.806
46397W        W10341  17.251  24.660  13.025
46398W        W10342  26.566  36.586  13.346
46399W        W10343  42.874  22.684  11.501
46400W        W10344  27.994  27.498   3.157
46401W        W10345  22.739  21.740  11.580
46402W        W10346  25.650  42.835  12.517
46403W        W10347  12.840  31.054   3.634
46404W        W10348  24.556  15.823   4.116
46405W        W10349  23.696  13.241   3.288
46406W        W10350  44.389   8.175  13.027
46407W        W10351  19.260  29.490  10.890
46408W        W10352  31.475  35.083   4.323
46409W        W10353   2.317  44.005  14.474
46410W        W10354  10.163  13.732   4.693
46411W        W10355  44.365  35.433   2.273
46412W        W10356  17.086  23.732   1.216
46413W        W10357  14.621  31.620  11.033
46414W        W10358  15.617  39.918  12.865
46415W        W10359  24.148  40.460   4.728
46416W        W10360  32.100  27.093   2.872
46417W        W10361  20.728  21.689  13.540
46418W        W10362  13.714   4.249   2.347
46419W        W10363  26.565  26.703   2.797
46420W        W10364  20.628  21.526  14.974
46421W        W10365  17.108  31.936  10.416
46422W        W10366   5.360   7.745   3.680
46423W        W10367   0.413  30.576  11.880
46424W        W10368  35.951  40.912  11.066
46425W        W10369  36.371  18.550  14.371
46426W        W10370  11.369  32.620  10.977
46427W        W10371  40.023  29.921  11.888
46428W        W10372  17.069   9.260   5.147
46429W        W10373  28.062  13.659  12.061
46430W        W10374  10.210  24.672   4.274
46431W        W10375  33.490   8.856   0.408
46432W        W10376  16.097  27.036  14.978
46433W        W10377   5.355   4.856   2.304
46434W        W10378   5.771  18.173  13.909
46435W        W10379  27.185  13.221  12.445
46436W        W10380   0.293  33.605  11.431
46437W        W10381   0.250  26.621  11.570
46438W        W10382   0.989  12.148  11.961
46439W        W10383  43.402   4.279  11.956
46440W        W10384  44.810  18.138   0.865
46441W        W10385  23.530  37.411   3.684
46442W        W10386  21.646  42.821   4.176
46443W        W10387  25.536   9.211  11.978
46444W        W10388  37.410  33.450  14.424
46445W        W10389  36.444  26.951  14.307
46446W        W10390  40.029  30.585   4.821
46447W        W10391  25.192  38.851   2.312
46448W        W10392  24.110  26.703  12.473
46449W        W10393  19.285  44.364  14.797
46450W        W10394   9.271  32.420  10.113
46451W        W10395  21.569  42.319   3.358
46452W        W10396  26.550  13.627  13.408
46453W        W10397  18.762  35.975  11.555
46454W        W10398  27.578   9.702  13.900
46455W        W10399  15.676  38.383  14.017
46456W        W10400   4.793  32.117   0.272
46457W        W10401  27.087  13.300   2.320
46458W        W10402  31.591  11.696   3.699
46459W        W10403  43.938   6.269   4.292
46460W        W10404  18.713   2.313  12.946
46461W        W10405  14.800  44.918  12.842
46462W        W10406  15.583  36.349  11.034
46463W        W10407  15.738  44.990  11.934
46464W        W10408  41.372  44.419   3.165
46465W        W10409  33.985  22.607   3.806
46466W        W10410  27.556  28.482   0.859
46467W        W10411  33.906  33.462  11.013
46468W        W10412  16.169  25.665  12.977
46469W        W10413  15.243  13.183  14.502
46470W        W10414   6.701  17.634   5.295
46471W        W10415  43.947  20.615   0.780
46472W        W10416  34.893  18.290  13.436
46473W        W10417  16.273  24.995   0.458
46474W        W10418  38.393  34.071   1.855
46475W        W10419  23.040  19.600  12.934
46476W        W10420  21.209  19.263  14.861
46477W        W10421   5.812  29.023   4.295
46478W        W10422   7.674  43.786  12.076
46479W        W10423  19.191  37.509   4.643
46480W        W10424  13.291  28.986   1.235
46481W        W10425  41.930  19.706   4.830
46482W        W10426   5.248  29.637  13.403
46483W        W10427   9.226   0.344  13.416
46484W        W10428   4.398  42.953  13.859
46485W        W10429  13.620   0.394   3.680
46486W        W10430  26.538   5.401  11.372
46487W        W10431  14.770  14.237   4.793
46488W        W10432  19.223  18.764   0.924
46489W        W10433   1.237  11.353  12.963
46490W        W10434  27.674  28.441   0.447
46491W        W10435  18.788  20.264   2.298
46492W        W10436  33.127  42.358   4.733
46493W        W10437  14.229  23.715  12.029
46494W        W10438  30.006  30.910   2.207
46495W        W10439  29.051  23.528   1.225
46496W        W10440  25.511  35.917  10.594
46497W        W10441  39.351  12.722  10.448
46498W        W10442  41.388   2.439  14.389
46499W        W10443  16.077  30.968  13.326
46500W        W10444  19.646  16.151  14.023
46501W        W10445  29.476  40.866   1.737
46502W        W10446  19.624  14.317   3.199
46503W        W10447  33.899  23.523  11.583
46504W        W10448   2.443   5.853   0.409
46505W        W10449  20.645   7.236  13.318
46506W        W10450  18.734  35.004   2.663
46507W        W10451  29.579  40.838   2.234
46508W        W10452  39.066  30.939   3.784
46509W        W10453  24.000  27.163  13.322
46510W        W10454  12.704   7.861   0.849
46511W        W10455  29.950   1.809   4.722
46512W        W10456  21.550  43.319  14.326
46513W        W10457   4.278  16.111   1.859
46514W        W10458   7.171  22.522   1.768
46515W        W10459  39.995   2.773  13.395
46516W        W10460  31.634   4.927   1.770
46517W        W10461  43.500  29.542   0.348
46518W        W10462  33.594   4.235  13.502
46519W        W10463   1.447  21.251   3.330
46520W        W10464  44.858  20.091   3.242
46521W        W10465  25.634  26.996  13.064
46522W        W10466  38.032  44.377   2.668
46523W        W10467  36.377  13.705  12.871
46524W        W10468  14.748   0.885  14.431
46525W        W10469  23.602  10.645  13.320
46526W        W10470  35.958  22.603  13.455
46527W        W10471  44.810  20.735  12.094
46528W        W10472  16.271  39.339   0.319
46529W        W10473  38.549   7.833  13.472
46530W        W10474  17.732   1.883   1.364
46531W        W10475  35.470  40.413  14.460
46532W        W10476  31.642  38.902   0.249
46533W        W10477  31.471  11.201  10.615
46534W        W10478  44.897  14.219   1.226
46535W        W10479   2.267  14.756   3.195
46536W        W10480  24.168  25.491   0.818
46537W        W10481  32.043  19.274  10.543
46538W        W10482  39.035  43.940  14.365
46539W        W10483  39.377  26.646  13.886
46540W        W10484  41.373  19.161  10.962
46541W        W10485  29.154  19.239   2.709
46542W        W10486  39.430   2.943  13.827
46543W        W10487   5.296   5.738   2.707
46544W        W10488  35.523  16.738  14.328
46545W        W10489  30.945  28.164   4.630
46546W        W10490  12.251  25.174  12.895
46547W        W10491   8.754  28.465   0.879
46548W        W10492  10.832  13.304   1.430
46549W        W10493  31.095  14.096   1.763
46550W        W10494  10.320  24.561   1.425
46551W        W10495  37.550   4.839  11.505
46552W        W10496  18.565  13.321   1.894
46553W        W10497  32.538  27.996  12.505
46554W        W10498  11.336   9.824   3.669
46555W        W10499  39.975   8.347   1.397
46556W        W10500   8.376  27.089  10.629
46557W        W10501  43.376  28.017  13.878
46558W        W10502  44.443  38.022  11.099
46559W        W10503  33.458   3.950  11.448
46560W        W10504  16.081   0.752   3.636
46561W        W10505  38.887  32.576  10.521
46562W        W10506  22.205   4.698  14.936
46563W        W10507  28.598  17.245   5.149
46564W        W10508  21.074  31.051   2.761
46565W        W10509   6.883   9.647  13.429
46566W        W10510   2.457  24.013   0.810
46567W        W10511   8.237   2.897   0.447
46568W        W10512  12.127   3.294   1.393
46569W        W10513  13.627  34.065  11.442
46570W        W10514  18.053   9.799  13.015
46571W        W10515   3.903  39.385   3.720
46572W        W10516   8.220  34.947   2.338
46573W        W10517  38.438  44.425   3.171
46574W        W10518   9.224  40.965  12.452
46575W        W10519  33.880  10.248   1.786
46576W        W10520  32.595   1.332  13.864
46577W        W10521  19.653  21.755  12.380
46578W        W10522  34.018  18.690  13.485
46579W        W10523  20.127   2.274   1.388
46580W        W10524  16.807  11.144  11.921
46581W        W10525  15.099   7.743  13.498
46582W        W10526  35.974  38.026   4.352
46583W        W10527  29.438  28.584   3.809
46584W        W10528  30.140  42.509  11.978
46585W        W10529  27.166   9.172   4.707
46586W        W10530  44.970  10.791   4.621
46587W        W10531  39.432  17.652  12.570
46588W        W10532  21.658  41.813  12.496
46589W        W10533   3.321  25.492  13.415
46590W        W10534  42.794  19.757   3.853
46591W        W10535  16.701  20.256  12.954
46592W        W10536  15.738   0.756  10.424
46593W        W10537  22.118  41.959  14.505
46594W        W10538   0.934  15.697   2.891
46595W        W10539  27.125  14.626   3.305
46596W        W10540   4.713   9.736  13.434
46597W        W10541   8.715  19.759  12.950
46598W        W10542  24.221  35.513  11.929
46599W        W10543  38.004  19.751  14.993
46600W        W10544  11.657  18.663   0.482
46601W        W10545  27.656  38.528   0.810
46602W        W10546  20.208  25.080  14.364
46603W        W10547   0.945  13.675  11.994
46604W        W10548  17.289  14.809   1.723
46605W        W10549  25.193  20.060  11.376
46606W        W10550  32.499   8.883   3.184
46607W        W10551   8.300  35.974  14.004
46608W        W10552  13.116  34.904   1.275
46609W        W10553  23.096  41.884   2.855
46610W        W10554  17.666  35.460  11.947
46611W        W10555   6.371   1.261  11.612
46612W        W10556  18.670  21.200  10.039
46613W        W10557  30.149  38.955  11.119
46614W        W10558  31.117  31.945   4.793
46615W        W10559  44.459  30.556   3.374
46616W        W10560  43.331  27.659  12.029
46617W        W10561  22.159  31.921  12.071
46618W        W10562  37.891   1.312  13.063
46619W        W10563  15.288  42.999  13.432
46620W        W10564  22.657   9.200   1.432
46621W        W10565   2.406  10.807   0.373
46622W        W10566   0.430   8.764   3.191
46623W        W10567  44.802   0.924   1.402
46624W        W10568  43.388  42.513   1.234
46625W        W10569  18.192  44.850  12.934
46626W        W10570  20.753  11.172  14.844
46627W        W10571  20.201   9.824  14.925
46628W        W10572   2.423   4.826   5.586
46629W        W10573   6.252  30.010  14.439
46630W        W10574  14.275  14.721   5.100
46631W        W10575   8.762   1.824   4.796
46632W        W10576  15.122   9.658   2.851
46633W        W10577  16.122  29.086   0.959
46634W        W10578  21.081  10.169  11.568
46635W        W10579   8.268  10.690   1.418
46636W        W10580  25.208  19.631  13.421
46637W        W10581  38.845  26.108  13.885
46638W        W10582   5.934  43.952   1.368
46639W        W10583  42.856  29.471   2.213
46640W        W10584  31.446   3.854   2.827
46641W        W10585  31.555  28.492   4.206
46642W        W10586  33.089  27.484  12.843
46643W        W10587  12.119   0.427  14.796
46644W        W10588  38.958  22.683  11.477
46645W        W10589  17.750  27.621   4.232
46646W        W10590   5.804   8.834  12.921
46647W        W10591  29.499  20.174   0.367
46648W        W10592  11.768   5.785  10.613
46649W        W10593  23.013  15.092  13.815
46650W        W10594   4.355  20.764   4.261
46651W        W10595   6.428  24.995  12.930
46652W        W10596  36.058  27.660   2.290
46653W        W10597  27.587  36.476  11.488
46654W        W10598   9.378  37.364   1.429
46655W        W10599  17.295  42.901  14.503
46656W        W10600  25.055  23.706   2.204
46657W        W10601  43.476   7.787  12.404
46658W        W10602   9.193  25.084   1.851
46659W        W10603  27.530   8.787   4.182
46660W        W10604   8.348  44.775  13.310
46661W        W10605  18.623  23.230  13.523
46662W        W10606   7.678  17.765   9.954
46663W        W10607  39.827  37.011  10.972
46664W        W10608  31.478   5.312  12.374
46665W        W10609  25.519  35.050   2.858
46666W        W10610  31.086  15.324   0.784
46667W        W10611  11.154  27.067  14.944
46668W        W10612  43.792  21.130  11.439
46669W        W10613   4.287  25.039  12.873
46670W        W10614  11.238  27.094  14.483
46671W        W10615  18.727  40.821  10.908
46672W        W10616  11.297  10.243   3.164
46673W        W10617  19.738  40.310   0.931
46674W        W10618  17.797  39.883   2.344
46675W        W10619  28.936  26.700  13.363
46676W        W10620  27.174  19.150  11.053
46677W        W10621  41.838  43.506  13.012
46678W        W10622  13.232   4.287  11.543
46679W        W10623  30.420  28.625   4.192
46680W        W10624  39.489  32.565   0.260
46681W        W10625  32.637  22.518  13.381
46682W        W10626  19.724   6.847  11.384
46683W        W10627  41.040  38.491   4.120
46684W        W10628  24.678   0.882  13.547
46685W        W10629   7.319  37.901   2.720
46686W        W10630  37.508  16.677   4.773
46687W        W10631  29.498  39.523   2.731
46688W        W10632  10.314  43.482   3.317
46689W        W10633  38.337  14.645  13.015
46690W        W10634  26.980  27.177   4.755
46691W        W10635   4.349  14.260  14.956
46692W        W10636  26.017  13.212   2.188
46693W        W10637  32.127  12.798  10.619
46694W        W10638  12.676   2.725   2.305
46695W        W10639  33.122   7.779   3.785
46696W        W10640   2.909  20.056  14.802
46697W        W10641  27.171   9.830   4.805
46698W        W10642  17.644   6.874   5.304
46699W        W10643  33.618   9.242  14.318
46700W        W10644   8.766  41.300   4.302
46701W        W10645  41.977  39.340   4.724
46702W        W10646  44.289  38.997  13.325
46703W        W10647  29.640  23.531  14.782
46704W        W10648   1.843  13.243  14.982
46705W        W10649   8.371  14.717   0.768
46706W        W10650  28.049  15.308   4.139
46707W        W10651  27.124  31.492  10.608
46708W        W10652  42.340  28.091  12.536
46709W        W10653  17.211  33.074  14.968
46710W        W10654  19.093   7.706   2.751
46711W        W10655  24.085   8.239  12.941
46712W        W10656  15.776   3.450  14.866
46713W        W10657  16.663  11.144   4.227
46714W        W10658  16.667  11.700  10.921
46715W        W10659  38.042   2.229   3.188
46716W        W10660   9.198  29.478  10.144
46717W        W10661  32.398  31.601  13.816
46718W        W10662  25.067  30.625  10.976
46719W        W10663  14.125   8.188   1.238
46720W        W10664  35.075  37.500  13.947
46721W        W10665  26.481   4.828  12.948
46722W        W10666   7.284   3.402   5.307
46723W        W10667  20.029  39.860   0.303
46724W        W10668  16.742  24.108  13.544
46725W        W10669  15.144  31.903   9.664
46726W        W10670  42.501   1.463   1.417
46727W        W10671  36.051  30.516   2.413
46728W        W10672  12.637  44.382  10.939
46729W        W10673  22.241  20.055   2.363
46730W        W10674  10.762  37.928  12.086
46731W        W10675  35.968   0.915  11.935
46732W        W10676   8.236  43.356  10.528
46733W        W10677  39.470  24.564  10.427
46734W        W10678  20.101  26.477   0.303
46735W        W10679  30.524  11.267  10.442
46736W        W10680  33.105  40.967  12.458
46737W        W10681  23.017  33.393   0.836
46738W        W10682  17.237   3.791   4.788
46739W        W10683  42.298  37.916  12.372
46740W        W10684   4.352  40.495  13.869
46741W        W10685  28.471   5.366  12.037
46742W        W10686  28.570   6.861  10.918
46743W        W10687  14.698  15.811   2.354
46744W        W10688  41.470  31.068  10.907
46745W        W10689  21.227  26.117  13.411
46746W        W10690  17.600  18.098  11.591
46747W        W10691  35.484  30.148   0.852
46748W        W10692  41.350  22.595  12.846
46749W        W10693  44.403   3.443   0.869
46750W        W10694   3.292  11.327  11.378
46751W        W10695  35.908  21.064   2.217
46752W        W10696  26.575  10.238  14.422
46753W        W10697  39.374  20.070  12.999
46754W        W10698  39.899   3.251  11.503
46755W        W10699   4.860   2.892  12.010
46756W        W10700  26.470  29.940  10.409
46757W        W10701  41.017  26.963   3.866
46758W        W10702  26.591  26.087   2.363
46759W        W10703  21.651  42.315   4.740
46760W        W10704  26.555  19.269  13.477
46761W        W10705   8.771  17.630   2.713
46762W        W10706  11.254  28.151   4.824
46763W        W10707  13.348  17.775   3.718
46764W        W10708  29.040  17.278  12.443
46765W        W10709  39.892  15.188  13.347
46766W        W10710  30.922  40.485   2.262
46767W        W10711  12.175  25.616   2.864
46768W        W10712  14.166  26.044   1.433
46769W        W10713  37.406  20.687  12.905
46770W        W10714   7.290  35.856  13.914
46771W        W10715   6.867  13.715   2.306
46772W        W10716  35.425  16.665  10.534
46773W        W10717  26.692  40.404   4.184
46774W        W10718  19.139  21.152  12.978
46775W        W10719  15.654  21.121   3.674
46776W        W10720  32.410  36.952   1.837
46777W        W10721  18.140  16.137   4.835
46778W        W10722  37.983  42.977  14.827
46779W        W10723  33.989   1.910  14.366
46780W        W10724  27.167  26.570   1.377
46781W        W10725  18.729   2.404   2.803
46782W        W10726  40.366  13.823   3.264
46783W        W10727  32.123  34.371   0.792
46784W        W10728  19.152  44.492   0.277
46785W        W10729  13.337  36.350  12.376
46786W        W10730  31.129  29.652   4.330
46787W        W10731  38.447  12.353  14.950
46788W        W10732  13.705  16.154  12.886
46789W        W10733  25.189   1.830  12.403
46790W        W10734  15.159   3.779  10.627
46791W        W10735  38.525  18.227   2.376
46792W        W10736  10.327   2.339   5.258
46793W        W10737  16.136  31.026  14.313
46794W        W10738   1.369  30.123   0.943
46795W        W10739  10.681  19.262  11.430
46796W        W10740  40.845  23.989   3.171
46797W        W10741  33.491  21.071  13.435
46798W        W10742  21.091  29.639  11.528
46799W        W10743  10.691   3.414   0.295
46800W        W10744  43.419  16.312  14.022
46801W        W10745  21.199  11.740   4.135
46802W        W10746  36.886   6.272  10.047
46803W        W10747  26.180  39.061  11.961
46804W        W10748   5.275  30.547   4.167
46805W        W10749  23.029  30.911  12.415
46806W        W10750  26.133  41.953   0.291
46807W        W10751  41.819  35.491  14.979
46808W        W10752  10.223  28.980  13.874
46809W        W10753  23.089  26.087  12.084
46810W        W10754  31.581  11.811   2.273
46811W        W10755   1.893   0.384  10.922
46812W        W10756  10.736  22.156   2.828
46813W        W10757  39.483  33.893   4.184
46814W        W10758  36.928  42.500   2.294
46815W        W10759   3.814  10.639  10.460
46816W        W10760  24.544  33.009  14.019
46817W        W10761  38.899  35.107   3.796
46818W        W10762  12.772  24.211   1.350
46819W        W10763  11.153  19.212  14.459
46820W        W10764  10.283  17.744   0.423
46821W        W10765  40.365  10.161   5.293
46822W        W10766  42.292  10.749  11.454
46823W        W10767  18.646  42.028  13.335
46824W        W10768  15.129  17.634  10.518
46825W        W10769  23.181  43.336   3.677
46826W        W10770  23.171  17.194  11.051
46827W        W10771   6.729  26.168  12.026
46828W        W10772  30.574  24.550  11.455
46829W        W10773  13.650  43.899  11.873
46830W        W10774  33.600   6.744   0.282
46831W        W10775   1.801   7.857   3.727
46832W        W10776   5.321  39.052  14.932
46833W        W10777  21.636  41.852   1.886
46834W        W10778  26.666   5.433   4.279
46835W        W10779  40.838   9.193  13.966
46836W        W10780  26.951  31.114   3.781
46837W        W10781   7.832  16.087   1.287
46838W        W10782  29.496  10.152  14.985
46839W        W10783  11.309   5.194  12.025
46840W        W10784  44.395  33.928  13.432
46841W        W10785  42.512  22.162   3.333
46842W        W10786  13.711  18.765   1.746
46843W        W10787  43.311  43.804  10.430
46844W        W10788  31.603  41.802  14.508
46845W        W10789  40.490   9.209  10.573
46846W        W10790  34.901  34.050   4.600
46847W        W10791  21.586  26.081  13.875
46848W        W10792  38.496  19.754   0.948
46849W        W10793  43.278  21.732  13.806
46850W        W10794   4.439  13.339  13.449
46851W        W10795  17.235   4.282  10.463
46852W        W10796  40.917   8.351  12.860
46853W        W10797  29.470  12.342   4.150
46854W        W10798  39.339  31.602  11.974
46855W        W10799  30.055  38.410  10.960
46856W        W10800  41.028  36.955   1.694
46857W        W10801  29.573  36.084   4.749
46858W        W10802  31.028  12.241   4.214
46859W        W10803  23.053  22.647  13.017
46860W        W10804  35.547  26.542   2.745
46861W        W10805  11.687  39.015   3.189
46862W        W10806  12.310  39.912   4.771
46863W        W10807  26.548  37.490   2.293
46864W        W10808   5.279  34.430   2.873
46865W        W10809  44.919  35.464   4.333
46866W        W10810   5.352  36.523   4.164
46867W        W10811  39.849  28.019  10.989
46868W        W10812  38.458   9.729   2.692
46869W        W10813  19.652  25.178   3.231
46870W        W10814  40.993   3.443   4.627
46871W        W10815   3.857   9.868  13.803
46872W        W10816  24.996   2.944  14.286
46873W        W10817   1.868  23.733   0.479
46874W        W10818  32.060  14.767   1.717
46875W        W10819  12.647  32.122  11.447
46876W        W10820  18.658  27.161  10.982
46877W        W10821  44.768  16.125   1.817
46878W        W10822  29.642  30.970   2.767
46879W        W10823  26.458  13.798  13.803
46880W        W10824  17.636  41.851   4.117
46881W        W10825   7.825  25.551  12.010
46882W        W10826  11.146  17.241   0.940
46883W        W10827   5.343  15.806   1.736
46884W        W10828  39.953  21.039   0.479
46885W        W10829  28.643  42.940   0.367
46886W        W10830  11.302  24.012   1.694
46887W        W10831  40.850  19.741  14.785
46888W        W10832  14.213  28.514  10.459
46889W        W10833   2.293   7.313  10.994
46890W        W10834  17.637  12.811  11.419
46891W        W10835  17.207  10.165   2.818
46892W        W10836  32.021  36.498   1.823
46893W        W10837   9.228  16.243   1.226
46894W        W10838  38.854   4.383   9.944
46895W        W10839  35.435  12.221   3.783
46896W        W10840  24.484  23.116  12.531
46897W        W10841  37.022  24.516   1.259
46898W        W10842  31.977  19.577   1.268
46899W        W10843  43.993  27.159   1.854
46900W        W10844  10.288   8.837   3.378
46901W        W10845  27.514  30.532  10.424
46902W        W10846  34.105   4.371   1.836
46903W        W10847  12.212  24.715  11.433
46904W        W10848  30.912  34.452  10.940
46905W        W10849  40.537  10.383   4.240
46906W        W10850   2.965   1.418  12.958
46907W        W10851  26.696  18.279   0.792
46908W        W10852   9.768   9.214   1.234
46909W        W10853  21.217  41.805   2.197
46910W        W10854  12.351   8.374  10.498
46911W        W10855  18.663  40.843   3.674
46912W        W10856  33.955  18.166   4.699
46913W        W10857  34.087  37.908  11.515
46914W        W10858  14.819  24.589   2.326
46915W        W10859  26.502  31.929  14.298
46916W        W10860  25.182  20.658   4.676
46917W        W10861   2.948   0.970   1.325
46918W        W10862  37.401  11.754   1.914
46919W        W10863  14.694   7.297  13.043
46920W        W10864  39.435   0.473  14.441
46921W        W10865  24.139  19.657   4.341
46922W        W10866  35.876   8.731  13.052
46923W        W10867  18.763  15.617  13.529
46924W        W10868  15.769   0.481   3.386
46925W        W10869   7.699  18.225  12.575
46926W        W10870  20.098  38.959  10.086
46927W        W10871  11.282   9.736   4.621
46928W        W10872  42.355   2.262  14.009
46929W        W10873  43.477  18.672  11.094
46930W        W10874  28.043   6.869  10.898
46931W        W10875  30.082  23.991   4.677
46932W        W10876  28.539   1.972   3.790
46933W        W10877  19.116  25.092  10.155
46934W        W10878   6.826  15.302   3.231
46935W        W10879  23.199  34.405   4.133
46936W        W10880  10.231   1.822   0.410
46937W        W10881  11.329   7.708   3.828
46938W        W10882  10.303   4.314   4.338
46939W        W10883  25.167  36.062   0.816
46940W        W10884   5.931  31.117   3.735
46941W        W10885  42.877   3.369   0.341
46942W        W10886  33.972   4.428  13.542
46943W        W10887  34.007   3.719   3.730
46944W        W10888   3.787  41.009  14.456
46945W        W10889  17.079   7.341  13.450
46946W        W10890  15.102  29.556  12.443
46947W        W10891  31.449   4.730  14.303
46948W        W10892  39.927  13.319  11.542
46949W        W10893  35.967  39.889   1.725
46950W        W10894  31.521  13.222   0.787
46951W        W10895  33.946  36.849   3.644
46952W        W10896  34.099  16.103  12.979
46953W        W10897  16.171  40.537   1.748
46954W        W10898  12.718  42.817   0.899
46955W        W10899   9.213  28.097  10.076
46956W        W10900  25.963  24.991  13.998
46957W        W10901  36.534   2.919  14.843
46958W        W10902  44.901   6.345   3.278
46959W        W10903  38.848  21.088   0.313
46960W        W10904   7.265   1.957  11.521
46961W        W10905   2.305  36.563  14.906
46962W        W10906  38.954  31.589   2.722
46963W        W10907  26.148  26.559  14.880
46964W        W10908  31.957  35.420  13.517
46965W        W10909  37.969  38.986   4.683
46966W        W10910   7.805  28.480   4.259
46967W        W10911   7.883  22.083   1.935
46968W        W10912  30.581  31.125   3.240
46969W        W10913  23.589  40.890  13.888
46970W        W10914  18.767   5.934  13.449
46971W        W10915   8.253  40.309   4.836
46972W        W10916  23.147  39.951  11.502
46973W        W10917  25.090  23.622   3.252
46974W        W10918  11.767   8.856  10.535
46975W        W10919  11.868  24.014   1.369
46976W        W10920  32.105  34.454  14.388
46977W        W10921  41.433  16.799   1.378
46978W        W10922  21.532  24.064  14.516
46979W        W10923  36.908  37.409  13.809
46980W        W10924  34.531  25.150  14.942
46981W        W10925  36.879   5.330  10.521
46982W        W10926  25.504   4.829   1.237
46983W        W10927   0.878   7.330  12.380
46984W        W10928   5.314  24.644  13.983
46985W        W10929  40.329  23.170   2.864
46986W        W10930  38.434  12.182  14.501
46987W        W10931   4.888  22.713   0.262
46988W        W10932  35.402  44.973   0.447
46989W        W10933  14.167  33.505   0.388
46990W        W10934  25.684  10.687   1.904
46991W        W10935  42.286  19.267  13.497
46992W        W10936  32.911   7.865   4.772
46993W        W10937  28.109  38.037   4.347
46994W        W10938  10.241  42.441   0.776
46995W        W10939  40.934  34.103   2.360
46996W        W10940  10.287  33.984  13.982
46997W        W10941  34.435  43.971   4.193
46998W        W10942  14.340  43.463  13.822
46999W        W10943   7.771  20.207  12.420
47000W        W10944  10.322  22.506   0.379
47001W        W10945  31.115   2.777  12.406
47002W        W10946   6.882   8.197   3.205
47003W        W10947  32.066  34.897   3.353
47004W        W10948  16.170  14.779  10.443
47005W        W10949  16.297   5.868  11.887
47006W        W10950  17.110  42.437  10.535
47007W        W10951  35.937  15.738  14.906
47008W        W10952  41.805   2.809  12.976
47009W        W10953  31.500  40.945   3.745
47010W        W10954   5.236  37.347  13.881
47011W        W10955   6.371  25.975  10.635
47012W        W10956  15.767  20.604   2.416
47013W        W10957  33.904   9.770  10.440
47014W        W10958   3.735  10.162  13.866
47015W        W10959  32.066  41.324  14.964
47016W        W10960  13.346  13.607  10.581
47017W        W10961  41.532   9.785  14.381
47018W        W10962   9.711  40.940  11.572
47019W        W10963   3.770  11.851  13.312
47020W        W10964  32.420  31.440  14.310
47021W        W10965  11.678  22.209  11.515
47022W        W10966  15.119  33.562   3.225
47023W        W10967  29.036   5.285  12.572
47024W        W10968   1.320  13.742  11.487
47025W        W10969   9.757  14.305   2.236
47026W        W10970  23.609  27.948  12.461
47027W        W10971  42.973  44.961  13.970
47028W        W10972  17.257  10.734   0.899
47029W        W10973  25.705   1.456  12.363
47030W        W10974  13.123   7.876   0.407
47031W        W10975  42.916  21.232   2.735
47032W        W10976  35.051  12.191  11.119
47033W        W10977  25.031  34.576   3.742
47034W        W10978   3.345  36.962   4.731
47035W        W10979  30.415  19.277  13.386
47036W        W10980  43.969   1.302   1.245
47037W        W10981  33.880   6.258  14.469
47038W        W10982  33.519  43.500  14.354
47039W        W10983  37.949  29.664   4.114
47040W        W10984  34.921  24.216  12.879
47041W        W10985  29.166  31.145  13.478
47042W        W10986  44.959  24.566   2.896
47043W        W10987  29.448  39.452  14.406
47044W        W10988   1.406  18.284  11.885
47045W        W10989  44.795  11.169  12.494
47046W        W10990   4.389  27.531   1.343
47047W        W10991  32.424  39.512   3.384
47048W        W10992  21.155  42.335  13.010
47049W        W10993  20.056  42.359  14.455
47050W        W10994  40.407  18.092   4.788
47051W        W10995  20.243  31.147  14.483
47052W        W10996  43.825  14.340  14.429
47053W        W10997  39.949  23.708  10.423
47054W        W10998  20.628   9.768  14.320
47055W        W10999  24.213  38.940  11.080
47056W        W11000   5.709  17.744  13.820
47057W        W11001  33.525  10.317  12.065
47058W        W11002   8.317  13.174  11.430
47059W        W11003  24.652   3.442  11.484
47060W        W11004  19.040  13.674  14.001
47061W        W11005   6.412  44.991   2.695
47062W        W11006  28.440   2.407  13.940
47063W        W11007   6.318   1.825   3.637
47064W        W11008  21.093  30.472   4.246
47065W        W11009  40.832  37.487  12.913
47066W        W11010   4.902   5.792   0.780
47067W        W11011   9.724  35.512   1.356
47068W        W11012  23.507  30.061   0.390
47069W        W11013  11.661  30.916   2.227
47070W        W11014  10.258  44.343   0.826
47071W        W11015  42.807  14.669   4.778
47072W        W11016  27.112  41.332  13.793
47073W        W11017   4.396  36.842   3.331
47074W        W11018   5.764  15.732   2.723
47075W        W11019  10.235  42.788   1.405
47076W        W11020  12.727  42.430   4.615
47077W        W11021  24.533  27.079   4.804
47078W        W11022  13.759  36.890  10.403
47079W        W11023  35.373  34.010   3.282
47080W        W11024  29.471   3.926  11.030
47081W        W11025   6.793  40.386  14.875
47082W        W11026  30.009  35.042   1.778
47083W        W11027   0.303   6.859   0.776
47084W        W11028  30.929  24.523   4.692
47085W        W11029  24.495  36.575  10.526
47086W        W11030  40.881  21.680  10.904
47087W        W11031  34.027  37.955  12.085
47088W        W11032  43.793   5.879   1.449
47089W        W11033   3.324  25.701  12.560
47090W        W11034  25.612  10.281  12.043
47091W        W11035  30.611  25.970  14.975
47092W        W11036  19.771  10.342   3.157
47093W        W11037  26.519  38.331  10.078
47094W        W11038  42.496  41.440  13.308
47095W        W11039   5.245  11.206  13.364
47096W        W11040  20.148  21.184  12.848
47097W        W11041   1.312  15.773   3.153
47098W        W11042  28.573   0.392  13.930
47099W        W11043  37.064  20.254  10.983
47100W        W11044  20.135  12.305  14.328
47101W        W11045  33.620  38.831  13.876
47102W        W11046   4.327   2.245   1.447
47103W        W11047  11.196  43.945  13.829
47104W        W11048  32.958  20.206  10.599
47105W        W11049   6.377  44.454   5.254
47106W        W11050  28.526   1.764   2.395
47107W        W11051  29.919  34.389   4.721
47108W        W11052  27.470  26.956  11.424
47109W        W11053  37.895   4.385  14.775
47110W        W11054  32.969   2.849   3.192
47111W        W11055   5.764  39.489  13.476
47112W        W11056  12.134  19.208  11.991
47113W        W11057  27.964   4.862   4.612
47114W        W11058  12.778  39.879   0.253
47115W        W11059  16.298  20.756   4.652
47116W        W11060  25.645  43.492  14.924
47117W        W11061  44.806  14.821  12.045
47118W        W11062  39.490  44.481   0.323
47119W        W11063  12.731  14.262   2.801
47120W        W11064  33.931  36.005   1.437
47121W        W11065  15.820  18.586  12.974
47122W        W11066  18.721   6.200  11.042
47123W        W11067   3.328  32.413   4.286
47124W        W11068  29.018   3.742   0.817
47125W        W11069  15.191  36.044  11.023
47126W        W11070  19.779  30.459   2.381
47127W        W11071  36.002  33.415   4.836
47128W        W11072  42.450   6.220  13.992
47129W        W11073  25.094  40.020  10.923
47130W        W11074  38.535  17.707   0.450
47131W        W11075  26.183   4.236   0.466
47132W        W11076  30.659  18.151   3.183
47133W        W11077  34.530  35.534   4.771
47134W        W11078  28.542  31.508  11.520
47135W        W11079  42.346  29.576  13.458
47136W        W11080  40.030  39.317  12.547
47137W        W11081  10.855  32.532   0.925
47138W        W11082   3.352  26.551  12.432
47139W        W11083  35.489   2.238   0.342
47140W        W11084  35.093  14.245  12.874
47141W        W11085  11.276  43.386   4.193
47142W        W11086  30.616  37.404   4.779
47143W        W11087   9.274  22.068  12.886
47144W        W11088   1.889  37.367  11.612
47145W        W11089  33.384  11.353   3.319
47146W        W11090  19.264  14.248   1.290
47147W        W11091  44.811  31.110   3.206
47148W        W11092  44.343  23.180   1.338
47149W        W11093   0.443  13.654   1.326
47150W        W11094  16.787  36.386  13.010
47151W        W11095  12.235   5.315   3.319
47152W        W11096   5.705  30.505   0.269
47153W        W11097  44.333  19.548  10.928
47154W        W11098   4.272  23.584  10.919
47155W        W11099  39.354  42.898  12.864
47156W        W11100  25.617  11.186   0.873
47157W        W11101   9.248  41.902  11.889
47158W        W11102  27.950   3.433  14.875
47159W        W11103  14.705   3.867  13.016
47160W        W11104  44.313  30.616   4.349
47161W        W11105  21.661   2.253   2.240
47162W        W11106   3.781  41.428   3.294
47163W        W11107  33.518  28.496   4.155
47164W        W11108  25.049   2.397  14.379
47165W        W11109  39.819  26.975  12.025
47166W        W11110  29.474  41.042  10.970
47167W        W11111  26.467  35.949   2.765
47168W        W11112  36.350  15.193  14.406
47169W        W11113  20.750  33.916   4.712
47170W        W11114  39.356  20.180  12.034
47171W        W11115  41.803   4.803  10.547
47172W        W11116  31.608   5.329   1.918
47173W        W11117  20.736  19.123  11.573
47174W        W11118  29.099  17.306   0.417
47175W        W11119  12.280  36.090  14.372
47176W        W11120  22.234  28.999  11.415
47177W        W11121  19.667   6.278   2.790
47178W        W11122  19.721  10.358   1.722
47179W        W11123  10.651  14.116  13.949
47180W        W11124   5.419  16.288   2.883
47181W        W11125  19.650  40.474   1.769
47182W        W11126  30.098  39.876   3.186
47183W        W11127  41.938  39.559  14.956
47184W        W11128   4.289  18.644   2.696
47185W        W11129  44.263  10.731  12.096
47186W        W11130  10.161  32.087  13.358
47187W        W11131  39.934   6.869   2.251
47188W        W11132  27.030  33.103   3.327
47189W        W11133  23.588  16.178  14.451
47190W        W11134  23.205   4.704   2.331
47191W        W11135  29.143  24.057   3.668
47192W        W11136  14.667   3.862  10.525
47193W        W11137  37.985  40.484   3.850
47194W        W11138  16.107  42.804   3.693
47195W        W11139   2.324  38.481  12.862
47196W        W11140  35.050  43.951  12.868
47197W        W11141  17.693  22.651  11.477
47198W        W11142  39.339  34.971   3.362
47199W        W11143  44.956  26.960   3.290
47200W        W11144   7.852  19.707   0.413
47201W        W11145  41.319  25.207   3.226
47202W        W11146   0.765  33.390   2.339
47203W        W11147  17.628  26.067   1.792
47204W        W11148  33.000  18.602   3.182
47205W        W11149  11.328  15.296   0.355
47206W        W11150  39.982  20.123   1.235
47207W        W11151   7.759  21.714   3.206
47208W        W11152   3.840   6.819   0.803
47209W        W11153  35.947  16.605   0.813
47210W        W11154  34.087  34.548   0.852
47211W        W11155  38.909  38.936   3.217
47212W        W11156  38.357   7.813  14.819
47213W        W11157   4.387  15.180   4.184
47214W        W11158  33.061   3.423  13.917
47215W        W11159  31.503  18.739   1.349
47216W        W11160   4.801  15.301  14.865
47217W        W11161  35.927   4.799   3.154
47218W        W11162  37.979  36.546   4.309
47219W        W11163   6.688  23.071  12.403
47220W        W11164  13.320  30.990   2.903
47221W        W11165  13.708  26.050  11.972
47222W        W11166  13.350  24.198   3.774
47223W        W11167  39.491  36.443   1.337
47224W        W11168  12.693  43.274   4.754
47225W        W11169  24.183  41.385   4.611
47226W        W11170  23.178  22.203  11.523
47227W        W11171   9.840  38.418   3.254
47228W        W11172  37.896  12.839   4.332
47229W        W11173  10.671  16.098  13.353
47230W        W11174   7.366  23.183   1.360
47231W        W11175  19.554  33.001  12.341
47232W        W11176   3.884  27.600   2.856
47233W        W11177  32.038  43.958  10.595
47234W        W11178   9.223  41.985  12.573
47235W        W11179   6.356  33.413  14.291
47236W        W11180  42.392  29.508  10.451
47237W        W11181  41.434  29.141   1.913
47238W        W11182  44.269  10.684   2.884
47239W        W11183  29.664   6.192   2.791
47240W        W11184  37.358  35.506  11.464
47241W        W11185  40.499  44.384  14.331
47242W        W11186  15.636  16.736  11.492
47243W        W11187  34.029  34.033  13.972
47244W        W11188  37.012  29.174   2.188
47245W        W11189  40.863   8.298  14.379
47246W        W11190  18.696  14.765  11.489
47247W        W11191  14.646  16.209  10.991
47248W        W11192  28.990  31.040   0.319
47249W        W11193  41.023  40.844  12.391
47250W        W11194  25.006  33.986  14.430
47251W        W11195  11.846  26.592  11.550
47252W        W11196  22.112  25.120  14.334
47253W        W11197  24.973   5.743  11.095
47254W        W11198   5.692  32.431  10.487
47255W        W11199   4.852  16.729   1.837
47256W        W11200  33.438  31.115   3.710
47257W        W11201  27.647  10.258   0.832
47258W        W11202  31.005  23.701  13.410
47259W        W11203  43.853  43.488  10.476
47260W        W11204  28.975  43.421   3.795
47261W        W11205  14.673  13.693  13.478
47262W        W11206   9.157  40.018   4.803
47263W        W11207   4.701  26.541   3.245
47264W        W11208  11.317  39.051  12.340
47265W        W11209   6.321   1.794  10.887
47266W        W11210  37.357  21.741   0.250
47267W        W11211  36.572  34.393   1.889
47268W        W11212  15.116   4.798  14.805
47269W        W11213  32.510  39.926   1.762
47270W        W11214  21.216  31.910   4.658
47271W        W11215  10.807  12.169  14.340
47272W        W11216  12.638   3.737  11.451
47273W        W11217  38.038  25.125  12.475
47274W        W11218   8.816  40.037  13.477
47275W        W11219  43.915  28.465   3.329
47276W        W11220  26.595  19.753  11.918
47277W        W11221  18.230   7.352  14.425
47278W        W11222   5.228  42.947  10.631
47279W        W11223   9.385  23.157  12.528
47280W        W11224  11.162  10.844   4.120
47281W        W11225   1.946  17.766   2.193
47282W        W11226  38.874  21.141  10.143
47283W        W11227  24.719   4.208   0.283
47284W        W11228   9.779  13.333  11.537
47285W        W11229  11.757  32.602   2.798
47286W        W11230  16.276  19.214  14.759
47287W        W11231   5.919  30.587   4.332
47288W        W11232  15.152  43.010   5.180
47289W        W11233  39.444   3.737  13.796
47290W        W11234   0.933  21.626  12.899
47291W        W11235   3.793   4.306  12.546
47292W        W11236  27.998  19.098   2.412
47293W        W11237   2.936  23.062   2.886
47294W        W11238  41.340   9.717   2.233
47295W        W11239  19.194  22.020  13.845
47296W        W11240  30.466  34.914   0.967
47297W        W11241  28.000  28.597  13.410
47298W        W11242  18.240  39.954  14.289
47299W        W11243  37.523  30.492   4.272
47300W        W11244   1.243   6.864   0.775
47301W        W11245  20.733  44.912   2.234
47302W        W11246  36.545   4.916  10.606
47303W        W11247  27.116   3.335  13.062
47304W        W11248  44.754  39.327   1.222
47305W        W11249  28.984  22.686   4.725
47306W        W11250   8.268  22.021   1.319
47307W        W11251  36.918  10.718   2.853
47308W        W11252  37.969  30.499  13.446
47309W        W11253  15.603  17.619   0.786
47310W        W11254  24.675  19.124   2.292
47311W        W11255  42.384  14.246   0.480
47312W        W11256  28.084  15.320   1.840
47313W        W11257  40.948  35.438   1.825
47314W        W11258   7.848  10.727   0.308
47315W        W11259  35.996   4.775   3.734
47316W        W11260  37.988  13.106  12.940
47317W        W11261  23.056  13.250  11.374
47318W        W11262  22.634  17.675   2.820
47319W        W11263   4.843   8.807  11.954
47320W        W11264  33.468  21.597   9.969
47321W        W11265  33.547  29.929   1.931
47322W        W11266  24.553   3.945   3.780
47323W        W11267  38.017  43.812   1.213
47324W        W11268  38.556  14.256   4.168
47325W        W11269   5.295   8.314   1.782
47326W        W11270  33.503  30.080   3.345
47327W        W11271  20.209   9.854   4.683
47328W        W11272  17.265  33.612   2.844
47329W        W11273  23.701  16.629  11.083
47330W        W11274  41.523  36.880  10.475
47331W        W11275  37.385  13.233  13.040
47332W        W11276   8.683  27.461  13.006
47333W        W11277   7.358  32.591   2.832
47334W        W11278  21.072   6.866   3.176
47335W        W11279  40.402   0.965   4.160
47336W        W11280   7.761  42.357   3.853
47337W        W11281  29.985  41.441   9.992
47338W        W11282   2.745  42.835  14.406
47339W        W11283  41.532  27.183  14.499
47340W        W11284  14.286  41.407  12.940
47341W        W11285  31.930  19.533  13.797
47342W        W11286  28.146  39.352  14.816
47343W        W11287  22.013  19.767  11.866
47344W        W11288   9.368  25.698   1.903
47345W        W11289  36.442   6.393  11.855
47346W        W11290   9.691  24.206   0.931
47347W        W11291  28.018  29.172   1.877
47348W        W11292  33.553  34.911  11.510
47349W        W11293  41.532  22.142   3.679
47350W        W11294  31.056  29.968   3.719
47351W        W11295  27.598  17.166   3.774
47352W        W11296  20.693  44.923  12.044
47353W        W11297  42.284  38.937  12.831
47354W        W11298  32.595  23.236   2.384
47355W        W11299  34.421  14.796  13.832
47356W        W11300  11.755  14.666   4.168
47357W        W11301  25.107  19.102  11.373
47358W        W11302  26.541  15.793   5.248
47359W        W11303  39.365  39.843   4.779
47360W        W11304  19.098  28.153   3.322
47361W        W11305  21.565   9.770   3.669
47362W        W11306  12.187  43.327  14.342
47363W        W11307  28.646  40.320   5.263
47364W        W11308  27.530  16.294   0.270
47365W        W11309  27.091  13.119   2.823
47366W        W11310  27.492  39.925  14.492
47367W        W11311  38.521  36.952  13.006
47368W        W11312   0.984  41.395   1.351
47369W        W11313   9.319  26.067  10.975
47370W        W11314   4.241  18.178  13.059
47371W        W11315  26.030  25.660   3.790
47372W        W11316   6.306  42.789  12.431
47373W        W11317  22.730  21.604  13.927
47374W        W11318  39.363   7.708   1.894
47375W        W11319  22.576  27.152  13.419
47376W        W11320   4.855   3.832   9.970
47377W        W11321  34.061  26.953  13.874
47378W        W11322  17.149  26.638   2.404
47379W        W11323  10.798  42.492  14.456
47380W        W11324  21.148  34.565   3.852
47381W        W11325  43.414  30.460  13.044
47382W        W11326  27.092  15.289  13.407
47383W        W11327  34.936  17.690   2.338
47384W        W11328  34.053  29.033  12.513
47385W        W11329  16.589  33.117   1.288
47386W        W11330   7.408   5.885  14.303
47387W        W11331  14.740  29.036   2.298
47388W        W11332   1.258  25.989  12.404
47389W        W11333  34.611  42.379  10.642
47390W        W11334  19.694   8.804  13.473
47391W        W11335   0.443  41.017   2.758
47392W        W11336  40.036  19.662  10.407
47393W        W11337  25.699  42.382   2.230
47394W        W11338  34.946  35.923  13.958
47395W        W11339   6.236  23.694   2.325
47396W        W11340   8.292   8.383   4.119
47397W        W11341   6.765  39.364  14.455
47398W        W11342   8.867  38.356  13.450
47399W        W11343   6.299  32.899   3.728
47400W        W11344  23.037  14.812  14.396
47401W        W11345  31.053  15.642  11.886
47402W        W11346  32.896  43.004  11.861
47403W        W11347  25.666  25.140  14.884
47404W        W11348  44.004  38.546  13.001
47405W        W11349  41.872   7.222  14.505
47406W        W11350   7.228  27.474   3.742
47407W        W11351  34.886  25.983   2.404
47408W        W11352  26.678  23.643   0.912
47409W        W11353   7.204  18.159   3.380
47410W        W11354  24.140  43.298   4.675
47411W        W11355  25.488   3.378   0.825
47412W        W11356  20.213   9.313   0.471
47413W        W11357  23.573  17.172  12.963
47414W        W11358   3.425  12.845   3.821
47415W        W11359  27.094   8.282   2.742
47416W        W11360  28.115  37.852  14.854
47417W        W11361  39.483  16.191  11.398
47418W        W11362  36.098  43.968   4.203
47419W        W11363   6.843  17.616   1.290
47420W        W11364  40.863  23.551   4.706
47421W        W11365   7.801  27.507  13.063
47422W        W11366   1.955  14.637   1.700
47423W        W11367   4.347  17.205   1.863
47424W        W11368  21.028  12.163  10.475
47425W        W11369   7.197  27.626  14.491
47426W        W11370   8.742  15.806  14.982
47427W        W11371  37.471  31.554   0.754
47428W        W11372  10.841  14.689   4.694
47429W        W11373  31.587  43.902   0.961
47430W        W11374  38.005  26.179  11.128
47431W        W11375  22.243  10.669   4.169
47432W        W11376  30.027  25.019  13.417
47433W        W11377  36.386  39.840  14.317
47434W        W11378   4.219  28.999   1.767
47435W        W11379  23.683  22.190  13.307
47436W        W11380  24.195  11.240  11.511
47437W        W11381  28.962   4.837  10.969
47438W        W11382  25.481  42.481   3.655
47439W        W11383  28.944  31.436   1.926
47440W        W11384  36.849  33.006  11.104
47441W        W11385  23.118  18.236  12.067
47442W        W11386  40.005  24.031   4.225
47443W        W11387  29.175  34.386  13.010
47444W        W11388  13.675  38.013   2.802
47445W        W11389  13.157  18.667   1.928
47446W        W11390  35.994  44.380  13.530
47447W        W11391  35.553   0.254  13.454
47448W        W11392  34.026  29.576  14.797
47449W        W11393   7.769  40.975   4.285
47450W        W11394  13.344  33.106   4.336
47451W        W11395   5.929  22.707  13.971
47452W        W11396   0.978  35.476   4.163
47453W        W11397  38.986  25.699   0.360
47454W        W11398   7.188  38.363  14.766
47455W        W11399  23.062  40.981  12.885
47456W        W11400  32.127  40.434   1.276
47457W        W11401  10.662  11.298  12.468
47458W        W11402  24.573   8.704   3.314
47459W        W11403  41.486  36.050   2.215
47460W        W11404  21.604   4.377  13.814
47461W        W11405  31.487  43.875  14.977
47462W        W11406  39.532  26.562  10.112
47463W        W11407  44.389  10.756  10.004
47464W        W11408  32.454  35.004  12.973
47465W        W11409  23.072  25.124  14.909
47466W        W11410  28.140   4.358   0.856
47467W        W11411   0.411   4.230  11.897
47468W        W11412   7.912  40.832  14.478
47469W        W11413   2.350  38.520  12.347
47470W        W11414   9.815  11.246   3.273
47471W        W11415  29.543  30.075  11.957
47472W        W11416  14.189  22.597  10.427
47473W        W11417   6.711   8.292  12.554
47474W        W11418  28.070  33.106   0.796
47475W        W11419  12.675  10.290  10.978
47476W        W11420   9.295  29.446   3.701
47477W        W11421  32.929  34.554  12.885
47478W        W11422  14.741  38.848   4.603
47479W        W11423  37.902  34.895   2.678
47480W        W11424  18.762   6.868  13.813
47481W        W11425  11.660  20.735  12.557
47482W        W11426   2.300  13.184   4.221
47483W        W11427  28.574   3.948   0.965
47484W        W11428   4.286  20.639  11.545
47485W        W11429  24.486  18.287  12.956
47486W        W11430  42.291  28.461   0.467
47487W        W11431  17.089  31.477   0.405
47488W        W11432   6.228   1.327  13.970
47489W        W11433  43.848  14.661  14.830
47490W        W11434  26.543   1.443  14.937
47491W        W11435  34.550   4.281  14.281
47492W        W11436  37.552   2.839   3.331
47493W        W11437  25.649  16.672  12.883
47494W        W11438   0.978  30.424   2.213
47495W        W11439  43.777  36.073   1.441
47496W        W11440  24.655  35.549  14.867
47497W        W11441  31.021   8.821  11.856
47498W        W11442  28.103  13.687  13.838
47499W        W11443  32.472  13.196  14.964
47500W        W11444  43.390   8.333   0.730
47501W        W11445  37.071   0.255  10.939
47502W        W11446  40.524  10.804   0.470
47503W        W11447  25.692  12.206  11.419
47504W        W11448  27.182  12.799  12.912
47505W        W11449  28.633   8.385   1.790
47506W        W11450   8.171  14.750  13.465
47507W        W11451  18.165  34.389  14.979
47508W        W11452  17.603  13.279  10.479
47509W        W11453  42.498   0.341   1.244
47510W        W11454  20.083  35.018   2.245
47511W        W11455   6.364   2.860   2.379
47512W        W11456   1.834  26.127   4.729
47513W        W11457  23.213  35.371   2.178
47514W        W11458  39.907  28.632  12.824
47515W        W11459  12.336  27.126  14.831
47516W        W11460  10.280  24.986  11.521
47517W        W11461  31.402  37.951  12.574
47518W        W11462  16.578  13.170  14.014
47519W        W11463  20.706   5.852   1.295
47520W        W11464  42.805   4.884   5.272
47521W        W11465  30.591   2.741   2.812
47522W        W11466  43.274   8.276   1.237
47523W        W11467  29.608  10.258  11.888
47524W        W11468  38.527   2.255   1.256
47525W        W11469  23.634  13.323   1.354
47526W        W11470  31.457  30.531   0.351
47527W        W11471  24.185  11.214  14.384
47528W        W11472   6.205  23.193  14.296
47529W        W11473  22.689  12.762   2.292
47530W        W11474  11.245  37.028   4.115
47531W        W11475  17.073  14.733  11.535
47532W        W11476   0.411  30.142   3.856
47533W        W11477   0.368  28.972  11.435
47534W        W11478  41.849  15.107   1.389
47535W        W11479  39.409  22.066  14.923
47536W        W11480  22.093   0.382   4.252
47537W        W11481   9.365  32.605  14.931
47538W        W11482  30.520   4.831   3.752
47539W        W11483   2.818   2.257  11.600
47540W        W11484  41.473  28.648  13.861
47541W        W11485  23.008   3.265   2.747
47542W        W11486  35.447  25.692   1.243
47543W        W11487   1.889  39.457  11.113
47544W        W11488  26.668  44.981  10.908
47545W        W11489  38.537  13.753   4.729
47546W        W11490  44.838   8.230  13.505
47547W        W11491   4.781  24.053   3.302
47548W        W11492  16.736   6.412  13.987
47549W        W11493  38.836  41.915  14.834
47550W        W11494  25.512  28.442   4.621
47551W        W11495   1.249  11.710  12.990
47552W        W11496  40.972  44.337  11.119
47553W        W11497   8.266   3.792  13.864
47554W        W11498  30.530  39.011   0.947
47555W        W11499  10.264  42.830   2.396
47556W        W11500   7.239   3.802   2.813
47557W        W11501  41.382  31.977  10.631
47558W        W11502  39.396  16.632  10.444
47559W        W11503  19.720   0.457   0.314
47560W        W11504   9.739  20.583  14.896
47561W        W11505   7.816   0.397   4.143
47562W        W11506  39.811   9.843   4.273
47563W        W11507   5.245  10.367   3.651
47564W        W11508  40.474  26.517   5.215
47565W        W11509  18.738  27.679  14.306
47566W        W11510  26.485  13.212  13.871
47567W        W11511   5.696   4.904  12.379
47568W        W11512  34.956  34.089  14.490
47569W        W11513  29.582  39.429   0.833
47570W        W11514   9.850  39.820   0.300
47571W        W11515   7.221  39.341   2.192
47572W        W11516  39.059   0.391   3.705
47573W        W11517  30.926  34.396   4.343
47574W        W11518  27.644  32.548  14.830
47575W        W11519  16.252  41.396   3.861
47576W        W11520  31.154  29.639   4.820
47577W        W11521   4.724  21.122   1.222
47578W        W11522  27.072  29.467   4.661
47579W        W11523   0.312   7.724   2.679
47580W        W11524  25.687  41.006  10.620
47581W        W11525  15.254  39.900   3.372
47582W        W11526  24.484  24.024   4.647
47583W        W11527  27.506  42.969  10.456
47584W        W11528  18.174   2.748   4.321
47585W        W11529  14.604  29.963   0.366
47586W        W11530  23.550  27.064   0.748
47587W        W11531   2.965  17.699   2.853
47588W        W11532  18.658  26.206   2.194
47589W        W11533  32.624  37.379  11.578
47590W        W11534  29.624  28.064  11.570
47591W        W11535  38.569  21.020   0.844
47592W        W11536  42.425  17.128   2.214
47593W        W11537  24.514   2.429  14.401
47594W        W11538  24.179  26.185   2.797
47595W        W11539   1.454   8.760  13.859
47596W        W11540  34.473  22.062   1.264
47597W        W11541   9.203  36.908  10.519
47598W        W11542   5.280   3.391  14.842
47599W        W11543  44.325  42.335  14.325
47600W        W11544  17.091  14.148   3.753
47601W        W11545  22.576   0.440  12.453
47602W        W11546  21.218  19.657   4.801
47603W        W11547  14.629  41.435  11.008
47604W        W11548   6.284  27.493   0.839
47605W        W11549  18.661  38.491   3.193
47606W        W11550   3.340  25.059  11.928
47607W        W11551   2.793   4.422  11.122
47608W        W11552  25.988  42.406  13.854
47609W        W11553  40.340   0.476   5.146
47610W        W11554   4.303  15.644  12.461
47611W        W11555  30.548  18.101   4.689
47612W        W11556  32.943  22.026  10.637
47613W        W11557  12.702  16.248  14.368
47614W        W11558   3.858  30.062   1.270
47615W        W11559  24.150  44.391   5.157
47616W        W11560  29.968  14.278   2.728
47617W        W11561  21.100  24.206   2.765
47618W        W11562  21.518  39.841   3.764
47619W        W11563  28.130   0.455   4.332
47620W        W11564  33.951  39.866  11.590
47621W        W11565   7.307   0.360   0.349
47622W        W11566   7.885   2.356  10.961
47623W        W11567   8.799  32.462   4.837
47624W        W11568  26.036  39.055   0.923
47625W        W11569   2.407  29.641   4.761
47626W        W11570  41.443  14.325   3.170
47627W        W11571  38.072  37.483  14.968
47628W        W11572   7.667   4.242   1.923
47629W        W11573  37.543  12.227  12.865
47630W        W11574  30.494  23.995  13.489
47631W        W11575  10.693   4.306   4.828
47632W        W11576   5.198  26.054   2.319
47633W        W11577  38.976   3.783   0.422
47634W        W11578  28.165  30.463  13.422
47635W        W11579   1.899  27.487   4.126
47636W        W11580  29.476  14.146   3.647
47637W        W11581  11.335  23.506  13.905
47638W        W11582  12.792  37.976  13.337
47639W        W11583  29.466   3.344  14.805
47640W        W11584  38.525  23.140   4.151
47641W        W11585  32.431  23.704   0.429
47642W        W11586  12.282  15.107  11.901
47643W        W11587   5.743  25.092  12.450
47644W        W11588  17.212  19.285   1.390
47645W        W11589   8.276   5.729   1.822
47646W        W11590  18.261  36.440   4.185
47647W        W11591   3.244  22.565   4.822
47648W        W11592  17.788  16.148   1.411
47649W        W11593  33.473  37.841  13.013
47650W        W11594  24.157   2.853   2.900
47651W        W11595  20.051  30.108   4.712
47652W        W11596  28.467  21.159  11.057
47653W        W11597   1.789  13.125   3.236
47654W        W11598  34.954   7.324   3.789
47655W        W11599  22.586  39.556   4.241
47656W        W11600  28.989  37.566   4.195
47657W        W11601   1.942  32.414   3.234
47658W        W11602  32.055  10.276  13.417
47659W        W11603  40.840   2.955  11.030
47660W        W11604  37.889  39.039  10.488
47661W        W11605  18.750   9.722  11.117
47662W        W11606  30.634  10.369   3.246
47663W        W11607  42.441  29.153   0.917
47664W        W11608  18.749  39.483  11.980
47665W        W11609  28.933  25.070  12.506
47666W        W11610  17.755  15.128   3.277
47667W        W11611  43.491  21.710   4.821
47668W        W11612  24.039  36.913   3.146
47669W        W11613  23.101  13.843   4.692
47670W        W11614   5.255  11.305   0.834
47671W        W11615   8.316  18.206   0.286
47672W        W11616  23.044  41.955   0.426
47673W        W11617  20.081  18.159   5.162
47674W        W11618  36.471   9.313  11.473
47675W        W11619   2.948   8.285  14.767
47676W        W11620  22.601  12.220   0.379
47677W        W11621  17.684  33.586  12.448
47678W        W11622  25.539   9.853  11.542
47679W        W11623  44.757   5.762  11.959
47680W        W11624  34.019  29.658   3.781
47681W        W11625  28.022  38.517  11.016
47682W        W11626  40.514  25.601   2.721
47683W        W11627  10.372  19.224   0.279
47684W        W11628  25.071  42.526   1.358
47685W        W11629  11.643  31.083   3.232
47686W        W11630  40.472  31.500  13.873
47687W        W11631   2.374  40.928  14.944
47688W        W11632   3.267  28.968   2.408
47689W        W11633  14.242  38.017   1.717
47690W        W11634  16.717   0.903  12.432
47691W        W11635  18.163  13.840   2.883
47692W        W11636   8.391  21.523  10.463
47693W        W11637  29.982  13.677   3.754
47694W        W11638  36.067   1.745  11.067
47695W        W11639  24.613  39.929  12.969
47696W        W11640  19.114  41.017  13.817
47697W        W11641  13.180   2.726  12.855
47698W        W11642  27.592  10.820  13.401
47699W        W11643  34.117  21.586  13.388
47700W        W11644  39.387  32.568  12.836
47701W        W11645  30.431  26.625   2.845
47702W        W11646  13.801  26.201   3.639
47703W        W11647  14.769   0.458   1.748
47704W        W11648  39.883   2.261   2.353
47705W        W11649  17.648  22.126   2.884
47706W        W11650  35.467   2.375   1.838
47707W        W11651  33.490  43.794   1.910
47708W        W11652  17.266  28.948  14.303
47709W        W11653   6.297  43.372   4.736
47710W        W11654  27.587  20.750  14.393
47711W        W11655  14.651  32.498   2.272
47712W        W11656  10.382  21.550  13.862
47713W        W11657  21.147   6.839   4.741
47714W        W11658  19.735   6.681  13.474
47715W        W11659  17.663  32.926  12.436
47716W        W11660  31.915  21.514   0.818
47717W        W11661  11.751  35.586  13.937
47718W        W11662  15.208  27.095  10.529
47719W        W11663  44.453  28.009  14.434
47720W        W11664  14.195  30.446   0.251
47721W        W11665  29.553  22.530   5.103
47722W        W11666   4.833  26.162  14.284
47723W        W11667  44.985  32.136  11.410
47724W        W11668  41.512   6.380  12.076
47725W        W11669  29.061  16.091   4.622
47726W        W11670   4.308  16.767  13.527
47727W        W11671  31.626   3.381   0.304
47728W        W11672  10.319  24.118  13.888
47729W        W11673  35.878   4.257   0.441
47730W        W11674  11.702   7.692  13.324
47731W        W11675   0.301  18.631  10.889
47732W        W11676  26.144  42.787   2.899
47733W        W11677   3.336  34.121  12.453
47734W        W11678  42.400   3.890  14.374
47735W        W11679  36.921  32.001   4.604
47736W        W11680  35.017   7.233  11.385
47737W        W11681  12.345  31.409  10.908
47738W        W11682   7.845  39.401  11.375
47739W        W11683   6.737  44.291  14.842
47740W        W11684  40.355   9.762   0.292
47741W        W11685   6.413  18.224   3.360
47742W        W11686   9.347   5.395   2.264
47743W        W11687  28.488  18.758  14.459
47744W        W11688  28.481  22.216   2.772
47745W        W11689  11.687  37.490   1.896
47746W        W11690  42.442   8.728   4.773
47747W        W11691  25.124  11.755   3.161
47748W        W11692   2.928   8.700   2.799
47749W        W11693  44.433  36.541  11.399
47750W        W11694  26.170  16.749   2.848
47751W        W11695   9.180  30.118  11.375
47752W        W11696  21.100  17.091  11.894
47753W        W11697   1.238  35.000  14.997
47754W        W11698  19.236  43.434   1.273
47755W        W11699  18.221   6.680   2.763
47756W        W11700  39.037  16.186   1.713
47757W        W11701  41.293  18.590   1.755
47758W        W11702  19.712  16.172  14.919
47759W        W11703  11.849   4.767   4.322
47760W        W11704  41.349   1.386  11.886
47761W        W11705  42.872  37.010  12.570
47762W        W11706  27.051  43.328   1.837
47763W        W11707  14.155  24.106   4.284
47764W        W11708  12.199   3.726  10.915
47765W        W11709  26.472  40.871   4.760
47766W        W11710   8.180  40.460   0.726
47767W        W11711   6.335  13.743   4.716
47768W        W11712  11.224  31.597   4.194
47769W        W11713   4.208   8.689  12.365
47770W        W11714   3.456   3.323  12.013
47771W        W11715   7.174  10.735   0.330
47772W        W11716  33.386  16.230  12.404
47773W        W11717  21.614  14.273  13.310
47774W        W11718  39.850  26.646   4.315
47775W        W11719   9.205  29.159  14.510
47776W        W11720  26.095  20.234  14.376
47777W        W11721  37.862  19.615   2.843
47778W        W11722  41.410  43.513   0.365
47779W        W11723  15.655  20.210   3.758
47780W        W11724  19.269  41.878   1.339
47781W        W11725   0.906  28.075  11.609
47782W        W11726  27.585  21.698   3.637
47783W        W11727  28.658  19.751  12.509
47784W        W11728  23.735  26.113   2.727
47785W        W11729  23.086  32.442   4.701
47786W        W11730  41.809  29.168  12.387
47787W        W11731  24.141  28.584  11.468
47788W        W11732  39.025  20.138  10.556
47789W        W11733   8.207  32.578  13.977
47790W        W11734   5.882  33.536  13.050
47791W        W11735  44.332  18.265  14.876
47792W        W11736  34.419   7.373  12.838
47793W        W11737   5.211  31.923  14.378
47794W        W11738  11.852  13.265   5.200
47795W        W11739   0.295  20.701   0.864
47796W        W11740  39.399  40.412   1.372
47797W        W11741   1.880  14.627   4.348
47798W        W11742  26.122  29.534   1.397
47799W        W11743  40.402  21.652   2.763
47800W        W11744  34.037  22.168   1.335
47801W        W11745   6.885  34.482  11.001
47802W        W11746  23.054   4.307   3.853
47803W        W11747  20.685  23.611   2.241
47804W        W11748  22.575  30.065   9.929
47805W        W11749  14.104  32.461  10.112
47806W        W11750  43.852  40.945  13.972
47807W        W11751  30.992  10.640  11.049
47808W        W11752  34.886  43.502  14.978
47809W        W11753  16.647  43.865   4.796
47810W        W11754  29.481  14.769   0.928
47811W        W11755  32.010  11.130   1.877
47812W        W11756  10.322   9.674  13.054
47813W        W11757   6.695  37.382  12.476
47814W        W11758  28.957   3.279  12.910
47815W        W11759  10.682  29.612  12.565
47816W        W11760  23.127  43.865   3.707
47817W        W11761   7.291  28.113   3.378
47818W        W11762   5.897   3.937  14.832
47819W        W11763  42.293   6.311  11.565
47820W        W11764  42.358  16.621  13.352
47821W        W11765  31.565  31.944  11.097
47822W        W11766   3.946  10.709   1.828
47823W        W11767  18.252  25.207   0.367
47824W        W11768  36.880  13.235  13.486
47825W        W11769  34.879  44.832  10.425
47826W        W11770  26.619  29.160  12.962
47827W        W11771  27.063  20.178   0.883
47828W        W11772  28.970  15.811   3.772
47829W        W11773   7.835  42.925  14.980
47830W        W11774   1.855  22.124  13.345
47831W        W11775  27.567  12.332   2.227
47832W        W11776  42.901  22.135  14.987
47833W        W11777  21.130  15.183   2.251
47834W        W11778   4.789  16.684  12.498
47835W        W11779   2.381  28.944   1.818
47836W        W11780  26.549   5.256   0.371
47837W        W11781  36.027  35.415   0.265
47838W        W11782  14.804   7.310  11.972
47839W        W11783   0.911  22.034   1.447
47840W        W11784  22.501  17.713  11.527
47841W        W11785  37.068  13.201   2.766
47842W        W11786  14.118  37.420  10.006
47843W        W11787  29.536  24.640   1.879
47844W        W11788   8.335  22.150   3.245
47845W        W11789  17.629  15.592   2.202
47846W        W11790  41.016  22.222  14.377
47847W        W11791  35.429  15.193  12.434
47848W        W11792  27.089   1.373   0.465
47849W        W11793  28.930  44.324  10.961
47850W        W11794  28.968  35.505   1.317
47851W        W11795  28.972  32.124   0.943
47852W        W11796  24.106   0.929   1.374
47853W        W11797  37.432  15.634  13.987
47854W        W11798  22.157   0.966  11.395
47855W        W11799   4.425  16.091   3.287
47856W        W11800  17.787  21.534   4.599
47857W        W11801  23.226  43.386   4.760
47858W        W11802   7.184   2.278   1.781
47859W        W11803   1.813   3.935  11.508
47860W        W11804   8.297  12.188   4.802
47861W        W11805  44.898   6.699   1.918
47862W        W11806  25.067   0.468   2.235
47863W        W11807   4.281  41.335   1.767
47864W        W11808  33.609   0.838   3.288
47865W        W11809   6.183  30.129  11.470
47866W        W11810  17.730  14.220  11.400
47867W        W11811  32.131  40.428   4.757
47868W        W11812  28.083  42.959  13.376
47869W        W11813  43.898  21.720  11.452
47870W        W11814  25.984  33.491  12.512
47871W        W11815  32.480  25.692   0.469
47872W        W11816   1.387  32.907   4.720
47873W        W11817  42.819  40.879  12.575
47874W        W11818   2.824  41.982  11.895
47875W        W11819  44.981  25.198  12.030
47876W        W11820  29.093  39.363  10.901
47877W        W11821  29.567  16.230  11.092
47878W        W11822   5.284  39.815   3.801
47879W        W11823  18.604  39.382  10.639
47880W        W11824   7.788  29.538  12.392
47881W        W11825   3.381   3.933  13.805
47882W        W11826  15.769  24.567  13.005
47883W        W11827  38.335   7.868  11.010
47884W        W11828  12.774   9.765   3.799
47885W        W11829  31.451  12.807   2.706
47886W        W11830  16.075  26.111  13.466
47887W        W11831  29.562  39.990  13.937
47888W        W11832  41.986  39.844   2.674
47889W        W11833   0.388  12.137  13.489
47890W        W11834   0.393  40.990  12.089
47891W        W11835  11.741  34.610  14.772
47892W        W11836   7.907  17.290   5.195
47893W        W11837  17.714  11.188  14.758
47894W        W11838   4.942  37.467   5.308
47895W        W11839   9.705  19.606  14.322
47896W        W11840  39.367  40.338  13.799
47897W        W11841  24.202   2.776   0.420
47898W        W11842   7.244   2.359  11.864
47899W        W11843  26.061  27.673   2.346
47900W        W11844  19.698  24.064  13.494
47901W        W11845  36.588  40.318  10.517
47902W        W11846  26.194  36.016  14.929
47903W        W11847  35.470  13.123   4.160
47904W        W11848  33.885  21.167   2.798
47905W        W11849   5.691  36.579  11.516
47906W        W11850  41.807   1.867   4.250
47907W        W11851  43.898  10.378   9.998
47908W        W11852  43.400  27.092   1.424
47909W        W11853   8.284  41.396   3.170
47910W        W11854  17.598  26.581  11.913
47911W        W11855   5.733  15.805  11.877
47912W        W11856  27.582   3.716   0.464
47913W        W11857  16.124  27.121  12.446
47914W        W11858  17.218  25.664   4.341
47915W        W11859  40.893  29.152  11.882
47916W        W11860  17.085   6.921  11.541
47917W        W11861  15.121   6.366  12.059
47918W        W11862  27.084   5.344  10.541
47919W        W11863  42.944   7.327   2.748
47920W        W11864   4.937  11.223   1.826
47921W        W11865  30.029  27.486   2.240
47922W        W11866  15.170   0.920   5.160
47923W        W11867  13.682  21.199  12.502
47924W        W11868  23.207  33.876   1.737
47925W        W11869  27.572  29.046  12.041
47926W        W11870  11.640  35.515   0.811
47927W        W11871  38.850   6.234   1.234
47928W        W11872  12.181  30.137  13.909
47929W        W11873  13.289  15.179  13.958
47930W        W11874  28.120  20.764  12.053
47931W        W11875   3.945  23.625  11.430
47932W        W11876   9.252  23.015  13.818
47933W        W11877  40.831   2.446   5.610
47934W        W11878  33.089  28.557   1.290
47935W        W11879  42.011  38.363  11.380
47936W        W11880  26.662  36.449   1.440
47937W        W11881  40.802   8.804  11.014
47938W        W11882  26.972  25.066   4.318
47939W        W11883   1.305  12.354  13.844
47940W        W11884  43.860  10.200  10.477
47941W        W11885  40.053   3.914  14.328
47942W        W11886   3.931  16.623  14.006
47943W        W11887  29.147  10.743   0.959
47944W        W11888   9.308  23.493  14.301
47945W        W11889  29.450  31.961   1.433
47946W        W11890  10.675  20.651   2.201
47947W        W11891  33.968  17.305  12.523
47948W        W11892  30.566  15.612   0.909
47949W        W11893  39.329   2.790   0.359
47950W        W11894  41.468   0.387  14.974
47951W        W11895  33.500   6.873  10.040
47952W        W11896  43.983   3.892  14.343
47953W        W11897   5.717  35.451   2.863
47954W        W11898   3.261   9.822   3.729
47955W        W11899  34.072   1.291   2.825
47956W        W11900  19.181  40.960  14.485
47957W        W11901   8.715   2.278  12.453
47958W        W11902   8.290  36.930  13.867
47959W        W11903  13.607  42.961   1.327
47960W        W11904   7.862  15.259  10.617
47961W        W11905  43.847  19.045   3.670
47962W        W11906  38.490  31.029  13.509
47963W        W11907  27.513   9.298   1.304
47964W        W11908  16.598  11.812  14.840
47965W        W11909  39.335  30.470  14.414
47966W        W11910  44.779  20.543  14.835
47967W        W11911  17.558  16.742   3.693
47968W        W11912  38.412  41.471   1.755
47969W        W11913  43.314  27.186  12.415
47970W        W11914  16.737  33.611   4.132
47971W        W11915  36.075  21.742  10.925
47972W        W11916  22.114  10.142  10.517
47973W        W11917  42.992  36.419  12.075
47974W        W11918  24.580   6.223   2.193
47975W        W11919  17.637  42.984   5.177
47976W        W11920   0.379  44.437  14.431
47977W        W11921   4.893  24.171   4.768
47978W        W11922  26.184  29.662  13.970
47979W        W11923   9.700   7.705   3.862
47980W        W11924  17.287  26.546  11.930
47981W        W11925  13.197   6.379   0.433
47982W        W11926  35.881  34.521  11.949
47983W        W11927  20.135   9.351  13.401
47984W        W11928  37.984  10.304   0.307
47985W        W11929  24.120   5.793   4.751
47986W        W11930   5.855   4.799   3.227
47987W        W11931  16.172  28.457  11.495
47988W        W11932   9.236  44.873  11.499
47989W        W11933   7.784  22.023  14.354
47990W        W11934   9.667  39.507  13.033
47991W        W11935  14.210   3.867   3.683
47992W        W11936  40.496   4.290  12.089
47993W        W11937  24.565  35.063  14.913
47994W        W11938   5.733   3.726   2.391
47995W        W11939  35.408  41.382   2.769
47996W        W11940  18.759  10.149  12.064
47997W        W11941   2.271  20.121  11.950
47998W        W11942  24.996  41.366  11.989
47999W        W11943  17.777   3.231  14.461
48000W        W11944  22.594  11.226   4.772
48001W        W11945  33.413  23.087   1.782
48002W        W11946  36.006  34.105   2.856
48003W        W11947   3.812  24.057  10.922
48004W        W11948   3.346  44.865  14.961
48005W        W11949  19.576   1.774   3.276
48006W        W11950  42.464  40.451  13.000
48007W        W11951  21.087  29.951   4.126
48008W        W11952  17.294   9.887  14.500
48009W        W11953   6.914  11.245   2.875
48010W        W11954  20.196  21.114   2.409
48011W        W11955   7.735  44.281   4.204
48012W        W11956   0.749   5.416  12.523
48013W        W11957  11.330  10.824  14.440
48014W        W11958  11.306   5.306  12.963
48015W        W11959   6.709  13.630  12.962
48016W        W11960  34.449  30.475   4.262
48017W        W11961  14.670   9.268  10.499
48018W        W11962  41.032  25.571   1.333
48019W        W11963  12.214  17.663  14.931
48020W        W11964   8.195   1.281  12.573
48021W        W11965  13.791  40.320  12.552
48022W        W11966   1.755  20.260  14.488
48023W        W11967  22.507  42.438  13.874
48024W        W11968  28.472  41.931   9.504
48025W        W11969  21.147  38.479  10.954
48026W        W11970  32.093  26.169  13.023
48027W        W11971  40.942  29.071   0.268
48028W        W11972  17.775  37.445   3.721
48029W        W11973   6.417  33.040   4.733
48030W        W11974  20.701  23.189   3.655
48031W        W11975  36.434  37.058   3.771
48032W        W11976  37.070  37.942  10.592
48033W        W11977  14.286   8.710   0.874
48034W        W11978  22.006  10.290   1.258
48035W        W11979  28.530  31.146  13.473
48036W        W11980  39.549  28.182  11.419
48037W        W11981  17.199  13.333  10.424
48038W        W11982  34.880  20.694   1.387
48039W        W11983  39.928  25.078   4.332
48040W        W11984   2.915  18.154  13.946
48041W        W11985   8.224   1.311   4.212
48042W        W11986  32.526   2.745   1.838
48043W        W11987  34.898  42.977   9.988
48044W        W11988   8.292  11.297  11.586
48045W        W11989  39.479  39.357  10.515
48046W        W11990  39.429   2.228   5.205
48047W        W11991  41.325  23.611  14.948
48048W        W11992   7.775   5.898   0.732
48049W        W11993  32.120  16.575   1.302
48050W        W11994   0.405  29.124   3.158
48051W        W11995  41.401   3.836  14.899
48052W        W11996  37.385  33.944  12.052
48053W        W11997  17.260  17.197   1.393
48054W        W11998   6.249  29.943  10.550
48055W        W11999  26.700  32.966  14.807
48056W        W12000  27.055   1.339  12.944
48057W        W12001  12.307  43.912   1.812
48058W        W12002  43.409  22.524  10.611
48059W        W12003  28.943  37.522   1.745
48060W        W12004  23.612  18.785  14.921
48061W        W12005  25.088  21.069  14.335
48062W        W12006  29.624  12.689  12.960
48063W        W12007  11.213   7.846   0.410
48064W        W12008  25.551  32.501  13.401
48065W        W12009   2.362   5.856  14.823
48066W        W12010  21.126  24.104   1.782
48067W        W12011  41.043   1.278   2.772
48068W        W12012  44.498  38.983   2.201
48069W        W12013  38.469  26.102   1.448
48070W        W12014  22.557  24.653   0.343
48071W        W12015  10.731   1.444  14.456
48072W        W12016  44.488  17.708  14.890
48073W        W12017   2.937  23.709   2.699
48074W        W12018  22.023  23.231  14.327
48075W        W12019  23.118  31.125   3.644
48076W        W12020  20.181  41.320   0.791
48077W        W12021  41.335  18.707  11.594
48078W        W12022  15.138   4.890   3.312
48079W        W12023  44.958  34.923   4.637
48080W        W12024  34.428   6.859   0.808
48081W        W12025  42.363   7.817  12.886
48082W        W12026  31.454  30.974  11.558
48083W        W12027   2.922   9.224  10.130
48084W        W12028  44.318  27.969   1.383
48085W        W12029  24.661  41.018   4.613
48086W        W12030   5.432  17.592   0.744
48087W        W12031  14.222   2.364  12.396
48088W        W12032   6.274  42.032   0.379
48089W        W12033  36.487  44.373   1.698
48090W        W12034  42.899  33.984  14.470
48091W        W12035  35.953  15.112   1.711
48092W        W12036  33.515  32.568   3.270
48093W        W12037  32.603  18.731  13.811
48094W        W12038  39.442  41.040  10.560
48095W        W12039  22.605  22.125   0.365
48096W        W12040  12.715  22.615  14.972
48097W        W12041  39.472  17.067  14.012
48098W        W12042  19.666  42.885   0.282
48099W        W12043  15.627  33.454   0.407
48100W        W12044  24.690   0.442   0.909
48101W        W12045   9.352   6.871  10.581
48102W        W12046  43.775   5.200   0.266
48103W        W12047  14.731  19.549  11.554
48104W        W12048  31.971  23.530  10.055
48105W        W12049   7.834  10.663   0.801
48106W        W12050  43.884  21.093  14.827
48107W        W12051  15.671  43.969   0.348
48108W        W12052   2.922  33.113   1.382
48109W        W12053   5.218  21.128  14.780
48110W        W12054  16.307  28.457   1.888
48111W        W12055  15.633   9.395  13.412
48112W        W12056   9.366  20.579  14.978
48113W        W12057  24.590   7.726  14.330
48114W        W12058  22.700  43.367   4.750
48115W        W12059  33.423  12.786   3.819
48116W        W12060  30.454  38.438   3.368
48117W        W12061  35.507  36.040   0.336
48118W        W12062  41.394  26.460  12.922
48119W        W12063  15.177  30.969   0.270
48120W        W12064  14.643  27.469  13.344
48121W        W12065  17.658  27.599  11.426
48122W        W12066  30.415  44.282  11.999
48123W        W12067  26.147  37.522   2.890
48124W        W12068  35.885  31.113  10.540
48125W        W12069  37.964  44.377  11.566
48126W        W12070  37.028  44.802  14.846
48127W        W12071  26.596  42.792  12.025
48128W        W12072   0.781  42.324  13.403
48129W        W12073  37.575   2.938  11.541
48130W        W12074  25.190   1.783  10.987
48131W        W12075  39.819  36.442   2.282
48132W        W12076  10.154   1.784  14.856
48133W        W12077  18.659   0.441  12.991
48134W        W12078  44.428   0.831  14.821
48135W        W12079  38.848  10.381   2.882
48136W        W12080   7.311  31.579  14.960
48137W        W12081  11.243  32.609  13.879
48138W        W12082  42.355  25.586  13.945
48139W        W12083  26.701   7.235   4.735
48140W        W12084  17.163  21.115   4.344
48141W        W12085  20.655  18.671  13.467
48142W        W12086   9.192  19.084   0.271
48143W        W12087  40.412  15.787  10.425
48144W        W12088  18.614  33.572  13.339
48145W        W12089  38.061   2.776  11.388
48146W        W12090   2.892  29.086  13.055
48147W        W12091  41.948  21.261  10.948
48148W        W12092   9.825  20.270  10.991
48149W        W12093  29.945  41.463  12.558
48150W        W12094  37.918  13.308   0.431
48151W        W12095  44.855  43.474   0.846
48152W        W12096  44.870  13.166   2.400
48153W        W12097  38.920   3.782   4.763
48154W        W12098  41.523  40.541  13.833
48155W        W12099  35.589   9.229   2.335
48156W        W12100  15.258  15.691   2.814
48157W        W12101  43.506   8.226  11.498
48158W        W12102   6.905  25.213  11.075
48159W        W12103  14.675  29.077  12.890
48160W        W12104  36.916   7.408   0.917
48161W        W12105  27.963  32.006   1.318
48162W        W12106  29.106  26.657   4.638
48163W        W12107   7.358   4.913  14.001
48164W        W12108  36.357  34.388  14.353
48165W        W12109  10.856  26.983   2.727
48166W        W12110  12.633  11.654  13.987
48167W        W12111  13.705  43.873   1.357
48168W        W12112  30.917   9.205   1.744
48169W        W12113  39.053  10.235  10.544
48170W        W12114  14.213  29.569   5.245
48171W        W12115  17.138   5.881   2.661
48172W        W12116  39.043  42.922   1.717
48173W        W12117  42.830  31.990   4.821
48174W        W12118  23.675  24.716  14.500
48175W        W12119  22.530  21.552  12.456
48176W        W12120  12.792   5.250  11.909
48177W        W12121   0.271  10.821  11.075
48178W        W12122  36.908   4.299   2.211
48179W        W12123  38.859  28.473  14.792
48180W        W12124   6.343  40.962   4.222
48181W        W12125   9.659   6.232   1.340
48182W        W12126   4.943  37.963   0.318
48183W        W12127  16.159  27.614   1.774
48184W        W12128   1.373  43.426   2.898
48185W        W12129  38.461  21.702   3.278
48186W        W12130  38.519  32.940  13.524
48187W        W12131  27.637  44.844  11.548
48188W        W12132  26.570   6.188  12.361
48189W        W12133  30.440   1.937   3.663
48190W        W12134  19.731  14.164   0.735
48191W        W12135   8.723  43.766  13.432
48192W        W12136   9.656  28.439  11.906
48193W        W12137  40.854  36.032   3.715
48194W        W12138   0.907  23.030  13.446
48195W        W12139   9.298  11.813   0.293
48196W        W12140  24.091  42.909   1.256
48197W        W12141  12.781  14.173   4.832
48198W        W12142  40.476  15.097   4.291
48199W        W12143   8.286  10.811   3.362
48200W        W12144  44.001  33.605   2.416
48201W        W12145  23.185   4.231  10.584
48202W        W12146  32.900   7.355   2.379
48203W        W12147  10.781   4.420   3.717
48204W        W12148  41.874   2.327  14.371
48205W        W12149  41.368   6.396   1.776
48206W        W12150   6.326  43.810   1.927
48207W        W12151   6.414  42.373   3.709
48208W        W12152  39.005  23.726  11.542
48209W        W12153  20.203   9.755  14.382
48210W        W12154  23.626  32.924   2.190
48211W        W12155   2.817  34.084   3.634
48212W        W12156  18.649  19.722   1.890
48213W        W12157  22.105  24.523   0.378
48214W        W12158  44.357  17.651  12.464
48215W        W12159  19.083  26.656  12.952
48216W        W12160   5.279  38.928  13.371
48217W        W12161   2.253   0.329  12.081
48218W        W12162   1.250  15.291  13.876
48219W        W12163  12.694  13.672  12.886
48220W        W12164  34.909  26.537   2.278
48221W        W12165  28.068  13.231   1.247
48222W        W12166   2.848   8.722  11.964
48223W        W12167   0.416  21.087  13.852
48224W        W12168  18.685  15.807   1.844
48225W        W12169  21.626   7.809  13.336
48226W        W12170  40.858   7.699   0.469
48227W        W12171  35.072   9.375   0.825
48228W        W12172  30.966  44.262   0.344
48229W        W12173   1.302  12.131  10.494
48230W        W12174   9.773  22.723   4.348
48231W        W12175  29.981  44.311   0.904
48232W        W12176  29.470  38.945  10.457
48233W        W12177  13.775  39.523  13.843
48234W        W12178  18.763   8.391  13.419
48235W        W12179  39.057   6.873  13.380
48236W        W12180   9.684   0.898  12.899
48237W        W12181  40.893  37.056   3.752
48238W        W12182  44.490   6.389   9.972
48239W        W12183  22.571  18.613   1.210
48240W        W12184   3.276  21.678   1.215
48241W        W12185  13.107  33.522   0.360
48242W        W12186  19.730  20.662  13.319
48243W        W12187  26.039  32.983   0.399
48244W        W12188  32.996   3.284   2.859
48245W        W12189  20.079  12.148  13.341
48246W        W12190  27.687  14.308   1.271
48247W        W12191  21.246  17.100  13.495
48248W        W12192   3.330   7.806  14.339
48249W        W12193   9.264  12.617  13.805
48250W        W12194  38.416  10.751   0.840
48251W        W12195  41.880  25.629   0.914
48252W        W12196  22.541   2.332  14.934
48253W        W12197  28.456  13.121   4.275
48254W        W12198  10.173  10.853  11.098
48255W        W12199  16.750  17.760  14.434
48256W        W12200  20.544  38.032   3.216
48257W        W12201  22.031  39.928   1.737
48258W        W12202  22.564  19.261  11.968
48259W        W12203  34.436  22.701   4.597
48260W        W12204   7.384  30.421   1.838
48261W        W12205  41.424   1.846  13.988
48262W        W12206  36.894  23.125  12.888
48263W        W12207   2.771  16.085   2.807
48264W        W12208  41.397  31.494   0.292
48265W        W12209  10.793  22.580  11.554
48266W        W12210  25.160   0.908   0.378
48267W        W12211  39.892  36.964  11.923
48268W        W12212  17.223  42.792  12.504
48269W        W12213  44.318  18.162  12.567
48270W        W12214  13.727  42.960  11.515
48271W        W12215  20.038   8.387   0.400
48272W        W12216  12.232  39.525  12.898
48273W        W12217  37.352  34.064   1.334
48274W        W12218   3.257  12.341  14.872
48275W        W12219   8.700  33.086  13.908
48276W        W12220   7.875  12.241   1.819
48277W        W12221   8.330  31.567  12.865
48278W        W12222  16.173  25.542  11.552
48279W        W12223  40.396  35.881   0.311
48280W        W12224  41.427  41.926  13.536
48281W        W12225  12.289   5.745   0.260
48282W        W12226  36.997  41.476  14.994
48283W        W12227  25.003  15.742   0.329
48284W        W12228  33.499  31.431  13.454
48285W        W12229  22.705  17.268   3.162
48286W        W12230  36.088   9.373   0.756
48287W        W12231  33.931  15.746  14.493
48288W        W12232   7.227  30.640   2.664
48289W        W12233  21.574  17.288  10.644
48290W        W12234  26.640  41.401  14.390
48291W        W12235  14.246  25.984   1.930
48292W        W12236   5.205   7.254   5.116
48293W        W12237  24.989   3.830  14.312
48294W        W12238  35.950  24.632   1.324
48295W        W12239  39.416  23.654   1.449
48296W        W12240   4.373   9.253   1.398
48297W        W12241  33.943  31.919  10.523
48298W        W12242  37.445   9.212   4.292
48299W        W12243  24.028   7.329   5.097
48300W        W12244  10.658  25.037   2.300
48301W        W12245   3.801  41.827  12.466
48302W        W12246   8.844  11.361   1.751
48303W        W12247  27.047  19.245  13.939
48304W        W12248  12.635   9.352   4.726
48305W        W12249   6.920  28.152   4.272
48306W        W12250  34.968  23.995   0.310
48307W        W12251  11.814  17.065   2.258
48308W        W12252  15.651  15.138   3.693
48309W        W12253  27.655  23.644   2.792
48310W        W12254   3.272  23.625   1.704
48311W        W12255   7.198  42.886   4.344
48312W        W12256   1.276   4.269  11.857
48313W        W12257  28.061  30.525   1.816
48314W        W12258  31.973   3.243   1.871
48315W        W12259  35.094  44.010   3.166
48316W        W12260  32.088  36.563   2.852
48317W        W12261   0.297  32.602  13.467
48318W        W12262  42.341  36.095  10.443
48319W        W12263  44.891  31.011  13.361
48320W        W12264  43.908  36.497   1.916
48321W        W12265   1.891  11.219   4.188
48322W        W12266  10.307  28.982  14.880
48323W        W12267  30.421  36.369  13.398
48324W        W12268  25.099   3.326  11.051
48325W        W12269  44.405  11.665   3.822
48326W        W12270  44.370  25.652  14.806
48327W        W12271   9.283   1.357  12.969
48328W        W12272  22.612   9.645   3.215
48329W        W12273  19.758  11.676   2.903
48330W        W12274   2.961   5.922   3.352
48331W        W12275  11.186  15.101  12.071
48332W        W12276  44.854  33.105  12.831
48333W        W12277  28.124  14.223   5.099
48334W        W12278   2.298  13.257   1.313
48335W        W12279   1.443   2.918   0.311
48336W        W12280  42.402  32.436   2.312
48337W        W12281  40.955  27.544   0.776
48338W        W12282   5.283  21.232   0.355
48339W        W12283   5.371   5.905   1.784
48340W        W12284  15.822  36.924  14.896
48341W        W12285   6.385  24.657  11.927
48342W        W12286  44.387  33.947  12.443
48343W        W12287  37.987  43.933  14.004
48344W        W12288  10.761  31.415   2.408
48345W        W12289  22.712  39.349   0.333
48346W        W12290  27.480  26.159  13.050
48347W        W12291  28.071  39.812  14.006
48348W        W12292  12.764  10.732   1.801
48349W        W12293  38.394  11.277   3.753
48350W        W12294   8.807  38.848   3.726
48351W        W12295   1.254  14.177  11.056
48352W        W12296   8.774  36.538   3.234
48353W        W12297  20.587  24.680   3.161
48354W        W12298  42.005  26.032  11.378
48355W        W12299  36.994  17.573  14.336
48356W        W12300  17.726   8.356   0.872
48357W        W12301   7.876  21.514   2.383
48358W        W12302  37.020  34.492  14.009
48359W        W12303   6.289  15.265  10.519
48360W        W12304   1.408  17.285   2.801
48361W        W12305  21.117  22.708   0.244
48362W        W12306   2.811  18.073  12.569
48363W        W12307  36.019  18.079   3.642
48364W        W12308  42.509  40.524   4.720
48365W        W12309   8.181  19.657  14.290
48366W        W12310  21.579  31.992  12.883
48367W        W12311  30.132  40.023   2.782
48368W        W12312  37.359  15.800   1.260
48369W        W12313  22.107  15.614  12.346
48370W        W12314  25.669  43.508   1.798
48371W        W12315  44.800  12.148   1.755
48372W        W12316  33.968  34.489   4.646
48373W        W12317  19.178  16.802  13.815
48374W        W12318  41.515  31.024   1.235
48375W        W12319  44.420  23.994  11.429
48376W        W12320  40.982  18.149   4.733
48377W        W12321  20.249  31.106   0.771
48378W        W12322  26.194  22.213   2.306
48379W        W12323  43.926  39.358   2.306
48380W        W12324  21.710  33.541   3.761
48381W        W12325   2.802  27.965  14.022
48382W        W12326  31.462  44.882   3.680
48383W        W12327   2.350  15.689  13.903
48384W        W12328   8.350   0.756  11.533
48385W        W12329  21.192  39.538   4.836
48386W        W12330  17.627  41.379   3.317
48387W        W12331   6.222   6.225   4.682
48388W        W12332   9.149  30.961  14.338
48389W        W12333  35.093  32.498   0.767
48390W        W12334  25.120   8.891  11.005
48391W        W12335  25.539   9.160   4.613
48392W        W12336  40.939  36.084   2.888
48393W        W12337   4.288  10.720   1.333
48394W        W12338   4.350  43.805  11.112
48395W        W12339  29.455  29.965  11.076
48396W        W12340   5.750   4.809   4.194
48397W        W12341  18.240   5.247  12.451
48398W        W12342  28.003  23.519   3.812
48399W        W12343  29.430   4.369  12.002
48400W        W12344  16.170   7.351   4.269
48401W        W12345  43.777  17.743   1.748
48402W        W12346  26.043  18.676  13.489
48403W        W12347   1.343  28.075  14.276
48404W        W12348  24.097  44.347   1.399
48405W        W12349  41.009  34.444   2.749
48406W        W12350  38.395   9.307  10.555
48407W        W12351   6.402   1.794   2.760
48408W        W12352  19.061  10.169   4.693
48409W        W12353  36.496  29.088   0.895
48410W        W12354   3.338   5.208  11.019
48411W        W12355  36.371  19.743  14.976
48412W        W12356  17.177  20.643  13.943
48413W        W12357   1.343   2.345   1.798
48414W        W12358  13.692  44.801   2.788
48415W        W12359  28.150  44.333   3.214
48416W        W12360  37.932   9.776  10.421
48417W        W12361  33.049   9.369  14.893
48418W        W12362  12.212  39.553  12.420
48419W        W12363  44.387   1.259   0.467
48420W        W12364  12.189  12.843   0.766
48421W        W12365  38.853  38.952  11.385
48422W        W12366   0.289  39.021   0.251
48423W        W12367  21.514  37.057  10.418
48424W        W12368  18.088  20.189   3.691
48425W        W12369  12.831  37.495   3.867
48426W        W12370  41.957  14.834  13.904
48427W        W12371  12.692  19.578  13.014
48428W        W12372  38.916  20.245   0.419
48429W        W12373  30.053  37.443   4.598
48430W        W12374  10.269  20.267  11.485
48431W        W12375  21.123  44.808   4.811
48432W        W12376  17.229  24.979  10.618
48433W        W12377  11.248  31.934  10.533
48434W        W12378  33.451   3.346   5.124
48435W        W12379  27.593  38.931  12.358
48436W        W12380  44.340  37.029   3.260
48437W        W12381  11.662   3.773  12.457
48438W        W12382  17.657  30.032   1.731
48439W        W12383  39.949   1.238  13.447
48440W        W12384  36.841  26.634   1.760
48441W        W12385  14.292  29.157  10.986
48442W        W12386  38.550  14.731   1.260
48443W        W12387  34.047  24.644   1.225
48444W        W12388  39.514  28.003  10.154
48445W        W12389   9.327  28.659  10.411
48446W        W12390  14.803  43.995   2.212
48447W        W12391  32.142   5.858  12.079
48448W        W12392  14.658   0.455   3.736
48449W        W12393  15.255  11.292  10.438
48450W        W12394  42.304  38.440  10.908
48451W        W12395   8.839   4.309   1.291
48452W        W12396  35.946  24.027  13.001
48453W        W12397  34.491  20.188   1.776
48454W        W12398  10.648  43.894  14.931
48455W        W12399  39.503  11.861  14.459
48456W        W12400   5.253   5.335  14.996
48457W        W12401  39.000  26.658  14.026
48458W        W12402  29.478  25.592   3.296
48459W        W12403   4.872   5.286   1.399
48460W        W12404  14.670  44.975  14.861
48461W        W12405  38.931  17.759   1.355
48462W        W12406  28.436  16.751   3.700
48463W        W12407  30.499  38.515  10.559
48464W        W12408  10.858  11.696  14.989
48465W        W12409  27.625  11.282  12.481
48466W        W12410  13.167  38.970   2.805
48467W        W12411  27.506  13.283  12.412
48468W        W12412   2.939  39.948   4.149
48469W        W12413  22.536  24.980  13.315
48470W        W12414  43.018  25.520   0.478
48471W        W12415  42.391  25.088  10.950
48472W        W12416  13.116  11.847  11.963
48473W        W12417  29.020  29.590  11.905
48474W        W12418  40.924   1.461  14.988
48475W        W12419  34.887   9.844  11.608
48476W        W12420  28.029   7.699   3.742
48477W        W12421  31.129  40.315   0.316
48478W        W12422  41.818   4.324   0.875
48479W        W12423  14.137  14.754   4.342
48480W        W12424  11.678  41.527  10.953
48481W        W12425  39.925  18.650   4.610
48482W        W12426  30.518  37.991  14.376
48483W        W12427  10.265   6.746  12.376
48484W        W12428   8.173  24.114  13.946
48485W        W12429  19.767  10.175   5.305
48486W        W12430   7.730  24.480  10.617
48487W        W12431  36.535   7.897   3.157
48488W        W12432   3.709  16.673  12.352
48489W        W12433  36.473  33.471  10.462
48490W        W12434  31.411  39.479   2.209
48491W        W12435   8.777  38.931   5.304
48492W        W12436  38.513  44.436  13.981
48493W        W12437   7.218   7.349  11.044
48494W        W12438  15.237   6.225   1.850
48495W        W12439  25.482  16.683  10.964
48496W        W12440  25.118  22.548   3.682
48497W        W12441   0.472  17.731  13.352
48498W        W12442  12.338  15.125  13.336
48499W        W12443   6.825  43.974   0.315
48500W        W12444  16.744   2.894   3.148
48501W        W12445  22.163  28.507  10.928
48502W        W12446  43.493  19.701   4.292
48503W        W12447  15.269   1.457  12.898
48504W        W12448  20.543  14.190  14.508
48505W        W12449  15.593  14.710   2.224
48506W        W12450  18.193  23.560   4.815
48507W        W12451  17.227  15.227  10.433
48508W        W12452  43.930   4.895   4.138
48509W        W12453   1.935   9.310   2.734
48510W        W12454   8.403  16.226   0.861
48511W        W12455  28.969  10.168  12.089
48512W        W12456  41.963  18.080  11.033
48513W        W12457  41.883  42.460  14.413
48514W        W12458  24.139  28.119  13.313
48515W        W12459  10.243  26.554   3.314
48516W        W12460  14.681   3.380   0.761
48517W        W12461  42.809  37.069   2.687
48518W        W12462  22.104  24.481   2.861
48519W        W12463   1.475  19.189  10.447
48520W        W12464  33.449  32.135  10.463
48521W        W12465  13.802  32.436  13.311
48522W        W12466  29.492  19.647   2.397
48523W        W12467  36.089   2.775   3.262
48524W        W12468  16.621  44.326  14.029
48525W        W12469  41.482  38.363   3.729
48526W        W12470  40.317  38.075   1.857
48527W        W12471  19.614  18.154   1.814
48528W        W12472   5.210  14.725   1.324
48529W        W12473  36.889   5.907  12.501
48530W        W12474   2.751  40.429  14.818
48531W        W12475  18.619   9.856   2.811
48532W        W12476   6.289  11.225  11.909
48533W        W12477  43.004  27.649   3.254
48534W        W12478  37.947   8.169  12.956
48535W        W12479  17.062  23.706   3.721
48536W        W12480   4.300  27.500   1.738
48537W        W12481   1.282   5.892   3.781
48538W        W12482   3.918  19.654   2.762
48539W        W12483  34.894  28.451  13.799
48540W        W12484  10.813   5.756  14.009
48541W        W12485  32.395  44.477  14.324
48542W        W12486   2.837  19.770   3.250
48543W        W12487   2.342  38.855   5.162
48544W        W12488  41.957  23.630  10.129
48545W        W12489   9.700  26.667   3.690
48546W        W12490  40.918  27.137  14.506
48547W        W12491  41.924  15.329  10.536
48548W        W12492  43.403  15.633   0.415
48549W        W12493  29.057  31.944   1.282
48550W        W12494  39.017   3.427  11.429
48551W        W12495  33.007  44.002   3.680
48552W        W12496  17.075  13.669  14.279
48553W        W12497  37.435  18.197  12.579
48554W        W12498  40.820  36.956  12.976
48555W        W12499  28.036   1.253   4.322
48556W        W12500  25.544  25.124   4.800
48557W        W12501   2.824  31.460  10.484
48558W        W12502  30.142  35.933  12.899
48559W        W12503  41.501  12.336   3.745
48560W        W12504  25.019  32.920   1.803
48561W        W12505  22.247  15.705  14.770
48562W        W12506  39.877  22.193  10.403
48563W        W12507  33.965  44.440  13.863
48564W        W12508  34.380  19.757   1.730
48565W        W12509   6.273  21.058   4.694
48566W        W12510  17.283  22.560  14.029
48567W        W12511  18.765  11.777  11.424
48568W        W12512  11.640  39.957   0.475
48569W        W12513  21.040   6.417  14.917
48570W        W12514  20.552  44.867   2.703
48571W        W12515   9.159  43.329   0.316
48572W        W12516  43.022   6.825  10.936
48573W        W12517   9.265  25.142  12.502
48574W        W12518  34.490  23.116  12.566
48575W        W12519  36.066   1.321   2.850
48576W        W12520  13.642   7.227   4.305
48577W        W12521  41.363  19.748   0.348
48578W        W12522  36.043  34.928   1.225
48579W        W12523  32.456   9.289  10.921
48580W        W12524   7.787  23.637  13.952
48581W        W12525   5.404  14.331   5.181
48582W        W12526  43.396  30.624  14.918
48583W        W12527  14.740  31.411   4.751
48584W        W12528  41.357  29.563   3.853
48585W        W12529  11.318  21.739   4.197
48586W        W12530  22.728  24.186  14.950
48587W        W12531  40.798   9.311   3.372
48588W        W12532  40.365  33.908  11.419
48589W        W12533   0.750  35.945  12.014
48590W        W12534   2.847  27.960   0.832
48591W        W12535  34.040   9.722   2.827
48592W        W12536  16.168  23.099  11.110
48593W        W12537  36.495  40.322   1.700
48594W        W12538  18.219   3.402  13.012
48595W        W12539  21.119  11.750  11.925
48596W        W12540  10.871   4.773  10.985
48597W        W12541  42.025  24.102  14.346
48598W        W12542   4.872  41.027  12.439
48599W        W12543   3.249  25.531   3.831
48600W        W12544  38.904  42.520   4.224
48601W        W12545   5.312  43.764   0.278
48602W        W12546  30.962   3.414   4.122
48603W        W12547  31.606   9.220  13.351
48604W        W12548  20.526  22.508   5.099
48605W        W12549  32.404   2.740   0.811
48606W        W12550  21.250  11.304  13.825
48607W        W12551  28.055  20.725  12.949
48608W        W12552  32.460  25.064   4.606
48609W        W12553  16.316   6.760   4.695
48610W        W12554  42.996  13.242  10.406
48611W        W12555  13.653   3.816   1.739
48612W        W12556  18.239   4.307   2.830
48613W        W12557  19.656  32.905   0.771
48614W        W12558  34.021  42.406  13.061
48615W        W12559  23.575   5.727  14.018
48616W        W12560  15.249   0.294   0.289
48617W        W12561  19.212  23.622  13.024
48618W        W12562  27.157  33.412  13.899
48619W        W12563  24.490   7.271  13.335
48620W        W12564  34.969  17.760  11.913
48621W        W12565  12.129  26.135   4.308
48622W        W12566   3.946  41.923  14.011
48623W        W12567  31.566  34.502  14.377
48624W        W12568  33.068   2.262  14.362
48625W        W12569  40.421  16.175   3.711
48626W        W12570  35.374  27.128   2.665
48627W        W12571   2.795   3.815  11.583
48628W        W12572   8.833  38.359   3.275
48629W        W12573  15.656  38.534  10.403
48630W        W12574  43.514  36.367   2.384
48631W        W12575   9.273   1.896  12.382
48632W        W12576  32.135  23.196   1.276
48633W        W12577  32.109   6.687   1.708
48634W        W12578  30.064   0.841  13.411
48635W        W12579   4.905   3.423  10.614
48636W        W12580  41.836  15.266   4.624
48637W        W12581  22.659  10.800  10.149
48638W        W12582  14.139  28.131  11.017
48639W        W12583  17.308  19.241   3.362
48640W        W12584  22.095  42.362  14.441
48641W        W12585  31.074   2.289  11.577
48642W        W12586  33.614  15.232  13.874
48643W        W12587  23.208  34.951   3.244
48644W        W12588   2.961  32.088   3.839
48645W        W12589  35.081   1.746  10.931
48646W        W12590  15.689  42.368  14.917
48647W        W12591   1.278  14.738   0.784
48648W        W12592  25.165  23.236   2.368
48649W        W12593  43.314  44.475   2.267
48650W        W12594  17.136   8.893  12.858
48651W        W12595   6.422  17.591  13.907
48652W        W12596  28.607  42.805  12.086
48653W        W12597  43.345   0.748  13.448
48654W        W12598  23.676   7.234   2.804
48655W        W12599   6.261  33.093  10.904
48656W        W12600   3.327  44.334   4.141
48657W        W12601   0.861  34.452   0.883
48658W        W12602  43.294  11.152   3.675
48659W        W12603  10.173  30.071   4.234
48660W        W12604  16.611  14.640   0.394
48661W        W12605  27.654  14.601  10.908
48662W        W12606   9.315  10.688  14.984
48663W        W12607   2.855  37.339  13.043
48664W        W12608  29.505  33.906  12.364
48665W        W12609  30.435  41.960  13.430
48666W        W12610  19.689  24.035  10.106
48667W        W12611  21.211   5.315   1.235
48668W        W12612  30.117  39.353  11.380
48669W        W12613  17.761  44.764  11.591
48670W        W12614  33.051  18.670  12.459
48671W        W12615  29.552   9.391   3.635
48672W        W12616  13.138  30.482   4.806
48673W        W12617  42.983  29.064  13.795
48674W        W12618  20.672   1.343   3.740
48675W        W12619  18.556   9.198   0.456
48676W        W12620   6.892  26.464  10.543
48677W        W12621   5.288  16.685   4.343
48678W        W12622  20.112   5.267   1.813
48679W        W12623   0.298   6.801   1.811
48680W        W12624  21.695  44.422  14.995
48681W        W12625  34.468  15.232   2.276
48682W        W12626  16.758  43.881   3.260
48683W        W12627  21.681   7.816  12.827
48684W        W12628   1.815  10.356  14.470
48685W        W12629  34.498  33.549  13.346
48686W        W12630  11.637  14.284   1.330
48687W        W12631  38.407  12.685  13.355
48688W        W12632  43.815   9.299  11.476
48689W        W12633  24.055  18.212  10.595
48690W        W12634   5.264  31.934  13.382
48691W        W12635  29.944   2.902  14.502
48692W        W12636  27.524  36.523  12.531
48693W        W12637  40.872  33.434   2.334
48694W        W12638   1.432  12.767   1.768
48695W        W12639   5.416  33.535   2.853
48696W        W12640   9.209  13.776   3.667
48697W        W12641  37.878  38.032   0.962
48698W        W12642  33.477  12.158  11.582
48699W        W12643  10.780  11.690  14.308
48700W        W12644   2.472  40.821  11.494
48701W        W12645  44.418  38.449   4.612
48702W        W12646  32.014  15.667  13.338
48703W        W12647  24.715  29.988   1.828
48704W        W12648  17.750  44.405  13.422
48705W        W12649  21.665  44.970  10.641
48706W        W12650  19.712  15.628  10.063
48707W        W12651  18.095  19.640   3.282
48708W        W12652  39.856  26.201  13.523
48709W        W12653  20.092   4.792   1.238
48710W        W12654  12.276   8.394  12.537
48711W        W12655  23.062  39.902   0.260
48712W        W12656  38.849  15.601   3.183
48713W        W12657  38.016  15.218  11.058
48714W        W12658  43.384  32.571   3.325
48715W        W12659  20.605  44.984   3.344
48716W        W12660   3.788  42.901   4.624
48717W        W12661  38.855  42.345  14.389
48718W        W12662   3.230  21.728   3.712
48719W        W12663  16.789  31.028  14.509
48720W        W12664  19.548  32.620  11.955
48721W        W12665   1.303  23.552   3.320
48722W        W12666  19.087   0.432  13.997
48723W        W12667  30.456  11.685   4.760
48724W        W12668  44.806  15.252   2.879
48725W        W12669  43.903  26.651   1.294
48726W        W12670  32.050  10.800  11.930
48727W        W12671  38.527   5.865  12.445
48728W        W12672  13.257  42.285  13.875
48729W        W12673  24.649   8.785   1.933
48730W        W12674  31.467  37.048   2.208
48731W        W12675  27.541  17.215   1.410
48732W        W12676   4.235   1.353  10.526
48733W        W12677   2.296   9.883  14.995
48734W        W12678  13.754  16.115   4.727
48735W        W12679   6.389  35.501   3.637
48736W        W12680   0.886  35.919   0.897
48737W        W12681  10.663  18.692  10.640
48738W        W12682  22.709  36.532   9.944
48739W        W12683   0.788  18.074  10.041
48740W        W12684  10.762  24.097  14.836
48741W        W12685  18.741   4.432  10.619
48742W        W12686  39.011   1.894  10.045
48743W        W12687   5.365  38.973  12.850
48744W        W12688  36.865   5.929   3.838
48745W        W12689  42.852   2.453  14.476
48746W        W12690  10.244  13.326  13.536
48747W        W12691  27.598   1.314   4.279
48748W        W12692  28.109  26.497   1.929
48749W        W12693   2.278  10.199   4.753
48750W        W12694   0.961  23.180  12.487
48751W        W12695  20.118  26.069   2.748
48752W        W12696  23.548  31.015   3.370
48753W        W12697   5.199   9.244   4.709
48754W        W12698   9.172   9.343  13.362
48755W        W12699  24.192  26.136   3.698
48756W        W12700   8.875   1.306   0.368
48757W        W12701  40.326  31.152   3.282
48758W        W12702  32.930  24.997   1.863
48759W        W12703   9.890  18.718  14.976
48760W        W12704  23.685  15.314  12.355
48761W        W12705  15.103  41.998   2.405
48762W        W12706   0.845  26.551  13.854
48763W        W12707   2.964   8.852  14.881
48764W        W12708  33.923  22.123  13.791
48765W        W12709  35.978  11.286   4.757
48766W        W12710  25.003   1.931  12.997
48767W        W12711  43.449  17.119  13.340
48768W        W12712  26.471  10.260   5.240
48769W        W12713  41.922  31.604   4.646
48770W        W12714  33.434   2.790   2.724
48771W        W12715  13.749   7.268   3.740
48772W        W12716   5.919  31.467  12.475
48773W        W12717  16.802  30.470  12.085
48774W        W12718  44.261   6.729   0.429
48775W        W12719   8.824  37.497   0.929
48776W        W12720   5.393   9.760  12.094
48777W        W12721  35.943  36.062  12.929
48778W        W12722  43.494  44.364   0.857
48779W        W12723  21.632  23.733  14.442
48780W        W12724  39.045   2.854  10.980
48781W        W12725  43.413  30.459   3.679
48782W        W12726  37.488  22.626  13.892
48783W        W12727   0.864  11.823   2.316
48784W        W12728   0.284   6.349   5.115
48785W        W12729  19.258  44.794  14.361
48786W        W12730  27.615  33.569   4.152
48787W        W12731   3.396  16.781   9.933
48788W        W12732  36.076  17.278  10.976
48789W        W12733   7.376  23.703   2.890
48790W        W12734  44.313  13.613   1.233
48791W        W12735  29.042  24.171   0.360
48792W        W12736  18.622   7.277  12.075
48793W        W12737  25.096  42.297   3.662
48794W        W12738  16.154  35.370   4.766
48795W        W12739  36.916  12.153   4.622
48796W        W12740  15.303   8.800   4.131
48797W        W12741  41.390   5.217  14.021
48798W        W12742   1.451  22.120   1.244
48799W        W12743   5.835  40.924  12.884
48800W        W12744  42.790  38.493  11.877
48801W        W12745  31.521  31.050  10.487
48802W        W12746  24.987  20.714  11.430
48803W        W12747   0.311   0.470   0.771
48804W        W12748  10.856  37.496   5.266
48805W        W12749  25.988   7.822  11.528
48806W        W12750   2.415  27.520   4.124
48807W        W12751  22.168  34.914   0.794
48808W        W12752   2.462  19.747   2.195
48809W        W12753  19.143   2.858   4.195
48810W        W12754  38.902   3.390   3.663
48811W        W12755  19.579  24.664   2.359
48812W        W12756   7.705  30.144  12.936
48813W        W12757  24.712  33.955  12.482
48814W        W12758  16.227  27.963  11.526
48815W        W12759  35.580  21.209  11.537
48816W        W12760  32.544  37.965   0.735
48817W        W12761  15.263  32.484  11.386
48818W        W12762  43.460  23.041  10.544
48819W        W12763  33.004   9.722   0.919
48820W        W12764  39.531  27.943  13.984
48821W        W12765   6.404  19.628  11.571
48822W        W12766  26.700  31.506   0.932
48823W        W12767  15.820  23.092  12.473
48824W        W12768  22.566  12.619  14.008
48825W        W12769  17.133  44.824  12.365
48826W        W12770  18.742  35.540   0.434
48827W        W12771  12.157  38.565   1.271
48828W        W12772  11.766  30.656   4.181
48829W        W12773  10.288  38.912   3.208
48830W        W12774   3.233  12.715  12.559
48831W        W12775  22.567  34.489   4.303
48832W        W12776  25.144   6.803  11.914
48833W        W12777  30.524  34.072  11.530
48834W        W12778  20.227  41.515   5.203
48835W        W12779   8.900  43.494  12.020
48836W        W12780   2.459   5.348   4.292
48837W        W12781  30.986  20.126  12.536
48838W        W12782  19.653  11.820   5.202
48839W        W12783  35.459   7.674  14.349
48840W        W12784   5.341   7.371   4.350
48841W        W12785   0.330  35.496  12.990
48842W        W12786   2.396   8.365  14.383
48843W        W12787  40.020  34.103   2.310
48844W        W12788   2.813  41.945   1.829
48845W        W12789  38.898  32.002  14.801
48846W        W12790  23.186  17.235  14.770
48847W        W12791  35.436  44.774   3.799
48848W        W12792   6.211  26.529   1.705
48849W        W12793   3.378   8.364   0.933
48850W        W12794  21.537  32.964   4.181
48851W        W12795  22.653  34.585   1.374
48852W        W12796   0.321  15.723  10.120
48853W        W12797  25.109  41.012   0.385
48854W        W12798  18.786  43.349   1.788
48855W        W12799   5.837  23.618  11.454
48856W        W12800  15.140  34.971  11.031
48857W        W12801   3.723  35.512  11.514
48858W        W12802  20.034   9.215   0.781
48859W        W12803  24.491  43.802  12.346
48860W        W12804  26.190  18.569   1.287
48861W        W12805  44.301  18.580  10.576
48862W        W12806  28.031  41.380   4.307
48863W        W12807  12.650   8.838  13.039
48864W        W12808   9.679  12.790   3.311
48865W        W12809   9.155  17.716   4.605
48866W        W12810  44.341  37.371   1.699
48867W        W12811  14.745  25.526  13.832
48868W        W12812  18.216  17.669   3.698
48869W        W12813  38.069  31.141   2.693
48870W        W12814  15.316  38.840   4.698
48871W        W12815  21.158   5.225   2.871
48872W        W12816   9.187   0.353  12.439
48873W        W12817   9.692  38.043   1.372
48874W        W12818   9.383  29.983  14.485
48875W        W12819   0.295   1.349  13.382
48876W        W12820  43.312  10.266   0.956
48877W        W12821  37.350  24.098   2.733
48878W        W12822   9.772  31.001   3.758
48879W        W12823  27.154   8.744  12.065
48880W        W12824  10.810  33.489  10.005
48881W        W12825  21.737  22.139   2.345
48882W        W12826  25.974  29.533   1.859
48883W        W12827  41.456   9.674   0.868
48884W        W12828  24.024   2.326   2.254
48885W        W12829   4.794  41.340   4.158
48886W        W12830   0.764   7.904   2.900
48887W        W12831   5.336  30.922   1.816
48888W        W12832  30.914  34.866   3.186
48889W        W12833  14.749  40.013  12.544
48890W        W12834   8.728  24.711   2.877
48891W        W12835   4.722  33.385   2.195
48892W        W12836  39.326   7.781   3.281
48893W        W12837  18.777  16.786  12.365
48894W        W12838  42.842  34.445  11.016
48895W        W12839  29.546   5.758   4.337
48896W        W12840  19.280  13.230   2.792
48897W        W12841  39.365  31.613   3.684
48898W        W12842  42.015  35.943  12.482
48899W        W12843   7.223  42.315   4.654
48900W        W12844  29.042  22.511   1.406
48901W        W12845  20.205  26.571  12.507
48902W        W12846   7.796  39.437   4.245
48903W        W12847  39.887  27.179   3.818
48904W        W12848  22.019  39.458  14.953
48905W        W12849   2.393  17.293   1.847
48906W        W12850   8.192  20.087  11.952
48907W        W12851   1.744  38.948  11.903
48908W        W12852  40.912  42.427   3.827
48909W        W12853  44.407   1.856   2.836
48910W        W12854  17.068  21.103  13.405
48911W        W12855  11.154  15.093   4.690
48912W        W12856  12.283  32.089  13.357
48913W        W12857  15.809  32.910  10.070
48914W        W12858   1.306  20.229   0.452
48915W        W12859  15.621   0.313  14.758
48916W        W12860  26.693   3.268   4.343
48917W        W12861  18.113  10.747  10.639
48918W        W12862  44.454  15.737   3.196
48919W        W12863  26.023  42.359  12.359
48920W        W12864  34.550  44.491  10.108
48921W        W12865  16.683  40.889   2.252
48922W        W12866   4.934  24.098  10.028
48923W        W12867   4.238  21.719  10.615
48924W        W12868  35.409  23.666   4.658
48925W        W12869   8.857  25.065   2.722
48926W        W12870  32.118  43.324  11.505
48927W        W12871   4.449  35.497   0.885
48928W        W12872  16.230   2.960  14.762
48929W        W12873   0.444  10.301  14.297
48930W        W12874  42.404  22.072   2.807
48931W        W12875  39.900  16.291   2.744
48932W        W12876   4.859  22.103  11.083
48933W        W12877  33.035  12.287   2.793
48934W        W12878  10.743   9.265  11.888
48935W        W12879  21.678  38.000  12.965
48936W        W12880  35.426  21.564   3.370
48937W        W12881  25.094  37.933   0.826
48938W        W12882   0.823  31.091  13.796
48939W        W12883  15.803  24.995   0.866
48940W        W12884   9.326  22.080  10.521
48941W        W12885  27.966  37.856   1.730
48942W        W12886   2.960  30.601   3.306
48943W        W12887  41.473  22.612   4.216
48944W        W12888  33.014  42.358  11.460
48945W        W12889  34.919   3.869  13.856
48946W        W12890  37.899  39.513  14.951
48947W        W12891  32.598  32.925  10.441
48948W        W12892   8.325  28.590   3.246
48949W        W12893  18.223  43.836  13.956
48950W        W12894  22.221  24.139  10.572
48951W        W12895   8.797   8.676   3.800
48952W        W12896  18.162  20.033  12.872
48953W        W12897   0.335  20.248  12.343
48954W        W12898  33.424  26.577   2.314
48955W        W12899  30.001  21.025   3.313
48956W        W12900  34.940   2.284   2.720
48957W        W12901  36.577  21.073  12.492
48958W        W12902  18.118  43.417  12.554
48959W        W12903  32.116   7.902  11.033
48960W        W12904  14.659  33.527   3.766
48961W        W12905  13.313  38.523  11.106
48962W        W12906  20.682  13.294  12.471
48963W        W12907  30.630  37.414   3.301
48964W        W12908  19.778  15.598  13.993
48965W        W12909  16.682  10.160   4.122
48966W        W12910  20.101  16.679  11.052
48967W        W12911   3.279  10.815   4.679
48968W        W12912  32.416   9.323   4.126
48969W        W12913  17.787   6.894   4.648
48970W        W12914  19.096  38.399   1.262
48971W        W12915  36.900   6.859  14.847
48972W        W12916  37.923  41.028   0.378
48973W        W12917  21.081  41.857   0.416
48974W        W12918   8.668  17.070  11.462
48975W        W12919  28.554  15.323  10.037
48976W        W12920  42.378  37.580  13.350
48977W        W12921  24.654  43.858  14.880
48978W        W12922  29.491  18.635  13.015
48979W        W12923  34.103  16.781  13.410
48980W        W12924  30.133  20.158   1.737
48981W        W12925  11.777  22.196  13.870
48982W        W12926  11.181  26.961   0.817
48983W        W12927  26.473  18.695  14.896
48984W        W12928   3.303  19.048   1.761
48985W        W12929  39.947  13.332   0.773
48986W        W12930  11.831  21.160   0.378
48987W        W12931  31.544  34.498  13.488
48988W        W12932  18.680  19.201  13.000
48989W        W12933  18.601  34.537  13.532
48990W        W12934   8.186  10.759  11.975
48991W        W12935  36.560  26.500  12.860
48992W        W12936  33.597  24.186  13.831
48993W        W12937   6.765  39.011  11.442
48994W        W12938   3.398   1.255   0.733
48995W        W12939  14.166  13.612  12.885
48996W        W12940  21.580   3.814  10.636
48997W        W12941  19.775  13.707  14.858
48998W        W12942   9.857  41.942   0.420
48999W        W12943  16.312  15.272   0.833
49000W        W12944  36.896  33.614  12.470
49001W        W12945   6.686  40.433  12.874
49002W        W12946  32.396  33.563   1.337
49003W        W12947  24.997   9.188  11.037
49004W        W12948  39.458  37.375   3.729
49005W        W12949  10.199  18.156  14.844
49006W        W12950  33.525  10.776   4.132
49007W        W12951  26.580  19.153  14.861
49008W        W12952   2.327  42.028   2.220
49009W        W12953  40.339   3.320   0.324
49010W        W12954  11.207  25.070  11.466
49011W        W12955  29.451  33.076  12.345
49012W        W12956  30.640  12.627  14.300
49013W        W12957  42.365   3.386  11.549
49014W        W12958   9.354  14.797  11.537
49015W        W12959  44.425  23.645  10.490
49016W        W12960  15.274  31.595   2.874
49017W        W12961  37.879   2.958   3.862
49018W        W12962  44.011  34.948  12.092
49019W        W12963   3.841  26.651  10.410
49020W        W12964   2.431   1.351   2.328
49021W        W12965  33.470  11.649  11.459
49022W        W12966  42.786  17.126   5.295
49023W        W12967   1.830  13.836   0.346
49024W        W12968  41.444  39.021  10.931
49025W        W12969  32.105  32.505  12.507
49026W        W12970  11.308  37.480  11.121
49027W        W12971  14.758  32.059  12.465
49028W        W12972   8.718  27.041   4.272
49029W        W12973   7.389  13.753  14.456
49030W        W12974  20.146   2.321  11.916
49031W        W12975  15.311  39.411   0.262
49032W        W12976  29.425  31.647  11.128
49033W        W12977   5.741  43.345   3.310
49034W        W12978  34.613  18.210  14.496
49035W        W12979  35.544  23.594  14.855
49036W        W12980   0.282  17.686  12.390
49037W        W12981  35.529   5.877  14.506
49038W        W12982  26.586  43.937   4.773
49039W        W12983  23.086  15.670   2.200
49040W        W12984  10.275  16.771   0.798
49041W        W12985  44.955  42.938  13.892
49042W        W12986  16.134   5.250  14.785
49043W        W12987  29.502   8.872   2.264
49044W        W12988  15.184  29.136   2.200
49045W        W12989  16.086   1.405   4.777
49046W        W12990   5.380  31.969   4.621
49047W        W12991   1.735  20.617  14.379
49048W        W12992  11.825  22.038   0.750
49049W        W12993  26.000   5.371   1.445
49050W        W12994   3.295  18.621   3.654
49051W        W12995  21.157  44.819   3.860
49052W        W12996  13.826  34.966   1.873
49053W        W12997   0.296  31.036   3.660
49054W        W12998   4.779   6.210  14.483
49055W        W12999  41.917  26.970  14.500
49056W        W13000  24.212  30.122  11.040
49057W        W13001   6.773   7.697   1.778
49058W        W13002  42.780  35.402   4.652
49059W        W13003  15.715  36.570  11.951
49060W        W13004  15.089   2.310   1.279
49061W        W13005  37.916   3.926  11.458
49062W        W13006   9.388  18.627  13.516
49063W        W13007  22.647  32.617  13.866
49064W        W13008  16.301   8.831  11.871
49065W        W13009  18.770  27.087   0.890
49066W        W13010  14.715   4.774   3.168
49067W        W13011  43.892  13.753  11.480
49068W        W13012  11.697  34.954   4.229
49069W        W13013   0.326  15.271  13.888
49070W        W13014  19.601  38.480   2.809
49071W        W13015  10.274  24.557   1.746
49072W        W13016  20.107  36.928  12.862
49073W        W13017   8.695  36.027  13.021
49074W        W13018  20.031  31.126   1.863
49075W        W13019  26.594  38.466  14.949
49076W        W13020   4.214  42.882   0.254
49077W        W13021  19.250   1.905  11.924
49078W        W13022   6.366  24.197  13.492
49079W        W13023  44.471  17.125  13.319
49080W        W13024   0.317  13.750  10.592
49081W        W13025  10.216  22.660  14.461
49082W        W13026  14.324   8.849  14.009
49083W        W13027  36.431  26.005   3.310
49084W        W13028   2.817  32.006  14.982
49085W        W13029  30.121  22.512  11.954
49086W        W13030  32.517  12.278  14.904
49087W        W13031  19.621  33.080   3.713
49088W        W13032   4.257  12.663   2.184
49089W        W13033  16.294  23.072   5.762
49090W        W13034  12.726  11.252  13.805
49091W        W13035  28.579  38.037   1.266
49092W        W13036  31.423  43.769   3.829
49093W        W13037  27.548  24.521   2.878
49094W        W13038  18.151   7.391   2.181
49095W        W13039  10.813  42.833  13.832
49096W        W13040  24.109  16.200  14.493
49097W        W13041  14.121  42.325   4.722
49098W        W13042   9.782   5.370   4.320
49099W        W13043  24.226   9.850   4.175
49100W        W13044   4.803   6.183   5.614
49101W        W13045  37.040  44.786  12.432
49102W        W13046  32.063  35.035   1.335
49103W        W13047  32.979  23.544   4.212
49104W        W13048   7.415   3.423  14.488
49105W        W13049  28.587  14.807   0.438
49106W        W13050  42.316  26.031   4.279
49107W        W13051  26.675   6.777  12.365
49108W        W13052  40.995  20.052   1.863
49109W        W13053  41.952  24.490   1.408
49110W        W13054  14.748  31.496  10.096
49111W        W13055  30.083   3.720   3.866
49112W        W13056  22.227   9.391   1.804
49113W        W13057  18.257  29.670  13.014
49114W        W13058  23.544  12.707   3.383
49115W        W13059  24.489  16.806   2.667
49116W        W13060  11.714   8.281   4.194
49117W        W13061  36.417   2.319  13.362
49118W        W13062  24.101  37.054  12.826
49119W        W13063  23.674  43.454  12.909
49120W        W13064   9.829  34.989  10.913
49121W        W13065  27.960  30.004   1.871
49122W        W13066  15.168  11.648  14.810
49123W        W13067   3.295  24.037   2.754
49124W        W13068  43.271  22.710  11.063
49125W        W13069  37.970  43.790  13.052
49126W        W13070  37.550  29.532  13.469
49127W        W13071  12.754  25.993  14.431
49128W        W13072   9.171  32.550   0.823
49129W        W13073  16.136   7.244   5.190
49130W        W13074  38.361  21.536  12.827
49131W        W13075  11.814  17.704   3.158
49132W        W13076  16.660  29.925   4.258
49133W        W13077  35.946   1.438  12.402
49134W        W13078  10.854   2.275   1.793
49135W        W13079  39.364  18.258  14.936
49136W        W13080  26.974  30.134   2.293
49137W        W13081   7.291   2.366   0.745
49138W        W13082  39.832  17.601   2.196
49139W        W13083   1.831   2.400  10.588
49140W        W13084  25.695  17.681   3.643
49141W        W13085  12.665  15.228  12.041
49142W        W13086  39.942  39.064   2.213
49143W        W13087  39.879  44.491  12.444
49144W        W13088  23.109  31.972  11.876
49145W        W13089  12.197  31.435   0.775
49146W        W13090  12.663   6.242  13.547
49147W        W13091   4.393  19.588   1.762
49148W        W13092  12.726  31.051   1.839
49149W        W13093  43.900   0.842  12.509
49150W        W13094   7.859  33.586  10.489
49151W        W13095  27.586   8.231  14.760
49152W        W13096  33.416  33.071  12.573
49153W        W13097  35.091  11.689   1.776
49154W        W13098  25.030  37.846   1.348
49155W        W13099  37.520  13.128  11.084
49156W        W13100  11.779  25.496  11.880
49157W        W13101  41.398  38.855   1.826
49158W        W13102   3.291   0.925  13.369
49159W        W13103  21.078  13.651  12.969
49160W        W13104   8.342  26.659   0.858
49161W        W13105  36.553   9.340  13.829
49162W        W13106  27.982  38.406   4.605
49163W        W13107  37.407  24.523  11.987
49164W        W13108  36.902  11.161   4.262
49165W        W13109   5.194   0.963   0.795
49166W        W13110  13.829  38.994  14.480
49167W        W13111  36.989  25.133  13.460
49168W        W13112  24.497   0.490  11.424
49169W        W13113  22.557   7.851   0.429
49170W        W13114  13.345  33.117  11.100
49171W        W13115  12.636  42.373   0.866
49172W        W13116  42.867   2.419   5.195
49173W        W13117   6.773  39.047   1.801
49174W        W13118  31.567  18.287   2.698
49175W        W13119  34.942  39.335   4.262
49176W        W13120  23.568   4.328  13.408
49177W        W13121   6.785   1.883   4.134
49178W        W13122  12.243  34.041  11.943
49179W        W13123  11.684  23.233  14.455
49180W        W13124   7.284  25.011  12.389
49181W        W13125  10.788  21.176  10.004
49182W        W13126  17.153  22.074  14.959
49183W        W13127   4.908   6.193   2.705
49184W        W13128   9.304   3.414   5.195
49185W        W13129  25.997  42.030   4.601
49186W        W13130  15.635  17.193  13.370
49187W        W13131  34.438  34.049   0.441
49188W        W13132  18.216  32.998  12.829
49189W        W13133  31.638  12.743   4.205
49190W        W13134   3.754  34.946  11.017
49191W        W13135   3.894  24.561   4.794
49192W        W13136  32.912  16.169  13.034
49193W        W13137  26.960  19.226   4.268
49194W        W13138  38.932   7.738   3.355
49195W        W13139  17.138  12.236   3.865
49196W        W13140   2.779  35.102  14.296
49197W        W13141  27.447  26.595  13.317
49198W        W13142  14.683  43.870  14.347
49199W        W13143  12.211  19.284  14.371
49200W        W13144  41.790   0.969  13.317
49201W        W13145  24.543  25.033  12.969
49202W        W13146  31.527   0.770   2.246
49203W        W13147   5.235  26.684  12.850
49204W        W13148  10.195  29.919  14.459
49205W        W13149  29.525  20.540   3.683
49206W        W13150  30.568  14.107   0.411
49207W        W13151  10.833  43.365  13.448
49208W        W13152  13.793   8.305   0.896
49209W        W13153  14.751   2.812  13.367
49210W        W13154  17.150  30.500  13.847
49211W        W13155  11.837  10.766   4.640
49212W        W13156  28.665   2.254   1.844
49213W        W13157  43.859  36.076  14.905
49214W        W13158  23.693  34.926   0.963
49215W        W13159  37.364   5.302   3.359
49216W        W13160   5.307  32.111   1.426
49217W        W13161   7.321  26.977   1.933
49218W        W13162   4.827  28.145  14.917
49219W        W13163  13.652  26.651  14.327
49220W        W13164  39.938  26.513  12.553
49221W        W13165  30.467  24.214   4.796
49222W        W13166  39.320  26.611  14.501
49223W        W13167  19.591  44.776  13.473
49224W        W13168  43.876  14.188   1.930
49225W        W13169  35.997   7.312   2.337
49226W        W13170   0.793   4.248  10.491
49227W        W13171  22.123   2.757  13.915
49228W        W13172  12.635  28.609   1.875
49229W        W13173  25.212  42.354   1.931
49230W        W13174  33.969  18.262   3.841
49231W        W13175  14.755  27.016  12.982
49232W        W13176  36.035  38.455   1.755
49233W        W13177  33.472  36.916   4.705
49234W        W13178   4.804  28.678  14.395
49235W        W13179  15.799  36.456   1.381
49236W        W13180  11.256   1.744   3.783
49237W        W13181  42.873  14.712   2.707
49238W        W13182  31.945  41.436   3.809
49239W        W13183   6.310   8.378  11.606
49240W        W13184   3.308  27.002   4.622
49241W        W13185  23.150  30.417  14.907
49242W        W13186  30.497  21.140  14.771
49243W        W13187  24.629  16.755   2.375
49244W        W13188  29.096  32.628   0.323
49245W        W13189  29.057  24.525   1.294
49246W        W13190  38.887  10.750   0.407
49247W        W13191  36.906  29.070   4.280
49248W        W13192  28.454  39.484   2.844
49249W        W13193  44.969  36.889   1.311
49250W        W13194   4.810  19.569   4.717
49251W        W13195   2.787  15.683   3.800
49252W        W13196  22.610  22.609   0.452
49253W        W13197  32.938  14.317  10.988
49254W        W13198  20.062  25.988  13.830
49255W        W13199   7.811  25.112   2.296
49256W        W13200  29.469  13.738  12.059
49257W        W13201  37.577  34.076   2.280
49258W        W13202  44.910   2.847  14.341
49259W        W13203  20.154  40.396  10.026
49260W        W13204  13.149  41.322   4.604
49261W        W13205  12.780  42.379  13.361
49262W        W13206  33.440  26.069  11.127
49263W        W13207  34.517  20.762   4.143
49264W        W13208   8.344  34.976  13.010
49265W        W13209  34.963  15.590  10.052
49266W        W13210  29.577   6.318  10.924
49267W        W13211  31.523   6.882  14.416
49268W        W13212  40.388   1.949   4.256
49269W        W13213   5.261   9.279   1.427
49270W        W13214  22.534   0.370   3.765
49271W        W13215  42.476  40.908   4.807
49272W        W13216  41.408  11.824  13.907
49273W        W13217   9.149   1.433   0.728
49274W        W13218  10.801  28.622   9.932
49275W        W13219  14.339  35.589   1.212
49276W        W13220  12.618  14.288  14.867
49277W        W13221  24.480  29.929   0.282
49278W        W13222  23.715  11.173  11.373
49279W        W13223  12.666  27.065  12.044
49280W        W13224  37.387   5.756   3.172
49281W        W13225  16.273  31.124   1.262
49282W        W13226   1.872  26.494   0.415
49283W        W13227  43.766  18.622   0.467
49284W        W13228  41.336  37.467   2.814
49285W        W13229  18.548  18.700   2.803
49286W        W13230  26.689  22.026   3.251
49287W        W13231  36.843  14.754   4.136
49288W        W13232  42.402   1.877  10.475
49289W        W13233  38.988  18.082   4.672
49290W        W13234  22.014  42.959   0.881
49291W        W13235  27.011  37.001   4.672
49292W        W13236   7.821  40.428  12.550
49293W        W13237  37.066  33.981   1.263
49294W        W13238  30.089  25.597   0.477
49295W        W13239  42.318   2.807  13.393
49296W        W13240  36.374  30.129  13.317
49297W        W13241  28.122  32.020   3.794
49298W        W13242   2.869  42.850   4.292
49299W        W13243  24.004  37.057   4.624
49300W        W13244  15.113  42.925   4.830
49301W        W13245  21.039  19.258   4.744
49302W        W13246  41.888   9.218   4.813
49303W        W13247  26.456   1.870  12.415
49304W        W13248  44.835  28.565  10.890
49305W        W13249  44.456  19.533   1.909
49306W        W13250  28.128  14.151   2.269
49307W        W13251  43.967  26.562  10.472
49308W        W13252  17.099   4.416   4.602
49309W        W13253  32.039  40.346  10.608
49310W        W13254  42.003  26.055   2.336
49311W        W13255  28.153   1.286  14.974
49312W        W13256  10.325  35.365  11.082
49313W        W13257   6.194   1.302  14.884
49314W        W13258  14.265   6.376   1.320
49315W        W13259  29.642   4.383  13.988
49316W        W13260  21.729  40.428  14.275
49317W        W13261  43.336  30.574  13.956
49318W        W13262  17.295   5.199   1.815
49319W        W13263  40.799  31.472  14.784
49320W        W13264  27.660   8.726  13.360
49321W        W13265  11.625  17.208   1.427
49322W        W13266   0.752  43.953  10.576
49323W        W13267  25.525  33.875   0.739
49324W        W13268  40.536  26.019  14.847
49325W        W13269  22.721   3.267  14.784
49326W        W13270  18.673  41.334   3.383
49327W        W13271  37.342   4.350   3.339
49328W        W13272   8.190  37.503   1.315
49329W        W13273  16.570   2.254  12.975
49330W        W13274  44.313  11.305  12.912
49331W        W13275   1.842   4.218  10.076
49332W        W13276  16.190   1.902  10.594
49333W        W13277  40.377  18.259   0.810
49334W        W13278  16.307  18.734   2.234
49335W        W13279  13.277  44.948  11.858
49336W        W13280  38.404  34.921  10.914
49337W        W13281   6.722  15.095  13.063
49338W        W13282  13.349  17.307   4.620
49339W        W13283   8.169  35.011   4.677
49340W        W13284  10.305  13.724   2.341
49341W        W13285  33.591   4.231  14.442
49342W        W13286  10.330  27.054   4.274
49343W        W13287  10.692  34.015  12.517
49344W        W13288  22.603  44.908  12.870
49345W        W13289   1.880  41.040   3.754
49346W        W13290  23.058  28.679   0.438
49347W        W13291  21.220  17.146   4.708
49348W        W13292  36.001  14.796   1.431
49349W        W13293  22.533  27.544  13.794
49350W        W13294  18.592  25.623  14.852
49351W        W13295  24.693  36.502   4.129
49352W        W13296  23.499  15.621  14.392
49353W        W13297   1.960  30.044  13.464
49354W        W13298  13.261   5.718   4.725
49355W        W13299   2.757   4.919  12.379
49356W        W13300  35.104   2.373  10.437
49357W        W13301   4.415  34.120  11.539
49358W        W13302  14.815  35.419  11.967
49359W        W13303  23.111  19.761   0.909
49360W        W13304  35.923  16.636  10.987
49361W        W13305  12.701  43.908   0.300
49362W        W13306  26.619   5.822   4.283
49363W        W13307   9.169  35.949   0.421
49364W        W13308  13.636  33.066   3.221
49365W        W13309  30.974  22.676  13.839
49366W        W13310  38.857  41.872   4.121
49367W        W13311   5.880  41.865  12.512
49368W        W13312   7.254   2.883   0.262
49369W        W13313  35.494   6.861   2.259
49370W        W13314  39.379  25.044  11.541
49371W        W13315  42.970  24.049   5.272
49372W        W13316  30.159   4.337  12.459
49373W        W13317  28.477  17.154   2.366
49374W        W13318  39.423  31.603   4.149
49375W        W13319  29.549  16.623  12.550
49376W        W13320   9.856  31.935   0.740
49377W        W13321  35.066  41.831  13.804
49378W        W13322  20.053  16.181  10.471
49379W        W13323   6.389   2.902  12.022
49380W        W13324  15.287  17.210  13.872
49381W        W13325   0.358  43.428  12.468
49382W        W13326  34.432  31.002   1.783
49383W        W13327  26.137  41.036   4.126
49384W        W13328  12.242   0.805  11.060
49385W        W13329  34.541  21.222   2.202
49386W        W13330  23.993  18.281   0.243
49387W        W13331  18.576   6.895   3.201
49388W        W13332  12.120  21.561  10.448
49389W        W13333   2.811   6.200   1.389
49390W        W13334  15.815   3.362   2.182
49391W        W13335  28.611  12.184   2.762
49392W        W13336  27.973  44.260  11.466
49393W        W13337  31.515  23.490  12.485
49394W        W13338  27.664  11.672   1.250
49395W        W13339   0.919  30.077  13.472
49396W        W13340  19.058  21.131   1.833
49397W        W13341  36.077  39.843   3.248
49398W        W13342  14.095   5.431  10.421
49399W        W13343  19.254  17.127  13.386
49400W        W13344  26.173  34.052  12.010
49401W        W13345  12.156  37.339   2.369
49402W        W13346  26.648  36.012   1.747
49403W        W13347  27.042  29.650  11.456
49404W        W13348   3.413  41.463  13.850
49405W        W13349  35.902  19.697   3.306
49406W        W13350  12.266   9.301   1.387
49407W        W13351  42.521  10.681  10.560
49408W        W13352  30.542  39.816  11.048
49409W        W13353  39.445  11.273   1.735
49410W        W13354  32.928   3.368   5.190
49411W        W13355  27.981  29.997   3.253
49412W        W13356  12.362  43.868   5.313
49413W        W13357  29.567  16.165   4.147
49414W        W13358  39.034   8.397   1.339
49415W        W13359  28.126  39.441   5.635
49416W        W13360  13.742  36.498   2.885
49417W        W13361  44.007  30.064  14.308
49418W        W13362  41.803  11.668   4.151
49419W        W13363  15.625   0.903  14.027
49420W        W13364  32.996  20.051  12.934
49421W        W13365  34.980   2.332   1.255
49422W        W13366  31.572  12.294   1.720
49423W        W13367  29.966  16.807   4.325
49424W        W13368  22.219   5.784  12.530
49425W        W13369   2.383  21.225   0.919
49426W        W13370   4.786  24.539   4.671
49427W        W13371  31.024  41.294  10.965
49428W        W13372  38.048  30.908  12.888
49429W        W13373  12.248  10.865   1.909
49430W        W13374  36.426  22.738  10.058
49431W        W13375   7.695  37.862   2.321
49432W        W13376  25.478  32.062   4.206
49433W        W13377  36.001   9.843  12.550
49434W        W13378  13.758  25.965   4.837
49435W        W13379  30.039  37.361   1.309
49436W        W13380  22.601   3.453  12.375
49437W        W13381  34.001  14.328  11.951
49438W        W13382   1.758  29.953   2.356
49439W        W13383  32.907  17.640  14.276
49440W        W13384  22.995  20.271   2.341
49441W        W13385  35.037  36.980   1.282
49442W        W13386  13.680  23.003   2.317
49443W        W13387  20.147  25.648  10.500
49444W        W13388   3.896  18.225   4.120
49445W        W13389  17.700  44.462   3.181
49446W        W13390  27.067  29.640   3.858
49447W        W13391  11.241  44.924  10.444
49448W        W13392  43.485  43.488   1.843
49449W        W13393  37.989  34.077  11.611
49450W        W13394   3.794  29.119   2.695
49451W        W13395  35.883  30.489  10.934
49452W        W13396  41.312   8.278   2.414
49453W        W13397   3.380  14.292   2.698
49454W        W13398  36.512  28.607  12.951
49455W        W13399  33.025  33.119   0.375
49456W        W13400  25.110  35.533   1.784
49457W        W13401   9.203  27.661  10.995
49458W        W13402   0.258  11.720   0.443
49459W        W13403  15.723  43.440   2.252
49460W        W13404  11.204   6.857   3.641
49461W        W13405  31.969  26.168  10.971
49462W        W13406  17.240  31.106   0.469
49463W        W13407  11.824  32.956   2.681
49464W        W13408  44.268  10.228  14.415
49465W        W13409  42.380  12.352  11.951
49466W        W13410  23.514  22.149  10.982
49467W        W13411  42.978  14.163   1.843
49468W        W13412   4.279  16.682   1.731
49469W        W13413  27.136  35.591   3.302
49470W        W13414  41.507  43.949  14.314
49471W        W13415  25.663  21.725  11.872
49472W        W13416  44.823  17.802   1.384
49473W        W13417  43.872   6.380  14.431
49474W        W13418  38.951  25.708   3.831
49475W        W13419  30.980  21.730   4.288
49476W        W13420  38.407  22.066   0.423
49477W        W13421   6.751  35.442   0.840
49478W        W13422  44.862   7.395  14.353
49479W        W13423   2.940  18.661  14.394
49480W        W13424  40.917  21.661   4.149
49481W        W13425   3.449  36.495   3.348
49482W        W13426  28.503  44.276  14.839
49483W        W13427   6.336  34.583   2.752
49484W        W13428  37.359   6.397   4.134
49485W        W13429  18.274   9.721   1.890
49486W        W13430   2.909   4.313  10.011
49487W        W13431  17.594   2.426  13.424
49488W        W13432  26.063  18.065   0.855
49489W        W13433   6.350  12.358   0.961
49490W        W13434  35.911  36.060  12.575
49491W        W13435   3.900  37.539  14.443
49492W        W13436  20.085  11.805   2.253
49493W        W13437  39.044   5.212   1.818
49494W        W13438  20.579   9.693  12.862
49495W        W13439  27.565  14.710   2.223
49496W        W13440   3.805  15.665   0.826
49497W        W13441  42.425   0.319   2.831
49498W        W13442   2.360  43.939  13.846
49499W        W13443  17.167  36.913   2.732
49500W        W13444  21.579  23.075  14.006
49501W        W13445  44.839  35.472   0.277
49502W        W13446  27.566  29.483  13.860
49503W        W13447   0.318   6.708  10.127
49504W        W13448  29.618   0.300   3.840
49505W        W13449   2.238   8.795  14.872
49506W        W13450  24.035  25.600  14.505
49507W        W13451  44.291  14.296  11.947
49508W        W13452  26.596   0.950   0.370
49509W        W13453  21.133  10.306  14.513
49510W        W13454  34.601   1.316   0.780
49511W        W13455  35.512   9.832  10.498
49512W        W13456  29.998  43.853   1.727
49513W        W13457  21.707  29.452  13.813
49514W        W13458  16.648  21.718   4.155
49515W        W13459  25.577   2.336   1.363
49516W        W13460   7.796  36.984   0.407
49517W        W13461  13.257  17.138   3.631
49518W        W13462  43.295  35.936  13.039
49519W        W13463  28.668  15.763   1.348
49520W        W13464  24.208  11.694   0.865
49521W        W13465  11.289  10.303   1.450
49522W        W13466   9.647   0.813  14.373
49523W        W13467  13.108  25.133   4.230
49524W        W13468   1.901  15.137  11.997
49525W        W13469  12.343  10.648  10.446
49526W        W13470  22.226  24.013   0.919
49527W        W13471  43.419  36.885   0.913
49528W        W13472  23.169  33.510   3.720
49529W        W13473  40.835  34.053  14.792
49530W        W13474  40.327  26.094   2.799
49531W        W13475  31.077   6.809   0.453
49532W        W13476  15.169  17.154   0.445
49533W        W13477  17.266  28.111   2.833
49534W        W13478  29.963  21.255   3.719
49535W        W13479  21.151  10.297   1.256
49536W        W13480  18.621   6.910  11.446
49537W        W13481  10.235  42.441  10.449
49538W        W13482  41.441  21.717  14.283
49539W        W13483  36.571  37.004   2.291
49540W        W13484  29.034  39.444   9.462
49541W        W13485   8.280  18.620   4.620
49542W        W13486  34.013  37.387   4.794
49543W        W13487  24.585  26.650   2.200
49544W        W13488   3.723  23.705   3.805
49545W        W13489   3.756  21.707   3.311
49546W        W13490  36.850   0.404  11.953
49547W        W13491   0.939  42.904   4.729
49548W        W13492  10.376  43.305   0.363
49549W        W13493  33.104  31.472   1.769
49550W        W13494  19.096   1.395   4.619
49551W        W13495  25.620   4.724  10.140
49552W        W13496  42.865  28.627   2.797
49553W        W13497  43.309  24.603  11.464
49554W        W13498  34.576  10.677  10.969
49555W        W13499  26.559   9.219   1.762
49556W        W13500  28.640  33.527   2.232
49557W        W13501  44.278  20.147  12.835
49558W        W13502  15.138   9.299   0.348
49559W        W13503  23.132   6.378   0.401
49560W        W13504   6.846  12.704   0.804
49561W        W13505   4.853  28.490  11.430
49562W        W13506  42.781  28.931  12.999
49563W        W13507  34.492  20.695   3.220
49564W        W13508  33.074  14.127  14.979
49565W        W13509  16.244  36.871   2.311
49566W        W13510  21.574   1.840  14.789
49567W        W13511  36.956  18.559   4.609
49568W        W13512  23.564   4.312   2.389
49569W        W13513  43.425  21.224  14.990
49570W        W13514  10.191  27.955   1.238
49571W        W13515  35.484  22.711   2.213
49572W        W13516  33.982   2.876  12.453
49573W        W13517   5.706  10.304  12.985
49574W        W13518   2.311  20.727   2.415
49575W        W13519  42.519   0.470   1.858
49576W        W13520  14.802  25.541  14.930
49577W        W13521   7.384  23.120  10.619
49578W        W13522  21.082  16.617  14.436
49579W        W13523  19.277   0.911  13.017
49580W        W13524  11.219   9.291  13.931
49581W        W13525   9.189  29.167  10.488
49582W        W13526  36.492  44.355   2.761
49583W        W13527   9.337   7.713   3.296
49584W        W13528  10.873  10.373  13.794
49585W        W13529   0.406  28.601  13.053
49586W        W13530  31.921   8.887   5.319
49587W        W13531  21.152  17.126  10.642
49588W        W13532  26.076  31.572  10.904
49589W        W13533  34.405  36.373   2.308
49590W        W13534  40.860  21.212   1.326
49591W        W13535  25.026  43.865   4.149
49592W        W13536  28.479  36.954   3.348
49593W        W13537  19.578  18.691  10.588
49594W        W13538  33.106  27.657  13.860
49595W        W13539  31.640  23.730   0.859
49596W        W13540  21.673  21.645  14.019
49597W        W13541  20.172  24.004  10.420
49598W        W13542  33.949  15.710   2.305
49599W        W13543  11.766   4.303   4.669
49600W        W13544  13.177  24.567  12.925
49601W        W13545   3.217  20.747  11.382
49602W        W13546   0.756  26.123  13.391
49603W        W13547   3.245  23.139  11.548
49604W        W13548  34.055  20.213  11.601
49605W        W13549  40.839  17.602  11.504
49606W        W13550   4.380   5.226  13.981
49607W        W13551  13.193   7.842  14.361
49608W        W13552  10.252  33.531  13.813
49609W        W13553   8.739  29.059   1.756
49610W        W13554  37.950   6.409  12.349
49611W        W13555  15.716  27.124  14.974
49612W        W13556  30.475   6.840  13.858
49613W        W13557  44.805   2.386   0.837
49614W        W13558  43.864  32.579  13.428
49615W        W13559   0.860  27.607   0.288
49616W        W13560   4.748   9.702   0.730
49617W        W13561  42.980  36.517  14.362
49618W        W13562   2.302  41.502   0.735
49619W        W13563   4.818  42.940  11.864
49620W        W13564  10.715  30.486   5.117
49621W        W13565  33.421   7.771  14.296
49622W        W13566  18.748   3.819   3.243
49623W        W13567  37.510  25.078  10.072
49624W        W13568  30.622  37.899  11.921
49625W        W13569   2.420  41.914   0.277
49626W        W13570  32.952   8.390   1.449
49627W        W13571  11.826  15.123  12.891
49628W        W13572   0.276  18.626  13.530
49629W        W13573  26.026  12.164   1.448
49630W        W13574   8.710   5.880   0.298
49631W        W13575  39.009  34.562   3.252
49632W        W13576  42.858  34.574  11.520
49633W        W13577  27.959  18.239   5.300
49634W        W13578   5.815   5.397  12.419
49635W        W13579  23.056  15.094  11.600
49636W        W13580  20.719   1.304  14.794
49637W        W13581  26.679  44.804  11.403
49638W        W13582   2.733  12.708   4.168
49639W        W13583   9.220  12.821   2.741
49640W        W13584  16.140  15.202  14.337
49641W        W13585  15.229   0.300   4.683
49642W        W13586  15.786  13.624   0.949
49643W        W13587  28.500  20.547   2.286
49644W        W13588  10.276   3.233   0.271
49645W        W13589  29.572  14.771  14.778
49646W        W13590   3.761  13.341   1.347
49647W        W13591  21.027  13.269  14.806
49648W        W13592  42.410   9.239   0.825
49649W        W13593  10.708  16.579   1.361
49650W        W13594  30.471   0.430  14.488
49651W        W13595   2.351  34.968  12.077
49652W        W13596  18.772  21.646   4.171
49653W        W13597  30.650  43.858   3.779
49654W        W13598  43.330  35.471  11.881
49655W        W13599  19.594   7.191  10.065
49656W        W13600   9.786  35.951  12.466
49657W        W13601  10.788  38.897  11.027
49658W        W13602  23.208  42.453   1.336
49659W        W13603   7.832   1.243   1.722
49660W        W13604   3.897  42.527   0.251
49661W        W13605  42.438  11.643   4.190
49662W        W13606   2.891  10.709   1.834
49663W        W13607  12.662  40.877   0.818
49664W        W13608  11.782  19.210   4.327
49665W        W13609  36.962  15.154  10.965
49666W        W13610  16.223  19.614   3.188
49667W        W13611  20.620  25.011   1.451
49668W        W13612  14.634  42.341   4.140
49669W        W13613  36.446  42.368   2.664
49670W        W13614  44.321  37.957  10.630
49671W        W13615  32.532  36.997  12.087
49672W        W13616  39.342  22.697  14.345
49673W        W13617   7.741  11.660  11.934
49674W        W13618  35.951   1.415   4.148
49675W        W13619  14.804  21.536   1.846
49676W        W13620  37.340  10.266  14.956
49677W        W13621   2.305  27.514  13.466
49678W        W13622  27.957  44.978   4.657
49679W        W13623  40.310  16.156  13.964
49680W        W13624  13.165  28.526  13.862
49681W        W13625  37.040  43.292  11.092
49682W        W13626  11.666  20.171   1.395
49683W        W13627   2.272  42.857  14.278
49684W        W13628  39.860  42.459   2.194
49685W        W13629   3.325  34.063   1.318
49686W        W13630  28.531  18.185   0.372
49687W        W13631   2.964  29.111   1.713
49688W        W13632   6.242   6.312   1.378
49689W        W13633  10.382   6.838  12.009
49690W        W13634  16.128  25.138  10.100
49691W        W13635   0.281  35.571   2.850
49692W        W13636  40.051  23.575  13.527
49693W        W13637  10.309   8.247  10.480
49694W        W13638  23.080  20.730  12.564
49695W        W13639  11.747  27.085  13.893
49696W        W13640  38.897  27.065   3.857
49697W        W13641  14.794   5.207  12.555
49698W        W13642   3.309  34.494   3.248
49699W        W13643  26.478  14.126   4.243
49700W        W13644  13.788  14.604   4.749
49701W        W13645  42.812  44.424  14.911
49702W        W13646  41.825  24.484   2.204
49703W        W13647  26.067  41.821   2.405
49704W        W13648  11.754  42.341   4.283
49705W        W13649  31.626  34.000  12.033
49706W        W13650  18.215  16.220   4.295
49707W        W13651  12.343  43.906   1.423
49708W        W13652   4.337  34.544  13.938
49709W        W13653  15.684  41.840  12.378
49710W        W13654   5.704  13.250  12.885
49711W        W13655  26.606  15.267  12.003
49712W        W13656  36.887  21.549  12.351
49713W        W13657  28.977  21.200   3.171
49714W        W13658  27.688  27.192  14.315
49715W        W13659  37.908  33.518   2.324
49716W        W13660  27.507  31.020  14.515
49717W        W13661  39.419  12.800  14.288
49718W        W13662   7.190  37.008   1.285
49719W        W13663   2.375  43.427   1.414
49720W        W13664  26.614  15.782   1.334
49721W        W13665  31.130  42.299  11.094
49722W        W13666   4.814   2.877   1.418
49723W        W13667  28.516  33.053   4.825
49724W        W13668   4.383  20.746   1.750
49725W        W13669   0.410   8.806   4.613
49726W        W13670  15.712  36.551  12.400
49727W        W13671   8.209   0.429  10.442
49728W        W13672  14.654  41.929  11.537
49729W        W13673  17.205  33.414  10.997
49730W        W13674  40.896  37.074   2.834
49731W        W13675  40.963  39.491   4.611
49732W        W13676   8.672  19.739   1.818
49733W        W13677  35.070   3.429  14.836
49734W        W13678  24.226  12.320   0.464
49735W        W13679  13.698  30.999  14.371
49736W        W13680  44.320   1.771  12.483
49737W        W13681  26.629  29.979  10.998
49738W        W13682   8.668  36.374   2.206
49739W        W13683  28.064  30.472   5.299
49740W        W13684  41.985  35.530   0.811
49741W        W13685  22.699  43.971  13.898
49742W        W13686  26.060   9.659  10.973
49743W        W13687   0.948  21.249   1.239
49744W        W13688  37.978  20.549  14.428
49745W        W13689   2.804  12.660   3.319
49746W        W13690   8.262  39.399   0.834
49747W        W13691  28.934  30.592  12.900
49748W        W13692  29.514  24.662  11.472
49749W        W13693   2.467   5.738   1.783
49750W        W13694   3.783  12.209   3.167
49751W        W13695  22.704  10.288  12.580
49752W        W13696  35.007  12.243   2.898
49753W        W13697  38.409  44.391  13.466
49754W        W13698  44.451  37.865  12.062
49755W        W13699  21.138   5.310  14.923
49756W        W13700  36.554  35.537  14.840
49757W        W13701   1.841  43.332  10.947
49758W        W13702  21.619  18.774   2.839
49759W        W13703  37.391   3.382  12.346
49760W        W13704  37.918  34.425  12.520
49761W        W13705  40.461  36.041   4.648
49762W        W13706  39.982  28.558  11.513
49763W        W13707   6.834  40.542   2.277
49764W        W13708  28.168  36.383  14.277
49765W        W13709  19.112  19.263  11.397
49766W        W13710  39.013   4.786   0.338
49767W        W13711  20.098   0.911  11.862
49768W        W13712  16.656  43.894  13.382
49769W        W13713   0.773  30.952   0.765
49770W        W13714  28.468  41.796  13.954
49771W        W13715  20.649  13.776   4.122
49772W        W13716   4.446   0.400  11.909
49773W        W13717  33.020   3.361  11.458
49774W        W13718  36.365   2.929   0.732
49775W        W13719   4.929  12.306   4.225
49776W        W13720  24.035  38.904  10.610
49777W        W13721   3.894   3.790  12.977
49778W        W13722  43.864  35.935   0.351
49779W        W13723  43.375  23.641   3.752
49780W        W13724  17.068  24.008   3.781
49781W        W13725  29.173  42.965  10.096
49782W        W13726  40.027   3.777  13.492
49783W        W13727   3.866  29.521  14.500
49784W        W13728  22.014  34.379  11.886
49785W        W13729   3.832   3.751  13.824
49786W        W13730   9.728  16.766  13.517
49787W        W13731  25.213   2.334  10.494
49788W        W13732  41.348   3.296   5.209
49789W        W13733  44.427   3.778  11.558
49790W        W13734   3.396  20.258  12.422
49791W        W13735  23.702  32.546  12.500
49792W        W13736  44.282  27.100   2.284
49793W        W13737  44.364  21.072   2.733
49794W        W13738  31.116  12.255  13.441
49795W        W13739   3.938   1.857  13.849
49796W        W13740  23.107  13.129   1.213
49797W        W13741  38.923  20.733   0.351
49798W        W13742  29.108  35.963  14.023
49799W        W13743  21.550   2.783  11.069
49800W        W13744  24.549  36.931   1.918
49801W        W13745  38.478  16.243  11.449
49802W        W13746  40.461  41.037  13.839
49803W        W13747  19.098  31.040  10.991
49804W        W13748   1.838  13.298   0.468
49805W        W13749  29.988  28.074  11.414
49806W        W13750   1.377   4.884  13.443
49807W        W13751   0.418  23.101   1.776
49808W        W13752  15.240   5.692  13.901
49809W        W13753  20.692  42.929   0.356
49810W        W13754  12.258  13.792  14.855
49811W        W13755   2.927  31.121   1.928
49812W        W13756  13.695  28.057   2.363
49813W        W13757  38.856  18.755  10.090
49814W        W13758  32.429  19.224   4.250
49815W        W13759   2.723  15.208  11.015
49816W        W13760  33.382   5.248   3.354
49817W        W13761  32.104  35.045  11.394
49818W        W13762  32.127   6.279   5.137
49819W        W13763  24.132  11.778   5.188
49820W        W13764  28.669   1.441  10.632
49821W        W13765  19.279  34.397  13.843
49822W        W13766  44.777   7.318  13.063
49823W        W13767  44.873   7.838   5.092
49824W        W13768  12.690  13.121   3.374
49825W        W13769  11.274  37.909  10.575
49826W        W13770  25.977  32.005   4.710
49827W        W13771  24.979  16.588   1.827
49828W        W13772  40.465  28.000  13.914
49829W        W13773   6.831  25.514  12.903
49830W        W13774  19.746  25.116   3.669
49831W        W13775   4.721  22.548   9.940
49832W        W13776  13.286  17.747   2.361
49833W        W13777   4.900  11.336  13.444
49834W        W13778   0.431   5.222   4.173
49835W        W13779  34.903  21.645  14.831
49836W        W13780  17.195   7.398   5.268
49837W        W13781   2.343  20.697   3.746
49838W        W13782  35.488   5.317   1.279
49839W        W13783  29.063  44.423   0.259
49840W        W13784  10.808   4.215  10.590
49841W        W13785  27.494  17.253   2.731
49842W        W13786   1.876  24.643  12.531
49843W        W13787  25.148  37.034  12.542
49844W        W13788  11.791  29.523   2.342
49845W        W13789  21.575  23.686   0.946
49846W        W13790  39.423  16.770   4.622
49847W        W13791  17.207   9.848   3.386
49848W        W13792  29.033  27.190   2.871
49849W        W13793  32.549  34.543   4.602
49850W        W13794  26.594  29.047   3.775
49851W        W13795  27.985  21.047   3.821
49852W        W13796  32.501  28.447   1.425
49853W        W13797  28.042  36.010   3.677
49854W        W13798  22.618  34.065   1.891
49855W        W13799  36.422  39.482   0.447
49856W        W13800   6.911  11.144  13.407
49857W        W13801  19.192  31.111   0.816
49858W        W13802  36.070  36.420  14.324
49859W        W13803  15.195  35.394  10.612
49860W        W13804  11.162   6.734  12.866
49861W        W13805  37.554   5.401   5.202
49862W        W13806  35.443  41.468  10.577
49863W        W13807  12.716  39.910   4.777
49864W        W13808  15.158  24.143   3.668
49865W        W13809  27.609  24.600   1.353
49866W        W13810   0.466  30.502   1.352
49867W        W13811  14.824  10.163   0.285
49868W        W13812  19.222   9.741  13.948
49869W        W13813  12.706  19.740   4.699
49870W        W13814  11.297  31.084   1.232
49871W        W13815  17.294  40.006   4.167
49872W        W13816   7.908   9.296  14.016
49873W        W13817  15.156  11.194  12.454
49874W        W13818  13.781   6.821   0.288
49875W        W13819   9.694  19.092   0.838
49876W        W13820  33.093  32.072   0.452
49877W        W13821  10.710  23.683  11.531
49878W        W13822  15.216  34.578   4.737
49879W        W13823  33.070  13.804  14.345
49880W        W13824   2.850  29.942  11.417
49881W        W13825  19.741   8.298  10.565
49882W        W13826  43.497  25.554  11.907
49883W        W13827  35.590   0.414   4.161
49884W        W13828  41.302   8.369  13.401
49885W        W13829  19.725  29.578   2.709
49886W        W13830  16.591  18.191   3.812
49887W        W13831   1.282  11.674  14.465
49888W        W13832   0.388  14.676   0.734
49889W        W13833  44.893  37.056  11.051
49890W        W13834  31.104  15.090  13.501
49891W        W13835  28.625  33.055  10.949
49892W        W13836   3.752  16.802   3.795
49893W        W13837  12.688  25.193   2.312
49894W        W13838   0.762  20.122  12.574
49895W        W13839  41.382   1.950   1.285
49896W        W13840  21.643  40.922  10.962
49897W        W13841  32.023  40.876  12.996
49898W        W13842   8.710  14.214   2.335
49899W        W13843  20.199   6.876   3.787
49900W        W13844  29.979  38.067   3.781
49901W        W13845  17.087  29.570   1.787
49902W        W13846  14.793   7.287  14.830
49903W        W13847  19.170  10.297   0.926
49904W        W13848  24.604  42.524  11.488
49905W        W13849  44.812  33.557  10.888
49906W        W13850  35.050   8.717  14.895
49907W        W13851  17.259   6.426   9.493
49908W        W13852  41.536  34.505  11.048
49909W        W13853  28.144   4.922   2.195
49910W        W13854  40.845  41.411   4.612
49911W        W13855  20.708   4.209   2.675
49912W        W13856  15.674  39.943  14.507
49913W        W13857   3.910  22.713  13.839
49914W        W13858   7.807  11.731   1.811
49915W        W13859  39.862  13.603   3.772
49916W        W13860  15.583  13.302   0.267
49917W        W13861   0.460  42.473  12.060
49918W        W13862   0.753  27.120   0.436
49919W        W13863  15.215  23.613   0.915
49920W        W13864  21.639  16.788   0.386
49921W        W13865  18.209   5.202  13.411
49922W        W13866   5.375   5.688   3.146
49923W        W13867   9.165  20.166   3.691
49924W        W13868  24.657  21.182  13.498
49925W        W13869  20.054  21.642  11.390
49926W        W13870  22.543  36.851   4.282
49927W        W13871  18.651  35.544   4.183
49928W        W13872  19.565  20.534  12.910
49929W        W13873  35.872  38.511  11.903
49930W        W13874  11.696  43.364  13.521
49931W        W13875  39.033  36.469  10.964
49932W        W13876  13.198  39.855  13.349
49933W        W13877  18.154  43.513   0.759
49934W        W13878  29.938  32.132  13.457
49935W        W13879   4.712  26.135   4.665
49936W        W13880  14.644  40.394  10.538
49937W        W13881  23.092  39.004  14.948
49938W        W13882  23.586  28.678  11.066
49939W        W13883  11.802  42.031  12.365
49940W        W13884  27.650  17.766   3.679
49941W        W13885  31.949  20.603  12.551
49942W        W13886  22.048   5.797  13.528
49943W        W13887  21.078  42.522  13.849
49944W        W13888  32.507  23.717   1.883
49945W        W13889  40.533   8.710  10.514
49946W        W13890  38.525  41.802   3.793
49947W        W13891  16.579  18.572  10.429
49948W        W13892  42.850  30.600  12.426
49949W        W13893  18.190  11.199  14.452
49950W        W13894  23.565   1.855   2.800
49951W        W13895  14.760  39.407  14.010
49952W        W13896  10.149   6.810   4.235
49953W        W13897  17.067  17.215   3.849
49954W        W13898  16.094   0.808  13.440
49955W        W13899  19.130   3.948   3.300
49956W        W13900  23.575  10.146  10.549
49957W        W13901  34.066   5.200   4.684
49958W        W13902  35.371  16.123   1.816
49959W        W13903   0.450  15.257   4.684
49960W        W13904  37.359  35.967  11.939
49961W        W13905  22.183  21.191   1.894
49962W        W13906  44.454  14.796  11.029
49963W        W13907   0.827  16.795  14.430
49964W        W13908  32.618  44.461   3.685
49965W        W13909  23.985  42.792  10.154
49966W        W13910  18.216   5.914  13.857
49967W        W13911  29.432   0.396  14.303
49968W        W13912  13.148  10.270   0.821
49969W        W13913   3.297  10.662   0.300
49970W        W13914  43.978  29.031   3.246
49971W        W13915   1.877  11.844   4.804
49972W        W13916  38.513  11.678  14.486
49973W        W13917   2.356  29.028  14.013
49974W        W13918  14.311  14.320  10.533
49975W        W13919  43.876   7.687  12.451
49976W        W13920  22.142  19.247  12.025
49977W        W13921  10.761  30.001   3.725
49978W        W13922  23.572  38.471   2.277
49979W        W13923  44.980  23.606  10.554
49980W        W13924  16.687  22.601  13.376
49981W        W13925  35.057  31.137   3.804
49982W        W13926  34.404  38.957  11.948
49983W        W13927  20.621  19.614  12.520
49984W        W13928  36.030  17.062   4.677
49985W        W13929  18.084  27.969  13.956
49986W        W13930   6.284  39.452  11.937
49987W        W13931  22.124  38.513  12.525
49988W        W13932  12.800   2.439  11.973
49989W        W13933   5.436  29.037  10.580
49990W        W13934   3.267  27.948   3.167
49991W        W13935  40.862  12.177   2.283
49992W        W13936  21.550  12.676   1.420
49993W        W13937  21.126  14.711  11.995
49994W        W13938  19.741   4.872   1.261
49995W        W13939  33.484  34.606  14.447
49996W        W13940  14.616  12.726   2.872
49997W        W13941  36.873  26.488  14.843
49998W        W13942  12.807   4.408  13.489
49999W        W13943  18.278  29.595   1.735
50000W        W13944  30.074  31.098   0.466
50001W        W13945  42.315  42.289  10.938
50002W        W13946   1.436   0.410  14.976
50003W        W13947  40.878  17.737  14.324
50004W        W13948  25.662  19.589  10.532
50005W        W13949  42.839  32.090  14.019
50006W        W13950  24.573  24.077  13.976
50007W        W13951  21.097  30.097   4.775
50008W        W13952  39.052  42.465  10.580
50009W        W13953  26.534  41.932  10.555
50010W        W13954   2.941   8.361   1.907
50011W        W13955  29.045  35.875   2.291
50012W        W13956  43.007  23.034   1.758
50013W        W13957  30.128  33.065   2.897
50014W        W13958  18.224  22.099   1.823
50015W        W13959  43.393  37.340   1.722
50016W        W13960  15.194  12.157   1.801
50017W        W13961  11.299  14.784   4.671
50018W        W13962  32.951   8.860  12.466
50019W        W13963  33.034   2.883   2.805
50020W        W13964  31.435  28.153   1.243
50021W        W13965  23.552   4.782  12.000
50022W        W13966  42.915  17.640  13.418
50023W        W13967  28.519   4.836  14.293
50024W        W13968  18.612  36.850   4.809
50025W        W13969  41.859  26.115   3.227
50026W        W13970  32.055  25.209  11.582
50027W        W13971  17.077   0.877  11.603
50028W        W13972   9.314  33.108  11.929
50029W        W13973  43.298  14.223   0.839
50030W        W13974  29.616   3.872  13.009
50031W        W13975  21.597  23.580  11.976
50032W        W13976   3.784  20.214  13.957
50033W        W13977  29.440  24.208   4.171
50034W        W13978  27.971  19.205  10.619
50035W        W13979   1.917  17.197  10.480
50036W        W13980  20.095  38.463  14.812
50037W        W13981  33.560  33.392  12.343
50038W        W13982   4.858  14.825   1.694
50039W        W13983  37.514  25.630  13.480
50040W        W13984  43.837  20.187   4.824
50041W        W13985   5.206  25.630  11.560
50042W        W13986   8.359  22.720   3.361
50043W        W13987   7.674   3.458   0.750
50044W        W13988  40.412  31.505   0.867
50045W        W13989   5.236  18.719   4.615
50046W        W13990  38.877  10.824  13.015
50047W        W13991  34.914  44.266   1.375
50048W        W13992  42.988  36.004   3.859
50049W        W13993  44.916  10.666   3.322
50050W        W13994  32.391  22.185   3.703
50051W        W13995  10.150  37.965   1.393
50052W        W13996   0.429  24.680   0.786
50053W        W13997  22.709   8.776   0.483
50054W        W13998  43.986  12.704  11.121
50055W        W13999   3.292  35.430  14.457
50056W        W14000  42.776  27.647  13.005
50057W        W14001  25.681  33.947   2.815
50058W        W14002   8.679   4.720   1.931
50059W        W14003  30.624  18.634   4.331
50060W        W14004  14.270   1.273   1.361
50061W        W14005  24.623  14.149   4.791
50062W        W14006  14.705  16.593   2.840
50063W        W14007  25.536  19.095  14.957
50064W        W14008  37.394  21.612   4.135
50065W        W14009  33.880  37.999  14.462
50066W        W14010  21.668  38.849  13.505
50067W        W14011  17.717  16.726   2.271
50068W        W14012  37.045  28.543   4.234
50069W        W14013  30.131   4.866   1.793
50070W        W14014   1.915   4.363   3.284
50071W        W14015  40.859  23.186   4.115
50072W        W14016  12.626  14.094   1.401
50073W        W14017  21.647  28.092  12.828
50074W        W14018  25.993  28.463   2.398
50075W        W14019  22.697   4.891  13.352
50076W        W14020  34.581   1.886  14.866
50077W        W14021   3.314  15.700   2.812
50078W        W14022  13.137  13.332  11.393
50079W        W14023  15.250  30.015  13.387
50080W        W14024   1.411   8.778   0.943
50081W        W14025  36.444  27.168  12.557
50082W        W14026  18.094  30.494   1.306
50083W        W14027   8.250   4.732   2.303
50084W        W14028  32.062   2.901   4.208
50085W        W14029  32.405   0.981  13.439
50086W        W14030  36.928  12.693  10.433
50087W        W14031  22.568  41.402   0.390
50088W        W14032  15.162   7.367   2.297
50089W        W14033  34.599  26.139  14.295
50090W        W14034  25.695  23.561   4.167
50091W        W14035  33.452   6.700  13.943
50092W        W14036  33.118  21.714   2.309
50093W        W14037   2.373  10.730   4.192
50094W        W14038  31.988  17.207   2.757
50095W        W14039  44.987  29.959   3.274
50096W        W14040  42.932  34.583   3.334
50097W        W14041  23.705  17.271  10.544
50098W        W14042  18.590   0.824  10.091
50099W        W14043  18.176   9.179  12.428
50100W        W14044  39.420  16.196  11.024
50101W        W14045  30.627  16.702   0.818
50102W        W14046   9.827  44.942   1.750
50103W        W14047   6.291  17.175   0.847
50104W        W14048  27.997  28.086   5.295
50105W        W14049   3.713  19.598   5.312
50106W        W14050  38.376  31.587   2.845
50107W        W14051  36.966  23.559   1.842
50108W        W14052  37.399  32.079  11.061
50109W        W14053  34.560  20.768   2.680
50110W        W14054  30.931  35.367   1.798
50111W        W14055  23.611  44.394  11.119
50112W        W14056   0.397  17.251  13.812
50113W        W14057  38.520  15.316  12.373
50114W        W14058  17.118  40.452   0.336
50115W        W14059  38.874  24.092   4.260
50116W        W14060   4.423  21.571  14.478
50117W        W14061  27.037  42.469   0.459
50118W        W14062  12.116  30.043  13.451
50119W        W14063  43.464  11.660  11.933
50120W        W14064  28.635  35.410  13.309
50121W        W14065   3.410  22.663  11.033
50122W        W14066  36.939  42.400   3.794
50123W        W14067   5.899  12.162  12.549
50124W        W14068  39.512   6.792   1.263
50125W        W14069  21.137  40.548  14.030
50126W        W14070  22.236   0.946   3.789
50127W        W14071  18.573  24.555   3.373
50128W        W14072  16.253  17.235  10.409
50129W        W14073  16.113  15.285  11.401
50130W        W14074  23.562  29.529  13.332
50131W        W14075  43.995   2.723  10.499
50132W        W14076  19.121  14.285  12.879
50133W        W14077  40.955  35.973   1.366
50134W        W14078  36.068  16.803  10.516
50135W        W14079   1.290  31.435   0.291
50136W        W14080  44.352   1.897  14.281
50137W        W14081  35.434  21.210   4.668
50138W        W14082   0.796  19.722  12.406
50139W        W14083  11.353  16.577   9.982
50140W        W14084  26.509  17.590   2.309
50141W        W14085  41.815  27.136  12.533
50142W        W14086   2.471  40.929  13.020
50143W        W14087  19.712  20.214   3.177
50144W        W14088  16.142  15.655  10.056
50145W        W14089  20.228  18.553   1.418
50146W        W14090  26.577   3.425  12.886
50147W        W14091  32.466  38.489  11.403
50148W        W14092  27.632   9.158   0.835
50149W        W14093  29.640  27.045   4.673
50150W        W14094  35.602  11.776   2.260
50151W        W14095  18.723   9.333  13.350
50152W        W14096   1.756  34.558   0.764
50153W        W14097  22.015  41.845   0.381
50154W        W14098  14.153  17.678  10.933
50155W        W14099  28.512  31.006  10.410
50156W        W14100  10.194  30.629  11.483
50157W        W14101  22.051   1.334  10.428
50158W        W14102  21.679  40.388   2.214
50159W        W14103  12.150  13.743   1.212
50160W        W14104   6.815   7.236   1.274
50161W        W14105  19.220  31.633  14.352
50162W        W14106  22.043  41.513  13.913
50163W        W14107  35.490  16.756  13.527
50164W        W14108  14.173  17.254  14.811
50165W        W14109  31.013  21.745  12.938
50166W        W14110   9.395  35.976   3.298
50167W        W14111  30.958  43.465   2.416
50168W        W14112   9.816  31.962  14.412
50169W        W14113  33.385  42.475  11.125
50170W        W14114  13.657  22.647   1.812
50171W        W14115   3.851  21.671  12.937
50172W        W14116  11.802  15.206  10.960
50173W        W14117  17.198  18.162   5.165
50174W        W14118   9.763   8.881  12.860
50175W        W14119  42.504  35.559  11.991
50176W        W14120  19.706   7.246   3.327
50177W        W14121   1.252   6.292  12.855
50178W        W14122  12.766  10.270   2.355
50179W        W14123  33.006  44.452  11.061
50180W        W14124  40.906  36.372   4.810
50181W        W14125  18.779  14.189  11.093
50182W        W14126  14.270   6.748   3.701
50183W        W14127  40.477  29.114   4.278
50184W        W14128  15.759   5.754   4.680
50185W        W14129  39.053  11.850  14.926
50186W        W14130  10.706  23.687   2.282
50187W        W14131  38.400  42.411   3.644
50188W        W14132  41.953  26.645   0.777
50189W        W14133  11.753  30.576  13.810
50190W        W14134   2.853  20.712   4.208
50191W        W14135  44.953  12.825  12.953
50192W        W14136   5.411  17.303  10.515
50193W        W14137   4.226   7.172  14.448
50194W        W14138  28.486  12.295   2.201
50195W        W14139   1.776  43.889   4.259
50196W        W14140  26.035  36.873   2.185
50197W        W14141  21.542  44.793  11.949
50198W        W14142   1.269  42.801  11.077
50199W        W14143  40.435   9.704   1.366
50200W        W14144  25.475  23.147   2.242
50201W        W14145  40.415  28.539   0.251
50202W        W14146  10.237  16.698  12.527
50203W        W14147  11.634  23.061   2.386
50204W        W14148   2.456   7.783  10.554
50205W        W14149  18.068  12.773  12.994
50206W        W14150  22.059   7.182  12.093
50207W        W14151  31.035  43.478   1.848
50208W        W14152   2.827  36.949   2.330
50209W        W14153  32.511  18.772  14.346
50210W        W14154  27.089  44.416   1.717
50211W        W14155  12.726   7.764   0.417
50212W        W14156  15.671   3.270  12.875
50213W        W14157  24.052  19.554   3.763
50214W        W14158  40.340  13.779   2.845
50215W        W14159  22.682  37.964  10.888
50216W        W14160  44.301  31.407  11.942
50217W        W14161  11.198  20.572  13.799
50218W        W14162  10.372  14.313   3.313
50219W        W14163  19.179   5.240  14.353
50220W        W14164   4.214   2.944  14.354
50221W        W14165  13.658  37.385  10.979
50222W        W14166   2.336  24.687  11.865
50223W        W14167  31.931  16.608  10.081
50224W        W14168  39.931  26.562   5.295
50225W        W14169  36.880  20.047   2.828
50226W        W14170  25.051  18.216   1.435
50227W        W14171  17.249   3.310   3.721
50228W        W14172  43.408  26.526   4.338
50229W        W14173  39.454  36.911  11.391
50230W        W14174  35.073  27.990   4.314
50231W        W14175   2.749  15.698   4.114
50232W        W14176  33.988   8.705   4.127
50233W        W14177   7.305  41.300  10.439
50234W        W14178  20.108   3.379  12.980
50235W        W14179  23.686  23.542   0.728
50236W        W14180  38.386  35.548   3.793
50237W        W14181  28.163  11.157  11.937
50238W        W14182  11.684   0.428  14.478
50239W        W14183  30.494   7.285  13.022
50240W        W14184  24.211  12.727   9.959
50241W        W14185  41.509  20.597   3.650
50242W        W14186   5.901   9.842  11.969
50243W        W14187   7.355  38.044   4.622
50244W        W14188  38.940  31.588   0.324
50245W        W14189  34.447   9.885  11.384
50246W        W14190  25.611  14.651  12.541
50247W        W14191  42.779  43.003  14.398
50248W        W14192  19.759  26.699  11.546
50249W        W14193  11.857  39.014  10.494
50250W        W14194  27.036  10.673   4.328
50251W        W14195  20.098   3.839  10.460
50252W        W14196  26.093  14.755  13.331
50253W        W14197  10.244  23.142   1.261
50254W        W14198  32.057  39.976   3.320
50255W        W14199  39.409  15.637  14.511
50256W        W14200  15.602  25.511   1.921
50257W        W14201  10.761  18.266  13.932
50258W        W14202  33.915  16.276   1.926
50259W        W14203  29.486   4.779  13.478
50260W        W14204  18.165   8.757  14.866
50261W        W14205  30.518   7.759  14.948
50262W        W14206  19.740  29.583  11.010
50263W        W14207   5.297  22.066   2.305
50264W        W14208  42.452  37.029   1.695
50265W        W14209  24.646  32.600  14.869
50266W        W14210  24.068  22.715   5.164
50267W        W14211  23.611  35.929   2.859
50268W        W14212  31.457  34.439   3.187
50269W        W14213  35.971  13.821  11.096
50270W        W14214  29.999  29.637   4.734
50271W        W14215  21.550  10.847  11.994
50272W        W14216   0.339  14.289  10.578
50273W        W14217  38.498   1.975   0.484
50274W        W14218  38.333  25.637   1.825
50275W        W14219  27.987  36.002  10.601
50276W        W14220  36.888  25.688  10.621
50277W        W14221  26.614  21.239  12.500
50278W        W14222   8.274  43.808   4.608
50279W        W14223  23.987  10.222  11.501
50280W        W14224   6.912   9.188   0.435
50281W        W14225  40.812   3.713  12.041
50282W        W14226  42.966  21.689  11.939
50283W        W14227  25.576  36.015  10.113
50284W        W14228  43.424  37.362  10.417
50285W        W14229   5.198  29.087  14.906
50286W        W14230   1.274  13.680  10.987
50287W        W14231  16.186   5.705  12.478
50288W        W14232  15.740   1.325   2.228
50289W        W14233  33.089  24.133  11.049
50290W        W14234  23.574  43.851   3.856
50291W        W14235   2.861  39.522  11.919
50292W        W14236  11.324  18.646   0.448
50293W        W14237  38.030  34.066  10.595
50294W        W14238   0.934   8.761   2.233
50295W        W14239  44.476   3.276  13.042
50296W        W14240  11.673  22.561   5.199
50297W        W14241  39.463  17.271   1.810
50298W        W14242  15.251  25.563   2.229
50299W        W14243  37.862   0.445   4.657
50300W        W14244  27.060  27.603   3.630
50301W        W14245   5.824   4.738   1.711
50302W        W14246  24.171  13.141  13.893
50303W        W14247   5.376  24.604   1.860
50304W        W14248  22.588   8.310   4.185
50305W        W14249  21.078  36.565   0.444
50306W        W14250  41.832  39.365  10.451
50307W        W14251  33.551   1.957  11.524
50308W        W14252  28.134   5.906  14.391
50309W        W14253   8.346   3.223  13.878
50310W        W14254  43.392  16.135   2.360
50311W        W14255  19.269  13.130  13.026
50312W        W14256  36.379  22.100  12.859
50313W        W14257  26.974  11.167   3.729
50314W        W14258  12.825  38.392   2.805
50315W        W14259   3.297   1.869  11.518
50316W        W14260  35.590  24.524   2.674
50317W        W14261   0.932  43.934  12.566
50318W        W14262   4.269  34.890  10.472
50319W        W14263  13.230   1.876  11.470
50320W        W14264  25.646  24.568   1.839
50321W        W14265  25.656  24.152   2.837
50322W        W14266  25.637   5.310  11.910
50323W        W14267  24.098  43.943  10.952
50324W        W14268  29.150  20.133  13.409
50325W        W14269  26.008  18.118  10.057
50326W        W14270  35.358  12.778  10.964
50327W        W14271  32.052  37.062   1.736
50328W        W14272  20.533  23.091  13.382
50329W        W14273  35.861  37.985  10.432
50330W        W14274  32.465   0.868  10.041
50331W        W14275  34.963  30.036   0.286
50332W        W14276   8.774  31.600   3.778
50333W        W14277  35.942  22.021   2.844
50334W        W14278   0.400  21.081  11.039
50335W        W14279  16.141  40.882  10.969
50336W        W14280   8.314  10.806   2.708
50337W        W14281  40.457  12.804   4.686
50338W        W14282  10.652  24.670  12.341
50339W        W14283  23.604  37.400   5.309
50340W        W14284  20.652  21.544  14.479
50341W        W14285  27.487  44.398  11.951
50342W        W14286  21.678  40.907   4.258
50343W        W14287   1.305  36.570  14.427
50344W        W14288  32.628  30.941  13.398
50345W        W14289  29.521  38.059   1.798
50346W        W14290  21.557  16.689   4.231
50347W        W14291   3.344  34.459   4.240
50348W        W14292  36.963   7.173  12.501
50349W        W14293  24.539  17.772  14.465
50350W        W14294  40.914  15.152  10.958
50351W        W14295  13.135   3.330   2.781
50352W        W14296  18.559   0.340  14.844
50353W        W14297  34.103  20.180  11.974
50354W        W14298   3.318   8.768  14.281
50355W        W14299  23.642  26.139   4.663
50356W        W14300  26.144  27.446   0.259
50357W        W14301  17.577  13.778  13.937
50358W        W14302  27.596  37.444   0.898
50359W        W14303  21.217  11.254  10.142
50360W        W14304  18.614  21.664  10.997
50361W        W14305   7.740  12.306   3.224
50362W        W14306  26.655  34.408   2.249
50363W        W14307  16.696  39.013   2.369
50364W        W14308  38.525  20.085  10.899
50365W        W14309  15.327  18.246   0.467
50366W        W14310  13.803  18.765  14.981
50367W        W14311   5.285  44.003   4.285
50368W        W14312   3.342  24.992  11.491
50369W        W14313   1.943  36.993   3.265
50370W        W14314   1.843  17.657  13.938
50371W        W14315  36.008   7.243  12.966
50372W        W14316  25.620  27.659  14.400
50373W        W14317  38.926  26.157  11.530
50374W        W14318  29.000  26.079   3.337
50375W        W14319  10.363  20.702  10.567
50376W        W14320  21.195  40.548   1.807
50377W        W14321  12.791  31.959  12.842
50378W        W14322  41.819  44.383  13.526
50379W        W14323  26.462  30.436  14.948
50380W        W14324   4.753   2.889   0.931
50381W        W14325  24.569  23.150   2.361
50382W        W14326  33.077  36.568  14.278
50383W        W14327  34.071  13.140   0.413
50384W        W14328  27.180  17.073  14.357
50385W        W14329  20.099  23.667   2.184
50386W        W14330  23.626  36.947   0.383
50387W        W14331  13.274  28.468  12.518
50388W        W14332  16.311   4.386   4.199
50389W        W14333  24.206  22.251  12.393
50390W        W14334  10.175  41.826   4.776
50391W        W14335  37.473   8.273  14.888
50392W        W14336  21.543  20.731  14.424
50393W        W14337  36.371  44.351   3.277
50394W        W14338  40.481  20.092   4.669
50395W        W14339  29.500   7.346   2.872
50396W        W14340  38.483  39.428   0.252
50397W        W14341  14.109  21.619  14.906
50398W        W14342   7.334  22.123  10.599
50399W        W14343   8.675  13.215   4.637
50400W        W14344  16.196  29.085  14.763
50401W        W14345  42.833  15.128  14.508
50402W        W14346   2.338  18.584  11.509
50403W        W14347  14.237   8.389   0.939
50404W        W14348   2.755  24.078   2.325
50405W        W14349  24.046  27.668  12.867
50406W        W14350  31.935   0.429   4.317
50407W        W14351   8.256  41.340  11.910
50408W        W14352  10.646  39.950   3.175
50409W        W14353  43.847  25.590  12.434
50410W        W14354  40.042  29.173  13.409
50411W        W14355  20.086   2.929  11.394
50412W        W14356  34.529  36.404   3.331
50413W        W14357  14.712  14.313  14.778
50414W        W14358  29.479  12.800  10.084
50415W        W14359   3.854  25.648  11.948
50416W        W14360   0.806  28.467  12.968
50417W        W14361  39.537  33.477   0.471
50418W        W14362  19.266   8.702  12.059
50419W        W14363  22.617  28.488   2.310
50420W        W14364  37.078  41.900  12.057
50421W        W14365  42.366  29.552  12.580
50422W        W14366  41.031  36.889  12.402
50423W        W14367  12.169  38.404   4.641
50424W        W14368  12.309   3.822  13.820
50425W        W14369  30.533  34.868  13.408
50426W        W14370   5.878  21.739  13.452
50427W        W14371   7.901  28.067  13.891
50428W        W14372  41.374   0.317   4.344
50429W        W14373  30.535  34.047   3.157
50430W        W14374  35.868   6.421   0.462
50431W        W14375   2.340  42.508  13.353
50432W        W14376  24.048   2.290  14.488
50433W        W14377  35.528  23.991   2.866
50434W        W14378  12.144   9.705   3.338
50435W        W14379  13.175   4.242   4.128
50436W        W14380   8.179  14.809  10.153
50437W        W14381  27.519  26.066   4.635
50438W        W14382   2.870  40.309  11.984
50439W        W14383  20.762  20.197   2.896
50440W        W14384  34.573  19.132  14.007
50441W        W14385  37.037  31.589  13.443
50442W        W14386  30.008   5.793   1.400
50443W        W14387  13.616  32.996  14.874
50444W        W14388   4.923  27.455   1.726
50445W        W14389   1.975  18.606   2.295
50446W        W14390  21.224   3.357   9.978
50447W        W14391   0.883  20.716  13.322
50448W        W14392  30.055  37.969  13.513
50449W        W14393  36.068  32.018  13.501
50450W        W14394  29.662  19.616   5.267
50451W        W14395  39.963  34.100  13.371
50452W        W14396  28.058  14.166  13.485
50453W        W14397  24.084  44.321   2.727
50454W        W14398  24.654  27.962  10.627
50455W        W14399  10.775  22.201  13.363
50456W        W14400  26.170  13.711  10.980
50457W        W14401   2.232  38.901   0.382
50458W        W14402   1.945  31.973   2.197
50459W        W14403  12.360  21.230  11.114
50460W        W14404  41.422  20.648   0.961
50461W        W14405  36.841  25.615   0.749
50462W        W14406  25.002   9.715   3.794
50463W        W14407  34.899  18.578  13.954
50464W        W14408  37.947  16.133  11.959
50465W        W14409  14.282  30.437  14.829
50466W        W14410  11.658  28.459  10.920
50467W        W14411   5.359   8.767   2.207
50468W        W14412   9.391  28.549  14.446
50469W        W14413  41.345  23.043  14.902
50470W        W14414  25.088   9.758  11.961
50471W        W14415  37.353  24.567   3.841
50472W        W14416   8.245  27.559   1.296
50473W        W14417   9.802  44.001  14.379
50474W        W14418  28.547   8.844  13.411
50475W        W14419  18.652  32.103   4.328
50476W        W14420  22.165  26.576  10.416
50477W        W14421  10.758  39.033   2.346
50478W        W14422  12.616  36.525   0.453
50479W        W14423  25.050  23.544  12.344
50480W        W14424  37.423  33.976  13.802
50481W        W14425  35.514  25.563  14.362
50482W        W14426  29.973  15.714   0.268
50483W        W14427  27.003  25.999  12.845
50484W        W14428   3.276   5.702  11.922
50485W        W14429  38.927  40.973  14.418
50486W        W14430   0.385  12.846   0.455
50487W        W14431  32.941  15.810  11.406
50488W        W14432   4.302   5.858   4.748
50489W        W14433  13.171  20.619   0.852
50490W        W14434   3.800  40.398   1.813
50491W        W14435  30.542  23.031   0.749
50492W        W14436  25.967  34.559   1.340
50493W        W14437   4.792  20.199   4.677
50494W        W14438   4.271  21.672   2.777
50495W        W14439  40.437   7.685   1.294
50496W        W14440   8.375  14.777   0.482
50497W        W14441  42.779  30.462  10.967
50498W        W14442  23.673  14.724  12.578
50499W        W14443  43.328   6.265  11.056
50500W        W14444  37.037  36.912   0.380
50501W        W14445  32.603  16.774   0.835
50502W        W14446  25.976   4.791  11.995
50503W        W14447  30.943  23.644  10.148
50504W        W14448   6.359  26.188  13.518
50505W        W14449  32.485  42.997  13.924
50506W        W14450  35.575  35.995   4.610
50507W        W14451   8.754   2.258   3.656
50508W        W14452   3.311  44.997  12.064
50509W        W14453   0.753   1.947  13.937
50510W        W14454  21.549  17.651   0.865
50511W        W14455   8.763  10.199  12.030
50512W        W14456  38.422  23.514   1.275
50513W        W14457  44.296  14.174  14.312
50514W        W14458  31.576  40.456  12.397
50515W        W14459  14.311   2.329   2.832
50516W        W14460  17.602  19.718   1.762
50517W        W14461  42.906  41.443   2.227
50518W        W14462  43.874  29.428   1.696
50519W        W14463  17.634   8.815   1.252
50520W        W14464  12.824  26.202  11.971
50521W        W14465  35.596  20.683   3.742
50522W        W14466  16.685   5.295  11.920
50523W        W14467   2.937  21.078  10.998
50524W        W14468  22.583   9.262  13.940
50525W        W14469  33.614   8.220  11.108
50526W        W14470  27.626  40.845  14.829
50527W        W14471  26.652   8.385   2.202
50528W        W14472  35.443  32.554   3.151
50529W        W14473  30.126   1.256   4.758
50530W        W14474  17.150  22.694  14.996
50531W        W14475  12.829  22.118   1.439
50532W        W14476  32.606  37.997  11.906
50533W        W14477  33.883  26.028   3.335
50534W        W14478  17.307  13.648  13.852
50535W        W14479   1.237  10.194   2.184
50536W        W14480  33.592  37.476  12.088
50537W        W14481  25.976  13.795  11.494
50538W        W14482  40.816  16.260  10.631
50539W        W14483  38.974  31.621  11.915
50540W        W14484   0.318  11.278  10.555
50541W        W14485  36.555  23.181  13.815
50542W        W14486  14.307  26.083   3.831
50543W        W14487  14.677  10.161   1.907
50544W        W14488  38.962  25.707  11.033
50545W        W14489  22.176  18.089   3.155
50546W        W14490  18.671  39.921   3.285
50547W        W14491  15.619  43.455  11.002
50548W        W14492  17.279  33.960  11.387
50549W        W14493  22.203  44.452  14.782
50550W        W14494  17.123   7.791  14.502
50551W        W14495  21.710   3.248   4.688
50552W        W14496  17.223  24.565  11.112
50553W        W14497  44.363  11.838  11.546
50554W        W14498   0.883   8.193  14.437
50555W        W14499   2.389  39.337  14.791
50556W        W14500  25.537   5.246   1.375
50557W        W14501   4.789  16.657  11.056
50558W        W14502  31.103  15.584  10.478
50559W        W14503  31.072  25.007  13.506
50560W        W14504  17.610  12.838  14.277
50561W        W14505  33.976   8.765  14.778
50562W        W14506  41.827  28.453  12.886
50563W        W14507  43.471  15.657   9.990
50564W        W14508  23.696  26.067  12.389
50565W        W14509  29.105  23.611   1.696
50566W        W14510  15.308  10.243   1.426
50567W        W14511  41.996   3.335  14.816
50568W        W14512  26.996  35.949   4.332
50569W        W14513  42.995  30.157  13.379
50570W        W14514  28.948  41.483  14.928
50571W        W14515   1.785   6.404  12.058
50572W        W14516   4.856  12.251  14.811
50573W        W14517  33.083  31.054   0.308
50574W        W14518  22.746  21.247  10.063
50575W        W14519  22.053  37.453  11.082
50576W        W14520  14.787  13.195  12.444
50577W        W14521  16.097  13.742  12.361
50578W        W14522  26.624  33.526  13.418
50579W        W14523  29.122  32.631   1.745
50580W        W14524  40.865  39.998   2.364
50581W        W14525  19.565  38.463  10.968
50582W        W14526   4.260  33.581  14.438
50583W        W14527   7.838  10.209  10.542
50584W        W14528  26.575  12.760   3.253
50585W        W14529  29.521   8.269  11.953
50586W        W14530  11.721  40.386  11.911
50587W        W14531  37.874  37.923   2.768
50588W        W14532   5.842   0.343  11.584
50589W        W14533  31.473  16.288   2.313
50590W        W14534  30.035  25.674  12.861
50591W        W14535  36.080  22.093   1.323
50592W        W14536   0.780  30.539   0.838
50593W        W14537  10.142  17.779  13.333
50594W        W14538  31.640  20.522  14.029
50595W        W14539  13.312  19.120   4.836
50596W        W14540  27.181   0.977   2.749
50597W        W14541  10.829  21.156  12.505
50598W        W14542  31.086  14.152   2.875
50599W        W14543  39.370   4.351   9.964
50600W        W14544  23.080  22.719   1.341
50601W        W14545  19.147  40.810   3.652
50602W        W14546  23.144  25.521   3.149
50603W        W14547   0.378   2.790   4.782
50604W        W14548  41.485  20.694  13.849
50605W        W14549  28.134  26.585   3.734
50606W        W14550  43.973  22.583   2.234
50607W        W14551  20.121  40.483  13.313
50608W        W14552  38.849  24.046   0.793
50609W        W14553  33.103  30.146   3.772
50610W        W14554  40.487  16.597   2.179
50611W        W14555  19.072  32.404  14.016
50612W        W14556  33.531  43.413  13.927
50613W        W14557  38.992  42.843   3.306
50614W        W14558   4.288  15.660  11.449
50615W        W14559  39.034  10.732   3.683
50616W        W14560   2.310  37.877  10.905
50617W        W14561  14.627  27.674  13.913
50618W        W14562   7.738  40.916   0.947
50619W        W14563   8.222  25.003   2.345
50620W        W14564   9.693   1.906   1.412
50621W        W14565  33.457  38.825   4.174
50622W        W14566   4.211  36.556  11.044
50623W        W14567  15.628  36.050   0.792
50624W        W14568  12.267  21.067   1.280
50625W        W14569   2.472  31.456  12.830
50626W        W14570   2.877  18.089  14.913
50627W        W14571  19.168   3.859   4.703
50628W        W14572  27.089  35.922  13.898
50629W        W14573  17.241  40.494   2.290
50630W        W14574  35.561  27.150   0.933
50631W        W14575  31.101  16.585  10.111
50632W        W14576  14.791  36.518   3.305
50633W        W14577  29.596  18.289   1.396
50634W        W14578  24.011  17.743  13.815
50635W        W14579  24.053  12.256  14.987
50636W        W14580   0.295  16.101  11.507
50637W        W14581  15.582  37.028  13.533
50638W        W14582  15.625  31.561   0.453
50639W        W14583  27.599   9.846   1.737
50640W        W14584  16.586  26.536  12.952
50641W        W14585  12.256   9.234   2.881
50642W        W14586  13.632  16.720   3.694
50643W        W14587  40.425   6.313   3.254
50644W        W14588   1.269  42.929  11.917
50645W        W14589   2.250  36.903  11.399
50646W        W14590  18.733   7.172  11.557
50647W        W14591  14.589  18.774   2.751
50648W        W14592  41.385  20.726  14.891
50649W        W14593  40.929  43.012   1.315
50650W        W14594  38.001  32.523   2.734
50651W        W14595  35.411  16.137  14.484
50652W        W14596  26.697  35.983  12.058
50653W        W14597   7.287  20.247  14.418
50654W        W14598  37.840   6.251  12.016
50655W        W14599  14.701  29.583  13.512
50656W        W14600  16.715  16.637   1.421
50657W        W14601  29.126  37.022   2.858
50658W        W14602  44.825  38.846  14.452
50659W        W14603  37.495  15.205  11.999
50660W        W14604  42.426  13.245  13.486
50661W        W14605  38.520   3.899  11.426
50662W        W14606   4.249   9.665  13.841
50663W        W14607  14.175  25.035   3.748
50664W        W14608  22.161   2.316   1.898
50665W        W14609  42.519  17.170   3.339
50666W        W14610  14.296  18.264  10.535
50667W        W14611  32.606  10.337   4.165
50668W        W14612  13.644   7.286  10.429
50669W        W14613   6.777  30.141   3.677
50670W        W14614   7.257  17.282   4.677
50671W        W14615  40.378  32.886  14.966
50672W        W14616   8.212  29.650  14.816
50673W        W14617   1.307  29.037  12.535
50674W        W14618  43.822   1.299   0.781
50675W        W14619   6.872  21.174   0.955
50676W        W14620  15.299   0.359   4.126
50677W        W14621   6.816  42.001   3.336
50678W        W14622  27.157  42.340  11.438
50679W        W14623  23.672  17.668  14.445
50680W        W14624  32.573  27.940  13.824
50681W        W14625  10.638  41.792  13.018
50682W        W14626  15.663  20.045   1.759
50683W        W14627  29.628  19.778  11.414
50684W        W14628  25.533  18.774   3.681
50685W        W14629  12.342  39.829   4.227
50686W        W14630   6.316  10.258   3.764
50687W        W14631   6.319  36.978   1.425
50688W        W14632  16.239  36.912   4.199
50689W        W14633  20.158   8.803   0.777
50690W        W14634  21.230  15.608   4.126
50691W        W14635   3.373  38.529  13.010
50692W        W14636  23.233   7.411   2.371
50693W        W14637   1.248  35.541  14.886
50694W        W14638  40.470  37.020  14.922
50695W        W14639  32.939   1.475   0.818
50696W        W14640  38.562  32.457  11.909
50697W        W14641  37.337  18.216   2.248
50698W        W14642  41.034  34.028  11.042
50699W        W14643  19.614  39.859   4.668
50700W        W14644  18.773  25.575  10.593
50701W        W14645  19.204  24.044  12.880
50702W        W14646   4.315  11.300   4.351
50703W        W14647  34.458  18.090   2.373
50704W        W14648  41.005  33.026   0.465
50705W        W14649  12.632  34.456  11.873
50706W        W14650  26.131  32.082   1.386
50707W        W14651  11.777  35.915   5.203
50708W        W14652  37.886  42.303   4.787
50709W        W14653   8.881   5.346   4.698
50710W        W14654   7.722  33.428  14.000
50711W        W14655  39.847  44.453  11.026
50712W        W14656  41.865  24.083  10.541
50713W        W14657  22.245  39.051  13.546
50714W        W14658   4.760   4.447   4.611
50715W        W14659   2.768  28.538   3.835
50716W        W14660  19.157  24.169  13.954
50717W        W14661   5.322   4.333   0.795
50718W        W14662  26.461   1.813   2.877
50719W        W14663  14.191   8.228  10.918
50720W        W14664  35.524   4.333   1.297
50721W        W14665  34.937  12.795   0.348
50722W        W14666  38.418  27.979  11.610
50723W        W14667  43.327  40.820  12.033
50724W        W14668  23.114  39.364   4.665
50725W        W14669  30.047  26.639  12.347
50726W        W14670  11.357   6.780   0.916
50727W        W14671  40.368  21.086  14.950
50728W        W14672   9.153  37.575   1.705
50729W        W14673  15.805  35.594   1.306
50730W        W14674  24.588  19.732  14.984
50731W        W14675  23.580  40.928   1.926
50732W        W14676  40.942  33.503   3.300
50733W        W14677  20.144  31.909   3.662
50734W        W14678  38.419  36.506  10.902
50735W        W14679  17.784  31.938  11.114
50736W        W14680  28.653  22.747  12.465
50737W        W14681   4.332   9.213   0.819
50738W        W14682  42.366  36.898   4.705
50739W        W14683  27.548  25.161   2.261
50740W        W14684   4.748  28.096  10.634
50741W        W14685  33.450  26.488   3.191
50742W        W14686  32.510  10.655  13.311
50743W        W14687  25.486  44.976  14.971
50744W        W14688  11.664   3.267  11.074
50745W        W14689  15.116  44.263  14.788
50746W        W14690  16.272   6.261  12.089
50747W        W14691   2.726  37.379   0.254
50748W        W14692  26.118  20.653  14.286
50749W        W14693  37.345  15.146  13.380
50750W        W14694   1.291  37.032   1.860
50751W        W14695  17.263  23.053  13.423
50752W        W14696  39.409  28.574   1.919
50753W        W14697   5.321  14.235   1.756
50754W        W14698  10.357  38.331  13.324
50755W        W14699  16.224  34.087  14.946
50756W        W14700   1.270  14.201   4.737
50757W        W14701  11.146  33.902   2.797
50758W        W14702  11.632  27.068   0.960
50759W        W14703  26.622  13.602   0.738
50760W        W14704  42.012  25.971  13.031
50761W        W14705  39.019  39.059  14.891
50762W        W14706  25.008  30.949  12.007
50763W        W14707   2.790  23.098  13.802
50764W        W14708   9.751  34.602   4.739
50765W        W14709  13.716   2.466   5.181
50766W        W14710  12.214  39.518  11.530
50767W        W14711  15.638  19.623   4.350
50768W        W14712  17.293  37.424  13.880
50769W        W14713  10.171   4.818   5.180
50770W        W14714  10.304  34.396  10.895
50771W        W14715   1.912  16.755   2.761
50772W        W14716  15.298  17.068   1.736
50773W        W14717  28.670   5.210  14.378
50774W        W14718  32.068  33.492  11.107
50775W        W14719  31.094  43.790   1.917
50776W        W14720   9.347  23.707  12.552
50777W        W14721  33.030  30.942  11.032
50778W        W14722  21.127  21.681  12.453
50779W        W14723  44.264   8.809  14.964
50780W        W14724  27.680   3.336   1.880
50781W        W14725  28.081  13.621   4.350
50782W        W14726   2.803  35.043   4.724
50783W        W14727  20.092  41.967   1.808
50784W        W14728  37.051  36.856  12.569
50785W        W14729  26.543  28.026  11.901
50786W        W14730  16.245  29.550  13.974
50787W        W14731  29.955  23.707  13.986
50788W        W14732  41.978  32.135   4.261
50789W        W14733  41.325   9.681   4.619
50790W        W14734   2.772  21.626  12.925
50791W        W14735  39.480  36.506   2.240
50792W        W14736  30.017   0.935  11.101
50793W        W14737   5.843  40.310   3.696
50794W        W14738  20.161  18.661   1.777
50795W        W14739  22.060  44.444  13.981
50796W        W14740  36.997  15.628  11.533
50797W        W14741  25.183   4.774   4.605
50798W        W14742   8.869  44.956   4.829
50799W        W14743  20.596  21.608   3.640
50800W        W14744  40.030  11.660  12.416
50801W        W14745   9.386  13.235   1.795
50802W        W14746   5.236  16.803  12.017
50803W        W14747  34.898  35.596  13.981
50804W        W14748  35.889  10.855   0.936
50805W        W14749   4.717  34.479  13.485
50806W        W14750  42.400  18.728   4.683
50807W        W14751  26.611  16.633   9.662
50808W        W14752  20.197  10.239  11.955
50809W        W14753  29.998  12.808  14.005
50810W        W14754  42.020   9.705  11.915
50811W        W14755  43.798   2.306  14.016
50812W        W14756  34.406  17.302  12.052
50813W        W14757  31.587   7.887   0.842
50814W        W14758  41.437  44.503  10.973
50815W        W14759  11.675   3.898  14.006
50816W        W14760  31.945  27.692   0.289
50817W        W14761  13.218  31.434  10.413
50818W        W14762  19.072  34.569   0.255
50819W        W14763  12.212  16.722   2.284
50820W        W14764   8.349  18.292   4.813
50821W        W14765  40.949  29.647   2.861
50822W        W14766  44.807  10.223  10.630
50823W        W14767  33.583  36.979  12.914
50824W        W14768   6.427  22.615  11.976
50825W        W14769  43.443  40.021  10.624
50826W        W14770  38.405  21.718   0.282
50827W        W14771  19.076  36.011  10.947
50828W        W14772  42.321  36.474  11.013
50829W        W14773  18.642  16.258  11.373
50830W        W14774   2.738   5.325   2.178
50831W        W14775   8.204  15.196  10.480
50832W        W14776  17.295  17.217  13.313
50833W        W14777  26.620  44.895   2.283
50834W        W14778  41.467  21.260  12.530
50835W        W14779  12.184   4.780   1.812
50836W        W14780   6.750  21.040  14.833
50837W        W14781  26.188  12.653  13.881
50838W        W14782  27.656  14.650  13.951
50839W        W14783  34.532  24.169   2.220
50840W        W14784   1.272  42.307  13.357
50841W        W14785  37.495  28.446  11.985
50842W        W14786  19.605  25.474   0.253
50843W        W14787   0.786  20.665   2.832
50844W        W14788  27.543  20.556  12.076
50845W        W14789  26.508   0.277  11.121
50846W        W14790  24.172  26.201  10.616
50847W        W14791   0.904  32.446  13.538
50848W        W14792   7.881  14.786  14.942
50849W        W14793  32.562  26.505   2.244
50850W        W14794   3.776  41.864  14.903
50851W        W14795  25.703   6.325  13.454
50852W        W14796  33.616  29.647   3.669
50853W        W14797  38.523  14.168  10.952
50854W        W14798  30.031  13.677   2.809
50855W        W14799  42.300  22.164   1.908
50856W        W14800  28.493  11.716  14.951
50857W        W14801  11.259  44.312   4.254
50858W        W14802  33.392  30.578   3.676
50859W        W14803  42.937  25.495  10.473
50860W        W14804  23.026  41.931  13.062
50861W        W14805  19.670  20.668  14.324
50862W        W14806  26.620  44.352   2.719
50863W        W14807  29.606  28.999   3.759
50864W        W14808  24.494   9.256   0.311
50865W        W14809  42.505  12.230  13.497
50866W        W14810  35.030  24.046  14.437
50867W        W14811  10.665  37.897   3.791
50868W        W14812  17.771  37.463   1.429
50869W        W14813  39.819  44.299   4.713
50870W        W14814  16.710  40.973   3.774
50871W        W14815  23.227  44.911   1.222
50872W        W14816  30.466   5.836   3.637
50873W        W14817   4.702  43.441  12.417
50874W        W14818  14.254   0.841  14.322
50875W        W14819  11.300  19.602  12.554
50876W        W14820  44.972  18.667  10.530
50877W        W14821   8.237  39.392   0.268
50878W        W14822  25.028  27.529  13.497
50879W        W14823  44.814  44.938   1.920
50880W        W14824   6.755  11.218  14.772
50881W        W14825  36.482  35.959   2.402
50882W        W14826  17.228   1.294   3.226
50883W        W14827  20.545   4.854   2.249
50884W        W14828   9.153   1.380  10.640
50885W        W14829   5.329   6.213   0.784
50886W        W14830   9.167  18.195   0.446
50887W        W14831  20.666  19.756  11.890
50888W        W14832   7.327  31.907  11.904
50889W        W14833  11.649  19.574  13.933
50890W        W14834  27.634  14.113   5.246
50891W        W14835  33.521  41.429  12.839
50892W        W14836  38.858  23.490   0.900
50893W        W14837  39.063   0.266  13.510
50894W        W14838  24.580  10.301   3.290
50895W        W14839   4.878  22.046   1.898
50896W        W14840  25.683  11.679   4.727
50897W        W14841   2.391  19.118  13.400
50898W        W14842  19.769  20.183   1.333
50899W        W14843  31.999  19.104   2.704
50900W        W14844  37.861  33.073   4.349
50901W        W14845  43.327  22.121   0.759
50902W        W14846   4.280  10.804  11.473
50903W        W14847   0.796  39.826   3.645
50904W        W14848  36.515  44.342  11.928
50905W        W14849  42.309  12.777   4.167
50906W        W14850  40.515   7.391  11.558
50907W        W14851  16.792  10.668  14.920
50908W        W14852   9.770   4.372  12.385
50909W        W14853  41.302   6.729  14.294
50910W        W14854   8.165  43.876  13.840
50911W        W14855  25.104  20.582   0.450
50912W        W14856   7.837   5.742  11.571
50913W        W14857  32.493   8.255   3.364
50914W        W14858  35.601  30.601   4.239
50915W        W14859  44.895  28.600   3.767
50916W        W14860  27.030  17.108  12.042
50917W        W14861   4.833   3.758  10.472
50918W        W14862   3.846  24.120   4.794
50919W        W14863  15.655  21.539   1.367
50920W        W14864  18.224   1.858  10.408
50921W        W14865  39.869  40.508  13.877
50922W        W14866  23.676  11.706   0.922
50923W        W14867  38.360  15.240  12.958
50924W        W14868  32.489  16.247  11.019
50925W        W14869  36.520  25.186  10.037
50926W        W14870  39.850   5.423  12.521
50927W        W14871   1.973  22.209   0.864
50928W        W14872   1.740   9.282  11.018
50929W        W14873  30.022  19.637   3.657
50930W        W14874  11.193   3.226  14.784
50931W        W14875  21.652  42.365  12.910
50932W        W14876   2.857  10.723   3.170
50933W        W14877  23.149  29.591   0.252
50934W        W14878  25.629   2.342   3.827
50935W        W14879  19.243  40.475  13.008
50936W        W14880  41.338  13.302  11.585
50937W        W14881  18.691  37.040  13.537
50938W        W14882  14.661  29.006   1.915
50939W        W14883  13.155  20.067  14.462
50940W        W14884   4.937  10.841   2.876
50941W        W14885  31.449  18.651   2.361
50942W        W14886   3.742   3.763   2.289
50943W        W14887  29.456   8.829   2.677
50944W        W14888  39.870  31.113   0.476
50945W        W14889  42.009  24.225   4.182
50946W        W14890   5.405  38.387  13.413
50947W        W14891  35.096  38.068  11.591
50948W        W14892  18.191  39.969  13.543
50949W        W14893  28.649  14.716   4.614
50950W        W14894  10.811  10.311   2.419
50951W        W14895  12.678  31.110   1.448
50952W        W14896  44.837  34.454  10.925
50953W        W14897  43.417  18.640   2.843
50954W        W14898  13.767  17.104  11.926
50955W        W14899  17.301   5.399  14.823
50956W        W14900  15.101   7.737   4.343
50957W        W14901  18.776  43.318   0.422
50958W        W14902  10.762  36.063   4.344
50959W        W14903  44.844  27.618  11.945
50960W        W14904   8.797  35.052   1.935
50961W        W14905  43.878  24.522  14.928
50962W        W14906   4.368  25.034   0.331
50963W        W14907  41.303  15.322   2.800
50964W        W14908   4.234   4.354  10.083
50965W        W14909   9.797  19.113   1.416
50966W        W14910  43.846  41.346  12.927
50967W        W14911  32.960   8.299  13.357
50968W        W14912  15.580  12.785   0.943
50969W        W14913  25.046  40.445   3.772
50970W        W14914  21.253  23.609  14.840
50971W        W14915  15.155   0.766   0.823
50972W        W14916  44.298   0.291   0.808
50973W        W14917  38.822  38.428   3.176
50974W        W14918  19.582  39.993   2.711
50975W        W14919  12.278   9.351   0.886
50976W        W14920  42.891  27.542   2.199
50977W        W14921  24.645  19.758  12.987
50978W        W14922   0.401  40.908   4.732
50979W        W14923  29.644  11.373   3.812
50980W        W14924  23.510  41.397   2.311
50981W        W14925  16.772  32.445   3.763
50982W        W14926  23.189  30.108  13.872
50983W        W14927  16.316  22.555   1.295
50984W        W14928  22.137  42.416   0.369
50985W        W14929   3.801  21.035   4.813
50986W        W14930  12.649  43.969   4.719
50987W        W14931  41.347  43.843  12.480
50988W        W14932  25.538  16.117  11.870
50989W        W14933  12.742   5.238  14.419
50990W        W14934  39.031   1.268   2.238
50991W        W14935  41.924  14.321   4.633
50992W        W14936  29.493  17.796  13.813
50993W        W14937  44.771   0.448   1.906
50994W        W14938  31.129   3.220  11.408
50995W        W14939   3.385  31.438   2.248
50996W        W14940   2.788   2.730  12.565
50997W        W14941  20.033  42.316  14.763
50998W        W14942   4.713  43.008  14.956
50999W        W14943   9.647  43.896  11.405
51000W        W14944  40.514   3.791  14.789
51001W        W14945  34.075  21.069  11.528
51002W        W14946  18.168   8.289   3.228
51003W        W14947  32.003  39.932   4.307
51004W        W14948  35.568  40.923   3.251
51005W        W14949  11.165  14.291   2.749
51006W        W14950  33.990  11.683  13.956
51007W        W14951  25.189  33.380   0.252
51008W        W14952  33.610  19.740  13.385
51009W        W14953   5.803   5.315   1.879
51010W        W14954  41.447  21.250   4.814
51011W        W14955  18.724  24.112   1.796
51012W        W14956  33.588  13.754  13.878
51013W        W14957  27.155  42.993   4.237
51014W        W14958  21.661   5.193  12.453
51015W        W14959  16.167   5.296   3.844
51016W        W14960  26.618   7.779  14.811
51017W        W14961  22.732  14.125   3.186
51018W        W14962  21.024  41.435   4.738
51019W        W14963  14.280  13.685  14.934
51020W        W14964  22.721  40.833  14.981
51021W        W14965  33.603  28.974  14.960
51022W        W14966   9.812  42.364  10.545
51023W        W14967  36.380  37.365  12.021
51024W        W14968   9.777   3.802   0.371
51025W        W14969   9.771   5.363   2.349
51026W        W14970  24.525  44.333   0.286
51027W        W14971  40.841  33.101   4.269
51028W        W14972  10.152  26.626   1.248
51029W        W14973  18.128  28.438   2.182
51030W        W14974   1.745   0.963  11.048
51031W        W14975  32.104  17.713   1.367
51032W        W14976  30.655  37.900   0.454
51033W        W14977  42.333  44.807  12.016
51034W        W14978  34.054  21.191  13.506
51035W        W14979  20.087  24.978  13.831
51036W        W14980  44.380  19.164   4.730
51037W        W14981  32.421  24.683  13.832
51038W        W14982  44.457   5.816   3.324
51039W        W14983   3.227  22.129  14.400
51040W        W14984  36.519  24.487   4.180
51041W        W14985   0.368  15.665   4.205
51042W        W14986  39.990   8.795  11.599
51043W        W14987  13.809  37.489  10.611
51044W        W14988  27.529  24.543  11.104
51045W        W14989  35.056  13.309   2.231
51046W        W14990  32.969  39.519   3.809
51047W        W14991  13.273  39.323   4.725
51048W        W14992   2.298  31.565  13.945
51049W        W14993  26.543  29.007  11.596
51050W        W14994  21.119  13.259  11.897
51051W        W14995  12.817  15.644  12.892
51052W        W14996  26.579  25.135  14.298
51053W        W14997  39.916  23.717  14.855
51054W        W14998  37.937  29.638  14.286
51055W        W14999   4.342  29.054   4.152
51056W        W15000   5.400  10.795  12.028
51057W        W15001  42.393   7.716   3.847
51058W        W15002  44.358  31.065  13.354
51059W        W15003  28.654  30.454  12.902
51060W        W15004  31.903  13.674  10.639
51061W        W15005  12.328  13.340  14.434
51062W        W15006  27.665  40.400   0.447
51063W        W15007  16.675   7.335  13.393
51064W        W15008   8.306  14.258  11.999
51065W        W15009  28.553  15.718   0.961
51066W        W15010   1.313  18.094  13.972
51067W        W15011  33.019   7.708   2.378
51068W        W15012  38.498  37.523  11.509
51069W        W15013  20.559   4.375  13.324
51070W        W15014  14.133   7.800   1.917
51071W        W15015   5.278   6.758   1.237
51072W        W15016  21.078  15.264   4.693
51073W        W15017   3.820  38.001   3.834
51074W        W15018   5.807   9.177   0.478
51075W        W15019   8.741   7.389   4.122
51076W        W15020  22.250   9.269   0.244
51077W        W15021  26.122  41.890  13.986
51078W        W15022  22.522   2.761   2.221
51079W        W15023   6.428  41.346  13.425
51080W        W15024  42.820  10.706  13.342
51081W        W15025  12.121  33.492  11.406
51082W        W15026  30.639  22.664   0.901
51083W        W15027  41.501  18.715  13.811
51084W        W15028  42.813  15.814  12.033
51085W        W15029   6.207  17.735   4.215
51086W        W15030  43.003   2.450  12.878
51087W        W15031  33.510   7.881   1.931
51088W        W15032   3.924  27.144  12.396
51089W        W15033   4.253   7.172  12.360
51090W        W15034  13.270  41.537   1.796
51091W        W15035  28.632  38.997   4.289
51092W        W15036  14.656  43.377   4.329
51093W        W15037  24.092  41.837  11.089
51094W        W15038  19.595  32.580  14.393
51095W        W15039  41.495  35.951   1.880
51096W        W15040  23.215  36.892   3.218
51097W        W15041   4.821   9.366  10.975
51098W        W15042   3.234  35.585   2.753
51099W        W15043  22.194  11.169  13.359
51100W        W15044  20.547  43.909  11.096
51101W        W15045  43.880  33.062   2.688
51102W        W15046  27.500   1.934   3.739
51103W        W15047  38.444   7.281   1.838
51104W        W15048  43.426  23.499  10.523
51105W        W15049   4.905   4.722   4.608
51106W        W15050  25.121  14.262   3.789
51107W        W15051  31.596   8.840  12.546
51108W        W15052  13.159  27.973   1.709
51109W        W15053   6.846  33.395   2.260
51110W        W15054   4.805  17.153  12.467
51111W        W15055  25.688  15.233   2.809
51112W        W15056  17.558  25.664  12.444
51113W        W15057  37.377  26.069  10.159
51114W        W15058  42.980  23.648  10.475
51115W        W15059  17.559  18.100  13.501
51116W        W15060  21.102  35.452   4.798
51117W        W15061  43.810  21.215  12.365
51118W        W15062  35.430  42.833   3.807
51119W        W15063  34.910  21.711   2.285
51120W        W15064  31.478   7.362  13.336
51121W        W15065  34.614   7.768  11.977
51122W        W15066  27.007  24.198   2.792
51123W        W15067   8.665  27.185   3.264
51124W        W15068   5.382  28.031   0.429
51125W        W15069   4.919  39.861  12.989
51126W        W15070  26.207   9.830  12.086
51127W        W15071  31.062  27.478   0.441
51128W        W15072  39.836  18.637   1.246
51129W        W15073  22.086  16.251   2.356
51130W        W15074  39.556   4.768   0.430
51131W        W15075  40.951   5.419   3.242
51132W        W15076   7.737   8.296  13.887
51133W        W15077  30.638  16.740   1.815
51134W        W15078  37.548   7.233  14.512
51135W        W15079  32.592  32.516   1.893
51136W        W15080   9.838  24.025   3.146
51137W        W15081  30.420  15.114  14.946
51138W        W15082  28.984  30.471  13.462
51139W        W15083  25.588   5.339   3.694
51140W        W15084   6.685  27.957   0.343
51141W        W15085  30.006  29.112  10.481
51142W        W15086   6.736  43.334  14.800
51143W        W15087  39.334  33.081  13.369
51144W        W15088  27.448   6.862  10.618
51145W        W15089  24.691   7.197  14.354
51146W        W15090  20.072   8.763  10.953
51147W        W15091  22.691  14.662   1.336
51148W        W15092  30.083  28.955  14.988
51149W        W15093  39.817  16.680   4.254
51150W        W15094   1.918  10.323   1.847
51151W        W15095  43.461   3.248  12.516
51152W        W15096  23.214  25.985  11.462
51153W        W15097   3.410  36.078   2.325
51154W        W15098   0.807   0.870  11.908
51155W        W15099   7.310  13.745  13.980
51156W        W15100  25.554   4.902  10.570
51157W        W15101  13.674  18.791   4.626
51158W        W15102  24.599  32.560   0.787
51159W        W15103  29.547   3.462   2.383
51160W        W15104  37.479   1.380  11.948
51161W        W15105  30.962  12.752  12.515
51162W        W15106  27.153  11.779   1.730
51163W        W15107  42.945   3.937  13.505
51164W        W15108   3.329  13.808   1.425
51165W        W15109  34.872  26.168   1.763
51166W        W15110  26.955  12.282   2.876
51167W        W15111  29.523  36.477   2.846
51168W        W15112  20.197  32.044   4.120
51169W        W15113  26.191   0.880  12.915
51170W        W15114  30.985   5.195  10.918
51171W        W15115  42.523  35.532  14.503
51172W        W15116  32.634   5.922  12.505
51173W        W15117   1.881   8.694  12.576
51174W        W15118  22.620  28.110   3.767
51175W        W15119  40.906  11.343   1.416
51176W        W15120  14.098  28.104   0.310
51177W        W15121  34.908  25.085   2.382
51178W        W15122  16.650  43.989  11.513
51179W        W15123   7.832  24.138   5.111
51180W        W15124  44.754  31.945   3.199
51181W        W15125  18.234   7.238   0.265
51182W        W15126  42.831  16.122  11.498
51183W        W15127  44.932  37.424   1.807
51184W        W15128  37.439  29.449  12.915
51185W        W15129  21.050  40.808   3.271
51186W        W15130  44.322   4.273  14.471
51187W        W15131  15.734  33.621  12.899
51188W        W15132  37.469  38.466   3.209
51189W        W15133  20.641  39.870  10.492
51190W        W15134  27.138  21.117  11.926
51191W        W15135  33.905  10.139   3.191
51192W        W15136   3.345  41.989   5.320
51193W        W15137   4.344   5.228  14.846
51194W        W15138  20.169  34.521  14.395
51195W        W15139  17.629  26.463  11.076
51196W        W15140  15.306  16.745   2.892
51197W        W15141  25.026  42.391  14.278
51198W        W15142  41.302  22.606  14.841
51199W        W15143   6.882  35.411   0.326
51200W        W15144   9.778  16.191   2.784
51201W        W15145  30.557  14.319   4.169
51202W        W15146  24.157  32.946  12.481
51203W        W15147  43.350   2.773  14.413
51204W        W15148  11.849  29.588   2.745
51205W        W15149   5.707   0.742  14.782
51206W        W15150   7.838  36.538   0.300
51207W        W15151   3.418   0.787   2.251
51208W        W15152  11.812  27.989  12.345
51209W        W15153   0.746   8.171  12.407
51210W        W15154  35.478  43.972   3.190
51211W        W15155   0.871  23.679   2.402
51212W        W15156  29.025  44.396   3.217
51213W        W15157  40.051  41.455   3.808
51214W        W15158  27.994  21.532  11.601
51215W        W15159  20.046  33.575  11.968
51216W        W15160   9.711   0.758  12.549
51217W        W15161   4.709   3.298  12.378
51218W        W15162  18.239  24.705   1.340
51219W        W15163   9.189  13.139   0.420
51220W        W15164   1.401  16.714   1.440
51221W        W15165  12.673  38.906   0.290
51222W        W15166  18.288   5.703   3.719
51223W        W15167  36.593  10.848  12.498
51224W        W15168  16.732  22.727  13.837
51225W        W15169  42.997  34.910   1.246
51226W        W15170  15.152   2.729   2.300
51227W        W15171   5.816  32.586  10.967
51228W        W15172  29.439  20.591  14.410
51229W        W15173  42.862   7.907   3.343
51230W        W15174  36.045  15.681   4.780
51231W        W15175   4.375  41.862  10.928
51232W        W15176  38.831  42.893   4.720
51233W        W15177   6.815  23.204   1.369
51234W        W15178  31.039  38.417  13.386
51235W        W15179  22.531  37.382   2.356
51236W        W15180  31.452  41.478   4.767
51237W        W15181   5.319  23.088   2.863
51238W        W15182   9.706   3.300   0.908
51239W        W15183  37.848  22.212   0.457
51240W        W15184   8.296  30.957  14.322
51241W        W15185   1.765   1.398   1.282
51242W        W15186  35.408  17.194  11.588
51243W        W15187  44.299   1.323   4.706
51244W        W15188  13.341  30.480  14.361
51245W        W15189  15.775  35.478   4.835
51246W        W15190  16.073  10.144   2.689
51247W        W15191  18.287   6.807   1.432
51248W        W15192  30.534   5.235   4.698
51249W        W15193  12.183  43.432  10.910
51250W        W15194  11.290  22.744  12.426
51251W        W15195  40.475   4.425   3.746
51252W        W15196   1.314   9.777  12.047
51253W        W15197  38.982  33.071   2.397
51254W        W15198   3.936  33.422   4.157
51255W        W15199  27.981  15.693  12.348
51256W        W15200  37.369  21.192   1.871
51257W        W15201   7.705  10.185   2.240
51258W        W15202  35.431  16.302  10.481
51259W        W15203   1.894  37.490   0.808
51260W        W15204  22.713   8.328  14.883
51261W        W15205  15.669  16.258   3.212
51262W        W15206   3.898  17.138  13.015
51263W        W15207  31.508  17.093  13.508
51264W        W15208  30.919  37.438  10.411
51265W        W15209  20.163   4.700  12.095
51266W        W15210  11.699  31.124   4.838
51267W        W15211   7.743  42.002   3.742
51268W        W15212  35.071  36.413  12.348
51269W        W15213  28.185  21.512   1.410
51270W        W15214  44.815  24.582  13.008
51271W        W15215  23.000  21.616  13.961
51272W        W15216  30.486  13.296  13.327
51273W        W15217  23.663  12.300   4.775
51274W        W15218  18.734  15.302  12.355
51275W        W15219   4.754  40.910   4.699
51276W        W15220   6.703  21.709   4.350
51277W        W15221  43.848  39.036   2.302
51278W        W15222  28.053  32.933   2.859
51279W        W15223  15.295  37.511   0.293
51280W        W15224  28.064  34.036  14.815
51281W        W15225   1.398  21.577   2.807
51282W        W15226  29.446   6.741   0.755
51283W        W15227  13.603  23.213   2.705
51284W        W15228  42.454  29.980   0.957
51285W        W15229  42.401   0.348   3.697
51286W        W15230  29.529  42.836  12.945
51287W        W15231  11.865  20.589  12.992
51288W        W15232   2.308  25.089   3.183
51289W        W15233  33.980  18.726  13.953
51290W        W15234   5.796  21.021  10.526
51291W        W15235  20.085   2.963   4.662
51292W        W15236  31.110   9.387  12.970
51293W        W15237  20.658  35.009   1.236
51294W        W15238  24.198  24.716   3.657
51295W        W15239  43.899  20.227  12.848
51296W        W15240   3.944  41.451   4.339
51297W        W15241  41.873  23.622  14.286
51298W        W15242  15.663   8.221   1.812
51299W        W15243  33.923  39.462  14.832
51300W        W15244   5.919  37.411   2.730
51301W        W15245  31.972  32.142  14.480
51302W        W15246  37.570  12.819   0.920
51303W        W15247   5.418  23.663   5.147
51304W        W15248   7.713  37.954  14.784
51305W        W15249  39.331  37.832  14.977
51306W        W15250  13.822  21.063  10.483
51307W        W15251  27.053  14.115  13.310
51308W        W15252  18.662  40.898  14.977
51309W        W15253  16.727  14.653  12.045
51310W        W15254  18.757  27.969  12.860
51311W        W15255   7.761  13.138  12.890
51312W        W15256   4.910  38.827   1.859
51313W        W15257  28.488  19.578   3.372
51314W        W15258  17.093  33.575  14.964
51315W        W15259  25.072  40.540   0.283
51316W        W15260  41.302   9.217  12.837
51317W        W15261  10.354  38.384  12.027
51318W        W15262  22.632   5.395  13.054
51319W        W15263  20.196  31.005  12.448
51320W        W15264  22.205  41.334  11.449
51321W        W15265   2.440  24.225  14.332
51322W        W15266  39.483  32.986  10.594
51323W        W15267  20.669  18.064   2.708
51324W        W15268  42.422  12.674   3.683
51325W        W15269   7.337  20.719  13.447
51326W        W15270   9.263  21.590  12.018
51327W        W15271  31.978  35.372   3.328
51328W        W15272  10.249  16.783  14.941
51329W        W15273  16.078  42.849  12.532
51330W        W15274  11.284  11.726  14.453
51331W        W15275  15.126  38.442  13.944
51332W        W15276  36.529   7.770   4.324
51333W        W15277   0.920  38.870   4.273
51334W        W15278  21.672  17.571  10.420
51335W        W15279  22.679   1.873   3.701
51336W        W15280   1.845   1.821   3.322
51337W        W15281  18.612  24.709  11.990
51338W        W15282   0.887  23.988  10.945
51339W        W15283   6.714  34.041   0.366
51340W        W15284   6.202  27.613   3.293
51341W        W15285  23.629  41.964   4.836
51342W        W15286  26.062   2.329   4.345
51343W        W15287  37.363  44.858  12.557
51344W        W15288  21.208   0.358  14.379
51345W        W15289   3.939  25.150  11.890
51346W        W15290  16.628   2.917   1.897
51347W        W15291  23.049  23.624  13.387
51348W        W15292  41.789  44.780  13.499
51349W        W15293   7.174  43.875   4.313
51350W        W15294   8.305  38.959  10.542
51351W        W15295  20.097  42.483   3.174
51352W        W15296  27.040  39.548  12.356
51353W        W15297  21.757  30.958  13.986
51354W        W15298  12.264  19.279   0.454
51355W        W15299  14.641  41.912   1.930
51356W        W15300  25.162   9.244   4.828
51357W        W15301   8.708  15.203   4.688
51358W        W15302  17.186  37.956   1.228
51359W        W15303   0.974  38.439  14.865
51360W        W15304   6.228  36.982  14.323
51361W        W15305  18.576  15.801   1.286
51362W        W15306  40.353  21.625  11.106
51363W        W15307   6.878   0.403   3.722
51364W        W15308  39.458  43.899   3.307
51365W        W15309  39.931  44.497   3.862
51366W        W15310  22.501   5.860  12.574
51367W        W15311  22.661  40.856  10.493
51368W        W15312  13.247   7.798  11.392
51369W        W15313  37.356  30.421   2.405
51370W        W15314  19.078  13.168  14.404
51371W        W15315  42.348  14.713  14.399
51372W        W15316  14.708  39.825  10.949
51373W        W15317   6.404  36.578   3.178
51374W        W15318  36.472  22.088   4.708
51375W        W15319  32.078  21.069   0.328
51376W        W15320  18.733  13.289  12.015
51377W        W15321   1.282  18.731  13.453
51378W        W15322  18.735  37.086   1.737
51379W        W15323  25.218   1.462  10.503
51380W        W15324  29.668   4.724   3.345
51381W        W15325  34.872  16.576   2.827
51382W        W15326  19.058  29.660   0.880
51383W        W15327   2.254  27.470   2.387
51384W        W15328   2.293  18.735   1.735
51385W        W15329   5.381  24.497  14.885
51386W        W15330  15.285  27.680   1.874
51387W        W15331  27.133  43.473  12.998
51388W        W15332  12.176  40.467   0.866
51389W        W15333  19.272   5.911  13.003
51390W        W15334  17.107  39.447  13.000
51391W        W15335   6.860  14.273  14.912
51392W        W15336  21.166   0.886   0.845
51393W        W15337  20.660  12.187   2.829
51394W        W15338  35.496  28.472   2.418
51395W        W15339  43.956  12.656  12.572
51396W        W15340  38.068  36.521  13.352
51397W        W15341  27.189  10.632  10.970
51398W        W15342  10.795  15.820   5.291
51399W        W15343  15.655  25.633  10.645
51400W        W15344  34.950  15.809   0.471
51401W        W15345  17.231  34.863   3.740
51402W        W15346  27.057   4.705  10.931
51403W        W15347  34.963  43.017  10.409
51404W        W15348   8.205  36.427  11.880
51405W        W15349  40.324   8.744   4.695
51406W        W15350  42.408  41.038  13.791
51407W        W15351  27.017  35.542   3.750
51408W        W15352  17.112  34.084  13.016
51409W        W15353  15.099  32.413   1.243
51410W        W15354  22.542  22.161  13.390
51411W        W15355  25.586  27.661   1.859
51412W        W15356  38.384  31.987  14.865
51413W        W15357  41.360  19.655  12.454
51414W        W15358  12.676  30.477  11.422
51415W        W15359  32.011   4.430   1.747
51416W        W15360  24.159  19.605  13.484
51417W        W15361   4.863  29.439   4.724
51418W        W15362   7.368  19.276  12.839
51419W        W15363   0.444   8.327  12.959
51420W        W15364   2.322  14.314  11.438
51421W        W15365  41.875  39.516   0.354
51422W        W15366  16.227  32.608   1.889
51423W        W15367  13.293   3.748   3.630
51424W        W15368  40.053   1.440  11.891
51425W        W15369  18.671  10.657   0.430
51426W        W15370   1.950  36.001  14.359
51427W        W15371  34.061  13.124  11.385
51428W        W15372  39.546  16.177   3.322
51429W        W15373  25.653  25.566   3.802
51430W        W15374  42.029  20.729   2.209
51431W        W15375  19.754  17.178   0.354
51432W        W15376   4.739  21.587   3.174
51433W        W15377  42.805  39.857   0.877
51434W        W15378  18.707  37.037  11.982
51435W        W15379  32.520  26.502  13.449
51436W        W15380  23.233  28.620  11.106
51437W        W15381  43.981  35.463  10.899
51438W        W15382   0.963   7.734   1.445
51439W        W15383  20.058  38.828  14.979
51440W        W15384   0.756  14.740   0.377
51441W        W15385  15.181  34.408  13.455
51442W        W15386  10.838  16.131   4.338
51443W        W15387  27.606  29.170   3.275
51444W        W15388  10.263   8.771  10.478
51445W        W15389   9.222  21.593  13.531
51446W        W15390   1.916  41.786   2.706
51447W        W15391   0.469  15.124   1.290
51448W        W15392  33.562  43.451   2.850
51449W        W15393  34.867   5.277   2.834
51450W        W15394  37.004  11.689  13.498
51451W        W15395   1.771  40.866  13.036
51452W        W15396  36.564  21.633   4.312
51453W        W15397  32.527  25.025  12.932
51454W        W15398  14.225  34.956   4.748
51455W        W15399  35.943  31.944  13.004
51456W        W15400  36.375  41.958  12.945
51457W        W15401   1.250   0.299  11.911
51458W        W15402   7.901   1.889  10.436
51459W        W15403  26.478   4.299  12.485
51460W        W15404  22.708  33.994   4.804
51461W        W15405  35.377  14.175  12.359
51462W        W15406  10.768  29.664   3.832
51463W        W15407  33.035   6.268  14.844
51464W        W15408  39.872  40.480   4.145
51465W        W15409  13.251  22.606   4.698
51466W        W15410  18.084   5.740  11.966
51467W        W15411  24.643  35.905   1.914
51468W        W15412  21.562  17.130   9.923
51469W        W15413   4.273  13.799   1.357
51470W        W15414   4.235  35.377  13.030
51471W        W15415  17.730   7.869   0.268
51472W        W15416  18.565  19.215   1.369
51473W        W15417  11.302  26.603  14.410
51474W        W15418   1.372  30.423   0.293
51475W        W15419  10.333  30.466   5.182
51476W        W15420  15.283  28.643   2.665
51477W        W15421   1.839  41.024   0.446
51478W        W15422  15.145  14.753  13.416
51479W        W15423  23.622  40.797   2.376
51480W        W15424  23.519  41.913  13.457
51481W        W15425  31.064  32.005  12.430
51482W        W15426  29.995  37.879  12.355
51483W        W15427  26.472  35.860   4.310
51484W        W15428   4.361  35.103   2.402
51485W        W15429   3.737  40.391  11.976
51486W        W15430  20.576  16.666  13.353
51487W        W15431  15.712  42.443  14.506
51488W        W15432  12.612   5.869  11.034
51489W        W15433  42.287  30.106   3.683
51490W        W15434  29.046   0.388   3.325
51491W        W15435  34.598   0.770  14.275
51492W        W15436  10.830  34.869  14.318
51493W        W15437  43.302   2.265   0.281
51494W        W15438  44.974   5.208   0.855
51495W        W15439  41.528  43.903  10.943
51496W        W15440  30.104  15.599  13.892
51497W        W15441   2.266  24.498  14.012
51498W        W15442  19.191  20.578  13.515
51499W        W15443  43.400  42.910   0.939
51500W        W15444  39.014  16.584   0.941
51501W        W15445  36.065  39.968  14.830
51502W        W15446  31.465  14.820  14.282
51503W        W15447  25.181  40.489  12.574
51504W        W15448  33.094  32.467   0.905
51505W        W15449  25.110  34.987  14.869
51506W        W15450  13.108  41.914  10.903
51507W        W15451  38.449  38.419  11.951
51508W        W15452   2.820  31.918  13.488
51509W        W15453  24.133   6.187  12.406
51510W        W15454   6.901  40.922   0.801
51511W        W15455  29.597  24.169   0.422
51512W        W15456  43.814  44.827  14.361
51513W        W15457  31.636   3.954   1.248
51514W        W15458  43.406  33.925  11.948
51515W        W15459  33.506  34.392  11.099
51516W        W15460  36.445  34.500  12.560
51517W        W15461  10.847  22.519  14.994
51518W        W15462  11.299  23.161  10.578
51519W        W15463   9.168  44.923   3.270
51520W        W15464  19.074   8.211  14.001
51521W        W15465   1.472  17.671   0.343
51522W        W15466   0.408  36.992  12.089
51523W        W15467   9.258  25.474  11.536
51524W        W15468  16.660  23.013  12.041
51525W        W15469  33.905  27.150  14.449
51526W        W15470  15.315  23.525   4.810
51527W        W15471   8.236   5.909   2.287
51528W        W15472  25.686  30.045  12.894
51529W        W15473  36.047  39.901   1.419
51530W        W15474  22.725   8.829  10.461
51531W        W15475  32.601  28.987  13.324
51532W        W15476  33.605  27.503  13.857
51533W        W15477  20.725  40.970   3.726
51534W        W15478  26.530  32.998  10.570
51535W        W15479  31.903  20.660  13.383
51536W        W15480  11.712  33.458  13.861
51537W        W15481  37.543  22.609   5.163
51538W        W15482   9.829  22.618  10.558
51539W        W15483  15.617  23.166  10.460
51540W        W15484  23.135  16.639   1.710
51541W        W15485  22.654  10.711   4.773
51542W        W15486  34.990  38.389   3.650
51543W        W15487  11.714  24.105   0.274
51544W        W15488  22.672  30.952  11.932
51545W        W15489  31.941  23.586   2.389
51546W        W15490  27.056  38.823   2.211
51547W        W15491  24.131  19.677   3.236
51548W        W15492   2.855  34.989   1.244
51549W        W15493  30.974  40.888   3.655
51550W        W15494  10.797  11.175   4.192
51551W        W15495  15.805  10.792   3.339
51552W        W15496  44.377   5.397  13.491
51553W        W15497  13.622   0.847  13.518
51554W        W15498  10.702  43.988   2.839
51555W        W15499  26.084  43.933   2.837
51556W        W15500  24.146  20.557  10.573
51557W        W15501  32.456  28.947   0.331
51558W        W15502  19.634  34.527  13.487
51559W        W15503  12.270  21.206  14.434
51560W        W15504   8.797   1.332   1.796
51561W        W15505  19.173   3.411   4.769
51562W        W15506  40.388  32.574  11.984
51563W        W15507  35.530  35.593   4.818
51564W        W15508  22.019  22.698   1.699
51565W        W15509  43.292  36.067  13.377
51566W        W15510   7.209  29.993   4.778
51567W        W15511   6.771  36.056  12.038
51568W        W15512   7.410  11.260   4.810
51569W        W15513   9.872  37.579   3.146
51570W        W15514  25.031  42.017  11.597
51571W        W15515  41.346  30.150  13.059
51572W        W15516  24.014  30.964  12.422
51573W        W15517  32.412  13.607  14.926
51574W        W15518  22.679  24.201   5.272
51575W        W15519  32.442  10.747   0.912
51576W        W15520  43.421   3.317   0.447
51577W        W15521   8.784  35.515  10.461
51578W        W15522   3.313  11.768  12.530
51579W        W15523  23.728  12.823  10.516
51580W        W15524  32.461  16.303   3.672
51581W        W15525  33.028  39.541   4.184
51582W        W15526  31.443  26.558  13.851
51583W        W15527  13.171  27.459   4.190
51584W        W15528  31.044  21.754  11.915
51585W        W15529  41.386  33.082  12.351
51586W        W15530   9.165  36.560  13.962
51587W        W15531  42.949  33.444   2.306
51588W        W15532  23.180   9.312   2.671
51589W        W15533  25.672  24.050   3.362
51590W        W15534  14.135   1.408  12.488
51591W        W15535   6.778  14.733   4.791
51592W        W15536  44.848  44.380  11.552
51593W        W15537   3.900  30.572  12.981
51594W        W15538  37.566  18.067   2.694
51595W        W15539  28.498  32.120  13.955
51596W        W15540   5.869   5.233  11.612
51597W        W15541  32.075   8.349  14.972
51598W        W15542  14.605  17.290  14.926
51599W        W15543  17.787  14.291   3.696
51600W        W15544   8.349  12.218   1.344
51601W        W15545  36.046  23.719  12.896
51602W        W15546  27.017  26.511   1.912
51603W        W15547  37.020  24.611  13.884
51604W        W15548  38.519   8.261  13.929
51605W        W15549  32.994  26.172  14.355
51606W        W15550  22.204  21.739  14.287
51607W        W15551   1.273  25.683  10.527
51608W        W15552   8.231  38.955  13.948
51609W        W15553  30.139  37.083   2.677
51610W        W15554  12.734  39.477  13.317
51611W        W15555  42.505  25.054   0.466
51612W        W15556  20.529  35.430  11.578
51613W        W15557  16.246  30.607   3.730
51614W        W15558  19.652  21.241   2.387
51615W        W15559  16.657   3.758  12.578
51616W        W15560  12.615  44.466  14.413
51617W        W15561  35.016   7.222   1.893
51618W        W15562  28.566  34.503   2.380
51619W        W15563  23.083   9.882  10.534
51620W        W15564  30.639   4.276   4.311
51621W        W15565  34.571  26.186   0.268
51622W        W15566  32.613  23.664  14.280
51623W        W15567  21.108  43.512  11.862
51624W        W15568   0.793  35.991  14.324
51625W        W15569  13.168  33.936  10.069
51626W        W15570  10.225   8.891  11.915
51627W        W15571  36.583  37.355  10.550
51628W        W15572  29.467  37.855  11.053
51629W        W15573  34.050  31.536   2.736
51630W        W15574  24.039   2.810   4.347
51631W        W15575  22.216  44.891   1.324
51632W        W15576  12.326  14.194   4.712
51633W        W15577  22.704  39.864   3.778
51634W        W15578   8.188  39.551  14.008
51635W        W15579   7.819  26.167   4.127
51636W        W15580  10.794   7.857   0.885
51637W        W15581  16.079  29.523  13.023
51638W        W15582  23.601   6.410   1.329
51639W        W15583  18.257  35.473  14.820
51640W        W15584  40.017  11.321   2.364
51641W        W15585  37.072  34.406   4.253
51642W        W15586   8.394  40.991  10.460
51643W        W15587  15.635  30.969   4.218
51644W        W15588  26.131  26.978   3.829
51645W        W15589  10.296   3.286   4.801
51646W        W15590  11.285  30.556   1.357
51647W        W15591  24.202   9.227   2.871
51648W        W15592  44.888  22.034   2.245
51649W        W15593   7.904  35.901  13.916
51650W        W15594  16.237  24.206  13.842
51651W        W15595   5.267  11.344   4.324
51652W        W15596  39.439  33.946   0.283
51653W        W15597  25.986  38.075   3.155
51654W        W15598   5.376  42.965   4.299
51655W        W15599  40.365  30.930   4.709
51656W        W15600  31.949  23.660  11.438
51657W        W15601  40.984  17.759   1.853
51658W        W15602  19.544  28.505  11.436
51659W        W15603  28.170  28.058  12.084
51660W        W15604  37.423  20.145   4.776
51661W        W15605   0.851  23.576  12.415
51662W        W15606  43.967  25.530   0.813
51663W        W15607  26.101  35.407  13.016
51664W        W15608   3.461  28.502   2.275
51665W        W15609  44.440   4.844  11.051
51666W        W15610  42.436  43.404   0.954
51667W        W15611   8.262  35.886  11.549
51668W        W15612  36.935  35.472  10.625
51669W        W15613  38.950  24.206   1.315
51670W        W15614  36.569   9.688   4.150
51671W        W15615  35.379   8.853   0.771
51672W        W15616  12.341  41.791   2.701
51673W        W15617  36.066  18.552  14.847
51674W        W15618  26.606  39.517   0.799
51675W        W15619  39.976  13.310  12.982
51676W        W15620  16.156  18.702   4.288
51677W        W15621   4.754  34.989   3.837
51678W        W15622  12.311  11.782   2.862
51679W        W15623  13.126  36.049   5.266
51680W        W15624  26.027  20.091   3.807
51681W        W15625  17.737   3.227  10.413
51682W        W15626   8.732   8.275  14.385
51683W        W15627  14.231   9.800   2.853
51684W        W15628  29.964  26.583   0.747
51685W        W15629  27.517  33.109  13.458
51686W        W15630  22.117   6.346   4.241
51687W        W15631  16.652  20.758   1.893
51688W        W15632  33.963  30.459  12.900
51689W        W15633   5.723   1.271   2.230
51690W        W15634   5.740  12.818   4.326
51691W        W15635  18.245  35.567  11.097
51692W        W15636  33.575   8.833  13.846
51693W        W15637   0.886  27.583   1.900
51694W        W15638  39.863  42.506   3.377
51695W        W15639  42.912  14.307   2.258
51696W        W15640  21.618   4.263  14.882
51697W        W15641  42.328  21.121  13.926
51698W        W15642  22.207   7.841   0.245
51699W        W15643  17.700  42.433  13.525
51700W        W15644   6.767  12.613   1.384
51701W        W15645  14.215  34.017  13.968
51702W        W15646  28.480  23.521   1.882
51703W        W15647  35.515   3.801  13.348
51704W        W15648  41.313  26.687   0.847
51705W        W15649  27.549   8.869   0.959
51706W        W15650  30.025  10.660   1.349
51707W        W15651  13.662  22.034  14.998
51708W        W15652   5.210  28.625   4.143
51709W        W15653  17.183  34.009   5.143
51710W        W15654  22.722   3.890   4.658
51711W        W15655  25.203  28.984   2.679
51712W        W15656  42.928  41.416  11.928
51713W        W15657   9.372  15.271  14.819
51714W        W15658  22.528   2.466   1.933
51715W        W15659  12.735  11.210   2.236
51716W        W15660   0.313   9.864  11.906
51717W        W15661  19.208  35.547  10.514
51718W        W15662  32.442  13.627  12.479
51719W        W15663  32.446  34.007   1.699
51720W        W15664   3.796   4.336  11.959
51721W        W15665  20.717   0.470  11.476
51722W        W15666  11.646  35.978  11.903
51723W        W15667   0.921  12.836  10.028
51724W        W15668  30.616  17.168  12.854
51725W        W15669  36.422  14.734  14.026
51726W        W15670  23.185  34.987  12.828
51727W        W15671  38.397  17.728  11.551
51728W        W15672  34.401  44.763   3.750
51729W        W15673  17.633  10.704  12.527
51730W        W15674  17.254  24.987   2.299
51731W        W15675   5.876  26.502   0.916
51732W        W15676  30.524  14.792   4.155
51733W        W15677  32.571   2.442   4.145
51734W        W15678   2.961  24.161  13.957
51735W        W15679  37.911  44.901   4.327
51736W        W15680  13.623   4.943   4.647
51737W        W15681  23.732  40.973  14.467
51738W        W15682  13.681  33.016   0.405
51739W        W15683  29.046  11.825   1.923
51740W        W15684   2.762   3.747  11.990
51741W        W15685   5.421  36.965  14.888
51742W        W15686   4.845   1.870  10.949
51743W        W15687  37.397   1.473   4.229
51744W        W15688  32.524  38.917  11.018
51745W        W15689  10.660  42.373   1.276
51746W        W15690  13.204  11.622   4.133
51747W        W15691  38.335  35.399   0.829
51748W        W15692  23.681  42.449  14.435
51749W        W15693  17.092   8.173   1.839
51750W        W15694  34.025   0.251   1.379
51751W        W15695  24.230  38.928   1.778
51752W        W15696  41.328  16.274  13.460
51753W        W15697  26.206   3.944  11.890
51754W        W15698  22.735  32.094   3.358
51755W        W15699  17.645  40.421  11.558
51756W        W15700  37.858   5.863  12.369
51757W        W15701  24.603  19.191  12.419
51758W        W15702   2.792  23.573   0.391
51759W        W15703  35.597   0.950   4.198
51760W        W15704  17.221   4.870  12.996
51761W        W15705  33.966  40.373   2.202
51762W        W15706   6.696  26.571  11.027
51763W        W15707  42.281  29.158  12.408
51764W        W15708  12.268  34.073   1.258
51765W        W15709  42.800  34.102   1.253
51766W        W15710  30.033   6.902  14.514
51767W        W15711  34.587  18.766   0.946
51768W        W15712  38.392   4.848  13.430
51769W        W15713  24.513   3.459   4.713
51770W        W15714   3.804  40.894   2.269
51771W        W15715   2.900  38.061   4.349
51772W        W15716  19.283   6.205  10.891
51773W        W15717  13.147  44.881   5.148
51774W        W15718  15.083  39.506   2.875
51775W        W15719  29.485  15.706   4.695
51776W        W15720  10.321  12.639   3.281
51777W        W15721  42.456  14.605  10.435
51778W        W15722  44.356  39.004  10.984
51779W        W15723  30.628  44.940   4.702
51780W        W15724  31.052  27.629  13.930
51781W        W15725  36.945  10.768   1.217
51782W        W15726  16.082   3.828  14.886
51783W        W15727   5.206  23.640   2.784
51784W        W15728   6.390  39.043  14.890
51785W        W15729  38.870  24.139   3.240
51786W        W15730  32.432  30.515  14.987
51787W        W15731  27.586  32.547   2.706
51788W        W15732  29.524   4.295  14.287
51789W        W15733   0.801  36.431   1.374
51790W        W15734  30.940  40.302  11.863
51791W        W15735  44.793   4.272  13.471
51792W        W15736   2.754  33.932  13.316
51793W        W15737  28.124  10.222   1.220
51794W        W15738  27.008  23.079   4.602
51795W        W15739  28.651  28.456  11.050
51796W        W15740  39.509  27.156  13.453
51797W        W15741   2.348  10.766  14.979
51798W        W15742   7.893  40.001   2.189
51799W        W15743  13.669  38.064  11.121
51800W        W15744  30.102  41.338   2.707
51801W        W15745  20.660  36.377   2.789
51802W        W15746   3.374  23.706  11.442
51803W        W15747  27.587   1.322   2.286
51804W        W15748   6.256  33.424   1.919
51805W        W15749  33.900  44.426  13.340
51806W        W15750  13.301  33.494   0.761
51807W        W15751  40.863   1.908   4.792
51808W        W15752  32.063  21.620  14.352
51809W        W15753  11.260  39.337  11.920
51810W        W15754  41.411  36.539   0.344
51811W        W15755  17.277  37.438   0.739
51812W        W15756  24.587  43.381   4.721
51813W        W15757   5.820   8.859   3.723
51814W        W15758  22.722  23.533  10.922
51815W        W15759  42.482  21.142   3.181
51816W        W15760  22.207  40.813  11.862
51817W        W15761   1.806  16.242  13.464
51818W        W15762   5.880  43.431  12.941
51819W        W15763   4.830   3.900   1.381
51820W        W15764  26.559  27.196  11.058
51821W        W15765  12.844  17.603   3.631
51822W        W15766  37.365  14.733   2.313
51823W        W15767  40.007  38.466  12.902
51824W        W15768  34.115  19.564  13.060
51825W        W15769  14.708   1.793  11.503
51826W        W15770   6.275   7.355   3.376
51827W        W15771  22.694  31.006  11.440
51828W        W15772  38.366  17.581   3.344
51829W        W15773  37.445  30.543  13.474
51830W        W15774  32.417  11.139  11.420
51831W        W15775  11.731  41.481   1.396
51832W        W15776  13.846  17.744  14.923
51833W        W15777  37.849   9.862  12.425
51834W        W15778  32.580  24.717  11.409
51835W        W15779  17.072  41.307   2.271
51836W        W15780  25.615  34.379  10.531
51837W        W15781  11.811  40.351  10.928
51838W        W15782   6.809   2.965   0.297
51839W        W15783  20.150  27.666   0.352
51840W        W15784  34.949  28.571   2.227
51841W        W15785  26.180  42.490   2.826
51842W        W15786   8.363  34.110  14.402
51843W        W15787  27.494  27.577  10.946
51844W        W15788  10.159  33.457  13.376
51845W        W15789   2.910  37.905  12.089
51846W        W15790   4.834  12.166   3.235
51847W        W15791  29.119  20.047  11.035
51848W        W15792  16.626  13.821   0.931
51849W        W15793  30.432  25.114  13.943
51850W        W15794  20.089  25.055   2.729
51851W        W15795  28.512  41.399  11.450
51852W        W15796  32.987  42.503   0.415
51853W        W15797  37.456  15.264  11.428
51854W        W15798   8.661  14.751  12.090
51855W        W15799   8.781  39.336   2.309
51856W        W15800  21.055   3.414   2.779
51857W        W15801  44.325  28.480   4.263
51858W        W15802   7.334  39.870  10.929
51859W        W15803  17.293  15.800   0.774
51860W        W15804   8.659  11.287   4.674
51861W        W15805   7.187   7.259  13.466
51862W        W15806  30.027  20.264   4.831
51863W        W15807   8.393  39.969   2.271
51864W        W15808   3.217   2.844   2.741
51865W        W15809  15.150  40.548  14.471
51866W        W15810  30.465  29.495  13.307
51867W        W15811  10.663   0.951  11.914
51868W        W15812  35.496   3.798   4.684
51869W        W15813   8.274  11.663   1.218
51870W        W15814  32.939   1.362  13.023
51871W        W15815   8.226  36.460   4.339
51872W        W15816  22.727   4.240  10.985
51873W        W15817   6.342  27.557  10.465
51874W        W15818   1.242  36.961   3.819
51875W        W15819  43.819  30.145  10.512
51876W        W15820  10.692  11.347  13.896
51877W        W15821  30.500  28.598  10.942
51878W        W15822  26.162  42.970  14.762
51879W        W15823   0.471  30.539   4.698
51880W        W15824  32.418  24.568   0.840
51881W        W15825  25.093  18.232  13.028
51882W        W15826  39.981   6.706  11.526
51883W        W15827  44.866  25.095   0.479
51884W        W15828  15.205  19.258   4.241
51885W        W15829  30.503  40.521  12.431
51886W        W15830  26.477  12.163   0.319
51887W        W15831  14.780  12.767  11.884
51888W        W15832  29.585  17.118   0.452
51889W        W15833   3.287   4.784  13.427
51890W        W15834  42.444  24.978   2.214
51891W        W15835  40.918  32.452   4.735
51892W        W15836  24.638  17.593   4.732
51893W        W15837  10.641  11.253   1.739
51894W        W15838   1.856  37.554   1.242
51895W        W15839  38.486  32.072  11.582
51896W        W15840  27.955  16.720  12.480
51897W        W15841   9.261  38.358  13.947
51898W        W15842  36.488  16.264  13.526
51899W        W15843   5.845  42.964  13.407
51900W        W15844  30.947  10.157  12.033
51901W        W15845  37.460  31.944   4.241
51902W        W15846  40.472  22.654  14.400
51903W        W15847  27.448  29.110   0.733
51904W        W15848  29.968  37.922   2.750
51905W        W15849  38.866  19.233   3.832
51906W        W15850   7.318  33.425  13.030
51907W        W15851  32.614   7.195   2.340
51908W        W15852  19.765  13.250  11.877
51909W        W15853  19.153   5.706  14.027
51910W        W15854  31.988  30.966  12.054
51911W        W15855  15.124  11.371  14.406
51912W        W15856  36.548  22.569  13.834
51913W        W15857  14.609   9.833   4.143
51914W        W15858  42.407  35.441   1.242
51915W        W15859   1.451  33.890   2.393
51916W        W15860   1.913  32.087  12.974
51917W        W15861  23.692  14.613  13.486
51918W        W15862  27.146  16.638   1.389
51919W        W15863  38.822  34.407   0.379
51920W        W15864  36.975  20.575   1.315
51921W        W15865  33.070  14.610  14.433
51922W        W15866   9.650   0.861   0.360
51923W        W15867  17.623  12.277  14.296
51924W        W15868  19.285   7.178  12.022
51925W        W15869  28.129  38.515  12.531
51926W        W15870  44.446   1.879   2.215
51927W        W15871  16.099  32.051   4.823
51928W        W15872   5.712  20.556  10.457
51929W        W15873  20.713  11.794   4.173
51930W        W15874  33.554  43.808   2.376
51931W        W15875  43.334  43.887  13.490
51932W        W15876   1.345  21.716  14.411
51933W        W15877   7.250  29.631  10.969
51934W        W15878   7.727   6.863  13.798
51935W        W15879   9.157   7.414  12.528
51936W        W15880  31.053  20.689  12.964
51937W        W15881  31.434   6.406  10.571
51938W        W15882  38.983  37.493  14.312
51939W        W15883  39.511   7.715  10.468
51940W        W15884  31.641  20.604  10.523
51941W        W15885   3.339   8.713   1.445
51942W        W15886  40.332  34.561   4.262
51943W        W15887   5.893  43.400  11.857
51944W        W15888  12.676  43.305   1.411
51945W        W15889  39.987  43.438  11.877
51946W        W15890  28.938  27.557   0.918
51947W        W15891  16.217  10.865  12.495
51948W        W15892  18.693  33.550   4.131
51949W        W15893  42.452  30.478  11.980
51950W        W15894  14.644  26.964   0.817
51951W        W15895  34.402  38.537   3.359
51952W        W15896  32.419  36.916  10.597
51953W        W15897  15.617  38.528  13.310
51954W        W15898  11.712   4.801   0.383
51955W        W15899  40.445  33.107   0.470
51956W        W15900  15.633  39.021   1.863
51957W        W15901  14.802   0.377   3.374
51958W        W15902  24.054  14.694   2.882
51959W        W15903  27.628  12.203  14.441
51960W        W15904  30.928  31.076   2.892
51961W        W15905  38.869  12.791  14.464
51962W        W15906   2.379  28.610  11.044
51963W        W15907  41.523  44.815  11.601
51964W        W15908   6.800   5.827   0.261
51965W        W15909  19.753   1.273  13.541
51966W        W15910  40.355  22.115   4.201
51967W        W15911   7.220  34.583   0.856
51968W        W15912   1.878  22.619  12.995
51969W        W15913   2.790  14.736  11.920
51970W        W15914  13.227  36.571  11.500
51971W        W15915  39.976  13.256   4.788
51972W        W15916  27.546   4.938  11.863
51973W        W15917   8.879   5.839  14.363
51974W        W15918  12.126  40.964  14.300
51975W        W15919  34.477  20.108  12.970
51976W        W15920   7.194  33.571  11.502
51977W        W15921   4.338   4.714  11.046
51978W        W15922  35.358  28.583  12.472
51979W        W15923  33.079  38.446   2.823
51980W        W15924   2.921   7.779  12.988
51981W        W15925  44.913  39.342  14.483
51982W        W15926   2.803  11.185  11.434
51983W        W15927  21.740   7.371   4.799
51984W        W15928  24.111   1.813  12.919
51985W        W15929  18.212   4.882  10.626
51986W        W15930   1.836  16.582  10.446
51987W        W15931  20.154   2.779  11.897
51988W        W15932  17.154   2.755  12.835
51989W        W15933  34.560  35.089  11.440
51990W        W15934  24.629  26.621  14.979
51991W        W15935  24.047  11.649   3.347
51992W        W15936  24.679  13.164  10.481
51993W        W15937  11.294  18.788   3.184
51994W        W15938  30.576   0.856  12.850
51995W        W15939  41.855  15.220  14.398
51996W        W15940  13.350  31.081   1.290
51997W        W15941  12.686  42.464  11.982
51998W        W15942  28.662  37.032   2.373
51999W        W15943  39.936  12.733  12.980
52000W        W15944  40.398  25.686   0.351
52001W        W15945  39.362  18.109   0.405
52002W        W15946  23.566  32.004  13.311
52003W        W15947   3.306  44.267   3.657
52004W        W15948  42.343   4.855   4.752
52005W        W15949  16.699  27.070  11.903
52006W        W15950  37.849  29.615   1.809
52007W        W15951  29.940  39.436   2.900
52008W        W15952  26.156  33.939   3.672
52009W        W15953  24.571   1.399  11.563
52010W        W15954  21.573  28.047  12.465
52011W        W15955  40.887  20.536  14.831
52012W        W15956   9.253  14.099  14.814
52013W        W15957  36.918  34.005   1.738
52014W        W15958  33.005   4.264   1.703
52015W        W15959   5.894  37.421   3.634
52016W        W15960   2.816  22.118  11.425
52017W        W15961  32.081  37.042  14.793
52018W        W15962  16.084  22.230   3.300
52019W        W15963  13.315   3.263   0.324
52020W        W15964  32.982   6.241  11.535
52021W        W15965  38.493  39.517  10.465
52022W        W15966  34.906   2.431  13.996
52023W        W15967  11.759  30.024  10.523
52024W        W15968   7.703  27.005   4.148
52025W        W15969  43.819  41.971   2.320
52026W        W15970  28.633  30.024   4.292
52027W        W15971  15.590  37.422  11.951
52028W        W15972   7.237   2.305  11.493
52029W        W15973  44.397   2.752  13.313
52030W        W15974   3.433  11.659  14.971
52031W        W15975   6.772   1.909  10.412
52032W        W15976  37.856   3.433  13.870
52033W        W15977  39.351  12.736   2.285
52034W        W15978  39.456   1.377   1.371
52035W        W15979  13.247   2.817   0.837
52036W        W15980  25.017  17.271  14.918
52037W        W15981  23.496  27.010  12.549
52038W        W15982   0.330  40.382   2.831
52039W        W15983  36.938  43.392  12.914
52040W        W15984  40.521  19.656   2.781
52041W        W15985  31.477  13.789  11.376
52042W        W15986  34.491  37.353  14.967
52043W        W15987  25.045  23.496   4.233
52044W        W15988  36.422  44.945   1.828
52045W        W15989  16.200  23.150  12.405
52046W        W15990  43.883   5.373  13.947
52047W        W15991  41.982  30.434   3.789
52048W        W15992  24.689  22.504   1.327
52049W        W15993  38.356  43.440  10.964
52050W        W15994  32.533   9.204  14.320
52051W        W15995  26.541  23.634   3.689
52052W        W15996  13.262  38.496   3.661
52053W        W15997  35.362  42.359  12.367
52054W        W15998  23.556  43.488  13.419
52055W        W15999  31.588  30.503   2.372
52056W        W16000  24.048  41.318  12.411
52057W        W16001   0.858   9.282   1.781
52058W        W16002  27.630  43.796   1.335
52059W        W16003  35.393  35.443   3.314
52060W        W16004  41.454  17.732   0.890
52061W        W16005  44.274   8.892  12.514
52062W        W16006  42.914   3.864   2.746
52063W        W16007  42.384   1.250  11.436
52064W        W16008  33.995  10.684   4.828
52065W        W16009  16.780  23.505  14.792
52066W        W16010  33.408  36.870  11.390
52067W        W16011  36.072   0.941   3.194
52068W        W16012   9.306  17.140  10.508
52069W        W16013  31.503  39.550  12.882
52070W        W16014  24.194  28.038   1.736
52071W        W16015  43.999  26.189  11.044
52072W        W16016  17.086   5.433  11.525
52073W        W16017   9.334  42.797  11.509
52074W        W16018   6.328  22.230   0.422
52075W        W16019  20.179  17.206  13.960
52076W        W16020  28.164  19.198  14.799
52077W        W16021  12.229  40.456   4.151
52078W        W16022  12.852  11.144   0.828
52079W        W16023  23.508  10.810   0.468
52080W        W16024  26.073  14.603   1.244
52081W        W16025  38.951  16.176   4.674
52082W        W16026   0.965  39.014   2.328
52083W        W16027  15.139  17.186  12.506
52084W        W16028  26.193  26.147   1.298
52085W        W16029  21.576  17.122  11.391
52086W        W16030  29.925  15.197  14.871
52087W        W16031   6.216  36.562   0.290
52088W        W16032  14.234  31.535   4.618
52089W        W16033  12.183   8.335   4.794
52090W        W16034  23.592  38.897   2.687
52091W        W16035  25.056  17.644   4.248
52092W        W16036  30.463  21.566   2.229
52093W        W16037  13.774   9.357   0.323
52094W        W16038   4.211  42.031  14.382
52095W        W16039  33.067  41.952   1.855
52096W        W16040  44.776  21.023   4.651
52097W        W16041  22.026  20.562  14.910
52098W        W16042  12.267  19.045   4.269
52099W        W16043  15.184  22.166  11.408
52100W        W16044   8.200   7.357  11.885
52101W        W16045  24.083   5.802  10.911
52102W        W16046  27.604  36.923   4.141
52103W        W16047   3.897   2.459   0.407
52104W        W16048   2.919  21.585  14.815
52105W        W16049  19.208  27.502   2.756
52106W        W16050  31.411  28.654   3.280
52107W        W16051  12.638  43.484   2.699
52108W        W16052  14.131  17.802   0.340
52109W        W16053  41.855  20.191   2.268
52110W        W16054  24.567   9.667   2.885
52111W        W16055   3.394  17.169   4.317
52112W        W16056  32.602  30.950   0.297
52113W        W16057  42.793  43.936   4.685
52114W        W16058  25.166  11.771   0.329
52115W        W16059  27.086  42.489  14.292
52116W        W16060  18.274  37.516  12.963
52117W        W16061  27.093  23.655   1.871
52118W        W16062  22.522  40.343   2.264
52119W        W16063  22.045  27.460  14.949
52120W        W16064  30.492   1.368  14.480
52121W        W16065  22.238  25.198   2.190
52122W        W16066  29.639  33.074  11.419
52123W        W16067  11.233  33.443   1.801
52124W        W16068  39.535  42.342  14.942
52125W        W16069  39.963   1.747  10.593
52126W        W16070   9.257  12.830   4.731
52127W        W16071  33.062  37.472   2.836
52128W        W16072  42.350   5.705   0.289
52129W        W16073  13.282  12.614   3.649
52130W        W16074  24.687  29.922  14.974
52131W        W16075  35.435  38.496  11.393
52132W        W16076  30.629  30.596   4.817
52133W        W16077  33.934  10.181  14.882
52134W        W16078  11.801   7.186   2.730
52135W        W16079  17.211  31.896   1.934
52136W        W16080  44.437   1.355   3.174
52137W        W16081  32.067  43.385   3.641
52138W        W16082  21.552   6.847  11.391
52139W        W16083  26.647  39.825   1.901
52140W        W16084  34.936  25.144  14.759
52141W        W16085  27.666  22.070   3.662
52142W        W16086  21.596   3.739  14.013
52143W        W16087  42.394   0.744  10.420
52144W        W16088  26.163  40.936   3.763
52145W        W16089   1.810  37.918  12.346
52146W        W16090  11.320  44.326   4.752
52147W        W16091  13.654  14.154   2.375
52148W        W16092  23.576   4.893  13.960
52149W        W16093  12.159  24.978  14.810
52150W        W16094   3.738  16.212   2.898
52151W        W16095  27.142  16.082  10.482
52152W        W16096  19.101  37.534   2.384
52153W        W16097  40.849  38.058  12.030
52154W        W16098  31.988   2.278   2.271
52155W        W16099   1.918   4.757   3.338
52156W        W16100  11.747  10.237  10.119
52157W        W16101   4.828  18.699   2.233
52158W        W16102  42.782   6.315  11.113
52159W        W16103  10.177  19.121   2.293
52160W        W16104  30.070  18.723  10.565
52161W        W16105   3.763  21.633  13.825
52162W        W16106  25.966  26.524   1.712
52163W        W16107  10.702  28.021  14.851
52164W        W16108  22.154  36.455   2.411
52165W        W16109  24.660   2.842  11.089
52166W        W16110  38.940   8.324   1.751
52167W        W16111  44.276  18.681  12.494
52168W        W16112  19.257  30.977  13.047
52169W        W16113   2.778  31.993   4.648
52170W        W16114  13.629  29.585   2.278
52171W        W16115  43.352  33.054  13.008
52172W        W16116  40.397  24.540  13.474
52173W        W16117  42.301  33.554  14.448
52174W        W16118  22.026  30.488   2.289
52175W        W16119   5.709  15.145   4.682
52176W        W16120  25.160  34.899  13.000
52177W        W16121  15.655   4.443  12.462
52178W        W16122  34.966  13.603  12.000
52179W        W16123   5.381   4.380   1.887
52180W        W16124  31.013  14.188  10.542
52181W        W16125   4.205  20.651  13.362
52182W        W16126  14.255  35.578  14.889
52183W        W16127  43.478   8.883   1.330
52184W        W16128   8.234   1.255   0.806
52185W        W16129  20.526  13.764   1.729
52186W        W16130  14.662  13.635  13.886
52187W        W16131  41.314  12.788   3.378
52188W        W16132  36.842  12.251   2.835
52189W        W16133   9.657   5.793   4.319
52190W        W16134   8.326   6.866   1.213
52191W        W16135  19.109  34.096  13.428
52192W        W16136  36.557   2.862  10.971
52193W        W16137  16.111  44.287   2.778
52194W        W16138  24.225  41.517  11.940
52195W        W16139  38.826   2.384   0.372
52196W        W16140  32.094  27.171  13.920
52197W        W16141  41.900  16.224  12.046
52198W        W16142  27.016  44.777   3.320
52199W        W16143  28.649  33.131  10.612
52200W        W16144  12.240   1.408  14.396
52201W        W16145  27.135  27.071   0.771
52202W        W16146   7.873  21.244  12.483
52203W        W16147   0.247   7.859  13.045
52204W        W16148  13.140   8.820   3.670
52205W        W16149   1.272   5.754   2.786
52206W        W16150  27.004  20.221   4.257
52207W        W16151  33.449   6.351   1.845
52208W        W16152   4.900  37.041   0.453
52209W        W16153   0.483  38.060  12.476
52210W        W16154  15.616  33.561  14.298
52211W        W16155  11.861  21.104   3.370
52212W        W16156  31.491  33.884   0.814
52213W        W16157  14.742  14.132  14.281
52214W        W16158  39.023  14.775  10.590
52215W        W16159  37.535  34.117   1.716
52216W        W16160  34.944   5.804   1.356
52217W        W16161  28.667  21.583   1.353
52218W        W16162  44.400  42.017  12.365
52219W        W16163   8.716  35.484  11.127
52220W        W16164  32.019   9.257  11.118
52221W        W16165  33.399  18.214  14.838
52222W        W16166  35.926  21.668  10.620
52223W        W16167  25.665   9.188  11.015
52224W        W16168   6.685  22.204   2.265
52225W        W16169  37.932   7.322  12.535
52226W        W16170   9.669  28.160   4.153
52227W        W16171  10.670   1.927   3.727
52228W        W16172  13.609  37.910  11.985
52229W        W16173  32.969   7.177  11.061
52230W        W16174  38.893  39.990  12.082
52231W        W16175  31.988  37.975  13.348
52232W        W16176  40.885  39.917   0.447
52233W        W16177  27.136  27.115   3.290
52234W        W16178  17.088   7.698   4.280
52235W        W16179  28.447  43.271   3.328
52236W        W16180  13.632  40.444  14.011
52237W        W16181  34.455  20.159   0.767
52238W        W16182  42.368  40.393   3.153
52239W        W16183  16.715   7.207   0.423
52240W        W16184  27.998  36.949   1.745
52241W        W16185  25.709  25.082  13.016
52242W        W16186  13.268  14.114  12.074
52243W        W16187   2.834  34.078   0.438
52244W        W16188  41.904  17.254  12.539
52245W        W16189  22.013  44.866   4.209
52246W        W16190  14.240   6.683   0.960
52247W        W16191  22.026  13.762  11.038
52248W        W16192  29.465   3.798   3.239
52249W        W16193   6.330   9.643  12.016
52250W        W16194  35.911   4.237   2.840
52251W        W16195   4.855  30.614  11.582
52252W        W16196  20.598  18.059  14.323
52253W        W16197  40.968   4.257   1.290
52254W        W16198  30.640  11.709   0.814
52255W        W16199  29.644   6.723   1.322
52256W        W16200  19.667  24.669  12.990
52257W        W16201  32.105  11.206  11.093
52258W        W16202  37.052  13.817   2.338
52259W        W16203  27.114  14.811  12.555
52260W        W16204  43.003  42.415   4.270
52261W        W16205  18.177  41.848   1.303
52262W        W16206  44.843  16.777   2.688
52263W        W16207  23.536  36.098  12.957
52264W        W16208  20.610   3.725  11.112
52265W        W16209  21.667   9.700  11.973
52266W        W16210   7.367   1.789  14.499
52267W        W16211  27.136  15.321  12.453
52268W        W16212  12.768  19.194   0.292
52269W        W16213  27.611  33.490  12.955
52270W        W16214  37.451   7.295   4.642
52271W        W16215  37.993  42.284   3.239
52272W        W16216   2.842   6.311  14.297
52273W        W16217  28.074  15.665  14.904
52274W        W16218   1.388   2.939   0.851
52275W        W16219  18.703   5.295   4.211
52276W        W16220  27.148   0.974  14.980
52277W        W16221  35.512  24.007   1.301
52278W        W16222   3.227  12.272   1.355
52279W        W16223   6.700  22.620  14.313
52280W        W16224  13.622  34.509  10.585
52281W        W16225   9.889  26.020   1.697
52282W        W16226   8.377   7.783   3.677
52283W        W16227  40.955  21.136  10.406
52284W        W16228  21.652   3.773  14.413
52285W        W16229  42.818  41.898  14.905
52286W        W16230  17.574  30.933   0.914
52287W        W16231  23.039  42.492  13.979
52288W        W16232  32.912  32.107   1.849
52289W        W16233   2.868  17.087  14.488
52290W        W16234  23.090  33.454  11.542
52291W        W16235  10.276  33.946  11.028
52292W        W16236  29.119   9.823  12.360
52293W        W16237  15.296  43.440   1.341
52294W        W16238  35.371  33.019  11.492
52295W        W16239   9.385  11.765  12.953
52296W        W16240   8.893  37.003   1.704
52297W        W16241  25.051  28.158  10.624
52298W        W16242  19.228  18.550   2.732
52299W        W16243  10.349   8.707   3.790
52300W        W16244  19.636  37.008   0.931
52301W        W16245  22.727  39.343  12.081
52302W        W16246  35.926   6.716  11.380
52303W        W16247  44.941  37.451   0.751
52304W        W16248  15.696  17.256   1.396
52305W        W16249  30.056  20.636  13.888
52306W        W16250  19.224  14.207  14.939
52307W        W16251  13.834  14.758  13.813
52308W        W16252  24.623  33.515  12.454
52309W        W16253  39.043  28.120  13.490
52310W        W16254  41.481  28.677   3.286
52311W        W16255  28.438   1.810   2.793
52312W        W16256  33.918  15.292   1.231
52313W        W16257  42.805   6.917  11.571
52314W        W16258  23.185  38.012  12.424
52315W        W16259  26.979  21.077  10.940
52316W        W16260  11.846  29.103  13.349
52317W        W16261   0.875  30.068   4.294
52318W        W16262  43.296  40.468  12.997
52319W        W16263   2.928  23.139  11.382
52320W        W16264  18.569  37.908   2.674
52321W        W16265   6.354  26.595  11.490
52322W        W16266  16.094  10.256  14.416
52323W        W16267  10.143  21.217  12.516
52324W        W16268  29.994  12.764  11.973
52325W        W16269  28.644  19.634  13.338
52326W        W16270  25.065   6.699  12.579
52327W        W16271  42.370   1.747   1.832
52328W        W16272  17.579  40.410   3.797
52329W        W16273  44.298   9.831   2.385
52330W        W16274   6.230  18.061  10.602
52331W        W16275  11.204  18.078  10.562
52332W        W16276  26.980  17.094  13.314
52333W        W16277   7.400  28.524   0.377
52334W        W16278  22.718   5.911  11.036
52335W        W16279   0.434  29.576   4.180
52336W        W16280  21.238  33.618  12.977
52337W        W16281  29.078   7.820  14.003
52338W        W16282  30.462  34.464  11.971
52339W        W16283  41.828  34.102   0.452
52340W        W16284   8.271  34.606   2.416
52341W        W16285  12.274  19.736  11.881
52342W        W16286   7.335  14.732  10.915
52343W        W16287  12.305  19.108  13.803
52344W        W16288  37.368  38.920  13.326
52345W        W16289   5.696  13.344   4.233
52346W        W16290  40.462  14.282   2.306
52347W        W16291   6.372  26.679  12.935
52348W        W16292  19.758  19.644  11.476
52349W        W16293  19.146  12.854  10.470
52350W        W16294  31.046  37.852   3.243
52351W        W16295  35.588   0.329   1.719
52352W        W16296  38.451  35.524  11.601
52353W        W16297  21.745  40.873   1.249
52354W        W16298   1.388   0.818  14.494
52355W        W16299  43.439   6.315  12.533
52356W        W16300   5.735   6.407  14.866
52357W        W16301  33.463  15.673  13.967
52358W        W16302   1.394  35.953  13.350
52359W        W16303   4.901  33.603  12.482
52360W        W16304  25.695   3.421  13.423
52361W        W16305  18.228  28.943   0.757
52362W        W16306   9.852  21.230   0.332
52363W        W16307  22.142  24.507  11.601
52364W        W16308  28.658  12.826  14.476
52365W        W16309  30.455  35.004  12.823
52366W        W16310  21.137  23.119   2.362
52367W        W16311  34.892  29.964  11.953
52368W        W16312   9.774  24.199  11.612
52369W        W16313  43.401  23.042   0.302
52370W        W16314  10.160   1.939   4.291
52371W        W16315  28.439  30.028   0.423
52372W        W16316  34.527   0.475   2.285
52373W        W16317   0.367  26.509   3.227
52374W        W16318  10.260  22.717   2.866
52375W        W16319  27.054  28.186  14.861
52376W        W16320  30.138  43.011   1.786
52377W        W16321   1.326  34.029   1.359
52378W        W16322  25.587  33.016   4.681
52379W        W16323   9.724  38.388   1.791
52380W        W16324  40.928  32.415  10.542
52381W        W16325  29.504   2.321   4.150
52382W        W16326   1.750  42.505   2.304
52383W        W16327  13.334  44.887  13.850
52384W        W16328  14.834  35.395  11.553
52385W        W16329  19.601   6.752   3.658
52386W        W16330  33.612  43.354   3.771
52387W        W16331  22.656  11.729  13.910
52388W        W16332  24.178  31.076   1.428
52389W        W16333  37.400  19.204  12.349
52390W        W16334  15.223  36.860  14.477
52391W        W16335  15.324  38.955  14.394
52392W        W16336  16.583  31.029  12.893
52393W        W16337  39.462  28.941  14.373
52394W        W16338   1.798  28.617  12.408
52395W        W16339   6.826  20.584   0.875
52396W        W16340   6.380  41.797   0.965
52397W        W16341  43.377  44.317  14.461
52398W        W16342  41.527   3.795  14.472
52399W        W16343  38.012  30.490  12.372
52400W        W16344  12.250  38.435  11.098
52401W        W16345  29.485  14.670  12.436
52402W        W16346  26.576  26.065  13.516
52403W        W16347  17.204   1.256  13.494
52404W        W16348  20.189  41.947  11.993
52405W        W16349  36.911  19.242   2.881
52406W        W16350  14.604  43.357  14.837
52407W        W16351  40.008  32.536   4.636
52408W        W16352   6.337  10.284  11.453
52409W        W16353  41.909  19.545  10.053
52410W        W16354   6.284  24.183  14.308
52411W        W16355  33.058  15.578   4.150
52412W        W16356  43.455  28.442   3.354
52413W        W16357  39.544  17.700  14.922
52414W        W16358   4.866  21.531  13.378
52415W        W16359   0.453  40.830  12.369
52416W        W16360  20.239  18.638  11.930
52417W        W16361   0.957  21.097   4.619
52418W        W16362  17.213  43.866  12.448
52419W        W16363  16.299  37.939   0.789
52420W        W16364  44.347  27.178   1.227
52421W        W16365  38.947   2.406  14.888
52422W        W16366  13.784  43.989   2.846
52423W        W16367  36.473  29.578   1.697
52424W        W16368  38.432  35.562  11.016
52425W        W16369   9.291  32.890   4.796
52426W        W16370  16.644  34.895  13.424
52427W        W16371  43.968  11.756  11.966
52428W        W16372  26.954   9.648   2.846
52429W        W16373   8.690  44.957  14.951
52430W        W16374  17.660  16.173  12.945
52431W        W16375  27.523  13.844  14.874
52432W        W16376  33.033   8.730  10.574
52433W        W16377   1.297  14.124  12.521
52434W        W16378  29.062   3.310  14.341
52435W        W16379  37.476  12.746   2.853
52436W        W16380   9.687   8.337   3.163
52437W        W16381  24.060  15.090   3.260
52438W        W16382  33.002   2.333   2.873
52439W        W16383   5.371  34.085  12.968
52440W        W16384  21.164  17.566   5.101
52441W        W16385  30.143  16.810   3.712
52442W        W16386   3.351  39.933   4.284
52443W        W16387  13.613  34.011  10.099
52444W        W16388  34.979   2.920  13.821
52445W        W16389  44.808  40.050   0.265
52446W        W16390  27.102  14.144   2.779
52447W        W16391  31.643  26.503   1.254
52448W        W16392  40.439   5.333  12.834
52449W        W16393  43.504  38.924   2.214
52450W        W16394  27.173   3.295  13.963
52451W        W16395  30.129  16.705  13.407
52452W        W16396  10.258  35.981   3.300
52453W        W16397  16.649  42.815  13.324
52454W        W16398   3.926  21.222  11.025
52455W        W16399  25.129   1.472  12.497
52456W        W16400  40.444   1.457   0.362
52457W        W16401   3.841  16.248   2.322
52458W        W16402   8.214   3.811   0.791
52459W        W16403  35.895   0.358   4.752
52460W        W16404  43.300  44.866   2.239
52461W        W16405  20.732  13.820  13.947
52462W        W16406   7.193  27.529  13.363
52463W        W16407   4.281  24.147  11.530
52464W        W16408  38.886  12.246  11.942
52465W        W16409  31.995  12.272   0.821
52466W        W16410  38.492  36.969   3.829
52467W        W16411  37.377  26.194   0.940
52468W        W16412   1.272   4.204   2.207
52469W        W16413  24.483  23.634   1.216
52470W        W16414  42.973  28.101   3.752
52471W        W16415  29.463  15.799   3.765
52472W        W16416  32.122  12.247  13.830
52473W        W16417  31.073   4.778  12.491
52474W        W16418  41.839  43.461   2.744
52475W        W16419  18.676  24.001  11.974
52476W        W16420  14.175  25.706  12.083
52477W        W16421   7.183  44.383   3.297
52478W        W16422  10.169  43.503  10.530
52479W        W16423  12.750  36.073  11.448
52480W        W16424  26.576   8.330   4.304
52481W        W16425   9.845  18.085  10.980
52482W        W16426  28.648  22.190  12.416
52483W        W16427  30.588  21.675  11.011
52484W        W16428  42.823  38.008   3.753
52485W        W16429  33.943  15.777  10.588
52486W        W16430  14.180  15.686  12.372
52487W        W16431   6.216  17.148  14.839
52488W        W16432   4.392  35.402  12.526
52489W        W16433  39.519  43.007   3.233
52490W        W16434   9.369  26.508  12.439
52491W        W16435  20.526   8.658  11.554
52492W        W16436  44.454  21.744  10.110
52493W        W16437  33.901  39.533   4.120
52494W        W16438  32.542  32.889  13.849
52495W        W16439  27.657  30.087  11.030
52496W        W16440  41.792   2.407   4.610
52497W        W16441  14.790  43.294   3.188
52498W        W16442  16.656  21.658  14.280
52499W        W16443   9.654  43.286  13.836
52500W        W16444   8.240   8.858   4.801
52501W        W16445  31.092  34.088  10.404
52502W        W16446  39.050  44.891   4.150
52503W        W16447  28.130  25.636  12.392
52504W        W16448   8.888   5.753  10.472
52505W        W16449  39.491  25.133  14.873
52506W        W16450  32.953  44.404   4.654
52507W        W16451  16.622  19.202   1.869
52508W        W16452   5.336  38.566  13.911
52509W        W16453  25.594  19.261   2.179
52510W        W16454  41.536  16.140   4.781
52511W        W16455  14.721  38.943   3.705
52512W        W16456  27.534  13.125   2.385
52513W        W16457  40.897  37.901   1.227
52514W        W16458  35.089   5.428  14.879
52515W        W16459   5.373  41.992   0.342
52516W        W16460  16.635  35.364   4.282
52517W        W16461   2.355  35.538   3.201
52518W        W16462   3.450  12.852  11.053
52519W        W16463  31.625  15.658   1.280
52520W        W16464  13.700  23.727  14.886
52521W        W16465  29.619   4.886  12.060
52522W        W16466  38.992  25.195   3.758
52523W        W16467  42.952   2.463  11.395
52524W        W16468   5.881  36.097  14.903
52525W        W16469  41.320   7.780   2.290
52526W        W16470  40.341  12.707  12.895
52527W        W16471  30.588  40.051   0.327
52528W        W16472   0.943   1.448  13.484
52529W        W16473  21.714  17.649   3.228
52530W        W16474  31.624  39.034   1.871
52531W        W16475   9.792  44.483  11.532
52532W        W16476  36.403   2.247   1.831
52533W        W16477  12.228  44.832  11.502
52534W        W16478  39.831  20.688   1.346
52535W        W16479  20.216  43.774   1.769
52536W        W16480  17.766  12.193   4.723
52537W        W16481   6.857  43.961  14.012
52538W        W16482  39.953  36.572   3.775
52539W        W16483  15.755  15.730   0.293
52540W        W16484  31.522   8.788   3.259
52541W        W16485   8.690  27.970  12.525
52542W        W16486  12.842  18.133  10.409
52543W        W16487  10.857  26.000  12.940
52544W        W16488   7.317  17.642   1.272
52545W        W16489   9.253  22.224   1.287
52546W        W16490  28.004   6.689  11.992
52547W        W16491  14.156  35.393  11.897
52548W        W16492  26.640  21.236   1.419
52549W        W16493  44.413  41.399  10.641
52550W        W16494   2.825  11.727   0.877
52551W        W16495   8.298   9.370  13.527
52552W        W16496   0.838   3.447  12.996
52553W        W16497   5.857  15.661   1.312
52554W        W16498  30.090  31.103  14.514
52555W        W16499  19.683   3.297  14.328
52556W        W16500   8.754  30.565  10.506
52557W        W16501  39.546  22.535   3.737
52558W        W16502  31.921  26.998   2.292
52559W        W16503  33.564  26.961  12.549
52560W        W16504  25.544  15.763  12.053
52561W        W16505  18.250  41.305  12.422
52562W        W16506   3.387  35.440  11.117
52563W        W16507  24.717   8.164  14.492
52564W        W16508  35.925  16.625   4.267
52565W        W16509  28.593   3.865  11.423
52566W        W16510  38.482  44.397   4.658
52567W        W16511   8.720  12.214   3.816
52568W        W16512  32.918  16.284   1.260
52569W        W16513  21.711  35.410  11.062
52570W        W16514  36.408  23.520  14.955
52571W        W16515  12.668  23.993  12.977
52572W        W16516  26.594  40.418  13.486
52573W        W16517  19.536  26.526  11.085
52574W        W16518  16.653  34.888  11.896
52575W        W16519  42.374  17.707   2.274
52576W        W16520  22.667   4.290  12.341
52577W        W16521  36.415  24.202  13.536
52578W        W16522  41.506  44.984  13.528
52579W        W16523  16.726  11.247   1.272
52580W        W16524   1.320   0.913  14.010
52581W        W16525  40.453  28.144   3.280
52582W        W16526   9.241   2.243  10.512
52583W        W16527   8.189  25.604   4.635
52584W        W16528  24.677  13.615  14.855
52585W        W16529  17.246  16.318   4.666
52586W        W16530  17.086  26.997   3.673
52587W        W16531  43.770  23.189  12.910
52588W        W16532   3.303  16.317  12.095
52589W        W16533   6.299  37.899  11.504
52590W        W16534  12.283  36.930  14.516
52591W        W16535   6.780   5.738   4.719
52592W        W16536   7.336  40.412  13.364
52593W        W16537  30.087   4.709  14.435
52594W        W16538  10.322  11.201   2.238
52595W        W16539  41.795  39.342   4.348
52596W        W16540  27.587  38.042  14.774
52597W        W16541  38.525   8.346  14.330
52598W        W16542  17.721  22.011   5.626
52599W        W16543  33.483   6.423  12.425
52600W        W16544  13.305  22.189   1.446
52601W        W16545  27.541  34.974   1.930
52602W        W16546  39.960   7.680   1.930
52603W        W16547  33.920  25.983  12.580
52604W        W16548  10.654  24.703  10.425
52605W        W16549  24.100  34.514   1.409
52606W        W16550  31.402  18.720   3.829
52607W        W16551  38.878  23.695  12.005
52608W        W16552  34.092  12.646  10.947
52609W        W16553   1.896  25.073   0.916
52610W        W16554   0.798  39.017  14.355
52611W        W16555  34.044  37.511   5.127
52612W        W16556   2.862   6.780  11.025
52613W        W16557  42.959  25.962  12.867
52614W        W16558   8.320  12.643   2.767
52615W        W16559  43.958  37.577  12.005
52616W        W16560  18.159  26.027   4.268
52617W        W16561  11.675  42.384   0.921
52618W        W16562  12.344  21.675   4.261
52619W        W16563  13.663   8.241   2.401
52620W        W16564   9.201  31.128  13.905
52621W        W16565   9.388  36.032   1.747
52622W        W16566  21.526  21.539  10.422
52623W        W16567  18.632   9.718   0.252
52624W        W16568   7.340  30.602  11.917
52625W        W16569  23.659   3.260   2.329
52626W        W16570  35.967  24.201   0.770
52627W        W16571  44.913   8.677   5.305
52628W        W16572  37.366  24.668  11.595
52629W        W16573   2.318  39.895   4.741
52630W        W16574  26.522   2.253  10.404
52631W        W16575   3.922   4.419  13.377
52632W        W16576  19.657   6.299  10.540
52633W        W16577   5.382  15.268  14.833
52634W        W16578  28.484  21.047  12.092
52635W        W16579  26.028   8.356  13.831
52636W        W16580  27.669   6.372  13.817
52637W        W16581   0.814  31.115   2.894
52638W        W16582  30.633  38.042  13.047
52639W        W16583  17.129   9.289   0.353
52640W        W16584  32.448   0.393  14.987
52641W        W16585  22.202   5.286   2.678
52642W        W16586  43.956  38.451  11.542
52643W        W16587  43.790  23.540   0.783
52644W        W16588  25.713   5.896  13.866
52645W        W16589  43.283   5.393   0.800
52646W        W16590  11.264  26.671   1.792
52647W        W16591  15.654   6.894  14.478
52648W        W16592  44.380  25.202   3.292
52649W        W16593  30.949  43.817   3.797
52650W        W16594  28.447   6.223  12.901
52651W        W16595  15.698  38.505   2.178
52652W        W16596  14.763  18.777   0.908
52653W        W16597   2.909  22.200   4.287
52654W        W16598  26.617  38.873  12.041
52655W        W16599  22.036  22.639   0.359
52656W        W16600  35.510  42.465  13.813
52657W        W16601  27.481  14.274  13.030
52658W        W16602  12.234  34.510  10.430
52659W        W16603  31.558  30.471   0.828
52660W        W16604  20.533  41.982   2.881
52661W        W16605  40.337  40.820   3.811
52662W        W16606   6.373  34.883  12.471
52663W        W16607   8.876  40.923  12.555
52664W        W16608  17.278  13.351  12.037
52665W        W16609  18.089  25.553   4.650
52666W        W16610  19.692  24.543   4.233
52667W        W16611  25.167  12.647   3.262
52668W        W16612  27.949  37.083  12.377
52669W        W16613   0.359  25.148  14.436
52670W        W16614  31.915  14.265  13.447
52671W        W16615  16.240  12.271  10.978
52672W        W16616  11.681  27.669   5.262
52673W        W16617  23.109  23.656   0.910
52674W        W16618  26.576  34.035   1.785
52675W        W16619  22.732  23.081  12.425
52676W        W16620  16.093  44.819   3.651
52677W        W16621  35.983  33.028   2.867
52678W        W16622  18.227  39.884   2.722
52679W        W16623  11.639  42.965  10.423
52680W        W16624  21.192  13.652   4.240
52681W        W16625  36.563  13.668   0.420
52682W        W16626  40.010  20.122   2.758
52683W        W16627  13.227  17.661  13.912
52684W        W16628  26.125  28.480  12.926
52685W        W16629  25.476  44.881  11.413
52686W        W16630  16.260  22.609  12.914
52687W        W16631  22.588  30.576  13.004
52688W        W16632  22.560   1.477   2.327
52689W        W16633  39.419  18.785  13.529
52690W        W16634   7.746  12.836  10.643
52691W        W16635  40.838  27.600  13.041
52692W        W16636  25.497  29.569  14.831
52693W        W16637  13.258  29.616   3.313
52694W        W16638   9.775  32.399  14.475
52695W        W16639  22.626  32.393   2.829
52696W        W16640  26.530  38.554  13.386
52697W        W16641  10.263  15.237   4.754
52698W        W16642  20.116  10.144  14.449
52699W        W16643  15.797  33.041   0.369
52700W        W16644  11.651  22.744  10.996
52701W        W16645  32.922  42.500   0.947
52702W        W16646  43.861  27.487  10.528
52703W        W16647  33.399   4.872  12.417
52704W        W16648  14.714  14.313   0.908
52705W        W16649  38.459  20.672  14.457
52706W        W16650   9.378  32.508   3.347
52707W        W16651   6.788   1.830   4.821
52708W        W16652  38.364  38.417   4.127
52709W        W16653   8.253   8.298  11.865
52710W        W16654  20.232  40.421  14.456
52711W        W16655  24.058  20.199   4.705
52712W        W16656  21.251   0.824  13.896
52713W        W16657   1.895  38.470   2.229
52714W        W16658  38.527  32.037  12.505
52715W        W16659   3.811  36.429   1.298
52716W        W16660  25.677   7.822  13.944
52717W        W16661  28.950  15.669  12.897
52718W        W16662  12.715  29.622   0.880
52719W        W16663   0.957  39.990  10.593
52720W        W16664  37.910   6.816  12.870
52721W        W16665  36.356  43.462   0.819
52722W        W16666  34.918  30.512   0.832
52723W        W16667  31.565  12.256  10.581
52724W        W16668  16.725  35.359  10.644
52725W        W16669  10.359   2.275   3.323
52726W        W16670   8.660  31.616  11.496
52727W        W16671  29.501  11.819   2.895
52728W        W16672  31.957  37.940  14.015
52729W        W16673  37.071  33.123  13.815
52730W        W16674  10.815  11.791   4.190
52731W        W16675  11.155  32.975  12.002
52732W        W16676  21.640  12.777  14.484
52733W        W16677  22.536   9.173  11.612
52734W        W16678  20.160  24.578   3.266
52735W        W16679   2.285  43.995  14.986
52736W        W16680  22.554  38.500   4.230
52737W        W16681   8.163  22.248   2.875
52738W        W16682  10.319  35.563   2.182
52739W        W16683  10.321  40.009   1.875
52740W        W16684   1.421  22.519  14.486
52741W        W16685  18.208   5.283   0.865
52742W        W16686  27.571  38.488   5.786
52743W        W16687  14.734  24.097  11.113
52744W        W16688  41.956  25.527   3.200
52745W        W16689  15.142  36.456  10.468
52746W        W16690  10.770  37.044  11.914
52747W        W16691  11.300  28.528   2.384
52748W        W16692   4.874   1.268  10.584
52749W        W16693  19.680  12.276  11.863
52750W        W16694  34.452  30.155  14.314
52751W        W16695  31.554  32.067   3.207
52752W        W16696  16.153   2.844   0.435
52753W        W16697  33.605  40.343  11.416
52754W        W16698  15.095  19.570  12.958
52755W        W16699  15.638  19.558  11.869
52756W        W16700  17.713   1.751   2.680
52757W        W16701  22.673   2.380   3.237
52758W        W16702  43.270   2.860   4.777
52759W        W16703  28.557  21.082  13.838
52760W        W16704   3.787  25.556   1.922
52761W        W16705  22.175  25.545   3.801
52762W        W16706   4.873  41.965  12.412
52763W        W16707  35.995  14.241  14.833
52764W        W16708  14.612   9.286  13.318
52765W        W16709  38.339  31.529   4.354
52766W        W16710  41.032  18.171  11.118
52767W        W16711   9.789  32.991   3.637
52768W        W16712  19.761  13.348  12.509
52769W        W16713  32.018   8.693   4.646
52770W        W16714  10.694   1.405   2.223
52771W        W16715  22.594  11.197   1.278
52772W        W16716  42.904   7.855   4.609
52773W        W16717  21.047  19.689   9.986
52774W        W16718  42.355  32.107  11.519
52775W        W16719  40.448  13.827   2.416
52776W        W16720  14.126   7.376   2.686
52777W        W16721  42.796  21.718   4.199
52778W        W16722  19.124  16.735  13.039
52779W        W16723   2.353  26.623  11.477
52780W        W16724   4.443  35.028  13.924
52781W        W16725  17.114  38.004   2.208
52782W        W16726  40.822  43.454  12.843
52783W        W16727  38.330  42.886   1.349
52784W        W16728  40.345  42.287  13.953
52785W        W16729  27.512  39.509   2.845
52786W        W16730  16.234  33.941  10.936
52787W        W16731  18.646   7.832  12.530
52788W        W16732  29.425   5.821  11.449
52789W        W16733  26.583  26.598  14.772
52790W        W16734  41.979  23.006   4.265
52791W        W16735  23.690  24.673   3.649
52792W        W16736  13.717  40.522  12.914
52793W        W16737   7.785  42.831  13.419
52794W        W16738  38.436   3.303   3.307
52795W        W16739  38.351  39.878   3.669
52796W        W16740  21.063  38.534  12.934
52797W        W16741  32.592  25.505  14.842
52798W        W16742   7.277   9.169  14.792
52799W        W16743  27.961   0.352   1.416
52800W        W16744  30.602  44.482  12.537
52801W        W16745  43.775  24.189  12.441
52802W        W16746  23.021  38.974   4.606
52803W        W16747  27.110  34.000  13.010
52804W        W16748  29.542  27.966   3.279
52805W        W16749  26.656  32.002   3.192
52806W        W16750  42.305  24.584  11.070
52807W        W16751  10.747  12.265  12.041
52808W        W16752  39.435  19.165   0.414
52809W        W16753  20.229  44.435   3.703
52810W        W16754   8.657  31.067  11.979
52811W        W16755  12.722  24.595  13.994
52812W        W16756  36.899   2.913   3.195
52813W        W16757  27.518  40.525  14.992
52814W        W16758   0.395  36.505   0.754
52815W        W16759  39.928  25.530  14.934
52816W        W16760  39.425  35.373  10.898
52817W        W16761  28.082  36.045  11.979
52818W        W16762  25.969   9.353  13.016
52819W        W16763  31.947  32.419   1.705
52820W        W16764  33.523  29.004   2.211
52821W        W16765  33.622   9.702  14.799
52822W        W16766  28.578   8.776  13.925
52823W        W16767  17.233  35.417  10.530
52824W        W16768  43.962  43.777   1.241
52825W        W16769  39.364  41.530   0.312
52826W        W16770  10.292   8.204  11.447
52827W        W16771  24.687   2.944   4.807
52828W        W16772  12.249   7.409   0.366
52829W        W16773  17.065  41.832  12.469
52830W        W16774  20.169  17.801   3.308
52831W        W16775  28.093  11.373  14.466
52832W        W16776  33.478  15.281   4.732
52833W        W16777  44.302  14.792   4.280
52834W        W16778  13.744  41.967   0.739
52835W        W16779  41.871   8.751  12.996
52836W        W16780   5.926  32.004  13.525
52837W        W16781  41.346  37.069  13.869
52838W        W16782   7.374  16.608  14.851
52839W        W16783  36.581  23.576  14.405
52840W        W16784  20.714  40.540  12.364
52841W        W16785  42.352  18.179  14.476
52842W        W16786  44.352   4.248   1.883
52843W        W16787  10.875  16.582   0.945
52844W        W16788  39.412  16.187   1.257
52845W        W16789   6.197  22.629  12.992
52846W        W16790  19.102  27.593   4.837
52847W        W16791  37.496  16.576   0.381
52848W        W16792  29.922  42.407   3.705
52849W        W16793  10.349  39.022   4.666
52850W        W16794  30.595  17.737   1.247
52851W        W16795  17.282  34.469  14.303
52852W        W16796  15.267   7.261   4.301
52853W        W16797  37.985  16.753  14.833
52854W        W16798  21.682   9.312   0.375
52855W        W16799  23.549  33.456   3.325
52856W        W16800  35.932  13.660   2.387
52857W        W16801  25.484   0.428  12.914
52858W        W16802   6.688   3.304  12.570
52859W        W16803  37.836  10.739  13.450
52860W        W16804  32.120   4.872   5.123
52861W        W16805  32.132   5.295  14.938
52862W        W16806  22.027  19.659   0.341
52863W        W16807   7.796  12.138  13.946
52864W        W16808  36.396  37.562   0.434
52865W        W16809  25.125  35.490  10.447
52866W        W16810  41.530  22.520  13.961
52867W        W16811  37.049   1.467  14.844
52868W        W16812  31.542  34.532   1.888
52869W        W16813   5.707   8.190  11.922
52870W        W16814  20.579  22.530   4.599
52871W        W16815  44.838   4.287   0.810
52872W        W16816  22.624   5.203   3.369
52873W        W16817  28.534  25.513  10.534
52874W        W16818  11.755   9.705   1.712
52875W        W16819  30.659  14.143   1.413
52876W        W16820   7.365  44.330   0.782
52877W        W16821  12.805  36.050   2.401
52878W        W16822  14.717  27.497   0.818
52879W        W16823  27.982  24.126  12.839
52880W        W16824  18.576   4.809  10.444
52881W        W16825  28.988  32.426   3.849
52882W        W16826  37.373  21.565  11.575
52883W        W16827  41.996   2.236  11.039
52884W        W16828  29.570  31.545  12.940
52885W        W16829   3.794   2.808   0.952
52886W        W16830   4.433   7.246   4.174
52887W        W16831   2.913  24.494   1.783
52888W        W16832  25.571  43.455  13.005
52889W        W16833  10.840  34.509  12.011
52890W        W16834   6.381  39.035   1.778
52891W        W16835   3.415  33.942  13.858
52892W        W16836   3.371  36.057  14.013
52893W        W16837   5.239  35.399  11.981
52894W        W16838  32.414  18.595   2.417
52895W        W16839   7.370  10.141  14.924
52896W        W16840  26.672  12.190   3.735
52897W        W16841  19.752  36.979   1.710
52898W        W16842  14.226   7.672   4.672
52899W        W16843   3.872   1.287  13.994
52900W        W16844  26.664  41.822  14.912
52901W        W16845  36.920  11.705  14.327
52902W        W16846   2.382  25.489   0.283
52903W        W16847  31.532  39.503  13.365
52904W        W16848  28.579  33.540  13.859
52905W        W16849  21.022  35.485   0.303
52906W        W16850  44.936  34.949  12.393
52907W        W16851  31.577  15.644  14.960
52908W        W16852  41.458  20.166  14.948
52909W        W16853  35.052  39.427   1.802
52910W        W16854  42.491  42.787  11.115
52911W        W16855   5.690  31.944   3.283
52912W        W16856  33.420   0.766   0.379
52913W        W16857  11.683   6.857  13.415
52914W        W16858  43.379   8.859   4.148
52915W        W16859  14.282  41.966   5.170
52916W        W16860  31.121   6.407  12.571
52917W        W16861   2.865  31.464  13.030
52918W        W16862  25.182  34.369   1.385
52919W        W16863  10.802  38.050  12.554
52920W        W16864   6.418  40.887  12.911
52921W        W16865   7.184  18.140   4.328
52922W        W16866  30.040  29.536  14.953
52923W        W16867  31.030  15.630   5.303
52924W        W16868  30.474  37.959  11.602
52925W        W16869   8.196  21.527   1.818
52926W        W16870  15.808  22.552  13.904
52927W        W16871  35.962  35.379  10.434
52928W        W16872   5.407  37.084  10.442
52929W        W16873  23.697  26.590   1.847
52930W        W16874  24.003  23.712   4.695
52931W        W16875  25.165  10.221   5.201
52932W        W16876  29.108  37.075   3.150
52933W        W16877  30.003  43.769  14.916
52934W        W16878   9.772  24.192   4.614
52935W        W16879  26.596   3.910   3.227
52936W        W16880  23.016  32.489   3.258
52937W        W16881   5.197  29.536   1.865
52938W        W16882  26.023  16.171  10.572
52939W        W16883   0.426   0.988  11.906
52940W        W16884   7.907  24.584  12.981
52941W        W16885  44.914  23.619   1.250
52942W        W16886  36.415  11.176   2.310
52943W        W16887  37.957  17.638  10.626
52944W        W16888  30.568  24.606  10.596
52945W        W16889   8.839   1.451  11.444
52946W        W16890   8.677  28.606   0.337
52947W        W16891   0.325   9.351  11.438
52948W        W16892  24.631  12.122   4.827
52949W        W16893  19.285   9.714   1.380
52950W        W16894   1.928  42.956  14.024
52951W        W16895  29.502  43.473  12.848
52952W        W16896  28.995   3.925   1.856
52953W        W16897   2.362  41.841  14.369
52954W        W16898  10.639  25.693  13.859
52955W        W16899  40.493  40.994  10.953
52956W        W16900   6.687  44.480   1.424
52957W        W16901  14.222  44.319   2.240
52958W        W16902  14.163  14.721  10.999
52959W        W16903   1.348  17.770  13.344
52960W        W16904  17.247   9.202   4.834
52961W        W16905  17.663  21.689  12.066
52962W        W16906  30.065   7.221   2.680
52963W        W16907   5.309  30.593  13.952
52964W        W16908  31.994   8.266  10.539
52965W        W16909   9.339  42.453   4.630
52966W        W16910  32.987  11.140  12.041
52967W        W16911  42.022  32.035   2.727
52968W        W16912  22.584   7.334   4.186
52969W        W16913  34.097  10.142   2.247
52970W        W16914   2.807  23.697  10.409
52971W        W16915  17.556  40.498   1.302
52972W        W16916  10.649   3.886  13.441
52973W        W16917   4.870  29.643   3.838
52974W        W16918  17.655  35.878   4.274
52975W        W16919  30.600   4.298   2.225
52976W        W16920  43.460  35.559   3.319
52977W        W16921  30.920  44.822  13.026
52978W        W16922  27.073  29.036   1.412
52979W        W16923  29.544  32.920  12.988
52980W        W16924  38.505  44.495  14.365
52981W        W16925   2.459  33.059   3.781
52982W        W16926  34.391  19.122   1.744
52983W        W16927  44.315  34.418   3.822
52984W        W16928  44.431   6.848  11.500
52985W        W16929  42.358  11.681  10.441
52986W        W16930  30.131  20.697  11.023
52987W        W16931  41.471  18.673   0.950
52988W        W16932  42.280  20.255   2.719
52989W        W16933  28.108   2.411   0.878
52990W        W16934   9.202  32.476  11.873
52991W        W16935  28.581   8.878  10.061
52992W        W16936  17.663  36.075   1.725
52993W        W16937  22.156  19.643  10.470
52994W        W16938  42.370  38.416  11.458
52995W        W16939  44.836  28.007  14.443
52996W        W16940  31.605  44.787  14.867
52997W        W16941  37.924  33.577   2.664
52998W        W16942  39.032  44.806  11.403
52999W        W16943  28.938  43.468  13.532
53000W        W16944  20.733  40.921   0.422
53001W        W16945  20.597   5.717  11.506
53002W        W16946  24.070   2.361   0.839
53003W        W16947  35.891   4.763   1.798
53004W        W16948  35.494  28.078  13.421
53005W        W16949  17.662  14.711  10.609
53006W        W16950  23.216   9.171   3.845
53007W        W16951  39.849  15.126  11.590
53008W        W16952  20.686  29.982   3.359
53009W        W16953  14.187  43.443  11.487
53010W        W16954  29.068   2.864   4.697
53011W        W16955  22.597  21.206   0.381
53012W        W16956  19.746  27.189  12.409
53013W        W16957  29.130  30.162  10.575
53014W        W16958  27.456   8.859  12.507
53015W        W16959  11.761  33.069   0.358
53016W        W16960  31.505   3.387   2.248
53017W        W16961  11.725  28.504   2.779
53018W        W16962   7.805  31.404   3.318
53019W        W16963  13.816  27.088   3.796
53020W        W16964  12.189   9.803  11.537
53021W        W16965   9.391  38.045   2.711
53022W        W16966  14.233  18.788   5.104
53023W        W16967  29.146  30.984   0.779
53024W        W16968  33.061  37.365   4.732
53025W        W16969  14.149   9.694   1.892
53026W        W16970  20.205   1.373   3.298
53027W        W16971  15.087  42.787  13.836
53028W        W16972   5.357  41.977   3.648
53029W        W16973   9.377  34.114  11.604
53030W        W16974  12.194  24.679   3.867
53031W        W16975  33.073  26.101   4.813
53032W        W16976  32.609   8.178  13.478
53033W        W16977  35.094   5.877  14.339
53034W        W16978  32.983  12.767   3.306
53035W        W16979  17.696  21.055   9.999
53036W        W16980   2.421   1.733   0.875
53037W        W16981   8.654  24.021   4.158
53038W        W16982   4.235  36.093  14.328
53039W        W16983  24.198  30.531   1.752
53040W        W16984  25.089  15.778  10.917
53041W        W16985  32.617  16.119  12.027
53042W        W16986  37.966  30.607  14.434
53043W        W16987  19.199  20.710  12.091
53044W        W16988  21.220  15.673  12.037
53045W        W16989   5.761   8.843   3.308
53046W        W16990   0.911  19.136   3.216
53047W        W16991  10.281  20.141   1.837
53048W        W16992  35.533  11.733   1.224
53049W        W16993  29.127  17.113   1.721
53050W        W16994   4.783  38.864   2.812
53051W        W16995  10.639   9.309   3.387
53052W        W16996  33.549  43.499   0.370
53053W        W16997   3.393  34.413  14.859
53054W        W16998  15.670   6.421   2.774
53055W        W16999  35.569  26.657  12.530
53056W        W17000  27.087  22.213  12.415
53057W        W17001   1.785  34.887  11.582
53058W        W17002  37.424  19.727   3.753
53059W        W17003  30.957  12.696   4.722
53060W        W17004  18.278  28.645   3.255
53061W        W17005  37.460  33.121   4.139
53062W        W17006  26.549   1.408  11.911
53063W        W17007  13.698  21.056  14.903
53064W        W17008  32.046   3.321  10.601
53065W        W17009  27.105   4.921  14.902
53066W        W17010  28.064  22.620   3.194
53067W        W17011  31.035  19.253   9.482
53068W        W17012  42.943   8.259   4.262
53069W        W17013  20.606  25.201   0.892
53070W        W17014  31.135  40.389   4.637
53071W        W17015  36.962   0.826   2.747
53072W        W17016   9.328  24.125   0.739
53073W        W17017   1.464  21.730   0.845
53074W        W17018   7.405  37.950   1.328
53075W        W17019  13.322  43.770   2.405
53076W        W17020  19.206   7.196   3.747
53077W        W17021  18.614  29.540   4.342
53078W        W17022  14.752  19.283   1.266
53079W        W17023   4.447   5.783   2.226
53080W        W17024  29.553  12.824   3.314
53081W        W17025  16.802  33.551   2.751
53082W        W17026  36.063  34.441  14.993
53083W        W17027  39.464  30.960   2.401
53084W        W17028  18.092  33.024   0.258
53085W        W17029  18.628  38.570  14.494
53086W        W17030  43.455  34.999   0.740
53087W        W17031  43.986  40.990   3.321
53088W        W17032  17.069  31.948  12.348
53089W        W17033  42.347  23.020   4.115
53090W        W17034  12.688   0.791  12.063
53091W        W17035   1.745  39.841  10.592
53092W        W17036  36.373  24.588  12.522
53093W        W17037  35.496   4.798   1.269
53094W        W17038  24.702  19.634   3.688
53095W        W17039  18.644  20.082  10.598
53096W        W17040   6.826   3.857   1.443
53097W        W17041  23.033   6.755   3.710
53098W        W17042   9.346  13.643   0.906
53099W        W17043  21.087  35.468  11.424
53100W        W17044   6.299  17.205  12.530
53101W        W17045   8.839   3.727   1.842
53102W        W17046  44.773  43.011   2.360
53103W        W17047   0.853  21.126  14.493
53104W        W17048  33.566   3.779  14.451
53105W        W17049  29.655  14.625  12.840
53106W        W17050  18.663   3.413  14.771
53107W        W17051  40.965   5.195   5.242
53108W        W17052  12.678   4.212  10.472
53109W        W17053  41.306  20.690   0.267
53110W        W17054  37.996  25.008  10.488
53111W        W17055   3.794  16.747  10.447
53112W        W17056  26.056  22.150  14.825
53113W        W17057  15.275  11.842   4.234
53114W        W17058  32.908  14.590   0.941
53115W        W17059  31.483  25.049   1.919
53116W        W17060  32.980  25.204   3.168
53117W        W17061  32.601  22.595  14.404
53118W        W17062   0.352  10.139  11.509
53119W        W17063  28.970  29.147  10.889
53120W        W17064  20.726  13.799   0.869
53121W        W17065  44.783   7.313   2.280
53122W        W17066  16.174  29.964  13.311
53123W        W17067  17.735  37.033   3.339
53124W        W17068  38.005  35.023   1.424
53125W        W17069   1.419  33.509   1.412
53126W        W17070  27.642   0.820   1.928
53127W        W17071  23.042  31.548  11.875
53128W        W17072  29.574   9.204   3.282
53129W        W17073  40.419  32.934   4.720
53130W        W17074  14.684  19.733  12.422
53131W        W17075   1.457  21.254   2.858
53132W        W17076  32.978  15.187   1.697
53133W        W17077  10.262  18.239   4.119
53134W        W17078  15.586   8.218  13.413
53135W        W17079   0.284  36.441  13.483
53136W        W17080  36.360  25.656   0.777
53137W        W17081  31.415  26.079  13.487
53138W        W17082   7.669   5.872   4.605
53139W        W17083  20.700  22.202  11.958
53140W        W17084  14.125  17.798   4.732
53141W        W17085  39.347  15.734  10.629
53142W        W17086  21.169  32.050  14.395
53143W        W17087  24.602  26.998  10.409
53144W        W17088  17.578  18.659  13.907
53145W        W17089   9.212   4.314  11.030
53146W        W17090  28.563  19.230   1.907
53147W        W17091  38.529  38.444   4.727
53148W        W17092  18.201   2.422  13.899
53149W        W17093  42.345  19.136   0.883
53150W        W17094  14.664  16.571  12.056
53151W        W17095   1.911  29.625   2.808
53152W        W17096  12.632  15.630   3.651
53153W        W17097  41.987  39.388   1.712
53154W        W17098  22.022  35.049   4.155
53155W        W17099  27.192   7.338  13.308
53156W        W17100  32.479  36.385  11.429
53157W        W17101  16.203  39.415  14.398
53158W        W17102   3.769  20.713   2.398
53159W        W17103  40.812  28.550  13.362
53160W        W17104  24.230  40.525  12.865
53161W        W17105  34.943   7.242  14.838
53162W        W17106   7.673   6.885  10.531
53163W        W17107  25.576  30.097   2.687
53164W        W17108  26.701  22.544   1.451
53165W        W17109   4.801   4.373   3.797
53166W        W17110  42.881  38.510   3.252
53167W        W17111  17.756  15.741  10.637
53168W        W17112  39.346  23.135   2.688
53169W        W17113  15.783  43.859   4.288
53170W        W17114  35.094  44.270  10.089
53171W        W17115   2.842  38.962  12.052
53172W        W17116  34.011  18.737   2.186
53173W        W17117  31.611  26.140  12.341
53174W        W17118  24.090  17.655   2.824
53175W        W17119  25.698  33.469   5.173
53176W        W17120  20.126  14.216   3.333
53177W        W17121  43.927  13.337  14.299
53178W        W17122  38.364  31.486   3.702
53179W        W17123  43.364  10.366  14.353
53180W        W17124  41.869  28.060  14.343
53181W        W17125  32.617   1.791   1.792
53182W        W17126  28.045  39.031   4.292
53183W        W17127   0.917   0.926  14.306
53184W        W17128   1.370  11.688  11.881
53185W        W17129   9.812   0.945   3.255
53186W        W17130  36.871  26.193  10.634
53187W        W17131  16.688   7.248  13.973
53188W        W17132  31.001  40.936   0.910
53189W        W17133  19.607  11.309  14.479
53190W        W17134  16.717  17.228   4.149
53191W        W17135  23.059  43.369  11.496
53192W        W17136  30.458  23.645   1.846
53193W        W17137  31.627  20.099  11.043
53194W        W17138  31.560   4.241  12.509
53195W        W17139   0.919  40.517  14.382
53196W        W17140   3.381  26.626  13.340
53197W        W17141  32.024   8.695   0.731
53198W        W17142  42.283  19.606  12.864
53199W        W17143  40.895  26.689   1.444
53200W        W17144  16.165   0.819   1.713
53201W        W17145  13.253  43.304  13.993
53202W        W17146  24.009  10.700   4.729
53203W        W17147  12.841  12.629   4.803
53204W        W17148  30.569  19.709  10.950
53205W        W17149  28.628   9.758   2.217
53206W        W17150  36.576  35.408  12.535
53207W        W17151  26.617  42.395  10.520
53208W        W17152  37.578  37.443   0.469
53209W        W17153  22.659  15.648   1.286
53210W        W17154  31.478  23.587  12.914
53211W        W17155   8.885  44.949   3.183
53212W        W17156   2.382   6.249  12.959
53213W        W17157   7.247  29.624   9.564
53214W        W17158  43.335   3.872  14.842
53215W        W17159  10.867  20.220  10.557
53216W        W17160  31.120  35.875   5.191
53217W        W17161  18.106   1.873   2.194
53218W        W17162   0.332  44.942  12.020
53219W        W17163  35.548   0.872  12.962
53220W        W17164   5.243  43.396  10.967
53221W        W17165  36.946  39.879   3.385
53222W        W17166   2.897  22.701   2.254
53223W        W17167  14.715  20.711   3.178
53224W        W17168  13.791  39.468  10.416
53225W        W17169   0.799   6.685  14.851
53226W        W17170  33.455  24.158   0.808
53227W        W17171  39.820  14.833  11.458
53228W        W17172  25.992  24.550  11.572
53229W        W17173  31.484  44.862   3.153
53230W        W17174   1.368  43.329  11.943
53231W        W17175  16.175   8.829  12.838
53232W        W17176  16.672  13.107   3.714
53233W        W17177   5.914  11.172   4.135
53234W        W17178  15.807   6.737  11.444
53235W        W17179  24.046   8.674  13.545
53236W        W17180  43.930   7.203  11.961
53237W        W17181  12.220  44.933  11.973
53238W        W17182  21.575   9.386   1.771
53239W        W17183  17.580  33.443   3.702
53240W        W17184  44.795  30.911   4.698
53241W        W17185  36.404  34.094  10.490
53242W        W17186  24.508   9.825   4.295
53243W        W17187  24.703  27.966   4.697
53244W        W17188  24.204   5.228  13.352
53245W        W17189   7.187  10.367   4.600
53246W        W17190  21.173   0.785  14.987
53247W        W17191   7.183  25.087   2.301
53248W        W17192   6.922  25.641  12.571
53249W        W17193  44.460   6.428   3.793
53250W        W17194  19.671  30.655  10.581
53251W        W17195   6.837  38.869  14.944
53252W        W17196   8.743  25.713   3.635
53253W        W17197   4.905  25.180   3.751
53254W        W17198   9.646   5.728  13.016
53255W        W17199   5.314  40.925  11.498
53256W        W17200  11.261  30.508  14.964
53257W        W17201  11.864  36.530   1.237
53258W        W17202  28.939  13.151  13.334
53259W        W17203  23.212   2.807   2.207
53260W        W17204  23.531  19.054  12.419
53261W        W17205  35.912  19.581   2.721
53262W        W17206  40.003  29.020  11.921
53263W        W17207  10.731  27.559  12.939
53264W        W17208  39.897   3.423   3.354
53265W        W17209  23.516  30.474  14.834
53266W        W17210  12.697  19.680   2.317
53267W        W17211  42.962   3.457  14.994
53268W        W17212  18.218   9.869   2.397
53269W        W17213  22.571   4.725  10.937
53270W        W17214  12.807   8.258  11.933
53271W        W17215   4.428  42.465   1.904
53272W        W17216  36.441  21.135  14.510
53273W        W17217  15.646  43.843   3.183
53274W        W17218  15.740  44.770  14.440
53275W        W17219  42.491  28.493  13.459
53276W        W17220  13.748   6.282   0.736
53277W        W17221  31.994  18.769   4.600
53278W        W17222   1.781  35.558   4.227
53279W        W17223  11.309   6.351   2.735
53280W        W17224  19.583  10.160   3.658
53281W        W17225  16.218  23.995   4.791
53282W        W17226  20.539   1.393   3.161
53283W        W17227  21.511  29.133   9.989
53284W        W17228   6.309  11.225   3.339
53285W        W17229  15.587  25.543   3.852
53286W        W17230  17.303  40.446  10.613
53287W        W17231  10.650  42.330  11.884
53288W        W17232  18.568  40.548   0.828
53289W        W17233  40.801  30.920   0.789
53290W        W17234  21.152  17.210  12.405
53291W        W17235  22.069  38.924   3.841
53292W        W17236   0.287  25.506   4.804
53293W        W17237  40.481  36.377  12.995
53294W        W17238  19.093  12.311  14.888
53295W        W17239  22.210  32.056  10.507
53296W        W17240  40.037  31.496  14.933
53297W        W17241  30.919  37.400   3.262
53298W        W17242  40.510   8.733   1.449
53299W        W17243  23.194  22.550   1.718
53300W        W17244  24.182   8.321  11.985
53301W        W17245  35.008  30.113   2.273
53302W        W17246  38.934  25.029  11.464
53303W        W17247  24.169  34.392   1.735
53304W        W17248  36.353  35.490   2.278
53305W        W17249  13.267  33.535  14.000
53306W        W17250   1.353   1.929  12.883
53307W        W17251  20.722  28.162   0.321
53308W        W17252  22.200  35.526  13.317
53309W        W17253  27.181  26.699   0.337
53310W        W17254  36.428  42.292   3.231
53311W        W17255  34.461  11.176  14.903
53312W        W17256  21.039   4.244   3.167
53313W        W17257  16.709  40.467   1.277
53314W        W17258   2.913   5.781  11.407
53315W        W17259   0.493   9.704  14.904
53316W        W17260  34.014   3.925   4.164
53317W        W17261  14.097   8.763   1.767
53318W        W17262  43.343  11.850   3.793
53319W        W17263  29.063  33.499  13.965
53320W        W17264  39.324   1.822  10.051
53321W        W17265  22.236  38.852  13.802
53322W        W17266  37.078  10.164   0.902
53323W        W17267  38.350   6.784   1.821
53324W        W17268   0.429   9.257  10.981
53325W        W17269  38.980  15.245   3.339
53326W        W17270  33.117  22.636  13.459
53327W        W17271  17.709  18.624  11.947
53328W        W17272  37.919  27.970   0.903
53329W        W17273  15.813  34.966  14.327
53330W        W17274  43.311  15.213   4.760
53331W        W17275  20.066  18.210   1.377
53332W        W17276  12.224   2.379   1.385
53333W        W17277  33.492   1.393  13.500
53334W        W17278  40.382  11.349   4.740
53335W        W17279   4.823  33.522  13.336
53336W        W17280  14.656  37.354  12.879
53337W        W17281  29.486  39.381   2.253
53338W        W17282  40.839   3.794   1.326
53339W        W17283  17.094  21.685  14.924
53340W        W17284  41.932   1.820   2.727
53341W        W17285   9.815   3.400  14.426
53342W        W17286  44.499  33.068  14.770
53343W        W17287  41.888   6.728   1.430
53344W        W17288  11.717  28.076   3.797
53345W        W17289  20.114   6.810  14.901
53346W        W17290  14.302  24.984   0.968
53347W        W17291  27.505   8.839  10.466
53348W        W17292  42.375  15.271  13.422
53349W        W17293   1.370  15.245   0.336
53350W        W17294  16.306  36.556   3.859
53351W        W17295   3.255   5.892  14.324
53352W        W17296   1.428  30.048  14.492
53353W        W17297  20.683  12.148  10.483
53354W        W17298  44.504   8.235   2.315
53355W        W17299  43.497  20.660  14.008
53356W        W17300  22.638   7.837  14.837
53357W        W17301  31.411  16.710  13.505
53358W        W17302  20.101  17.572  10.944
53359W        W17303   5.848  10.876  13.332
53360W        W17304   9.796  31.621  13.870
53361W        W17305   3.726  11.311   1.240
53362W        W17306   5.749   7.741  12.844
53363W        W17307  12.135  36.440  13.427
53364W        W17308  18.547   2.317   1.434
53365W        W17309  35.480  26.146  14.915
53366W        W17310  37.076   7.271   2.803
53367W        W17311   5.252  40.015   1.827
53368W        W17312   2.460   7.270  12.392
53369W        W17313  32.906   9.662   4.226
53370W        W17314  39.834   9.155   3.768
53371W        W17315  20.647  11.695  13.470
53372W        W17316  23.125   1.444  12.067
53373W        W17317   5.711  39.021  11.884
53374W        W17318  40.447  42.881   4.153
53375W        W17319   3.839  42.429  14.354
53376W        W17320  42.294  37.520   0.809
53377W        W17321  36.351  19.640   0.952
53378W        W17322  35.935  39.985  14.007
53379W        W17323  42.864  27.638  11.112
53380W        W17324  13.243  30.969   0.821
53381W        W17325  27.984  24.159   5.127
53382W        W17326  18.651  12.244   2.378
53383W        W17327   3.351  11.338   4.132
53384W        W17328   5.833  26.040   4.780
53385W        W17329  13.328  27.029  12.054
53386W        W17330  25.208  32.542   1.804
53387W        W17331   7.795  22.102   0.316
53388W        W17332  12.643   0.989   1.700
53389W        W17333  33.922   8.245  10.480
53390W        W17334  44.917   9.845   2.383
53391W        W17335  33.401  13.680   0.758
53392W        W17336  34.091  29.559   2.744
53393W        W17337  30.502  40.027  10.606
53394W        W17338  14.307  24.170  11.061
53395W        W17339  24.163  10.262   1.801
53396W        W17340  16.707  43.384  14.516
53397W        W17341  23.564   1.290  12.392
53398W        W17342  23.536   1.387  14.494
53399W        W17343   6.874  11.151   3.332
53400W        W17344  28.147  33.008  11.963
53401W        W17345  34.444   0.809   2.393
53402W        W17346  15.803   9.343   2.857
53403W        W17347  29.043  23.683  12.877
53404W        W17348  24.163  25.690  14.810
53405W        W17349  24.149  25.117   0.379
53406W        W17350  21.088  32.567   2.262
53407W        W17351  14.308  34.606   9.922
53408W        W17352  40.490  14.741  11.388
53409W        W17353  40.818  10.333  11.910
53410W        W17354   7.214  36.965   1.795
53411W        W17355   8.326  12.188   3.846
53412W        W17356  43.421  14.812  12.424
53413W        W17357  15.176   5.321  13.934
53414W        W17358  17.558  44.963   4.792
53415W        W17359  19.166  27.632   2.290
53416W        W17360  37.372  22.625   4.155
53417W        W17361  17.639  15.607  11.540
53418W        W17362  39.324  43.510   3.869
53419W        W17363  34.492  41.352  14.865
53420W        W17364  32.562  38.383  12.936
53421W        W17365  36.887  41.394  13.514
53422W        W17366  38.542  43.447   3.832
53423W        W17367  14.656  31.488   1.308
53424W        W17368  13.324  35.852  14.430
53425W        W17369  25.535   3.802   1.927
53426W        W17370  22.690  17.287  11.604
53427W        W17371  42.417  32.551   1.833
53428W        W17372  44.823  15.286   2.324
53429W        W17373   4.860  26.696  12.947
53430W        W17374  28.956  30.138   0.734
53431W        W17375  20.577  14.168   4.602
53432W        W17376   6.695  11.696  11.413
53433W        W17377  21.246  38.996   1.788
53434W        W17378  28.931  10.799   1.267
53435W        W17379  24.209  10.771   2.270
53436W        W17380  35.428  18.602  14.354
53437W        W17381  15.814   0.810   3.197
53438W        W17382  10.181  17.783  12.867
53439W        W17383  13.846  36.448  11.028
53440W        W17384  36.062  14.312   3.226
53441W        W17385  23.667  17.783   2.712
53442W        W17386  18.184   2.465   1.357
53443W        W17387   8.164   0.846  13.544
53444W        W17388  10.202  35.602  14.854
53445W        W17389  26.585  14.240   4.831
53446W        W17390  26.500  15.778  14.481
53447W        W17391  37.066  38.946  12.883
53448W        W17392  31.107   2.796   1.916
53449W        W17393   2.819   7.694   1.855
53450W        W17394  18.667  29.115   2.805
53451W        W17395  39.861  17.659  11.611
53452W        W17396  40.021   3.226   0.357
53453W        W17397  34.994   4.389  10.520
53454W        W17398  31.084  33.938  11.875
53455W        W17399   4.744  37.394  13.352
53456W        W17400  19.576   7.791  11.893
53457W        W17401  42.372  29.104   4.178
53458W        W17402  32.948  33.435   3.726
53459W        W17403  23.518  11.853   2.243
53460W        W17404   5.912  35.996  12.062
53461W        W17405   8.843  21.079   3.671
53462W        W17406  26.198   0.301  12.868
53463W        W17407  31.057   6.803   3.322
53464W        W17408  36.452  12.677  13.326
53465W        W17409  24.513   0.880  11.493
53466W        W17410  38.863  18.237   2.756
53467W        W17411  24.532  14.756  14.794
53468W        W17412  44.924  36.553   3.181
53469W        W17413  43.950  43.949  11.088
53470W        W17414   4.371  13.193  11.525
53471W        W17415  11.837  35.943   1.376
53472W        W17416  13.220  12.797  11.470
53473W        W17417  17.211   5.298   3.831
53474W        W17418  26.143  30.653   2.252
53475W        W17419   4.234  17.178   1.437
53476W        W17420  20.554  12.289   0.880
53477W        W17421   4.332   5.826   4.298
53478W        W17422  19.089  44.760   1.410
53479W        W17423  20.073   9.668   0.413
53480W        W17424  44.325  13.817  10.976
53481W        W17425   4.874  27.653  14.404
53482W        W17426  34.876  39.493  14.888
53483W        W17427  11.823  35.432  11.574
53484W        W17428  24.556  33.505  11.571
53485W        W17429  27.973  28.634   0.810
53486W        W17430  11.845  33.971  14.453
53487W        W17431  22.640  37.396  10.065
53488W        W17432  32.414   9.202  11.474
53489W        W17433   5.293  38.967  14.473
53490W        W17434  15.146  32.892   1.869
53491W        W17435   7.897  17.674   3.714
53492W        W17436  32.541  22.678   2.741
53493W        W17437  17.162  34.596   9.979
53494W        W17438  18.061  14.283   2.727
53495W        W17439  14.748  17.765   3.235
53496W        W17440   0.811  40.893   2.732
53497W        W17441  37.455  39.535  10.979
53498W        W17442  38.961  25.641   2.749
53499W        W17443  43.014  36.902   0.310
53500W        W17444  44.941   9.284  11.908
53501W        W17445   7.319  40.955   1.222
53502W        W17446   9.880  43.281   4.250
53503W        W17447  29.104  32.103   1.760
53504W        W17448  41.804  26.175  13.973
53505W        W17449  19.272  37.887  11.457
53506W        W17450   8.302   5.919  13.434
53507W        W17451  18.661  39.020   3.293
53508W        W17452  29.111  37.339  13.822
53509W        W17453  42.325  43.900   3.657
53510W        W17454  34.932  36.892  10.537
53511W        W17455  27.089  35.531   0.965
53512W        W17456   3.283  25.014  11.023
53513W        W17457  28.037  35.563  10.575
53514W        W17458  15.669   6.201   4.126
53515W        W17459  22.130  12.222   2.815
53516W        W17460  30.107   0.337   4.669
53517W        W17461  39.022  35.412   1.888
53518W        W17462  38.907  28.168   1.363
53519W        W17463  32.420  44.270   2.802
53520W        W17464  44.792  35.385   1.320
53521W        W17465  21.039  11.641   3.846
53522W        W17466   1.433  38.045   0.909
53523W        W17467   7.696  39.347  13.343
53524W        W17468   9.334  23.649  10.534
53525W        W17469  10.223  37.942  13.047
53526W        W17470  21.752  39.559   3.260
53527W        W17471  29.949  11.178  11.435
53528W        W17472  41.042   8.177  10.935
53529W        W17473   3.249  29.099   0.321
53530W        W17474  14.306  40.797   2.730
53531W        W17475  44.487   6.193  12.426
53532W        W17476  22.071  14.295   2.848
53533W        W17477  38.045  36.585  11.498
53534W        W17478  20.758  38.836  10.541
53535W        W17479  44.479  17.631  10.633
53536W        W17480  21.673  26.968  13.335
53537W        W17481  31.917  44.965  11.511
53538W        W17482  34.927   8.317  10.492
53539W        W17483  28.146  34.016  13.359
53540W        W17484  31.605  31.053  10.925
53541W        W17485  10.817   0.456  14.416
53542W        W17486  10.162   0.907   4.694
53543W        W17487  16.693  33.089   0.266
53544W        W17488  31.971  15.737  11.110
53545W        W17489   2.358   7.857  12.888
53546W        W17490   3.219  44.394  12.516
53547W        W17491   5.293  39.401   2.182
53548W        W17492   3.321  26.609   2.302
53549W        W17493  42.455  42.941   1.760
53550W        W17494  33.969  23.060  14.005
53551W        W17495   7.852  18.782   0.767
53552W        W17496  19.626  24.029   2.881
53553W        W17497  43.837   6.269   4.691
53554W        W17498   0.923  25.575  10.585
53555W        W17499  36.396   9.700   3.822
53556W        W17500   1.432   0.278  11.033
53557W        W17501  23.723   6.826  12.436
53558W        W17502   6.817  39.393  12.069
53559W        W17503  12.645  14.666  13.430
53560W        W17504  41.789   6.842  13.315
53561W        W17505  13.791  23.691  12.900
53562W        W17506  23.651   6.246   3.365
53563W        W17507  15.812  28.058   4.684
53564W        W17508  12.830  19.200  10.541
53565W        W17509  10.772   1.737  12.378
53566W        W17510   6.684  30.611  14.863
53567W        W17511  35.393   1.427  11.382
53568W        W17512  15.731  40.999   2.674
53569W        W17513  11.223  38.541  12.446
53570W        W17514   9.882  10.867   0.352
53571W        W17515   8.703  17.575   3.729
53572W        W17516  14.216  26.647  12.930
53573W        W17517   8.832  31.423  12.008
53574W        W17518   4.754  31.416   3.343
53575W        W17519  12.119  32.530   1.248
53576W        W17520  19.096  18.292   0.735
53577W        W17521  21.607  33.053  14.302
53578W        W17522  40.356  23.146   1.706
53579W        W17523   2.366  22.175  12.837
53580W        W17524   4.257  10.696   4.228
53581W        W17525   4.209  40.479  11.406
53582W        W17526  44.974  38.429   0.249
53583W        W17527  25.143  26.615   2.774
53584W        W17528  23.993   2.437   2.789
53585W        W17529  15.809  23.020  10.090
53586W        W17530   0.861  41.330  14.900
53587W        W17531  14.107   6.883  13.472
53588W        W17532   5.247  43.983  12.555
53589W        W17533   0.864  33.426   4.717
53590W        W17534  33.412   9.323   4.698
53591W        W17535  24.227  40.029   3.804
53592W        W17536  26.515  15.092   2.193
53593W        W17537  37.074  34.882  13.495
53594W        W17538  32.612  17.673   2.225
53595W        W17539  33.990  27.561   4.628
53596W        W17540  33.118  35.407  10.931
53597W        W17541   5.766  21.222  14.418
53598W        W17542  22.558  12.166  14.429
53599W        W17543  32.423   7.181   4.748
53600W        W17544  14.684  10.851  14.327
53601W        W17545  37.477   0.441   1.213
53602W        W17546  21.693  14.728  14.446
53603W        W17547  41.500   7.717  12.355
53604W        W17548  30.655  13.329   3.737
53605W        W17549  31.087  30.581  10.443
53606W        W17550  13.142  13.680   4.118
53607W        W17551  26.995  13.761   3.840
53608W        W17552  43.844  17.136  14.318
53609W        W17553  41.841  35.925   3.313
53610W        W17554  43.402  32.955   0.827
53611W        W17555  19.146   8.672  10.966
53612W        W17556  16.229  24.633  11.962
53613W        W17557  41.921  24.512  11.935
53614W        W17558  36.419  29.497  11.435
53615W        W17559  31.633  26.111   4.827
53616W        W17560  29.014  27.627  12.078
53617W        W17561   2.242  23.501  12.394
53618W        W17562  28.097  44.413   2.250
53619W        W17563  42.926  22.743   0.316
53620W        W17564   6.332  25.106   0.781
53621W        W17565  43.774  20.231  11.562
53622W        W17566  17.713  41.789   2.747
53623W        W17567  44.417  20.269  12.574
53624W        W17568  24.544  14.710  10.637
53625W        W17569  24.072  30.458   4.776
53626W        W17570   3.894  23.076  13.472
53627W        W17571  29.006  37.474   0.824
53628W        W17572  36.555  12.681   1.805
53629W        W17573  34.372   3.951  12.356
53630W        W17574   5.876   6.713   0.457
53631W        W17575  28.983  31.586   0.784
53632W        W17576  39.034  27.487   0.423
53633W        W17577  11.658  38.833  14.821
53634W        W17578   2.274  10.334   5.275
53635W        W17579  32.626  33.485   2.739
53636W        W17580  34.454  28.054  10.924
53637W        W17581  24.489  15.783   3.296
53638W        W17582  28.128  41.362   2.777
53639W        W17583  30.628  29.436   0.781
53640W        W17584  21.249  35.488   3.211
53641W        W17585  37.887  33.487   1.694
53642W        W17586  42.878  18.671   4.796
53643W        W17587   8.184  11.276  12.975
53644W        W17588  41.826   3.218   9.922
53645W        W17589  20.693  37.866   0.757
53646W        W17590  39.322  25.519   3.759
53647W        W17591  38.928  41.494  10.515
53648W        W17592  13.774  33.088   9.624
53649W        W17593  12.618  36.995  12.871
53650W        W17594  40.407  29.927  14.387
53651W        W17595  19.630  42.905   1.250
53652W        W17596  23.221  22.183   3.189
53653W        W17597  39.390  23.691  14.293
53654W        W17598   4.431  31.444  10.416
53655W        W17599  15.640  24.639  11.916
53656W        W17600  29.444  27.476  13.914
53657W        W17601  13.292  37.410  14.984
53658W        W17602  30.540  20.171  14.842
53659W        W17603  25.192  19.548  11.089
53660W        W17604  42.787  37.943  14.307
53661W        W17605  31.434  35.925  13.966
53662W        W17606  24.623  34.590  10.897
53663W        W17607   1.759  25.066  13.317
53664W        W17608   9.351  29.171   4.318
53665W        W17609  17.236  38.973   2.365
53666W        W17610  44.765  17.799  12.563
53667W        W17611   1.300   2.753   3.193
53668W        W17612  32.449  15.711   4.601
53669W        W17613   4.418   5.402  11.944
53670W        W17614  25.021   3.247   3.859
53671W        W17615  19.171  11.365  13.000
53672W        W17616  30.651   0.814   1.815
53673W        W17617  27.491  42.955   3.189
53674W        W17618  35.024  33.531   4.255
53675W        W17619  15.791  30.571  12.862
53676W        W17620   6.715  39.474   0.756
53677W        W17621   4.362   0.377  11.388
53678W        W17622  26.658  35.880  10.521
53679W        W17623  38.937   2.247  13.518
53680W        W17624  38.937  35.003  14.993
53681W        W17625  14.152   3.332   2.340
53682W        W17626  22.661  33.570   0.391
53683W        W17627  21.239  30.982  11.065
53684W        W17628  19.543  26.630   4.758
53685W        W17629   3.766  38.560  11.856
53686W        W17630  15.169   3.436  11.589
53687W        W17631   1.770  42.942   4.700
53688W        W17632  32.396  38.484   4.741
53689W        W17633  14.169  31.477   2.270
53690W        W17634  25.545   8.166  12.011
53691W        W17635  43.821   8.825  14.951
53692W        W17636  21.214   9.174   1.711
53693W        W17637  44.429  25.478  12.516
53694W        W17638  28.518  40.497   0.789
53695W        W17639   3.767  31.908   3.809
53696W        W17640   3.846  29.609   4.707
53697W        W17641  19.637  20.112   2.902
53698W        W17642  16.629  13.315  13.047
53699W        W17643  36.986   2.792   4.284
53700W        W17644  31.637  19.246   0.437
53701W        W17645  22.070  28.146   3.829
53702W        W17646  37.960  44.901   0.795
53703W        W17647  31.095  38.504   3.679
53704W        W17648  37.537   9.768  14.413
53705W        W17649  43.788   1.743   2.413
53706W        W17650  11.762   7.711  10.530
53707W        W17651  18.231  36.553  12.835
53708W        W17652  14.147  30.027  11.916
53709W        W17653  41.889  17.105   4.346
53710W        W17654  13.143  40.871   4.714
53711W        W17655  36.869  13.226  12.378
53712W        W17656   2.387  19.541  12.428
53713W        W17657  44.263  29.100   0.945
53714W        W17658  20.546  18.090   1.868
53715W        W17659  15.152   1.395  14.448
53716W        W17660  24.590  13.342   2.344
53717W        W17661  31.116  13.623   4.640
53718W        W17662  21.239  12.775   2.669
53719W        W17663  22.091  22.176   0.414
53720W        W17664  32.474   8.379  11.520
53721W        W17665   0.259  14.676  14.385
53722W        W17666  41.815  38.984   2.180
53723W        W17667  44.444  37.421  13.501
53724W        W17668   7.769  21.102   2.696
53725W        W17669  13.633  16.593   3.243
53726W        W17670   4.893   6.310  13.443
53727W        W17671  21.641  22.178  12.976
53728W        W17672  30.109  10.175  14.919
53729W        W17673   9.852  14.761   1.779
53730W        W17674  34.962  36.381  10.942
53731W        W17675   4.853  12.855   5.265
53732W        W17676  24.986   0.271  14.486
53733W        W17677  43.339  18.068   1.911
53734W        W17678   5.427  15.730  12.828
53735W        W17679  21.644   3.414  13.465
53736W        W17680   1.272  15.189  11.388
53737W        W17681  30.614  36.854  13.405
53738W        W17682  33.986   7.814   3.864
53739W        W17683  29.593   6.877   4.755
53740W        W17684  17.299  13.322   4.217
53741W        W17685  28.019   3.249  12.039
53742W        W17686   8.864  19.244   9.964
53743W        W17687  40.837  28.007  10.951
53744W        W17688  28.172  27.085   4.748
53745W        W17689  35.917   3.951   2.734
53746W        W17690  20.218  17.689   1.862
53747W        W17691  19.171  14.207   0.728
53748W        W17692  32.902  44.782  11.913
53749W        W17693   5.320  18.279  11.917
53750W        W17694   9.231  13.639   1.396
53751W        W17695  33.615  12.679   2.821
53752W        W17696   3.883  25.147  10.044
53753W        W17697  25.493  29.426  13.430
53754W        W17698  26.154  23.569   4.735
53755W        W17699  29.048  42.978   2.270
53756W        W17700  38.358  29.649   2.232
53757W        W17701  26.133  27.650   0.919
53758W        W17702  40.896   5.353  14.466
53759W        W17703  13.129  38.870  14.386
53760W        W17704  14.159  40.512   2.903
53761W        W17705   6.410  26.168   3.735
53762W        W17706  24.666  36.842  14.422
53763W        W17707  37.474  23.194   4.659
53764W        W17708   0.774  26.069  12.344
53765W        W17709  20.694   1.815   2.841
53766W        W17710   4.923   9.168   2.301
53767W        W17711  40.816   3.897   3.207
53768W        W17712   2.440  37.547   4.146
53769W        W17713  36.034  36.413  13.976
53770W        W17714   9.653  21.534  11.387
53771W        W17715  43.336   0.955  11.475
53772W        W17716  29.976  44.309   9.925
53773W        W17717   1.945  43.325   2.736
53774W        W17718   4.335  23.555  12.850
53775W        W17719   2.282  22.552  11.394
53776W        W17720   4.750  24.156  12.834
53777W        W17721  26.209  37.463   1.866
53778W        W17722  21.052  17.591   0.953
53779W        W17723  23.187   2.361  12.404
53780W        W17724  27.561  12.780  10.935
53781W        W17725  22.714  34.875  11.084
53782W        W17726  32.993  20.575   2.367
53783W        W17727  42.907  20.667  13.310
53784W        W17728  35.429  40.813  12.432
53785W        W17729   0.297  42.354  14.887
53786W        W17730  28.944  27.615   4.125
53787W        W17731   3.828  34.575   1.377
53788W        W17732  42.410  43.355   4.338
53789W        W17733  20.260   0.918   2.393
53790W        W17734  14.672  32.986   4.114
53791W        W17735  25.625  41.943   4.269
53792W        W17736  24.018  19.271   3.269
53793W        W17737   1.936  24.489  14.373
53794W        W17738  21.633  34.578   4.126
53795W        W17739  31.618  25.673   2.390
53796W        W17740  14.789  25.714   0.258
53797W        W17741  10.766  14.278   1.237
53798W        W17742  22.642  13.633  10.937
53799W        W17743  30.916  33.555   1.767
53800W        W17744   9.807  35.454   1.916
53801W        W17745  21.683  27.591  12.863
53802W        W17746  24.593  33.073   0.752
53803W        W17747   8.374   6.315  13.367
53804W        W17748  33.064  25.534   3.698
53805W        W17749   7.825  35.403  10.930
53806W        W17750  21.101  44.463   4.182
53807W        W17751  29.937  14.290   0.473
53808W        W17752  18.241  37.403  10.579
53809W        W17753  30.575  11.651   1.711
53810W        W17754  34.474  17.225  13.538
53811W        W17755  13.260  35.966   3.728
53812W        W17756   4.375  25.075  11.039
53813W        W17757  17.771   9.763   1.840
53814W        W17758  26.043  24.132   1.343
53815W        W17759  39.002   3.937   2.415
53816W        W17760  41.820  34.519  10.140
53817W        W17761  11.241   5.929   2.738
53818W        W17762  36.455  13.234  14.795
53819W        W17763   1.967  41.957  11.478
53820W        W17764  22.032  22.055   4.745
53821W        W17765  30.637  41.946  10.486
53822W        W17766  28.639   4.883  13.485
53823W        W17767  30.590  44.823   2.737
53824W        W17768  35.562  15.137   2.894
53825W        W17769  19.051   2.268   1.350
53826W        W17770   5.856   3.805  10.450
53827W        W17771  35.539  10.797   3.838
53828W        W17772  13.128  35.084  14.014
53829W        W17773   5.309  42.826   0.825
53830W        W17774  21.565  17.649  14.478
53831W        W17775  14.668   7.885  10.450
53832W        W17776  41.838  31.532  10.969
53833W        W17777  14.749  15.097  13.896
53834W        W17778  44.329   7.372  10.897
53835W        W17779  37.057  22.646  13.872
53836W        W17780  14.213  11.855  14.379
53837W        W17781  23.638  44.892  13.867
53838W        W17782  40.323  41.988  14.966
53839W        W17783  26.093  19.104   3.746
53840W        W17784  25.178  21.680  14.789
53841W        W17785  31.952  20.581   2.228
53842W        W17786  25.704  11.804  13.472
53843W        W17787  13.352  42.992  10.944
53844W        W17788   4.875  41.469   3.276
53845W        W17789  40.386  26.003  14.434
53846W        W17790  16.079  18.586  13.335
53847W        W17791  32.991   7.880   4.315
53848W        W17792  14.270  28.607  14.294
53849W        W17793  27.970   4.227  14.312
53850W        W17794   7.184   8.781   4.156
53851W        W17795  10.252   6.706  14.418
53852W        W17796  29.452   2.367  10.453
53853W        W17797   5.261  13.145  11.883
53854W        W17798  17.730   2.740  11.588
53855W        W17799  37.578  22.162   0.957
53856W        W17800  36.036  19.557  13.538
53857W        W17801   5.297  16.754   0.772
53858W        W17802  43.440  28.502  10.457
53859W        W17803  33.599   1.478   1.807
53860W        W17804  30.132  17.797   0.400
53861W        W17805  31.485  15.136   3.763
53862W        W17806  10.349  10.374   0.753
53863W        W17807  35.063   4.339   3.297
53864W        W17808   3.247  30.140   0.409
53865W        W17809  18.705  44.357   3.663
53866W        W17810  15.692  20.758  10.984
53867W        W17811  37.986  25.687  10.405
53868W        W17812  22.138  41.931   3.369
53869W        W17813  23.002   0.912  12.413
53870W        W17814  25.012   6.241   2.860
53871W        W17815  44.981  30.944   2.250
53872W        W17816  11.150  26.105   0.333
53873W        W17817  40.948  24.034  12.500
53874W        W17818  41.994  12.308  14.989
53875W        W17819   0.983  13.225   0.780
53876W        W17820  41.857  38.342   4.155
53877W        W17821  13.126  14.762   2.332
53878W        W17822   2.894  17.104   0.379
53879W        W17823  36.896  43.953  12.012
53880W        W17824  36.077   4.388  13.941
53881W        W17825  24.707  31.424   0.266
53882W        W17826  36.933  38.568   0.888
53883W        W17827   8.362   0.800   0.472
53884W        W17828   2.896  38.859  10.606
53885W        W17829  34.989  33.969   2.836
53886W        W17830   5.730   4.235  10.978
53887W        W17831  12.777   8.783  12.389
53888W        W17832   2.870  18.643  11.936
53889W        W17833  21.635  13.137   3.756
53890W        W17834  28.155   6.204  10.586
53891W        W17835   3.927   0.785   2.401
53892W        W17836  16.630  14.694   3.752
53893W        W17837  31.949  28.470   2.744
53894W        W17838  35.369  24.621   0.470
53895W        W17839   4.404  32.407  11.503
53896W        W17840  40.019  17.729  11.985
53897W        W17841  15.280  44.466   3.356
53898W        W17842  15.300  41.792   3.335
53899W        W17843   2.801   9.796   4.115
53900W        W17844  42.311  37.513  14.763
53901W        W17845   0.822   8.669   3.261
53902W        W17846  11.313  15.767   2.875
53903W        W17847  42.989  18.287   4.213
53904W        W17848   9.204  22.723  14.026
53905W        W17849  32.109  23.594  14.779
53906W        W17850  43.823   1.763  14.962
53907W        W17851  18.202  33.878   2.781
53908W        W17852   9.368  14.726  12.357
53909W        W17853  31.549  37.445   1.321
53910W        W17854  23.993   7.813  13.824
53911W        W17855  27.133  17.150   3.788
53912W        W17856  11.864  38.411   2.780
53913W        W17857  10.289  11.643  13.929
53914W        W17858  31.430  28.100  11.606
53915W        W17859  38.381  30.024   2.858
53916W        W17860   9.676   0.359   9.578
53917W        W17861  21.753  12.333  14.309
53918W        W17862  28.597  41.948  12.831
53919W        W17863  24.543  28.941  11.889
53920W        W17864  13.159   6.874   1.845
53921W        W17865  43.952  11.230  13.510
53922W        W17866  18.208  29.967  14.864
53923W        W17867   0.444   9.357   5.310
53924W        W17868  23.094   0.784  14.423
53925W        W17869  11.348   1.248  14.319
53926W        W17870  32.919  25.471   4.282
53927W        W17871  39.392  34.081  13.912
53928W        W17872  19.612   7.183   1.886
53929W        W17873  18.589   1.966   4.335
53930W        W17874   8.205  29.092   3.745
53931W        W17875  35.939   7.305  12.478
53932W        W17876  24.218  14.211   4.250
53933W        W17877   0.352  28.549   4.624
53934W        W17878  13.149   3.238   0.820
53935W        W17879  40.931  20.579   4.223
53936W        W17880  40.882  31.116   3.263
53937W        W17881  21.099  26.654   5.194
53938W        W17882  43.807   1.812  14.409
53939W        W17883  23.548  23.548  14.001
53940W        W17884  30.510  32.016  14.943
53941W        W17885   2.468  23.144   0.784
53942W        W17886  22.227  17.169   4.810
53943W        W17887  12.274  14.132  11.553
53944W        W17888  18.116  22.190  14.841
53945W        W17889   5.827  12.266  13.404
53946W        W17890  28.493   7.765   0.394
53947W        W17891  23.728  15.790  10.932
53948W        W17892  17.161  37.052   4.171
53949W        W17893  34.573  37.497   0.245
53950W        W17894  28.528  30.457   1.823
53951W        W17895  18.746   7.374   2.892
53952W        W17896  36.067  24.505   4.287
53953W        W17897  36.376   7.404   5.170
53954W        W17898  40.938  37.430   2.301
53955W        W17899  35.050  13.348   1.698
53956W        W17900   8.300   8.295  10.963
53957W        W17901  27.692  37.939  11.067
53958W        W17902  20.175  21.698  14.846
53959W        W17903  29.085  43.830  12.986
53960W        W17904  38.366  10.793   1.424
53961W        W17905  13.221  21.113   4.681
53962W        W17906  22.591   9.170  13.476
53963W        W17907  28.132  22.542  13.889
53964W        W17908  33.388  31.971  12.850
53965W        W17909  20.029  37.530  13.872
53966W        W17910  15.212  31.572   0.727
53967W        W17911   0.861  38.974  12.898
53968W        W17912  41.894  10.145   3.846
53969W        W17913  13.665  29.624  11.057
53970W        W17914  24.195  27.154   2.890
53971W        W17915  27.619  32.100  14.779
53972W        W17916  27.046   7.682  10.501
53973W        W17917   1.391  37.392   4.657
53974W        W17918  41.514  30.440  14.470
53975W        W17919   8.675  34.432  11.098
53976W        W17920  19.600  26.481  11.939
53977W        W17921   8.761  36.385  10.917
53978W        W17922  14.244  17.623   1.891
53979W        W17923  26.502  35.077  13.425
53980W        W17924   7.744  37.417   3.715
53981W        W17925  11.785   7.875   2.885
53982W        W17926  21.744  23.134   4.278
53983W        W17927   8.330   6.278   4.282
53984W        W17928  44.361  43.924   0.917
53985W        W17929  19.633  18.075   4.681
53986W        W17930  20.129  17.221   4.130
53987W        W17931   7.791  23.614   1.306
53988W        W17932  30.151   8.217   3.258
53989W        W17933  10.377  15.323  11.449
53990W        W17934  24.605   2.334  10.526
53991W        W17935  41.795   3.932   4.691
53992W        W17936   7.248  44.358  11.868
53993W        W17937  21.058  18.172  12.479
53994W        W17938  26.612  14.162   0.245
53995W        W17939  41.493  15.740   3.757
53996W        W17940   3.890   8.845  10.969
53997W        W17941  36.451  25.098  12.979
53998W        W17942  36.584   0.961  14.959
53999W        W17943   7.853   6.873  14.883
54000W        W17944  42.365  31.151   1.837
54001W        W17945  29.074  37.412   3.168
54002W        W17946  32.430  44.863  14.854
54003W        W17947  23.605  10.170   3.150
54004W        W17948   6.793  35.880   0.412
54005W        W17949  44.355  26.591  11.385
54006W        W17950  27.446  11.694   3.377
54007W        W17951  33.389  38.397  11.521
54008W        W17952  29.037  27.159  14.442
54009W        W17953  30.124  34.609   0.877
54010W        W17954   1.336  39.471   1.391
54011W        W17955  25.069  42.912   0.464
54012W        W17956   6.760  19.220   3.178
54013W        W17957  15.111  14.265  14.281
54014W        W17958  30.512  28.644   3.264
54015W        W17959  37.836  30.512  11.927
54016W        W17960  11.658  19.689   3.220
54017W        W17961   6.894  28.084  10.044
54018W        W17962  24.489  10.749  12.560
54019W        W17963  44.980  41.521  12.873
54020W        W17964  22.095  40.943   0.447
54021W        W17965  26.637  24.553  12.975
54022W        W17966  14.299   4.364  11.528
54023W        W17967  35.041   3.439   3.670
54024W        W17968  43.860   7.901   0.371
54025W        W17969  42.384  18.672  12.836
54026W        W17970  17.663  20.070  11.896
54027W        W17971  10.188  40.523   0.919
54028W        W17972   3.734   3.357  10.599
54029W        W17973  39.534  40.443  12.459
54030W        W17974  21.581  27.449  13.840
54031W        W17975  40.826  25.527  11.969
54032W        W17976  11.132  43.421   3.206
54033W        W17977   1.864  35.461   0.362
54034W        W17978  27.672  11.264  11.372
54035W        W17979  38.059   0.976  14.887
54036W        W17980  30.966  28.606   3.854
54037W        W17981   1.361  44.000   2.230
54038W        W17982  13.601  19.631   4.638
54039W        W17983   8.395  34.086  13.449
54040W        W17984  13.816  38.568   0.377
54041W        W17985   3.289   8.862  12.023
54042W        W17986  35.969  26.196  12.905
54043W        W17987  15.803   6.734   4.127
54044W        W17988  28.083  21.514   2.256
54045W        W17989  15.141  31.941  14.907
54046W        W17990  30.477  14.643   3.205
54047W        W17991  35.581  11.732   1.833
54048W        W17992  32.605  19.236  12.560
54049W        W17993   8.830  13.704  11.017
54050W        W17994  41.853  35.953  12.928
54051W        W17995  26.601  38.549  12.383
54052W        W17996   8.849  25.603  11.017
54053W        W17997  37.484   6.357   4.630
54054W        W17998   8.298  31.461   2.898
54055W        W17999  25.675  12.714  13.509
54056W        W18000  11.763  11.782   5.099
54057W        W18001   7.181   8.228  13.964
54058W        W18002   5.363  15.261   2.392
54059W        W18003  12.644   6.810  11.432
54060W        W18004   4.401   4.316  14.813
54061W        W18005  38.495   5.795   0.918
54062W        W18006   2.894  26.571   2.194
54063W        W18007  17.557  42.962   3.789
54064W        W18008  12.221  32.905  13.433
54065W        W18009   0.377  31.141  12.486
54066W        W18010  25.585  31.994  12.833
54067W        W18011  29.600  43.973   3.355
54068W        W18012  31.103  32.922   2.768
54069W        W18013  25.576   3.767  12.850
54070W        W18014   4.295  30.598  14.844
54071W        W18015   6.744  36.482  14.471
54072W        W18016  31.497  41.489  13.475
54073W        W18017  21.571   5.790   2.375
54074W        W18018  31.452   2.229   3.288
54075W        W18019  13.797  22.728   4.812
54076W        W18020  17.287  27.659  10.616
54077W        W18021  43.474  10.347   2.667
54078W        W18022  22.549   5.363   3.784
54079W        W18023  23.024  36.075   3.816
54080W        W18024  38.345  40.991   3.844
54081W        W18025  24.128  43.837  13.811
54082W        W18026   0.774  17.142   2.828
54083W        W18027  31.498   1.324   2.881
54084W        W18028  26.650  41.988  11.570
54085W        W18029  30.119  21.607   0.830
54086W        W18030  16.637  42.925   4.628
54087W        W18031  12.800  20.650  13.391
54088W        W18032   9.313   9.710  11.893
54089W        W18033  40.826  39.512   4.203
54090W        W18034  30.966   9.374   4.119
54091W        W18035  43.478  36.035   2.266
54092W        W18036   8.661  24.225  13.541
54093W        W18037  38.881  21.705  10.609
54094W        W18038  38.027  27.089   0.386
54095W        W18039  12.717   4.807  11.992
54096W        W18040  11.781  29.000   4.747
54097W        W18041  21.577   1.919   1.837
54098W        W18042   8.865  14.666   5.298
54099W        W18043  13.248  18.757   0.815
54100W        W18044  26.001  18.240   5.290
54101W        W18045  38.968  21.137   5.113
54102W        W18046  16.184   8.195   2.748
54103W        W18047  10.302  27.165   0.368
54104W        W18048  36.907  31.585  10.909
54105W        W18049   8.899  38.925  11.099
54106W        W18050  30.496  23.079   3.244
54107W        W18051   3.370  32.973   1.276
54108W        W18052   4.380  17.125  10.992
54109W        W18053  42.352  37.513  10.889
54110W        W18054  24.708  17.679   3.699
54111W        W18055   9.834  39.474   3.272
54112W        W18056  26.952  25.126   3.860
54113W        W18057  38.456  30.909   2.323
54114W        W18058  11.814  42.510  13.975
54115W        W18059  10.167   8.270  13.810
54116W        W18060  30.007  17.590   9.539
54117W        W18061  30.975  29.551  12.017
54118W        W18062  19.266  26.494   5.230
54119W        W18063  10.145   2.845   3.759
54120W        W18064  19.662  36.953   2.190
54121W        W18065  37.413   1.735  14.324
54122W        W18066  17.693   0.269  11.081
54123W        W18067  39.010  12.698   4.317
54124W        W18068  28.671  39.013   1.450
54125W        W18069  29.084   6.400   2.290
54126W        W18070  37.023  36.554  11.103
54127W        W18071   1.746  19.569   4.323
54128W        W18072  23.222  29.957   0.739
54129W        W18073  27.036   2.349  12.007
54130W        W18074   5.304   1.740   1.711
54131W        W18075  22.066  21.709  10.915
54132W        W18076  31.527  31.637   2.183
54133W        W18077  14.757  21.658  11.873
54134W        W18078  42.301  13.647  13.840
54135W        W18079  30.069  33.023   2.380
54136W        W18080  31.930  25.570  11.593
54137W        W18081  26.533   3.273   1.420
54138W        W18082  15.813  23.233   5.733
54139W        W18083   0.403   8.221  14.457
54140W        W18084  13.173  27.450  10.590
54141W        W18085  19.260   8.781   9.509
54142W        W18086  28.473   6.677  12.424
54143W        W18087  41.967  31.982   1.306
54144W        W18088   7.708  27.142   0.850
54145W        W18089  27.554   0.427   1.337
54146W        W18090  20.625  22.649   1.384
54147W        W18091   7.277  38.395  14.346
54148W        W18092  44.923  10.694  10.900
54149W        W18093  29.632  40.432   4.205
54150W        W18094  38.379  25.669   0.942
54151W        W18095  36.555  32.016   5.286
54152W        W18096   3.327  10.332  11.103
54153W        W18097  35.553  38.457  10.901
54154W        W18098  19.778  28.558  13.966
54155W        W18099  20.525  25.979   3.170
54156W        W18100   5.305   2.283   0.934
54157W        W18101  20.549  20.270  10.489
54158W        W18102  14.208  13.305  10.984
54159W        W18103  14.094  25.068  11.382
54160W        W18104  16.274  21.524   3.643
54161W        W18105   5.896  18.738  10.630
54162W        W18106  38.352  27.471   4.625
54163W        W18107  25.218   9.363  13.847
54164W        W18108  34.389  28.540  11.375
54165W        W18109   9.696  30.624   0.746
54166W        W18110  41.307   9.187   1.281
54167W        W18111  26.092  44.324  11.958
54168W        W18112   5.721   8.673   1.823
54169W        W18113  34.863  11.754  14.381
54170W        W18114   7.372  10.262   3.807
54171W        W18115  21.731  22.510   4.237
54172W        W18116  41.967  12.622   1.223
54173W        W18117   9.165  43.945   1.296
54174W        W18118  21.646  22.238   5.284
54175W        W18119  33.546  26.109   1.387
54176W        W18120  12.709  19.638   2.730
54177W        W18121  20.626  31.968   2.232
54178W        W18122  20.728  20.147  11.076
54179W        W18123   0.854  15.668   4.683
54180W        W18124  36.483  18.146   1.445
54181W        W18125  10.259  27.674  14.901
54182W        W18126   2.295  31.559  14.907
54183W        W18127  12.799   5.854  14.825
54184W        W18128   2.725  32.541  13.958
54185W        W18129  25.711  10.839  12.340
54186W        W18130  19.249   0.277   1.913
54187W        W18131  18.192  40.540   4.699
54188W        W18132  14.266  42.013   2.826
54189W        W18133   8.381  38.507   3.333
54190W        W18134   6.277   3.926   1.305
54191W        W18135  24.203  44.832   2.781
54192W        W18136  12.132   4.895  14.397
54193W        W18137   7.366  15.668   3.804
54194W        W18138  14.109  15.704   0.841
54195W        W18139  39.839  39.522  13.385
54196W        W18140   0.407  42.292   1.778
54197W        W18141  44.269  38.845   2.715
54198W        W18142  20.718  20.683  13.456
54199W        W18143   3.942   6.327  14.286
54200W        W18144  21.551  37.035   0.366
54201W        W18145  42.406  18.689   3.775
54202W        W18146   1.271  30.638   2.303
54203W        W18147   2.233  19.546   0.950
54204W        W18148  17.116  24.036   2.271
54205W        W18149  36.087  11.738   4.140
54206W        W18150  42.021  21.664  14.369
54207W        W18151  14.337  13.264  10.601
54208W        W18152  37.931  43.834  13.324
54209W        W18153  40.908   6.383   4.293
54210W        W18154  36.087  44.457  11.860
54211W        W18155  26.107  32.111   3.797
54212W        W18156  38.447  24.029   2.793
54213W        W18157  41.963   0.389  10.968
54214W        W18158  10.267  39.413   0.809
54215W        W18159  29.503   7.201  12.402
54216W        W18160  20.684  43.479   4.176
54217W        W18161   5.693   1.279   2.692
54218W        W18162  43.960  12.347  13.996
54219W        W18163  33.911   3.912   0.911
54220W        W18164   9.720   0.410  13.900
54221W        W18165   9.755  21.722   0.449
54222W        W18166   4.785  15.181   2.826
54223W        W18167  31.981  14.644  11.045
54224W        W18168  28.176  44.763   0.819
54225W        W18169  32.398  30.046  13.544
54226W        W18170  20.067  10.359  13.405
54227W        W18171  26.173  16.267  12.526
54228W        W18172   9.206  44.948   3.782
54229W        W18173   5.859  22.507   0.448
54230W        W18174  41.823   6.321  14.393
54231W        W18175  33.002   5.195  10.505
54232W        W18176  36.898  12.636   4.264
54233W        W18177  14.779  23.052   2.304
54234W        W18178   5.725  25.491   2.870
54235W        W18179  30.417  14.298  10.989
54236W        W18180  28.162  15.114   4.684
54237W        W18181  25.598  34.464  12.407
54238W        W18182  33.384  27.633   1.860
54239W        W18183   3.370  14.808   4.189
54240W        W18184  39.933  34.962   2.901
54241W        W18185   5.909  13.649   3.869
54242W        W18186   4.382   2.440   1.884
54243W        W18187  18.128   5.363   0.323
54244W        W18188  24.049  23.089   0.250
54245W        W18189  10.169  22.550   5.244
54246W        W18190  22.066   8.735   0.760
54247W        W18191  41.339  13.345   3.816
54248W        W18192  32.575  38.376   0.838
54249W        W18193  29.627  28.961   1.450
54250W        W18194  15.324   5.193  11.034
54251W        W18195  14.822  18.570   2.199
54252W        W18196  23.691  23.639   3.269
54253W        W18197  34.418  15.262   0.393
54254W        W18198   8.775  37.447   5.099
54255W        W18199  43.989   2.363   3.819
54256W        W18200  12.197   8.257   2.218
54257W        W18201   2.923  16.114   1.931
54258W        W18202   5.761  32.114  11.872
54259W        W18203  36.486  14.094  11.108
54260W        W18204  32.448   9.682  10.990
54261W        W18205  38.841  24.548  11.961
54262W        W18206   5.233  33.006   1.791
54263W        W18207  14.116   7.867  14.358
54264W        W18208  34.874  38.970  14.503
54265W        W18209  40.967   0.482  10.911
54266W        W18210  41.969  16.625  11.878
54267W        W18211  39.910   9.352  11.896
54268W        W18212  18.160  19.166   4.157
54269W        W18213  44.370  20.529  13.856
54270W        W18214   1.321  25.170   4.617
54271W        W18215  28.004   4.277  13.531
54272W        W18216   1.333  41.384   2.886
54273W        W18217  16.124  30.576   2.375
54274W        W18218  38.963  29.641   0.336
54275W        W18219  21.247  22.700   3.191
54276W        W18220  43.484   1.794   0.775
54277W        W18221   8.338  35.098   4.256
54278W        W18222  12.243  13.720   4.698
54279W        W18223  11.777   2.253  14.280
54280W        W18224   7.312  43.270   1.770
54281W        W18225  34.116  25.529   3.313
54282W        W18226  12.172  22.673  13.840
54283W        W18227   8.162  37.008   3.857
54284W        W18228   9.701  17.121  11.882
54285W        W18229  28.656  15.204  10.950
54286W        W18230  28.100  30.440  13.883
54287W        W18231  14.098  14.146   4.640
54288W        W18232  12.202  10.849  14.466
54289W        W18233  22.030  41.865   4.837
54290W        W18234  11.628   8.325  14.389
54291W        W18235  39.502  15.648  14.962
54292W        W18236  23.557  14.608  14.374
54293W        W18237   7.264  42.367   2.344
54294W        W18238  23.071  36.456  12.975
54295W        W18239   1.410  31.080  12.989
54296W        W18240  34.400  34.418  10.961
54297W        W18241  19.055   3.856  12.935
54298W        W18242  39.550  38.848  10.514
54299W        W18243  15.803   8.283   3.631
54300W        W18244  28.655   8.737   1.400
54301W        W18245  14.593   6.245   3.721
54302W        W18246  21.042  21.691   0.344
54303W        W18247  31.979   2.341  14.498
54304W        W18248  25.183  23.047  12.416
54305W        W18249  10.812   6.389   0.805
54306W        W18250  32.894   5.301   3.791
54307W        W18251   7.408  32.598   0.798
54308W        W18252  26.172   9.375  10.471
54309W        W18253   4.842  43.408   3.748
54310W        W18254  34.987   9.696   3.332
54311W        W18255   5.796   3.822   0.904
54312W        W18256  15.620  21.652  11.459
54313W        W18257  13.685  17.626  11.969
54314W        W18258  12.713  42.315  14.309
54315W        W18259   8.804  44.422  12.902
54316W        W18260  25.688  32.513   1.857
54317W        W18261  32.556   8.355  10.545
54318W        W18262  26.167  25.169   3.206
54319W        W18263   0.809  39.926  14.831
54320W        W18264  13.688  44.384   4.332
54321W        W18265  19.199  38.011   0.767
54322W        W18266  39.891  19.192   3.702
54323W        W18267   7.909  28.144   2.751
54324W        W18268  19.266   7.805  12.447
54325W        W18269  17.722   8.668  14.770
54326W        W18270   9.210  25.633  10.940
54327W        W18271   5.423  21.173  10.094
54328W        W18272  21.672  33.509   2.231
54329W        W18273  24.565  40.539   2.882
54330W        W18274  27.511  38.874  14.371
54331W        W18275  18.196  32.981  13.330
54332W        W18276  34.533  12.708  14.914
54333W        W18277   2.351   4.247  10.051
54334W        W18278  31.962  11.853   4.796
54335W        W18279  25.158  14.174   4.603
54336W        W18280  32.534  20.678   2.887
54337W        W18281  26.467  42.946  11.500
54338W        W18282  34.947  36.567  14.974
54339W        W18283  30.488  22.523  14.866
54340W        W18284  27.103  27.606  11.025
54341W        W18285   6.366  35.371  14.868
54342W        W18286  23.553  34.374  11.025
54343W        W18287  13.240  31.486   9.568
54344W        W18288  13.673  13.303   3.774
54345W        W18289  16.750  21.525  12.415
54346W        W18290  26.025  24.710  11.124
54347W        W18291  17.623  39.986  12.437
54348W        W18292   1.797  35.038   3.735
54349W        W18293  22.509  29.597  11.114
54350W        W18294  32.944  27.550  12.068
54351W        W18295  41.811  44.284  12.969
54352W        W18296  42.455  29.433   4.777
54353W        W18297  43.338  11.233  13.909
54354W        W18298  35.048  30.975  11.399
54355W        W18299  22.061   5.788  11.597
54356W        W18300  37.461  34.566   1.756
54357W        W18301  20.674  38.898  11.930
54358W        W18302  29.084  11.361  14.947
54359W        W18303  30.487  36.481  12.891
54360W        W18304  42.922  37.351  11.506
54361W        W18305  35.955   4.315  14.913
54362W        W18306   0.303  41.494  10.521
54363W        W18307  18.668  33.953  10.902
54364W        W18308  38.464   9.880   1.437
54365W        W18309  10.240  21.649   1.347
54366W        W18310  28.471  28.574  12.884
54367W        W18311  21.257   9.728   3.333
54368W        W18312  37.950  19.159   3.648
54369W        W18313   2.862  10.359  14.925
54370W        W18314   4.255  43.793   0.832
54371W        W18315  28.154  20.622   4.603
54372W        W18316   9.276  41.818   3.835
54373W        W18317  39.822  17.677   1.783
54374W        W18318  28.650  32.109  10.419
54375W        W18319   3.929  19.223  14.951
54376W        W18320  20.562  38.348  12.452
54377W        W18321  10.141  21.568  11.440
54378W        W18322  16.757  32.887   1.708
54379W        W18323  36.058  16.699  13.881
54380W        W18324  24.569  37.046   0.859
54381W        W18325   6.736  29.551   5.229
54382W        W18326  38.877  17.751   3.267
54383W        W18327  15.206   8.294  11.597
54384W        W18328  13.746  30.510   2.340
54385W        W18329  32.103  34.533  10.060
54386W        W18330   4.840  43.382  11.990
54387W        W18331  22.569  31.901  13.437
54388W        W18332   0.924  38.429   4.187
54389W        W18333  31.029  30.062   1.340
54390W        W18334  36.031  32.107   2.409
54391W        W18335  26.090  10.226   3.351
54392W        W18336  15.654  18.054   4.162
54393W        W18337  23.547  28.948  11.042
54394W        W18338  32.402  15.278  14.837
54395W        W18339  42.333  28.995   1.799
54396W        W18340  12.756  38.825   3.688
54397W        W18341  13.339  21.057  11.924
54398W        W18342  14.201  36.461  14.331
54399W        W18343  25.993  37.071   0.310
54400W        W18344   4.448  18.654  12.823
54401W        W18345  28.662  31.454   2.866
54402W        W18346  31.437   4.708  10.427
54403W        W18347  27.024  11.212  11.920
54404W        W18348  36.524  36.425  10.470
54405W        W18349  10.231  40.483  11.488
54406W        W18350  31.549   6.282  14.915
54407W        W18351  15.127  21.706  10.889
54408W        W18352  33.035  21.159  10.572
54409W        W18353  10.816   0.846  14.307
54410W        W18354  15.641  32.441  10.420
54411W        W18355  30.037  28.467  12.922
54412W        W18356   3.845  26.523   2.880
54413W        W18357  23.020  38.368   1.817
54414W        W18358  20.058  35.373   0.466
54415W        W18359  34.379  35.465  12.971
54416W        W18360  31.126  38.027  13.943
54417W        W18361  16.132  34.470   5.610
54418W        W18362  33.920  26.011  14.988
54419W        W18363  23.984  13.165   3.252
54420W        W18364  42.340   5.315  14.013
54421W        W18365   8.662  38.966  10.502
54422W        W18366  22.024   4.336  14.907
54423W        W18367  10.188  40.797  11.605
54424W        W18368  20.682  35.524   1.805
54425W        W18369   6.889  22.029   1.235
54426W        W18370  26.069  42.888   4.690
54427W        W18371  27.176  42.010  11.959
54428W        W18372  18.058  43.810   1.893
54429W        W18373  21.070  35.003  13.368
54430W        W18374  26.506   4.329   3.219
54431W        W18375  35.058   8.892   5.141
54432W        W18376  40.959  27.649  14.996
54433W        W18377  42.009  31.563   1.241
54434W        W18378  24.583  39.420   1.878
54435W        W18379   0.949  18.186   2.719
54436W        W18380  35.503  24.699  11.570
54437W        W18381   5.869  13.242  13.999
54438W        W18382  17.119  34.045  14.461
54439W        W18383   4.872  43.313   5.270
54440W        W18384  17.793  42.927  10.968
54441W        W18385  43.792  23.095  10.928
54442W        W18386  28.945  41.799   4.736
54443W        W18387  38.535  37.919  11.082
54444W        W18388  19.674   8.184  11.967
54445W        W18389   6.228  36.418  14.366
54446W        W18390  43.995  30.575   3.827
54447W        W18391  35.959  27.131  12.895
54448W        W18392   9.321  29.443   2.268
54449W        W18393  16.797  28.046  13.915
54450W        W18394  30.115  28.541  12.497
54451W        W18395  37.026  20.542   2.696
54452W        W18396  23.194  23.073   1.861
54453W        W18397   4.811   4.258  13.971
54454W        W18398  36.018  18.546   3.727
54455W        W18399   8.865  26.036   2.887
54456W        W18400   0.454   1.451   3.272
54457W        W18401  19.631   9.332  14.356
54458W        W18402  36.359   7.209  12.862
54459W        W18403  18.200  30.464  14.019
54460W        W18404  12.760  37.387  13.374
54461W        W18405  10.303   3.932   2.793
54462W        W18406  24.676  21.524   3.243
54463W        W18407   9.816  36.536   0.456
54464W        W18408   0.409  13.236   0.869
54465W        W18409  32.110  41.892  12.856
54466W        W18410  30.560  26.970  15.000
54467W        W18411  43.467  23.985   1.325
54468W        W18412   6.246   5.305   1.228
54469W        W18413  36.569   5.203   5.139
54470W        W18414  32.579   9.268   1.873
54471W        W18415  26.168  17.721   4.128
54472W        W18416  18.548  39.490   2.350
54473W        W18417  42.894  24.010  14.839
54474W        W18418   5.417   6.732   2.685
54475W        W18419   3.907   0.371  12.958
54476W        W18420  39.004  37.855   2.194
54477W        W18421  25.599  20.753   0.436
54478W        W18422   3.786  12.846   0.311
54479W        W18423  40.454  37.532  12.459
54480W        W18424   0.477  28.562  13.893
54481W        W18425  13.660  41.012  11.886
54482W        W18426  39.556  41.838   2.372
54483W        W18427  16.196  12.656  10.425
54484W        W18428  10.760  22.159   2.387
54485W        W18429  26.195   0.439   0.804
54486W        W18430   2.254  24.202  14.003
54487W        W18431  12.740  18.544  14.954
54488W        W18432  41.043  16.612   0.253
54489W        W18433  14.124   7.267  11.856
54490W        W18434  10.330  10.278  11.967
54491W        W18435   7.688  33.516   1.746
54492W        W18436  42.341   4.397  11.525
54493W        W18437  35.913   6.303   1.369
54494W        W18438  26.456  41.398   2.305
54495W        W18439  30.576  36.884   2.862
54496W        W18440  22.140  44.798   2.365
54497W        W18441  11.150   0.743   3.273
54498W        W18442   9.816  33.526  11.557
54499W        W18443  27.615  33.435  13.456
54500W        W18444  22.027  17.161  12.922
54501W        W18445  21.230   6.860  13.414
54502W        W18446  18.716  32.623  12.391
54503W        W18447   2.922  14.831   4.139
54504W        W18448  38.496  18.093  13.355
54505W        W18449  39.449  19.646   4.148
54506W        W18450  11.310   9.290  13.434
54507W        W18451  26.575  30.573  11.607
54508W        W18452  16.717  34.447  11.406
54509W        W18453  24.030  35.037   3.845
54510W        W18454  26.092  27.988   0.786
54511W        W18455  11.176  21.579   0.897
54512W        W18456  14.820  17.638   1.848
54513W        W18457   4.719  10.635  10.627
54514W        W18458   4.912  41.826   1.774
54515W        W18459  31.144  35.105  14.963
54516W        W18460  41.841  22.071   2.726
54517W        W18461  39.841  25.689   0.804
54518W        W18462   5.926  40.826   3.332
54519W        W18463  11.773   9.313  11.390
54520W        W18464   7.172   0.786   1.755
54521W        W18465   8.333  32.047  10.603
54522W        W18466  15.119  35.092   3.838
54523W        W18467  14.826   4.727  14.904
54524W        W18468  19.775  16.630   2.814
54525W        W18469   6.879  11.762   2.731
54526W        W18470  42.399  44.421  13.451
54527W        W18471   7.368  12.771   4.816
54528W        W18472  35.017  40.499  10.471
54529W        W18473  12.284   4.417  11.476
54530W        W18474  10.370   1.298  10.159
54531W        W18475  17.764  12.259  14.800
54532W        W18476  21.581   0.955   1.235
54533W        W18477  38.944   4.443  13.548
54534W        W18478  29.609   6.356  14.387
54535W        W18479   9.288  16.676  10.452
54536W        W18480  12.798  26.508   1.386
54537W        W18481  36.870  21.668   3.290
54538W        W18482  44.336  10.176  12.527
54539W        W18483  34.950   3.256   1.783
54540W        W18484  14.244  30.108  14.314
54541W        W18485  40.023  35.590   0.469
54542W        W18486  30.985  26.489  14.472
54543W        W18487  34.605  36.966   1.268
54544W        W18488   8.324   8.203   0.250
54545W        W18489   4.445  24.677  14.852
54546W        W18490  14.747   1.869   1.772
54547W        W18491  16.213  35.971  13.924
54548W        W18492  40.504  19.737  10.562
54549W        W18493  27.944  39.421  13.972
54550W        W18494  11.304  32.129   3.663
54551W        W18495  14.685  24.217  14.293
54552W        W18496  44.827  32.965   0.915
54553W        W18497  29.110  24.008  14.906
54554W        W18498  17.621  38.359   1.844
54555W        W18499  10.221  17.272  13.050
54556W        W18500  28.631  25.044  12.385
54557W        W18501  33.064   1.330   1.770
54558W        W18502   1.849  41.902  14.328
54559W        W18503   1.240  28.507  14.874
54560W        W18504  33.940  26.632  11.419
54561W        W18505  10.645   1.480   4.619
54562W        W18506  11.819  29.621   0.259
54563W        W18507  40.978  21.261  10.985
54564W        W18508  33.494  34.399  11.542
54565W        W18509  15.175   3.272   1.354
54566W        W18510  37.843   4.374  11.601
54567W        W18511  21.180   8.753  13.938
54568W        W18512  33.928  15.806  14.786
54569W        W18513   6.296  41.452   3.701
54570W        W18514   5.872  14.273  14.411
54571W        W18515  23.197  24.980   3.830
54572W        W18516  22.626  42.403   0.479
54573W        W18517   6.819  21.122   4.755
54574W        W18518  21.669  31.905  13.972
54575W        W18519  37.483  35.933  12.992
54576W        W18520  33.894  41.944   3.822
54577W        W18521  44.399  22.012   0.850
54578W        W18522  16.778  30.914   0.418
54579W        W18523  11.800  16.296   4.135
54580W        W18524  15.596   5.787  11.024
54581W        W18525  21.070  35.947  14.803
54582W        W18526  17.157  13.229   2.213
54583W        W18527  10.737  33.085   2.220
54584W        W18528  19.670  15.688   3.664
54585W        W18529  13.639  24.993  12.421
54586W        W18530  44.978  12.355   2.413
54587W        W18531  25.584   1.799   0.412
54588W        W18532  34.910  42.897  13.504
54589W        W18533   1.380  30.960   3.376
54590W        W18534  25.564  11.295   1.449
54591W        W18535  22.096  33.912   0.479
54592W        W18536  25.012  27.020   2.233
54593W        W18537   0.856  40.907   1.740
54594W        W18538   9.726  10.384   0.950
54595W        W18539   0.775  23.650   4.746
54596W        W18540  34.408  19.130  11.895
54597W        W18541  21.189  41.864   3.731
54598W        W18542   6.887  29.572   3.769
54599W        W18543  37.005   3.253   0.748
54600W        W18544  21.712   2.379   3.257
54601W        W18545  27.180  30.980   0.291
54602W        W18546  30.468   5.435  12.079
54603W        W18547  22.694  44.339   0.463
54604W        W18548  16.130  31.045  10.644
54605W        W18549   0.755  12.774   4.758
54606W        W18550  12.756  27.600  13.956
54607W        W18551  28.523   6.839  12.851
54608W        W18552  33.560  20.750   3.688
54609W        W18553  39.358  43.827   0.308
54610W        W18554  19.538  13.661   2.268
54611W        W18555  11.297  26.597  13.957
54612W        W18556   0.376  26.027   2.208
54613W        W18557  34.046  13.810  12.869
54614W        W18558  44.262   2.875  12.926
54615W        W18559  36.962  10.269  10.916
54616W        W18560   8.737  24.015  12.066
54617W        W18561   1.262  44.303  12.481
54618W        W18562  24.104  39.941  12.398
54619W        W18563  35.960  11.238  11.987
54620W        W18564   0.317  21.571  11.493
54621W        W18565  37.378  11.354   0.335
54622W        W18566   1.362  31.497   3.773
54623W        W18567   0.829  37.531   3.369
54624W        W18568  11.735  13.815   2.751
54625W        W18569  43.311  34.885   0.339
54626W        W18570  36.080  33.019   2.206
54627W        W18571  43.488  42.526  11.454
54628W        W18572  19.213  33.921  10.602
54629W        W18573  20.751  24.187  10.415
54630W        W18574  24.708  37.996  10.525
54631W        W18575  14.604   2.315  12.504
54632W        W18576  32.555  26.468   4.302
54633W        W18577  44.972   6.319  13.912
54634W        W18578  11.182   2.296   1.781
54635W        W18579  29.137  31.459  12.867
54636W        W18580  30.930   1.812   5.161
54637W        W18581  37.424   6.417  13.338
54638W        W18582  43.309  27.553  13.493
54639W        W18583  11.855  30.086   0.808
54640W        W18584  12.730   6.697  12.080
54641W        W18585  12.299  29.099   4.827
54642W        W18586  20.607  20.616  11.382
54643W        W18587  40.884  37.473   0.750
54644W        W18588  37.343  18.768   4.822
54645W        W18589  18.285  19.175  14.842
54646W        W18590  26.140  22.620  12.579
54647W        W18591  14.740  20.551  13.827
54648W        W18592  34.936  38.058  13.050
54649W        W18593   6.868  12.699   4.240
54650W        W18594  21.119  39.064  14.782
54651W        W18595  27.110  23.241   1.821
54652W        W18596  31.093  37.060   4.611
54653W        W18597   8.858  40.348  12.866
54654W        W18598  39.984  21.749   2.331
54655W        W18599  17.251  36.080  13.005
54656W        W18600  27.000  24.689  11.465
54657W        W18601  12.348  21.195  13.395
54658W        W18602  29.489  30.658  14.981
54659W        W18603   3.723  41.836   1.381
54660W        W18604  36.555  42.021  10.489
54661W        W18605  43.308  16.298  12.383
54662W        W18606  12.261  39.983  14.333
54663W        W18607  21.150  21.166   3.266
54664W        W18608  41.881   7.232  11.961
54665W        W18609  28.560  36.948  13.041
54666W        W18610  44.455  40.336   3.344
54667W        W18611  13.302   7.218   1.221
54668W        W18612  35.916  13.108   0.375
54669W        W18613   9.246  10.832  13.840
54670W        W18614  40.847  16.167   1.706
54671W        W18615  38.342  43.782   3.689
54672W        W18616  13.342  25.542  14.764
54673W        W18617  12.194  11.154  12.525
54674W        W18618  11.827  36.068   1.771
54675W        W18619   7.765  41.787  14.901
54676W        W18620  31.581  37.080   3.784
54677W        W18621  29.518  22.543  14.326
54678W        W18622  12.624  44.997  14.492
54679W        W18623  40.026   2.958   0.951
54680W        W18624  40.489  40.983   0.338
54681W        W18625  34.892   1.886   1.876
54682W        W18626  16.214  14.646   4.334
54683W        W18627  41.936  36.558   0.917
54684W        W18628  34.464  42.454   2.687
54685W        W18629   8.173   1.806  14.348
54686W        W18630   5.415  12.302  13.462
54687W        W18631  42.328  13.648  11.381
54688W        W18632  43.431  41.499  10.441
54689W        W18633   6.836  10.715  10.889
54690W        W18634  24.679  30.954  10.405
54691W        W18635   2.446  40.477  11.381
54692W        W18636  42.383   6.227   4.198
54693W        W18637   9.807  41.408   4.276
54694W        W18638  34.113  23.187   1.934
54695W        W18639   3.753  10.821  13.005
54696W        W18640   0.948  22.131   3.860
54697W        W18641  37.007   4.330  14.370
54698W        W18642  40.451  32.975  14.462
54699W        W18643   4.759   5.238   3.305
54700W        W18644  23.229  36.090   0.767
54701W        W18645  41.368  32.093  14.765
54702W        W18646  27.557  35.876   2.746
54703W        W18647   5.848  34.063   3.687
54704W        W18648   8.192  33.125  14.930
54705W        W18649  44.264  22.574   4.758
54706W        W18650  22.130   4.775   2.373
54707W        W18651   8.247  44.962  10.444
54708W        W18652  14.179  13.739  10.986
54709W        W18653   6.393   5.196  13.544
54710W        W18654  29.641  37.449  14.878
54711W        W18655  29.925  18.727   3.258
54712W        W18656  24.975   5.256   2.201
54713W        W18657  26.554  27.088   5.149
54714W        W18658  10.741  28.489  13.524
54715W        W18659  23.635  36.367   0.730
54716W        W18660  26.072  30.449  11.405
54717W        W18661  35.004   9.155  11.452
54718W        W18662  38.431  28.116  12.833
54719W        W18663  35.365   1.455  14.760
54720W        W18664   1.912  26.145   0.404
54721W        W18665   4.780   5.412   0.396
54722W        W18666  33.396  14.807   1.387
54723W        W18667  19.143   9.217  10.988
54724W        W18668  31.005  44.923   2.188
54725W        W18669  13.128  21.718   1.826
54726W        W18670  23.047  11.724  10.522
54727W        W18671  36.375  17.683  10.535
54728W        W18672   6.348   2.907  12.531
54729W        W18673   6.405  42.899   3.691
54730W        W18674   0.837  37.477   2.347
54731W        W18675  32.025  22.599   1.865
54732W        W18676  29.111  19.164   4.678
54733W        W18677  44.907  15.770  10.482
54734W        W18678   4.269  26.003  11.079
54735W        W18679  28.449  44.343  11.527
54736W        W18680  14.285  19.127  12.363
54737W        W18681  38.889  16.707  12.498
54738W        W18682   4.817  16.125  11.385
54739W        W18683   4.349  16.086   2.267
54740W        W18684  43.994   6.697  13.986
54741W        W18685   7.386  20.534   1.763
54742W        W18686  20.163  33.964   1.318
54743W        W18687  21.713  32.005  14.469
54744W        W18688  29.547  11.144   1.258
54745W        W18689  23.032  20.578  13.919
54746W        W18690  23.659  17.581  14.998
54747W        W18691  39.857  14.723  14.275
54748W        W18692  17.773  29.153   2.298
54749W        W18693  27.132  34.956  12.988
54750W        W18694  21.229  36.096   2.178
54751W        W18695  22.592  39.558  13.849
54752W        W18696  13.824  29.935   3.335
54753W        W18697  17.678  13.183   0.847
54754W        W18698  36.395  11.305  14.818
54755W        W18699   3.922  36.058  11.046
54756W        W18700   9.289  40.485   9.940
54757W        W18701  21.583  25.494  12.853
54758W        W18702  18.664   9.763   1.926
54759W        W18703  25.638  25.521  14.791
54760W        W18704  43.776  42.340  12.454
54761W        W18705  34.887  16.247   3.376
54762W        W18706  36.453  17.176  12.442
54763W        W18707  30.101  35.055  14.444
54764W        W18708  12.248  17.134   0.245
54765W        W18709  13.665   3.455  12.357
54766W        W18710   9.733  13.230   0.436
54767W        W18711  11.670  42.509  10.954
54768W        W18712  28.953  15.204   2.716
54769W        W18713  26.961  27.687   2.813
54770W        W18714   1.784   5.764   4.203
54771W        W18715  36.043  33.034   4.726
54772W        W18716  42.445  41.029   0.341
54773W        W18717   1.881  41.031  13.906
54774W        W18718   7.327  36.086   1.833
54775W        W18719  38.967  30.940  14.359
54776W        W18720  17.147  44.456   3.232
54777W        W18721  18.281  39.954  13.987
54778W        W18722   3.898   5.906   9.976
54779W        W18723  17.629  16.220   4.609
54780W        W18724   1.758   8.249   4.318
54781W        W18725  33.955  36.560  14.848
54782W        W18726  39.029  30.598  12.370
54783W        W18727   2.739  37.566   4.792
54784W        W18728  17.627   3.454  12.928
54785W        W18729  23.641  13.698   1.446
54786W        W18730  26.560   6.252   5.094
54787W        W18731  38.852  22.039  11.913
54788W        W18732  35.375   6.279  12.843
54789W        W18733  27.062  11.208  11.420
54790W        W18734  11.256  39.475  13.406
54791W        W18735  33.110  35.025  11.552
54792W        W18736  32.467  18.761  13.412
54793W        W18737   0.849  31.571   4.801
54794W        W18738  24.978  43.329   5.167
54795W        W18739  35.927  36.371   4.145
54796W        W18740  39.417  34.552   1.884
54797W        W18741  33.452  43.499  13.442
54798W        W18742  32.112  26.047   2.842
54799W        W18743  44.454  31.638   1.853
54800W        W18744  29.485  36.068   1.356
54801W        W18745  43.417  37.010   1.895
54802W        W18746  43.489  21.111   2.390
54803W        W18747  14.271  34.595  10.624
54804W        W18748  42.004   2.956   0.406
54805W        W18749  35.927  29.049  11.991
54806W        W18750   3.449  25.167  14.805
54807W        W18751  42.283  12.824   0.444
54808W        W18752  34.535   9.686   4.764
54809W        W18753   7.195  16.679  12.048
54810W        W18754  35.984  17.675   4.663
54811W        W18755   6.236  28.553  11.419
54812W        W18756  20.067   1.302   1.450
54813W        W18757  15.084  27.034   0.431
54814W        W18758  14.255  33.417   1.883
54815W        W18759  33.412   8.258  12.014
54816W        W18760   5.215  17.273   0.373
54817W        W18761  38.054  17.293  14.294
54818W        W18762   4.217  17.277   0.802
54819W        W18763   2.940  36.591  11.904
54820W        W18764   3.303   6.282   2.749
54821W        W18765  41.347  26.009   2.189
54822W        W18766   9.336  14.326  12.851
54823W        W18767  14.732  25.082   3.155
54824W        W18768  32.983   9.319  10.991
54825W        W18769   9.206   8.398  14.329
54826W        W18770  20.028  14.761   1.406
54827W        W18771  23.007  15.190   1.273
54828W        W18772  21.535  39.827   1.420
54829W        W18773   2.237   9.252  13.007
54830W        W18774  12.654  17.276   1.848
54831W        W18775  13.222   5.870   1.381
54832W        W18776  23.171   1.437  13.051
54833W        W18777  37.530   8.677   3.219
54834W        W18778  13.712   9.151   3.261
54835W        W18779  23.519  32.460   3.366
54836W        W18780  24.992  40.000   0.261
54837W        W18781  40.523  32.088  12.044
54838W        W18782  30.545   8.837  13.812
54839W        W18783   1.767  31.924   3.858
54840W        W18784  33.023  40.854   3.850
54841W        W18785  24.614  42.412   4.833
54842W        W18786  31.110  42.854  13.799
54843W        W18787  31.643  29.920   4.604
54844W        W18788  39.377   1.852   2.283
54845W        W18789   4.801   4.318   4.185
54846W        W18790  24.601  19.222  11.590
54847W        W18791  11.265  22.729  10.950
54848W        W18792  26.075  28.618   3.846
54849W        W18793   8.735  30.988  14.394
54850W        W18794  33.938  44.834  11.033
54851W        W18795  13.284  44.488  11.912
54852W        W18796   9.366  26.994   3.828
54853W        W18797  39.970   7.897  11.398
54854W        W18798  44.437  36.453   0.243
54855W        W18799   0.788  21.638   0.334
54856W        W18800  21.133  18.202  11.931
54857W        W18801  12.130  34.982   2.193
54858W        W18802  42.966  19.166   1.697
54859W        W18803   0.821  44.852   2.223
54860W        W18804  24.217  41.431  11.375
54861W        W18805  10.689  33.903  12.894
54862W        W18806  42.862  25.978  11.375
54863W        W18807  13.163  44.893  11.000
54864W        W18808   5.862  13.347   2.848
54865W        W18809   9.213  17.073  12.364
54866W        W18810  10.382  14.652  14.784
54867W        W18811  35.427  38.564   2.265
54868W        W18812  34.437   4.731  13.454
54869W        W18813   6.693  14.330   2.692
54870W        W18814  40.868  12.776  11.517
54871W        W18815  10.867  28.536   0.317
54872W        W18816  17.203  38.964   0.361
54873W        W18817  44.814  10.144   0.380
54874W        W18818  20.158  30.467   3.740
54875W        W18819  19.634   5.781   1.429
54876W        W18820  15.252  34.873   9.990
54877W        W18821  14.171  34.409  14.374
54878W        W18822  41.850  39.027   4.618
54879W        W18823  40.364  23.525   4.623
54880W        W18824  24.158  37.830  12.473
54881W        W18825  20.557  31.594  14.834
54882W        W18826  27.086  33.382   2.397
54883W        W18827  21.579  34.952  12.955
54884W        W18828  40.818   1.329   0.451
54885W        W18829  18.058  44.771   4.825
54886W        W18830  14.702  12.612   2.201
54887W        W18831  20.162  44.478  12.525
54888W        W18832  35.917  32.062   1.245
54889W        W18833   8.342  26.007   2.852
54890W        W18834  30.534  33.124  13.980
54891W        W18835  24.566  29.636   0.284
54892W        W18836  39.917  41.381  11.080
54893W        W18837  42.959   1.929  11.060
54894W        W18838  41.817  14.209   3.344
54895W        W18839  26.060  33.927  13.947
54896W        W18840  11.666  29.620  11.972
54897W        W18841  37.451  43.404  10.950
54898W        W18842  15.656  38.837   3.778
54899W        W18843   1.958  41.011   1.382
54900W        W18844   2.426   1.934   5.200
54901W        W18845   8.397  44.270   4.652
54902W        W18846  39.882  21.113   3.322
54903W        W18847  14.598   8.368  13.853
54904W        W18848   7.270   0.451   2.786
54905W        W18849   1.802  25.650  13.853
54906W        W18850   8.819   5.405  11.472
54907W        W18851  19.633  36.552  11.965
54908W        W18852  31.443  21.023   0.297
54909W        W18853  19.572  34.491  10.895
54910W        W18854  41.887   4.864   5.086
54911W        W18855  15.689  13.116  14.031
54912W        W18856  28.931  18.164   4.151
54913W        W18857  10.875  26.005  10.532
54914W        W18858   2.939  42.891   4.694
54915W        W18859  27.045  36.589  11.880
54916W        W18860  18.179  41.903  12.470
54917W        W18861  27.167  40.967  11.113
54918W        W18862  20.140  32.518  14.417
54919W        W18863   4.907  13.279   3.372
54920W        W18864  26.672  18.202   0.424
54921W        W18865  36.863  39.982  14.825
54922W        W18866  42.492  20.661  12.826
54923W        W18867  15.107  17.236   2.382
54924W        W18868  17.692  18.116  10.545
54925W        W18869   7.264  23.029  12.017
54926W        W18870  27.117   9.392   0.777
54927W        W18871  26.077   3.355   0.480
54928W        W18872  24.136  23.701  13.497
54929W        W18873   9.750  24.542  10.450
54930W        W18874  34.497  33.924   3.831
54931W        W18875  44.830  42.505   3.156
54932W        W18876  13.789   8.301   1.696
54933W        W18877  28.641   9.715   1.794
54934W        W18878  37.481  41.816  13.366
54935W        W18879   3.282  10.740   3.321
54936W        W18880  40.379  43.785   0.959
54937W        W18881  35.462  18.662   4.312
54938W        W18882  40.868   0.344  10.579
54939W        W18883   6.845  19.056  12.053
54940W        W18884  22.188   0.338  14.319
54941W        W18885  31.648  39.489  12.028
54942W        W18886  24.973  12.133  14.491
54943W        W18887  34.456  19.276   2.408
54944W        W18888  38.861  12.250  13.925
54945W        W18889  41.296  43.853   2.718
54946W        W18890  43.308   4.820  12.380
54947W        W18891  18.571   5.793  14.993
54948W        W18892  27.457  27.573   2.665
54949W        W18893  42.294  43.334  10.620
54950W        W18894  35.910  40.972  10.507
54951W        W18895   1.868  20.636   1.791
54952W        W18896   5.323   1.239  13.920
54953W        W18897  23.143   7.192  13.054
54954W        W18898   9.236  13.614  13.985
54955W        W18899  29.121  32.082   2.205
54956W        W18900  10.827  44.352   2.669
54957W        W18901   0.811  24.696  10.529
54958W        W18902  22.218  33.046  13.823
54959W        W18903  42.505  37.036   4.146
54960W        W18904  19.737  42.339  14.861
54961W        W18905  35.909   6.292  13.016
54962W        W18906   1.315  34.094   2.715
54963W        W18907  33.611  14.779   3.729
54964W        W18908   2.236   4.715   4.128
54965W        W18909  29.570  33.097   0.281
54966W        W18910  16.297   1.750   0.943
54967W        W18911  44.399   1.825   5.304
54968W        W18912   2.848  39.047  11.448
54969W        W18913  37.020  12.116   0.898
54970W        W18914  44.285  19.127   0.249
54971W        W18915   9.664  19.047  12.555
54972W        W18916  39.363  19.739  12.428
54973W        W18917  36.977  25.477  11.607
54974W        W18918   1.803  23.070   2.181
54975W        W18919  28.121  40.547  11.426
54976W        W18920  25.567  10.752  14.834
54977W        W18921  36.476  17.211   1.860
54978W        W18922  29.644  40.515  13.937
54979W        W18923  18.562  18.632  12.431
54980W        W18924  28.975  31.560  14.929
54981W        W18925  40.470  31.456  14.985
54982W        W18926  39.507   0.973   3.634
54983W        W18927  20.047  23.180   3.733
54984W        W18928  13.319  18.098  14.315
54985W        W18929  33.534   2.392  10.640
54986W        W18930  17.190  11.626   2.773
54987W        W18931  31.632  38.832  10.446
54988W        W18932  17.229  11.784  10.535
54989W        W18933  43.829  19.170   1.437
54990W        W18934  13.632   0.345  13.034
54991W        W18935  22.186  19.686  12.916
54992W        W18936   4.817  37.390  11.909
54993W        W18937  17.152  32.969   2.196
54994W        W18938  27.162   9.224  11.012
54995W        W18939  28.118  37.063   4.254
54996W        W18940   1.793  38.916  13.901
54997W        W18941  35.509  39.495   1.221
54998W        W18942  35.378   9.191   4.322
54999W        W18943  30.443  14.800   1.420
55000W        W18944  40.505  37.927   4.120
55001W        W18945  13.812  40.472   0.872
55002W        W18946  23.559  27.034  11.972
55003W        W18947   0.917   9.807  14.430
55004W        W18948  26.110  22.168   3.335
55005W        W18949  18.697  17.066   3.643
55006W        W18950  26.566  35.024  10.968
55007W        W18951  31.975  38.005  12.028
55008W        W18952  42.321  10.284   2.200
55009W        W18953  14.784  30.494   0.804
55010W        W18954   6.368  38.980  10.513
55011W        W18955  40.462  27.681  10.638
55012W        W18956  18.624  36.517   2.342
55013W        W18957  39.434  34.522  13.942
55014W        W18958  23.592  14.098  12.908
55015W        W18959  29.658  24.626   3.799
55016W        W18960  36.400   5.883   3.334
55017W        W18961  29.939  36.578   0.342
55018W        W18962  27.493  42.782   1.424
55019W        W18963   1.857   7.733   2.298
55020W        W18964  32.891  26.151  13.948
55021W        W18965  12.260  21.110   2.693
55022W        W18966   8.393  27.477  13.350
55023W        W18967  25.467  10.237   4.682
55024W        W18968  20.688   1.811  14.994
55025W        W18969  28.126  12.230   0.402
55026W        W18970  34.063   1.366   1.838
55027W        W18971  44.311  39.945  10.427
55028W        W18972  21.553   0.781  12.880
55029W        W18973  29.547  30.419  14.292
55030W        W18974  32.504   2.328  11.866
55031W        W18975  15.657   2.329   0.936
55032W        W18976  36.453  19.591   2.256
55033W        W18977  18.253  42.924  11.940
55034W        W18978   1.790   7.885  10.889
55035W        W18979  39.941  24.152  11.519
55036W        W18980  15.824  12.257  10.621
55037W        W18981  11.685   0.483  13.477
55038W        W18982  19.189  31.072  13.834
55039W        W18983  18.705  20.036   2.753
55040W        W18984  12.697  23.545   0.257
55041W        W18985   6.182   4.932   2.740
55042W        W18986  25.076  15.229  14.917
55043W        W18987   1.420   3.343  12.958
55044W        W18988  23.987  39.362   0.480
55045W        W18989   1.461  31.087  13.450
55046W        W18990  21.242  42.786   3.151
55047W        W18991  41.349  39.407   0.367
55048W        W18992   6.259  15.196  14.892
55049W        W18993  41.903  14.706   3.788
55050W        W18994  35.085  37.035   3.206
55051W        W18995  43.883   0.298  12.843
55052W        W18996  25.980  20.759   0.289
55053W        W18997  36.551  28.952  12.951
55054W        W18998   6.362   1.877  13.345
55055W        W18999  33.586  20.738   4.744
55056W        W19000   4.259  23.690  14.445
55057W        W19001  33.380  13.254  11.536
55058W        W19002  25.486   4.904   2.786
55059W        W19003  30.542  33.380  14.344
55060W        W19004   6.252  37.461  12.043
55061W        W19005  36.369   5.772   9.962
55062W        W19006   3.740   3.412   5.223
55063W        W19007   7.337  27.951  10.541
55064W        W19008   4.762  28.029   0.253
55065W        W19009  26.465  37.962  12.071
55066W        W19010  35.911  22.633   0.481
55067W        W19011   9.268   8.373   3.656
55068W        W19012  15.240  27.568  13.381
55069W        W19013  24.655  37.515   0.409
55070W        W19014  36.922   0.382   0.285
55071W        W19015  13.808  11.318  14.847
55072W        W19016   0.981  11.356  13.399
55073W        W19017   1.414   3.953  10.466
55074W        W19018  38.524  41.836   4.270
55075W        W19019   2.845  44.457  13.515
55076W        W19020   4.875  20.640   3.348
55077W        W19021  16.097  24.171   1.706
55078W        W19022  42.860  13.599  11.408
55079W        W19023   7.746  43.339  12.396
55080W        W19024  22.218  32.964   3.154
55081W        W19025  13.310   5.752  10.944
55082W        W19026  33.595  44.469  12.030
55083W        W19027  23.720  30.527  12.063
55084W        W19028  15.090   0.852  13.396
55085W        W19029  43.425  25.059   3.727
55086W        W19030  31.611  33.019   1.238
55087W        W19031   6.269  29.548   2.900
55088W        W19032  14.770   3.216  14.438
55089W        W19033  28.148   7.257  14.311
55090W        W19034  39.914  24.042  10.429
55091W        W19035  22.160  38.972  11.451
55092W        W19036  29.668  38.468  10.909
55093W        W19037   8.810  10.337   1.246
55094W        W19038  38.059  29.170   1.932
55095W        W19039  43.316  35.915   2.839
55096W        W19040  12.223  20.144   2.178
55097W        W19041   6.321  40.836  13.948
55098W        W19042   6.821  15.754  11.431
55099W        W19043   6.189  29.474  13.467
55100W        W19044  40.990  28.066  10.507
55101W        W19045  20.752  26.160  12.482
55102W        W19046   1.297  23.636   1.896
55103W        W19047  16.221  17.616  10.445
55104W        W19048  27.547   8.196   1.417
55105W        W19049  29.559   3.811  10.425
55106W        W19050   4.377   0.439   1.299
55107W        W19051  11.655   9.682  11.522
55108W        W19052  34.863  11.172  12.419
55109W        W19053  17.750  20.712   3.190
55110W        W19054  35.883   1.393   0.965
55111W        W19055  39.838  30.105  13.886
55112W        W19056  29.959   8.687  11.388
55113W        W19057  38.465   6.734  13.979
55114W        W19058  32.496  28.543   2.208
55115W        W19059  18.610  32.607   1.777
55116W        W19060   3.911  36.547   1.696
55117W        W19061  29.959   0.393   3.842
55118W        W19062  38.998   9.785   2.773
55119W        W19063   9.671   9.230  14.493
55120W        W19064  34.049   6.389  11.561
55121W        W19065  35.930  41.457   0.338
55122W        W19066   0.361  24.588   4.792
55123W        W19067  31.438  30.645  14.502
55124W        W19068  34.898  25.652  14.770
55125W        W19069  44.937  27.022   1.259
55126W        W19070  40.350   5.226   9.928
55127W        W19071  21.157  40.832   4.195
55128W        W19072  43.985  25.024   3.338
55129W        W19073  30.558  26.488  12.533
55130W        W19074  34.569  22.628  14.435
55131W        W19075  35.947   1.781   2.262
55132W        W19076  32.621  12.189   0.776
55133W        W19077  30.924  21.595  11.457
55134W        W19078  12.844  18.722   1.404
55135W        W19079  13.603  16.581  11.984
55136W        W19080  35.504  36.043   0.860
55137W        W19081   4.225  30.991   4.119
55138W        W19082  40.863  23.081  13.333
55139W        W19083  44.973  31.515  12.424
55140W        W19084  42.983  36.534  11.106
55141W        W19085   0.749   7.758   4.744
55142W        W19086  16.746   1.374   3.149
55143W        W19087  31.626  25.099   1.338
55144W        W19088  17.623  40.370  10.569
55145W        W19089  26.170  37.082  11.582
55146W        W19090  32.467   9.850   3.755
55147W        W19091  12.133  44.849  10.049
55148W        W19092  24.081  18.110  12.968
55149W        W19093   6.185  29.654   1.330
55150W        W19094  16.314  40.435  10.011
55151W        W19095  36.537   0.363  11.022
55152W        W19096  15.129  28.674   2.395
55153W        W19097  44.375  18.608   3.208
55154W        W19098   7.296  12.674  11.452
55155W        W19099   4.837   0.752   1.340
55156W        W19100  23.599  30.507  10.960
55157W        W19101  44.822   7.725  10.422
55158W        W19102  42.857  24.707   1.377
55159W        W19103   9.792   8.304  13.353
55160W        W19104  33.055  24.491  13.844
55161W        W19105  21.135  13.252   3.775
55162W        W19106  28.522  36.483  13.412
55163W        W19107  35.011  43.793  14.886
55164W        W19108  26.588  25.523   4.599
55165W        W19109   3.719  27.593   1.701
55166W        W19110   2.415  21.262   1.389
55167W        W19111  22.686  18.178   5.219
55168W        W19112  24.529  17.156   0.879
55169W        W19113   1.747  16.252  11.009
55170W        W19114  41.919   9.708  12.456
55171W        W19115  19.706  33.486  14.479
55172W        W19116   5.216   3.928  14.869
55173W        W19117  34.496   3.910   0.422
55174W        W19118  28.070  34.868   3.794
55175W        W19119  40.389  24.022  12.829
55176W        W19120  44.266  44.924   9.932
55177W        W19121  30.048   6.228   2.888
55178W        W19122  17.241  32.059   4.725
55179W        W19123  16.276   3.790   1.284
55180W        W19124  41.948  27.089   2.220
55181W        W19125  39.357  25.995  10.489
55182W        W19126  30.160  15.809   0.780
55183W        W19127   8.711  22.640  12.425
55184W        W19128  39.928   3.319  14.834
55185W        W19129  21.190  31.081  12.574
55186W        W19130  28.542  27.566  14.770
55187W        W19131  40.879  15.596   1.416
55188W        W19132  29.654  22.553   3.812
55189W        W19133   1.286  35.457   1.752
55190W        W19134  42.966  44.297   2.734
55191W        W19135   5.824  38.843   4.231
55192W        W19136  40.034  31.957   1.304
55193W        W19137  38.405  16.230   4.211
55194W        W19138  20.132  22.543  11.527
55195W        W19139  35.062  44.905  14.867
55196W        W19140  11.197  40.367   3.689
55197W        W19141  39.401  36.919  12.886
55198W        W19142   1.885  30.157  14.924
55199W        W19143   0.447  16.785  10.503
55200W        W19144   9.786  10.254   3.651
55201W        W19145  44.383  32.928   2.765
55202W        W19146  22.080  42.315  12.442
55203W        W19147  20.579   0.792   0.936
55204W        W19148  15.694  30.459  14.898
55205W        W19149   6.888  27.675   4.755
55206W        W19150  23.986  34.531   3.660
55207W        W19151  43.776  26.622   1.910
55208W        W19152  19.189  18.146   1.746
55209W        W19153  12.347  38.434  13.407
55210W        W19154   0.874  17.555   2.377
55211W        W19155  28.494  22.690   1.729
55212W        W19156  40.369  12.650   0.451
55213W        W19157   6.193  30.413  11.433
55214W        W19158  37.870  28.079  12.374
55215W        W19159  30.092  17.104   1.767
55216W        W19160   7.902  36.418   1.716
55217W        W19161   9.334  40.941   3.720
55218W        W19162  27.536  16.704   0.909
55219W        W19163  31.083  42.397  14.488
55220W        W19164   5.696  39.520  11.596
55221W        W19165  41.012   3.247   3.194
55222W        W19166  14.767   9.736   4.643
55223W        W19167  23.034   9.781  13.444
55224W        W19168  18.736  25.618   1.322
55225W        W19169  36.570  34.911  13.472
55226W        W19170  19.193  38.822  13.910
55227W        W19171   3.378  19.191  11.049
55228W        W19172   3.358  44.923   3.851
55229W        W19173   8.182  43.504   0.934
55230W        W19174  38.364  41.488  13.052
55231W        W19175  30.468  26.540   4.779
55232W        W19176   3.717  10.166   1.435
55233W        W19177  27.157  29.082   4.648
55234W        W19178  32.966  32.911   3.226
55235W        W19179  16.660   9.834  11.494
55236W        W19180   4.318  20.225   0.944
55237W        W19181  19.650  41.337  11.952
55238W        W19182   4.897  36.853   2.795
55239W        W19183  44.472  11.179   3.674
55240W        W19184  43.368  28.650   3.805
55241W        W19185  10.314  14.157  12.359
55242W        W19186  19.686  25.022   4.660
55243W        W19187  32.441  23.628   0.924
55244W        W19188  16.718   1.791   3.660
55245W        W19189  26.083  31.607  14.020
55246W        W19190  25.177  12.714  14.824
55247W        W19191   4.783  32.562   1.414
55248W        W19192  38.358  15.176   4.614
55249W        W19193  15.239  21.203  12.061
55250W        W19194  32.446  39.506   1.800
55251W        W19195  24.121  15.764   4.334
55252W        W19196   1.259  25.064   0.885
55253W        W19197   6.239  39.489  11.451
55254W        W19198  24.061  43.969  10.436
55255W        W19199  12.636  12.618  11.950
55256W        W19200  42.310   3.884   0.862
55257W        W19201   3.291  35.028  11.575
55258W        W19202  10.189  25.134  12.086
55259W        W19203  14.758  17.650   3.633
55260W        W19204  28.460  41.003  14.438
55261W        W19205  14.149  44.373  14.446
55262W        W19206  27.531  16.089   3.789
55263W        W19207   2.314  29.436  11.600
55264W        W19208  31.910   0.336   9.959
55265W        W19209  25.574  22.511   3.296
55266W        W19210  38.844  23.132   2.344
55267W        W19211   5.252  27.120   0.820
55268W        W19212  24.599  42.290  12.562
55269W        W19213  17.106   7.815   1.320
55270W        W19214  12.844  36.029   4.170
55271W        W19215  12.117  28.932  14.885
55272W        W19216  38.387   9.243   0.783
55273W        W19217   7.249  35.085   2.392
55274W        W19218  16.638   2.742   0.882
55275W        W19219   5.378  41.016  11.902
55276W        W19220  15.636   2.962   3.642
55277W        W19221   0.793  33.549  11.991
55278W        W19222  28.531  10.372  11.940
55279W        W19223  40.476  23.201  13.995
55280W        W19224   2.415  32.885   2.232
55281W        W19225  31.525  37.384   1.882
55282W        W19226  17.587   9.735   3.803
55283W        W19227   5.768  22.997   1.801
55284W        W19228  38.351  36.471   0.796
55285W        W19229  20.565  42.473  12.343
55286W        W19230  21.549  16.610  11.533
55287W        W19231   0.920  37.069   0.826
55288W        W19232  39.354   8.707   2.299
55289W        W19233  24.069  12.342   2.771
55290W        W19234  44.789  26.650   1.796
55291W        W19235  22.997   4.393  12.439
55292W        W19236   2.240  31.127   0.862
55293W        W19237  15.229  32.944   1.442
55294W        W19238  40.914  19.046   0.269
55295W        W19239  24.641   0.925  10.590
55296W        W19240  28.638  20.034  11.126
55297W        W19241  13.213  24.623   2.806
55298W        W19242  16.594  12.751   2.732
55299W        W19243  12.828   4.713   2.309
55300W        W19244  32.531  31.575   3.754
55301W        W19245  39.014   6.290   4.196
55302W        W19246  32.887   7.347   0.429
55303W        W19247  39.939  36.034   0.288
55304W        W19248  40.995   7.690  13.835
55305W        W19249  30.092  38.502   3.337
55306W        W19250  44.348   3.338   3.159
55307W        W19251  28.538  36.531   1.267
55308W        W19252  22.740   8.189  13.477
55309W        W19253  29.005  32.090  12.381
55310W        W19254  31.093  18.680   0.754
55311W        W19255  33.516  18.273   2.242
55312W        W19256  27.162   0.912  12.964
55313W        W19257  34.953  25.110  13.883
55314W        W19258  13.742  32.527  10.127
55315W        W19259  28.562  18.745   1.314
55316W        W19260  40.396  27.086   3.861
55317W        W19261  12.125  26.623  12.917
55318W        W19262  26.983  41.326  12.430
55319W        W19263  18.559  25.098   1.365
55320W        W19264  34.972  41.439   0.286
55321W        W19265  15.126  20.104  12.864
55322W        W19266  38.996  23.120  11.551
55323W        W19267  34.005   6.243   2.716
55324W        W19268   1.328  17.207  14.290
55325W        W19269  21.196   3.336   2.404
55326W        W19270  10.651  26.005  13.476
55327W        W19271  32.001  14.794   2.716
55328W        W19272  39.978   0.373  11.985
55329W        W19273   8.314  36.985  13.525
55330W        W19274  29.051  14.777   3.848
55331W        W19275   3.723  26.185  13.023
55332W        W19276   7.805  43.452   4.245
55333W        W19277  21.176  35.109   3.193
55334W        W19278   0.968  43.516  13.508
55335W        W19279  10.328  36.470   5.178
55336W        W19280  26.061   7.218   1.263
55337W        W19281  22.554  42.456   3.159
55338W        W19282  16.155  32.398   1.244
55339W        W19283  38.547   6.191   5.781
55340W        W19284  15.264   7.286   1.880
55341W        W19285  20.708  22.157   2.229
55342W        W19286   2.929  39.879  14.774
55343W        W19287  42.410  21.529  10.591
55344W        W19288   0.302  35.513   0.313
55345W        W19289   9.309  20.694   0.951
55346W        W19290  40.857  31.120  12.085
55347W        W19291   0.357  24.002   2.677
55348W        W19292  26.170   6.288   0.889
55349W        W19293   4.866  21.721   1.384
55350W        W19294  23.646  34.587   0.897
55351W        W19295   5.429   7.745  13.423
55352W        W19296   6.418   2.735   3.801
55353W        W19297  14.657   7.371   0.443
55354W        W19298  20.703   5.347   3.818
55355W        W19299  13.605  39.889  10.539
55356W        W19300  15.291  27.012   1.338
55357W        W19301  42.943  39.014   4.165
55358W        W19302  14.121   3.288   0.276
55359W        W19303  33.513  10.205  13.806
55360W        W19304   9.363  24.011   1.852
55361W        W19305  33.988  36.978  12.081
55362W        W19306  42.013  12.324   3.301
55363W        W19307  43.467  38.936  11.930
55364W        W19308  10.319  33.573   5.322
55365W        W19309  27.140  41.905  12.834
55366W        W19310  18.791  11.660   0.368
55367W        W19311  25.554  43.774   2.899
55368W        W19312  41.040  13.129   0.840
55369W        W19313  16.771  40.467   0.476
55370W        W19314   4.747  31.898  12.945
55371W        W19315  19.059   6.386   2.265
55372W        W19316  42.800  29.467  11.906
55373W        W19317   5.222  10.787  10.564
55374W        W19318   6.301  33.571   2.221
55375W        W19319  21.706  30.098  11.517
55376W        W19320   8.366  17.672   0.909
55377W        W19321   4.702  30.642  12.367
55378W        W19322  33.019   4.338   3.847
55379W        W19323  24.674  15.759   1.358
55380W        W19324  22.658  14.772  11.475
55381W        W19325  44.865  10.723   0.733
55382W        W19326  29.990  35.544  12.955
55383W        W19327  25.982  17.074  14.337
55384W        W19328   3.756  12.675   4.706
55385W        W19329   1.469   0.899   0.438
55386W        W19330  34.923  18.619  12.520
55387W        W19331  35.955  22.525   4.608
55388W        W19332   9.781   9.260  10.417
55389W        W19333  28.568   8.803   4.650
55390W        W19334  27.976  14.308  10.922
55391W        W19335  33.077  39.005   0.251
55392W        W19336  40.438  18.070   3.372
55393W        W19337  10.259  16.247   1.410
55394W        W19338   2.448  26.980   4.241
55395W        W19339  33.425  28.483  10.977
55396W        W19340  36.531  42.852  12.493
55397W        W19341  36.351  24.221   0.289
55398W        W19342  27.985  23.006   3.783
55399W        W19343  18.750   1.737   0.937
55400W        W19344  37.561  28.500  12.464
55401W        W19345  16.687  11.647  13.971
55402W        W19346  21.183  44.346   2.889
55403W        W19347  26.475   0.955  12.968
55404W        W19348  16.275  30.051  13.059
55405W        W19349  23.987   8.732   2.849
55406W        W19350  44.384  23.532   3.735
55407W        W19351   6.715  23.050  12.080
55408W        W19352  34.988  37.869   2.303
55409W        W19353  37.380  22.629   1.223
55410W        W19354   7.319  36.587   2.321
55411W        W19355  38.558  31.048   2.807
55412W        W19356   4.386  16.306  11.079
55413W        W19357  40.976   5.415   2.348
55414W        W19358  42.282  38.397  14.908
55415W        W19359  42.910  34.984  14.396
55416W        W19360   3.792  36.966   4.306
55417W        W19361   4.917   6.260   9.602
55418W        W19362  30.582  39.348   0.944
55419W        W19363  22.190   2.457   3.805
55420W        W19364  44.769  22.591  11.477
55421W        W19365  31.571  24.496   3.183
55422W        W19366  14.170  29.523  11.119
55423W        W19367   8.317   1.789   2.746
55424W        W19368  37.041  23.506  10.411
55425W        W19369   1.899  23.701  13.919
55426W        W19370   8.311  38.018   1.900
55427W        W19371  14.674  11.314  12.382
55428W        W19372  33.121  14.223   1.385
55429W        W19373  11.342  28.460   2.770
55430W        W19374  33.504   8.325  14.761
55431W        W19375   7.224  10.341   5.243
55432W        W19376  30.644  35.545  11.999
55433W        W19377  33.490  39.928  14.011
55434W        W19378  23.222  29.167   3.313
55435W        W19379  37.084   6.755   9.941
55436W        W19380  20.137  17.131  11.020
55437W        W19381  19.220  41.025   0.377
55438W        W19382  11.309   7.237   2.856
55439W        W19383  28.598  16.274   2.676
55440W        W19384  14.198   0.305  13.033
55441W        W19385  20.161  22.681   0.422
55442W        W19386  41.869   7.692   4.324
55443W        W19387  13.178  43.877   3.371
55444W        W19388  11.641  31.063  14.339
55445W        W19389   2.453   8.314  13.321
55446W        W19390  41.538   8.685   0.255
55447W        W19391  34.864  11.681  11.549
55448W        W19392  21.678  30.490  11.911
55449W        W19393  24.482  10.857  13.347
55450W        W19394   7.685  15.200   1.401
55451W        W19395  16.774  12.313  14.918
55452W        W19396  26.961   6.377   0.380
55453W        W19397  14.191  43.928  14.002
55454W        W19398  34.459  14.703  13.359
55455W        W19399   2.290  33.411   0.913
55456W        W19400  16.591  17.294  11.540
55457W        W19401  26.489  31.133  12.486
55458W        W19402  24.568  21.052   3.153
55459W        W19403  25.568   3.356   3.200
55460W        W19404  39.972  23.574   4.760
55461W        W19405  16.168  28.153  12.388
55462W        W19406  42.883  37.042  12.093
55463W        W19407  33.441  16.804  11.524
55464W        W19408  29.536  41.816   3.328
55465W        W19409  21.059  17.767  13.915
55466W        W19410  42.006  24.035   0.386
55467W        W19411  38.980  44.809  14.437
55468W        W19412  31.603  25.557  13.831
55469W        W19413  32.954  27.628  11.542
55470W        W19414  22.658   0.742   2.342
55471W        W19415   2.949  32.056   0.754
55472W        W19416  22.532  44.887   2.339
55473W        W19417  16.748  32.959  12.566
55474W        W19418   4.249  16.727   2.713
55475W        W19419  30.554  38.979   2.834
55476W        W19420   8.666  14.593   9.644
55477W        W19421   6.284  34.435  10.553
55478W        W19422   0.824  34.964  14.312
55479W        W19423  37.862   5.765  14.426
55480W        W19424  24.055  21.224  10.576
55481W        W19425   2.869  17.613   3.163
55482W        W19426   4.284  24.652   2.839
55483W        W19427   6.827  14.713   3.751
55484W        W19428  44.384   4.848   0.893
55485W        W19429  39.048  17.115  11.581
55486W        W19430  38.540   5.361  11.010
55487W        W19431   7.885  16.632  14.323
55488W        W19432   1.345   4.761   4.662
55489W        W19433  16.785  28.960   2.378
55490W        W19434  38.828  13.230  13.045
55491W        W19435   8.406  16.078   2.839
55492W        W19436  42.862  13.298  11.981
55493W        W19437  39.053   8.737  12.374
55494W        W19438  21.234   3.844  12.964
55495W        W19439  27.651  23.192   0.337
55496W        W19440  42.913   9.750   1.226
55497W        W19441  41.328   5.889   1.344
55498W        W19442   4.252  30.477   2.844
55499W        W19443  35.435  26.020   2.398
55500W        W19444   5.286   6.332  14.936
55501W        W19445  41.490   8.330  12.828
55502W        W19446  11.373  21.246  13.038
55503W        W19447  21.645   5.366   1.908
55504W        W19448   7.713  44.408   0.428
55505W        W19449  13.639  39.536   4.347
55506W        W19450  15.774   0.848   2.401
55507W        W19451  12.127  37.392  13.977
55508W        W19452   8.884  29.481   4.307
55509W        W19453   5.418   9.662  13.542
55510W        W19454   2.229  28.078  14.784
55511W        W19455   4.904  17.149   0.472
55512W        W19456  16.286  44.264  13.805
55513W        W19457  26.052  43.355   3.298
55514W        W19458  44.976   2.812  12.987
55515W        W19459  38.825   9.326  12.942
55516W        W19460  20.096  43.861  12.455
55517W        W19461  43.826  37.040   4.609
55518W        W19462  27.069   8.834   2.314
55519W        W19463  14.105  12.654  14.967
55520W        W19464  30.419  30.560  14.019
55521W        W19465  38.491   8.321  12.025
55522W        W19466  18.650  31.470   0.438
55523W        W19467  25.503  11.156   3.241
55524W        W19468  14.607  43.956  10.472
55525W        W19469  19.711  21.562   4.268
55526W        W19470  41.824  13.113  14.949
55527W        W19471  25.994  23.036  14.882
55528W        W19472  32.111   4.371  14.468
55529W        W19473  15.121  23.121  12.515
55530W        W19474   4.902  29.495   5.106
55531W        W19475  41.989  14.258   1.326
55532W        W19476  27.540  10.196   4.790
55533W        W19477  23.654  15.220   3.151
55534W        W19478  38.977  29.606  13.920
55535W        W19479   6.904  32.614   0.483
55536W        W19480  31.537  28.674  11.470
55537W        W19481  29.538  18.774  14.008
55538W        W19482  34.371  36.573   4.281
55539W        W19483  35.403  15.147  14.300
55540W        W19484  14.332   1.908   3.864
55541W        W19485  13.216  41.511  11.095
55542W        W19486   3.258  40.989  13.952
55543W        W19487  15.713  15.640  14.904
55544W        W19488  23.020  35.089  11.085
55545W        W19489  44.401   9.705  11.493
55546W        W19490  23.553  33.419  14.508
55547W        W19491  10.270  29.612  11.451
55548W        W19492   4.206  22.589  12.577
55549W        W19493  29.575   9.664   2.410
55550W        W19494   6.790  38.045   2.744
55551W        W19495   7.690   4.807   3.781
55552W        W19496   2.882   5.362   3.278
55553W        W19497   1.940  30.980   1.345
55554W        W19498  41.385  43.277  11.477
55555W        W19499  10.792   9.343   4.140
55556W        W19500  12.823  20.216  14.770
55557W        W19501   2.798   2.850  13.912
55558W        W19502  24.065  37.867  10.591
55559W        W19503   4.274  31.897  12.344
55560W        W19504  34.877   6.721   1.307
55561W        W19505  20.250  17.621  13.924
55562W        W19506  35.854  30.591   4.248
55563W        W19507  18.261  10.226   2.704
55564W        W19508  24.016  32.402   1.280
55565W        W19509   2.389  43.411   1.709
55566W        W19510  15.312  37.505  13.941
55567W        W19511   7.202   4.750  14.833
55568W        W19512  21.262  43.485  14.914
55569W        W19513  26.587  22.127   4.353
55570W        W19514  23.648  26.675  14.413
55571W        W19515  21.202   3.830  12.089
55572W        W19516   7.784   8.696   4.771
55573W        W19517  12.755  17.190  12.904
55574W        W19518  27.663   1.890  12.871
55575W        W19519  37.551  17.565  10.978
55576W        W19520  18.101  30.628   4.619
55577W        W19521   1.454  36.526   4.133
55578W        W19522  41.799  18.724  11.067
55579W        W19523  37.853   1.478   1.437
55580W        W19524  38.056  19.068  13.499
55581W        W19525  30.433  13.824   0.769
55582W        W19526  15.670  39.452  13.867
55583W        W19527  19.064  32.493   3.153
55584W        W19528  35.087  16.090  10.443
55585W        W19529  12.316  19.619  12.481
55586W        W19530  29.966   9.272  12.969
55587W        W19531  11.200  28.943  13.503
55588W        W19532  24.564  12.209   1.715
55589W        W19533  15.114   5.701  14.410
55590W        W19534  19.123   6.869   0.288
55591W        W19535  29.132   8.239   2.806
55592W        W19536  17.149  28.530   3.781
55593W        W19537  39.900   8.347  13.427
55594W        W19538  43.471  11.352  12.857
55595W        W19539  13.623  34.467   3.292
55596W        W19540  20.537   4.865  14.286
55597W        W19541  19.696   0.248   2.368
55598W        W19542  40.842  25.212   1.799
55599W        W19543   3.709  27.561   0.824
55600W        W19544   5.351  30.458   5.194
55601W        W19545   1.845  22.050   0.258
55602W        W19546  41.789   5.859  10.968
55603W        W19547  34.427  36.388   0.300
55604W        W19548   3.948  22.569   2.216
55605W        W19549   6.206  23.080  10.898
55606W        W19550  11.675  23.193  12.561
55607W        W19551  34.025  24.600  14.833
55608W        W19552   5.853  21.665  12.510
55609W        W19553  30.075   7.252  10.609
55610W        W19554  24.115  22.653  11.990
55611W        W19555  10.186  15.821   2.316
55612W        W19556   7.706   1.924   1.217
55613W        W19557  39.917  29.621   2.374
55614W        W19558  16.247  38.980  10.957
55615W        W19559  41.403   0.927   1.402
55616W        W19560   4.337  23.223   1.723
55617W        W19561  36.398  14.285  14.996
55618W        W19562  44.331  31.053   2.851
55619W        W19563  35.963  13.242   2.822
55620W        W19564  40.510   2.745  12.532
55621W        W19565  44.493  34.422  10.526
55622W        W19566  40.041   7.709   3.795
55623W        W19567  20.169  10.669   3.700
55624W        W19568   7.795  23.186   3.751
55625W        W19569   1.327   5.428   1.698
55626W        W19570  13.212  42.326   3.210
55627W        W19571  27.994  32.075   2.884
55628W        W19572  38.505  29.479  11.390
55629W        W19573  18.125  40.475   4.293
55630W        W19574   4.875   9.654  12.941
55631W        W19575  20.071  35.975  12.883
55632W        W19576  22.533  14.219  10.154
55633W        W19577   5.385   7.328   0.945
55634W        W19578  27.183   4.930   2.307
55635W        W19579  24.482  20.057   1.435
55636W        W19580  27.509   8.798  14.021
55637W        W19581  40.477   3.916   3.679
55638W        W19582   0.320  41.931  12.994
55639W        W19583   2.411  17.728   0.384
55640W        W19584   9.287  19.742   4.256
55641W        W19585  42.987  43.405  10.557
55642W        W19586   2.276   5.255   3.807
55643W        W19587  15.309  29.506   4.729
55644W        W19588  29.981  38.437   2.767
55645W        W19589   0.909  38.854  10.488
55646W        W19590  42.315  21.047   4.283
55647W        W19591  35.513  19.189  12.570
55648W        W19592  18.184  22.555  11.010
55649W        W19593   4.751  36.041  14.393
55650W        W19594   6.847  40.855  11.511
55651W        W19595  31.962  16.626   1.722
55652W        W19596  44.785  44.779   1.237
55653W        W19597  29.104   9.731  13.022
55654W        W19598  20.250  18.703   3.193
55655W        W19599  38.528   7.404  14.808
55656W        W19600  37.871  20.273   1.919
55657W        W19601   8.163  26.964   0.769
55658W        W19602  41.537   5.220   0.342
55659W        W19603  38.845  19.622  11.910
55660W        W19604  22.038  12.135   3.352
55661W        W19605  41.818   6.204   3.794
55662W        W19606  33.893  36.369   4.140
55663W        W19607  24.692  31.402  12.406
55664W        W19608  25.187  41.911   0.289
55665W        W19609   3.763  27.025   2.247
55666W        W19610   2.342   5.732  10.591
55667W        W19611  11.179   9.875   1.791
55668W        W19612  10.854  32.625  11.613
55669W        W19613   1.767  22.065   1.821
55670W        W19614   6.758   1.256   4.124
55671W        W19615  11.159  17.205  10.930
55672W        W19616  43.959  37.403  13.427
55673W        W19617   8.878  35.048   4.838
55674W        W19618   0.469  29.140  14.871
55675W        W19619  16.314  36.882  11.611
55676W        W19620  25.111  16.197  12.434
55677W        W19621   0.248  41.460   3.295
55678W        W19622   8.371  18.272   1.896
55679W        W19623   8.341  44.935  12.945
55680W        W19624  22.603  22.505  10.507
55681W        W19625   9.370   2.349  12.999
55682W        W19626  11.714  43.890  10.958
55683W        W19627  15.094  43.768  10.552
55684W        W19628  24.032  24.222  12.486
55685W        W19629  10.863  16.253  11.005
55686W        W19630  43.490  15.676  11.926
55687W        W19631  30.435  36.369  11.610
55688W        W19632  11.237  41.496  11.420
55689W        W19633  42.828  35.016   4.231
55690W        W19634  22.026  37.390   4.788
55691W        W19635  20.098   0.778   5.204
55692W        W19636  35.982  22.237  10.940
55693W        W19637   5.791   8.344   1.894
55694W        W19638  28.588  14.211  13.826
55695W        W19639  44.773  32.527   1.309
55696W        W19640  19.611  16.172  10.950
55697W        W19641  37.508   7.224   4.215
55698W        W19642  25.008  19.129  14.939
55699W        W19643   8.359  23.984   0.964
55700W        W19644   7.808  26.591   5.298
55701W        W19645   0.752  18.637   0.828
55702W        W19646   3.282   2.472   3.667
55703W        W19647  41.377  39.483  12.957
55704W        W19648  22.582  35.929   3.810
55705W        W19649  10.170  16.138   3.725
55706W        W19650  16.668  15.300   0.442
55707W        W19651   4.395   6.826   2.355
55708W        W19652  31.111  42.524  12.526
55709W        W19653  35.518  27.166   1.920
55710W        W19654  44.445  31.522  14.922
55711W        W19655  38.468  12.209   0.395
55712W        W19656  23.041  24.628   3.184
55713W        W19657  19.637  17.165   3.248
55714W        W19658  20.139  20.075  12.439
55715W        W19659  30.956  18.609   1.239
55716W        W19660   0.270  33.592  12.387
55717W        W19661  16.299  34.521   5.240
55718W        W19662   3.746  40.490   4.730
55719W        W19663  28.964  18.079  12.021
55720W        W19664  30.941  21.217  11.502
55721W        W19665  18.115  29.052   3.670
55722W        W19666  15.600  31.532   4.761
55723W        W19667  31.135  38.871  12.349
55724W        W19668  34.912  30.563  13.454
55725W        W19669  28.121  41.958   2.417
55726W        W19670   1.286  30.042  11.127
55727W        W19671  33.580  19.673  14.979
55728W        W19672  10.233  30.088  13.012
55729W        W19673   1.471  29.547  12.853
55730W        W19674  37.447   4.321   3.693
55731W        W19675  27.129  21.746  13.042
55732W        W19676  12.219  39.951   1.830
55733W        W19677  37.455  20.581  13.938
55734W        W19678  35.857  21.230   1.869
55735W        W19679   3.246  27.051   0.961
55736W        W19680   4.210   7.251  10.550
55737W        W19681  31.603  19.042   3.228
55738W        W19682   3.320  43.955  13.900
55739W        W19683  31.960  25.579  14.388
55740W        W19684  26.040  37.011  14.858
55741W        W19685  39.420  12.166  10.932
55742W        W19686  23.112  41.504  14.462
55743W        W19687  35.448  26.606   1.328
55744W        W19688  44.904  35.358   1.710
55745W        W19689  33.466  13.157   4.117
55746W        W19690  34.920  41.794  12.387
55747W        W19691   1.962  34.427   4.339
55748W        W19692  29.114   6.334  10.971
55749W        W19693  36.457  44.452  13.912
55750W        W19694  14.772  11.723   0.917
55751W        W19695  11.652  36.993  13.809
55752W        W19696  22.058  34.583  14.824
55753W        W19697  43.339  39.529  12.473
55754W        W19698  13.603   2.934   5.691
55755W        W19699  28.063  10.858  10.542
55756W        W19700  32.481  10.732   2.858
55757W        W19701  14.272  27.165   4.340
55758W        W19702  35.944  41.815   0.363
55759W        W19703   7.830   2.866  12.561
55760W        W19704  15.171  24.130  11.910
55761W        W19705  17.299  44.313   1.829
55762W        W19706   0.969  34.906  13.944
55763W        W19707   1.252  30.029   1.329
55764W        W19708  41.470  11.842  13.381
55765W        W19709  15.142  27.484  14.015
55766W        W19710  21.758  12.627   3.722
55767W        W19711  15.652  35.519   4.343
55768W        W19712   2.379  17.247  12.467
55769W        W19713  42.967   6.308   0.377
55770W        W19714  20.178   7.286  14.494
55771W        W19715   3.425  20.253  10.422
55772W        W19716  42.473  13.298   3.678
55773W        W19717  41.962  10.366  13.972
55774W        W19718  12.856  37.355   4.122
55775W        W19719  25.185   7.171  11.414
55776W        W19720  40.931  20.115  12.064
55777W        W19721  26.477  42.835   1.442
55778W        W19722  44.861  32.011   2.796
55779W        W19723  30.928  30.986   2.406
55780W        W19724  22.675  23.174  12.932
55781W        W19725  41.849  20.751  12.869
55782W        W19726  30.939   2.721  14.427
55783W        W19727  26.564  21.529   1.869
55784W        W19728   0.303  32.413  13.961
55785W        W19729   9.183  28.011   0.879
55786W        W19730  33.885  16.784  13.025
55787W        W19731  35.441  35.511   2.674
55788W        W19732  28.619  14.774   3.640
55789W        W19733  29.167  43.856   4.240
55790W        W19734  37.517  30.597   4.738
55791W        W19735  40.549  35.078   2.179
55792W        W19736  34.913  22.999  11.877
55793W        W19737  23.587  31.438   0.758
55794W        W19738  36.069  28.574  10.589
55795W        W19739  31.530  28.485   2.760
55796W        W19740  12.700  43.359  14.429
55797W        W19741  26.106  37.505   9.950
55798W        W19742  24.584  24.983   4.654
55799W        W19743  34.577  21.082  12.346
55800W        W19744   2.887  27.465  14.430
55801W        W19745   3.792  37.975  10.910
55802W        W19746  44.845  29.037  11.911
55803W        W19747  34.599  15.754  12.427
55804W        W19748  11.235  43.350   2.200
55805W        W19749  23.671   4.804   2.253
55806W        W19750  29.082  16.276   5.713
55807W        W19751  11.760  11.164  12.353
55808W        W19752  31.593  30.069   1.893
55809W        W19753   3.452  36.083  11.489
55810W        W19754  38.530  35.518  13.308
55811W        W19755   8.307   0.443   3.262
55812W        W19756  29.013  11.335   2.766
55813W        W19757  22.733  39.400  12.492
55814W        W19758   0.265   3.254   0.445
55815W        W19759  25.647   0.262   2.787
55816W        W19760  24.520  38.401  13.827
55817W        W19761  26.199  32.485   3.294
55818W        W19762   4.343   2.330  12.988
55819W        W19763  17.591   5.837  12.830
55820W        W19764  28.668  18.293  10.465
55821W        W19765  37.048  30.102   1.934
55822W        W19766  43.489  22.996   3.188
55823W        W19767   0.463  41.795  11.592
55824W        W19768  29.448  12.651   0.449
55825W        W19769   8.283  30.451  12.348
55826W        W19770   6.907  12.814   0.318
55827W        W19771  35.979   1.411  13.042
55828W        W19772  24.032  12.195  13.443
55829W        W19773  24.509   7.801  13.451
55830W        W19774  37.425  31.974   2.381
55831W        W19775  44.864  42.304   0.435
55832W        W19776  40.479  43.276  10.979
55833W        W19777  44.939   2.314   1.416
55834W        W19778  43.814  44.480  11.418
55835W        W19779  16.576  21.034   3.190
55836W        W19780   5.331   3.216   0.245
55837W        W19781  39.956  23.507  11.082
55838W        W19782  38.856  33.497  13.946
55839W        W19783  42.877  19.591  12.836
55840W        W19784  19.167  20.181   0.798
55841W        W19785  27.947  40.313  12.872
55842W        W19786  10.802  26.520   4.830
55843W        W19787  12.789  36.964   4.699
55844W        W19788   2.939  16.163  10.591
55845W        W19789  14.709  40.536  12.362
55846W        W19790  36.547  42.463   4.830
55847W        W19791  17.109  34.966   0.411
55848W        W19792  12.272  35.885   1.331
55849W        W19793   4.741  14.598  12.471
55850W        W19794  13.722  43.790   3.838
55851W        W19795  34.039  14.317  13.419
55852W        W19796  40.956   1.384   0.917
55853W        W19797  22.610  30.044   2.335
55854W        W19798  14.269   7.389  13.396
55855W        W19799  11.720   3.840   0.419
55856W        W19800  36.578  36.563   4.750
55857W        W19801  41.800   9.312  12.508
55858W        W19802  19.154  11.792   0.315
55859W        W19803  25.166   9.209  12.069
55860W        W19804   3.424  23.617  10.623
55861W        W19805  20.064  41.397   3.329
55862W        W19806   5.703  31.534   4.667
55863W        W19807  39.017  19.160  13.811
55864W        W19808  18.599  42.477   4.241
55865W        W19809  37.482  11.818  12.075
55866W        W19810   0.982   8.802  14.818
55867W        W19811  16.282  14.197  11.053
55868W        W19812  21.623   9.151   4.833
55869W        W19813   8.320  19.137  12.458
55870W        W19814  19.247  23.172   3.629
55871W        W19815   0.449  41.384  14.913
55872W        W19816  10.258  13.288   1.418
55873W        W19817  33.078  42.369   3.206
55874W        W19818  10.363  28.547  14.812
55875W        W19819  16.652   8.164  14.452
55876W        W19820   8.258  13.837   3.727
55877W        W19821  16.569  12.130   4.166
55878W        W19822  15.800  13.180  11.971
55879W        W19823   9.659  44.267   2.778
55880W        W19824  28.952  19.128  13.483
55881W        W19825   6.282  25.163  12.043
55882W        W19826   8.753  17.696  14.918
55883W        W19827  21.577  31.645  11.590
55884W        W19828  34.034  37.550  13.337
55885W        W19829  38.991  26.616   3.172
55886W        W19830  18.250  35.567   4.760
55887W        W19831  44.375   4.926   4.348
55888W        W19832  29.058  15.150  14.421
55889W        W19833  41.363   5.798   3.298
55890W        W19834  28.110   4.392   1.263
55891W        W19835  42.846  27.631   0.907
55892W        W19836  11.197  27.606   4.667
55893W        W19837  15.103  16.228   3.187
55894W        W19838   4.834  17.580   3.169
55895W        W19839  41.388  23.993   4.299
55896W        W19840  43.274  19.283   0.940
55897W        W19841   3.257  23.529   0.871
55898W        W19842   2.318  37.961   2.269
55899W        W19843  32.503  21.615  14.302
55900W        W19844  30.514  42.869   4.645
55901W        W19845  32.449   5.269  12.825
55902W        W19846  41.018   5.241  12.532
55903W        W19847  15.643  33.102  12.998
55904W        W19848   9.728  18.270   0.803
55905W        W19849  16.182  42.969  11.903
55906W        W19850  26.995   9.673  11.077
55907W        W19851  30.101  32.622  14.290
55908W        W19852  25.609  22.037  12.828
55909W        W19853  20.165  31.602   3.794
55910W        W19854  31.081  12.303   0.281
55911W        W19855  33.568  27.082   0.365
55912W        W19856   0.353  27.958  10.910
55913W        W19857  25.595   5.883  12.067
55914W        W19858  40.370  13.643   4.206
55915W        W19859  18.647  27.990  10.965
55916W        W19860  38.006  39.976  13.474
55917W        W19861   7.176  40.488   2.311
55918W        W19862   6.256  18.652   0.800
55919W        W19863  24.616  39.822  12.413
55920W        W19864   4.865  40.827  14.904
55921W        W19865  11.302  36.389  12.875
55922W        W19866  31.512  44.905   2.795
55923W        W19867  36.578  17.121   4.650
55924W        W19868  42.440  41.979   3.773
55925W        W19869   5.849  40.475   4.350
55926W        W19870  33.026   9.791  12.931
55927W        W19871   1.390  42.458   2.417
55928W        W19872   3.332  25.559  14.848
55929W        W19873  10.307  39.551  11.093
55930W        W19874   3.936  25.523  14.340
55931W        W19875   6.787  43.336   3.274
55932W        W19876  25.467   5.796   3.345
55933W        W19877   4.394  42.782  11.075
55934W        W19878  13.786  25.967   1.807
55935W        W19879  27.564   9.160   4.709
55936W        W19880  36.452   1.893  14.935
55937W        W19881  34.435  11.282  12.084
55938W        W19882   9.333  36.488   3.294
55939W        W19883  20.263  28.027  11.043
55940W        W19884  26.038  41.483   1.750
55941W        W19885  23.577  16.301  14.018
55942W        W19886  15.712  13.317   4.159
55943W        W19887  43.322  37.537  11.384
55944W        W19888  21.526  35.587  14.321
55945W        W19889  41.488  21.517  12.472
55946W        W19890  13.608   0.888   0.353
55947W        W19891   5.724   2.733   2.843
55948W        W19892  28.164  30.984  10.980
55949W        W19893  29.039  43.864  10.922
55950W        W19894  22.629  44.954   4.345
55951W        W19895  25.652  30.089  14.794
55952W        W19896  12.747  24.624  12.396
55953W        W19897  40.846  33.079  11.108
55954W        W19898  24.072  18.776  13.004
55955W        W19899  18.053  44.905  14.866
55956W        W19900   9.242  44.821   1.726
55957W        W19901  20.763  12.833  10.919
55958W        W19902  15.249  42.833  12.882
55959W        W19903  12.142  30.119  11.884
55960W        W19904  34.025  15.585  12.973
55961W        W19905  28.069  40.034   3.633
55962W        W19906  42.991  25.123   3.822
55963W        W19907  27.110  32.901   1.777
55964W        W19908  14.815  17.799  14.403
55965W        W19909  42.960  37.036  13.809
55966W        W19910  42.364  24.620   3.357
55967W        W19911  28.559  34.401   1.696
55968W        W19912  37.919   8.729  13.062
55969W        W19913   8.807  41.475  11.910
55970W        W19914  15.234  24.039   4.825
55971W        W19915  25.060  28.084  14.303
55972W        W19916  29.046  29.928  14.373
55973W        W19917  40.535  27.673  14.369
55974W        W19918  12.277  22.599   2.335
55975W        W19919  17.608   6.279   5.310
55976W        W19920  23.618  18.786   0.245
55977W        W19921  29.578  21.701  14.438
55978W        W19922  32.945  38.336   4.729
55979W        W19923  16.088   4.333   3.313
55980W        W19924  41.034  40.954  11.924
55981W        W19925  24.534  37.897  10.905
55982W        W19926   1.761  27.102   3.734
55983W        W19927   2.839   1.275   4.661
55984W        W19928   1.793  24.678   4.631
55985W        W19929   6.860   7.796   2.270
55986W        W19930  44.317  22.019  14.777
55987W        W19931  20.215   1.307   0.823
55988W        W19932  16.292  34.608  14.465
55989W        W19933  17.101   8.859   2.328
55990W        W19934  24.695  43.439   3.665
55991W        W19935  14.264  33.012  12.853
55992W        W19936  39.313  13.816   1.266
55993W        W19937  37.545  26.103  12.480
55994W        W19938   3.395  15.254  11.427
55995W        W19939  35.870   0.483   0.836
55996W        W19940  40.381  36.091  11.983
55997W        W19941  22.069   5.717   3.333
55998W        W19942  33.073  20.660   1.427
55999W        W19943   2.366  20.176  13.413
56000W        W19944   7.318  24.200   1.808
56001W        W19945  31.086  35.394  14.962
56002W        W19946  12.854  38.365  10.588
56003W        W19947  27.998  11.748  11.037
56004W        W19948  24.502   7.835  10.438
56005W        W19949  17.123  39.948   2.758
56006W        W19950  26.587   0.936  12.080
56007W        W19951  39.814  30.599  12.578
56008W        W19952  19.603  34.442   3.710
56009W        W19953  31.456  39.896  13.491
56010W        W19954  21.167  22.123  11.091
56011W        W19955  16.681  28.556   0.843
56012W        W19956  31.950  18.217  13.357
56013W        W19957  25.044  26.674   3.226
56014W        W19958  20.726   2.923  11.041
56015W        W19959  43.442  17.102   0.473
56016W        W19960  16.780  16.125   4.148
56017W        W19961   2.234   9.715  14.374
56018W        W19962   9.803  18.636  11.442
56019W        W19963  34.075   6.887  12.501
56020W        W19964   0.885  21.102   3.722
56021W        W19965  10.868  32.562   2.221
56022W        W19966  12.318  21.540   3.262
56023W        W19967  14.254  30.060   1.772
56024W        W19968  18.089  14.732  10.532
56025W        W19969  39.049  10.223  11.529
56026W        W19970   9.761  25.088  12.559
56027W        W19971   4.853  39.013  14.398
56028W        W19972  39.017   9.241   1.704
56029W        W19973  20.683  18.129  13.801
56030W        W19974  21.690   8.840  14.444
56031W        W19975  23.550  16.592  14.011
56032W        W19976  38.443   7.249  13.031
56033W        W19977  17.778  36.576   4.794
56034W        W19978  19.285  16.707  12.580
56035W        W19979  21.652  32.481   4.622
56036W        W19980  32.410   1.959  13.813
56037W        W19981  25.012  25.112   2.385
56038W        W19982  31.483  38.942   2.373
56039W        W19983  30.067   9.273   2.688
56040W        W19984  27.014  37.358  12.973
56041W        W19985  38.547  37.086  13.905
56042W        W19986   8.235   0.464   4.329
56043W        W19987  25.191  38.345  13.324
56044W        W19988  41.851  28.099  10.638
56045W        W19989  40.879  27.549  11.376
56046W        W19990  32.575  40.869   3.213
56047W        W19991  44.759  34.918  14.471
56048W        W19992   5.227   1.315  11.605
56049W        W19993  40.438  14.767  12.884
56050W        W19994  31.976  35.447  13.916
56051W        W19995   0.393   2.943   3.235
56052W        W19996   1.922  20.677   2.374
56053W        W19997  23.167  25.703  11.099
56054W        W19998  33.604   5.392  11.025
56055W        W19999  27.123  14.750   0.346
56056W        W20000  34.561   0.869  10.479
56057W        W20001  34.932  35.468  14.878
56058W        W20002  10.772   1.362  12.495
56059W        W20003  10.728  24.652  11.929
56060W        W20004  23.028   3.293  13.332
56061W        W20005  19.549   2.858   4.340
56062W        W20006  42.802  42.407  13.948
56063W        W20007  36.366   1.874  11.899
56064W        W20008  37.914   7.732   0.456
56065W        W20009  14.665  40.827  12.057
56066W        W20010  39.021  29.475  12.419
56067W        W20011  36.951  33.946   2.226
56068W        W20012  40.824  10.824   2.786
56069W        W20013  10.204  10.865  11.887
56070W        W20014  25.599   5.244  13.010
56071W        W20015   6.703  42.304   4.611
56072W        W20016  24.564  11.854  11.589
56073W        W20017  19.646  19.123  10.599
56074W        W20018  21.590  15.733   2.360
56075W        W20019  34.908   7.265  14.364
56076W        W20020  44.425  26.673  10.524
56077W        W20021  35.586  26.604   0.865
56078W        W20022  39.054  17.095   0.294
56079W        W20023  37.023   1.339  12.847
56080W        W20024  34.964  22.076   1.848
56081W        W20025   6.820   8.772  14.762
56082W        W20026   0.844  39.402  11.454
56083W        W20027  19.556  44.473  12.858
56084W        W20028  43.304  42.992  14.859
56085W        W20029  41.367  40.533   0.336
56086W        W20030  38.066  33.403  10.919
56087W        W20031  33.951  18.676   0.752
56088W        W20032  11.329  20.711  14.462
56089W        W20033   1.358  11.320  11.498
56090W        W20034  19.275  30.070   0.905
56091W        W20035  23.201  18.590  11.407
56092W        W20036  25.561  16.161  12.412
56093W        W20037   0.483  27.090  12.355
56094W        W20038  29.504  12.303  10.446
56095W        W20039   9.814  29.925  13.908
56096W        W20040   4.944  33.891   0.829
56097W        W20041   8.822  12.132  13.315
56098W        W20042   2.818  18.252   2.295
56099W        W20043  35.436  32.139   3.804
56100W        W20044  18.751  33.411   0.755
56101W        W20045  29.154  13.271  13.811
56102W        W20046  29.434  14.794  10.528
56103W        W20047  44.010   7.320  10.474
56104W        W20048  21.099  12.344  12.431
56105W        W20049  30.047   7.392  12.552
56106W        W20050   5.778  13.277   1.410
56107W        W20051  26.184   3.898  13.342
56108W        W20052  19.562  36.907  14.787
56109W        W20053  39.905  24.538   3.247
56110W        W20054   3.346  35.917   3.177
56111W        W20055  39.010  12.763   1.845
56112W        W20056  30.444  41.468  10.067
56113W        W20057  33.121  31.521  11.076
56114W        W20058  22.034  16.127   2.724
56115W        W20059   0.305  18.751   0.958
56116W        W20060   8.710  27.941  13.543
56117W        W20061  35.055  38.335   0.388
56118W        W20062  41.338  43.366   1.397
56119W        W20063  35.957  36.047  13.383
56120W        W20064   9.168  17.062  13.879
56121W        W20065  16.654  33.886  13.545
56122W        W20066   2.899  11.153  10.460
56123W        W20067   8.790  30.655   2.274
56124W        W20068  44.384  26.647   3.698
56125W        W20069   7.735  14.286  12.467
56126W        W20070   2.230  31.567   3.660
56127W        W20071  42.005  39.366   2.857
56128W        W20072  33.020   1.899  11.104
56129W        W20073  27.012  28.436   1.318
56130W        W20074  26.054  21.209  13.906
56131W        W20075  30.988  32.595  13.448
56132W        W20076  17.659  39.377  14.019
56133W        W20077  15.183  15.638   1.368
56134W        W20078  42.356  42.342  14.920
56135W        W20079   9.302  13.276   1.374
56136W        W20080  24.492  32.055  13.382
56137W        W20081  39.946   6.843   1.717
56138W        W20082  41.874  27.589   1.900
56139W        W20083  16.160   3.825  10.642
56140W        W20084  38.372  43.489  13.483
56141W        W20085  24.143  25.078   5.098
56142W        W20086  16.623  35.509   1.750
56143W        W20087  12.837  32.472   1.297
56144W        W20088  20.178  10.744  12.047
56145W        W20089  28.458  14.817   2.407
56146W        W20090  14.313  27.060  14.364
56147W        W20091  29.596  17.565  11.495
56148W        W20092   1.809  37.503  13.417
56149W        W20093  22.666  12.684   0.257
56150W        W20094  21.543  26.025  11.097
56151W        W20095  43.985   7.330  14.334
56152W        W20096   8.272  22.620  10.635
56153W        W20097  32.073  43.980   3.314
56154W        W20098  28.168  15.686   1.364
56155W        W20099  25.475  21.214   4.650
56156W        W20100  26.481  22.247  12.576
56157W        W20101   2.832  29.459  13.906
56158W        W20102  14.801   4.725  14.276
56159W        W20103  17.065   6.382  14.858
56160W        W20104  23.594  29.921   1.388
56161W        W20105  30.570  17.275   3.334
56162W        W20106  15.581   2.778   1.221
56163W        W20107  24.178  24.161   4.259
56164W        W20108  32.570  40.026   0.755
56165W        W20109   9.348  36.993   4.601
56166W        W20110  36.541  24.081   2.368
56167W        W20111  31.642  27.025  13.816
56168W        W20112  34.400  43.340  10.966
56169W        W20113  43.285  39.500   0.794
56170W        W20114   6.392  33.616  13.001
56171W        W20115  43.879  32.995   4.215
56172W        W20116   1.775   6.696  12.524
56173W        W20117  11.292  15.284  11.427
56174W        W20118  24.671   0.891  12.578
56175W        W20119   6.715  29.465   1.696
56176W        W20120  32.516  31.908  11.934
56177W        W20121  40.890  32.622  14.405
56178W        W20122   4.794  31.505   4.262
56179W        W20123  32.505  28.518  14.907
56180W        W20124   0.388  23.138  11.110
56181W        W20125  39.500  17.677   2.246
56182W        W20126  30.446  15.216   4.677
56183W        W20127  15.316   0.368  12.439
56184W        W20128  10.317   2.811  10.448
56185W        W20129  16.158  20.634  10.415
56186W        W20130  21.645  29.982  14.442
56187W        W20131  37.904  13.797   4.271
56188W        W20132  40.015  32.016  12.450
56189W        W20133  13.130  35.890  12.022
56190W        W20134  26.702   0.301  12.520
56191W        W20135  32.994  33.921  14.024
56192W        W20136   4.862  37.424   2.409
56193W        W20137  27.945  19.095  13.477
56194W        W20138  34.433  24.046  14.309
56195W        W20139  22.670  37.964  11.545
56196W        W20140   7.819  31.944   1.214
56197W        W20141  23.222  35.989  11.988
56198W        W20142  31.094   2.757   0.783
56199W        W20143   7.812  18.216   1.323
56200W        W20144   6.912  20.063  13.336
56201W        W20145   4.359  28.538   3.163
56202W        W20146  23.564   8.784  14.939
56203W        W20147  21.261  43.864  11.099
56204W        W20148  13.771   3.357   5.115
56205W        W20149  32.570   7.266  13.041
56206W        W20150  24.579  21.665  14.930
56207W        W20151  38.358   2.884   3.726
56208W        W20152  13.668  25.094   4.126
56209W        W20153  30.481  20.615   3.660
56210W        W20154   7.382  36.482  12.081
56211W        W20155  24.109  39.492  11.125
56212W        W20156  26.182  16.245  14.330
56213W        W20157  44.414  30.979   1.389
56214W        W20158  17.131   0.493  14.773
56215W        W20159  39.451  42.023   1.756
56216W        W20160  28.501  35.009  11.548
56217W        W20161  30.916   7.340   1.234
56218W        W20162  40.395  16.790   4.290
56219W        W20163  30.104  35.025   4.615
56220W        W20164  18.615  35.565  12.501
56221W        W20165  24.682  42.376  10.907
56222W        W20166  20.212   5.301  14.343
56223W        W20167  37.456  26.635   5.208
56224W        W20168  30.964  43.991  11.509
56225W        W20169  33.066  21.655   3.818
56226W        W20170  44.347  24.055   1.819
56227W        W20171  35.859  21.693  14.866
56228W        W20172  18.646  18.176   0.448
56229W        W20173  44.963  29.102  14.771
56230W        W20174  27.573  30.455   1.787
56231W        W20175  36.349  26.062  10.598
56232W        W20176  39.342  24.083  14.862
56233W        W20177  35.935   3.234   2.892
56234W        W20178  43.953  37.916   2.201
56235W        W20179  38.840  16.155   2.881
56236W        W20180  17.775  44.997   2.306
56237W        W20181  35.913  44.932  12.534
56238W        W20182  20.735  39.465  14.429
56239W        W20183  15.593   9.708   4.260
56240W        W20184  20.565  31.648  10.624
56241W        W20185   5.337  15.672  14.789
56242W        W20186   9.805  32.943  12.919
56243W        W20187  28.138   0.271  12.418
56244W        W20188  20.133  38.057  13.472
56245W        W20189  18.714  24.128   5.795
56246W        W20190  29.658   7.226  10.948
56247W        W20191  41.339  21.124   2.277
56248W        W20192  37.498  43.975   3.171
56249W        W20193  23.114  33.467   3.230
56250W        W20194  29.442  12.184   3.720
56251W        W20195  36.073  21.221  14.010
56252W        W20196   6.762  39.372   1.321
56253W        W20197  44.917  11.643   1.284
56254W        W20198   1.753  24.688   2.201
56255W        W20199  14.313  29.648  13.906
56256W        W20200  17.795   2.908  14.504
56257W        W20201  33.472  13.807  12.940
56258W        W20202  13.732  13.677  13.038
56259W        W20203   4.229  43.376  10.931
56260W        W20204  30.065   4.846   2.685
56261W        W20205  40.922   6.355  10.934
56262W        W20206  10.861   6.311  14.018
56263W        W20207  28.114  41.395  14.793
56264W        W20208  29.102   2.726   3.186
56265W        W20209  16.761  40.975   4.246
56266W        W20210  19.764  44.390  14.772
56267W        W20211  34.396  27.026  13.896
56268W        W20212  14.233  38.994   0.931
56269W        W20213  14.687  22.241   1.438
56270W        W20214  22.251  17.777  11.861
56271W        W20215  40.386  23.216  14.815
56272W        W20216  16.692   6.734  12.397
56273W        W20217  18.736  33.964   5.181
56274W        W20218  34.437  43.819   0.761
56275W        W20219  15.309  10.691   0.787
56276W        W20220   3.360  36.982  13.796
56277W        W20221  20.698  14.096  10.501
56278W        W20222   5.895   0.452   1.837
56279W        W20223  29.125  28.017  10.962
56280W        W20224  29.532  24.490   2.685
56281W        W20225  36.891  20.752  13.045
56282W        W20226  44.764  12.825   2.871
56283W        W20227  36.469  22.719  13.432
56284W        W20228  18.244  14.097  12.444
56285W        W20229  19.712  40.496   4.177
56286W        W20230  35.008  29.557  11.581
56287W        W20231  14.591  37.057  14.462
56288W        W20232   4.738  17.672   4.332
56289W        W20233   4.256   2.235  13.896
56290W        W20234  11.174  17.239  14.894
56291W        W20235  43.460   3.877  11.465
56292W        W20236  22.586  26.672  12.908
56293W        W20237   3.711   1.478   4.194
56294W        W20238  11.323  12.350   3.713
56295W        W20239  35.543  14.191   4.269
56296W        W20240  43.441  16.807   1.375
56297W        W20241  18.704  25.674   5.164
56298W        W20242  22.168  27.582   4.302
56299W        W20243  27.096  41.454  10.621
56300W        W20244  11.246  32.960   3.306
56301W        W20245  29.044  22.187  10.596
56302W        W20246  17.672   3.928  14.007
56303W        W20247  16.663   8.805   1.756
56304W        W20248   6.424  16.729  13.897
56305W        W20249  34.564  25.554  14.932
56306W        W20250  21.169  40.371   3.319
56307W        W20251   2.848  16.266  13.850
56308W        W20252  24.097  22.601   3.816
56309W        W20253  33.622   9.825  13.336
56310W        W20254  15.801  37.528   1.305
56311W        W20255  34.542  31.564  12.538
56312W        W20256  34.410   8.328   3.707
56313W        W20257  30.473  35.533   3.219
56314W        W20258  43.974   7.830  13.930
56315W        W20259  19.224  35.522   0.459
56316W        W20260  29.098  35.548  12.077
56317W        W20261   6.829  40.549   1.713
56318W        W20262  27.047  36.021   2.286
56319W        W20263  39.976  13.798  10.564
56320W        W20264  35.580  11.155   4.311
56321W        W20265   5.347  17.147  13.484
56322W        W20266  24.102  19.662   5.157
56323W        W20267  24.584  38.427   3.750
56324W        W20268  39.855  42.973  12.500
56325W        W20269  20.096   3.244  11.470
56326W        W20270  44.388  28.630   2.178
56327W        W20271  30.636  42.899   1.758
56328W        W20272  19.709  37.851  13.803
56329W        W20273  37.891  31.025  12.043
56330W        W20274  38.059  37.842   4.314
56331W        W20275  22.010  12.777   0.251
56332W        W20276  24.042  16.678  14.827
56333W        W20277   1.472   8.720   2.398
56334W        W20278   8.813   5.813  11.004
56335W        W20279  32.951  42.894  10.624
56336W        W20280  34.426  36.563  13.994
56337W        W20281  38.822   2.361  14.289
56338W        W20282  17.069   7.793  11.511
56339W        W20283  13.751   8.715   3.639
56340W        W20284   0.450  10.275   2.900
56341W        W20285   1.797  37.927   1.777
56342W        W20286  14.718  41.469  14.419
56343W        W20287  15.588   0.293  11.018
56344W        W20288  32.502  34.584  10.480
56345W        W20289  23.082   5.240  10.486
56346W        W20290   5.796  40.411  11.930
56347W        W20291  35.944  16.793  12.019
56348W        W20292   0.421  39.442   4.127
56349W        W20293  37.031  24.003   1.356
56350W        W20294  43.964  26.995  11.481
56351W        W20295  18.273   1.361   3.174
56352W        W20296  40.331  37.356   9.950
56353W        W20297  18.699   9.277  12.039
56354W        W20298   9.871  24.640   4.823
56355W        W20299  40.906  31.515   2.253
56356W        W20300   0.934  22.213  13.386
56357W        W20301   4.940  42.489  14.820
56358W        W20302  41.478  33.494   4.641
56359W        W20303  44.320  43.371   2.884
56360W        W20304  42.984   9.180   0.324
56361W        W20305   1.349   1.930   0.878
56362W        W20306  43.419  11.629  14.456
56363W        W20307  15.819  32.428  14.289
56364W        W20308   0.923  24.724  11.089
56365W        W20309  41.519  44.395  12.933
56366W        W20310  23.552  22.639   1.702
56367W        W20311  10.850  12.278   4.800
56368W        W20312  11.773  31.979  14.829
56369W        W20313  16.220   3.333   1.344
56370W        W20314   2.880   9.268  12.560
56371W        W20315  25.629  19.627  13.338
56372W        W20316  32.443  28.672  10.962
56373W        W20317  11.197   1.750   1.405
56374W        W20318   0.805  31.537  12.898
56375W        W20319  16.243  39.927   3.260
56376W        W20320  27.091  19.179  13.041
56377W        W20321  21.677  10.664  12.438
56378W        W20322  32.016   8.799  13.977
56379W        W20323  15.268  44.882  14.835
56380W        W20324  10.817  20.045  13.862
56381W        W20325   0.284  31.151   4.648
56382W        W20326  11.210  13.725   3.757
56383W        W20327  17.661  42.414   1.363
56384W        W20328   4.937  44.862   4.324
56385W        W20329  44.264  40.928   3.146
56386W        W20330   9.394  36.427  14.307
56387W        W20331   2.355  38.428  14.821
56388W        W20332  17.779  20.247   0.463
56389W        W20333  26.208  36.478   3.190
56390W        W20334  21.151  40.946   3.833
56391W        W20335  16.747   2.457   4.714
56392W        W20336  22.049  21.638   0.422
56393W        W20337  36.998  29.156  14.904
56394W        W20338  14.236  30.524  11.897
56395W        W20339  27.968  22.678  14.884
56396W        W20340  38.969   2.368   0.842
56397W        W20341   6.423  22.215   0.778
56398W        W20342   1.933  38.838   0.333
56399W        W20343  16.081  21.107  12.982
56400W        W20344   4.858  27.490  10.018
56401W        W20345  17.196  25.994  14.882
56402W        W20346  39.368  42.427  10.921
56403W        W20347  29.464   9.717  13.441
56404W        W20348  35.412  41.378  12.832
56405W        W20349  12.308  11.700  11.965
56406W        W20350  41.377  28.594   2.344
56407W        W20351  27.135  12.132  12.478
56408W        W20352  44.302   7.209   2.773
56409W        W20353   9.768  31.406  12.918
56410W        W20354  37.460  22.522   3.675
56411W        W20355  18.656  40.923   0.934
56412W        W20356  20.726  17.234   3.822
56413W        W20357  21.557  11.664  14.297
56414W        W20358  38.559  43.304   0.343
56415W        W20359  16.666  34.369  12.443
56416W        W20360  30.993  20.616  11.373
56417W        W20361  27.486  30.571   4.653
56418W        W20362  37.454  24.673  13.800
56419W        W20363  22.104   5.870  12.077
56420W        W20364  43.464   9.290   4.824
56421W        W20365  15.645  39.856  10.457
56422W        W20366  14.768   2.247  11.603
56423W        W20367   0.385   4.372  10.530
56424W        W20368  16.111   5.813  13.435
56425W        W20369  43.893  31.542   1.730
56426W        W20370  31.975  43.996  13.904
56427W        W20371  41.955  14.205  10.547
56428W        W20372  35.965   0.425   3.180
56429W        W20373  17.163  20.592  11.869
56430W        W20374  35.368  37.340  12.572
56431W        W20375  11.854  26.599  11.059
56432W        W20376  10.785  15.184   0.837
56433W        W20377  42.990  18.576  10.626
56434W        W20378  31.076  40.511  12.479
56435W        W20379  39.956  29.550   1.409
56436W        W20380   9.321  35.020  11.556
56437W        W20381  38.479  43.972   4.749
56438W        W20382  15.191  36.889  12.997
56439W        W20383  17.560  23.086  11.975
56440W        W20384  11.232  17.695   0.443
56441W        W20385   8.764   2.795   0.967
56442W        W20386  18.096  44.807  11.578
56443W        W20387  27.973  19.679   1.904
56444W        W20388  32.955  11.677  11.492
56445W        W20389  41.353  15.810   0.275
56446W        W20390   2.356  43.375  12.015
56447W        W20391   1.867  27.560  14.476
56448W        W20392   6.263  34.007  11.386
56449W        W20393   4.347  29.652   1.872
56450W        W20394  42.912  34.942  14.963
56451W        W20395  30.467  38.828  13.471
56452W        W20396  24.582   7.676   4.801
56453W        W20397  44.349  10.795   4.338
56454W        W20398  31.474  30.043  14.421
56455W        W20399  31.974  18.637   2.227
56456W        W20400  13.806  34.098  13.367
56457W        W20401  28.462  42.811   5.311
56458W        W20402  22.675   4.256  12.872
56459W        W20403  11.143  10.228  12.450
56460W        W20404  28.125  36.456   2.885
56461W        W20405   6.410   1.741   0.920
56462W        W20406  25.065   7.884   3.327
56463W        W20407  38.509  36.403  12.398
56464W        W20408   1.465  33.450  13.018
56465W        W20409  11.308   4.218  13.945
56466W        W20410  10.159  38.553   1.838
56467W        W20411  32.416  25.621  13.455
56468W        W20412   2.952  29.136   1.415
56469W        W20413  10.762  39.870   4.628
56470W        W20414  30.157  15.291  13.400
56471W        W20415  39.383   8.237  12.026
56472W        W20416  44.920  18.560   3.805
56473W        W20417  18.063   4.809  11.097
56474W        W20418  15.258  39.889   4.330
56475W        W20419  32.014   1.419  12.878
56476W        W20420  28.553  35.875  14.292
56477W        W20421  10.678   5.325  10.470
56478W        W20422  22.678  43.412   4.198
56479W        W20423  22.218  10.330  14.872
56480W        W20424  31.010  33.875   0.815
56481W        W20425  34.588  30.563  13.411
56482W        W20426   2.753   1.850   2.788
56483W        W20427  41.423  11.173  14.942
56484W        W20428  34.475  15.162   0.749
56485W        W20429  24.139  44.964   4.168
56486W        W20430  32.975  28.080   0.870
56487W        W20431  39.560  15.605   4.175
56488W        W20432  41.529  22.204  13.806
56489W        W20433   2.289  17.174  13.021
56490W        W20434  39.043  11.332  11.385
56491W        W20435   4.402   9.656   1.324
56492W        W20436  27.502  18.658   1.841
56493W        W20437  30.572   7.171   1.284
56494W        W20438  13.188  17.572  10.403
56495W        W20439  35.046  33.429   1.211
56496W        W20440  23.560  39.315   0.857
56497W        W20441  14.145  24.705   2.760
56498W        W20442   6.791   0.817  11.029
56499W        W20443  11.248   2.356  14.465
56500W        W20444  30.993  37.402  12.538
56501W        W20445  18.769  27.683  12.527
56502W        W20446   2.358  42.942   5.292
56503W        W20447  34.414   3.952   2.723
56504W        W20448  23.527  14.285   4.708
56505W        W20449  30.434  17.107  11.604
56506W        W20450   6.744  38.336   3.244
56507W        W20451  12.665  10.785  12.897
56508W        W20452  34.883  33.953  13.046
56509W        W20453  35.466  38.478  13.836
56510W        W20454  30.967  26.065   4.659
56511W        W20455  21.675  19.071  13.530
56512W        W20456  43.804  34.502  10.552
56513W        W20457  15.094  43.477   4.279
56514W        W20458  37.478  42.894  10.413
56515W        W20459  24.713  14.172   3.730
56516W        W20460   5.689  37.883   1.790
56517W        W20461  44.862  43.460   2.318
56518W        W20462  22.608  31.620   1.384
56519W        W20463  32.390  35.585  14.507
56520W        W20464  44.774  35.570  10.429
56521W        W20465  38.014  12.751  14.993
56522W        W20466  16.125  15.814  13.531
56523W        W20467  14.124  29.655  12.454
56524W        W20468  33.470  25.161  11.503
56525W        W20469  29.618  17.257   2.190
56526W        W20470  34.962  26.519   3.748
56527W        W20471  17.590  38.859  10.633
56528W        W20472   1.831  43.322   3.320
56529W        W20473  44.445  33.498  12.450
56530W        W20474  44.435  21.234   1.423
56531W        W20475  37.424  40.309   0.329
56532W        W20476   7.868  15.813  14.777
56533W        W20477  29.666  38.927  13.455
56534W        W20478  32.463  31.901  10.058
56535W        W20479  42.511   7.773  10.930
56536W        W20480  33.601  25.699  12.846
56537W        W20481  43.846   3.931   1.279
56538W        W20482  32.106  22.555   0.908
56539W        W20483  30.456  37.085   3.758
56540W        W20484  33.442  11.358  12.859
56541W        W20485  30.007   1.792   1.879
56542W        W20486   0.918  13.223  11.381
56543W        W20487  33.401   7.233  13.512
56544W        W20488   2.346  15.722  12.916
56545W        W20489  15.142  22.640   0.440
56546W        W20490   7.414  44.389   2.845
56547W        W20491  27.157  33.527  12.062
56548W        W20492  12.810  13.753  10.574
56549W        W20493   7.313   0.251  13.927
56550W        W20494  19.729  39.990   1.398
56551W        W20495  33.509  21.073  11.463
56552W        W20496  13.245  14.269   1.896
56553W        W20497   9.360  36.052  14.856
56554W        W20498  11.843  41.955  10.549
56555W        W20499  14.112  41.795   2.183
56556W        W20500  39.021  19.130   1.336
56557W        W20501  35.025  33.955  12.028
56558W        W20502  31.042  40.830   3.349
56559W        W20503  31.022  27.559  11.418
56560W        W20504  11.623  13.194  14.424
56561W        W20505  30.100  28.985   1.431
56562W        W20506  36.499  16.124   3.744
56563W        W20507   9.865   5.810   0.727
56564W        W20508   2.742  25.963   1.839
56565W        W20509  35.926   1.765   0.277
56566W        W20510  28.602  15.672   2.834
56567W        W20511  42.915  14.656   1.223
56568W        W20512   8.337   9.322  12.996
56569W        W20513  22.176  11.687  10.573
56570W        W20514  32.020   6.395  14.949
56571W        W20515   5.282  20.634  11.962
56572W        W20516  42.393  21.752   1.929
56573W        W20517  42.836  21.106  13.375
56574W        W20518  37.471  44.390  10.615
56575W        W20519  42.856  16.581   3.178
56576W        W20520  42.455   8.889   2.843
56577W        W20521  24.009  31.450  13.394
56578W        W20522  20.562  28.176  13.498
56579W        W20523  20.533  42.512  13.347
56580W        W20524  27.676  22.078   4.131
56581W        W20525  24.626  24.122   2.848
56582W        W20526   6.775  26.114   4.769
56583W        W20527  38.453  40.835   4.336
56584W        W20528  20.674  38.043  12.358
56585W        W20529  26.487  16.673   1.337
56586W        W20530  31.909  24.006   4.225
56587W        W20531  30.552  28.961   4.328
56588W        W20532  30.421  17.101  10.890
56589W        W20533  16.739   5.321   9.485
56590W        W20534  39.065  26.666  11.609
56591W        W20535  21.023  23.659  14.409
56592W        W20536   1.321  41.463  13.308
56593W        W20537   2.778  20.075   1.274
56594W        W20538  26.050   8.393   1.304
56595W        W20539  12.307  13.330   4.765
56596W        W20540  38.387  22.678   4.114
56597W        W20541  39.810  17.166  12.021
56598W        W20542   1.903   9.743   5.112
56599W        W20543  11.856   4.442  14.477
56600W        W20544   5.394  30.541  12.037
56601W        W20545  34.369   1.810  12.467
56602W        W20546  40.994   3.414   0.458
56603W        W20547  12.258  41.970  14.425
56604W        W20548  29.047   7.251  13.849
56605W        W20549  36.498  14.114   4.282
56606W        W20550  36.361  38.999  13.335
56607W        W20551   5.251   2.419  11.860
56608W        W20552  12.229  31.020  13.510
56609W        W20553  10.289   7.745   3.178
56610W        W20554  28.108  15.283  12.413
56611W        W20555  16.231   7.767   1.336
56612W        W20556   2.241  34.421  11.575
56613W        W20557  41.917   1.382  14.400
56614W        W20558  25.022  23.180  14.984
56615W        W20559  15.128  37.426   4.800
56616W        W20560  26.085  14.717   4.825
56617W        W20561  42.801  31.977  14.299
56618W        W20562  10.143  25.528  13.357
56619W        W20563  13.343  35.527   2.818
56620W        W20564  20.245  43.870  11.068
56621W        W20565  15.620  19.732  13.841
56622W        W20566  41.438  22.638   0.455
56623W        W20567   6.815  34.012   2.267
56624W        W20568  37.482  44.756  10.487
56625W        W20569  30.500  37.419   0.783
56626W        W20570  11.269  16.181   3.725
56627W        W20571  17.654   5.763   1.730
56628W        W20572  38.063   5.930   2.816
56629W        W20573  38.555  15.171   2.307
56630W        W20574  15.735   2.764  14.822
56631W        W20575  33.520   3.234   1.363
56632W        W20576  31.079   8.693  14.337
56633W        W20577   6.210  22.625   2.280
56634W        W20578   5.715  40.367  13.956
56635W        W20579   5.821   3.770   2.814
56636W        W20580  29.549  33.130   1.887
56637W        W20581  43.784  27.170  13.492
56638W        W20582  26.083  36.390   4.809
56639W        W20583  10.646   8.825   2.181
56640W        W20584   2.832  14.266   0.299
56641W        W20585   5.316  22.228   1.863
56642W        W20586  26.642  38.357   3.295
56643W        W20587   6.187  12.272  12.447
56644W        W20588  19.754  11.796   3.843
56645W        W20589  40.832  33.433  13.054
56646W        W20590  11.675  15.145  14.013
56647W        W20591  43.372  10.793   3.852
56648W        W20592  19.685  30.114   4.613
56649W        W20593  14.331  18.256  11.037
56650W        W20594  29.971  10.782  10.554
56651W        W20595  38.043  15.229  10.496
56652W        W20596   8.341  21.169   1.851
56653W        W20597  40.970  13.707  13.826
56654W        W20598  18.296  44.862  11.935
56655W        W20599   0.270  24.610  11.459
56656W        W20600   7.672   4.244   4.223
56657W        W20601  29.934  13.228  10.528
56658W        W20602  43.823  13.845   3.649
56659W        W20603  20.148  22.206   4.740
56660W        W20604  23.501  24.618   1.276
56661W        W20605  26.065  18.153  10.497
56662W        W20606   3.227   4.210   2.269
56663W        W20607  33.040  34.542  12.463
56664W        W20608  42.830  31.502  12.523
56665W        W20609  40.045   8.350   2.413
56666W        W20610   7.857  37.415  14.989
56667W        W20611  25.510   0.988   0.272
56668W        W20612  21.147   1.889  11.414
56669W        W20613  44.350  12.805  13.545
56670W        W20614  16.261   4.825  13.454
56671W        W20615  32.886  30.109  12.051
56672W        W20616  39.853  42.337   1.703
56673W        W20617  42.947   3.457  11.597
56674W        W20618  10.267  43.511   0.902
56675W        W20619   2.911   1.367  12.561
56676W        W20620  33.033   1.269  11.935
56677W        W20621  26.049  32.888  12.909
56678W        W20622  28.130   1.359  12.846
56679W        W20623  40.985   0.761  12.890
56680W        W20624   1.855  27.050  11.426
56681W        W20625  27.056  26.974  13.386
56682W        W20626  24.583  38.867  14.774
56683W        W20627  23.620  30.993  12.872
56684W        W20628  11.214  19.747   2.270
56685W        W20629  28.531  27.628  12.536
56686W        W20630   1.245  13.343   1.426
56687W        W20631  43.840  39.962  14.871
56688W        W20632   1.770  17.690   2.758
56689W        W20633   5.398  10.314  14.988
56690W        W20634  33.996  12.151  11.610
56691W        W20635   0.306   3.729  11.943
56692W        W20636  29.036  16.684   3.751
56693W        W20637  44.401   8.303   1.759
56694W        W20638   3.424  14.314   1.873
56695W        W20639  25.503  33.446   1.419
56696W        W20640  40.813  37.832   3.258
56697W        W20641  21.562   8.783  10.640
56698W        W20642   7.417  26.966   2.671
56699W        W20643  30.918   8.227   4.186
56700W        W20644  27.680  42.377   1.424
56701W        W20645   8.684   2.830   3.763
56702W        W20646  10.314  43.508   5.140
56703W        W20647  13.601  42.413  13.355
56704W        W20648  33.427  10.860   2.675
56705W        W20649  27.682  35.856  13.959
56706W        W20650   4.830  28.545   4.752
56707W        W20651  16.573  44.011  12.433
56708W        W20652  28.434  25.988   1.714
56709W        W20653  34.101   9.345  13.355
56710W        W20654  28.936  35.065  13.040
56711W        W20655  10.861  29.491  11.473
56712W        W20656  33.421  28.593   0.827
56713W        W20657  41.996  15.306   1.834
56714W        W20658  14.293  22.677  11.476
56715W        W20659  37.550  14.149  10.021
56716W        W20660   2.761  33.043  11.962
56717W        W20661  31.978  23.118  10.937
56718W        W20662  28.578  31.096   1.327
56719W        W20663  42.924  22.088  13.841
56720W        W20664   5.843  26.456   3.205
56721W        W20665  25.615   6.350   4.598
56722W        W20666  37.831  23.534   1.699
56723W        W20667   3.420   5.899  14.965
56724W        W20668  27.648  25.630   4.245
56725W        W20669  36.937   0.779   4.117
56726W        W20670  31.537  12.648   4.625
56727W        W20671  13.149  31.057  12.473
56728W        W20672  43.924  32.501  12.079
56729W        W20673  19.620  38.899  12.384
56730W        W20674  21.102  14.825  14.498
56731W        W20675  20.166  19.536   2.348
56732W        W20676  17.263  42.850   0.851
56733W        W20677   6.195  35.055   9.993
56734W        W20678  37.426  16.643  14.948
56735W        W20679   9.159  17.791   4.195
56736W        W20680  28.055  41.388  12.932
56737W        W20681  12.834  28.972   3.691
56738W        W20682  43.811  13.144  14.810
56739W        W20683  16.690  43.329  12.983
56740W        W20684  28.527  36.087   2.771
56741W        W20685  36.996  11.671  10.616
56742W        W20686  13.709  32.088  11.897
56743W        W20687  20.564  34.419  14.016
56744W        W20688  22.668  10.878   0.899
56745W        W20689  25.560  34.105  14.959
56746W        W20690  37.032  20.115  13.894
56747W        W20691  35.927  13.144  12.448
56748W        W20692  43.901  26.040   3.252
56749W        W20693  31.120   4.762   3.310
56750W        W20694   7.843  35.014   1.863
56751W        W20695  28.134  30.436   2.391
56752W        W20696  14.653  40.437  13.412
56753W        W20697  39.413   1.323   5.581
56754W        W20698  39.013   4.882  14.417
56755W        W20699  28.113  31.414  11.563
56756W        W20700  22.501  22.130  13.880
56757W        W20701  32.591  15.213   2.328
56758W        W20702   1.258  38.370  13.521
56759W        W20703   4.363  22.037  12.012
56760W        W20704  16.664   1.928   1.437
56761W        W20705  27.150  36.930  10.537
56762W        W20706  34.397  40.806  11.097
56763W        W20707  17.237  20.185   0.910
56764W        W20708  39.494  27.475  14.011
56765W        W20709  33.600  34.591  12.044
56766W        W20710   2.919  20.744   4.652
56767W        W20711   1.322   2.894  10.923
56768W        W20712   7.756   9.690   4.687
56769W        W20713  32.101  27.650   0.945
56770W        W20714  12.205  40.371  12.400
56771W        W20715  15.777   9.297   0.427
56772W        W20716  40.917   5.231   4.336
56773W        W20717  14.627  14.768  14.882
56774W        W20718  19.116  14.136   2.232
56775W        W20719   0.755  39.476  12.063
56776W        W20720  11.843  33.994   3.632
56777W        W20721  44.426   7.747  14.453
56778W        W20722   0.393  34.515  11.066
56779W        W20723  42.853  31.922  11.020
56780W        W20724  23.124   6.244   3.791
56781W        W20725  39.437  20.536   4.203
56782W        W20726  24.145  41.466  14.820
56783W        W20727   8.826  41.351   1.763
56784W        W20728  24.019  42.436  12.543
56785W        W20729   8.725  23.005   2.401
56786W        W20730  26.576  25.046  11.002
56787W        W20731  23.133   6.427   3.174
56788W        W20732   2.329  16.663   4.718
56789W        W20733   8.224   5.324   2.817
56790W        W20734  22.036  19.151  14.962
56791W        W20735  20.641   9.316   9.961
56792W        W20736  28.008  29.507  12.879
56793W        W20737  11.143  44.972  10.944
56794W        W20738   6.907  24.720   0.748
56795W        W20739  17.621  33.497  13.370
56796W        W20740  36.997  31.577   0.811
56797W        W20741  43.890  10.865  12.051
56798W        W20742  13.611  12.662  14.840
56799W        W20743  36.984  31.428   3.211
56800W        W20744   0.954  14.638   4.162
56801W        W20745  28.120  16.612   0.870
56802W        W20746   8.669   0.831  14.911
56803W        W20747   1.948  14.600   4.632
56804W        W20748  12.131  36.484  14.801
56805W        W20749   8.862   7.355   3.866
56806W        W20750  11.735  22.669  13.828
56807W        W20751  32.920   5.405  13.063
56808W        W20752   6.292  39.001   1.218
56809W        W20753  30.955  17.656  13.938
56810W        W20754  33.451  18.074  10.621
56811W        W20755  25.992  41.392   2.707
56812W        W20756  30.543  43.792   2.255
56813W        W20757   4.709  21.066  10.429
56814W        W20758  35.931  26.087  11.571
56815W        W20759   3.407  25.490   5.226
56816W        W20760  41.868  13.752   4.153
56817W        W20761   2.228   1.977  13.995
56818W        W20762  20.589   8.719  13.040
56819W        W20763  41.417   3.739   3.243
56820W        W20764  41.514  23.650   3.826
56821W        W20765  20.552  42.890  13.462
56822W        W20766  14.292  17.080  13.511
56823W        W20767   4.861  29.544  14.415
56824W        W20768  17.636   6.757  10.919
56825W        W20769  37.894  23.197   0.457
56826W        W20770  38.525  16.796   1.257
56827W        W20771   8.693  14.139  11.858
56828W        W20772   7.193  35.852  12.900
56829W        W20773  22.689  43.491   0.812
56830W        W20774  30.085  18.761  12.989
56831W        W20775   1.787  28.184   4.791
56832W        W20776  14.193  22.161   0.897
56833W        W20777  41.370  31.137   2.348
56834W        W20778  37.488  32.607  13.984
56835W        W20779  18.093  14.211   1.810
56836W        W20780  29.540  26.617  14.417
56837W        W20781  12.651  39.842   0.833
56838W        W20782   2.943  37.476   2.412
56839W        W20783   1.428  18.195   1.759
56840W        W20784  23.218  29.090  11.905
56841W        W20785   7.803  18.252  14.871
56842W        W20786   7.759  21.521   2.693
56843W        W20787   6.840  24.171   2.705
56844W        W20788  29.487  27.649   2.411
56845W        W20789  11.314  10.852  10.993
56846W        W20790  29.022  10.254  10.561
56847W        W20791  18.701  29.649   3.268
56848W        W20792   9.310   2.729   0.959
56849W        W20793  31.053  12.223  11.116
56850W        W20794   2.811  32.611   4.758
56851W        W20795   6.831  44.329  11.979
56852W        W20796   9.701  34.031  11.601
56853W        W20797   9.643  13.131  10.536
56854W        W20798  21.123  28.969  11.481
56855W        W20799  41.964   6.414   0.734
56856W        W20800  35.936  34.538  12.934
56857W        W20801  34.435   6.687  11.856
56858W        W20802  34.948   7.813   5.088
56859W        W20803  27.462  36.999  14.307
56860W        W20804  35.889  39.921  10.524
56861W        W20805  23.501   2.874  13.910
56862W        W20806   3.914  39.410   4.274
56863W        W20807  14.155   8.270   2.357
56864W        W20808  29.088   6.828   0.800
56865W        W20809  16.633  19.730  11.602
56866W        W20810  12.724  19.608  14.011
56867W        W20811  32.516   7.211   0.829
56868W        W20812  41.831  39.909  11.097
56869W        W20813  37.923  18.759  11.997
56870W        W20814  42.987  44.348   0.482
56871W        W20815  34.994   7.194  10.077
56872W        W20816  42.979  23.544   3.299
56873W        W20817  15.656  16.101  10.995
56874W        W20818  38.326   7.373   0.816
56875W        W20819  34.531  36.957   2.226
56876W        W20820   0.278   8.203  14.810
56877W        W20821  12.212   6.796  10.621
56878W        W20822   8.321  34.864  10.924
56879W        W20823  23.710  20.231  14.975
56880W        W20824  29.935  39.058  12.051
56881W        W20825  28.664   7.670  13.005
56882W        W20826   4.264  19.103  10.908
56883W        W20827  22.569  28.128  13.309
56884W        W20828  29.138  18.272   0.898
56885W        W20829  31.411  38.395   3.689
56886W        W20830  23.102  13.833  10.478
56887W        W20831   4.219   5.429  12.563
56888W        W20832  28.442  19.577  13.801
56889W        W20833  32.117  23.021  13.527
56890W        W20834  35.970  40.827  12.849
56891W        W20835  26.683  36.979  11.858
56892W        W20836   2.863  31.011   2.187
56893W        W20837  24.610  31.568  12.057
56894W        W20838  16.258  37.353  11.408
56895W        W20839   8.793  31.920  13.797
56896W        W20840  42.437  17.286  11.935
56897W        W20841   0.878  32.499  10.026
56898W        W20842  43.402  27.195   1.712
56899W        W20843   4.449   3.734  12.933
56900W        W20844  10.182   5.717  12.031
56901W        W20845  28.479   0.456   0.945
56902W        W20846  43.478   0.488  13.480
56903W        W20847   2.804   3.341   3.708
56904W        W20848  22.224  40.342  12.457
56905W        W20849  44.332  44.462   1.236
56906W        W20850   8.812  14.125   2.713
56907W        W20851   1.963  33.968   3.303
56908W        W20852  41.912  15.162   4.138
56909W        W20853  44.006  14.607  10.623
56910W        W20854   8.883   1.946   3.347
56911W        W20855  24.534  42.526   3.848
56912W        W20856  15.596  39.464   1.877
56913W        W20857  22.510  41.443  12.520
56914W        W20858  10.745   3.795   0.402
56915W        W20859  44.488  10.861  12.423
56916W        W20860  13.107  13.216  14.312
56917W        W20861  14.219   3.927  10.967
56918W        W20862  30.965  11.290   3.757
56919W        W20863  23.511  41.905   1.369
56920W        W20864  10.848   3.456  10.974
56921W        W20865  29.446  27.491  12.846
56922W        W20866  16.111  40.331  11.028
56923W        W20867  16.105  44.310  11.554
56924W        W20868  25.491  19.113  13.444
56925W        W20869   2.455  20.238   2.701
56926W        W20870   0.938  12.653  14.830
56927W        W20871  17.156  16.703  12.546
56928W        W20872   4.731  24.533  12.558
56929W        W20873  18.621  44.402   1.847
56930W        W20874   2.953  25.544  10.410
56931W        W20875   9.752  19.242   5.252
56932W        W20876  26.475  40.446  14.853
56933W        W20877  43.997  11.767  12.488
56934W        W20878  32.021  17.685   4.154
56935W        W20879   3.330   2.360   1.888
56936W        W20880  15.795   9.834   2.264
56937W        W20881  21.639  19.676  11.398
56938W        W20882  20.594  24.989   4.271
56939W        W20883  22.712  23.112  13.510
56940W        W20884  33.584  18.788  12.070
56941W        W20885  30.652  41.473  12.023
56942W        W20886  39.814  34.369  10.992
56943W        W20887  39.351  28.649  12.422
56944W        W20888   4.784  30.953  12.880
56945W        W20889  33.057  38.839   1.283
56946W        W20890  17.653  25.125  10.988
56947W        W20891  38.848  35.426   2.712
56948W        W20892   9.767   4.893  14.993
56949W        W20893  12.119  19.738  14.292
56950W        W20894  32.430  43.319  12.030
56951W        W20895   3.807  27.691  12.860
56952W        W20896  38.401   8.345   0.955
56953W        W20897  38.365  14.800  13.427
56954W        W20898  13.733   8.797  10.982
56955W        W20899  10.244   2.390   4.690
56956W        W20900  36.926  33.028   2.378
56957W        W20901  37.351  31.015   3.760
56958W        W20902  27.134  12.714  11.527
56959W        W20903  11.159  29.016   3.238
56960W        W20904   0.449  27.053  13.418
56961W        W20905  38.957  19.211  13.516
56962W        W20906   2.950   0.396   2.705
56963W        W20907   9.707   7.767   2.360
56964W        W20908  36.064   1.332   1.210
56965W        W20909  31.012  32.967  14.809
56966W        W20910  29.535   2.787  11.918
56967W        W20911  31.598  42.331  14.919
56968W        W20912  21.142  24.555  12.864
56969W        W20913   1.892  25.575  13.492
56970W        W20914  31.120  42.505   9.507
56971W        W20915   4.733  12.612   4.668
56972W        W20916  11.172  20.261   3.837
56973W        W20917  32.127  21.591  13.538
56974W        W20918  15.690   5.284   0.416
56975W        W20919   5.418  34.902   3.283
56976W        W20920  32.046  39.950  11.020
56977W        W20921  32.493  31.018   1.348
56978W        W20922  44.832  33.892   0.769
56979W        W20923  16.600  41.950  11.452
56980W        W20924  39.011   6.401  13.356
56981W        W20925  36.554  32.604   1.290
56982W        W20926  30.927   7.360  10.475
56983W        W20927   9.159  32.436   1.426
56984W        W20928   4.355  28.672   1.213
56985W        W20929  41.993  44.796  12.409
56986W        W20930  44.433  31.960   1.343
56987W        W20931  42.908  17.746   4.746
56988W        W20932  40.475  10.331   2.353
56989W        W20933   7.367  22.228   3.373
56990W        W20934   9.311  10.683  11.876
56991W        W20935  42.933  20.697   4.673
56992W        W20936  13.691  42.508   2.774
56993W        W20937  36.521  23.094  13.427
56994W        W20938   4.746  40.385  11.971
56995W        W20939  15.650   7.777  14.392
56996W        W20940  41.422   1.467  14.278
56997W        W20941  13.162   5.244   4.144
56998W        W20942   7.413  41.445  12.046
56999W        W20943  23.645   0.319   0.403
57000W        W20944  21.092  24.681  14.025
57001W        W20945  41.294  35.079  10.541
57002W        W20946  44.367  35.911   5.173
57003W        W20947   9.659  36.028  10.407
57004W        W20948   1.973   1.371   4.756
57005W        W20949  30.612  20.612  13.885
57006W        W20950   9.754  29.006  12.903
57007W        W20951  27.961  21.196  14.794
57008W        W20952  31.637  29.022   0.351
57009W        W20953  42.904  35.025  13.859
57010W        W20954   0.259  17.702   1.224
57011W        W20955   7.736  32.075   3.192
57012W        W20956  30.649  32.954   1.295
57013W        W20957  25.044   3.795  13.445
57014W        W20958  26.041  14.305  11.999
57015W        W20959  30.946  21.030  10.962
57016W        W20960  37.007  41.787   0.475
57017W        W20961  44.311  30.613   1.763
57018W        W20962  24.578  26.025  13.501
57019W        W20963  25.981  10.774   0.314
57020W        W20964   0.385  42.437   0.752
57021W        W20965   0.971   5.890  11.534
57022W        W20966  40.903  16.146   3.840
57023W        W20967  40.028  23.546  14.425
57024W        W20968   9.770   4.372  13.906
57025W        W20969  15.222  28.496   4.304
57026W        W20970   3.459   6.301   0.909
57027W        W20971  21.741  17.206   4.132
57028W        W20972  39.342  10.255  10.421
57029W        W20973   4.823  30.912   0.852
57030W        W20974  40.425  10.261   2.769
57031W        W20975  19.717  19.669  12.449
57032W        W20976  36.352  28.642  13.912
57033W        W20977  17.692   3.929  13.008
57034W        W20978  43.307  33.088   2.874
57035W        W20979   0.973  17.688  12.849
57036W        W20980  13.331   9.178   4.251
57037W        W20981  16.245  32.568   4.205
57038W        W20982  16.678   8.865   3.328
57039W        W20983  18.621  37.878   3.319
57040W        W20984  25.573  29.043   1.427
57041W        W20985  36.555  25.573   1.231
57042W        W20986   8.333  16.766  12.055
57043W        W20987  25.979  27.158  13.882
57044W        W20988  28.016   2.376  14.887
57045W        W20989  15.790  36.095  10.122
57046W        W20990  34.014  43.311   0.395
57047W        W20991  10.683  43.341   0.452
57048W        W20992  28.475  44.955  12.825
57049W        W20993   2.744   7.355   2.239
57050W        W20994  18.597  19.240   2.854
57051W        W20995   0.957  11.300  10.470
57052W        W20996  44.449  34.456   0.766
57053W        W20997  35.862  28.957   1.364
57054W        W20998  41.855  32.052  14.413
57055W        W20999   8.683   1.286  14.000
57056W        W21000  19.587  16.101   2.745
57057W        W21001   5.806   7.783  12.487
57058W        W21002   5.409   9.157  13.525
57059W        W21003  44.953   7.230   2.712
57060W        W21004  39.828  24.063  12.047
57061W        W21005  41.016  29.998   4.117
57062W        W21006  15.625  14.756  12.043
57063W        W21007  41.427  28.601  14.912
57064W        W21008  38.562  30.522   1.742
57065W        W21009  11.651  38.462  13.530
57066W        W21010  13.673  31.428  10.450
57067W        W21011  40.497   5.893  13.954
57068W        W21012  43.483  42.301   3.821
57069W        W21013   8.292  37.072   1.365
57070W        W21014   0.349  39.029  11.926
57071W        W21015  19.720  43.883  11.028
57072W        W21016  30.908   8.387   4.807
57073W        W21017  19.250  10.216  11.529
57074W        W21018  42.790  44.466  11.003
57075W        W21019  20.081   1.435  12.899
57076W        W21020  43.843  41.885  11.412
57077W        W21021  34.090  10.710   0.762
57078W        W21022   8.224  37.529  13.446
57079W        W21023  34.864  21.064   1.295
57080W        W21024   2.959  12.348  11.911
57081W        W21025  44.316   0.444   0.305
57082W        W21026  43.516  35.972   0.367
57083W        W21027  31.962   7.347   1.405
57084W        W21028  10.160   7.682  12.577
57085W        W21029   1.300  29.042  12.941
57086W        W21030   5.775  41.925   4.765
57087W        W21031  26.657  33.514   0.359
57088W        W21032  41.794  21.674  14.805
57089W        W21033   1.806  27.660  14.776
57090W        W21034  36.489   6.232   2.405
57091W        W21035  14.653  31.524  10.456
57092W        W21036   0.857  42.800   1.285
57093W        W21037   8.739  22.178   1.344
57094W        W21038  26.055  19.766  14.934
57095W        W21039  19.163  29.966  13.838
57096W        W21040   4.884  37.543  10.063
57097W        W21041  33.937  27.575  13.885
57098W        W21042  27.943  17.131   4.354
57099W        W21043  40.367  17.661   4.298
57100W        W21044  10.354  38.477   0.247
57101W        W21045  10.357  38.900   5.154
57102W        W21046  32.568  27.636   0.940
57103W        W21047  42.901   7.306   1.891
57104W        W21048  22.136  28.575   1.302
57105W        W21049   3.955   5.828   4.699
57106W        W21050   4.347   7.212   0.734
57107W        W21051  26.993   4.449  12.485
57108W        W21052  40.497  36.562   2.286
57109W        W21053  10.356  30.551   4.296
57110W        W21054  33.127  23.174   3.249
57111W        W21055  44.880  44.381  13.370
57112W        W21056  18.284  42.818   1.802
57113W        W21057  36.411   5.855   4.813
57114W        W21058  24.081  24.715   1.402
57115W        W21059   4.444  25.703  10.612
57116W        W21060   3.950  19.588  14.431
57117W        W21061  20.131  25.992  10.639
57118W        W21062  19.048  33.563   0.428
57119W        W21063  41.787  12.274  14.421
57120W        W21064  28.576   7.397  12.428
57121W        W21065  11.760  11.761   4.610
57122W        W21066  21.641  22.182   4.265
57123W        W21067  32.543  15.743   0.933
57124W        W21068  24.047  38.420   3.212
57125W        W21069  15.255   9.371   4.651
57126W        W21070  39.435  43.826  10.478
57127W        W21071  11.836  41.968  14.914
57128W        W21072   2.460  39.313  13.989
57129W        W21073  32.464  40.498   2.235
57130W        W21074  17.743  29.628  10.437
57131W        W21075  11.309  36.462  14.856
57132W        W21076  28.680  39.465   0.950
57133W        W21077  43.830  33.563  13.826
57134W        W21078   8.746   1.970   3.812
57135W        W21079   0.886  21.732   1.241
57136W        W21080  32.129  33.429   0.424
57137W        W21081  30.493   7.352   4.613
57138W        W21082  34.457  41.485   0.396
57139W        W21083  15.705  15.247   3.274
57140W        W21084  27.618  19.582  13.906
57141W        W21085   7.675  34.025  11.446
57142W        W21086  40.829  11.813   4.698
57143W        W21087  39.991  27.515   4.261
57144W        W21088  38.951  43.447   2.874
57145W        W21089  41.994  44.957  14.017
57146W        W21090   1.760  12.812  11.500
57147W        W21091  17.140  13.324   1.295
57148W        W21092   5.361  42.369  10.419
57149W        W21093  18.127  22.028   9.564
57150W        W21094  10.191  11.195  11.107
57151W        W21095   9.676  41.910   2.201
57152W        W21096  17.650  19.263   1.868
57153W        W21097  34.060  33.555  14.436
57154W        W21098  17.141  43.912  10.448
57155W        W21099  21.704  38.363   3.314
57156W        W21100  37.458   5.385   2.287
57157W        W21101  39.413  36.491   0.909
57158W        W21102   8.242   4.784   3.665
57159W        W21103  23.068  10.190  14.945
57160W        W21104  25.191  35.959   0.305
57161W        W21105  21.243  13.256   2.764
57162W        W21106  11.710  16.660   4.234
57163W        W21107  12.286  11.190  14.030
57164W        W21108  30.452  41.406   1.742
57165W        W21109  32.901  11.723   1.877
57166W        W21110  11.693  11.761  14.029
57167W        W21111  18.227  27.187   1.760
57168W        W21112  27.947  24.649  12.066
57169W        W21113  32.395  33.013   4.335
57170W        W21114  12.841  35.594   1.363
57171W        W21115  30.137  11.281   4.303
57172W        W21116  20.095   2.426  13.009
57173W        W21117   1.449  23.237  11.380
57174W        W21118   9.738  19.630   0.753
57175W        W21119  33.544  10.234   0.916
57176W        W21120  22.046  16.199  11.979
57177W        W21121  43.394  26.504  12.956
57178W        W21122  37.473  21.615   2.369
57179W        W21123  41.911   5.325   2.898
57180W        W21124  28.539  38.539   5.732
57181W        W21125  40.460  28.105  10.540
57182W        W21126  27.492  21.195   1.757
57183W        W21127  27.037   6.885  13.483
57184W        W21128  24.570  14.793  13.921
57185W        W21129  11.621  40.900  10.119
57186W        W21130  19.767  23.611  13.474
57187W        W21131  31.476  31.484   0.316
57188W        W21132  12.630   8.775   4.320
57189W        W21133  16.231  26.701  14.824
57190W        W21134  26.975  17.744   0.475
57191W        W21135  14.205  12.265  10.436
57192W        W21136  27.522  27.021   1.385
57193W        W21137  25.713  26.691   1.421
57194W        W21138  24.647   8.760  10.451
57195W        W21139  28.961  23.196   0.760
57196W        W21140   7.700   6.303   1.712
57197W        W21141  36.489  23.169   4.122
57198W        W21142  38.566  41.868  13.795
57199W        W21143   6.250  15.283   0.314
57200W        W21144  10.138  36.534  11.991
57201W        W21145  13.823  16.244   4.224
57202W        W21146  43.862  11.165  13.930
57203W        W21147  32.047  29.563   3.279
57204W        W21148  44.422  29.094   4.206
57205W        W21149   8.812  37.904  10.959
57206W        W21150  14.810  27.493   2.728
57207W        W21151  16.079   6.401  14.445
57208W        W21152  19.104   7.271  12.522
57209W        W21153  15.727  27.041   0.328
57210W        W21154  24.531  34.387  13.479
57211W        W21155  28.048  19.768   4.135
57212W        W21156  29.478  20.535   4.762
57213W        W21157  17.246  15.132   1.760
57214W        W21158  35.488  40.005   3.737
57215W        W21159  21.554  29.591   3.710
57216W        W21160  43.775   4.232  11.932
57217W        W21161  37.927  21.249  13.847
57218W        W21162   1.387  12.134   0.410
57219W        W21163  42.293  19.189  11.427
57220W        W21164  21.241  35.454  10.494
57221W        W21165  21.211  27.049  12.892
57222W        W21166  26.992  17.622  13.998
57223W        W21167  44.291  29.449   2.886
57224W        W21168  31.033  12.829  12.985
57225W        W21169  30.435  40.476   1.927
57226W        W21170  23.993  29.961   2.245
57227W        W21171  32.621  31.036   2.723
57228W        W21172  42.997  25.181  13.949
57229W        W21173  31.600  34.369  12.435
57230W        W21174  43.859  44.957  12.934
57231W        W21175   2.230  39.323   1.324
57232W        W21176  44.964   5.796   5.277
57233W        W21177  41.367  13.811  12.575
57234W        W21178   4.750  28.062  14.391
57235W        W21179   1.770  19.278  14.887
57236W        W21180  25.553  27.152  13.947
57237W        W21181  34.085   7.353  11.442
57238W        W21182  44.482  22.079   1.846
57239W        W21183  26.581  11.775   2.787
57240W        W21184  22.677   7.880  13.936
57241W        W21185  43.377   4.803  11.385
57242W        W21186  19.761   3.843   3.286
57243W        W21187  22.611  32.552   4.604
57244W        W21188   7.265  15.801   0.381
57245W        W21189   4.831   6.230   1.239
57246W        W21190   7.843  17.173  11.857
57247W        W21191  41.395  30.948   1.819
57248W        W21192  17.259  34.554  12.356
57249W        W21193  16.722  27.994   0.944
57250W        W21194   7.842  28.095   4.250
57251W        W21195  21.096  27.523  12.373
57252W        W21196   9.696  39.014  14.362
57253W        W21197  44.405  11.631  12.532
57254W        W21198  28.568  34.565  12.382
57255W        W21199  32.566  37.837   2.768
57256W        W21200  11.341  12.696   4.154
57257W        W21201  22.623  39.935   2.191
57258W        W21202  30.972  26.640   2.275
57259W        W21203  26.584  30.584  11.091
57260W        W21204   2.775  34.001   1.330
57261W        W21205  13.289  20.226  10.460
57262W        W21206  15.792  25.188   2.204
57263W        W21207  14.749  13.224   0.318
57264W        W21208   1.912  18.679  11.474
57265W        W21209  32.038  24.039   0.814
57266W        W21210  16.720  41.430   0.759
57267W        W21211   4.853  19.200   4.228
57268W        W21212  13.249   4.340  14.811
57269W        W21213  35.471   9.194   2.733
57270W        W21214   2.777  18.246   1.736
57271W        W21215  34.006  25.579   4.630
57272W        W21216   8.726   3.230  13.515
57273W        W21217  21.112  26.203  14.336
57274W        W21218  44.488  34.416   4.242
57275W        W21219   9.332  25.040  13.020
57276W        W21220  10.178   3.773   4.603
57277W        W21221  21.551   4.818   4.769
57278W        W21222  34.492   6.837  13.498
57279W        W21223  27.591   6.681   1.768
57280W        W21224  31.580  33.553   3.258
57281W        W21225  30.610  34.002  14.428
57282W        W21226  38.514  34.501   2.768
57283W        W21227  39.058  12.775  11.113
57284W        W21228  17.180  37.847   4.605
57285W        W21229   0.298  23.059   4.699
57286W        W21230   4.872  11.858  11.034
57287W        W21231  13.627  30.643  13.998
57288W        W21232   4.888  43.806  11.472
57289W        W21233  30.083  34.508   3.228
57290W        W21234  39.853  24.194  12.920
57291W        W21235  23.145  35.401  14.363
57292W        W21236  38.565  27.984  12.563
57293W        W21237  16.317  40.021  13.458
57294W        W21238   2.416  27.986   3.312
57295W        W21239   7.828   8.786   0.411
57296W        W21240   5.745   0.918   4.689
57297W        W21241  27.519  38.463  10.138
57298W        W21242  26.072  39.465   4.186
57299W        W21243  40.969  25.585  13.012
57300W        W21244  17.081   0.983   0.427
57301W        W21245  38.426  19.627  11.028
57302W        W21246  29.493  11.787  13.383
57303W        W21247  37.977  24.227  13.922
57304W        W21248  23.632  36.442  14.008
57305W        W21249  44.332  29.974  14.500
57306W        W21250  25.151  24.028  12.345
57307W        W21251  33.946  36.375  12.889
57308W        W21252  35.411  19.604   3.851
57309W        W21253   1.457  29.536   0.478
57310W        W21254  34.069  29.120  14.989
57311W        W21255  41.390  21.065   1.367
57312W        W21256  42.302   7.313   3.341
57313W        W21257  15.299  20.153  10.985
57314W        W21258  41.502  27.487   4.345
57315W        W21259   5.827  28.081   4.159
57316W        W21260  17.729   0.750  12.023
57317W        W21261  14.335  20.104  11.472
57318W        W21262  34.402   7.819   4.634
57319W        W21263  13.310  40.886  12.965
57320W        W21264   1.964   7.771  14.437
57321W        W21265  21.560  38.996   3.223
57322W        W21266  16.570  16.566   4.325
57323W        W21267  35.859  41.035  13.455
57324W        W21268  30.582  42.383   1.291
57325W        W21269  22.501  24.175  13.889
57326W        W21270  32.476  43.334   1.801
57327W        W21271  19.674  42.804  10.971
57328W        W21272  23.697  31.557  14.504
57329W        W21273  44.795  43.971   2.313
57330W        W21274  25.565  24.195   1.370
57331W        W21275  18.685  10.848  10.559
57332W        W21276   0.267  26.694  10.905
57333W        W21277  31.420  20.593   3.691
57334W        W21278  33.382  31.482   1.796
57335W        W21279   1.337  13.185   0.910
57336W        W21280   8.247   1.890  13.325
57337W        W21281  14.204   5.795  14.473
57338W        W21282  31.568  44.911   0.869
57339W        W21283  11.770   5.787   4.706
57340W        W21284  15.745  30.110   1.707
57341W        W21285  14.341   5.713   0.860
57342W        W21286  27.671  11.847  11.592
57343W        W21287  25.175  43.020  10.902
57344W        W21288   5.361   2.964  13.401
57345W        W21289  38.407  21.105  11.408
57346W        W21290  34.427  11.353  10.559
57347W        W21291  41.821   3.884   1.816
57348W        W21292   1.763  22.671  13.897
57349W        W21293   6.852  38.050   0.463
57350W        W21294   8.245  20.720   4.346
57351W        W21295   2.961   6.864  13.986
57352W        W21296  14.672  36.510   2.830
57353W        W21297  10.366   8.746  14.790
57354W        W21298  36.030  20.046   3.839
57355W        W21299  15.655  12.215   1.813
57356W        W21300  24.129  38.899  13.982
57357W        W21301  35.462  26.134  13.937
57358W        W21302  31.451  41.980   1.804
57359W        W21303  36.592  16.612  11.025
57360W        W21304  12.775  37.550  13.948
57361W        W21305   3.743  39.914   4.678
57362W        W21306  30.941  41.902   2.746
57363W        W21307  43.978  12.708   1.445
57364W        W21308  22.714  20.688   4.608
57365W        W21309  11.721  44.425  12.063
57366W        W21310  23.661  26.643   3.808
57367W        W21311   8.180  14.752   4.273
57368W        W21312  40.369  18.545   0.805
57369W        W21313   7.896   8.812  12.572
57370W        W21314  28.083  15.636   2.832
57371W        W21315   6.184  44.444  11.908
57372W        W21316   4.741   4.840  12.510
57373W        W21317  36.970  12.358   1.761
57374W        W21318  30.618  34.007   2.829
57375W        W21319   5.423  18.233   3.343
57376W        W21320  21.146  34.105   1.763
57377W        W21321  22.232   0.790   1.812
57378W        W21322   1.382  26.204  12.988
57379W        W21323   1.940  39.484  13.406
57380W        W21324  42.404   8.295   3.868
57381W        W21325  36.407  16.282  11.936
57382W        W21326  24.722  20.111  11.430
57383W        W21327  42.426  32.895   1.790
57384W        W21328   5.356  11.759   0.278
57385W        W21329   7.336  20.552  14.945
57386W        W21330  25.518  37.037   1.902
57387W        W21331   0.373  10.137  14.895
57388W        W21332  25.166  26.043  13.494
57389W        W21333  12.848  40.882  10.588
57390W        W21334   3.712  10.261  14.452
57391W        W21335  21.678   0.263  14.500
57392W        W21336  14.764   3.339  12.018
57393W        W21337  15.735  30.004   2.898
57394W        W21338  35.497  17.118   3.801
57395W        W21339  36.856  20.123   0.319
57396W        W21340  23.540  38.448  11.386
57397W        W21341  43.345   3.418   3.727
57398W        W21342  13.340  36.364  13.383
57399W        W21343  16.738  17.756  14.766
57400W        W21344   5.206  13.143   1.725
57401W        W21345  30.939   7.875  13.960
57402W        W21346  16.172  29.493   2.776
57403W        W21347  14.806  35.040   2.239
57404W        W21348  22.110  23.663   2.681
57405W        W21349  18.077  20.637  14.007
57406W        W21350  35.931   5.710  13.435
57407W        W21351  38.865  22.229   3.716
57408W        W21352  26.516  37.402  14.864
57409W        W21353  12.239   1.243   3.826
57410W        W21354   1.837  33.046  13.446
57411W        W21355  39.888   8.251  13.920
57412W        W21356  29.461  43.362   3.342
57413W        W21357  21.546  25.978   2.365
57414W        W21358  39.826  25.049   3.380
57415W        W21359  20.646  10.212   3.852
57416W        W21360   1.769  44.854  13.341
57417W        W21361  27.611  36.583  10.621
57418W        W21362  35.877  34.100   1.331
57419W        W21363   3.461  33.623  12.859
57420W        W21364  10.801  11.651  13.795
57421W        W21365   8.875  34.596   3.797
57422W        W21366   5.736  29.596   2.772
57423W        W21367  10.767   9.265   0.444
57424W        W21368  35.028   4.882  14.326
57425W        W21369  44.423  35.453  10.471
57426W        W21370  24.210   6.353  14.776
57427W        W21371  23.033  41.900   1.778
57428W        W21372   6.405  43.880  10.964
57429W        W21373  38.015  34.913  13.912
57430W        W21374  32.490  26.138  11.927
57431W        W21375  38.077  40.461  12.050
57432W        W21376   3.813  37.530   3.281
57433W        W21377  31.557  22.647   2.296
57434W        W21378  38.383   7.900   9.932
57435W        W21379  11.139   4.409   3.334
57436W        W21380  40.544  18.629  12.840
57437W        W21381  32.472  27.181  11.940
57438W        W21382  15.737  11.207   1.771
57439W        W21383   6.257  10.250  13.944
57440W        W21384  43.843  15.663   3.354
57441W        W21385  34.462   4.368  12.484
57442W        W21386  14.221  44.431  12.424
57443W        W21387   4.893  20.145   3.294
57444W        W21388   4.341  30.568  12.473
57445W        W21389  13.113  22.098   3.698
57446W        W21390  19.059   3.242  11.585
57447W        W21391  33.430  12.168   4.138
57448W        W21392  25.089  24.661   0.437
57449W        W21393  26.954  32.895  12.893
57450W        W21394   5.780  33.022  12.943
57451W        W21395   5.433   7.794  13.888
57452W        W21396  39.339  27.529  12.839
57453W        W21397  36.901  42.316  12.529
57454W        W21398  20.557   3.786   4.338
57455W        W21399  38.383  26.611   3.646
57456W        W21400  40.003   6.410  14.378
57457W        W21401  30.616   0.864   5.275
57458W        W21402  18.683  44.484   0.384
57459W        W21403  32.097   2.958  14.445
57460W        W21404  11.331   8.206   2.683
57461W        W21405  41.980  39.812   3.295
57462W        W21406   4.885  18.052   3.785
57463W        W21407   4.253  36.901  11.889
57464W        W21408  43.931  16.269  14.368
57465W        W21409  26.057  33.963   1.318
57466W        W21410  18.244  28.048   1.215
57467W        W21411  28.156  36.433  10.532
57468W        W21412   8.814  42.983  12.959
57469W        W21413   1.404  35.855  14.895
57470W        W21414  33.055  26.531   2.392
57471W        W21415   0.257  11.359  11.883
57472W        W21416  33.570  29.601   1.434
57473W        W21417  23.103   0.897   2.346
57474W        W21418  38.528  29.670   1.402
57475W        W21419   6.841  35.542  12.039
57476W        W21420  32.975  29.633   1.292
57477W        W21421  28.986  38.552   4.772
57478W        W21422  12.275  28.544  14.392
57479W        W21423  26.513  14.792  14.966
57480W        W21424  20.219  23.066   1.374
57481W        W21425  31.959  23.694   3.707
57482W        W21426   2.873  40.900  12.910
57483W        W21427  20.257  42.937   3.289
57484W        W21428  16.218  14.589  11.983
57485W        W21429  16.245   1.450   0.726
57486W        W21430  12.784  43.302  10.953
57487W        W21431  27.131  41.367   0.934
57488W        W21432  30.049   3.823  14.860
57489W        W21433  15.688  19.552   1.931
57490W        W21434  29.031  30.533  14.788
57491W        W21435  15.706  31.519   1.365
57492W        W21436  34.948  44.499  10.959
57493W        W21437  21.203   7.788   3.785
57494W        W21438  31.971   1.934   3.284
57495W        W21439  11.250  20.719   0.939
57496W        W21440  33.959   0.765  10.135
57497W        W21441  27.643  30.111   4.658
57498W        W21442   9.264  19.717  11.899
57499W        W21443  27.988  13.200   2.332
57500W        W21444  26.020  29.928   1.743
57501W        W21445  28.643  11.167  14.486
57502W        W21446  43.862  33.996   1.841
57503W        W21447  32.635  31.621  11.907
57504W        W21448  42.908  35.901  12.553
57505W        W21449   4.839   7.360  11.983
57506W        W21450   0.334  30.960  11.979
57507W        W21451  29.637  43.869   1.905
57508W        W21452  25.692  43.951  13.934
57509W        W21453  32.013   2.954  14.986
57510W        W21454  25.121  37.880   4.342
57511W        W21455  30.461   5.295  14.929
57512W        W21456   0.974  27.172   3.283
57513W        W21457  29.136   7.257  12.058
57514W        W21458   8.269  22.613   4.702
57515W        W21459   4.801  20.663   1.858
57516W        W21460  40.454  30.094   3.204
57517W        W21461   6.227  40.334  13.475
57518W        W21462  12.765  13.602   4.757
57519W        W21463  32.095  37.001  11.000
57520W        W21464  36.919  25.559   3.766
57521W        W21465   5.820  39.822  12.353
57522W        W21466  38.972   5.891  14.939
57523W        W21467  13.809  11.649   1.357
57524W        W21468  42.849  38.944   3.752
57525W        W21469  22.677  27.118   2.664
57526W        W21470  43.972  14.805  10.963
57527W        W21471  39.879   4.395   1.254
57528W        W21472  30.509  29.664  13.928
57529W        W21473  42.311   4.342   2.816
57530W        W21474  24.713   7.669   2.778
57531W        W21475  28.169  18.614  12.529
57532W        W21476  14.629   6.291   1.766
57533W        W21477  24.995   3.795   0.281
57534W        W21478   0.843   5.288   4.715
57535W        W21479   6.699   6.745   1.853
57536W        W21480  18.259  32.074  11.983
57537W        W21481   1.898  11.779   3.297
57538W        W21482  12.691  18.653  10.529
57539W        W21483  18.688  44.342  13.424
57540W        W21484   6.734  10.800   3.631
57541W        W21485  16.808  22.528   5.145
57542W        W21486  32.494   6.321   0.398
57543W        W21487   4.850   8.233   0.323
57544W        W21488   8.826  38.923  13.924
57545W        W21489  12.811  16.115   0.740
57546W        W21490  26.062  12.214  12.033
57547W        W21491  10.368  34.457  13.380
57548W        W21492  21.704  14.106   4.770
57549W        W21493  27.682   0.822   0.346
57550W        W21494   0.763  42.932   3.855
57551W        W21495  32.553  35.024   3.211
57552W        W21496  23.014  16.577   2.899
57553W        W21497   7.854  21.020   3.239
57554W        W21498  43.988  43.398  12.035
57555W        W21499  20.073  14.666   3.326
57556W        W21500  14.222  28.456   0.410
57557W        W21501  31.482   7.872   2.409
57558W        W21502  43.993  15.301   3.676
57559W        W21503  21.685  16.228   4.790
57560W        W21504  24.026  17.796  10.525
57561W        W21505  19.123  13.305   1.762
57562W        W21506  28.597  43.008   1.775
57563W        W21507  21.735  38.885   1.733
57564W        W21508  15.143   6.691  11.581
57565W        W21509  28.501  44.010  14.374
57566W        W21510  12.795  42.298  14.801
57567W        W21511  33.103  28.469  13.447
57568W        W21512  38.422  32.552   2.252
57569W        W21513  13.105  10.348   1.422
57570W        W21514  11.700  12.685   0.758
57571W        W21515  16.634   9.169  11.440
57572W        W21516   5.929  38.923   3.286
57573W        W21517   7.772  19.233   4.674
57574W        W21518  15.313   5.822   0.741
57575W        W21519  24.545   3.355  10.921
57576W        W21520   2.888  23.148  12.546
57577W        W21521  18.165   9.832   1.363
57578W        W21522  22.006  13.337  10.416
57579W        W21523  15.715   5.251  10.457
57580W        W21524  40.493  19.234  12.410
57581W        W21525  24.676  14.271  12.544
57582W        W21526  38.375  12.638  14.357
57583W        W21527  31.621  34.553  12.068
57584W        W21528  23.227   9.238  14.333
57585W        W21529  40.987  24.072   1.919
57586W        W21530  16.131  30.945  10.124
57587W        W21531  24.025  18.662   0.906
57588W        W21532  41.443  21.081   0.254
57589W        W21533   7.416  33.406   0.337
57590W        W21534  22.661  33.098   0.273
57591W        W21535  39.833  39.910   0.242
57592W        W21536  12.756  23.558  13.893
57593W        W21537   1.376  37.463   0.363
57594W        W21538   0.761  22.109  14.438
57595W        W21539   5.230  20.209   1.829
57596W        W21540   1.969  36.559  10.956
57597W        W21541  41.443  32.005   4.294
57598W        W21542   2.896  20.076   4.686
57599W        W21543   9.826  20.258   0.460
57600W        W21544   6.310  18.244   0.812
57601W        W21545  20.717  32.085  13.511
57602W        W21546   6.335  39.898  14.990
57603W        W21547  12.830  31.619   4.719
57604W        W21548   9.749  18.784   4.190
57605W        W21549  21.586  41.971   4.322
57606W        W21550  36.361   7.215   1.896
57607W        W21551  35.892  37.976   4.647
57608W        W21552  20.735   5.898  11.946
57609W        W21553  35.559  35.101  14.294
57610W        W21554  39.336   8.791   4.672
57611W        W21555  13.716  24.618   1.422
57612W        W21556  19.735  35.036  13.823
57613W        W21557   0.419  30.922  13.432
57614W        W21558   7.293  13.804  12.871
57615W        W21559   2.395  18.618   1.288
57616W        W21560  41.399   8.679  10.560
57617W        W21561  11.754   1.286  12.446
57618W        W21562  19.616  11.760  12.376
57619W        W21563  14.736   1.411  11.875
57620W        W21564  27.594   3.262   3.157
57621W        W21565  23.718  19.069  11.110
57622W        W21566  22.556  29.450   3.841
57623W        W21567  26.506  42.829  13.918
57624W        W21568  22.178  12.159  10.946
57625W        W21569  30.974   1.258  12.887
57626W        W21570   2.868   5.302   4.832
57627W        W21571  22.251  44.934   3.713
57628W        W21572   6.285   0.772   4.770
57629W        W21573  44.265  43.769  13.864
57630W        W21574  41.380  27.668  13.930
57631W        W21575  37.949  12.117   1.418
57632W        W21576  23.674   8.190   4.811
57633W        W21577  19.154  36.523   4.747
57634W        W21578  24.084  38.346   2.738
57635W        W21579  24.550  16.259  11.984
57636W        W21580  38.524  44.378   0.317
57637W        W21581  18.784  43.280  11.964
57638W        W21582  12.169   6.696   4.597
57639W        W21583   4.910  23.560  14.935
57640W        W21584  16.569  14.697   2.893
57641W        W21585   5.360  17.681  14.929
57642W        W21586   9.711  34.008  13.467
57643W        W21587   5.385   4.393   3.712
57644W        W21588  20.213  20.057  13.516
57645W        W21589  35.411  35.500  13.492
57646W        W21590  40.393  16.277   2.816
57647W        W21591  28.448  23.150  11.597
57648W        W21592  15.188  32.017   4.292
57649W        W21593  29.089  36.933   1.448
57650W        W21594   8.339  34.118  14.023
57651W        W21595   0.317  29.100   1.750
57652W        W21596  15.774  31.013  13.405
57653W        W21597  14.242  44.773  12.467
57654W        W21598   4.790   1.387  13.316
57655W        W21599  42.949  24.663   4.766
57656W        W21600   4.841  44.807   1.747
57657W        W21601  14.119  41.300   2.386
57658W        W21602  18.267   6.255   4.214
57659W        W21603   2.867  31.571   2.183
57660W        W21604  44.325  19.112   4.125
57661W        W21605  31.611  27.181  14.464
57662W        W21606   5.822  18.678  14.871
57663W        W21607  10.164  40.800  13.449
57664W        W21608  15.291  23.514  11.864
57665W        W21609  31.033  16.212  14.424
57666W        W21610  21.168  19.058   4.309
57667W        W21611  38.038  18.067  12.574
57668W        W21612   1.888   5.908   1.919
57669W        W21613   6.303   7.761  12.479
57670W        W21614  40.803  36.051   1.926
57671W        W21615  44.461   6.811  10.987
57672W        W21616  13.600  30.601   1.931
57673W        W21617  43.416  22.165   1.372
57674W        W21618  36.445  17.587   0.370
57675W        W21619   2.383  33.062   0.319
57676W        W21620  15.140  40.824   0.454
57677W        W21621  37.545  16.804  10.916
57678W        W21622  31.559  27.062   4.354
57679W        W21623   1.339   4.272  13.382
57680W        W21624   4.932  34.403  11.075
57681W        W21625   8.900  27.198   1.327
57682W        W21626   2.324   4.237  11.552
57683W        W21627  37.337  20.234  12.447
57684W        W21628  41.515   9.217  11.043
57685W        W21629  33.462  14.288  11.581
57686W        W21630  18.059   2.768   2.687
57687W        W21631  32.994  36.087   3.752
57688W        W21632   3.818   1.748  11.554
57689W        W21633  19.615  30.078  14.419
57690W        W21634   6.232  39.911  13.818
57691W        W21635  33.531   6.373   0.456
57692W        W21636  29.574  31.074  14.883
57693W        W21637  22.509  44.983   0.283
57694W        W21638  29.571  41.370  11.529
57695W        W21639  40.521  38.558   3.368
57696W        W21640  35.108  44.271   4.164
57697W        W21641   7.857  37.520   1.694
57698W        W21642  43.813  31.004  14.908
57699W        W21643  19.718  34.444   4.306
57700W        W21644  24.022  42.981   0.852
57701W        W21645  32.965  18.292  13.795
57702W        W21646  29.449  18.639   0.753
57703W        W21647  41.522   2.830   3.737
57704W        W21648  43.858  33.881  13.061
57705W        W21649  19.573  44.361  13.535
57706W        W21650  30.648  20.108   5.208
57707W        W21651  16.110  39.532  13.863
57708W        W21652   7.822  31.638   4.217
57709W        W21653  13.604   7.270   4.786
57710W        W21654  39.492  16.094   4.348
57711W        W21655   7.813   1.310  11.486
57712W        W21656  25.532  15.142  14.502
57713W        W21657  11.621   6.701  13.840
57714W        W21658  17.626  28.170  12.038
57715W        W21659  30.561  12.730  10.547
57716W        W21660  24.565  19.666  13.961
57717W        W21661  34.865  11.205  10.490
57718W        W21662  42.941  40.461  11.872
57719W        W21663  25.207  40.410   5.181
57720W        W21664  34.519   7.224   2.862
57721W        W21665  23.639  36.876  10.939
57722W        W21666   2.750  21.220   2.715
57723W        W21667  35.464  23.637   3.830
57724W        W21668  20.601  42.006   1.908
57725W        W21669  44.430   6.422   5.305
57726W        W21670  42.474   5.223  14.767
57727W        W21671  44.924  43.501  14.794
57728W        W21672  33.081  31.520  13.037
57729W        W21673  24.690  25.167   1.323
57730W        W21674  41.452   8.766   5.158
57731W        W21675  33.547  17.683   0.957
57732W        W21676  35.419  23.237   1.835
57733W        W21677  31.643  33.507   4.247
57734W        W21678  44.981  31.565   1.834
57735W        W21679  40.520   5.745  14.955
57736W        W21680  18.713  13.212  10.948
57737W        W21681  27.967   8.277   3.646
57738W        W21682  32.621  20.173  13.806
57739W        W21683  44.487  32.119  13.027
57740W        W21684   0.301  15.202  13.020
57741W        W21685  27.959   7.315   3.221
57742W        W21686  27.150  40.990   0.737
57743W        W21687  15.172  35.948   2.352
57744W        W21688  19.217  30.127   1.874
57745W        W21689  40.506  10.646  10.593
57746W        W21690  28.957  16.190   9.437
57747W        W21691  24.200   6.420   0.443
57748W        W21692   0.907  35.523  11.997
57749W        W21693   0.776  22.706  12.563
57750W        W21694  41.826  22.684   2.339
57751W        W21695  38.062  11.191  12.916
57752W        W21696  16.192  14.236  14.472
57753W        W21697   7.719  11.755   0.330
57754W        W21698  31.912   8.307   4.661
57755W        W21699  26.200  26.958   2.397
57756W        W21700  17.178   6.289   2.211
57757W        W21701   3.955  26.179  12.007
57758W        W21702  16.087  38.826   1.717
57759W        W21703  40.508   3.389   1.773
57760W        W21704  24.081  32.092   0.298
57761W        W21705  22.094  12.762  11.952
57762W        W21706   9.269  44.949   1.343
57763W        W21707  36.377  30.605  14.937
57764W        W21708   6.898  30.484   3.159
57765W        W21709   0.272  28.122   4.235
57766W        W21710  10.843  44.780  13.793
57767W        W21711  19.740  35.570  11.463
57768W        W21712  23.191  33.034   0.395
57769W        W21713  44.367  37.890   1.235
57770W        W21714  14.226  26.662   5.178
57771W        W21715  24.102   1.867  14.799
57772W        W21716  44.997  28.010   1.770
57773W        W21717  36.044  41.513   1.694
57774W        W21718   9.265  25.570  11.865
57775W        W21719  24.643   5.389  11.917
57776W        W21720  19.634  26.134  12.877
57777W        W21721  22.103  10.327  14.508
57778W        W21722  34.064  31.429   3.852
57779W        W21723  43.295  15.663  13.984
57780W        W21724  23.093  35.378  14.010
57781W        W21725  21.261   6.332  14.498
57782W        W21726  40.485  44.895   0.438
57783W        W21727   2.392  29.934  11.043
57784W        W21728  13.774  39.975  11.387
57785W        W21729   2.390  13.756   1.715
57786W        W21730  38.461  44.841  14.804
57787W        W21731  35.857   1.872   2.689
57788W        W21732   0.294  38.445   2.312
57789W        W21733  42.488  17.559  13.437
57790W        W21734  37.450  27.943   3.725
57791W        W21735  18.575   9.364   5.248
57792W        W21736  20.225  36.580  14.410
57793W        W21737  20.251  17.095   1.210
57794W        W21738  11.204  32.635   3.647
57795W        W21739  40.409  32.939   4.239
57796W        W21740  43.396  20.158  13.964
57797W        W21741  24.187  13.144   0.309
57798W        W21742  39.350  17.154   1.444
57799W        W21743   3.219  28.105  10.574
57800W        W21744  11.297  38.889   2.901
57801W        W21745  20.756  36.909   1.329
57802W        W21746  31.629  26.083   0.480
57803W        W21747  35.988  21.599   2.720
57804W        W21748   6.820  33.461  12.481
57805W        W21749  38.897  22.034  10.579
57806W        W21750   0.886  39.060   3.334
57807W        W21751  11.787   8.348   0.850
57808W        W21752   6.875  19.768  12.490
57809W        W21753   5.364  16.796   3.845
57810W        W21754   0.359   5.816   2.369
57811W        W21755  10.350   3.415   1.861
57812W        W21756  26.564  25.580   1.343
57813W        W21757  19.259  10.325   4.304
57814W        W21758   0.856   4.750  14.971
57815W        W21759  41.441  40.986   0.866
57816W        W21760  42.971  15.773  14.484
57817W        W21761   2.347   4.246  11.988
57818W        W21762  40.333  18.685   1.768
57819W        W21763  33.408  14.298   0.920
57820W        W21764   2.340  17.663   2.257
57821W        W21765  12.811   7.285  13.811
57822W        W21766  40.500   8.253  12.451
57823W        W21767  12.839   8.822   3.630
57824W        W21768  27.639  38.525   2.736
57825W        W21769  13.228  36.043   2.324
57826W        W21770   4.446   9.863   4.838
57827W        W21771  18.187  30.951  14.990
57828W        W21772  35.990  28.025  11.921
57829W        W21773   6.415  41.853  13.817
57830W        W21774  26.124  15.158   0.892
57831W        W21775  28.032  29.984   2.326
57832W        W21776  14.245  13.600   2.266
57833W        W21777  10.266  38.497   0.925
57834W        W21778  22.679  12.718   2.887
57835W        W21779  38.421  19.150  13.338
57836W        W21780  25.208  44.995   4.758
57837W        W21781  39.429  35.942  12.040
57838W        W21782  34.948  31.568  11.964
57839W        W21783  38.378  15.328  13.794
57840W        W21784  25.544   0.324   1.802
57841W        W21785  44.868   1.316   0.319
57842W        W21786   1.268  32.038   0.865
57843W        W21787  43.995  23.239   0.338
57844W        W21788  32.518  24.544  12.531
57845W        W21789  15.589  31.944  10.153
57846W        W21790  36.920   6.755  12.908
57847W        W21791  28.452  20.255  14.965
57848W        W21792   7.679  39.009   1.271
57849W        W21793  26.008  22.094  11.948
57850W        W21794  21.715  43.824   0.859
57851W        W21795  16.193  28.665   0.479
57852W        W21796   6.397  18.669  12.885
57853W        W21797  30.470   7.904   5.230
57854W        W21798   2.421  22.076  12.361
57855W        W21799  11.317   5.339  13.498
57856W        W21800  38.053  27.052   1.902
57857W        W21801  27.493  16.744   4.308
57858W        W21802  39.335  40.961  12.909
57859W        W21803   5.267  12.357   4.278
57860W        W21804  15.748  26.592  11.591
57861W        W21805  22.037  15.757  10.429
57862W        W21806   4.743  43.014   3.825
57863W        W21807  42.297  19.261   0.280
57864W        W21808  36.492   7.375   0.734
57865W        W21809   7.234  41.935   3.236
57866W        W21810  24.598  37.967   0.295
57867W        W21811  37.494   5.432  12.909
57868W        W21812   4.811  20.707   0.751
57869W        W21813   9.872  26.590   0.791
57870W        W21814   0.967  25.633  14.354
57871W        W21815  27.625  21.756   0.244
57872W        W21816  19.148  11.719  11.006
57873W        W21817  17.724  41.854  10.931
57874W        W21818   8.393   4.395  14.281
57875W        W21819   8.842  29.134   3.191
57876W        W21820  34.614  36.400   1.932
57877W        W21821  38.454  34.076   2.840
57878W        W21822   9.258  43.839  12.512
57879W        W21823  10.233   8.366  14.445
57880W        W21824  39.376  23.623   4.763
57881W        W21825   8.235  38.935   2.246
57882W        W21826   0.915   1.846   9.940
57883W        W21827  38.506  31.103  10.972
57884W        W21828   5.230  23.009   3.200
57885W        W21829  14.231  13.666   3.282
57886W        W21830  25.563  36.890  11.526
57887W        W21831  38.941  17.134   2.893
57888W        W21832  34.063  40.318   0.871
57889W        W21833  43.995  19.623   0.967
57890W        W21834   1.298   5.412   4.694
57891W        W21835  16.179  28.562  10.430
57892W        W21836  28.490  32.894  13.328
57893W        W21837  26.520  34.369   1.313
57894W        W21838  31.080  41.514   4.653
57895W        W21839   9.691  20.256  13.393
57896W        W21840  30.057  43.928   1.243
57897W        W21841  15.249  38.328   4.212
57898W        W21842  20.212  24.499  14.327
57899W        W21843  36.425  41.881   3.312
57900W        W21844  33.514  26.458  14.395
57901W        W21845   6.707   2.259  11.944
57902W        W21846   0.258  11.231  14.766
57903W        W21847  19.734  29.632   1.784
57904W        W21848  35.065   6.732  12.401
57905W        W21849  14.224   2.391   4.235
57906W        W21850  40.452  39.541   2.822
57907W        W21851  16.220   5.898   4.245
57908W        W21852  18.052  19.688  12.974
57909W        W21853  24.500  36.939  13.951
57910W        W21854  28.561  13.732  12.043
57911W        W21855   4.262  22.044   3.319
57912W        W21856  30.922  26.057  13.315
57913W        W21857  13.637   0.448   1.375
57914W        W21858   3.759   3.353  14.376
57915W        W21859  25.169  18.269   4.686
57916W        W21860  11.781  44.807   2.181
57917W        W21861  31.464  15.212   2.785
57918W        W21862  19.700   3.417   4.820
57919W        W21863   3.901   5.197   3.314
57920W        W21864  22.599   1.396  14.410
57921W        W21865   0.271  36.374  12.388
57922W        W21866  42.511  28.479  14.944
57923W        W21867  35.911  11.685   1.441
57924W        W21868  10.688  34.392   3.308
57925W        W21869  38.962  27.168  13.981
57926W        W21870  42.977  35.363  14.990
57927W        W21871  35.484  10.797   1.753
57928W        W21872  20.636  22.153  12.996
57929W        W21873  18.554  12.217   0.434
57930W        W21874  24.486   9.781   3.633
57931W        W21875  25.097  35.585   1.241
57932W        W21876  20.699   9.268   0.265
57933W        W21877  10.313  35.544  14.406
57934W        W21878  43.943  15.643  13.503
57935W        W21879  22.996  14.653  13.546
57936W        W21880  26.130  25.666  13.805
57937W        W21881  18.681  16.787  14.502
57938W        W21882  15.204  29.157   2.737
57939W        W21883   3.716  33.881  11.945
57940W        W21884  30.539   3.337   0.770
57941W        W21885  35.864  29.497   0.405
57942W        W21886  26.466  27.555   0.255
57943W        W21887  44.820   7.393   3.710
57944W        W21888  24.979  41.967  11.857
57945W        W21889   8.333  26.203   3.200
57946W        W21890   0.311  35.564   1.400
57947W        W21891  11.146  20.155   3.320
57948W        W21892  25.056  21.085  11.432
57949W        W21893  38.474  15.140   2.678
57950W        W21894  16.079  27.165  11.410
57951W        W21895  40.501  23.043   4.311
57952W        W21896  35.044  10.164   0.924
57953W        W21897  14.113  44.935  14.363
57954W        W21898  29.482  15.220  14.924
57955W        W21899  13.235  27.632   1.446
57956W        W21900   9.375  14.719   3.337
57957W        W21901  35.371  32.391   2.842
57958W        W21902  27.565  23.046  12.937
57959W        W21903  26.600  19.284  14.388
57960W        W21904   9.650  11.138  10.596
57961W        W21905  25.525  39.049  13.846
57962W        W21906  33.025   7.850  14.281
57963W        W21907  16.168   4.310   4.653
57964W        W21908  33.448   4.921   4.243
57965W        W21909  35.919  23.033   3.294
57966W        W21910   2.441  42.454  12.406
57967W        W21911  28.494  17.586  14.759
57968W        W21912  26.133   5.916  11.864
57969W        W21913   0.892  28.976  11.929
57970W        W21914   6.224  14.282   2.229
57971W        W21915  31.067  41.389   5.187
57972W        W21916  44.448  25.516   4.806
57973W        W21917   6.709  29.566  11.558
57974W        W21918  19.735  10.649  14.887
57975W        W21919  14.691  28.173  12.004
57976W        W21920   5.425  34.610   1.241
57977W        W21921   9.288   3.371  10.410
57978W        W21922   7.674  26.073  13.982
57979W        W21923  29.936  38.372   4.266
57980W        W21924  11.831   7.725   1.905
57981W        W21925   6.876  11.337  13.816
57982W        W21926  20.593  10.239   1.817
57983W        W21927  42.028   1.849   1.820
57984W        W21928  38.948  38.835   1.253
57985W        W21929   9.813  33.047  13.514
57986W        W21930  27.648  15.639   4.794
57987W        W21931  36.078  39.516  11.006
57988W        W21932  40.905  11.168  14.830
57989W        W21933  40.018  10.875  13.946
57990W        W21934   9.150  31.971  12.378
57991W        W21935  12.147  39.322   0.783
57992W        W21936  33.057   9.888  11.443
57993W        W21937   4.297  14.160  14.500
57994W        W21938   8.690  21.141   4.211
57995W        W21939  38.547  23.234  10.582
57996W        W21940  14.646  41.806   4.137
57997W        W21941   3.305  13.308  11.927
57998W        W21942  16.636  32.570  11.873
57999W        W21943  20.206   7.800  11.996
58000W        W21944  18.230  19.200  13.547
58001W        W21945   8.838  27.482   9.599
58002W        W21946  36.439  25.697  11.949
58003W        W21947  18.627   8.760   0.460
58004W        W21948  15.135   8.681  11.891
58005W        W21949   6.853  31.012  12.914
58006W        W21950  12.836  26.510   2.879
58007W        W21951  38.914  41.874  14.416
58008W        W21952  22.113  24.034  13.838
58009W        W21953  28.016   2.765  11.005
58010W        W21954  35.896  11.240   2.275
58011W        W21955  39.921  21.722   2.727
58012W        W21956  29.986  19.678  11.890
58013W        W21957   2.380  12.270   4.598
58014W        W21958   7.291  10.692   2.255
58015W        W21959   2.850   3.929   2.255
58016W        W21960  15.633  36.957  11.485
58017W        W21961   0.314  36.992   2.753
58018W        W21962   2.308   4.786   0.838
58019W        W21963  41.871  17.664   0.423
58020W        W21964  11.758  19.533   3.743
58021W        W21965  22.140  35.104   2.359
58022W        W21966  39.558  34.048  11.377
58023W        W21967  11.146  19.073  13.010
58024W        W21968   6.739  27.041   2.744
58025W        W21969  37.958   7.696   3.214
58026W        W21970  12.768   3.754  10.420
58027W        W21971  16.194  21.223   1.425
58028W        W21972  27.138  28.580  12.895
58029W        W21973  25.095  21.103   0.417
58030W        W21974   6.745   0.388  10.603
58031W        W21975  35.559  14.803  11.100
58032W        W21976  27.146  44.908  14.011
58033W        W21977  10.665  43.944   4.290
58034W        W21978   8.193   1.851  14.896
58035W        W21979  26.643   8.896  14.287
58036W        W21980  44.342  19.686  11.955
58037W        W21981   7.755  20.095  14.959
58038W        W21982  12.612  40.957   0.307
58039W        W21983  44.268  41.467  12.568
58040W        W21984  10.733  35.532  13.899
58041W        W21985  25.082   3.816  10.414
58042W        W21986  29.175  13.290   2.288
58043W        W21987  38.489  36.529   3.157
58044W        W21988  25.568   5.431   4.241
58045W        W21989  23.222  33.563   1.386
58046W        W21990  44.924  25.200   4.245
58047W        W21991  33.903  35.459  12.925
58048W        W21992   2.832  14.104  12.353
58049W        W21993  42.423  35.423   2.252
58050W        W21994   9.203  23.660   9.958
58051W        W21995   4.832   0.363   0.866
58052W        W21996  44.384  25.983  14.777
58053W        W21997  28.662  14.206   0.760
58054W        W21998  11.186  17.584  13.915
58055W        W21999  27.601  38.452   2.255
58056W        W22000  38.060   8.386  14.352
58057W        W22001  17.581   5.722   2.728
58058W        W22002   8.332   0.809   2.243
58059W        W22003  41.861  30.144   0.820
58060W        W22004   4.892  23.639   4.669
58061W        W22005  24.114  44.901  13.997
58062W        W22006   7.764  20.597  13.321
58063W        W22007  21.116   6.807   1.727
58064W        W22008  44.451  32.400  12.073
58065W        W22009  38.849  19.600  10.010
58066W        W22010  34.046  35.382   3.368
58067W        W22011   1.429  39.472   0.735
58068W        W22012  16.794  35.516  14.337
58069W        W22013  43.289  32.551   1.402
58070W        W22014   8.173  41.930  11.114
58071W        W22015  23.115  31.424   2.855
58072W        W22016  12.840  34.039   2.269
58073W        W22017  17.691  19.195  14.918
58074W        W22018  40.881  31.411   3.256
58075W        W22019  25.206   8.292  14.406
58076W        W22020  38.345  23.496   2.814
58077W        W22021  19.224  38.010   2.225
58078W        W22022  23.703  37.843  14.370
58079W        W22023  18.689  39.515  13.456
58080W        W22024  40.941   6.782   0.258
58081W        W22025  20.232  24.162  10.147
58082W        W22026  22.034   9.827   3.291
58083W        W22027  28.465  13.618  11.430
58084W        W22028  26.608  33.582   4.117
58085W        W22029  18.739  25.127   1.733
58086W        W22030  44.992  38.480  12.527
58087W        W22031  19.168  38.362   3.233
58088W        W22032  41.859  34.376   2.708
58089W        W22033  32.003  12.802  14.979
58090W        W22034  19.553  35.881  12.378
58091W        W22035  10.765  15.089   4.193
58092W        W22036  15.240  14.103  14.956
58093W        W22037   7.302   3.240   3.703
58094W        W22038   0.447  13.799   3.784
58095W        W22039   2.796  40.529  10.410
58096W        W22040   6.310   3.300  14.911
58097W        W22041  34.901   3.952   4.685
58098W        W22042  44.941  42.513   2.814
58099W        W22043  15.767  17.619  13.908
58100W        W22044   8.848  17.228   3.359
58101W        W22045   4.380  44.505  14.453
58102W        W22046  37.069  32.443  13.339
58103W        W22047   7.194   0.920   0.805
58104W        W22048  12.225  40.925   4.611
58105W        W22049  38.911  28.955  11.488
58106W        W22050  14.814  20.725  11.514
58107W        W22051  44.330  37.960   1.751
58108W        W22052  21.133  18.592   1.722
58109W        W22053  22.658  11.131  10.467
58110W        W22054  21.531   4.377  10.601
58111W        W22055   3.874  42.516  14.894
58112W        W22056  26.492  40.997   0.268
58113W        W22057  10.329   1.939   2.673
58114W        W22058  19.100  28.982   4.144
58115W        W22059   3.928   4.711  11.987
58116W        W22060   8.698  20.577  13.411
58117W        W22061   3.278  31.897   0.417
58118W        W22062   8.755   4.894   0.313
58119W        W22063  42.308  39.363  12.525
58120W        W22064   2.236   0.265   2.391
58121W        W22065  23.524  42.355  12.031
58122W        W22066  23.103   5.810   0.423
58123W        W22067  10.662  33.998   2.386
58124W        W22068   9.706  25.694  14.015
58125W        W22069  10.871  14.827  10.470
58126W        W22070   3.842  41.809   4.152
58127W        W22071  27.638  15.320  12.436
58128W        W22072  33.415  41.470  12.533
58129W        W22073  12.249   5.907  11.971
58130W        W22074  10.782  15.168   2.246
58131W        W22075  44.789   2.369   4.689
58132W        W22076  41.017  20.534   3.761
58133W        W22077  40.030  37.045   3.370
58134W        W22078  20.262   3.940  12.051
58135W        W22079  20.128  22.588   4.697
58136W        W22080  15.251  30.922   3.675
58137W        W22081  28.963  31.462   4.118
58138W        W22082   3.373  41.899   3.266
58139W        W22083  18.719   3.720  10.414
58140W        W22084  25.059  25.207   3.647
58141W        W22085  32.024  43.463  13.510
58142W        W22086  35.561   5.824  13.512
58143W        W22087  15.604  31.471  13.476
58144W        W22088  40.546  30.566   2.248
58145W        W22089   9.184  27.983  11.029
58146W        W22090  25.708   8.392   0.897
58147W        W22091   2.777  27.947   3.155
58148W        W22092  33.899  43.940  13.496
58149W        W22093   8.171   7.206  10.901
58150W        W22094  40.309  44.477  13.349
58151W        W22095   4.317  28.674   1.891
58152W        W22096  16.590  36.956   4.292
58153W        W22097  10.244  16.316  14.783
58154W        W22098  35.553  28.151   4.148
58155W        W22099  18.279  40.470  13.859
58156W        W22100   2.748  34.907   3.275
58157W        W22101  32.608  11.778  13.009
58158W        W22102  44.799  26.143   2.271
58159W        W22103   7.812  42.868  11.083
58160W        W22104  24.640   2.836  11.458
58161W        W22105  20.585  40.050  13.003
58162W        W22106  16.072   9.799  13.450
58163W        W22107  19.177  38.825   3.779
58164W        W22108  35.579  21.687  10.467
58165W        W22109  38.076   3.287  12.387
58166W        W22110  19.133   8.671  14.369
58167W        W22111  18.190  36.855   2.263
58168W        W22112   1.376   4.757  12.953
58169W        W22113   8.279  32.557  11.995
58170W        W22114  35.545  43.892  14.767
58171W        W22115  17.572  24.514  12.524
58172W        W22116  14.752   8.387   0.435
58173W        W22117  10.666   1.244  11.901
58174W        W22118  23.122  28.025  10.138
58175W        W22119  28.582   6.687  11.387
58176W        W22120  12.296  17.113   0.934
58177W        W22121  11.268   0.964  12.380
58178W        W22122  14.110  33.067   4.336
58179W        W22123   8.217  26.679   3.821
58180W        W22124   9.852  13.347   2.362
58181W        W22125   6.846  41.351   1.314
58182W        W22126  43.475  24.979   0.735
58183W        W22127   3.270  11.140  13.953
58184W        W22128   0.837  26.694  12.550
58185W        W22129   4.236  36.397  12.851
58186W        W22130  30.962  31.095  13.403
58187W        W22131  33.129  34.867   2.374
58188W        W22132   9.376  31.898  10.939
58189W        W22133  40.449  18.690   0.328
58190W        W22134  40.429  17.165  14.857
58191W        W22135  30.443  16.143  10.972
58192W        W22136  17.672  21.064   5.575
58193W        W22137  15.580  31.101   2.334
58194W        W22138  15.616  16.091   0.893
58195W        W22139  40.986   2.446   4.169
58196W        W22140  26.653  30.130   4.825
58197W        W22141  10.279   0.264   2.210
58198W        W22142  20.566  29.603   1.278
58199W        W22143  44.778   2.778   1.440
58200W        W22144  19.254  37.993  12.006
58201W        W22145  29.569  19.754   0.350
58202W        W22146  13.674   6.783   0.963
58203W        W22147  20.679  14.642   3.716
58204W        W22148   9.386  22.699   2.254
58205W        W22149  19.732  22.071  13.368
58206W        W22150  23.138  17.580   3.351
58207W        W22151  15.253  21.080  14.320
58208W        W22152  39.840   7.372   0.852
58209W        W22153  24.088  40.916   2.830
58210W        W22154   1.734  14.618  13.980
58211W        W22155  21.709   3.828   1.784
58212W        W22156  16.735   7.678  11.495
58213W        W22157   4.258  15.709  13.458
58214W        W22158  17.147  21.545   2.193
58215W        W22159  23.649  23.549   1.310
58216W        W22160  23.543  38.050  10.636
58217W        W22161  25.143  33.014  13.019
58218W        W22162  35.532   7.289  13.988
58219W        W22163   8.252   9.806   1.254
58220W        W22164  25.052  43.291   1.424
58221W        W22165   4.757  35.865  13.400
58222W        W22166  10.236  40.525   0.295
58223W        W22167   2.932  42.903  10.967
58224W        W22168  16.624  24.532   3.847
58225W        W22169  25.036  17.563   0.320
58226W        W22170   7.276  23.698   4.144
58227W        W22171   2.277  40.391  12.572
58228W        W22172   2.799  39.478  11.095
58229W        W22173  39.947  12.352   0.354
58230W        W22174  32.514  36.928  10.985
58231W        W22175  38.547  27.585   2.757
58232W        W22176  13.745  38.965   2.855
58233W        W22177  26.491  24.177   3.634
58234W        W22178  43.495  31.566  10.578
58235W        W22179  40.512  25.692  11.566
58236W        W22180  38.068  34.943  11.406
58237W        W22181  22.639  31.410  13.950
58238W        W22182  36.929  15.172   0.479
58239W        W22183  17.744   1.318  11.939
58240W        W22184   8.787  16.710  14.928
58241W        W22185  12.142   8.309  11.922
58242W        W22186  23.529   2.279  13.012
58243W        W22187  25.032   8.247   0.395
58244W        W22188  15.163   9.209  13.424
58245W        W22189   7.841  14.211  10.116
58246W        W22190   0.250  26.076   2.758
58247W        W22191  15.149  20.259   0.328
58248W        W22192  19.199  29.576  12.367
58249W        W22193  14.726   8.728  13.874
58250W        W22194   6.856  23.049  14.027
58251W        W22195   4.711  15.668   3.224
58252W        W22196  25.194   4.716   5.286
58253W        W22197   8.168  29.080  12.946
58254W        W22198   2.301  26.605   2.867
58255W        W22199   2.767   5.354   0.445
58256W        W22200  17.134  15.125   3.219
58257W        W22201   0.923  42.823  12.990
58258W        W22202  10.753  18.670   3.352
58259W        W22203  35.375  40.947   4.218
58260W        W22204   5.759  15.700   4.307
58261W        W22205  30.118  10.241   1.388
58262W        W22206  22.098  28.627  12.399
58263W        W22207  12.188  13.267  10.939
58264W        W22208   1.283  41.376  11.390
58265W        W22209  25.624  41.861   9.529
58266W        W22210   3.750   1.898  12.422
58267W        W22211  10.686  42.523   2.699
58268W        W22212  30.022  11.735  11.507
58269W        W22213  25.213  33.485   1.862
58270W        W22214  44.405  22.238  12.574
58271W        W22215  20.176  42.326  11.549
58272W        W22216  12.788  38.919   1.850
58273W        W22217  44.264   4.216  12.837
58274W        W22218  35.526  28.165   3.802
58275W        W22219   3.883  34.116  12.823
58276W        W22220  35.032  36.937  11.921
58277W        W22221  32.122  42.331  14.401
58278W        W22222   8.696  44.878   2.209
58279W        W22223  40.009  34.520   4.337
58280W        W22224  18.682  40.856   1.884
58281W        W22225  33.940  41.405   2.876
58282W        W22226  20.257  36.402  14.974
58283W        W22227  31.050  30.487  13.832
58284W        W22228  21.732   2.893  13.518
58285W        W22229  43.903  39.387   3.337
58286W        W22230  42.797  22.035   0.482
58287W        W22231  40.915  19.076   2.676
58288W        W22232  34.508  13.777   4.313
58289W        W22233   6.756  16.143   5.269
58290W        W22234  33.063  39.482   3.195
58291W        W22235  25.696  41.921   1.918
58292W        W22236   9.178  22.646  10.147
58293W        W22237  11.325   6.700   4.206
58294W        W22238  24.659  29.575   4.124
58295W        W22239  38.425  24.514  11.016
58296W        W22240  37.890  42.461   1.900
58297W        W22241  13.727  10.325  10.556
58298W        W22242   6.787  38.521  11.979
58299W        W22243  25.528  32.566  14.328
58300W        W22244  18.788  17.123   2.836
58301W        W22245  19.109  36.959  11.087
58302W        W22246  14.253  37.575   4.708
58303W        W22247   4.836   8.688   5.100
58304W        W22248  41.336  21.602   3.325
58305W        W22249  29.454  30.659  13.462
58306W        W22250  44.452  35.927  10.931
58307W        W22251  11.268  16.583   1.352
58308W        W22252   4.425   8.725   3.664
58309W        W22253   0.864  23.699  13.410
58310W        W22254  25.168  12.277   4.313
58311W        W22255  41.895  36.045  13.425
58312W        W22256   6.415  19.698   1.772
58313W        W22257  15.817  21.587  11.111
58314W        W22258  23.498   3.276  14.770
58315W        W22259   8.175  42.011   3.306
58316W        W22260  43.385   7.246  14.860
58317W        W22261  19.211  12.628  10.989
58318W        W22262  36.062  39.994  11.583
58319W        W22263   4.811  33.457   1.435
58320W        W22264  14.636  37.965  11.550
58321W        W22265  30.421   4.840   2.843
58322W        W22266  19.643  13.804   1.279
58323W        W22267  21.247  29.517   4.598
58324W        W22268  27.151  37.005  11.566
58325W        W22269  13.837   1.452  13.942
58326W        W22270  12.172  23.603   4.206
58327W        W22271  30.568  16.646   5.671
58328W        W22272  40.471  44.918  10.619
58329W        W22273  41.918  16.656  14.808
58330W        W22274  17.687  40.946  13.871
58331W        W22275  37.914  22.238  13.047
58332W        W22276  20.705  37.865   0.276
58333W        W22277  27.113  23.231  10.412
58334W        W22278  18.655   4.864   4.625
58335W        W22279  23.018  38.976   4.286
58336W        W22280  26.480   4.703   2.755
58337W        W22281  11.753  13.659  14.304
58338W        W22282   9.730  24.046  12.952
58339W        W22283  33.602  14.693  13.871
58340W        W22284   3.376  41.456   4.195
58341W        W22285  42.027  40.881   4.130
58342W        W22286  20.163  12.710  14.299
58343W        W22287  33.072  29.175  14.495
58344W        W22288  37.904  21.715  12.039
58345W        W22289  27.475  17.755   0.423
58346W        W22290  25.079  26.621   3.794
58347W        W22291  44.497   6.765  13.446
58348W        W22292  21.177  12.210  14.418
58349W        W22293  31.147   8.207  10.425
58350W        W22294  38.032  36.533  11.096
58351W        W22295   9.225  32.975   2.416
58352W        W22296   4.881  31.048  13.977
58353W        W22297  12.152  28.010   3.187
58354W        W22298  43.425  27.158  11.027
58355W        W22299   1.783   3.823   3.685
58356W        W22300  12.688   7.290   4.190
58357W        W22301  44.266  40.362   1.817
58358W        W22302  34.108  20.612   1.381
58359W        W22303  25.477   6.922  14.382
58360W        W22304  16.618  44.264  13.360
58361W        W22305  17.612  12.161  10.980
58362W        W22306  25.651  16.266  13.541
58363W        W22307   7.221  34.885  12.980
58364W        W22308   8.212   4.876  11.976
58365W        W22309  42.789  26.682   3.372
58366W        W22310   3.882  39.447  13.368
58367W        W22311  34.098   4.374   1.330
58368W        W22312  37.846  13.763  12.857
58369W        W22313  28.049   9.753  11.543
58370W        W22314  28.123  19.253   0.736
58371W        W22315  10.158  42.928  11.107
58372W        W22316  30.059  34.029  11.015
58373W        W22317  40.908  14.759   3.784
58374W        W22318  19.240  19.089  13.906
58375W        W22319  24.640  26.045   0.735
58376W        W22320  18.674  35.430   1.370
58377W        W22321  16.740   3.431  14.804
58378W        W22322  32.514  24.703  14.817
58379W        W22323  19.682   0.476  12.953
58380W        W22324   6.849  26.525   4.174
58381W        W22325   1.974  44.878  14.795
58382W        W22326  22.046  11.143   0.474
58383W        W22327   8.259  18.268  13.800
58384W        W22328  29.496  39.361  10.641
58385W        W22329  15.156  17.699   2.221
58386W        W22330  41.412   0.822  10.616
58387W        W22331  42.790  26.126  12.018
58388W        W22332  24.485  22.656   2.256
58389W        W22333  41.449  31.499  12.542
58390W        W22334  29.488  32.987  11.026
58391W        W22335  20.686   7.258   2.199
58392W        W22336  42.875   8.742  10.638
58393W        W22337  22.743  44.926   4.668
58394W        W22338   7.813  42.897   3.682
58395W        W22339  26.028  37.577  11.099
58396W        W22340  21.258  34.964   0.875
58397W        W22341  27.565  30.524  13.040
58398W        W22342  36.434  44.755   0.753
58399W        W22343  27.467  24.491  13.989
58400W        W22344  16.227  37.573  12.491
58401W        W22345  40.880  20.719  14.471
58402W        W22346  29.082   6.771  12.959
58403W        W22347  32.576  13.210   0.390
58404W        W22348   5.391  30.006   3.833
58405W        W22349  16.252  16.303  13.928
58406W        W22350  33.414  41.536   4.811
58407W        W22351  36.893   8.843   1.874
58408W        W22352  18.771  28.541   4.132
58409W        W22353  27.113  28.643   3.659
58410W        W22354  36.981  20.055  12.561
58411W        W22355  41.345  12.814   2.285
58412W        W22356   3.388  26.505   3.224
58413W        W22357  17.142  25.172   0.434
58414W        W22358  38.339  28.057   3.382
58415W        W22359  28.151   8.313   2.385
58416W        W22360   4.443  11.750  12.492
58417W        W22361  16.240  42.937   4.733
58418W        W22362  28.491  44.421  12.523
58419W        W22363  42.446  41.900  11.471
58420W        W22364  28.997  22.247  14.316
58421W        W22365  37.438  41.450   9.961
58422W        W22366  41.793   1.385   2.382
58423W        W22367  27.041  31.632  14.279
58424W        W22368   2.808  33.438  14.877
58425W        W22369  34.395  31.108   2.754
58426W        W22370  40.977  39.830  10.570
58427W        W22371   1.874  41.012  14.982
58428W        W22372  22.516  21.042  12.859
58429W        W22373  28.973  11.178  14.013
58430W        W22374  33.052   6.865  14.441
58431W        W22375  25.568  26.202   0.363
58432W        W22376  30.138  17.125  13.883
58433W        W22377  16.247   8.375   1.747
58434W        W22378  10.821  11.798   2.837
58435W        W22379   3.808   5.733   1.362
58436W        W22380  16.247  15.290  10.545
58437W        W22381  18.139  42.313   1.318
58438W        W22382  37.396   3.424   3.217
58439W        W22383  19.059  32.897  14.366
58440W        W22384  34.416  16.105  11.586
58441W        W22385   0.977  28.141   5.086
58442W        W22386  16.221  23.601   0.801
58443W        W22387  19.705  34.494   2.898
58444W        W22388  32.571  19.226   2.419
58445W        W22389  12.165   4.838   1.320
58446W        W22390  19.610  14.195  13.539
58447W        W22391  35.587  21.674   2.819
58448W        W22392  44.446  15.749   1.770
58449W        W22393  26.090   7.293   0.292
58450W        W22394   2.416  27.622  13.829
58451W        W22395   0.428  18.576  14.993
58452W        W22396  18.644  11.323   3.748
58453W        W22397  43.495  21.621  11.066
58454W        W22398  40.003  13.295  11.058
58455W        W22399  35.602   1.942   0.752
58456W        W22400  38.899   9.287   1.349
58457W        W22401   8.848   0.457  10.628
58458W        W22402  39.009   6.819   4.605
58459W        W22403  24.663  26.632   0.891
58460W        W22404  25.470   7.696   4.698
58461W        W22405   8.272  28.681  13.472
58462W        W22406   2.729  20.145   0.791
58463W        W22407  34.956  28.161   1.899
58464W        W22408  28.119  30.508  12.350
58465W        W22409   7.798  15.691   2.857
58466W        W22410   2.962   5.230   4.160
58467W        W22411  10.657  44.798   4.723
58468W        W22412   5.786   6.751   0.817
58469W        W22413  26.687  13.843  11.589
58470W        W22414   7.839  34.589   2.196
58471W        W22415  41.024   4.882  14.890
58472W        W22416  15.816  33.603   1.428
58473W        W22417   5.697  25.220   3.783
58474W        W22418  18.276  41.806   3.301
58475W        W22419  19.083   3.279   1.749
58476W        W22420  12.718   2.725  11.860
58477W        W22421   7.723   8.221   4.169
58478W        W22422  26.474   5.910   2.759
58479W        W22423   9.787  20.754   0.306
58480W        W22424  44.854   6.864  11.935
58481W        W22425  36.073  41.345  13.547
58482W        W22426  21.129   2.227  12.896
58483W        W22427   1.483  38.948  11.565
58484W        W22428  14.126   2.951   3.745
58485W        W22429  25.585  16.195   3.639
58486W        W22430  19.696   9.804   4.602
58487W        W22431  16.083  36.526   0.252
58488W        W22432  28.132  11.768  12.446
58489W        W22433   4.899   3.803  12.940
58490W        W22434  11.198  14.688   0.452
58491W        W22435  12.808  19.263  14.440
58492W        W22436  42.369  39.393   1.268
58493W        W22437  35.394   9.651   1.914
58494W        W22438   0.860   1.303   0.760
58495W        W22439  39.879  20.680  14.851
58496W        W22440  35.414  13.273  11.423
58497W        W22441  14.245  43.463  12.862
58498W        W22442  13.283  37.354  11.927
58499W        W22443  30.570  29.155   2.408
58500W        W22444  11.189  29.616   3.343
58501W        W22445  29.639  42.325  14.433
58502W        W22446  33.570  17.144  14.923
58503W        W22447  21.686  15.617  10.584
58504W        W22448  33.088  42.976  10.998
58505W        W22449  10.736  24.154   0.943
58506W        W22450   6.376   3.329   5.220
58507W        W22451  32.888   8.833  14.764
58508W        W22452   7.348  19.157   2.249
58509W        W22453   6.802   2.470  10.404
58510W        W22454  26.633   2.737  11.906
58511W        W22455  11.695  29.574   1.289
58512W        W22456  17.796  15.135  14.859
58513W        W22457  39.467  44.965   1.921
58514W        W22458  15.143  40.014   4.643
58515W        W22459  23.569  30.615   1.393
58516W        W22460   0.276  34.993  14.950
58517W        W22461   3.927   0.950  11.890
58518W        W22462  34.522  21.511   0.405
58519W        W22463  20.133  14.096  10.552
58520W        W22464  44.901  33.902  14.916
58521W        W22465   1.297  36.886   4.126
58522W        W22466  35.974  18.703  11.479
58523W        W22467  11.309  32.990  11.098
58524W        W22468   2.244   4.232  12.878
58525W        W22469  40.532  42.775   5.302
58526W        W22470   2.397  31.131   4.822
58527W        W22471   6.808   0.847   1.303
58528W        W22472   6.791  33.403   3.832
58529W        W22473  44.875  29.989   2.822
58530W        W22474  27.603  41.326  11.984
58531W        W22475  16.118   0.801  10.552
58532W        W22476  22.722  39.939  14.431
58533W        W22477  26.977   2.441  12.426
58534W        W22478   7.298  36.518   0.767
58535W        W22479  32.929  23.994   0.283
58536W        W22480  40.410  19.770  14.291
58537W        W22481  16.256   1.873  14.854
58538W        W22482   9.773   4.293  11.388
58539W        W22483  11.716  44.337  10.476
58540W        W22484   8.681   3.863   4.668
58541W        W22485  29.505  18.143   0.392
58542W        W22486   2.347   3.225  11.594
58543W        W22487  17.299   6.731   2.711
58544W        W22488  30.984   3.915   1.859
58545W        W22489  34.398  35.437  14.446
58546W        W22490  14.668  42.887   0.244
58547W        W22491  32.452  44.869   2.700
58548W        W22492  10.685  20.742  12.348
58549W        W22493   3.825  20.597  13.411
58550W        W22494  13.792   1.365   2.741
58551W        W22495   1.933  15.110   0.931
58552W        W22496  19.734  20.266  11.074
58553W        W22497  27.554  23.722  11.454
58554W        W22498  35.603  22.093   4.711
58555W        W22499  18.550  29.019  12.921
58556W        W22500   9.864  18.159  12.575
58557W        W22501  32.943  13.218   0.846
58558W        W22502   4.799  39.832   2.834
58559W        W22503  11.130  15.685   1.254
58560W        W22504  19.134   9.230   0.284
58561W        W22505   5.265  13.143  11.602
58562W        W22506  31.553  15.640  14.406
58563W        W22507  23.497  14.789   3.340
58564W        W22508  36.427  40.005   1.438
58565W        W22509  27.165  40.526  13.346
58566W        W22510  23.213  37.344  14.471
58567W        W22511  37.923   3.221  14.847
58568W        W22512  41.333  11.678   2.355
58569W        W22513  36.481  40.896  13.057
58570W        W22514   2.859  22.013   4.720
58571W        W22515  21.632  27.447   0.804
58572W        W22516  33.020  10.303   3.854
58573W        W22517   3.316  18.615   4.670
58574W        W22518   3.776  27.076  14.408
58575W        W22519   5.814  32.143   0.297
58576W        W22520  29.631  42.012   2.414
58577W        W22521   6.353  35.522   1.320
58578W        W22522  42.925  21.640  14.851
58579W        W22523  23.661   2.280  12.399
58580W        W22524  42.287  16.267  10.455
58581W        W22525  10.782  10.316   1.390
58582W        W22526   4.323  14.182   3.736
58583W        W22527  33.957  35.432   4.733
58584W        W22528  38.017  14.241  12.051
58585W        W22529  26.564  11.637  13.978
58586W        W22530  44.278  44.387   0.823
58587W        W22531  18.281  22.119  11.033
58588W        W22532  26.701  25.000  13.447
58589W        W22533  19.580  18.773  13.026
58590W        W22534  16.811  34.998  10.594
58591W        W22535   3.404  36.466   2.292
58592W        W22536  36.488   3.795   0.350
58593W        W22537  39.456  34.482   4.234
58594W        W22538  33.469   7.862   4.778
58595W        W22539   8.813   0.832   4.192
58596W        W22540  10.233   8.707  13.398
58597W        W22541  25.630  38.847   1.397
58598W        W22542  23.658  14.812  12.069
58599W        W22543  38.931  37.456   5.317
58600W        W22544  42.444  15.256  14.358
58601W        W22545  24.052  43.459  14.865
58602W        W22546   6.283  24.206  10.418
58603W        W22547   6.368  34.971   1.237
58604W        W22548  22.602  16.239  12.410
58605W        W22549  33.026   4.426  14.017
58606W        W22550  38.011  21.147  11.516
58607W        W22551  14.685  20.758  11.914
58608W        W22552  21.172   2.953   4.631
58609W        W22553  13.190   9.862  12.025
58610W        W22554  41.314  19.196  11.559
58611W        W22555  26.969  36.547   3.175
58612W        W22556  33.437  30.463   5.147
58613W        W22557   8.357  42.985   3.772
58614W        W22558  18.249  21.563   0.335
58615W        W22559  28.492  31.103   2.191
58616W        W22560  32.427  28.052   4.177
58617W        W22561  43.816  29.931  11.561
58618W        W22562  14.152   1.927   2.836
58619W        W22563  26.086  32.998  14.922
58620W        W22564  41.436  35.866  13.337
58621W        W22565  22.659   9.842  10.433
58622W        W22566  41.427   8.188   0.405
58623W        W22567  37.003   6.331   0.458
58624W        W22568   9.676   2.274  12.937
58625W        W22569   7.237   3.711  14.950
58626W        W22570  14.769  29.014   3.852
58627W        W22571  13.631  32.064  14.346
58628W        W22572  20.609  39.012   0.282
58629W        W22573   6.722  11.755  13.921
58630W        W22574  12.321  37.554  11.919
58631W        W22575  19.688  11.335  13.338
58632W        W22576  30.159   9.849   2.180
58633W        W22577  17.656  11.217  13.938
58634W        W22578   2.297  11.284  14.022
58635W        W22579  20.265  11.314   1.864
58636W        W22580   2.234  30.064  11.468
58637W        W22581  44.462  42.492  12.492
58638W        W22582   3.321  22.547   3.260
58639W        W22583  26.468  23.500  14.340
58640W        W22584  16.706  41.452  11.393
58641W        W22585  23.125  34.025   0.757
58642W        W22586  31.898  38.517   1.214
58643W        W22587  12.619  29.984  14.446
58644W        W22588   9.712  38.437  10.938
58645W        W22589  32.051   0.893   5.235
58646W        W22590  31.984   2.780   3.152
58647W        W22591  36.498  38.994  13.835
58648W        W22592  43.374  26.087  10.630
58649W        W22593  24.012  39.421   2.304
58650W        W22594  14.139  14.255  11.033
58651W        W22595  11.171   5.843  11.869
58652W        W22596  16.271  23.121   9.480
58653W        W22597  28.668  38.395   9.994
58654W        W22598   1.452  32.581  11.096
58655W        W22599  18.246  42.778   3.242
58656W        W22600  18.763   7.742  12.932
58657W        W22601  14.282  30.650   3.304
58658W        W22602  14.591   8.278   1.310
58659W        W22603  14.614  11.843   1.234
58660W        W22604  12.265  34.571   3.662
58661W        W22605  11.867  15.208  11.525
58662W        W22606  36.365  11.838   3.648
58663W        W22607  40.522  31.969   3.640
58664W        W22608  31.553  42.944  12.516
58665W        W22609   4.363  10.251  10.445
58666W        W22610   5.821  33.039  11.087
58667W        W22611   0.446  34.934   4.323
58668W        W22612  25.001   0.337   0.766
58669W        W22613  18.712  38.958  11.933
58670W        W22614  15.297  18.631   2.716
58671W        W22615  16.682  36.023  12.017
58672W        W22616  33.884  33.018   3.366
58673W        W22617  38.558   1.409  11.861
58674W        W22618  38.344   8.290   1.345
58675W        W22619   7.330  39.837   0.362
58676W        W22620  40.809  37.850   1.779
58677W        W22621  34.587  44.778  13.428
58678W        W22622  20.670  27.573  11.990
58679W        W22623  38.439  34.115  10.908
58680W        W22624   9.244  29.652  11.111
58681W        W22625   3.796  38.409  12.410
58682W        W22626  20.260  14.829   1.805
58683W        W22627  28.932  21.658  13.399
58684W        W22628  19.691  22.167   2.754
58685W        W22629  40.929  43.805   2.899
58686W        W22630  11.764  30.161   4.753
58687W        W22631  33.605  12.226   3.768
58688W        W22632  19.263   8.829   0.334
58689W        W22633  41.918  21.074   2.337
58690W        W22634   4.730  25.556  14.410
58691W        W22635   8.686  15.253  14.836
58692W        W22636   9.815  42.363  12.509
58693W        W22637  11.762  32.004  12.860
58694W        W22638  20.580  17.292   1.822
58695W        W22639  42.434  16.181   3.247
58696W        W22640  41.952  16.219  10.448
58697W        W22641  42.365  17.697   1.912
58698W        W22642  37.850  11.215  14.493
58699W        W22643  16.261  25.600   1.714
58700W        W22644  23.573  41.831   3.798
58701W        W22645  43.444  23.117  10.990
58702W        W22646  32.064  40.968   4.823
58703W        W22647  22.535  19.688  10.105
58704W        W22648  21.724  20.599   4.288
58705W        W22649  18.141  21.596  14.030
58706W        W22650  15.213  24.682   4.642
58707W        W22651  38.356  33.922   1.381
58708W        W22652  31.094   0.902   4.811
58709W        W22653  32.476   2.452  13.501
58710W        W22654  25.544  24.031  11.900
58711W        W22655  44.385   3.318   4.268
58712W        W22656   7.764   1.363  14.488
58713W        W22657   7.707  18.119   3.250
58714W        W22658  19.774  41.960  10.428
58715W        W22659  35.588   3.233   0.330
58716W        W22660  19.739   8.713   0.831
58717W        W22661  43.769   9.830  14.005
58718W        W22662  44.886  36.914   3.151
58719W        W22663  24.565  43.449   2.818
58720W        W22664  19.581  44.290   3.229
58721W        W22665  32.955  32.542  13.791
58722W        W22666  28.164   2.797   3.803
58723W        W22667  39.499  32.490   2.248
58724W        W22668  37.071  40.422   3.656
58725W        W22669  31.964  37.973   4.207
58726W        W22670  21.098  31.952   2.733
58727W        W22671  34.546  34.001   2.893
58728W        W22672  27.981   6.899   0.322
58729W        W22673   6.240   3.452  12.864
58730W        W22674  35.011  19.237   2.699
58731W        W22675  27.984  16.737   4.148
58732W        W22676  42.462  32.408   4.156
58733W        W22677  41.454  33.586   0.412
58734W        W22678   6.730  16.637  13.401
58735W        W22679   3.393  35.042  13.487
58736W        W22680  35.590  25.091   4.604
58737W        W22681  28.169  25.062  11.087
58738W        W22682  29.140  14.721   2.758
58739W        W22683  42.927  39.861   2.803
58740W        W22684  13.821  41.437  14.326
58741W        W22685  43.454  16.084   3.283
58742W        W22686  32.464  13.779  10.914
58743W        W22687  24.521  41.333   1.929
58744W        W22688  36.458  40.861  10.417
58745W        W22689   2.838   5.796  13.882
58746W        W22690  27.131   6.195  13.053
58747W        W22691  39.892  41.921  13.865
58748W        W22692  15.671  19.231   0.880
58749W        W22693  34.606   4.894   0.893
58750W        W22694  12.712  28.507  13.863
58751W        W22695   8.808  31.522   4.780
58752W        W22696   8.875  33.433  12.033
58753W        W22697  15.674   1.421  14.935
58754W        W22698  30.980  18.753   5.094
58755W        W22699  12.242  39.381   2.738
58756W        W22700  28.996  24.091   3.315
58757W        W22701  36.440  33.111   0.476
58758W        W22702   2.787  19.112  14.919
58759W        W22703   7.832  41.403   2.817
58760W        W22704  10.808  35.408  11.097
58761W        W22705   1.894  44.782   1.769
58762W        W22706  26.604  15.204   1.892
58763W        W22707  35.883   0.803  14.809
58764W        W22708  28.679  43.382   3.757
58765W        W22709  41.014  36.420   3.312
58766W        W22710  14.124  44.361   4.224
58767W        W22711   2.370  30.524   2.832
58768W        W22712  10.349  27.115  13.056
58769W        W22713  15.785  16.188  14.875
58770W        W22714   5.905  13.137  13.330
58771W        W22715  20.185  19.107   4.765
58772W        W22716  33.494   8.232   3.312
58773W        W22717  37.553  11.815  13.498
58774W        W22718  25.521  32.572  11.486
58775W        W22719  33.514  34.560  13.794
58776W        W22720  44.461   2.416   4.276
58777W        W22721  40.848   7.742  11.566
58778W        W22722  19.548  21.649   0.857
58779W        W22723   1.404   5.252   3.301
58780W        W22724  42.943  33.948   3.716
58781W        W22725  11.336  17.729  13.398
58782W        W22726  21.521   5.236   3.147
58783W        W22727   6.858  35.057  14.331
58784W        W22728   1.775  24.201  14.798
58785W        W22729  20.034   8.172  12.442
58786W        W22730  30.440  30.995  10.519
58787W        W22731  33.440   6.232  13.829
58788W        W22732   8.710  43.802   2.753
58789W        W22733  22.035  35.576   3.672
58790W        W22734  34.386  37.573   1.701
58791W        W22735  13.674  44.441  10.021
58792W        W22736  19.157  36.349  14.025
58793W        W22737  41.444   6.717  13.868
58794W        W22738  24.098   5.229  11.975
58795W        W22739  29.078  22.213   0.377
58796W        W22740  43.295   8.316   0.437
58797W        W22741  28.458  43.920  11.056
58798W        W22742  37.517   7.298   1.769
58799W        W22743  25.689  31.612  13.347
58800W        W22744   6.385  10.765   3.185
58801W        W22745   6.757  14.780  14.875
58802W        W22746  35.965  22.590   2.792
58803W        W22747  38.030  37.967  10.537
58804W        W22748   5.295   5.346  10.069
58805W        W22749   3.717   6.360  13.042
58806W        W22750   2.883  36.889  14.396
58807W        W22751   2.297  42.388  11.090
58808W        W22752   8.179  44.816   3.331
58809W        W22753  18.768  20.154   4.235
58810W        W22754  14.706  11.274   2.256
58811W        W22755   2.350  37.414   1.362
58812W        W22756  26.533  40.961  14.330
58813W        W22757  10.187  22.675  12.845
58814W        W22758  42.392  34.614   4.138
58815W        W22759  43.881  15.273   0.815
58816W        W22760   6.311  36.858  12.579
58817W        W22761  34.416  15.750  10.983
58818W        W22762   2.323  14.096   0.405
58819W        W22763  14.702  28.481  11.554
58820W        W22764  16.297  22.619   2.728
58821W        W22765   7.837  43.800   4.323
58822W        W22766   6.891  34.383   3.688
58823W        W22767  24.623  13.617   2.878
58824W        W22768   3.428  15.740  14.900
58825W        W22769  42.282  13.222  12.945
58826W        W22770  13.745   0.988   4.282
58827W        W22771  37.398  40.840   1.321
58828W        W22772  38.475  32.499  11.512
58829W        W22773  14.285  31.138   3.220
58830W        W22774  24.984   3.816  11.110
58831W        W22775  12.809   0.401   0.857
58832W        W22776  39.422  39.458   3.834
58833W        W22777  28.034  13.781  13.505
58834W        W22778  40.892  41.349  13.029
58835W        W22779  22.158   6.839  10.552
58836W        W22780  14.269  37.939  12.986
58837W        W22781  14.656  24.033   1.381
58838W        W22782  23.490  20.112   3.184
58839W        W22783   2.317  22.148   2.260
58840W        W22784  20.662  44.332  13.411
58841W        W22785  44.945  38.043   2.221
58842W        W22786  42.291   8.232   1.430
58843W        W22787  30.130  27.963  13.871
58844W        W22788   5.855  44.348  13.421
58845W        W22789  35.857  42.802  13.973
58846W        W22790   4.886   9.158   4.234
58847W        W22791  15.087  19.275  12.344
58848W        W22792  26.961   8.805   0.759
58849W        W22793  24.116  10.331  14.888
58850W        W22794  16.703  43.882   2.317
58851W        W22795  13.668  15.724  12.043
58852W        W22796  28.661   0.480  10.584
58853W        W22797   1.240  35.482   4.690
58854W        W22798  30.046  15.625   1.387
58855W        W22799  43.400  28.060  12.905
58856W        W22800  23.564  36.471   3.853
58857W        W22801  44.368  29.580   0.409
58858W        W22802   7.206  35.055   4.248
58859W        W22803  24.656  12.756   3.375
58860W        W22804  36.457  43.388  13.516
58861W        W22805   0.881  14.106   2.225
58862W        W22806  32.918  38.340   1.232
58863W        W22807  41.341  23.192  10.446
58864W        W22808   7.374  28.480   5.124
58865W        W22809   6.318  38.066  11.983
58866W        W22810  16.577  10.653  13.367
58867W        W22811  44.957  22.540   4.342
58868W        W22812  29.963  35.429  10.432
58869W        W22813  24.665  36.427  11.898
58870W        W22814  41.829  10.738   4.243
58871W        W22815  12.769  29.559   1.773
58872W        W22816  28.455  30.491   0.731
58873W        W22817  36.359   1.250  12.991
58874W        W22818  40.314   2.398  10.933
58875W        W22819  28.487  38.472  14.324
58876W        W22820   1.872   9.246  14.453
58877W        W22821  38.548  26.698   1.850
58878W        W22822  30.619  25.703   3.313
58879W        W22823   9.824   3.405  11.393
58880W        W22824  16.634   2.961  12.396
58881W        W22825  34.609  36.078  10.916
58882W        W22826  27.600  19.589  10.494
58883W        W22827  40.488   9.748   4.164
58884W        W22828  18.752  35.507  10.608
58885W        W22829   8.829  44.979   0.854
58886W        W22830  22.219   5.763   1.293
58887W        W22831  16.641  39.854  11.484
58888W        W22832  30.153  34.087  12.042
58889W        W22833  28.048  19.095   3.729
58890W        W22834  30.054  39.975   1.702
58891W        W22835  40.379  37.498  13.466
58892W        W22836  39.935   9.836   1.335
58893W        W22837   7.307  30.150   3.839
58894W        W22838  15.283  26.613  13.929
58895W        W22839  14.662  36.051  12.023
58896W        W22840   1.821  18.073  13.819
58897W        W22841   1.339  31.066   2.328
58898W        W22842   0.972  36.888   2.405
58899W        W22843  19.175   8.279   0.802
58900W        W22844  43.001  40.928  12.837
58901W        W22845  24.230  20.686   3.700
58902W        W22846   8.188  23.059  11.117
58903W        W22847   1.857  19.624  14.955
58904W        W22848   2.251   0.898  13.505
58905W        W22849   6.397  22.625   3.371
58906W        W22850  16.635  16.696  14.320
58907W        W22851   8.299  19.155  14.024
58908W        W22852  40.980  30.094  13.452
58909W        W22853  29.159  20.051  12.936
58910W        W22854  24.505   6.802   2.692
58911W        W22855  40.869  33.466  14.012
58912W        W22856  30.469  23.717   0.314
58913W        W22857  25.106  17.245   1.929
58914W        W22858  15.143  10.319   1.713
58915W        W22859  26.054  37.403  14.766
58916W        W22860  11.657  15.624   4.143
58917W        W22861  20.671  29.665   3.693
58918W        W22862  43.836  25.968   0.420
58919W        W22863  41.386  29.050  13.007
58920W        W22864   5.309  40.972   3.285
58921W        W22865  39.044  32.420   0.853
58922W        W22866  27.502   3.356  11.058
58923W        W22867  24.623   2.845   3.326
58924W        W22868  14.220  13.316  14.477
58925W        W22869   9.227  43.852  11.065
58926W        W22870  32.431  24.180  11.507
58927W        W22871  34.515  38.477   0.272
58928W        W22872   0.436  38.471  11.090
58929W        W22873  30.061   7.831   2.841
58930W        W22874  34.449   7.798   2.818
58931W        W22875  18.196  35.583   3.206
58932W        W22876  20.648  15.723   0.825
58933W        W22877   0.985  11.157  14.442
58934W        W22878  43.845   9.660  12.567
58935W        W22879  17.177   2.322  10.576
58936W        W22880  17.796  11.647  11.111
58937W        W22881  23.174   3.453   3.254
58938W        W22882   8.817   9.381   3.341
58939W        W22883  13.244  37.989   2.265
58940W        W22884  36.456  41.504   0.787
58941W        W22885  26.115  40.365   4.807
58942W        W22886  40.969  29.445  11.458
58943W        W22887  31.468  15.280  14.440
58944W        W22888  30.441  23.023  11.084
58945W        W22889  21.257   2.853  12.444
58946W        W22890  42.020  42.330  13.848
58947W        W22891  21.183  31.969   3.752
58948W        W22892  15.183  11.305   1.762
58949W        W22893  13.278  10.847   1.825
58950W        W22894   4.701  16.183  14.835
58951W        W22895   5.736   6.395  12.825
58952W        W22896  44.487  26.548   4.693
58953W        W22897   7.703  16.780   0.843
58954W        W22898   1.785  20.183   1.322
58955W        W22899  30.500  26.115   0.756
58956W        W22900   9.304  32.545   5.090
58957W        W22901   2.817  25.646   3.775
58958W        W22902  14.594   4.897  12.573
58959W        W22903  20.693  23.032  13.899
58960W        W22904  22.076  36.570  13.905
58961W        W22905   2.343   1.295   1.885
58962W        W22906  39.011   4.770   1.867
58963W        W22907  38.515  21.055  13.457
58964W        W22908  35.911  34.090   2.260
58965W        W22909   7.299  42.971   3.846
58966W        W22910  17.704  20.716   0.751
58967W        W22911  37.373  27.580   3.330
58968W        W22912   6.798  44.756   3.253
58969W        W22913  27.644   3.400   4.352
58970W        W22914  28.963  30.144   2.836
58971W        W22915  28.067  30.119   0.410
58972W        W22916  16.737  32.504  11.082
58973W        W22917  11.643  35.544  14.469
58974W        W22918   7.368  21.214   0.952
58975W        W22919   5.854  29.146   2.189
58976W        W22920  25.158  25.537   2.415
58977W        W22921  42.799  27.079   0.952
58978W        W22922  23.529  20.650   3.684
58979W        W22923  38.419  41.492  12.094
58980W        W22924  25.100   0.864  14.506
58981W        W22925  26.513   3.930   4.242
58982W        W22926  27.473  13.153  11.999
58983W        W22927  14.140  14.154   0.762
58984W        W22928  12.158  18.268   0.805
58985W        W22929  10.279   5.859  14.012
58986W        W22930   9.840  30.947   0.357
58987W        W22931   5.264  24.630  11.396
58988W        W22932  15.168  12.805  14.466
58989W        W22933   4.348   4.931   3.742
58990W        W22934  41.946  16.746   4.247
58991W        W22935   6.351   1.312   4.751
58992W        W22936   3.435  42.989   3.289
58993W        W22937  25.117  19.556   2.728
58994W        W22938  26.062  36.933  12.853
58995W        W22939  10.167  27.063  14.805
58996W        W22940  34.569  38.831   0.291
58997W        W22941   9.703  14.332   3.360
58998W        W22942  17.684  32.412   5.132
58999W        W22943  20.073  22.234  10.130
59000W        W22944  14.097   6.746   1.406
59001W        W22945  15.685  22.543  10.019
59002W        W22946  39.486  15.744   0.790
59003W        W22947  24.579  14.779   4.142
59004W        W22948  27.167   0.457   3.785
59005W        W22949  36.379  43.857   4.285
59006W        W22950   7.854  32.472   1.395
59007W        W22951  42.820  18.595   1.928
59008W        W22952  14.602  40.001  13.379
59009W        W22953  20.642  31.031   3.185
59010W        W22954   5.244  43.000   0.433
59011W        W22955  26.495   0.798   3.637
59012W        W22956  10.269  40.416  10.946
59013W        W22957  18.546  37.980  12.473
59014W        W22958  23.139  30.446   0.773
59015W        W22959  14.828  20.089   2.382
59016W        W22960  38.823  29.510  14.414
59017W        W22961  15.784  27.671   3.762
59018W        W22962   6.220  19.573  13.317
59019W        W22963  37.077  16.751  14.424
59020W        W22964  17.085   9.187   4.315
59021W        W22965  22.132  41.019   4.291
59022W        W22966   5.769  30.003   4.780
59023W        W22967  38.425  38.390  13.978
59024W        W22968  14.675   0.979  13.028
59025W        W22969  36.588  21.721   3.255
59026W        W22970  20.045  33.025   2.712
59027W        W22971  38.846   3.371  13.408
59028W        W22972  34.999  23.717  13.974
59029W        W22973   0.390  23.553   2.680
59030W        W22974  44.383  19.626   2.315
59031W        W22975  13.204  18.102  14.946
59032W        W22976  13.275   6.277   4.329
59033W        W22977  34.057  15.761   4.353
59034W        W22978  26.550  10.869   1.930
59035W        W22979  41.980  43.826  10.933
59036W        W22980  28.047  27.496  14.821
59037W        W22981  17.667  43.388   3.758
59038W        W22982   5.815  37.500  12.999
59039W        W22983   0.790  38.358   0.732
59040W        W22984  41.019  43.334   2.793
59041W        W22985  44.927  34.102   3.783
59042W        W22986  18.065  22.680  14.950
59043W        W22987  33.565  16.803  14.834
59044W        W22988  26.494  42.515  13.527
59045W        W22989  20.057   6.720   1.403
59046W        W22990  15.321  42.924   3.231
59047W        W22991  31.473  11.730   4.617
59048W        W22992  21.560  44.284  11.498
59049W        W22993  21.230  15.762  10.011
59050W        W22994  31.493   3.430   0.932
59051W        W22995  36.014  14.132  11.534
59052W        W22996   9.705   0.837  11.047
59053W        W22997  43.950   4.711  12.867
59054W        W22998  43.508   4.717   2.709
59055W        W22999  37.577  26.501   2.792
59056W        W23000  10.219  32.992  14.492
59057W        W23001  24.557  15.803  10.409
59058W        W23002  28.552  26.015   1.416
59059W        W23003  31.134  38.068   4.285
59060W        W23004  32.532   5.710  14.024
59061W        W23005  18.117  34.093  12.535
59062W        W23006   4.283  40.977   1.287
59063W        W23007  15.273  17.163  11.100
59064W        W23008   1.369  44.825  12.011
59065W        W23009  23.020  16.230   1.698
59066W        W23010  23.491  20.248   3.774
59067W        W23011  43.464  24.529   1.879
59068W        W23012  31.505   7.773   1.352
59069W        W23013  35.077   0.867  14.914
59070W        W23014  38.038  42.984  11.605
59071W        W23015  44.468   3.423  13.381
59072W        W23016  44.853  36.532  14.876
59073W        W23017  25.468  17.066   0.874
59074W        W23018  16.208  37.489   1.793
59075W        W23019  29.174   9.392   4.778
59076W        W23020  23.686  34.081  12.066
59077W        W23021   3.436  24.011  12.912
59078W        W23022   0.460  17.690   3.686
59079W        W23023  15.231  23.590  12.883
59080W        W23024  24.141   7.256  14.311
59081W        W23025   7.706  39.451  13.924
59082W        W23026  37.872  42.792   5.175
59083W        W23027  39.377   5.262  14.356
59084W        W23028  38.519  31.429  11.067
59085W        W23029  27.652  34.951   4.129
59086W        W23030  17.601  35.092  13.813
59087W        W23031  24.555  13.136  14.902
59088W        W23032  44.306  15.587  10.960
59089W        W23033  35.535   8.677  11.019
59090W        W23034   5.876   0.868  12.953
59091W        W23035   4.314   4.363   4.780
59092W        W23036  20.039   1.815   0.743
59093W        W23037  14.265  32.018   5.156
59094W        W23038  28.561  40.925   1.782
59095W        W23039  22.651  21.235  14.458
59096W        W23040  23.621  28.439   1.301
59097W        W23041  43.425  14.137   1.734
59098W        W23042   2.746  25.156   0.320
59099W        W23043  43.404  40.304  13.408
59100W        W23044  31.401  31.912  14.979
59101W        W23045   4.395   8.400   2.393
59102W        W23046  33.885   6.791  11.955
59103W        W23047  21.151  25.143  13.531
59104W        W23048  36.973  29.029  14.325
59105W        W23049  25.043   4.400  11.908
59106W        W23050   3.823  23.604  12.823
59107W        W23051  44.355  12.730   4.276
59108W        W23052  10.752  30.619  14.316
59109W        W23053  18.190  32.564  10.061
59110W        W23054  14.134   0.918  14.826
59111W        W23055  17.611  30.509   0.888
59112W        W23056  15.230  13.781   3.349
59113W        W23057  35.586  19.205  10.928
59114W        W23058  32.910  29.029   1.417
59115W        W23059  36.447   1.361  11.977
59116W        W23060  14.272  15.171   3.720
59117W        W23061   5.801  11.676  13.060
59118W        W23062   6.340  39.840   0.761
59119W        W23063  37.401   7.824   1.347
59120W        W23064   2.808  18.704  12.499
59121W        W23065  33.047  19.776  12.939
59122W        W23066   7.671  24.205  14.400
59123W        W23067  31.504  22.681  13.469
59124W        W23068  13.719  35.022   1.361
59125W        W23069  36.364  33.894  11.934
59126W        W23070   5.293  23.694  12.040
59127W        W23071   2.922  32.940   3.298
59128W        W23072  32.036  20.768   0.274
59129W        W23073  39.468  26.012  13.463
59130W        W23074  20.534  41.370  12.028
59131W        W23075  24.225  26.561  13.451
59132W        W23076  14.119   9.735  11.608
59133W        W23077   6.311   3.407  14.362
59134W        W23078  42.422  16.230  11.864
59135W        W23079  14.820   7.276  11.379
59136W        W23080   6.843  28.548   4.758
59137W        W23081   9.229   5.369  14.984
59138W        W23082   6.821  13.800   4.178
59139W        W23083  26.168  38.953   3.160
59140W        W23084  18.137  28.629  11.024
59141W        W23085  34.886  23.665   2.868
59142W        W23086  41.951  32.954  11.514
59143W        W23087  34.074  35.388   0.738
59144W        W23088  30.083  16.798   1.737
59145W        W23089   7.911  34.573   4.826
59146W        W23090  37.436  20.056  10.607
59147W        W23091  10.243  10.326  13.929
59148W        W23092  20.747  16.083  14.825
59149W        W23093   2.729  37.360   1.422
59150W        W23094   1.433  38.870   2.315
59151W        W23095  15.652  38.018  10.486
59152W        W23096  33.987  30.650   3.166
59153W        W23097  28.497  41.411   4.644
59154W        W23098   8.356  31.121  12.972
59155W        W23099  11.850  32.121   1.740
59156W        W23100   1.972  33.445   2.810
59157W        W23101  29.069  43.482  14.851
59158W        W23102  23.698  35.880   0.476
59159W        W23103  34.993  24.116  10.954
59160W        W23104  40.508  44.431   9.943
59161W        W23105  16.761  32.557   2.209
59162W        W23106  31.916  22.511  13.349
59163W        W23107  44.762  34.554   4.817
59164W        W23108  15.263  38.046  12.958
59165W        W23109  40.494  16.169  11.947
59166W        W23110  20.690  35.441  14.350
59167W        W23111  37.891  14.114   1.357
59168W        W23112  26.469  14.244  11.023
59169W        W23113   0.819  42.393  10.419
59170W        W23114  35.998  42.846   4.759
59171W        W23115   2.920  14.627  14.466
59172W        W23116   8.880  22.242   3.705
59173W        W23117   5.711  23.723   0.837
59174W        W23118  41.516   8.881   4.225
59175W        W23119  13.651  20.714  14.369
59176W        W23120  15.674  30.965  12.464
59177W        W23121   1.775  37.884   2.831
59178W        W23122  14.154  43.008   4.674
59179W        W23123   9.267  33.621   4.142
59180W        W23124  35.592   6.375  12.071
59181W        W23125   1.257  21.240   4.210
59182W        W23126  40.429  24.686  12.929
59183W        W23127   0.343   0.983   1.334
59184W        W23128  11.760  11.667  14.484
59185W        W23129  36.368  17.661  14.817
59186W        W23130  37.900  44.421  12.057
59187W        W23131  18.696  18.686   3.188
59188W        W23132  41.362  44.926   1.440
59189W        W23133  40.527  37.049   3.787
59190W        W23134  10.319  38.369  14.774
59191W        W23135  32.595  39.905  10.422
59192W        W23136  10.288  18.269  12.927
59193W        W23137  34.957   8.800  12.874
59194W        W23138  12.632   6.873   0.775
59195W        W23139  20.762  43.790   1.318
59196W        W23140  31.914   8.215   0.781
59197W        W23141  14.768  22.631   2.220
59198W        W23142  18.129  29.101  10.983
59199W        W23143  34.564  39.958   1.813
59200W        W23144  36.858  38.498  11.382
59201W        W23145  24.162  40.924  11.926
59202W        W23146  40.479  42.803   3.364
59203W        W23147  33.129  19.581   0.426
59204W        W23148  32.013   4.810  12.503
59205W        W23149  17.271  15.577   9.958
59206W        W23150  17.140  24.501   3.335
59207W        W23151  14.216   6.257   1.724
59208W        W23152   8.788  35.503   3.689
59209W        W23153  30.450   9.648  14.457
59210W        W23154   5.370   1.891  13.871
59211W        W23155  23.118  40.847  13.451
59212W        W23156  43.356  20.663   3.337
59213W        W23157  43.790   4.929  14.783
59214W        W23158  16.643  20.724  11.526
59215W        W23159   0.365  37.865  14.877
59216W        W23160   0.868  44.318   1.884
59217W        W23161  21.082  13.297  13.339
59218W        W23162  37.855  15.184  11.551
59219W        W23163   5.244  42.435  12.955
59220W        W23164  25.632  23.526   1.280
59221W        W23165  37.457  18.181  13.986
59222W        W23166  22.073  39.326  14.294
59223W        W23167  14.808  31.147  13.806
59224W        W23168  25.502  37.385   2.703
59225W        W23169  34.026  44.006   0.265
59226W        W23170  37.921  43.007   3.635
59227W        W23171  13.698  44.437   0.303
59228W        W23172  19.221   2.288  10.483
59229W        W23173   7.395  27.545   0.243
59230W        W23174   7.192  27.988   1.818
59231W        W23175   0.969  14.333   1.758
59232W        W23176  42.426   3.460  13.821
59233W        W23177   2.787  35.972   0.809
59234W        W23178  38.834   5.308   9.663
59235W        W23179  10.639  18.545  12.425
59236W        W23180  19.691  27.579   4.737
59237W        W23181  28.670   7.807  11.479
59238W        W23182  31.917  28.495  13.851
59239W        W23183  25.681   4.860  13.957
59240W        W23184  38.922   6.407  14.009
59241W        W23185  34.905   8.771   3.677
59242W        W23186  35.857   5.736   4.719
59243W        W23187   0.282  38.522   1.891
59244W        W23188  30.647  39.504   9.997
59245W        W23189  34.032  22.621  14.922
59246W        W23190   9.302  24.047   3.210
59247W        W23191   7.713  17.221   4.614
59248W        W23192   2.834  32.889   2.891
59249W        W23193  11.249  32.974   0.260
59250W        W23194  40.494  38.049   0.729
59251W        W23195  13.607  41.479   2.853
59252W        W23196   5.203  28.179   4.823
59253W        W23197  24.684  13.761  14.412
59254W        W23198  34.596   1.268  10.542
59255W        W23199  36.350   7.206   0.325
59256W        W23200  44.410  20.174  11.068
59257W        W23201  29.968  39.318  12.883
59258W        W23202   3.458  23.517   4.162
59259W        W23203  15.151  28.098  13.001
59260W        W23204  35.987  12.132  11.576
59261W        W23205  15.108  43.412   0.950
59262W        W23206  17.198  40.949  14.882
59263W        W23207  38.053   6.187  13.866
59264W        W23208  38.415   1.398  14.768
59265W        W23209  30.509  34.881  14.492
59266W        W23210  39.930   7.801   2.898
59267W        W23211   6.865   0.778  14.858
59268W        W23212  14.764  26.503  14.815
59269W        W23213  31.598  33.967   1.745
59270W        W23214  20.650  30.160  13.431
59271W        W23215  11.623  32.509  11.457
59272W        W23216  30.620   0.897  12.095
59273W        W23217  32.105  29.470   0.345
59274W        W23218  26.611  35.408   3.851
59275W        W23219  19.257   3.908  11.468
59276W        W23220  24.558   8.662   1.412
59277W        W23221  10.747   2.417   0.818
59278W        W23222  28.515  21.109   0.433
59279W        W23223  14.278  42.433  11.095
59280W        W23224  15.793  35.928   4.797
59281W        W23225   4.943  14.750   0.808
59282W        W23226   7.772  35.520   2.390
59283W        W23227  28.595   2.845   1.705
59284W        W23228  25.494  26.021  12.876
59285W        W23229  39.555  12.654  12.455
59286W        W23230  24.140   0.474   3.282
59287W        W23231  14.097  39.394  14.970
59288W        W23232  14.228  22.135   0.466
59289W        W23233  25.141  34.071  13.843
59290W        W23234  31.059   3.241  10.891
59291W        W23235   0.944  31.468   2.802
59292W        W23236   8.305  25.492  12.066
59293W        W23237  31.912  44.387   4.263
59294W        W23238  11.303   0.978   2.346
59295W        W23239   1.236   4.334  10.428
59296W        W23240  28.033  16.158  11.924
59297W        W23241   1.826  36.388   3.245
59298W        W23242   8.182  23.724   0.317
59299W        W23243  41.341  24.129  12.870
59300W        W23244  32.078   3.262  11.515
59301W        W23245  16.789  35.886  14.888
59302W        W23246  31.563  31.571  10.632
59303W        W23247  27.050  16.672  11.905
59304W        W23248  12.175  40.865  13.895
59305W        W23249  24.994   0.818  11.571
59306W        W23250  38.028   3.409   2.258
59307W        W23251  17.171  31.936   1.379
59308W        W23252  13.825  33.624   2.396
59309W        W23253  29.000  43.964   2.807
59310W        W23254   1.770  40.429   3.807
59311W        W23255  21.091  33.498   1.783
59312W        W23256   5.893  10.763   0.965
59313W        W23257   8.341  19.047   3.172
59314W        W23258  13.699  44.849  12.072
59315W        W23259  23.186  16.196  14.945
59316W        W23260  35.425  21.613   1.706
59317W        W23261  32.950   7.891  13.964
59318W        W23262   4.822  42.000  11.459
59319W        W23263  25.642  20.061  10.635
59320W        W23264  36.898  38.996   1.229
59321W        W23265   1.379  22.097   2.826
59322W        W23266  10.199  22.089  13.872
59323W        W23267  36.469  20.731  11.564
59324W        W23268   9.372  20.118  11.050
59325W        W23269   6.821  30.088  14.364
59326W        W23270   3.779  35.924   0.949
59327W        W23271  25.687  44.379  10.974
59328W        W23272  34.577  23.556  13.449
59329W        W23273   0.464  34.093  13.977
59330W        W23274  28.027  40.401   2.799
59331W        W23275  41.968   8.789  14.430
59332W        W23276  22.506  17.663  14.012
59333W        W23277   4.338  19.194  13.024
59334W        W23278  14.664  21.700   3.654
59335W        W23279  15.629  38.403   2.810
59336W        W23280  28.457  31.416   0.440
59337W        W23281  41.449  24.133   2.667
59338W        W23282   4.445  22.087   3.806
59339W        W23283  36.958  10.803   1.853
59340W        W23284  18.058  32.929   2.305
59341W        W23285  10.253  23.617  11.907
59342W        W23286  13.307  21.616  14.341
59343W        W23287  22.040  18.566   3.387
59344W        W23288   4.765   1.442   0.391
59345W        W23289  34.892  32.979   1.416
59346W        W23290   8.217  15.233  11.973
59347W        W23291  18.297  36.364   2.817
59348W        W23292  30.513   4.701   2.310
59349W        W23293  20.658   4.409  11.592
59350W        W23294  35.593   5.330   3.349
59351W        W23295  21.181  21.657   0.856
59352W        W23296  23.565   3.718   3.323
59353W        W23297  27.652  29.002   1.805
59354W        W23298  16.093  16.750   2.891
59355W        W23299  28.158  20.675   2.803
59356W        W23300  44.878  34.514   2.724
59357W        W23301  37.357   6.741   3.209
59358W        W23302  21.093  10.878  10.947
59359W        W23303   7.290  41.416   0.465
59360W        W23304  12.286  29.008  13.841
59361W        W23305  18.723  34.023  14.862
59362W        W23306  43.506   1.422   0.366
59363W        W23307  29.929  43.321  13.538
59364W        W23308  38.432   8.668  12.869
59365W        W23309  44.799  19.235   0.417
59366W        W23310  28.038  41.907   4.249
59367W        W23311  13.827  26.580  11.895
59368W        W23312  25.142  24.684   0.885
59369W        W23313  30.157  37.012   1.711
59370W        W23314  42.892  16.276  13.013
59371W        W23315  41.441   4.217   3.152
59372W        W23316  22.625  28.159  14.816
59373W        W23317  17.230  16.149   3.762
59374W        W23318  12.276  41.296   1.809
59375W        W23319  32.960  44.399   3.785
59376W        W23320  40.320  11.756  11.924
59377W        W23321   5.203  15.681   3.685
59378W        W23322  13.673  40.338   2.411
59379W        W23323   0.471  35.552  10.969
59380W        W23324   2.363  31.034  12.556
59381W        W23325   3.901  41.387   3.762
59382W        W23326  11.342  21.742  11.004
59383W        W23327  26.141  22.510  14.297
59384W        W23328   9.344  43.858   0.815
59385W        W23329   5.387  27.542   4.297
59386W        W23330  44.434   6.258  11.466
59387W        W23331  29.142  27.036  13.426
59388W        W23332  15.202  35.421  11.967
59389W        W23333  16.786  26.150   4.653
59390W        W23334   1.753  27.089  11.899
59391W        W23335  20.150  24.198  13.413
59392W        W23336  23.187   2.790  12.962
59393W        W23337  34.522  12.711   1.366
59394W        W23338  30.492   8.859   3.246
59395W        W23339   3.381  41.370   0.737
59396W        W23340  26.550  32.063  10.548
59397W        W23341  19.134   0.869   1.787
59398W        W23342   8.298  29.026   2.264
59399W        W23343  11.196  22.545   1.388
59400W        W23344  34.553   9.155  11.539
59401W        W23345  42.837   2.724   4.141
59402W        W23346   8.795  16.121   3.676
59403W        W23347  16.238   3.777   1.887
59404W        W23348  12.320   1.373  12.991
59405W        W23349  10.847  38.513   0.731
59406W        W23350   4.840  28.146  13.407
59407W        W23351  33.410  22.550  11.600
59408W        W23352  32.078   9.711  11.384
59409W        W23353  27.083  22.220  13.487
59410W        W23354  13.664  21.721  13.490
59411W        W23355  12.261   3.282  11.565
59412W        W23356  36.036   3.224   3.641
59413W        W23357   2.284   1.259  14.844
59414W        W23358  11.669  32.047   4.650
59415W        W23359  31.945  41.468  10.156
59416W        W23360  40.488   8.853   2.200
59417W        W23361  38.420  18.694   3.273
59418W        W23362  13.611  34.545   4.337
59419W        W23363  17.669  17.798   0.820
59420W        W23364  44.945   6.202  10.086
59421W        W23365  39.379  26.958   4.307
59422W        W23366  43.803   0.484  10.441
59423W        W23367  38.542  42.323   1.910
59424W        W23368   7.794  17.100  10.900
59425W        W23369  25.536  22.585   0.752
59426W        W23370  17.131  18.202  11.612
59427W        W23371  28.108  44.897   3.729
59428W        W23372  38.508  28.447  13.900
59429W        W23373  34.071   2.747   2.207
59430W        W23374  29.641  35.009  14.414
59431W        W23375  19.648  33.903   2.899
59432W        W23376   6.359  36.455  12.997
59433W        W23377  28.538  28.671   1.267
59434W        W23378  34.910  23.016  11.074
59435W        W23379  36.059  29.086   4.233
59436W        W23380  26.045   3.769  11.610
59437W        W23381  26.701   0.403  12.885
59438W        W23382  16.716  36.984   2.186
59439W        W23383  10.825  16.627  11.372
59440W        W23384   6.740  44.875  12.502
59441W        W23385   7.833  13.671  11.070
59442W        W23386  40.940  32.016   3.244
59443W        W23387  17.125   5.725   2.333
59444W        W23388  39.471  27.448  10.464
59445W        W23389  42.397  32.135  13.378
59446W        W23390  42.902  21.216  14.422
59447W        W23391  13.301  21.618  14.951
59448W        W23392  36.411  18.729  13.318
59449W        W23393  10.707  15.583  12.367
59450W        W23394  12.212  26.643   3.263
59451W        W23395  17.098   7.212  13.911
59452W        W23396  10.874   8.821  12.404
59453W        W23397  19.605  29.448   4.805
59454W        W23398  26.468  18.094  12.995
59455W        W23399  38.342  35.958   0.445
59456W        W23400  33.380   7.281  13.893
59457W        W23401  17.565  11.128  11.435
59458W        W23402  33.439  17.134  14.396
59459W        W23403  40.369  39.994  14.972
59460W        W23404  24.691  28.128   1.228
59461W        W23405   1.889  14.218  12.414
59462W        W23406  42.301  37.043  12.456
59463W        W23407  16.262  31.978   1.449
59464W        W23408   3.327  12.683   1.916
59465W        W23409  41.313   3.309   0.913
59466W        W23410  14.144   5.814  13.994
59467W        W23411  41.902  18.193   4.652
59468W        W23412  19.089  22.042   1.788
59469W        W23413  35.409  38.839  13.970
59470W        W23414  35.032  36.392   0.942
59471W        W23415  15.240  37.484  11.124
59472W        W23416  12.712  38.536  13.468
59473W        W23417   9.661  40.352  12.073
59474W        W23418  20.543  31.120  14.811
59475W        W23419  23.068   0.333  14.365
59476W        W23420   0.909  12.261   2.835
59477W        W23421  23.510  26.700   2.882
59478W        W23422  44.808  23.665  11.412
59479W        W23423  29.583  22.510   4.740
59480W        W23424  32.012  23.676   1.767
59481W        W23425  33.880  20.202  14.328
59482W        W23426  10.221  19.744  12.011
59483W        W23427  10.845  33.407   1.425
59484W        W23428  39.549  25.598   2.184
59485W        W23429  15.821  22.723  14.972
59486W        W23430  36.924  16.172  11.100
59487W        W23431   4.232  12.279   4.119
59488W        W23432  31.444  44.441   1.848
59489W        W23433   2.771   1.393  11.480
59490W        W23434   7.274  20.660   2.398
59491W        W23435  22.714  15.318   4.269
59492W        W23436   9.379  12.697  10.089
59493W        W23437  34.538   7.172   4.126
59494W        W23438  13.301   9.760  13.857
59495W        W23439  19.132  25.709  12.034
59496W        W23440  35.553  14.718   1.334
59497W        W23441  10.856  35.549  13.060
59498W        W23442  40.523   0.403  10.968
59499W        W23443   8.300   8.273   1.858
59500W        W23444   6.257  11.241   4.352
59501W        W23445  26.163  30.541   4.806
59502W        W23446  44.946  30.421  13.864
59503W        W23447  29.032   5.271  10.581
59504W        W23448  41.968  25.691  13.356
59505W        W23449  36.063   3.458   2.305
59506W        W23450  35.452   5.746  12.848
59507W        W23451  37.987  35.925  14.468
59508W        W23452  20.094  28.052   0.942
59509W        W23453  10.375   9.874   0.367
59510W        W23454  37.563  27.179   1.927
59511W        W23455  11.330  35.411   1.798
59512W        W23456   5.237  40.376   0.363
59513W        W23457   4.840  27.671  13.911
59514W        W23458   9.327   6.300  13.847
59515W        W23459  30.936  42.441  13.804
59516W        W23460  25.027  14.307   1.832
59517W        W23461   5.800  15.697   3.640
59518W        W23462  25.155  28.516  10.585
59519W        W23463  14.807  38.927   0.286
59520W        W23464  21.594  39.485  12.849
59521W        W23465  11.818  32.109  14.346
59522W        W23466  44.325   3.224  10.129
59523W        W23467  42.840   3.452  10.481
59524W        W23468  36.388   2.802   2.188
59525W        W23469   8.711   2.773  13.007
59526W        W23470   1.973  24.224  12.392
59527W        W23471  13.327  27.453  11.993
59528W        W23472  17.746   8.790   4.737
59529W        W23473  34.515  15.174  11.032
59530W        W23474  41.013  18.271  13.063
59531W        W23475  10.172  16.171   2.332
59532W        W23476  17.778  42.458  14.778
59533W        W23477  30.521  36.895  11.550
59534W        W23478  38.936  40.378  10.050
59535W        W23479  18.768  38.059  10.461
59536W        W23480   0.877  15.738  14.989
59537W        W23481   9.855   5.266  13.461
59538W        W23482  21.624  37.569  14.433
59539W        W23483  20.263   5.368  12.477
59540W        W23484  33.970   2.433  12.891
59541W        W23485   0.280  10.682   3.700
59542W        W23486  23.544  28.934  12.844
59543W        W23487  35.900   1.858   3.251
59544W        W23488  38.399  17.627   3.858
59545W        W23489  17.062  41.961   4.732
59546W        W23490   8.214   9.688   4.140
59547W        W23491  24.096   3.417   5.277
59548W        W23492  34.930  20.110  13.031
59549W        W23493  15.606   7.181  11.544
59550W        W23494  11.319   5.808  14.973
59551W        W23495  39.529   3.876  11.583
59552W        W23496   5.696  33.570   0.444
59553W        W23497  41.847   5.886  12.981
59554W        W23498  14.327  25.191   1.935
59555W        W23499  36.518  17.230  11.557
59556W        W23500  36.940   5.361   1.884
59557W        W23501   1.800  41.787  11.023
59558W        W23502  15.657  44.431  12.005
59559W        W23503   3.458  36.854   3.145
59560W        W23504  12.644  14.769   1.254
59561W        W23505   4.839   0.816   1.821
59562W        W23506  42.784  22.528   3.727
59563W        W23507  18.269  11.796  13.832
59564W        W23508  43.839  32.096   1.287
59565W        W23509   8.255  13.317  12.069
59566W        W23510  44.890   3.802   3.668
59567W        W23511  44.005  15.699  11.861
59568W        W23512   1.971  18.549   0.782
59569W        W23513  12.654  41.348  14.911
59570W        W23514  34.412  36.468  14.345
59571W        W23515  41.296  20.126  10.980
59572W        W23516  31.570  36.365   0.415
59573W        W23517  35.922   8.221   4.641
59574W        W23518  34.073  12.270   0.369
59575W        W23519   7.752  26.684   9.979
59576W        W23520  39.438  33.053   3.379
59577W        W23521  35.474  34.385  11.876
59578W        W23522  18.667   8.786   3.761
59579W        W23523  44.339   6.400   3.382
59580W        W23524   1.385  32.481  13.336
59581W        W23525  24.509  31.968  10.935
59582W        W23526  28.974  38.486  11.501
59583W        W23527  27.687  37.386  11.952
59584W        W23528   1.273  42.912  10.568
59585W        W23529   5.418   0.914   2.239
59586W        W23530   2.872  43.410   0.473
59587W        W23531   4.424   6.913  13.416
59588W        W23532  12.210  15.253   2.695
59589W        W23533  20.711  40.333  13.062
59590W        W23534  40.822  34.585   1.270
59591W        W23535  16.103  11.660  10.987
59592W        W23536  27.161  23.676   3.859
59593W        W23537  32.520   8.390   2.722
59594W        W23538  14.834  37.926  12.023
59595W        W23539   3.308   5.300   0.922
59596W        W23540  31.507  24.085   2.251
59597W        W23541  10.355  20.594   1.309
59598W        W23542  17.690   5.222  10.429
59599W        W23543   8.706  43.812   1.712
59600W        W23544   9.842   6.753  14.413
59601W        W23545   3.222  41.509  13.365
59602W        W23546  20.123  28.988  10.083
59603W        W23547   5.890  35.927   4.742
59604W        W23548  42.794   4.338  10.438
59605W        W23549  33.465  21.124   2.271
59606W        W23550  42.985  10.150  12.948
59607W        W23551   6.798   2.851  11.106
59608W        W23552   1.832  14.319  11.374
59609W        W23553   9.356  11.745  14.508
59610W        W23554  43.508  16.689  10.439
59611W        W23555  28.444  23.061   2.318
59612W        W23556  44.884   1.960   3.361
59613W        W23557  17.112  27.180  12.054
59614W        W23558  41.032  14.095  10.531
59615W        W23559  42.916   6.722  13.884
59616W        W23560  12.199   3.732   1.416
59617W        W23561  42.315  40.007   4.321
59618W        W23562  26.986  10.157  14.444
59619W        W23563  24.163  37.905   2.245
59620W        W23564  44.359  18.279   1.711
59621W        W23565   6.736  11.638   4.777
59622W        W23566  21.621  34.963  10.559
59623W        W23567   9.219  38.561  14.486
59624W        W23568  42.503  15.282   3.781
59625W        W23569  14.592  12.688   3.671
59626W        W23570   9.693  35.062  10.486
59627W        W23571  33.054  42.883  14.427
59628W        W23572   7.867  28.029   3.269
59629W        W23573  19.774  19.268  12.094
59630W        W23574  13.150  15.127  13.469
59631W        W23575  15.761   3.893  10.570
59632W        W23576   3.892  10.797  13.935
59633W        W23577  20.250  29.570  12.575
59634W        W23578  12.163  42.964   1.700
59635W        W23579  10.678  27.487  14.892
59636W        W23580  39.454  19.592   3.686
59637W        W23581   3.280  36.931  14.818
59638W        W23582   8.870   7.903  10.985
59639W        W23583  22.186  30.031   3.690
59640W        W23584  16.596  14.186   3.245
59641W        W23585   7.258  11.147   3.675
59642W        W23586  17.786   4.283  12.354
59643W        W23587  15.187   4.315  13.416
59644W        W23588  14.826  41.992   0.436
59645W        W23589  15.096  35.894   9.948
59646W        W23590  26.954  43.888  11.474
59647W        W23591  18.565   2.343  14.453
59648W        W23592  40.361  15.799  12.929
59649W        W23593  37.909  15.716  12.347
59650W        W23594   2.785  11.766  14.989
59651W        W23595  38.055  39.549   4.342
59652W        W23596   3.898  35.482  14.294
59653W        W23597  19.101  29.554   3.262
59654W        W23598  37.905  34.512  10.618
59655W        W23599  37.498  29.042   4.194
59656W        W23600  42.817  30.614  13.964
59657W        W23601  24.129  30.131  14.010
59658W        W23602  16.123  30.907   4.177
59659W        W23603  43.864  35.987   3.783
59660W        W23604  32.987   0.428  13.514
59661W        W23605  26.148  26.475   4.175
59662W        W23606  32.625  35.101  12.084
59663W        W23607  14.813  26.510   2.292
59664W        W23608  21.750   1.971  10.471
59665W        W23609  21.130  42.891  12.064
59666W        W23610  24.159   7.176   3.814
59667W        W23611  40.956  29.442  14.860
59668W        W23612  41.989  31.934  10.007
59669W        W23613  23.153  19.548   4.133
59670W        W23614  14.180  10.206   3.784
59671W        W23615  40.921  33.494  11.427
59672W        W23616   1.820   9.343   0.744
59673W        W23617   0.293  44.981   4.338
59674W        W23618  25.174  23.655   0.307
59675W        W23619  42.835  12.767  13.890
59676W        W23620   7.893   1.913  12.430
59677W        W23621  27.025  15.665  14.411
59678W        W23622  40.857  28.502  14.482
59679W        W23623  34.414  42.891   1.805
59680W        W23624   0.346   5.839   0.250
59681W        W23625  22.046  13.174   4.735
59682W        W23626  18.246  24.541  11.932
59683W        W23627  35.015  38.982  14.775
59684W        W23628  21.696   9.220   2.687
59685W        W23629  13.627   9.792  11.117
59686W        W23630  34.535  15.621   1.781
59687W        W23631  44.411   7.676  12.501
59688W        W23632   1.475  33.591   3.255
59689W        W23633  12.837  28.565   1.253
59690W        W23634   5.350  16.733   0.391
59691W        W23635  36.930   0.930   0.770
59692W        W23636  21.712  29.617  14.322
59693W        W23637  20.231  42.854  13.998
59694W        W23638  31.944  16.645   3.232
59695W        W23639  40.384  34.875  12.928
59696W        W23640  43.459  42.952   4.689
59697W        W23641   0.778  36.022  13.415
59698W        W23642  11.172  28.543  14.783
59699W        W23643  12.689  40.366  12.920
59700W        W23644   3.287   7.844   0.918
59701W        W23645  11.357  44.490  13.509
59702W        W23646  34.940  14.603  12.505
59703W        W23647  24.122   3.901   1.906
59704W        W23648   8.658  34.520  14.992
59705W        W23649  44.300  43.843   1.443
59706W        W23650  12.848  27.111  12.867
59707W        W23651   3.386  35.035  10.407
59708W        W23652  37.016   1.796  14.964
59709W        W23653  12.243  21.643   1.372
59710W        W23654   6.413  18.767  14.317
59711W        W23655   5.418  10.153   0.967
59712W        W23656  44.461   7.400  14.433
59713W        W23657  23.087   8.693  12.924
59714W        W23658  37.035  33.502   0.824
59715W        W23659  42.977  32.968   0.287
59716W        W23660  25.648   5.741  12.393
59717W        W23661  24.598  44.889  10.604
59718W        W23662  15.204  31.149   1.245
59719W        W23663   3.896  43.905  10.573
59720W        W23664  16.298   8.361  12.934
59721W        W23665  37.567  29.646   4.324
59722W        W23666  14.637  17.712  13.433
59723W        W23667  17.716   4.285   0.911
59724W        W23668  35.377  21.063   4.179
59725W        W23669   5.415   4.236  13.374
59726W        W23670  42.369  10.183   0.741
59727W        W23671  18.255  17.166  11.552
59728W        W23672  30.530  37.062  14.984
59729W        W23673  17.655  44.997   1.261
59730W        W23674  37.558  22.714  12.964
59731W        W23675  24.123  22.554   1.378
59732W        W23676  43.860  16.702  10.549
59733W        W23677  25.623   7.909   4.141
59734W        W23678  15.659  12.700  14.322
59735W        W23679  40.345  29.157   0.246
59736W        W23680  21.522  24.632   2.418
59737W        W23681   2.964  36.372  12.459
59738W        W23682  23.180   4.433   0.297
59739W        W23683  34.539  41.309  10.614
59740W        W23684  41.975   6.255  12.928
59741W        W23685   4.358   3.296  10.481
59742W        W23686   7.345  35.440  13.802
59743W        W23687   0.456  27.461  11.604
59744W        W23688   2.749  37.535   5.082
59745W        W23689  29.928   0.309  10.960
59746W        W23690  23.650  14.100   3.170
59747W        W23691   3.276  29.439   0.947
59748W        W23692  35.966   9.379  10.911
59749W        W23693  14.714   3.856  10.983
59750W        W23694  39.826   3.458  13.003
59751W        W23695  17.078  32.574   2.391
59752W        W23696   6.339   2.952   4.805
59753W        W23697  38.018  12.687  10.105
59754W        W23698  26.063  21.185   5.140
59755W        W23699  40.800   1.760   3.341
59756W        W23700  32.071  26.162  12.415
59757W        W23701   2.334  27.525   2.715
59758W        W23702  25.028  42.839  11.865
59759W        W23703  32.957  34.973   4.624
59760W        W23704   6.205   8.732  10.008
59761W        W23705  18.156   8.684   2.262
59762W        W23706  23.030   5.870  10.952
59763W        W23707  25.078  39.000  11.955
59764W        W23708  23.075  39.418  13.008
59765W        W23709   4.379  11.265   3.293
59766W        W23710  24.523  14.217  13.887
59767W        W23711  19.559  34.565   0.450
59768W        W23712  44.474  13.344  13.955
59769W        W23713  11.684  44.851   4.835
59770W        W23714   5.928  18.264  12.877
59771W        W23715   5.860  10.333   4.704
59772W        W23716  10.360  44.891   0.846
59773W        W23717  37.466  38.822   3.204
59774W        W23718  26.542   1.365  12.973
59775W        W23719   8.670  15.648  13.510
59776W        W23720  23.606  33.488  11.114
59777W        W23721  34.492   6.257  13.457
59778W        W23722   6.334  38.411  14.326
59779W        W23723  39.843   4.739  14.399
59780W        W23724  28.108  23.613  10.021
59781W        W23725  42.991  18.176   4.701
59782W        W23726   3.440  35.508   2.314
59783W        W23727  39.881  18.747  11.402
59784W        W23728  35.409   7.265   4.776
59785W        W23729   9.693  10.805   1.876
59786W        W23730  36.082  21.552  11.584
59787W        W23731  33.501  38.987  11.877
59788W        W23732  29.122   1.890   3.778
59789W        W23733  32.405  34.011   1.330
59790W        W23734  12.628  30.148  12.372
59791W        W23735  26.549  24.103  14.290
59792W        W23736  14.202  37.087  14.880
59793W        W23737  39.368   4.892   3.837
59794W        W23738   4.905  34.615  12.020
59795W        W23739  14.221   4.308   1.235
59796W        W23740   2.428  22.701  10.496
59797W        W23741  26.130  43.864  11.059
59798W        W23742  16.732  38.452  12.441
59799W        W23743  18.606  10.703   5.582
59800W        W23744  43.357  37.402   0.455
59801W        W23745  38.398   3.840  11.917
59802W        W23746  14.665  16.254   3.211
59803W        W23747   0.462  15.812  12.992
59804W        W23748   5.331  30.092  10.635
59805W        W23749  44.328  44.491   3.712
59806W        W23750   6.202  12.254  11.077
59807W        W23751  10.312  40.866  12.368
59808W        W23752  35.022  29.613  10.468
59809W        W23753  35.861   8.161  13.359
59810W        W23754  21.596  10.210  13.322
59811W        W23755   4.930  20.526  13.413
59812W        W23756  39.992  37.850   0.752
59813W        W23757   1.940  38.070   0.314
59814W        W23758   1.840  22.093  13.896
59815W        W23759  24.148   8.217  10.476
59816W        W23760  24.671  10.820   0.747
59817W        W23761   8.213  32.404   4.198
59818W        W23762  44.007   5.848  13.375
59819W        W23763  40.470  23.692  11.094
59820W        W23764  22.541  42.013  12.985
59821W        W23765  32.043  14.285   4.642
59822W        W23766   4.758  19.595  12.096
59823W        W23767  41.027  10.319   1.389
59824W        W23768   0.758  27.654  12.453
59825W        W23769  19.584  19.117   3.272
59826W        W23770  18.281  18.554  13.360
59827W        W23771  31.577  20.137  10.642
59828W        W23772   3.793  44.852  10.941
59829W        W23773  16.588  24.149   5.179
59830W        W23774  35.504  25.207   4.345
59831W        W23775  15.795  40.400   1.791
59832W        W23776  36.548  21.696  13.337
59833W        W23777  10.373  15.099   3.333
59834W        W23778  33.975  40.831  11.580
59835W        W23779   7.871   6.211   5.248
59836W        W23780  30.077   6.263   4.272
59837W        W23781  22.698  13.731   2.848
59838W        W23782  43.990   5.696   4.170
59839W        W23783   0.470  14.725  14.837
59840W        W23784   0.853  44.270  14.490
59841W        W23785   8.365  42.032  13.047
59842W        W23786  44.452  11.799  13.462
59843W        W23787  37.860   8.388   1.310
59844W        W23788  37.491   0.390  12.036
59845W        W23789   0.881   0.344  11.869
59846W        W23790   8.234  42.889  13.418
59847W        W23791   9.871  34.435   4.258
59848W        W23792  36.972  17.135  13.792
59849W        W23793   7.364   4.809  11.565
59850W        W23794   0.276  19.571   4.630
59851W        W23795   3.758  36.892  11.423
59852W        W23796  10.755  23.613   1.738
59853W        W23797  10.224  28.672   0.349
59854W        W23798  30.076   5.363  14.356
59855W        W23799  22.195   5.353  14.870
59856W        W23800  32.545   9.783   2.883
59857W        W23801  30.101   0.296   0.841
59858W        W23802   3.226  17.732  11.455
59859W        W23803   5.291  13.672  11.068
59860W        W23804  15.647   7.800   3.176
59861W        W23805   1.952   0.437   1.226
59862W        W23806   8.764  39.517  12.504
59863W        W23807   1.431  39.061  12.832
59864W        W23808  44.826  44.954  11.927
59865W        W23809  14.207   9.715   0.834
59866W        W23810  33.380  44.418   2.678
59867W        W23811  14.324  29.638   4.245
59868W        W23812  40.932   8.736  10.436
59869W        W23813  41.870  11.291   0.436
59870W        W23814  22.503  25.122  10.432
59871W        W23815  43.375  14.322  14.437
59872W        W23816  38.909  10.377   0.423
59873W        W23817   7.679  15.797   4.155
59874W        W23818  12.634  28.105  14.393
59875W        W23819  34.432   1.847   0.958
59876W        W23820   9.657  39.533  12.471
59877W        W23821  42.797  20.545   0.404
59878W        W23822   4.847   3.953   3.741
59879W        W23823  12.200  16.741  14.916
59880W        W23824  12.119   3.735   3.380
59881W        W23825  39.355   0.436   2.227
59882W        W23826  40.342  21.175   0.790
59883W        W23827  23.534  32.439  10.492
59884W        W23828  27.146   9.646   1.236
59885W        W23829  34.605  34.967   3.240
59886W        W23830   5.818   0.275  14.788
59887W        W23831  30.453  32.006  12.956
59888W        W23832  35.059   4.836  10.989
59889W        W23833  27.663  21.556  12.061
59890W        W23834  30.042   3.327   0.950
59891W        W23835  32.613  25.162  11.400
59892W        W23836  22.080  25.171   4.798
59893W        W23837  20.732  38.357   4.267
59894W        W23838   5.239   8.264   0.273
59895W        W23839  35.009  44.893   2.764
59896W        W23840  25.661  31.937   4.662
59897W        W23841   6.224  41.409  11.045
59898W        W23842  33.598  24.008   3.868
59899W        W23843  36.071   4.749  13.015
59900W        W23844  22.634   2.432  12.458
59901W        W23845  11.283  35.897   0.930
59902W        W23846  18.126  43.480  14.364
59903W        W23847  42.962  42.791   5.120
59904W        W23848  39.430  43.310  13.923
59905W        W23849  14.226  20.649   1.767
59906W        W23850  25.215  31.898   0.743
59907W        W23851  32.436  10.722  11.530
59908W        W23852  40.364  39.420  13.327
59909W        W23853  14.748   1.949  10.973
59910W        W23854  37.876  40.353   9.995
59911W        W23855   9.711  39.998   3.786
59912W        W23856   9.380  34.565  12.434
59913W        W23857  25.994  32.414  10.988
59914W        W23858  11.623   4.792  11.100
59915W        W23859   9.755   0.345   9.974
59916W        W23860  19.611  11.305   2.207
59917W        W23861   0.465  20.164  13.319
59918W        W23862   9.166  16.790   3.630
59919W        W23863  41.475  41.506   1.774
59920W        W23864   2.354   3.732   9.947
59921W        W23865  37.416  11.348  14.280
59922W        W23866  19.081  26.485   4.676
59923W        W23867  25.536  36.902  10.403
59924W        W23868   1.898   1.761  12.832
59925W        W23869  13.606  20.736   3.636
59926W        W23870  41.039  12.286   0.269
59927W        W23871  34.980  40.929  11.566
59928W        W23872  18.057  40.364  14.783
59929W        W23873  28.163   1.359   3.240
59930W        W23874  29.994   0.304  12.992
59931W        W23875  38.404  39.366  13.924
59932W        W23876  31.923   6.395   2.347
59933W        W23877   3.272  43.351   1.323
59934W        W23878  40.982  16.189   3.190
59935W        W23879  11.154  38.353  14.373
59936W        W23880   9.884   4.869  13.937
59937W        W23881   7.901  40.047   0.814
59938W        W23882  24.161  27.147   2.409
59939W        W23883  21.734  36.355  14.360
59940W        W23884  14.134  15.132   1.252
59941W        W23885  26.697   7.831  12.981
59942W        W23886  13.242   4.814   1.752
59943W        W23887  20.125   9.689  12.526
59944W        W23888  25.604  33.415   2.839
59945W        W23889  13.244  20.032   1.830
59946W        W23890  42.005  31.146   0.853
59947W        W23891  33.087  20.222   4.739
59948W        W23892  27.612  40.868  12.468
59949W        W23893  19.700   1.746  12.350
59950W        W23894  31.933  43.951  11.607
59951W        W23895  35.951  20.623   1.380
59952W        W23896   7.909   8.220  14.329
59953W        W23897  37.023   8.263  13.827
59954W        W23898  36.994  16.233  12.012
59955W        W23899  35.566  38.370   1.824
59956W        W23900  33.481  26.198   1.834
59957W        W23901  30.574  41.012   9.631
59958W        W23902   5.367   9.178   1.742
59959W        W23903  15.681  21.169   4.331
59960W        W23904  13.154  13.339   0.734
59961W        W23905  27.578  30.492  13.364
59962W        W23906  25.974  34.898   3.194
59963W        W23907  36.875  19.133  11.940
59964W        W23908   4.885  39.415  12.500
59965W        W23909  37.867  11.146   1.774
59966W        W23910   1.926   6.876  13.907
59967W        W23911  18.068  39.012  11.525
59968W        W23912  14.686  17.089   2.337
59969W        W23913  33.909  44.907   4.273
59970W        W23914  36.948  33.004   3.843
59971W        W23915  36.388  17.701   2.194
59972W        W23916  20.236   5.427  13.383
59973W        W23917  15.628  17.170   0.341
59974W        W23918  28.151  28.135   4.252
59975W        W23919  20.652  44.383  14.929
59976W        W23920  28.438  38.331  11.013
59977W        W23921   3.772  27.106   2.832
59978W        W23922  19.618   8.845   1.324
59979W        W23923  19.116  29.654   2.692
59980W        W23924  18.077  27.550   4.218
59981W        W23925  31.519   7.858   2.797
59982W        W23926  29.505  44.479   4.747
59983W        W23927  11.789  33.070  13.997
59984W        W23928  26.177  14.263   0.845
59985W        W23929  18.611  39.457   3.340
59986W        W23930  17.234  25.033   1.294
59987W        W23931  37.857   4.898  13.338
59988W        W23932   7.349  34.528   2.236
59989W        W23933   6.704  14.340   2.396
59990W        W23934  20.612   3.402   5.175
59991W        W23935  20.663  12.625   3.226
59992W        W23936  23.207  23.589   4.252
59993W        W23937  14.110  43.853  12.373
59994W        W23938  43.884  21.703  12.090
59995W        W23939  41.464  44.810  10.998
59996W        W23940  19.266  29.150  11.530
59997W        W23941   2.819  31.103   0.245
59998W        W23942  18.233   1.767   2.706
59999W        W23943  29.114  25.630  13.062
60000W        W23944  35.369  14.816  13.848
60001W        W23945  28.965  41.408  11.448
60002W        W23946   1.946  38.564   2.796
60003W        W23947  14.616  29.435  14.019
60004W        W23948  41.901  17.213   4.797
60005W        W23949  18.296  13.696  14.459
60006W        W23950   0.433  40.968   2.386
60007W        W23951   4.315  13.639   0.938
60008W        W23952  30.538   6.354   2.780
60009W        W23953   4.322  39.975  14.853
60010W        W23954   2.740  23.148   2.270
60011W        W23955  29.480   1.367   0.958
60012W        W23956  36.450  15.251   3.791
60013W        W23957  32.561  27.987   1.916
60014W        W23958  33.007  24.177   4.692
60015W        W23959  36.976  17.288  12.830
60016W        W23960  37.421  22.680  11.928
60017W        W23961  15.276  26.497  12.346
60018W        W23962  34.988  31.557  13.926
60019W        W23963   4.706  44.377   0.438
60020W        W23964  11.165  32.495   1.836
60021W        W23965  35.013   3.333  13.521
60022W        W23966  20.054  32.971   1.924
60023W        W23967  30.586  15.098   2.311
60024W        W23968  35.454  19.570  10.597
60025W        W23969  35.027  43.000  11.479
60026W        W23970   8.873  38.547  12.061
60027W        W23971   9.281  29.605   1.391
60028W        W23972   4.781  44.448   2.791
60029W        W23973  22.221  41.307  13.400
60030W        W23974   7.267  11.723  11.878
60031W        W23975  17.272   8.353  14.505
60032W        W23976   5.225   0.950   1.896
60033W        W23977  13.603  16.748  11.455
60034W        W23978  14.806  30.106   1.343
60035W        W23979   7.815  11.235  10.564
60036W        W23980  17.640  15.681  14.392
60037W        W23981  37.928  36.570   2.710
60038W        W23982   2.259   6.401  12.449
60039W        W23983  26.006  26.486   3.772
60040W        W23984  14.603   9.753  12.854
60041W        W23985  15.142  31.032   4.185
60042W        W23986  21.541  25.039  11.563
60043W        W23987  28.022   4.910  12.508
60044W        W23988  37.971  24.163  12.433
60045W        W23989  33.449  43.908   4.736
60046W        W23990  30.480  40.532   0.918
60047W        W23991  10.294   2.267  10.406
60048W        W23992  44.989   1.447   1.324
60049W        W23993  37.582   4.748   3.382
60050W        W23994  18.095   9.774   3.810
60051W        W23995  29.571  28.681  11.569
60052W        W23996  22.015  12.774  13.002
60053W        W23997   5.419  21.698   4.354
60054W        W23998  44.980  21.525   1.731
60055W        W23999  22.508  29.977  12.425
60056W        W24000  28.942   5.409  12.011
60057W        W24001  34.920   7.849  14.945
60058W        W24002  29.611  35.917   2.889
60059W        W24003   3.946   4.398  10.573
60060W        W24004  40.934  19.635  11.513
60061W        W24005   2.352  25.706   0.746
60062W        W24006  33.119   4.886   2.269
60063W        W24007  26.463  44.804   4.685
60064W        W24008  13.837  33.115  12.017
60065W        W24009  19.672  12.316  14.808
60066W        W24010  23.563   8.872  12.914
60067W        W24011  37.512  33.892   4.130
60068W        W24012  31.605  10.287   4.174
60069W        W24013  12.612  24.685   2.703
60070W        W24014   0.831   4.427   1.341
60071W        W24015  27.546  19.048   3.379
60072W        W24016  31.921  35.523   4.634
60073W        W24017  39.051  25.525  14.341
60074W        W24018   5.309   6.408  11.504
60075W        W24019  40.477  28.006  12.504
60076W        W24020  25.027  19.175  10.532
60077W        W24021  38.976  29.492   0.794
60078W        W24022   4.928  35.893   4.690
60079W        W24023  26.458  24.052   4.802
60080W        W24024   0.365  40.436  14.430
60081W        W24025  43.507   1.939   3.702
60082W        W24026  30.963  13.182  14.004
60083W        W24027  25.635  40.054   4.753
60084W        W24028   2.744  20.256  11.996
60085W        W24029  18.664  14.340   2.850
60086W        W24030   6.251  27.094  10.962
60087W        W24031  31.010  16.662   4.822
60088W        W24032   4.303  26.670   1.262
60089W        W24033  26.139  41.830  13.397
60090W        W24034   9.316   0.273   3.746
60091W        W24035  41.951  11.746  11.481
60092W        W24036  39.407  36.022  11.415
60093W        W24037   0.845  21.717   3.208
60094W        W24038   7.235  29.668  13.899
60095W        W24039  11.698  38.507   0.893
60096W        W24040  26.093  24.216  10.890
60097W        W24041   7.772  23.092  11.900
60098W        W24042  23.597  25.973   0.848
60099W        W24043   8.702  36.534   2.820
60100W        W24044  35.978   8.851   3.780
60101W        W24045  13.658  43.785   0.252
60102W        W24046  29.044  13.686  14.372
60103W        W24047   3.394  40.984   4.770
60104W        W24048   3.856  13.117   1.828
60105W        W24049  14.311  38.837   3.165
60106W        W24050  26.681  18.240   4.135
60107W        W24051  34.923  22.207   4.233
60108W        W24052   9.834  20.579   0.769
60109W        W24053  36.419  37.425   0.732
60110W        W24054  42.959  15.674  11.097
60111W        W24055   7.292   7.715   4.733
60112W        W24056  23.056  42.406   4.247
60113W        W24057   4.725   5.790   0.373
60114W        W24058  26.074   1.809  13.480
60115W        W24059  29.114  21.590  10.528
60116W        W24060  42.428  19.214   4.349
60117W        W24061  40.954   0.442  14.793
60118W        W24062  16.777   3.445  13.901
60119W        W24063   2.762  33.619   2.337
60120W        W24064   1.257  29.610  11.090
60121W        W24065  32.419  32.003   3.804
60122W        W24066  25.497  18.277  10.571
60123W        W24067  24.081  27.173  12.515
60124W        W24068  35.584  37.485   1.758
60125W        W24069  34.052  22.710   0.417
60126W        W24070  23.572  11.782   2.839
60127W        W24071  25.188   6.770   2.781
60128W        W24072   4.854  30.085   9.980
60129W        W24073  24.164  33.076  13.794
60130W        W24074   4.284   6.757  14.412
60131W        W24075  39.894   5.933  13.336
60132W        W24076  42.381  32.963  14.938
60133W        W24077  20.647  24.164   5.209
60134W        W24078  24.175  42.925  12.063
60135W        W24079  31.957  30.120   4.244
60136W        W24080  34.445  26.479   4.218
60137W        W24081  31.610  25.494  13.399
60138W        W24082  10.854  37.464  14.761
60139W        W24083  39.435  25.059  13.483
60140W        W24084  26.009  19.565  11.993
60141W        W24085  39.452   3.281  13.423
60142W        W24086  43.850  29.527  13.333
60143W        W24087  13.733   4.364  14.338
60144W        W24088  11.165   0.940   1.221
60145W        W24089  17.674  20.705   1.439
60146W        W24090  22.646   5.769   1.448
60147W        W24091  32.029  31.636  13.854
60148W        W24092  44.273  30.465  14.424
60149W        W24093  37.469  33.095   0.737
60150W        W24094   4.375   4.445  14.480
60151W        W24095  10.358  32.961  14.989
60152W        W24096   2.808  22.144  14.861
60153W        W24097  32.909   0.884  11.024
60154W        W24098   3.724  16.286  10.458
60155W        W24099  15.266   8.324   2.187
60156W        W24100  26.990  20.642  12.384
60157W        W24101   0.356  43.421   3.856
60158W        W24102   8.863  14.234   3.229
60159W        W24103   9.653  15.269   3.326
60160W        W24104   8.344  31.933   4.640
60161W        W24105  13.599  24.223   1.922
60162W        W24106   0.884  39.421  12.846
60163W        W24107  17.252  27.671  12.361
60164W        W24108  44.315  32.524  13.893
60165W        W24109  35.378  17.103  13.950
60166W        W24110  24.987  31.462   3.228
60167W        W24111   7.294  41.483  12.838
60168W        W24112   2.905  37.031   3.263
60169W        W24113  12.727  19.778   0.834
60170W        W24114  24.534   8.168  10.921
60171W        W24115  21.587  11.220  13.837
60172W        W24116   2.921  34.498  11.120
60173W        W24117   4.242  29.661  11.603
60174W        W24118   8.321   5.699  11.896
60175W        W24119  33.499  17.586  11.541
60176W        W24120  25.978  23.695   2.722
60177W        W24121  10.867  11.805  11.461
60178W        W24122  20.055  13.130   2.315
60179W        W24123  23.229  26.065   4.734
60180W        W24124  36.879  12.818  13.402
60181W        W24125  35.484  12.180  11.568
60182W        W24126  14.618  22.691  14.305
60183W        W24127   2.413  14.645   1.445
60184W        W24128  23.193  22.069  13.900
60185W        W24129  26.503   8.362   0.264
60186W        W24130  43.343  37.364  10.017
60187W        W24131  19.728  39.844   3.719
60188W        W24132  16.210  14.802  12.859
60189W        W24133   2.344   1.819   3.707
60190W        W24134  23.704  36.480  11.987
60191W        W24135  35.020  25.529  12.933
60192W        W24136  29.047   1.920  10.612
60193W        W24137  26.668  20.074   4.828
60194W        W24138  44.346  32.398   0.437
60195W        W24139  17.265  34.395   5.098
60196W        W24140  15.264  32.053  12.886
60197W        W24141  25.593  35.042   4.284
60198W        W24142  18.230  11.291  10.031
60199W        W24143  11.223  40.041  13.354
60200W        W24144  30.620  32.083   2.387
60201W        W24145  21.713   0.435  12.869
60202W        W24146  28.447   6.414  12.046
60203W        W24147   4.942   3.795  12.509
60204W        W24148   9.302   4.757   1.273
60205W        W24149   3.333  17.733  12.969
60206W        W24150   7.372  27.056   4.700
60207W        W24151   2.898  12.856  14.466
60208W        W24152  34.596  16.803   0.431
60209W        W24153  31.556  10.230  11.003
60210W        W24154   5.256  22.702   0.252
60211W        W24155  20.730  39.956   4.698
60212W        W24156  30.524  21.171   5.215
60213W        W24157  38.002   2.723   2.299
60214W        W24158  42.386  10.695  14.871
60215W        W24159  23.993  17.721   3.834
60216W        W24160   1.289  37.395   2.716
60217W        W24161   5.846  35.467   3.220
60218W        W24162  20.247  41.011   0.755
60219W        W24163   4.272   5.877  12.468
60220W        W24164  17.568  14.697  12.406
60221W        W24165  14.179  38.950  14.820
60222W        W24166   3.935  40.909   0.335
60223W        W24167  20.127  13.237  13.998
60224W        W24168  30.590  27.476  12.928
60225W        W24169   3.407   2.325   1.359
60226W        W24170  43.501  23.577   1.762
60227W        W24171  37.537  40.994  12.457
60228W        W24172   3.301  37.922  11.582
60229W        W24173  36.571  10.359   3.766
60230W        W24174  27.512   3.217  13.472
60231W        W24175  12.237  23.555  12.344
60232W        W24176  24.004  26.694  10.932
60233W        W24177  19.709  22.597  12.845
60234W        W24178  32.536  26.537   1.869
60235W        W24179   5.419  11.642   4.262
60236W        W24180  15.649  32.027   1.826
60237W        W24181  34.886  13.683  10.499
60238W        W24182  41.338  15.229   3.216
60239W        W24183  20.076  33.564  13.896
60240W        W24184  35.967  38.984  14.355
60241W        W24185   9.364  27.521  14.922
60242W        W24186  35.896   4.809   0.805
60243W        W24187  15.725   1.963   5.726
60244W        W24188  40.814   9.698   4.322
60245W        W24189  28.979  18.102  14.019
60246W        W24190  17.062  42.784   4.660
60247W        W24191  25.683   1.764   2.795
60248W        W24192   9.301   8.273   2.302
60249W        W24193  10.222  12.236   2.881
60250W        W24194  41.803   4.379  11.088
60251W        W24195   3.398  34.372  13.344
60252W        W24196  28.643  27.464  13.912
60253W        W24197  10.693  27.665   1.715
60254W        W24198   0.454   8.886  14.337
60255W        W24199  33.449   0.924   5.120
60256W        W24200  12.183  28.083  11.412
60257W        W24201   7.335  11.751  14.452
60258W        W24202  43.289  38.007  10.938
60259W        W24203  10.874  14.709  14.365
60260W        W24204   9.157  36.983   1.232
60261W        W24205  35.009  19.644   3.351
60262W        W24206   3.399  31.512   4.777
60263W        W24207  22.176   4.939  10.476
60264W        W24208   0.813  39.446   2.182
60265W        W24209  12.273  14.237   3.238
60266W        W24210   0.954  16.293  14.857
60267W        W24211  22.222  43.306   4.342
60268W        W24212  15.228  11.863  13.835
60269W        W24213   8.387  29.997   2.243
60270W        W24214  20.651  35.959  14.792
60271W        W24215  26.677  39.913  13.949
60272W        W24216  18.760  18.639  10.453
60273W        W24217  18.148  34.959   2.734
60274W        W24218  44.892  13.148  14.958
60275W        W24219  41.447   3.848   5.781
60276W        W24220   5.713  16.295   2.223
60277W        W24221   9.841  31.948   0.437
60278W        W24222  42.402  32.427   3.167
60279W        W24223  19.594  25.509   2.792
60280W        W24224  16.702   9.698   3.870
60281W        W24225  37.024  25.015  11.462
60282W        W24226  13.286  17.288  11.875
60283W        W24227  18.740  31.099   2.301
60284W        W24228  28.149  22.082   3.357
60285W        W24229  10.348  20.609  14.821
60286W        W24230  12.618  39.842  13.833
60287W        W24231  20.090  40.813  10.596
60288W        W24232  11.305  19.099  11.380
60289W        W24233  12.295  35.454  12.001
60290W        W24234  30.983   2.791   3.645
60291W        W24235  12.644  44.954  11.500
60292W        W24236  35.056  41.304   1.727
60293W        W24237  34.955   9.713   4.600
60294W        W24238  26.696   9.784  11.115
60295W        W24239  41.887  30.028  10.519
60296W        W24240  27.683   5.315   4.339
60297W        W24241  29.629   1.428  14.338
60298W        W24242   3.235  30.092  12.087
60299W        W24243  15.729   0.285  11.881
60300W        W24244  26.021  24.032   0.406
60301W        W24245  33.448  19.573  10.629
60302W        W24246   9.691  37.037   2.402
60303W        W24247   2.923  37.852   2.685
60304W        W24248  35.598   0.953   3.329
60305W        W24249  40.444  36.970  12.880
60306W        W24250  14.617  22.019  10.645
60307W        W24251   7.330  41.530  14.317
60308W        W24252   7.891  32.522   4.282
60309W        W24253  16.574  43.018  14.880
60310W        W24254  25.054   7.346  13.469
60311W        W24255  29.946  34.111   2.397
60312W        W24256   0.974   7.746  11.916
60313W        W24257  39.961  31.466  11.575
60314W        W24258   2.453  26.615   4.782
60315W        W24259  36.511  24.482  13.994
60316W        W24260   5.238  19.565  13.962
60317W        W24261   9.694  23.226   1.264
60318W        W24262  38.876   8.883   2.204
60319W        W24263   9.846  30.943  11.986
60320W        W24264  44.365   5.339  12.004
60321W        W24265  18.173  33.894  13.345
60322W        W24266  24.065  14.183   4.779
60323W        W24267  36.470   6.842   2.313
60324W        W24268   8.246   3.750   2.409
60325W        W24269  30.591  16.749  14.446
60326W        W24270  36.433  25.707  13.875
60327W        W24271  29.473   5.432   3.178
60328W        W24272   4.888   8.855   1.898
60329W        W24273  39.474  36.590   3.773
60330W        W24274   6.294   4.732   4.817
60331W        W24275  10.804   3.412   2.407
60332W        W24276  37.377  28.006  13.004
60333W        W24277  10.872  32.014   1.910
60334W        W24278  16.258   3.220  12.391
60335W        W24279   9.741  38.384  12.513
60336W        W24280   6.709  23.183   4.812
60337W        W24281  17.268  32.608   4.243
60338W        W24282   6.746  21.655   1.374
60339W        W24283  26.688  29.167  12.416
60340W        W24284  21.656  21.074   1.307
60341W        W24285  29.663  19.649   0.739
60342W        W24286  17.224  41.379   0.275
60343W        W24287  32.427  41.449   2.340
60344W        W24288  16.645  39.954  11.860
60345W        W24289  33.409   2.469  11.865
60346W        W24290  27.158  36.443   4.292
60347W        W24291  28.113  30.940   0.295
60348W        W24292  31.086  30.928   3.836
60349W        W24293  41.876   3.323  10.952
60350W        W24294  12.266  11.762  12.999
60351W        W24295  28.131  14.640  11.046
60352W        W24296  44.504  20.624  12.535
60353W        W24297  16.241   2.738   9.547
60354W        W24298   7.338  38.388   2.668
60355W        W24299   7.361  26.575   3.378
60356W        W24300  39.038   3.801   1.231
60357W        W24301  25.639   6.197   4.310
60358W        W24302  32.951  24.642   2.247
60359W        W24303  27.043  21.062   2.203
60360W        W24304  10.771  32.514  10.451
60361W        W24305  18.295  40.315  14.402
60362W        W24306  17.072  24.721  10.558
60363W        W24307  23.020  19.664   2.901
60364W        W24308  42.978  37.568   2.247
60365W        W24309  33.596  13.227  12.437
60366W        W24310  24.590  36.975  10.541
60367W        W24311  33.945  44.277   0.796
60368W        W24312  36.579   9.859  10.602
60369W        W24313  22.068   9.159   3.845
60370W        W24314  38.931  15.822  12.930
60371W        W24315   5.288   4.921  14.418
60372W        W24316  10.844  39.357   0.311
60373W        W24317  40.502  27.500   4.225
60374W        W24318  22.016   3.305  12.397
60375W        W24319  38.395  33.626  12.048
60376W        W24320   9.769  39.348  14.330
60377W        W24321  15.326   4.831   4.277
60378W        W24322  35.441  40.335  14.802
60379W        W24323  10.269  26.110   1.332
60380W        W24324  22.220  36.414   1.746
60381W        W24325  21.108  43.771  14.307
60382W        W24326   3.922  43.915   4.735
60383W        W24327  24.015   1.256  12.942
60384W        W24328  12.277   7.719   0.440
60385W        W24329   9.239  36.529  14.891
60386W        W24330  11.705  18.163   1.867
60387W        W24331  25.082  36.556   2.736
60388W        W24332  38.552  39.350   3.261
60389W        W24333  38.985  30.098  13.002
60390W        W24334  10.162  12.718   4.300
60391W        W24335  29.626  10.875  10.524
60392W        W24336   3.425  26.567   0.389
60393W        W24337  43.441  36.406   4.313
60394W        W24338   7.224  29.961  10.967
60395W        W24339  21.078  33.054   2.240
60396W        W24340  34.476  15.612  14.394
60397W        W24341  26.095   9.158   0.352
60398W        W24342  44.815   9.277   4.261
60399W        W24343  44.889  13.727  11.430
60400W        W24344  18.112  29.950   2.261
60401W        W24345  27.059  18.143  14.797
60402W        W24346  32.559  27.454  11.571
60403W        W24347  34.384  22.011   4.214
60404W        W24348   7.314  14.804   2.761
60405W        W24349  16.131   0.287  10.045
60406W        W24350  31.524  21.646  12.027
60407W        W24351  35.575  35.530   0.738
60408W        W24352  22.702  26.096  12.451
60409W        W24353  31.039  34.489   0.394
60410W        W24354   9.257  34.095  10.635
60411W        W24355  29.027  18.701   9.949
60412W        W24356  40.977  23.200  10.990
60413W        W24357   9.350  24.541   3.198
60414W        W24358  24.520  38.860  12.906
60415W        W24359  15.812  31.935   4.334
60416W        W24360  32.524  27.968   4.615
60417W        W24361  10.668   3.822   2.891
60418W        W24362  19.578  40.843   3.339
60419W        W24363  31.478  30.910  12.416
60420W        W24364   2.840  41.806   0.907
60421W        W24365   7.327   7.886   1.321
60422W        W24366  22.103  26.526  14.798
60423W        W24367   6.399   0.755   2.873
60424W        W24368  36.420  16.667   2.419
60425W        W24369  41.788  38.935  13.404
60426W        W24370  40.917  41.862   3.325
60427W        W24371  39.919  40.451   4.644
60428W        W24372  27.177  17.773   1.837
60429W        W24373  23.495  18.768   2.836
60430W        W24374  11.827  11.320  11.414
60431W        W24375  30.053  42.887  10.622
60432W        W24376  10.181  22.730  13.986
60433W        W24377   8.326   7.374  10.490
60434W        W24378  41.033  25.612  11.398
60435W        W24379  13.693  14.304   0.784
60436W        W24380  15.751  23.103   1.218
60437W        W24381  28.034  25.580   5.174
60438W        W24382  28.671  40.904   3.234
60439W        W24383   6.281  40.424  11.426
60440W        W24384  16.566   4.211   0.296
60441W        W24385  33.619  17.225   3.362
60442W        W24386  40.394  10.359   3.302
60443W        W24387   1.436  30.972   2.695
60444W        W24388  32.975  15.290   2.372
60445W        W24389   6.362   6.403  10.135
60446W        W24390  31.145  41.795   4.676
60447W        W24391  37.859   3.246  11.432
60448W        W24392   7.860  37.909   1.894
60449W        W24393  21.649  19.665   0.244
60450W        W24394  29.482   7.863  10.916
60451W        W24395   4.300   0.338   2.363
60452W        W24396   4.365  22.169  14.430
60453W        W24397  30.438  17.775  11.071
60454W        W24398  11.712  36.088  10.948
60455W        W24399  42.474  23.112   0.954
60456W        W24400  31.901  41.846   0.825
60457W        W24401  10.740  21.063   0.357
60458W        W24402  39.980  11.767   2.819
60459W        W24403  43.282  33.399  13.488
60460W        W24404  35.448  41.313  13.848
60461W        W24405  16.751  14.214  14.799
60462W        W24406  34.083   7.839   0.342
60463W        W24407  26.675  20.549   3.284
60464W        W24408  32.112   8.726   1.292
60465W        W24409  14.789  41.489   0.303
60466W        W24410  32.043  29.130   3.745
60467W        W24411   1.247   2.832  13.919
60468W        W24412  29.979  34.005   1.751
60469W        W24413  21.578  32.460  14.379
60470W        W24414   0.326  36.055   3.699
60471W        W24415   5.784  33.887   2.216
60472W        W24416  23.089   9.252   0.918
60473W        W24417   6.765  23.580  12.546
60474W        W24418   2.956  28.493  14.375
60475W        W24419  16.718   2.748  13.914
60476W        W24420   5.255  10.381  12.377
60477W        W24421   4.409  34.118  13.361
60478W        W24422  43.780  37.519   5.189
60479W        W24423   7.714   1.248   4.316
60480W        W24424  21.615  36.382   2.216
60481W        W24425  15.736  31.010   0.304
60482W        W24426  16.778  17.231   0.897
60483W        W24427  26.139  36.542   2.902
60484W        W24428  43.905  43.462  11.437
60485W        W24429   7.675   1.802  13.028
60486W        W24430   4.743  33.085   4.726
60487W        W24431  42.488  19.625   0.457
60488W        W24432   3.819  20.156  14.358
60489W        W24433  14.613   6.385  12.508
60490W        W24434   1.428  15.647   4.757
60491W        W24435  13.835   7.863   3.761
60492W        W24436  22.087  44.318   3.263
60493W        W24437  43.506  28.148   4.258
60494W        W24438  42.302  39.034   3.789
60495W        W24439  42.296   4.269   1.269
60496W        W24440  36.589  40.352  12.454
60497W        W24441   6.223  12.330   3.334
60498W        W24442  25.197   5.837  11.576
60499W        W24443  39.376   5.690   3.833
60500W        W24444  13.155  20.063   4.311
60501W        W24445   3.313  11.289  12.085
60502W        W24446  15.691  38.328   3.674
60503W        W24447  36.580  38.489   1.781
60504W        W24448   8.659  15.097  11.438
60505W        W24449  34.475  43.300  14.764
60506W        W24450  35.959   8.192   3.355
60507W        W24451  35.027  35.015   3.340
60508W        W24452  16.662  14.819   2.300
60509W        W24453  10.871   1.271   4.322
60510W        W24454   3.882  31.055   3.870
60511W        W24455  21.068  23.560  13.035
60512W        W24456  35.920  38.935  10.632
60513W        W24457  29.107  35.990   0.773
60514W        W24458   0.916  39.992  12.528
60515W        W24459  12.210  14.340  13.841
60516W        W24460  37.393  17.742  13.024
60517W        W24461  25.582   1.270   3.869
60518W        W24462   3.747  20.127  10.529
60519W        W24463  32.913  29.646  14.276
60520W        W24464   3.245  31.132   3.303
60521W        W24465  40.923  30.102  14.763
60522W        W24466  21.704   0.333  13.324
60523W        W24467  26.673  39.436  13.476
60524W        W24468   1.793  15.704  12.360
60525W        W24469  11.308  34.446  14.494
60526W        W24470   3.406   2.900  12.393
60527W        W24471  29.565  20.031  11.457
60528W        W24472  27.562   0.964  12.481
60529W        W24473  14.700   7.722  11.033
60530W        W24474  32.469  20.562  12.063
60531W        W24475   9.223  31.605  11.595
60532W        W24476  14.174  35.394   4.290
60533W        W24477   6.301  38.937   3.630
60534W        W24478   3.221   0.380   2.720
60535W        W24479  15.299  12.300   3.200
60536W        W24480  19.285  25.982  10.561
60537W        W24481  11.659  26.468   1.730
60538W        W24482  28.505  14.172   3.630
60539W        W24483  38.902  12.774  14.972
60540W        W24484  34.378   5.828  10.939
60541W        W24485   9.212  43.326  14.763
60542W        W24486  14.639  43.387   0.339
60543W        W24487   6.414  19.144  11.043
60544W        W24488   8.681  15.167  13.508
60545W        W24489  10.719  17.290   5.311
60546W        W24490  28.627  24.112   2.888
60547W        W24491  31.633   2.846  14.810
60548W        W24492  33.479  16.587  10.149
60549W        W24493  27.576  15.130   9.948
60550W        W24494  39.495  15.604  12.939
60551W        W24495   5.864   7.220  11.611
60552W        W24496   0.909  13.194   1.394
60553W        W24497   8.750   4.832   3.268
60554W        W24498  44.820  21.575  13.042
60555W        W24499  22.047  41.791   1.285
60556W        W24500  34.027  28.995  13.022
60557W        W24501   7.266  44.498  14.418
60558W        W24502   0.802   8.264  11.939
60559W        W24503  29.097   6.409  12.431
60560W        W24504   6.703  16.288   0.411
60561W        W24505  40.477  17.195   1.857
60562W        W24506  16.170  30.977   3.364
60563W        W24507  21.613   3.387   2.663
60564W        W24508  19.280  28.492   0.815
60565W        W24509  21.149  13.646  10.948
60566W        W24510  28.482   7.307  10.609
60567W        W24511  41.969  29.566   1.408
60568W        W24512   8.771  10.704  10.582
60569W        W24513  32.591  17.660   3.145
60570W        W24514  39.048  11.221   3.860
60571W        W24515  24.193  15.582   4.631
60572W        W24516  11.829  35.532  10.935
60573W        W24517   8.862  23.619   1.777
60574W        W24518  44.783  34.514  11.872
60575W        W24519  36.590   8.678  11.083
60576W        W24520  23.231  13.148  12.848
60577W        W24521  29.050   8.379   2.326
60578W        W24522  40.045  33.985  13.952
60579W        W24523  23.721  25.694   4.708
60580W        W24524  24.709  21.020   0.752
60581W        W24525  38.869  29.491  11.908
60582W        W24526  17.770  30.631  11.564
60583W        W24527   8.218  30.476   2.197
60584W        W24528   5.371  44.385  14.928
60585W        W24529  18.700  44.892   0.318
60586W        W24530  42.865  37.401  14.372
60587W        W24531  17.159  15.621  13.500
60588W        W24532  22.558  14.332  11.457
60589W        W24533  33.081  23.547  11.866
60590W        W24534  44.355  35.969   2.270
60591W        W24535  41.954  31.524   0.365
60592W        W24536  18.578  25.471   2.348
60593W        W24537  23.237  24.598   1.788
60594W        W24538  26.109  40.536   0.469
60595W        W24539  43.909   3.250   1.375
60596W        W24540  16.755  30.640   2.759
60597W        W24541  41.977  24.488   4.670
60598W        W24542  41.433  28.567   2.757
60599W        W24543  25.067  36.546  13.882
60600W        W24544   9.387   3.405   4.627
60601W        W24545  32.448  26.957   1.910
60602W        W24546  24.555  36.899   4.226
60603W        W24547  21.082  16.303  11.017
60604W        W24548  23.065  22.137   2.664
60605W        W24549   9.165  22.031  12.080
60606W        W24550   9.328  38.921  14.852
60607W        W24551  28.963  39.362  11.465
60608W        W24552  17.111  39.835  12.052
60609W        W24553   4.367  32.614   4.283
60610W        W24554   7.880  33.941   4.635
60611W        W24555  35.495  41.024   0.823
60612W        W24556  17.110  33.020   4.293
60613W        W24557  15.676  41.503   1.859
60614W        W24558  31.405  14.259   1.700
60615W        W24559  40.864  28.483  11.489
60616W        W24560  11.656  40.404   1.399
60617W        W24561  43.989  30.124  14.938
60618W        W24562   2.245  31.607   2.752
60619W        W24563  15.256  14.716   3.828
60620W        W24564  20.586  38.431   3.826
60621W        W24565  43.837  43.960   0.820
60622W        W24566  31.135  19.667  13.478
60623W        W24567  41.804  35.475  11.445
60624W        W24568  14.789   8.813   5.116
60625W        W24569  22.596   7.700   4.235
60626W        W24570  40.332   2.233  12.922
60627W        W24571   8.889  11.351  12.460
60628W        W24572  24.990   4.896  14.347
60629W        W24573  35.431  10.700   3.339
60630W        W24574  21.030   5.246   3.821
60631W        W24575  16.198  18.276   2.399
60632W        W24576   5.282  32.082   3.826
60633W        W24577  34.449   7.391   4.716
60634W        W24578  12.674   2.730   1.250
60635W        W24579   3.366  39.456  12.440
60636W        W24580  16.585  44.976  14.866
60637W        W24581  42.015  33.590  14.960
60638W        W24582   1.402  32.061   4.745
60639W        W24583  21.058   8.718   0.453
60640W        W24584  24.593  40.817   4.340
60641W        W24585   0.369   4.220   0.349
60642W        W24586  34.113  36.982  11.007
60643W        W24587  35.061  11.220  11.090
60644W        W24588  19.203  20.692  10.606
60645W        W24589  37.864  21.162   4.620
60646W        W24590   4.848  19.149   3.777
60647W        W24591  36.537  31.587  14.871
60648W        W24592   7.333   0.870   4.602
60649W        W24593  18.217  36.575  14.923
60650W        W24594  13.790  21.250  14.364
60651W        W24595  11.781  31.540   4.190
60652W        W24596  11.225   5.305  12.498
60653W        W24597   0.851   9.392  11.577
60654W        W24598  30.647   3.851  12.086
60655W        W24599   7.346   6.253   3.341
60656W        W24600  29.124  44.856  13.817
60657W        W24601  10.359  25.185  10.983
60658W        W24602   5.200   8.372   9.515
60659W        W24603  43.322  23.106   4.598
60660W        W24604  38.913  38.847   5.322
60661W        W24605  22.074  37.985  11.932
60662W        W24606  31.405  30.547  10.470
60663W        W24607   9.381  42.482  13.993
60664W        W24608   2.824  32.459  11.922
60665W        W24609   1.430  17.771   1.847
60666W        W24610  39.859   5.745   4.717
60667W        W24611  23.221  35.411   4.825
60668W        W24612  26.193  40.942   0.842
60669W        W24613  17.712  42.466  14.510
60670W        W24614   9.373   1.459   1.746
60671W        W24615  14.317  16.095   3.687
60672W        W24616  19.536   0.908  14.866
60673W        W24617  19.757  42.878   2.246
60674W        W24618  23.708  23.159  12.027
60675W        W24619  40.533   9.282  14.461
60676W        W24620  34.106  21.161  12.509
60677W        W24621  15.267  41.848   3.798
60678W        W24622  36.956  39.555  10.491
60679W        W24623  21.252  18.118   2.214
60680W        W24624  27.572  23.523   3.796
60681W        W24625  18.064   2.293  14.973
60682W        W24626  25.008  23.999  13.365
60683W        W24627  28.187   8.256  14.377
60684W        W24628  10.165   6.229  12.471
60685W        W24629   2.444  20.674   1.735
60686W        W24630  33.386  43.328   3.306
60687W        W24631   1.908   2.460  11.096
60688W        W24632  25.705  22.547  10.119
60689W        W24633  10.641   3.232  14.465
60690W        W24634  11.354   1.399  14.913
60691W        W24635  17.677  36.942  13.404
60692W        W24636  14.210  32.065   3.167
60693W        W24637  35.026  30.447   2.815
60694W        W24638   4.741   6.890   2.279
60695W        W24639  43.936   5.197  12.844
60696W        W24640  24.043  35.989  13.498
60697W        W24641  15.746  30.416   5.287
60698W        W24642  28.609  18.115  11.452
60699W        W24643  19.556  20.261  10.570
60700W        W24644  17.602  32.512  14.410
60701W        W24645  36.091  23.226  14.343
60702W        W24646  29.581   9.656   0.827
60703W        W24647   8.333  42.453  11.459
60704W        W24648  30.948  21.251   0.767
60705W        W24649   6.420   0.460  13.404
60706W        W24650  13.805   9.317   1.777
60707W        W24651   6.345  31.916  14.416
60708W        W24652  12.769   8.391   4.210
60709W        W24653  19.242  28.568   3.750
60710W        W24654   2.328   5.276   2.798
60711W        W24655  36.096  38.374   2.210
60712W        W24656   9.795  28.584  11.545
60713W        W24657  26.603  12.353   4.689
60714W        W24658  26.590  12.290   4.207
60715W        W24659  41.395  25.525  10.972
60716W        W24660  43.880  17.781   3.163
60717W        W24661  31.412  14.807   3.376
60718W        W24662   8.777  24.179  13.972
60719W        W24663  28.954  37.555  13.353
60720W        W24664  14.340  40.845   3.274
60721W        W24665  37.063  20.537   1.818
60722W        W24666   9.736   8.899   3.825
60723W        W24667   5.307  25.654   1.388
60724W        W24668  34.454  19.165   0.475
60725W        W24669  14.817  14.824  11.485
60726W        W24670  43.789  26.628  14.480
60727W        W24671  37.001  32.905  10.422
60728W        W24672  16.229  19.635   0.921
60729W        W24673  17.083  34.412  14.933
60730W        W24674  24.124  23.009   0.746
60731W        W24675  39.065   6.875   5.164
60732W        W24676  38.924  38.476  10.538
60733W        W24677  35.582  23.031  14.379
60734W        W24678   4.738  14.768   3.839
60735W        W24679  24.593   4.215   1.832
60736W        W24680  26.592  36.485  14.390
60737W        W24681  34.505  18.739  11.984
60738W        W24682  13.197  19.169   2.263
60739W        W24683  40.990  38.540   4.648
60740W        W24684  22.239  39.004   4.723
60741W        W24685  15.694  14.800   4.819
60742W        W24686   7.307  16.110  11.942
60743W        W24687  28.176   4.351  13.979
60744W        W24688  28.670  19.086   1.419
60745W        W24689  25.212   9.338  10.520
60746W        W24690   4.811   4.231   3.286
60747W        W24691  10.823   6.411  11.073
60748W        W24692   0.401  17.645  10.982
60749W        W24693  36.938  17.768  14.886
60750W        W24694  30.538  42.983   4.228
60751W        W24695   8.378   0.361  10.948
60752W        W24696  18.608  21.643   3.735
60753W        W24697  24.144  27.462  11.591
60754W        W24698   7.770   6.392  12.825
60755W        W24699   4.853  41.805   0.818
60756W        W24700  14.745  12.336  12.848
60757W        W24701  38.369  20.181   1.297
60758W        W24702   8.812  34.472   2.765
60759W        W24703  13.282  19.620  14.358
60760W        W24704   2.259  38.455   0.805
60761W        W24705  37.984  29.085   1.299
60762W        W24706  27.025  18.710  12.936
60763W        W24707  13.830  17.711  14.365
60764W        W24708  15.602  19.173  14.472
60765W        W24709  44.938  40.933   2.664
60766W        W24710   2.431   0.312   1.317
60767W        W24711  38.422  15.708  14.403
60768W        W24712  13.789  32.892   4.260
60769W        W24713  32.929   8.799  11.394
60770W        W24714  25.051  41.910   3.272
60771W        W24715  15.677  23.545  12.425
60772W        W24716  31.510  14.209   0.959
60773W        W24717  29.465  40.823   3.706
60774W        W24718  32.947  20.074   2.214
60775W        W24719  19.620   5.899  13.016
60776W        W24720  33.955   3.386   0.912
60777W        W24721   8.866  37.064  10.935
60778W        W24722   7.226  42.453   0.874
60779W        W24723   4.700  20.575  13.801
60780W        W24724  38.853  28.538   0.770
60781W        W24725  44.978  34.013  12.476
60782W        W24726  25.637  10.764  10.423
60783W        W24727  36.362  32.957   3.360
60784W        W24728  16.566  25.523   9.444
60785W        W24729  20.729  14.259  11.020
60786W        W24730  39.552  18.742  14.342
60787W        W24731   9.303   9.384  14.008
60788W        W24732   3.851  26.012   1.796
60789W        W24733  24.014  41.339  11.083
60790W        W24734  18.228  28.563  14.798
60791W        W24735  10.250  16.629  12.905
60792W        W24736  33.382  27.615  11.599
60793W        W24737  11.250   2.368  11.930
60794W        W24738  14.757  43.972   1.273
60795W        W24739  14.254  30.054  12.359
60796W        W24740  41.517  16.783   3.742
60797W        W24741   2.960   1.916  12.421
60798W        W24742  27.660   6.829  10.963
60799W        W24743  31.121  11.623  10.054
60800W        W24744  11.803  18.262   3.303
60801W        W24745  40.866  44.338  14.904
60802W        W24746  43.991  27.539  14.316
60803W        W24747  10.774  39.341  13.344
60804W        W24748  15.260  23.604  14.024
60805W        W24749  19.648   6.396   5.159
60806W        W24750  19.665  12.830   3.866
60807W        W24751  39.480  15.245  11.121
60808W        W24752  44.483  11.169   3.280
60809W        W24753   9.749   6.193   4.306
60810W        W24754  25.112  17.161  11.528
60811W        W24755   6.847  20.676  13.794
60812W        W24756  37.551  27.053   3.319
60813W        W24757   8.247  30.070   1.779
60814W        W24758  41.992   6.828  11.565
60815W        W24759  31.034  33.090  11.916
60816W        W24760   7.400  27.096   1.284
60817W        W24761  28.981   1.873   2.207
60818W        W24762  38.968  11.807   2.263
60819W        W24763  34.417  36.927   3.296
60820W        W24764  28.092  18.744  10.986
60821W        W24765   3.396  21.542  14.800
60822W        W24766   7.375  17.557  14.481
60823W        W24767  44.454  44.000  12.842
60824W        W24768  14.811  37.437   4.179
60825W        W24769  18.246  11.174   1.261
60826W        W24770  35.979   2.445  12.418
60827W        W24771   4.797  40.487  14.860
60828W        W24772   3.950  19.742  10.947
60829W        W24773  24.570   6.710   3.735
60830W        W24774  44.763  34.485   1.340
60831W        W24775  12.358   8.846  13.860
60832W        W24776  16.634   4.806  10.555
60833W        W24777  35.048  39.449  13.867
60834W        W24778  27.536  41.983   3.179
60835W        W24779  29.017  25.078  12.894
60836W        W24780   3.754  28.548  13.542
60837W        W24781  34.953   6.328  10.109
60838W        W24782  10.339   8.241   1.242
60839W        W24783  12.707  20.030   2.233
60840W        W24784  28.112  29.560  12.485
60841W        W24785  16.610   3.367   4.720
60842W        W24786  18.787  15.257   2.677
60843W        W24787  42.461  11.297   0.799
60844W        W24788  44.826  43.985  14.904
60845W        W24789  11.148  11.725   1.753
60846W        W24790   6.236  42.397  12.861
60847W        W24791  27.957   5.313  12.949
60848W        W24792  17.160   7.353   4.754
60849W        W24793  43.897   4.382   1.894
60850W        W24794  33.890  30.004   4.325
60851W        W24795  21.250  25.489  11.020
60852W        W24796  28.093   3.939   2.400
60853W        W24797  21.060   9.783   0.289
60854W        W24798  24.118  37.447  11.423
60855W        W24799  36.567  23.681  12.414
60856W        W24800   8.658  11.145  14.291
60857W        W24801  14.149  19.099   2.857
60858W        W24802   3.449  33.026   0.875
60859W        W24803   0.324  44.808  14.767
60860W        W24804  11.334  13.709  10.618
60861W        W24805  34.417   8.190   2.693
60862W        W24806  41.422  29.522   1.267
60863W        W24807  20.686  16.269  11.446
60864W        W24808  35.006  40.308  11.570
60865W        W24809  14.111  42.898   4.293
60866W        W24810   9.216   7.760  12.374
60867W        W24811  16.764  14.627  11.504
60868W        W24812  41.459  24.017   0.464
60869W        W24813  21.068  27.959   5.298
60870W        W24814  18.630  25.145  13.525
60871W        W24815  39.033  24.185  12.958
60872W        W24816   8.804  28.614   3.291
60873W        W24817   3.367  11.726   5.136
60874W        W24818  25.478   7.699  12.540
60875W        W24819  12.308  25.585  14.032
60876W        W24820  12.140  34.387  11.936
60877W        W24821  16.243  31.580  13.909
60878W        W24822   5.888  29.945   9.953
60879W        W24823   7.750  19.059   2.192
60880W        W24824  20.030   6.292   4.692
60881W        W24825  33.974  21.171   4.773
60882W        W24826   7.683  39.812  14.389
60883W        W24827  34.996  31.504   4.631
60884W        W24828  26.626  38.974  14.851
60885W        W24829   6.330  17.763   1.376
60886W        W24830  10.366  23.155   2.394
60887W        W24831  35.384   6.371   4.216
60888W        W24832   9.203  39.936  14.278
60889W        W24833  25.012  18.766  11.073
60890W        W24834  16.291  39.053  12.925
60891W        W24835   3.316  24.702  14.888
60892W        W24836   5.290  32.000  10.552
60893W        W24837  31.920  40.934   0.945
60894W        W24838  35.452  31.431   4.352
60895W        W24839  12.795  30.151  10.471
60896W        W24840  23.083  32.929   4.282
60897W        W24841  39.468   8.766   3.278
60898W        W24842   7.371   8.888  11.996
60899W        W24843  35.062  21.578  10.970
60900W        W24844  43.365   5.198   2.372
60901W        W24845  21.036  18.724   1.287
60902W        W24846   4.773  36.078   3.783
60903W        W24847  10.782   9.792   4.714
60904W        W24848  37.061  15.775  13.527
60905W        W24849  27.057  17.148   1.319
60906W        W24850  19.662  24.481   9.947
60907W        W24851  35.856  29.603   4.295
60908W        W24852  19.203  22.249  11.054
60909W        W24853  16.144  16.804  13.027
60910W        W24854  39.898  21.709   4.622
60911W        W24855  31.067  38.048   1.862
60912W        W24856  43.324  17.113   0.830
60913W        W24857  43.959  12.804   4.172
60914W        W24858  20.177   2.472   3.717
60915W        W24859  16.793  19.082  11.918
60916W        W24860  23.539  29.606  11.395
60917W        W24861  27.603  22.100   2.256
60918W        W24862  22.552   9.197  11.096
60919W        W24863  16.110  23.561  11.426
60920W        W24864  16.204  13.345  13.978
60921W        W24865  34.382  24.595   1.903
60922W        W24866   0.803   1.957  12.553
60923W        W24867  14.095  20.029  12.391
60924W        W24868  28.604  30.653  11.995
60925W        W24869  16.164   4.370  13.490
60926W        W24870  17.225  39.891  12.428
60927W        W24871  32.538  18.739   3.712
60928W        W24872  34.511  28.641  13.942
60929W        W24873  20.087   8.878   1.354
60930W        W24874  43.781  30.520  11.526
60931W        W24875  17.572  10.190   0.927
60932W        W24876   7.366  18.557  12.902
60933W        W24877  20.733  33.624   3.288
60934W        W24878  43.479   2.880   0.276
60935W        W24879   6.721  42.801  13.903
60936W        W24880  13.330  35.871   1.211
60937W        W24881   2.777  25.550  12.922
60938W        W24882  37.073   3.224  10.546
60939W        W24883  37.393  13.794  13.464
60940W        W24884  34.511   0.800   4.649
60941W        W24885  41.966  35.983  11.906
60942W        W24886  29.597  22.018   0.349
60943W        W24887  12.164   2.310   4.760
60944W        W24888  37.965  42.848  12.832
60945W        W24889   7.254  29.665   5.750
60946W        W24890  28.612   0.325   1.897
60947W        W24891  12.202  24.152   2.283
60948W        W24892   7.882  40.858   3.809
60949W        W24893  30.045  25.667  14.018
60950W        W24894  25.686  39.999   4.137
60951W        W24895  44.806   8.402  14.496
60952W        W24896  38.474   9.227   1.829
60953W        W24897   1.945   9.662   1.891
60954W        W24898  12.669  18.213  12.028
60955W        W24899  35.603  42.814   1.752
60956W        W24900  30.001  11.655   1.402
60957W        W24901   1.408  38.957   0.819
60958W        W24902  19.079  25.508  10.001
60959W        W24903  22.514  28.652   3.787
60960W        W24904  34.868  30.926  12.922
60961W        W24905  27.973  19.077  11.463
60962W        W24906  29.932  35.009   0.935
60963W        W24907   8.761   8.321   1.339
60964W        W24908  29.049   4.403   1.863
60965W        W24909  16.111  17.131   0.399
60966W        W24910  41.824   9.870   0.877
60967W        W24911   5.341  17.703  12.054
60968W        W24912  22.203  21.666   1.836
60969W        W24913  36.926  24.606   0.923
60970W        W24914  39.059  31.128  11.555
60971W        W24915   9.322  43.903  14.025
60972W        W24916  37.927  26.064  13.914
60973W        W24917   6.243   7.739  11.373
60974W        W24918  31.624  11.809   0.327
60975W        W24919  41.499  22.231  14.784
60976W        W24920  17.088  32.948  13.794
60977W        W24921   8.706  29.445  13.841
60978W        W24922  15.219  27.554   1.354
60979W        W24923   8.237  24.575   0.765
60980W        W24924  41.528  35.035   3.779
60981W        W24925  14.750  32.588   0.460
60982W        W24926   1.759  40.046   0.254
60983W        W24927   4.830  43.314   2.330
60984W        W24928   6.793  25.083  11.384
60985W        W24929  35.551  17.106   3.170
60986W        W24930   0.313  34.411   1.751
60987W        W24931  10.261  21.245  14.342
60988W        W24932  42.851  18.757   0.820
60989W        W24933  25.150  22.625  11.864
60990W        W24934  38.361  29.026  10.411
60991W        W24935  25.689   4.826  11.900
60992W        W24936  10.650  41.877   1.246
60993W        W24937  20.201  21.565   1.796
60994W        W24938  29.047   6.281  11.861
60995W        W24939  12.765  33.919  10.058
60996W        W24940   9.180  14.149   4.236
60997W        W24941  17.770  40.894  11.532
60998W        W24942   9.849   5.724   0.273
60999W        W24943  42.384  25.633  13.010
61000W        W24944  18.079  24.048  11.983
61001W        W24945  37.367  37.531  11.073
61002W        W24946   0.443  10.260  13.798
61003W        W24947  11.667  11.774   1.272
61004W        W24948  24.122   5.315   4.700
61005W        W24949   3.380  39.385  11.474
61006W        W24950  42.935  19.121   1.296
61007W        W24951  14.680  12.645  10.405
61008W        W24952  24.591  38.017   2.391
61009W        W24953   7.711  14.604   4.789
61010W        W24954  23.051  34.998   4.638
61011W        W24955  15.327  33.381  11.530
61012W        W24956   3.429  17.075   5.122
61013W        W24957  40.352  20.126  10.525
61014W        W24958  34.391  25.058   4.286
61015W        W24959  20.542  42.019  11.547
61016W        W24960  38.997  27.157   3.377
61017W        W24961   3.341  21.259   4.767
61018W        W24962   2.865  13.739  12.012
61019W        W24963  28.947  40.424  12.580
61020W        W24964  42.954  15.662  13.854
61021W        W24965   9.809  42.822  11.877
61022W        W24966   9.794  39.490   2.788
61023W        W24967  18.262  38.870  10.534
61024W        W24968  40.965  42.503  11.569
61025W        W24969  19.165  36.962   4.630
61026W        W24970  21.563  26.468   2.750
61027W        W24971  19.628  44.865   0.341
61028W        W24972   7.273  28.005   5.264
61029W        W24973  14.775  32.615  11.893
61030W        W24974  35.465  42.817  13.337
61031W        W24975  22.153  43.987  10.991
61032W        W24976  18.631   5.927   3.204
61033W        W24977  16.149  44.860   0.882
61034W        W24978  37.433  15.792   0.820
61035W        W24979   6.321  39.423   2.690
61036W        W24980  16.765  41.000   3.248
61037W        W24981  41.295  15.115   0.884
61038W        W24982   0.758  39.315  10.628
61039W        W24983  24.540  16.195   2.246
61040W        W24984   0.830   7.299   2.681
61041W        W24985  23.694  23.570  11.519
61042W        W24986   9.856   8.385  14.760
61043W        W24987  14.285  34.380   2.720
61044W        W24988   4.231  14.791   2.879
61045W        W24989   9.836  21.601   0.880
61046W        W24990   5.728  19.642   3.657
61047W        W24991  25.998  20.263  12.993
61048W        W24992  38.338  40.424  13.028
61049W        W24993   3.316  15.310  13.490
61050W        W24994  38.015  28.091   2.672
61051W        W24995  31.613  28.567   0.730
61052W        W24996  40.429   6.401  13.422
61053W        W24997  28.532   7.341   3.335
61054W        W24998  23.574  32.457   0.934
61055W        W24999   3.226  17.107   4.790
61056W        W25000   0.379  24.616  12.390
61057W        W25001   5.930  16.770  12.906
61058W        W25002  42.493   1.340   4.726
61059W        W25003   1.793  22.179  12.436
61060W        W25004  35.359  20.171   4.341
61061W        W25005  17.167  21.255   0.888
61062W        W25006  21.201  40.004   1.901
61063W        W25007   5.432  29.169  11.948
61064W        W25008  32.625  18.656   2.738
61065W        W25009  20.591  29.095  10.478
61066W        W25010  19.121  34.571  11.432
61067W        W25011  15.248  26.608   3.258
61068W        W25012  24.121   3.896  13.336
61069W        W25013  24.533  33.402   0.903
61070W        W25014  22.040  17.686  12.474
61071W        W25015  10.381  25.704   4.678
61072W        W25016  26.955   8.342  11.943
61073W        W25017  19.729  33.574  11.374
61074W        W25018  13.343  43.339   3.656
61075W        W25019   2.854  41.417  14.444
61076W        W25020  24.989  17.703  10.622
61077W        W25021  37.354  10.271   1.311
61078W        W25022  12.823  38.417  14.471
61079W        W25023  39.406   0.298  14.875
61080W        W25024  33.574  25.676   2.733
61081W        W25025  20.659  26.179  11.565
61082W        W25026  14.172  23.049   0.883
61083W        W25027  41.922   1.279  10.929
61084W        W25028  26.635   4.422  10.485
61085W        W25029  31.462   6.222   1.836
61086W        W25030   1.373   9.325   1.884
61087W        W25031  27.604  38.563  13.415
61088W        W25032  17.081  14.309   3.357
61089W        W25033  17.654   9.769  12.037
61090W        W25034  31.038  25.161  12.023
61091W        W25035   2.302  39.528  11.468
61092W        W25036  24.617  32.930   4.831
61093W        W25037  28.519  18.659  11.984
61094W        W25038  34.439  42.807  10.645
61095W        W25039  26.509   0.923   3.345
61096W        W25040   3.932  17.228  10.585
61097W        W25041  25.086  27.605   4.677
61098W        W25042   9.170  20.651  14.000
61099W        W25043   9.680  20.102  10.645
61100W        W25044  17.110  28.946  11.515
61101W        W25045   3.384  15.606  13.968
61102W        W25046  24.094  29.156  12.002
61103W        W25047  44.791  38.060  10.525
61104W        W25048  14.673  30.653  10.622
61105W        W25049  20.265  28.627   1.808
61106W        W25050  38.370  38.048   2.688
61107W        W25051  42.902   0.903   2.373
61108W        W25052  30.558  34.392   2.685
61109W        W25053  33.129  14.795   2.755
61110W        W25054  38.867   8.787   9.944
61111W        W25055  40.915  34.547   4.248
61112W        W25056  23.076  17.132  12.474
61113W        W25057  36.986  19.721  14.336
61114W        W25058  15.788  24.629   4.822
61115W        W25059  41.903   5.851   2.243
61116W        W25060  28.008   3.233   5.108
61117W        W25061  25.014  29.623   1.244
61118W        W25062  40.349  38.938   1.910
61119W        W25063  39.414  26.032   0.482
61120W        W25064   0.358  24.650   1.422
61121W        W25065  21.234  43.931   0.381
61122W        W25066  14.241   2.924   0.841
61123W        W25067  23.688  28.112   1.218
61124W        W25068  16.729  37.833   1.808
61125W        W25069  21.169  27.997   3.383
61126W        W25070  28.046  34.387  12.930
61127W        W25071  24.991  24.018   4.156
61128W        W25072  27.523  33.017   1.433
61129W        W25073  30.129  36.353   4.166
61130W        W25074  32.482   8.321   4.153
61131W        W25075   2.287  42.894   1.302
61132W        W25076  40.992  24.032   4.714
61133W        W25077  43.494  15.269   1.700
61134W        W25078   0.403  23.549  14.450
61135W        W25079   8.732  41.802   2.837
61136W        W25080  10.231   7.382  11.087
61137W        W25081  24.198  12.807  14.502
61138W        W25082  16.572  25.642   2.274
61139W        W25083  27.634  20.578   2.355
61140W        W25084  11.144  25.059  12.426
61141W        W25085  23.167  16.702   4.290
61142W        W25086  34.895  37.438  14.994
61143W        W25087  40.321  44.764  11.916
61144W        W25088  25.712  40.979   4.680
61145W        W25089  17.243  10.334   4.698
61146W        W25090  33.599   2.951   1.348
61147W        W25091  24.596  28.152   3.273
61148W        W25092  10.683  30.946   3.316
61149W        W25093   8.301  36.574  14.310
61150W        W25094  15.203  21.657  11.380
61151W        W25095  25.152   8.179  13.393
61152W        W25096  24.079   1.338  14.767
61153W        W25097  18.706  21.610  13.910
61154W        W25098  35.403   2.840   1.385
61155W        W25099  16.572  30.045  14.470
61156W        W25100  30.659  21.213  14.406
61157W        W25101  34.413  19.681  13.460
61158W        W25102  37.022  15.150  12.920
61159W        W25103   9.867  11.155   0.317
61160W        W25104  28.932  28.945  14.766
61161W        W25105  23.039  36.532   4.182
61162W        W25106  25.083   7.242   3.836
61163W        W25107  19.696   8.310  11.544
61164W        W25108  25.981   7.406  12.469
61165W        W25109  10.356  17.684  13.822
61166W        W25110  31.403  26.120  14.834
61167W        W25111  25.050  12.758  10.905
61168W        W25112  17.268  28.520  11.399
61169W        W25113  31.408  44.897  13.954
61170W        W25114  33.079  17.197  11.010
61171W        W25115  16.108  24.652  11.406
61172W        W25116  27.654  34.594  10.937
61173W        W25117  13.154   1.917  12.543
61174W        W25118   6.400  11.150  13.794
61175W        W25119  30.129   3.877  12.561
61176W        W25120  33.885  38.924  14.397
61177W        W25121   9.872  37.964  11.020
61178W        W25122   9.279  35.567  14.286
61179W        W25123  12.343   5.194   0.814
61180W        W25124   9.354   4.837   3.173
61181W        W25125  26.497  14.762  13.979
61182W        W25126  38.841   8.332  10.487
61183W        W25127  37.890  12.733   3.769
61184W        W25128  30.495  12.613   2.230
61185W        W25129  22.539   3.796  14.335
61186W        W25130  28.590  37.885   4.266
61187W        W25131  14.724   9.301   1.358
61188W        W25132  40.430  44.783   3.815
61189W        W25133  23.522  42.906   2.201
61190W        W25134  20.600  19.681   2.382
61191W        W25135  17.791  43.289  12.841
61192W        W25136  41.536  13.735   4.664
61193W        W25137  25.580  24.686  12.045
61194W        W25138  29.920   8.744   4.726
61195W        W25139  21.254  33.565  13.389
61196W        W25140  15.579  23.718  14.789
61197W        W25141  14.211  26.069  14.997
61198W        W25142  22.534  31.402  14.868
61199W        W25143   0.953  39.930   3.164
61200W        W25144  23.706   6.397  13.844
61201W        W25145   6.205  44.794  11.597
61202W        W25146  31.956  19.205  13.530
61203W        W25147  29.526  25.967   2.812
61204W        W25148  42.463  20.076  14.512
61205W        W25149  26.973  22.675  10.034
61206W        W25150  43.342  39.463  14.367
61207W        W25151  19.599  20.706  13.978
61208W        W25152  36.072  44.905  14.383
61209W        W25153  22.537  41.352   1.248
61210W        W25154   3.848  15.322   0.252
61211W        W25155   0.900  25.570  11.552
61212W        W25156   5.765  12.722   3.734
61213W        W25157  16.117  15.730  11.879
61214W        W25158  35.016  18.186  14.847
61215W        W25159   7.271  44.946  10.487
61216W        W25160   4.309  12.727  12.857
61217W        W25161  25.700  20.689  14.330
61218W        W25162   9.659  32.619  12.071
61219W        W25163  38.331  22.062  11.440
61220W        W25164  35.514  33.122   0.842
61221W        W25165   9.356  39.811  12.077
61222W        W25166  34.035  35.058  14.334
61223W        W25167   3.800  32.987  11.116
61224W        W25168  39.829   9.848  11.054
61225W        W25169  34.993  34.887   4.643
61226W        W25170   2.796  43.934  14.991
61227W        W25171  37.530  26.480  14.378
61228W        W25172  43.014  18.573  14.392
61229W        W25173  38.563   5.714   2.306
61230W        W25174   9.363  30.460  12.551
61231W        W25175  40.442  26.188   3.196
61232W        W25176  21.736   4.254   1.716
61233W        W25177  11.151  27.463   2.340
61234W        W25178   3.266  22.037  13.969
61235W        W25179  14.194  40.542   1.882
61236W        W25180  16.670  12.614  11.014
61237W        W25181  22.554  11.362  14.376
61238W        W25182  29.095  21.173  13.372
61239W        W25183  28.145  18.169  14.484
61240W        W25184  22.686   8.699   4.226
61241W        W25185  12.244  23.706  13.492
61242W        W25186  30.644  41.305  10.625
61243W        W25187   1.876  19.172   2.876
61244W        W25188  22.220   4.776   0.476
61245W        W25189  24.585   0.782  14.963
61246W        W25190  37.401  25.483  10.950
61247W        W25191  29.488  22.211  11.983
61248W        W25192   4.771  12.221   0.922
61249W        W25193  38.558  28.640  11.563
61250W        W25194  33.125   4.857  12.016
61251W        W25195  24.708  16.578  14.986
61252W        W25196  41.855  23.009  13.886
61253W        W25197  31.067  20.120  11.585
61254W        W25198   4.270  23.666  14.970
61255W        W25199  21.192  32.036  10.575
61256W        W25200  44.999  42.984  11.540
61257W        W25201  34.573  41.854  12.071
61258W        W25202  43.335  42.888  14.400
61259W        W25203  32.941  17.760   2.868
61260W        W25204  41.043  15.117  11.951
61261W        W25205  42.006  17.676  12.922
61262W        W25206  19.141  16.593   4.652
61263W        W25207   7.717   4.938  11.928
61264W        W25208  12.642  11.730  14.311
61265W        W25209  20.068  27.553   3.359
61266W        W25210   2.315   7.899   0.754
61267W        W25211  21.105  42.431   2.325
61268W        W25212  34.111  12.613  10.408
61269W        W25213   2.897   5.855  14.905
61270W        W25214  13.215  39.936  12.500
61271W        W25215  25.024   6.192   0.802
61272W        W25216  33.414  17.163  12.848
61273W        W25217   7.704  27.459   2.287
61274W        W25218   4.771  36.500  14.818
61275W        W25219  22.704   9.827  10.967
61276W        W25220  17.155   9.178  11.875
61277W        W25221  30.009  31.495   2.345
61278W        W25222  22.660  41.497  14.375
61279W        W25223  10.872  42.878  14.852
61280W        W25224  38.910  37.570   1.876
61281W        W25225  28.983  24.500   3.671
61282W        W25226  38.985   0.282   1.762
61283W        W25227  41.312   1.303  10.481
61284W        W25228  17.801  20.048   3.667
61285W        W25229  38.853  19.194   2.665
61286W        W25230  17.167  18.591   2.883
61287W        W25231  16.610  40.351  11.909
61288W        W25232  11.779  33.896  10.613
61289W        W25233  27.032  11.362   0.355
61290W        W25234  18.681  33.483  12.946
61291W        W25235   4.398  41.836  12.997
61292W        W25236  37.498  28.110   3.199
61293W        W25237  18.228  30.099  11.007
61294W        W25238  21.703  31.624   0.399
61295W        W25239  37.526  22.090  13.858
61296W        W25240  28.111  38.383   5.266
61297W        W25241  36.487  15.158  10.485
61298W        W25242   8.901  29.554   2.376
61299W        W25243  24.677  30.582   4.127
61300W        W25244  18.590   1.252   3.208
61301W        W25245  40.012  44.920   3.174
61302W        W25246  35.440   9.313  14.321
61303W        W25247  40.521  17.149  13.505
61304W        W25248   0.468  20.087  14.958
61305W        W25249  10.185  27.605   4.262
61306W        W25250  12.179   8.348   1.857
61307W        W25251  44.316  38.867  12.377
61308W        W25252   9.168  21.076  14.850
61309W        W25253  29.590   2.802   1.872
61310W        W25254  39.960  37.887  14.858
61311W        W25255  30.061  25.000  10.921
61312W        W25256  31.137  41.822   1.777
61313W        W25257  17.724  24.700   3.228
61314W        W25258  27.016   5.845   0.463
61315W        W25259  27.690  34.431  13.358
61316W        W25260   1.432  21.523  13.899
61317W        W25261   0.840  11.663  10.454
61318W        W25262  40.433  25.975   0.780
61319W        W25263  11.690   6.752   3.174
61320W        W25264  16.145  21.155   2.663
61321W        W25265  16.139  14.235   2.225
61322W        W25266   1.256  41.308   3.329
61323W        W25267  12.673  28.526  12.058
61324W        W25268  15.740  14.114  12.044
61325W        W25269  13.240  27.064  13.307
61326W        W25270  11.794  14.790  12.016
61327W        W25271  37.461  14.719   3.175
61328W        W25272  32.397  23.632  11.862
61329W        W25273  15.748   2.773  12.024
61330W        W25274  36.992  15.637  12.381
61331W        W25275  21.074   4.909   0.274
61332W        W25276  21.205  40.409  13.398
61333W        W25277   6.721  44.928  14.382
61334W        W25278   5.891   4.706  11.439
61335W        W25279  44.292  15.655   9.943
61336W        W25280   8.700  20.215   2.872
61337W        W25281   0.318  38.562   3.341
61338W        W25282  15.788  30.534   2.850
61339W        W25283  38.556  38.882  13.859
61340W        W25284  18.181   6.414   3.690
61341W        W25285  38.007  32.924   2.800
61342W        W25286  11.341  26.961  11.120
61343W        W25287  11.259   9.836  11.500
61344W        W25288  33.935  17.157   4.192
61345W        W25289  37.037   5.802   4.269
61346W        W25290  30.050  32.438  12.433
61347W        W25291  20.176  19.042  13.354
61348W        W25292  30.416   1.258  11.495
61349W        W25293  11.212   6.288   2.235
61350W        W25294  35.925  34.905   3.789
61351W        W25295   9.799  26.015  11.911
61352W        W25296  17.274  18.603   1.266
61353W        W25297   0.357  29.104  14.006
61354W        W25298   9.716  38.822   4.652
61355W        W25299  35.502  22.117  11.021
61356W        W25300  34.614   4.725   4.625
61357W        W25301  12.772  26.194   3.176
61358W        W25302  35.090  12.219   0.454
61359W        W25303  22.057  25.110  13.949
61360W        W25304   1.826  30.621  13.060
61361W        W25305  19.687   9.807   1.796
61362W        W25306  22.192  24.048   4.268
61363W        W25307  32.036  37.530  12.566
61364W        W25308  34.611  22.542  14.761
61365W        W25309  10.305  37.432  10.108
61366W        W25310   3.852  42.520   4.837
61367W        W25311  39.060  18.767   0.917
61368W        W25312  17.287   6.231   5.792
61369W        W25313  24.534  31.012   3.165
61370W        W25314  37.361   1.767  11.096
61371W        W25315  17.140  42.339   2.324
61372W        W25316  26.610  22.505  12.440
61373W        W25317  39.984  38.048  12.919
61374W        W25318   5.240  11.855  11.488
61375W        W25319   6.736  36.543  13.317
61376W        W25320  35.417   4.348   4.148
61377W        W25321  28.527  43.484  11.060
61378W        W25322  12.719  21.662   0.902
61379W        W25323   1.330   7.414   1.932
61380W        W25324  21.567  24.175  13.041
61381W        W25325  17.275  25.207  13.064
61382W        W25326  30.513  31.154  13.962
61383W        W25327  20.545  29.640   2.213
61384W        W25328   5.413  11.770   0.822
61385W        W25329   0.353  17.791   0.482
61386W        W25330  42.386   9.383  11.515
61387W        W25331   1.298  41.788   2.416
61388W        W25332  19.747   3.913   1.820
61389W        W25333  23.002  17.741  14.883
61390W        W25334   2.348   1.930  14.408
61391W        W25335  31.490  42.355   4.702
61392W        W25336  13.753  15.759   3.224
61393W        W25337  18.056  32.577   4.116
61394W        W25338  25.547  31.411  14.780
61395W        W25339  23.716  35.911   4.609
61396W        W25340  30.023  20.587   3.349
61397W        W25341  16.115  43.462  10.612
61398W        W25342  13.107  44.778   2.364
61399W        W25343   9.725   4.858  12.885
61400W        W25344  20.160  39.057  11.559
61401W        W25345  11.832  37.836  11.469
61402W        W25346  24.055   0.761   0.274
61403W        W25347  38.569  20.745  13.852
61404W        W25348   7.389  12.353  14.458
61405W        W25349  15.225  24.498   5.618
61406W        W25350  32.137  11.363   4.175
61407W        W25351   1.826   0.482   4.724
61408W        W25352  33.517  13.814   0.396
61409W        W25353   6.347   8.323  13.836
61410W        W25354  40.004  39.449   2.731
61411W        W25355  33.104  22.541  12.487
61412W        W25356  42.909  34.514   2.324
61413W        W25357  26.086  36.427   4.327
61414W        W25358   9.810  12.833  11.392
61415W        W25359  36.380  34.473  11.980
61416W        W25360  27.100  10.276   2.395
61417W        W25361  15.667   0.327  13.352
61418W        W25362   4.897  27.161   4.661
61419W        W25363  25.215  28.986   4.208
61420W        W25364   1.861  28.999   3.731
61421W        W25365   3.871  42.325   3.174
61422W        W25366   2.454  14.127  10.936
61423W        W25367  16.619  24.530   3.226
61424W        W25368  21.748  43.931  12.531
61425W        W25369   0.817  10.849   1.442
61426W        W25370  34.035  33.934  10.512
61427W        W25371  11.853  36.577  12.365
61428W        W25372  24.107  10.715  10.982
61429W        W25373  19.092  16.789  10.583
61430W        W25374   1.471  18.227  11.484
61431W        W25375  33.606  40.448  10.627
61432W        W25376  35.967  15.640  10.966
61433W        W25377   5.857  41.968  11.567
61434W        W25378  17.581  18.109   0.815
61435W        W25379  22.064   4.312  10.609
61436W        W25380  29.954  39.379  11.070
61437W        W25381  32.558  42.332  13.498
61438W        W25382  10.201  35.956  11.035
61439W        W25383   8.814   5.239   1.708
61440W        W25384  40.472  20.544  11.079
61441W        W25385  39.473   0.370   0.726
61442W        W25386  27.190  18.083  12.982
61443W        W25387   3.950  23.643  10.894
61444W        W25388  35.474  33.992  14.491
61445W        W25389  22.104  10.730  11.058
61446W        W25390  13.697   3.371   4.224
61447W        W25391  13.124  33.519   1.715
61448W        W25392   7.890  23.504   0.735
61449W        W25393  41.886   8.870   5.147
61450W        W25394   5.202  37.980  12.424
61451W        W25395   7.347   8.865   1.906
61452W        W25396  23.672  35.584   1.870
61453W        W25397   1.321   5.810  11.884
61454W        W25398  24.014  14.692  13.920
61455W        W25399  19.610  12.783   1.337
61456W        W25400   8.388  28.566  12.988
61457W        W25401   8.665   9.222  12.345
61458W        W25402  43.970  22.240   3.755
61459W        W25403   7.416  15.229   4.323
61460W        W25404  40.965  40.052  12.433
61461W        W25405  34.593  18.558   0.383
61462W        W25406  35.597  19.158   0.730
61463W        W25407  18.169   4.279  11.875
61464W        W25408  18.680  27.978   4.176
61465W        W25409  26.073  19.207  11.382
61466W        W25410  14.819  10.708  12.004
61467W        W25411  44.307  28.573   4.630
61468W        W25412  29.508  37.446   0.385
61469W        W25413  42.514   0.291   0.876
61470W        W25414   0.399  35.398  13.963
61471W        W25415  24.559  11.861   1.715
61472W        W25416  12.344  36.426   4.270
61473W        W25417  38.418  33.415  12.430
61474W        W25418   6.723   9.195   0.890
61475W        W25419  25.625  36.885   4.836
61476W        W25420  22.693   6.400   1.269
61477W        W25421  36.927   1.775  11.438
61478W        W25422  42.287   4.339  13.332
61479W        W25423  30.638  24.680   1.697
61480W        W25424  36.012  13.197  14.480
61481W        W25425   6.723  12.840   2.367
61482W        W25426  18.193  31.035  13.931
61483W        W25427  13.166  44.445   4.332
61484W        W25428  30.154  22.232   1.854
61485W        W25429  38.888  29.945  14.886
61486W        W25430  40.319  26.108   1.750
61487W        W25431   2.907  31.934   3.257
61488W        W25432   0.362  41.008   1.374
61489W        W25433  32.033   8.338  11.558
61490W        W25434   2.330  44.386   2.673
61491W        W25435  14.749  28.583   1.706
61492W        W25436  23.579  44.814   3.720
61493W        W25437   2.890   8.777  13.463
61494W        W25438   0.881  32.026  12.464
61495W        W25439   4.318   3.254   4.181
61496W        W25440   9.829  34.899   4.169
61497W        W25441  32.501   3.398  10.566
61498W        W25442  10.320  20.272   2.838
61499W        W25443   1.880  22.500   1.217
61500W        W25444  30.476   4.306   0.326
61501W        W25445  13.660  11.749  12.076
61502W        W25446   8.755   1.790   4.199
61503W        W25447  13.838  30.492  13.462
61504W        W25448  38.879  33.449   5.227
61505W        W25449   7.202   4.431  13.012
61506W        W25450  35.071   5.796  13.396
61507W        W25451  37.935   7.347  11.014
61508W        W25452   5.892  26.530  12.906
61509W        W25453  22.051  37.452   2.233
61510W        W25454  43.453  28.157  14.903
61511W        W25455  13.148  21.656  11.089
61512W        W25456   3.369  14.228  14.516
61513W        W25457   6.869   5.364  14.836
61514W        W25458  22.518   9.324  10.482
61515W        W25459  18.780  44.915   0.921
61516W        W25460  36.589  42.831   5.269
61517W        W25461  43.414   0.485  10.581
61518W        W25462  18.107  36.398   3.839
61519W        W25463   8.762   4.296  12.976
61520W        W25464  27.479  37.010   3.181
61521W        W25465  31.492   4.266   3.302
61522W        W25466   5.927  22.158  11.910
61523W        W25467  30.120  24.551  12.517
61524W        W25468  38.074  40.452   4.134
61525W        W25469  18.590   0.343  13.539
61526W        W25470   9.651  41.440   1.786
61527W        W25471   0.905   9.369  11.054
61528W        W25472   5.747  16.671  13.892
61529W        W25473  20.042  28.554  11.584
61530W        W25474   0.891   0.811   3.157
61531W        W25475  39.964  35.104   2.246
61532W        W25476   4.367  34.459   1.349
61533W        W25477  39.012  17.236   4.257
61534W        W25478  41.938  43.796   0.465
61535W        W25479  10.690  43.850  13.864
61536W        W25480   9.842   0.839   4.227
61537W        W25481   6.755  23.575  13.925
61538W        W25482   0.339  37.423   2.397
61539W        W25483  33.978   6.806   4.218
61540W        W25484  32.008  25.095   0.915
61541W        W25485  24.155  33.898  11.392
61542W        W25486   0.404   4.744   3.755
61543W        W25487  13.622  30.935   1.699
61544W        W25488   6.745  39.056  14.375
61545W        W25489  27.113  23.703   5.213
61546W        W25490   2.362  44.459  14.786
61547W        W25491  36.350   6.867  12.833
61548W        W25492   5.893  16.169  13.385
61549W        W25493  38.516  16.303  10.955
61550W        W25494  20.090  27.449  12.043
61551W        W25495   5.932  31.024   0.477
61552W        W25496  39.545  44.906  10.927
61553W        W25497   0.422  16.098  12.829
61554W        W25498  34.464  28.174   4.722
61555W        W25499   7.302   5.918   3.664
61556W        W25500  37.481   7.671   4.169
61557W        W25501   7.673  27.581   4.200
61558W        W25502  11.304  14.227   1.929
61559W        W25503   9.160  27.033  10.560
61560W        W25504  19.761   8.691   0.309
61561W        W25505  40.483   9.771  11.928
61562W        W25506  36.520   9.205   0.337
61563W        W25507  12.295  14.590  12.371
61564W        W25508   4.251  11.774  12.888
61565W        W25509  13.782  26.135   3.372
61566W        W25510   5.932  33.463  14.860
61567W        W25511  42.867   9.731  12.077
61568W        W25512  13.814  28.092   3.290
61569W        W25513  24.096  28.174   4.258
61570W        W25514  10.790   5.383  14.344
61571W        W25515  19.279  26.208  12.411
61572W        W25516  18.580   8.348  13.916
61573W        W25517  32.470  29.489   2.763
61574W        W25518  14.220  10.735   1.935
61575W        W25519  14.668  26.077   4.742
61576W        W25520   5.806  27.572  10.413
61577W        W25521   1.282  10.705  11.958
61578W        W25522  33.522  16.096  12.084
61579W        W25523  14.158  37.859   4.203
61580W        W25524   8.808   0.760   4.800
61581W        W25525  41.414  32.922  11.567
61582W        W25526  15.267  29.578   0.269
61583W        W25527  42.912   9.177  11.057
61584W        W25528  35.484  28.148  14.500
61585W        W25529  21.225  38.327   0.394
61586W        W25530   5.220  19.552   0.738
61587W        W25531  21.575  29.601   3.261
61588W        W25532  31.135   8.400  13.338
61589W        W25533   5.325   3.245   0.738
61590W        W25534  25.200  39.894  12.866
61591W        W25535   8.659  12.120  12.042
61592W        W25536   0.414  10.739   1.311
61593W        W25537  16.218  40.364   4.827
61594W        W25538  16.304  44.287  13.528
61595W        W25539  16.658  38.553  11.476
61596W        W25540  33.620  16.126  10.128
61597W        W25541   1.974  19.542   3.372
61598W        W25542  43.842  40.032  10.971
61599W        W25543   7.774   0.918  12.912
61600W        W25544  11.359   3.443  10.057
61601W        W25545   3.911  18.709   3.232
61602W        W25546  41.391  11.363  14.399
61603W        W25547  19.121   1.912  12.534
61604W        W25548  20.739  43.992  13.839
61605W        W25549  20.567  24.572  14.411
61606W        W25550  10.253  31.051   3.637
61607W        W25551  29.974  11.649  13.483
61608W        W25552  30.561  37.546  13.320
61609W        W25553  43.511   3.243   0.877
61610W        W25554  15.109   7.699   5.768
61611W        W25555  31.995  19.764  12.546
61612W        W25556  44.441   3.232   1.800
61613W        W25557  15.700   1.466   4.755
61614W        W25558   8.803  43.457  10.970
61615W        W25559  39.004  21.120  11.409
61616W        W25560  25.969  10.784   1.909
61617W        W25561  11.131  14.624   2.753
61618W        W25562  27.112  20.621  10.617
61619W        W25563   3.249   7.413  12.966
61620W        W25564  17.639  22.563   2.822
61621W        W25565  12.678  26.170  12.572
61622W        W25566  32.576  28.459   4.220
61623W        W25567  44.895  27.128  10.905
61624W        W25568  10.805  21.173   4.222
61625W        W25569  37.486  44.938  12.080
61626W        W25570  26.538  13.158   4.223
61627W        W25571  42.819  15.103   3.642
61628W        W25572  41.531  15.217  10.912
61629W        W25573  41.019  38.026  10.616
61630W        W25574  19.698  29.124   3.345
61631W        W25575  40.520  34.960   1.259
61632W        W25576  22.218  29.098   0.355
61633W        W25577  27.672  38.546   1.860
61634W        W25578  19.594  32.037  14.417
61635W        W25579  33.876  21.078  11.923
61636W        W25580  25.605   5.272   3.334
61637W        W25581  30.635  21.660   3.153
61638W        W25582  16.591  30.127   1.717
61639W        W25583  40.427  30.525   1.340
61640W        W25584  40.967  31.425   4.631
61641W        W25585  32.592  35.028   0.831
61642W        W25586  25.177  37.575  14.758
61643W        W25587  42.424  12.230  12.474
61644W        W25588  17.768  31.967   2.689
61645W        W25589   9.287  40.960   0.757
61646W        W25590  27.084  21.522   4.633
61647W        W25591  19.709  10.168  13.989
61648W        W25592  13.742  41.852   3.185
61649W        W25593  32.987  41.955   1.400
61650W        W25594   6.736   9.876  12.936
61651W        W25595   6.343   1.920  13.060
61652W        W25596   3.390  31.132  14.762
61653W        W25597   5.292  16.253  11.551
61654W        W25598  14.779  30.963  11.043
61655W        W25599  21.679  36.436   3.318
61656W        W25600  19.632  22.102  10.465
61657W        W25601  18.281  18.662  14.351
61658W        W25602  37.351  39.928  12.397
61659W        W25603  30.933  19.211   3.298
61660W        W25604  41.463  18.246  13.465
61661W        W25605  20.617   0.925  12.880
61662W        W25606   8.710  31.145   1.437
61663W        W25607  20.752  43.890  14.792
61664W        W25608  31.917   6.395   2.696
61665W        W25609  14.709  38.495  10.470
61666W        W25610  13.745  14.289  11.904
61667W        W25611  40.901   4.879  10.423
61668W        W25612  27.024  15.650  13.961
61669W        W25613  17.759  17.577  14.877
61670W        W25614  18.196  18.097  11.124
61671W        W25615  44.407  17.557   1.269
61672W        W25616   6.311  17.657   5.290
61673W        W25617  32.510  12.752  13.883
61674W        W25618  37.546  31.898   0.252
61675W        W25619   2.468  15.820   4.634
61676W        W25620  22.635   2.843  14.761
61677W        W25621  36.551   8.788   2.214
61678W        W25622  24.093  10.755  14.476
61679W        W25623   0.347  23.098   1.283
61680W        W25624  21.061  28.128  13.410
61681W        W25625  40.439  30.653   2.794
61682W        W25626  22.523   1.455  12.405
61683W        W25627  24.541  41.977   4.113
61684W        W25628   0.373  42.799  14.446
61685W        W25629  30.968  17.583   1.912
61686W        W25630  13.312  42.432   1.865
61687W        W25631  13.820  11.643   2.215
61688W        W25632  25.669  25.024  13.882
61689W        W25633  28.538  25.092  14.378
61690W        W25634  44.789   0.802  11.866
61691W        W25635  11.864  24.061  12.861
61692W        W25636  40.429  27.631  11.516
61693W        W25637  41.968   4.859  11.063
61694W        W25638   6.878  34.384  14.512
61695W        W25639  22.741  22.669   2.358
61696W        W25640   7.396  41.805  13.885
61697W        W25641  20.112  21.127  11.929
61698W        W25642  11.728  11.633  11.081
61699W        W25643  33.537   9.171   1.780
61700W        W25644  37.845  18.150  14.934
61701W        W25645  41.797  11.819   2.328
61702W        W25646  31.633   4.817   4.797
61703W        W25647  33.528   3.339  11.897
61704W        W25648  35.577  13.292   1.721
61705W        W25649  26.073  30.586   3.772
61706W        W25650  26.958  17.274   4.350
61707W        W25651  22.669  33.469   1.930
61708W        W25652  42.507   6.742  10.447
61709W        W25653  24.993  23.035   1.373
61710W        W25654  17.680  43.385  13.377
61711W        W25655  44.322  33.504   1.697
61712W        W25656   2.437   4.304  10.474
61713W        W25657  26.525  38.909   3.262
61714W        W25658   4.802  40.052  11.027
61715W        W25659  35.510  20.060   0.823
61716W        W25660  28.017   9.680   3.733
61717W        W25661  39.455   8.377   4.702
61718W        W25662  29.996  17.064  12.422
61719W        W25663  37.954  41.372  12.509
61720W        W25664  41.885  24.617  14.516
61721W        W25665  10.687  33.599   3.762
61722W        W25666  38.832  39.500  10.595
61723W        W25667  44.486   4.339  11.947
61724W        W25668   6.290  10.250   5.091
61725W        W25669   3.801  24.545   4.185
61726W        W25670  12.325  26.621  14.818
61727W        W25671  21.115  16.718  11.974
61728W        W25672  16.088  43.778   4.248
61729W        W25673  26.207  13.806   3.836
61730W        W25674  34.415   5.760  12.495
61731W        W25675  26.506  42.783  14.864
61732W        W25676  21.121  29.448   2.839
61733W        W25677   6.322  29.062  12.454
61734W        W25678  21.608  38.340  11.432
61735W        W25679  27.505  24.148   1.851
61736W        W25680  10.201  24.182  12.073
61737W        W25681  22.082  42.954   1.416
61738W        W25682  12.253  20.641  13.998
61739W        W25683  27.542  12.218  10.630
61740W        W25684  27.455  29.060  13.509
61741W        W25685  20.756  30.425  11.121
61742W        W25686  12.638   9.161  10.902
61743W        W25687  30.490  32.123  14.516
61744W        W25688   8.271  39.055  12.900
61745W        W25689   9.828  10.345  11.056
61746W        W25690  44.841   8.770  11.016
61747W        W25691  26.534  19.668  14.333
61748W        W25692  14.210  43.846  12.861
61749W        W25693  14.714  18.164  11.953
61750W        W25694  12.720  14.247   0.859
61751W        W25695   0.277   4.285  12.340
61752W        W25696  42.976   1.928  11.986
61753W        W25697  39.054  19.625   3.356
61754W        W25698   7.271  35.532   3.741
61755W        W25699   5.383   0.982   4.249
61756W        W25700  39.819   8.720  12.379
61757W        W25701  20.601  18.286   0.847
61758W        W25702  33.504  35.054   4.621
61759W        W25703  12.777  25.141   4.251
61760W        W25704  18.222  34.531  14.463
61761W        W25705  37.392   1.477   1.372
61762W        W25706  19.223  36.859  11.398
61763W        W25707  39.837   8.167   4.692
61764W        W25708  30.482  27.512  13.795
61765W        W25709  12.123   7.830   0.845
61766W        W25710  20.660  40.942  11.535
61767W        W25711  37.988  17.696   3.789
61768W        W25712  39.493  36.947  14.435
61769W        W25713  28.541  21.183   2.831
61770W        W25714  25.103  38.383   3.769
61771W        W25715   7.775  11.253  11.513
61772W        W25716  37.484  29.425   1.758
61773W        W25717  36.569  10.164  10.445
61774W        W25718  11.801  33.089   2.374
61775W        W25719  33.576  44.323   0.800
61776W        W25720  36.859  38.462   2.769
61777W        W25721   8.385  36.908   1.754
61778W        W25722  13.222   6.322   0.840
61779W        W25723  43.389  11.156   2.826
61780W        W25724  20.226   7.295   3.797
61781W        W25725  30.053  36.535   3.274
61782W        W25726  29.424  30.145   3.779
61783W        W25727  37.520  29.042  12.952
61784W        W25728  28.038   6.381  12.959
61785W        W25729   5.278  15.220   3.258
61786W        W25730  28.142  20.587  11.485
61787W        W25731  34.916  24.649   4.204
61788W        W25732   2.307  34.033   0.807
61789W        W25733  35.092  23.714  11.976
61790W        W25734  37.912  34.539  13.912
61791W        W25735   3.284  11.200   3.682
61792W        W25736  31.016   2.857  13.408
61793W        W25737  11.734  37.567   3.749
61794W        W25738   2.844  35.010   0.811
61795W        W25739   3.887  10.683   0.313
61796W        W25740  21.163   8.320   1.722
61797W        W25741  14.756   4.299   3.359
61798W        W25742  25.997   0.811   3.729
61799W        W25743  25.472   8.731   1.764
61800W        W25744  24.090  27.615  14.362
61801W        W25745  42.946  27.687  10.496
61802W        W25746  24.677  10.679   3.275
61803W        W25747  38.837  18.177   2.215
61804W        W25748   4.799  26.976   3.205
61805W        W25749  41.511  26.164   0.948
61806W        W25750   4.781  26.060  11.434
61807W        W25751  33.473  22.532  10.486
61808W        W25752   2.324  18.622   3.160
61809W        W25753  44.004  21.050   3.787
61810W        W25754  15.670  39.422   4.257
61811W        W25755  39.816  13.614  11.903
61812W        W25756  36.552   6.220  10.554
61813W        W25757  40.853  41.415   0.902
61814W        W25758  19.283  10.672  10.534
61815W        W25759  34.054  16.256  13.908
61816W        W25760  29.157  28.510   4.296
61817W        W25761  24.156  19.281  13.957
61818W        W25762  40.376  23.690   4.174
61819W        W25763  20.143  33.009   4.830
61820W        W25764  10.763  23.610   1.212
61821W        W25765  37.437  41.359  11.029
61822W        W25766  35.561  23.594  14.501
61823W        W25767  30.551  39.479  13.813
61824W        W25768  28.134  32.957  12.565
61825W        W25769  30.099  13.276  11.946
61826W        W25770   9.734  37.490  14.781
61827W        W25771  29.025  24.596   1.877
61828W        W25772  26.162  11.664  12.400
61829W        W25773  36.945  28.999  10.994
61830W        W25774  39.878  33.482  10.411
61831W        W25775  21.750  33.982  14.367
61832W        W25776  26.665  16.191   1.423
61833W        W25777   0.958   4.738   0.861
61834W        W25778   1.391  43.409  12.862
61835W        W25779  35.049  12.636   4.322
61836W        W25780  17.569  41.791   0.311
61837W        W25781  20.080  29.118   5.216
61838W        W25782  27.073  25.569   3.271
61839W        W25783  38.996  42.030  12.926
61840W        W25784   7.396   3.449  13.498
61841W        W25785  26.991  43.925   3.236
61842W        W25786  33.092  44.913   0.904
61843W        W25787  33.128  28.186  14.858
61844W        W25788  37.917  36.359   1.315
61845W        W25789  44.796  37.516  14.386
61846W        W25790  12.355  18.731   3.200
61847W        W25791   7.174  13.215  10.545
61848W        W25792  21.755   6.378  10.913
61849W        W25793  26.067  20.231   1.301
61850W        W25794  38.874  12.842   3.775
61851W        W25795   2.720   0.261   4.665
61852W        W25796  21.099  27.500  14.502
61853W        W25797  23.171   9.206   1.704
61854W        W25798   7.189  39.809  14.288
61855W        W25799  17.118  12.747  13.916
61856W        W25800  26.576  27.968  11.382
61857W        W25801   1.878  14.716   1.249
61858W        W25802  37.511  25.040   0.358
61859W        W25803   8.239  41.014   4.654
61860W        W25804  14.275  25.634  12.381
61861W        W25805  19.276  24.062   1.407
61862W        W25806  23.130  22.185  10.640
61863W        W25807  28.000  19.075   1.262
61864W        W25808   4.795  14.153  12.348
61865W        W25809  29.455  16.591   2.243
61866W        W25810  17.770  37.425  10.559
61867W        W25811  35.372   8.689   3.343
61868W        W25812  41.384  27.551  14.924
61869W        W25813   8.659  36.930  14.352
61870W        W25814  38.393  22.616  10.532
61871W        W25815   4.721   6.887  13.329
61872W        W25816  15.095  29.644   3.346
61873W        W25817   1.264  22.220   4.166
61874W        W25818  29.997  40.797  11.906
61875W        W25819   3.301  22.514  12.372
61876W        W25820  25.701  12.133   2.744
61877W        W25821  31.144  24.663   2.320
61878W        W25822  17.137  29.003  12.868
61879W        W25823  20.566   2.861   0.387
61880W        W25824  27.448   3.374  13.983
61881W        W25825  40.974  16.758   3.208
61882W        W25826  31.558  31.069   3.768
61883W        W25827  17.162  40.366   3.800
61884W        W25828   2.823  20.070  14.486
61885W        W25829  35.585  30.916  14.401
61886W        W25830  42.512  40.993  14.474
61887W        W25831  10.283  17.775  11.487
61888W        W25832  43.921   0.909   0.348
61889W        W25833  23.684  44.812   2.679
61890W        W25834  28.099  34.373   2.704
61891W        W25835  35.854   4.827  14.822
61892W        W25836  25.140  12.255  10.481
61893W        W25837  36.065   2.388   0.963
61894W        W25838  26.163  38.928  14.932
61895W        W25839  22.737   3.759   1.887
61896W        W25840  18.748  14.185   2.289
61897W        W25841   3.363  21.710   1.697
61898W        W25842  10.807  23.517  10.540
61899W        W25843  13.139   1.292  11.911
61900W        W25844  10.718  34.459  14.777
61901W        W25845  15.322  28.674  10.982
61902W        W25846  26.524   0.965  10.933
61903W        W25847  40.041  26.122  13.809
61904W        W25848  14.639  42.479  13.914
61905W        W25849  39.965   0.281  13.033
61906W        W25850   6.284  18.712   2.349
61907W        W25851  20.107  20.252   2.734
61908W        W25852  20.692   1.872   1.872
61909W        W25853  11.160  19.661   1.328
61910W        W25854  32.495  44.847   4.715
61911W        W25855  26.156   3.425   2.672
61912W        W25856  26.554  12.642   1.407
61913W        W25857  28.453  33.077   1.328
61914W        W25858  33.025  43.438   1.907
61915W        W25859  30.960  26.585   0.800
61916W        W25860  38.985  14.717   2.744
61917W        W25861  22.013  17.770  13.409
61918W        W25862  23.724  28.548   2.901
61919W        W25863  16.736  31.900   5.127
61920W        W25864  33.556  16.304   0.739
61921W        W25865   4.782  21.729   5.221
61922W        W25866  33.419  15.797   4.346
61923W        W25867  42.471  20.067  13.309
61924W        W25868  32.981  21.111  11.956
61925W        W25869  31.412  29.563   1.404
61926W        W25870  16.192  38.383  12.555
61927W        W25871  32.520  22.121  13.885
61928W        W25872  27.531  18.689   0.409
61929W        W25873  23.657   4.820   2.821
61930W        W25874  41.414   5.269  12.073
61931W        W25875  19.279  30.114  13.373
61932W        W25876   9.270   1.392  11.940
61933W        W25877  16.786  40.823  14.018
61934W        W25878   0.937  23.057   2.396
61935W        W25879   4.765   5.330  13.981
61936W        W25880  33.530   6.351   4.643
61937W        W25881   9.303  16.093   0.460
61938W        W25882  39.401  42.825  13.864
61939W        W25883  42.383  33.384  11.865
61940W        W25884  17.703   8.775   0.789
61941W        W25885  12.225   3.340   2.319
61942W        W25886  30.507  40.817  14.473
61943W        W25887   9.275  11.281  13.366
61944W        W25888   7.764  34.084  12.930
61945W        W25889  24.097  18.067   3.333
61946W        W25890  14.645  24.517  14.381
61947W        W25891  10.876  40.424   0.846
61948W        W25892  25.521  16.104   4.790
61949W        W25893  14.112  25.492  13.027
61950W        W25894  27.582  23.074  14.860
61951W        W25895   5.250   4.723   0.758
61952W        W25896   6.279  22.707   2.899
61953W        W25897   8.232  39.870   1.429
61954W        W25898  37.464  36.521   4.748
61955W        W25899   9.157   8.389   4.272
61956W        W25900  23.615   9.753   0.426
61957W        W25901  28.085   4.247   1.771
61958W        W25902  15.798  44.946   4.774
61959W        W25903   1.873   4.934   4.312
61960W        W25904  43.434  21.153  10.996
61961W        W25905  41.376  44.818   2.299
61962W        W25906  18.254   1.845  13.311
61963W        W25907  40.356   2.249   0.352
61964W        W25908  38.404  16.193   2.806
61965W        W25909  17.204   0.250   3.223
61966W        W25910  15.169   0.423   2.753
61967W        W25911  12.784  23.686   2.819
61968W        W25912   3.263  32.088   3.318
61969W        W25913  20.658  29.944   1.342
61970W        W25914   1.314  12.775  13.916
61971W        W25915  37.349  42.863  11.079
61972W        W25916   6.676  21.140  13.456
61973W        W25917  37.495  21.097   3.253
61974W        W25918  39.500  26.480   2.191
61975W        W25919  38.988  13.339  13.439
61976W        W25920   2.737  33.550  13.841
61977W        W25921  33.478  14.788  12.870
61978W        W25922   3.425  33.906  11.973
61979W        W25923  35.400  12.632   4.164
61980W        W25924  17.749  36.910   0.801
61981W        W25925  29.458  23.601  10.576
61982W        W25926  19.111  40.973  11.940
61983W        W25927  30.086   9.878  14.844
61984W        W25928  16.586  19.764  12.923
61985W        W25929  35.423  28.121   1.360
61986W        W25930   9.178  26.128  14.880
61987W        W25931  22.245  20.042  12.396
61988W        W25932   2.805  43.472   3.251
61989W        W25933  44.343  19.557   3.334
61990W        W25934  35.547  18.613   0.883
61991W        W25935  24.154  41.493   1.304
61992W        W25936   5.305  44.789   2.345
61993W        W25937  37.463  17.712   3.193
61994W        W25938  24.159  17.743   4.133
61995W        W25939  36.878  19.694   0.483
61996W        W25940   9.266  43.973  13.400
61997W        W25941  44.379  23.172  11.449
61998W        W25942  28.572  28.459  14.942
61999W        W25943  43.313  41.952   3.813
62000W        W25944  21.228   5.847  11.494
62001W        W25945   7.244   3.713  14.461
62002W        W25946  19.539  25.510   2.272
62003W        W25947  11.834  15.271   3.317
62004W        W25948  34.612  40.958   2.261
62005W        W25949  18.581  18.135  12.055
62006W        W25950  19.183  43.950   2.360
62007W        W25951  30.983  34.405   4.658
62008W        W25952  14.735  28.050   5.139
62009W        W25953  28.987  29.567  12.551
62010W        W25954  36.572  24.609   1.248
62011W        W25955   5.214  16.643  12.562
62012W        W25956  28.492  20.239   1.384
62013W        W25957  41.483  27.186  13.365
62014W        W25958  22.085  42.502  12.866
62015W        W25959   2.816  40.390  13.865
62016W        W25960  29.512  44.970  11.049
62017W        W25961   3.829  35.973  14.489
62018W        W25962  39.508  29.641  12.055
62019W        W25963  14.311  12.782  14.512
62020W        W25964  17.273  13.840   2.231
62021W        W25965   7.344  17.202   2.340
62022W        W25966  31.037  25.982  12.413
62023W        W25967  16.152   2.750  11.883
62024W        W25968  26.551  15.191  10.135
62025W        W25969  30.617  21.171  12.026
62026W        W25970  21.621  18.705  14.400
62027W        W25971  26.127  15.751  13.424
62028W        W25972   3.782  44.843   4.672
62029W        W25973  43.909  30.485   4.172
62030W        W25974  17.762  34.937  13.049
62031W        W25975  39.952  33.109  11.991
62032W        W25976   8.819  36.583   1.745
62033W        W25977  41.387  23.505  11.082
62034W        W25978  44.994   9.153  14.822
62035W        W25979   2.924  22.065   3.200
62036W        W25980  17.633   5.265   1.912
62037W        W25981  22.215   5.781   4.327
62038W        W25982  43.823  33.463   0.935
62039W        W25983   9.867   9.322   2.689
62040W        W25984  21.064   3.286   1.847
62041W        W25985   1.893  22.044  11.567
62042W        W25986   9.787   7.417  14.866
62043W        W25987  10.178  21.053  13.832
62044W        W25988   4.363  24.047  14.281
62045W        W25989  44.483  39.910   0.897
62046W        W25990  14.756  16.692   4.354
62047W        W25991  20.527  38.403   4.780
62048W        W25992  14.765  11.219   4.301
62049W        W25993  24.029  24.706  13.478
62050W        W25994  18.569  22.598   0.847
62051W        W25995  25.496  37.473  14.350
62052W        W25996   2.406  21.698   4.221
62053W        W25997  36.460  29.155   3.742
62054W        W25998  31.477  23.102  13.036
62055W        W25999  18.237  30.569  11.113
62056W        W26000  43.794  31.516   3.852
62057W        W26001  34.396   6.740  10.890
62058W        W26002  39.057   4.944  12.950
62059W        W26003  21.526  18.076   3.669
62060W        W26004  20.697  19.618   0.253
62061W        W26005   0.928  11.629   4.162
62062W        W26006   6.355  13.287   1.271
62063W        W26007  32.050  14.626  14.468
62064W        W26008  41.475  36.954   1.903
62065W        W26009  35.934  44.334   4.704
62066W        W26010  16.795  24.088  13.940
62067W        W26011  41.803  11.263  14.401
62068W        W26012  39.345  12.739   4.340
62069W        W26013  44.323  21.702  10.960
62070W        W26014  17.737  11.278  12.527
62071W        W26015  21.556  12.617   2.306
62072W        W26016  18.152   3.757  12.075
62073W        W26017  41.441  39.825  10.487
62074W        W26018  20.270  22.053   0.337
62075W        W26019  14.173  26.583   0.850
62076W        W26020  34.484  44.899   2.183
62077W        W26021  21.131  15.669   5.272
62078W        W26022  18.208  19.591  14.928
62079W        W26023  43.411   3.890   1.818
62080W        W26024  26.506  33.539  10.562
62081W        W26025  36.989  28.518   0.960
62082W        W26026   2.275  44.916  13.501
62083W        W26027  24.975  43.287   2.717
62084W        W26028   6.919  42.997  12.967
62085W        W26029  31.136   6.698  14.903
62086W        W26030  33.949  21.060  14.871
62087W        W26031  11.207  31.954   3.286
62088W        W26032  42.976  35.570  13.453
62089W        W26033  28.537  19.117   0.455
62090W        W26034  27.158  34.068  14.844
62091W        W26035  19.208  41.874  14.415
62092W        W26036  29.523  43.357   2.781
62093W        W26037  31.067   6.339   4.803
62094W        W26038   5.201  19.710   5.261
62095W        W26039  23.601  16.234   0.953
62096W        W26040   5.912  34.445  12.018
62097W        W26041   0.801  21.628   4.264
62098W        W26042  39.045  35.531  14.492
62099W        W26043  35.382  44.468   0.852
62100W        W26044   8.231   5.932  11.035
62101W        W26045  20.170  38.849  12.565
62102W        W26046  40.971  16.697  13.460
62103W        W26047  10.197   0.988  12.040
62104W        W26048  13.347  14.123   4.778
62105W        W26049  12.690  16.116   2.751
62106W        W26050  28.496  34.058   3.311
62107W        W26051  36.438  39.341  13.545
62108W        W26052   3.269  29.582  13.829
62109W        W26053  12.740   2.472   4.343
62110W        W26054  22.717  38.057   3.773
62111W        W26055  25.617  37.434   0.782
62112W        W26056  30.073   4.719   4.629
62113W        W26057  41.982  40.905  11.555
62114W        W26058   5.283  36.461   4.808
62115W        W26059   5.409   2.801   0.882
62116W        W26060  12.848  39.024  13.027
62117W        W26061   6.427  19.096   3.854
62118W        W26062  20.260  35.886  14.975
62119W        W26063  20.599  42.999  14.457
62120W        W26064  19.748  43.453   3.671
62121W        W26065  31.576   1.886  11.598
62122W        W26066   5.757   2.367  11.591
62123W        W26067  13.692  21.078   1.270
62124W        W26068  37.981  34.371  14.402
62125W        W26069   2.262  28.093   2.269
62126W        W26070  34.073  30.475  11.612
62127W        W26071  21.079  32.452   4.297
62128W        W26072  14.140  41.464   1.393
62129W        W26073  25.642  44.366  12.374
62130W        W26074  13.646  43.277   3.739
62131W        W26075  26.566  28.142   4.335
62132W        W26076  43.997  13.709   1.803
62133W        W26077  43.369  10.139  10.953
62134W        W26078  13.238  33.435   2.710
62135W        W26079   2.728  29.924   1.233
62136W        W26080   1.410  19.044   4.267
62137W        W26081  23.723  29.653   3.166
62138W        W26082   6.255  20.163  14.861
62139W        W26083   2.913  26.088   0.335
62140W        W26084  42.882   3.347  12.850
62141W        W26085  38.031  22.175  14.815
62142W        W26086   3.807  21.555   0.889
62143W        W26087  28.532  12.704  11.463
62144W        W26088  21.733  37.444  13.916
62145W        W26089   4.397  12.255   1.404
62146W        W26090  40.983  41.854  12.440
62147W        W26091  26.566  17.741  10.409
62148W        W26092  17.232  39.063  10.511
62149W        W26093   8.263  30.649   4.698
62150W        W26094  14.182  22.183   2.417
62151W        W26095  22.197  39.527  10.952
62152W        W26096   7.767   4.334   3.345
62153W        W26097  40.025  44.837   3.743
62154W        W26098   6.704  36.402   1.334
62155W        W26099  37.992   6.353   2.708
62156W        W26100  39.421  19.723   1.379
62157W        W26101   5.317  19.074   1.801
62158W        W26102  34.997  18.221  13.031
62159W        W26103  17.629  21.649   1.878
62160W        W26104  34.396  33.038  12.558
62161W        W26105  36.016  12.616  12.991
62162W        W26106  23.195   8.202   2.778
62163W        W26107  32.017  27.689  14.841
62164W        W26108  15.580   7.258   9.946
62165W        W26109   1.875  43.815  14.768
62166W        W26110  17.097  32.918  12.960
62167W        W26111  24.618  23.070  14.012
62168W        W26112  21.041  34.055  12.845
62169W        W26113  28.460  15.213  14.281
62170W        W26114   0.404  17.260  13.041
62171W        W26115   6.792  15.696  12.504
62172W        W26116  20.256  24.608  12.542
62173W        W26117   2.260  32.462  12.575
62174W        W26118  26.102  19.108  14.379
62175W        W26119  32.118  11.710   1.728
62176W        W26120  17.694   2.341  14.282
62177W        W26121  13.802  29.468  11.547
62178W        W26122  38.037  33.451   0.742
62179W        W26123  44.464  14.148  11.484
62180W        W26124  21.092  33.568  14.013
62181W        W26125   7.763  29.669  11.465
62182W        W26126  25.547   6.841  13.529
62183W        W26127  12.244  25.592   0.746
62184W        W26128  35.437  27.050  11.440
62185W        W26129   1.402  23.527   4.286
62186W        W26130  11.301  20.213  12.880
62187W        W26131   0.433  18.787  11.936
62188W        W26132  22.599  42.982  13.032
62189W        W26133  15.249  16.126  14.817
62190W        W26134  25.644  38.361  12.884
62191W        W26135  30.066  16.095   0.247
62192W        W26136  20.043   6.685   4.290
62193W        W26137   5.301   1.367   1.900
62194W        W26138  22.614  37.553   3.778
62195W        W26139  31.409  16.689  12.868
62196W        W26140  21.548  40.806  14.923
62197W        W26141  36.993  33.961  12.843
62198W        W26142  44.453  22.192  13.544
62199W        W26143  42.937  15.112   3.232
62200W        W26144   4.428  16.219   0.953
62201W        W26145  37.980   3.882  13.923
62202W        W26146  10.215   9.248   1.744
62203W        W26147   3.725  15.091   0.743
62204W        W26148  39.455  38.505   0.376
62205W        W26149  28.480  38.932   4.719
62206W        W26150   5.875  16.163  12.026
62207W        W26151  26.670  10.327   1.740
62208W        W26152  24.639  42.944   0.437
62209W        W26153   4.736  25.614  12.486
62210W        W26154   2.302   0.753   3.256
62211W        W26155  23.501  31.063  12.009
62212W        W26156  35.570   4.703  11.475
62213W        W26157   8.334  34.927  11.551
62214W        W26158   4.318  24.666   0.320
62215W        W26159  20.177  14.656   0.729
62216W        W26160  20.681  26.659  13.950
62217W        W26161  17.659  16.638   3.343
62218W        W26162   7.244  44.887  13.909
62219W        W26163  20.075   1.407  14.287
62220W        W26164  35.419  24.069   0.868
62221W        W26165  11.627  33.506  12.825
62222W        W26166  22.517  34.873   1.886
62223W        W26167   2.776  17.205   2.673
62224W        W26168  18.261  32.476   5.270
62225W        W26169  14.755  32.109   3.689
62226W        W26170  21.046   8.860   0.882
62227W        W26171  15.307  32.620   1.840
62228W        W26172  37.573  14.811  11.063
62229W        W26173  21.681  37.974  11.611
62230W        W26174  37.341   1.832   0.344
62231W        W26175  23.997  35.100   2.872
62232W        W26176  15.298  31.955  11.085
62233W        W26177  31.039  33.112  12.501
62234W        W26178  14.764   2.889  11.568
62235W        W26179  36.014  38.379  14.409
62236W        W26180   2.325  27.116  13.807
62237W        W26181   4.847  26.006   2.714
62238W        W26182   4.857  36.356   1.346
62239W        W26183  25.581  30.424  14.808
62240W        W26184  30.443  22.687   4.155
62241W        W26185  31.945  23.104   2.709
62242W        W26186  12.192  35.073   1.713
62243W        W26187  42.286  27.521   3.660
62244W        W26188  25.986   7.388  11.901
62245W        W26189  14.601  13.138  11.047
62246W        W26190  40.502  16.256  12.419
62247W        W26191  24.130  18.723  14.478
62248W        W26192  32.514   3.881  12.997
62249W        W26193  29.636  35.367   4.172
62250W        W26194  36.088   7.824  14.779
62251W        W26195  11.271  21.665   0.256
62252W        W26196  21.036  17.300   3.640
62253W        W26197  27.986  38.332  14.329
62254W        W26198  39.900   3.789   4.127
62255W        W26199  29.466   7.194   1.923
62256W        W26200  42.869  20.203  11.393
62257W        W26201  33.430  27.186  11.381
62258W        W26202  33.985   8.160   1.298
62259W        W26203  29.534  22.996   4.202
62260W        W26204  33.400  38.325  12.990
62261W        W26205   5.236  39.546  13.014
62262W        W26206  13.691  41.919   4.766
62263W        W26207  19.567  38.343  13.907
62264W        W26208  21.618  44.966   0.328
62265W        W26209   7.862  18.160   4.810
62266W        W26210  14.277  12.255  13.873
62267W        W26211  25.016  28.035   5.191
62268W        W26212  36.031   3.237  12.417
62269W        W26213  29.577  24.981   3.373
62270W        W26214   7.281   7.230  13.966
62271W        W26215   6.787  33.442  11.976
62272W        W26216  13.819   5.808  10.438
62273W        W26217   5.327   7.877   5.096
62274W        W26218  33.493  16.143  13.911
62275W        W26219  27.493  12.203   2.786
62276W        W26220  40.387  21.153   1.405
62277W        W26221  26.459  19.140  10.015
62278W        W26222  11.303  28.059   1.695
62279W        W26223  32.532  28.094   1.241
62280W        W26224  19.187  14.187   1.820
62281W        W26225  33.014   5.269   2.701
62282W        W26226   1.268  38.517   3.744
62283W        W26227  36.015   5.382  12.940
62284W        W26228  26.045  32.028   0.391
62285W        W26229  36.467  11.289  11.868
62286W        W26230  15.217  32.016  10.578
62287W        W26231  15.753  33.895   1.267
62288W        W26232  15.181  19.670  14.927
62289W        W26233  19.552  22.607   2.302
62290W        W26234  44.502  13.293  14.508
62291W        W26235  18.296  17.250   3.753
62292W        W26236  18.608  23.139   2.252
62293W        W26237  25.071  22.652  10.473
62294W        W26238   6.844  39.385  10.914
62295W        W26239  41.402  11.126  10.627
62296W        W26240  44.931  17.188  10.963
62297W        W26241   0.361  31.090  10.566
62298W        W26242  42.928  34.021   2.868
62299W        W26243  40.392  28.054   4.163
62300W        W26244   9.351   6.307  14.995
62301W        W26245  14.166  38.416   3.222
62302W        W26246   8.781  37.509  13.355
62303W        W26247  41.832  16.614   1.778
62304W        W26248   5.791  19.641  12.458
62305W        W26249   9.685  31.902   3.157
62306W        W26250  43.960   1.353  11.928
62307W        W26251  36.511   2.787  14.491
62308W        W26252   5.744  10.806  11.864
62309W        W26253  34.443  44.487   3.270
62310W        W26254  19.586  42.915   2.901
62311W        W26255  22.018  28.031  14.850
62312W        W26256   9.646   3.366   1.708
62313W        W26257  29.562  26.129  13.379
62314W        W26258  43.395  28.487  13.831
62315W        W26259   7.334  24.214  13.535
62316W        W26260  17.120  42.846   0.274
62317W        W26261  12.822  43.794  10.457
62318W        W26262   5.402  12.725  11.402
62319W        W26263  22.694  35.978  13.430
62320W        W26264  22.667  30.480  14.280
62321W        W26265  38.405  40.343  14.495
62322W        W26266  20.660   7.880   0.273
62323W        W26267   5.335   7.259  12.004
62324W        W26268  14.236   2.454   2.239
62325W        W26269   4.729  16.656   3.692
62326W        W26270  19.134  43.426  12.054
62327W        W26271  44.901  19.252   4.687
62328W        W26272   8.846  16.121   1.717
62329W        W26273   2.784   1.787   1.332
62330W        W26274  35.878  23.081  13.521
62331W        W26275  10.762  35.093   1.740
62332W        W26276  31.620  37.421  12.019
62333W        W26277  42.916  19.061  10.500
62334W        W26278  24.022   9.279  14.979
62335W        W26279  24.197  34.962  13.428
62336W        W26280   9.830  25.058  14.894
62337W        W26281  40.367  41.829   1.424
62338W        W26282  30.910  17.579  14.855
62339W        W26283   4.750  20.189   3.799
62340W        W26284  41.963   4.804  10.042
62341W        W26285   8.282   8.184   4.703
62342W        W26286  26.503  25.200   1.765
62343W        W26287  42.371  25.200   2.696
62344W        W26288  20.735  28.031  11.417
62345W        W26289  39.966  15.613   3.754
62346W        W26290   6.195  23.716   1.245
62347W        W26291   4.762  44.902   2.679
62348W        W26292   7.202   9.884  10.901
62349W        W26293   3.841  42.337  12.935
62350W        W26294  17.107  23.061   0.283
62351W        W26295  25.033  11.847  11.056
62352W        W26296   6.850  24.097  13.354
62353W        W26297  42.485  25.004   4.813
62354W        W26298  44.354  29.105  12.927
62355W        W26299  38.438   0.343   3.272
62356W        W26300  24.626  36.423   3.780
62357W        W26301  29.635  30.514   3.766
62358W        W26302   2.389  39.893  12.034
62359W        W26303   7.833  41.348  13.374
62360W        W26304  25.080   1.379   0.740
62361W        W26305  13.699   6.712  13.028
62362W        W26306  14.796  33.391  12.075
62363W        W26307   9.795  20.593   3.672
62364W        W26308  14.714  12.286   4.170
62365W        W26309  32.613  20.094  11.385
62366W        W26310  26.006  30.039   0.292
62367W        W26311  43.312  13.617  14.462
62368W        W26312  11.343   7.900  10.531
62369W        W26313   8.303  26.547  12.079
62370W        W26314  36.870  16.125   0.810
62371W        W26315  16.294  24.605  14.319
62372W        W26316  40.510  16.575   4.668
62373W        W26317   6.319  27.961  13.517
62374W        W26318  37.569   1.314   0.264
62375W        W26319   6.886  28.930   0.340
62376W        W26320  24.601   7.299  12.973
62377W        W26321  24.635  12.190   2.381
62378W        W26322  26.038  29.149  10.963
62379W        W26323  35.901  31.150   3.311
62380W        W26324  18.570  30.580  12.524
62381W        W26325  24.647   2.860   4.225
62382W        W26326   7.843  17.699  10.490
62383W        W26327  10.794  36.380  13.523
62384W        W26328   5.305  15.712   4.241
62385W        W26329  24.644  11.805  13.427
62386W        W26330  18.552  20.670  12.014
62387W        W26331  29.425  38.957   0.848
62388W        W26332  32.141  29.041   0.837
62389W        W26333   6.882  11.670  13.314
62390W        W26334  26.172  30.917   3.743
62391W        W26335  11.298  40.493   3.303
62392W        W26336  40.363  13.157   4.250
62393W        W26337   7.730  36.011   4.836
62394W        W26338  16.737  39.890   1.288
62395W        W26339  38.951   8.201  11.605
62396W        W26340  39.499  16.571   0.262
62397W        W26341  15.634  30.658   1.725
62398W        W26342  29.650  19.741  14.327
62399W        W26343  23.625  23.633   4.216
62400W        W26344  25.164   2.469   4.235
62401W        W26345  23.161  26.624  14.888
62402W        W26346   7.208  33.062  10.448
62403W        W26347   7.179  33.893  14.479
62404W        W26348   8.831  37.469  14.491
62405W        W26349  37.578   1.417  13.972
62406W        W26350   4.416  22.717  10.613
62407W        W26351  33.900   5.425  14.781
62408W        W26352  29.559   3.454  11.964
62409W        W26353   0.394  17.168   2.417
62410W        W26354  10.849  19.559   3.174
62411W        W26355  22.744   6.706   1.872
62412W        W26356  11.322  43.014  10.574
62413W        W26357  18.178  40.984   0.852
62414W        W26358  29.424  18.790   1.435
62415W        W26359  16.659  39.935  10.628
62416W        W26360  17.157  40.339  14.448
62417W        W26361  13.841  41.023   0.731
62418W        W26362  16.168  39.542  10.960
62419W        W26363  23.623  34.929  11.991
62420W        W26364  44.287   8.829  14.316
62421W        W26365  16.733  17.277   2.298
62422W        W26366  22.680  34.477  10.505
62423W        W26367  21.582  34.994   3.278
62424W        W26368  36.403  40.964   4.615
62425W        W26369   0.921  18.186  10.534
62426W        W26370  21.537  13.783  11.982
62427W        W26371  20.536  17.557  13.314
62428W        W26372  37.446  16.619  11.441
62429W        W26373  28.123  12.234   1.918
62430W        W26374  18.128  39.552   1.882
62431W        W26375  36.965  39.343   4.295
62432W        W26376   6.401  25.121  10.606
62433W        W26377  18.288  21.519  10.075
62434W        W26378  11.649  30.468  11.558
62435W        W26379  43.472   6.203  14.479
62436W        W26380  25.190  10.261   1.720
62437W        W26381  31.012  43.881   3.374
62438W        W26382   6.267  28.542   1.715
62439W        W26383  21.173   4.784  11.597
62440W        W26384   2.766  30.913  12.458
62441W        W26385  29.508  34.550  12.384
62442W        W26386  27.053  13.760  12.389
62443W        W26387  15.748  41.896   3.787
62444W        W26388  43.513   5.827  11.481
62445W        W26389  40.808   5.719   1.437
62446W        W26390  26.499  25.604   2.210
62447W        W26391  24.133   5.903  13.899
62448W        W26392  32.429  21.707  12.046
62449W        W26393  42.032  23.054   3.189
62450W        W26394  18.645   3.367  10.018
62451W        W26395  28.607  32.471   0.397
62452W        W26396  35.578  10.703  10.556
62453W        W26397  19.708  28.949   4.626
62454W        W26398  32.104  34.562  10.990
62455W        W26399  14.242  16.593   3.672
62456W        W26400  16.572  21.665   3.151
62457W        W26401  14.697  43.847   3.305
62458W        W26402   2.817  18.763   3.195
62459W        W26403  37.474  13.811  10.481
62460W        W26404  26.652  40.307   1.326
62461W        W26405   4.266  28.437   2.836
62462W        W26406  37.458  42.872   1.746
62463W        W26407   8.735  44.354   0.387
62464W        W26408  15.643   0.937  11.070
62465W        W26409   9.389  36.077  12.549
62466W        W26410  24.707  26.188  14.014
62467W        W26411  16.156   2.379   2.817
62468W        W26412  37.088  38.551  13.392
62469W        W26413  29.173  34.517  14.025
62470W        W26414   6.764  22.227   4.699
62471W        W26415  44.360  24.117   1.406
62472W        W26416  35.478   4.743  13.496
62473W        W26417  39.560  31.903   1.832
62474W        W26418   0.875   2.788   1.782
62475W        W26419  38.012  42.468  12.966
62476W        W26420  43.788  32.401   0.961
62477W        W26421  36.590  42.782   4.627
62478W        W26422  36.383   1.836   1.891
62479W        W26423  13.238   7.401  14.374
62480W        W26424  13.238  40.513   2.360
62481W        W26425  34.872  14.592  13.816
62482W        W26426  15.278   7.335   3.246
62483W        W26427  25.069   8.671   4.267
62484W        W26428  17.113  28.073   1.310
62485W        W26429  35.859  23.669   0.802
62486W        W26430  20.759  27.484   3.331
62487W        W26431  32.089   5.711  10.556
62488W        W26432  10.763  26.588   1.751
62489W        W26433  17.743   5.250  11.496
62490W        W26434  13.742  11.329   1.752
62491W        W26435   6.374  20.094   4.641
62492W        W26436   1.405   3.270   3.337
62493W        W26437  23.664  22.997  13.408
62494W        W26438  20.089  11.275   4.781
62495W        W26439  12.226  22.085  10.911
62496W        W26440  22.717  16.231  14.405
62497W        W26441  11.356  27.482  10.042
62498W        W26442  22.123  29.998   3.267
62499W        W26443  30.464  17.577  11.557
62500W        W26444   3.217  29.656   2.187
62501W        W26445  25.651  39.468  14.879
62502W        W26446  12.638  12.313  13.381
62503W        W26447  34.557  37.536  12.485
62504W        W26448  15.162   5.359  12.994
62505W        W26449  31.506  35.395  12.564
62506W        W26450  29.590  27.966   1.259
62507W        W26451  41.530  39.447  10.638
62508W        W26452   4.270  27.081   0.946
62509W        W26453  17.664  24.646   4.291
62510W        W26454  23.712   0.484  11.122
62511W        W26455  34.967   7.791   0.295
62512W        W26456  21.132  24.531   3.676
62513W        W26457  29.025  23.616  14.876
62514W        W26458  10.235  40.972  10.562
62515W        W26459  31.548  39.929  14.382
62516W        W26460  26.989  22.729   0.435
62517W        W26461  27.965  22.655  10.081
62518W        W26462  14.749  30.600   3.146
62519W        W26463   2.743  43.891  13.920
62520W        W26464  16.787  20.206   2.184
62521W        W26465  23.065  37.340  14.959
62522W        W26466  38.370  34.068  11.541
62523W        W26467  24.161  28.083   0.912
62524W        W26468   3.221  16.657   0.836
62525W        W26469  35.436  15.816   5.277
62526W        W26470  14.722  12.748  13.871
62527W        W26471  32.440   7.668   2.880
62528W        W26472   2.322  34.882   0.324
62529W        W26473   3.410   7.690   2.884
62530W        W26474   7.800   8.665  12.977
62531W        W26475   8.266  10.852   3.757
62532W        W26476  19.074   6.797  11.480
62533W        W26477  37.077  23.228  14.983
62534W        W26478  35.471  26.517   4.273
62535W        W26479  38.848   6.231   0.482
62536W        W26480  15.201   6.825   2.202
62537W        W26481  30.580  24.550  12.486
62538W        W26482  44.848  32.958  14.888
62539W        W26483  19.133  24.138   1.726
62540W        W26484   2.843  19.264   1.876
62541W        W26485  13.344  29.115  11.454
62542W        W26486  43.476   1.867  10.479
62543W        W26487   2.953  38.532   2.279
62544W        W26488   0.860   9.713   1.722
62545W        W26489   8.296  17.161   2.305
62546W        W26490  17.762  21.261   3.165
62547W        W26491  39.843  30.587   1.722
62548W        W26492  22.601  26.138   0.868
62549W        W26493  41.929  24.496  13.314
62550W        W26494   4.789  14.228  13.441
62551W        W26495  10.265   5.917   4.717
62552W        W26496  30.055  41.031  12.990
62553W        W26497  43.334  22.106  10.569
62554W        W26498  27.117   5.772  12.960
62555W        W26499  22.531  24.193  11.110
62556W        W26500   5.807  22.505   4.171
62557W        W26501  30.627   9.643   4.127
62558W        W26502  25.010  13.602   2.870
62559W        W26503   5.739   8.821   0.728
62560W        W26504   6.743  43.499  14.478
62561W        W26505  25.172  34.976  14.330
62562W        W26506  24.988  18.273  14.942
62563W        W26507  20.674  17.083  14.307
62564W        W26508  14.705   8.840   4.831
62565W        W26509  32.063   9.881   0.803
62566W        W26510  40.864   4.705  13.318
62567W        W26511   0.381   3.441  11.574
62568W        W26512  41.928  36.091   5.120
62569W        W26513   8.279  33.568   4.260
62570W        W26514  42.476  38.972  11.897
62571W        W26515  17.208  43.800   2.286
62572W        W26516  35.860  12.657   3.304
62573W        W26517  30.097  38.925  10.444
62574W        W26518  38.949  39.398   4.252
62575W        W26519  17.151  17.191  11.009
62576W        W26520  37.009  40.500   2.383
62577W        W26521  24.582  14.281   2.786
62578W        W26522   8.839  10.714   2.678
62579W        W26523  18.090   3.388   2.884
62580W        W26524   8.895  38.953  12.442
62581W        W26525  28.679  28.088  13.373
62582W        W26526  31.415  29.066   4.252
62583W        W26527  25.030  44.814   2.313
62584W        W26528  33.394   5.751  12.504
62585W        W26529  36.012  20.705  14.410
62586W        W26530  31.580   7.385   2.239
62587W        W26531  33.878  23.115  12.962
62588W        W26532  29.931  30.511  10.435
62589W        W26533  29.554  43.357   5.088
62590W        W26534  41.982  35.508  14.030
62591W        W26535   0.384  14.118  10.934
62592W        W26536  35.418  34.962   3.682
62593W        W26537  39.428  21.118   4.309
62594W        W26538  10.317  20.694  12.067
62595W        W26539  20.693   2.420   0.834
62596W        W26540  12.188   7.181   3.847
62597W        W26541  35.978   5.348   1.230
62598W        W26542  10.644   7.260  11.516
62599W        W26543  30.577  10.139  12.455
62600W        W26544   7.711  23.704   3.745
62601W        W26545  38.379  13.220  12.356
62602W        W26546  13.676   9.302  10.473
62603W        W26547  41.894   4.450  13.465
62604W        W26548   3.929  23.569  10.429
62605W        W26549  28.956  27.982   0.928
62606W        W26550   2.242  18.267  10.644
62607W        W26551  38.397  15.644   1.313
62608W        W26552   1.843  42.429   4.628
62609W        W26553  14.202  14.186  13.463
62610W        W26554  28.013  17.707   3.777
62611W        W26555  22.639  16.635  14.432
62612W        W26556   0.492  35.883  13.471
62613W        W26557  41.981  18.627   0.246
62614W        W26558  25.539  32.538   1.322
62615W        W26559   4.768  12.766   3.359
62616W        W26560  35.576   1.855  14.013
62617W        W26561  15.216   3.778  13.847
62618W        W26562  34.390  21.627  10.499
62619W        W26563  43.782  17.076  12.515
62620W        W26564  34.951  40.880  12.413
62621W        W26565  16.311  31.502   1.861
62622W        W26566  12.684  31.474   3.315
62623W        W26567  41.845  29.513  14.369
62624W        W26568   9.693  35.059   4.696
62625W        W26569  24.992  39.527   4.835
62626W        W26570  14.654   3.850   3.800
62627W        W26571  27.650  36.489  10.995
62628W        W26572  40.337   4.756   1.912
62629W        W26573   8.379  10.360  14.366
62630W        W26574  33.599  37.903   3.751
62631W        W26575   0.286   7.886  14.471
62632W        W26576  17.233  40.320   5.147
62633W        W26577  10.218  26.065  11.523
62634W        W26578  35.473  26.980  14.487
62635W        W26579  33.418  39.006  12.823
62636W        W26580  35.013   9.848   2.206
62637W        W26581  42.343  18.092  10.619
62638W        W26582  44.796   7.722   2.685
62639W        W26583  12.752  33.968   3.822
62640W        W26584  34.890  33.536  14.291
62641W        W26585  26.148  40.841  11.061
62642W        W26586  31.482  39.385   1.371
62643W        W26587  42.886  39.912   1.826
62644W        W26588  22.104  42.975  13.424
62645W        W26589   0.418  21.619   1.407
62646W        W26590  41.918  38.980  10.982
62647W        W26591  26.099   4.918   4.683
62648W        W26592  44.340  24.565   4.805
62649W        W26593  40.370   0.256   4.194
62650W        W26594  21.587  33.573  14.764
62651W        W26595  29.477  28.033   4.187
62652W        W26596  42.512  21.166  10.456
62653W        W26597  38.520  34.915   1.301
62654W        W26598   5.903   3.240  14.916
62655W        W26599   3.373  18.622  14.988
62656W        W26600  26.534  13.770   4.813
62657W        W26601  32.525   1.975   2.339
62658W        W26602  15.794   9.846  11.060
62659W        W26603  42.811   5.740  10.584
62660W        W26604  18.179  27.537  11.920
62661W        W26605  35.900  27.180  11.502
62662W        W26606  42.814   0.932   4.647
62663W        W26607  31.091   0.305   2.390
62664W        W26608  24.010   2.416  11.923
62665W        W26609   5.278  19.674   4.301
62666W        W26610  44.314   5.857  14.962
62667W        W26611  32.043  43.395  14.456
62668W        W26612   9.149   9.166  12.547
62669W        W26613   9.695  14.768  12.366
62670W        W26614   2.267  27.997   4.319
62671W        W26615  33.099  33.062  13.886
62672W        W26616  21.565  11.857   4.272
62673W        W26617  15.639  21.741  12.949
62674W        W26618  33.884  32.554  10.547
62675W        W26619  40.898  18.199   0.472
62676W        W26620   3.744  19.541   1.788
62677W        W26621  29.009  11.622  12.046
62678W        W26622  20.199  13.252   2.852
62679W        W26623  42.356  28.987   2.187
62680W        W26624   4.804  20.066  13.999
62681W        W26625   7.744   9.202   0.351
62682W        W26626  24.133  38.837  12.563
62683W        W26627  42.380  13.173  12.051
62684W        W26628  32.054  23.727   4.272
62685W        W26629  41.509  37.484   4.182
62686W        W26630  12.612  36.490  13.048
62687W        W26631  15.736  15.135  10.930
62688W        W26632  13.232  25.212   3.762
62689W        W26633  25.528   4.343  10.892
62690W        W26634  42.418  25.481  11.126
62691W        W26635  33.958  44.332  12.537
62692W        W26636  17.556  16.765  14.961
62693W        W26637  24.065  13.829   3.226
62694W        W26638   1.817  43.326   4.650
62695W        W26639   8.726  29.078  13.382
62696W        W26640  34.481  19.642   2.866
62697W        W26641  20.059   5.892   4.268
62698W        W26642  43.395  23.205   2.370
62699W        W26643  36.957   8.181   1.792
62700W        W26644  30.160  30.640  13.344
62701W        W26645   7.673  40.479   2.739
62702W        W26646  30.035   3.822  12.862
62703W        W26647  12.635  11.757   2.743
62704W        W26648  32.888  36.425   0.896
62705W        W26649  33.540  16.773  12.884
62706W        W26650   8.217   9.215  11.594
62707W        W26651  41.918  38.507  11.860
62708W        W26652  40.433  38.344  11.915
62709W        W26653  15.175   9.843   1.428
62710W        W26654  43.376  15.764   4.803
62711W        W26655   2.773   9.669   0.380
62712W        W26656  23.639  18.188  11.963
62713W        W26657  11.319  32.503   0.292
62714W        W26658  19.659  40.355  13.985
62715W        W26659  39.463  35.906   2.387
62716W        W26660  12.714  38.016  11.382
62717W        W26661   6.780   4.363  12.487
62718W        W26662  12.833  27.080  14.381
62719W        W26663  13.318  43.936  11.123
62720W        W26664  40.540  18.178   1.852
62721W        W26665  14.292  27.515  11.458
62722W        W26666  19.068   4.408   4.115
62723W        W26667   2.387  41.833   3.823
62724W        W26668  34.927  21.056   5.171
62725W        W26669  15.158   4.227  12.093
62726W        W26670  25.185   7.859  14.436
62727W        W26671  27.994  19.699  10.603
62728W        W26672  23.542  30.092  13.330
62729W        W26673  34.987  38.364   4.606
62730W        W26674   5.776  44.436   2.700
62731W        W26675   6.297  18.592   4.136
62732W        W26676  30.627  16.153  13.962
62733W        W26677  34.058  33.944   0.907
62734W        W26678  10.871   0.957   2.797
62735W        W26679  17.607  41.448  12.406
62736W        W26680  12.260   3.868   3.718
62737W        W26681  38.003  15.763  14.357
62738W        W26682  25.982  34.104   0.901
62739W        W26683   4.921   1.905  12.001
62740W        W26684  30.555  27.670   2.817
62741W        W26685   3.781  40.981  13.997
62742W        W26686  41.396  44.368  11.454
62743W        W26687   0.461  43.437   1.763
62744W        W26688  43.791  16.610  13.461
62745W        W26689  11.341  44.310   2.374
62746W        W26690  37.948  19.539  13.361
62747W        W26691  18.579  33.959  11.881
62748W        W26692  25.189   6.325  10.953
62749W        W26693  43.771  12.362   3.728
62750W        W26694  36.527   6.753   1.904
62751W        W26695  26.142   5.287   1.902
62752W        W26696  21.647   0.326  11.101
62753W        W26697  39.396  30.514   2.762
62754W        W26698  10.659  13.298  14.364
62755W        W26699   7.241  27.552  11.119
62756W        W26700  43.501  21.253  10.572
62757W        W26701  24.595  38.490  14.985
62758W        W26702  13.247  20.146  13.007
62759W        W26703   1.365  33.410  11.925
62760W        W26704  33.460  15.240   1.845
62761W        W26705  17.713  31.054  10.911
62762W        W26706  28.655  44.911  12.061
62763W        W26707  38.524  39.881  14.986
62764W        W26708  22.060  25.213   1.286
62765W        W26709  23.090  18.233   4.232
62766W        W26710  24.976   1.253   1.328
62767W        W26711  19.116  41.992   2.825
62768W        W26712  26.123   5.767  12.402
62769W        W26713  21.256   1.880  10.891
62770W        W26714  19.606  18.227  10.519
62771W        W26715  31.956  26.008   0.414
62772W        W26716  29.432   3.234  10.436
62773W        W26717  24.975  34.492   2.338
62774W        W26718  16.659  15.274  14.958
62775W        W26719  20.693   6.248   1.338
62776W        W26720  21.152  23.672   1.762
62777W        W26721  36.469  35.893  12.070
62778W        W26722   4.362  23.012   4.723
62779W        W26723  42.389  30.550   2.830
62780W        W26724  10.154  34.435   1.700
62781W        W26725  18.105   3.346  12.462
62782W        W26726  43.316  36.430  12.065
62783W        W26727  41.892  18.705   2.875
62784W        W26728  35.985  16.603  12.464
62785W        W26729  18.629   8.824   1.931
62786W        W26730   6.910  43.455  11.011
62787W        W26731  35.451  16.579  12.013
62788W        W26732  39.418  24.518  14.867
62789W        W26733   4.216   8.732   2.265
62790W        W26734   7.343  40.317  13.889
62791W        W26735   4.710   2.884  12.383
62792W        W26736  35.418  34.474   2.850
62793W        W26737   4.726  44.343  12.342
62794W        W26738  18.253  32.934  10.928
62795W        W26739  22.715  35.980   4.234
62796W        W26740  28.642  15.646  13.922
62797W        W26741  39.395  41.494  14.480
62798W        W26742  17.658  30.528  14.300
62799W        W26743  17.276   5.234   9.486
62800W        W26744  29.092   8.280  11.110
62801W        W26745  35.411  19.570   0.245
62802W        W26746  27.030  25.992  10.961
62803W        W26747  42.313  23.690   3.705
62804W        W26748  38.507  16.688  12.849
62805W        W26749  21.096  20.035  14.799
62806W        W26750  27.632  39.999   4.115
62807W        W26751  31.926  33.090  10.898
62808W        W26752  27.193  28.543   0.916
62809W        W26753   3.391  12.275  11.573
62810W        W26754  31.628  26.121   2.695
62811W        W26755  38.953  43.849   4.635
62812W        W26756  43.949  41.817  13.429
62813W        W26757  39.834   5.299   2.373
62814W        W26758   6.718  27.067  10.997
62815W        W26759  15.671  38.871  12.958
62816W        W26760  16.299  34.411  11.960
62817W        W26761  22.103  13.707   4.613
62818W        W26762  16.105  41.451  10.516
62819W        W26763  33.104  43.982  11.602
62820W        W26764   0.866  12.117   0.964
62821W        W26765  37.460  32.413  11.526
62822W        W26766  10.272  14.191   0.371
62823W        W26767  13.328   8.352   0.743
62824W        W26768  32.057  39.859  13.930
62825W        W26769   9.300   7.894   1.785
62826W        W26770  18.066  29.581  13.880
62827W        W26771  44.827  15.191  11.099
62828W        W26772   3.933  20.628   0.313
62829W        W26773  34.598  34.051   1.402
62830W        W26774  15.125   0.844  12.035
62831W        W26775   8.281  15.230   4.263
62832W        W26776  17.063  13.698   3.701
62833W        W26777  42.786  17.079  11.092
62834W        W26778  17.075  41.860   0.825
62835W        W26779  17.073  26.195   3.662
62836W        W26780  15.192   1.266   1.392
62837W        W26781  33.614   4.935   3.320
62838W        W26782  37.425  29.925  12.847
62839W        W26783  17.607  22.527   1.365
62840W        W26784   6.351  42.465  14.284
62841W        W26785  42.893  23.098  10.945
62842W        W26786  26.052  41.822   1.788
62843W        W26787   8.198  36.578  13.961
62844W        W26788  18.595   9.885   0.877
62845W        W26789  44.803  36.403  13.543
62846W        W26790  12.614  16.248   1.746
62847W        W26791   3.218  37.000  12.573
62848W        W26792   9.873  20.202  14.459
62849W        W26793  20.567   9.241  12.044
62850W        W26794  40.948  44.881  13.910
62851W        W26795  19.725  23.699   3.294
62852W        W26796  10.725   8.796  11.567
62853W        W26797  28.464  22.557   4.231
62854W        W26798  20.161   0.920   3.178
62855W        W26799  41.968  41.466  14.376
62856W        W26800  43.447  40.861   2.778
62857W        W26801   9.889  15.194   2.755
62858W        W26802   5.886   0.910   1.210
62859W        W26803  32.015  13.183   2.292
62860W        W26804  20.195  21.063   3.807
62861W        W26805  12.614  10.292   4.156
62862W        W26806  27.628  17.681  12.453
62863W        W26807  42.979  34.986  12.959
62864W        W26808  40.964   4.830   4.163
62865W        W26809  24.033  33.489   2.368
62866W        W26810  15.648  26.008   4.827
62867W        W26811  40.910  42.353   3.192
62868W        W26812   1.312   6.211  11.421
62869W        W26813   8.705  24.504   4.327
62870W        W26814  35.888  35.092  11.117
62871W        W26815  16.776   1.312   2.741
62872W        W26816  16.199  26.659  10.947
62873W        W26817  40.867  36.555  13.917
62874W        W26818  26.078  25.965  12.021
62875W        W26819  17.663  25.202   4.633
62876W        W26820  42.384  38.929   2.418
62877W        W26821  16.310   8.161  12.379
62878W        W26822  11.366  28.024  12.429
62879W        W26823  29.554   0.839   0.246
62880W        W26824  22.655  28.951   2.353
62881W        W26825  12.200   8.247  14.836
62882W        W26826   2.287  27.995  10.437
62883W        W26827  39.874  10.238  10.989
62884W        W26828   8.854   9.775  13.916
62885W        W26829  31.582  44.376  12.002
62886W        W26830  27.988   1.304   1.372
62887W        W26831  32.459  29.075  10.506
62888W        W26832   6.187  11.193   0.829
62889W        W26833  36.922  11.162   2.249
62890W        W26834   0.852  44.482   0.382
62891W        W26835  39.426  20.768   0.404
62892W        W26836  39.828  39.832   2.285
62893W        W26837   6.899  21.642   0.436
62894W        W26838  37.366  25.547   2.850
62895W        W26839  19.171  31.511  12.081
62896W        W26840  18.080   6.191   4.639
62897W        W26841   2.274  22.050   3.362
62898W        W26842  32.132   9.797   5.213
62899W        W26843  40.343  32.391  11.387
62900W        W26844  29.517  25.651   0.270
62901W        W26845   2.246  12.159  11.979
62902W        W26846  40.014  43.872   3.790
62903W        W26847  43.334  44.388   4.354
62904W        W26848  35.419  19.555  14.881
62905W        W26849  32.481  42.437   4.264
62906W        W26850  14.266  23.022   2.748
62907W        W26851  30.635  21.608   3.787
62908W        W26852   1.338   4.347   1.238
62909W        W26853   6.729  36.963   4.597
62910W        W26854  34.441  44.840   1.383
62911W        W26855   6.414  27.480   4.730
62912W        W26856  12.780  29.424  11.427
62913W        W26857  17.640  10.853   3.375
62914W        W26858  44.782   2.739  13.822
62915W        W26859   4.784   7.357  11.421
62916W        W26860   2.951   5.847   0.901
62917W        W26861   5.436  23.664  12.980
62918W        W26862  32.133  44.999   0.853
62919W        W26863  29.160  18.254   3.272
62920W        W26864  15.619   4.255   2.701
62921W        W26865  39.401  39.050   0.921
62922W        W26866  41.788  15.175  11.908
62923W        W26867   8.708  19.680  10.897
62924W        W26868  33.993  42.999  12.350
62925W        W26869   6.826  44.852  12.009
62926W        W26870  17.713  33.498  11.881
62927W        W26871  41.988  23.659   0.860
62928W        W26872  14.247  25.572   3.304
62929W        W26873   7.752  29.663   0.419
62930W        W26874   2.751  42.412   4.243
62931W        W26875   1.844  29.655  11.079
62932W        W26876  18.578  34.890   3.724
62933W        W26877  31.418   9.751   2.224
62934W        W26878  25.025  33.405   2.208
62935W        W26879  27.037  24.598  10.995
62936W        W26880  13.811  35.868   2.801
62937W        W26881  18.601   8.753   3.352
62938W        W26882  38.411  20.043  13.323
62939W        W26883  11.681  42.848  14.415
62940W        W26884  35.895  10.659  13.005
62941W        W26885  42.470  17.300   4.182
62942W        W26886  21.632  39.000  11.383
62943W        W26887   4.790  14.697  11.598
62944W        W26888   6.867  11.258   0.302
62945W        W26889  31.603  32.115  12.007
62946W        W26890  24.115  21.602  12.376
62947W        W26891   4.750  27.170   1.896
62948W        W26892  23.040  21.707   3.298
62949W        W26893  15.685  31.465   0.756
62950W        W26894  28.016  24.585  11.605
62951W        W26895   2.236   7.843   4.273
62952W        W26896  40.027  33.992   1.366
62953W        W26897  22.995  41.989  11.568
62954W        W26898   9.312  31.508   3.840
62955W        W26899  36.902  17.637  12.371
62956W        W26900   1.828  23.641   0.903
62957W        W26901  12.763  44.363  11.540
62958W        W26902  21.612  34.409   1.329
62959W        W26903  29.570  40.805   9.514
62960W        W26904  14.138  31.564   0.454
62961W        W26905  42.334   9.827   3.704
62962W        W26906   9.189  29.924  11.879
62963W        W26907  21.713  21.625   3.725
62964W        W26908  41.801  28.048   3.766
62965W        W26909  43.376  15.619   4.175
62966W        W26910  23.035  16.266   2.220
62967W        W26911  33.898   3.762  12.937
62968W        W26912  39.911  22.248   3.690
62969W        W26913  30.102  41.460  13.465
62970W        W26914  13.686  26.558   4.764
62971W        W26915  37.042   9.260   0.274
62972W        W26916  13.186  30.600   1.751
62973W        W26917   6.387   2.269   1.873
62974W        W26918  24.516  40.408   1.426
62975W        W26919  29.144   0.977   4.237
62976W        W26920  23.593  41.851   1.759
62977W        W26921   1.325  18.240   1.440
62978W        W26922   2.431  28.485  12.892
62979W        W26923  22.650  10.742   1.720
62980W        W26924  21.064  39.825  10.062
62981W        W26925  44.765  27.450   2.252
62982W        W26926  35.534  27.094   3.834
62983W        W26927  24.722  35.911   3.683
62984W        W26928  41.866  43.934   4.292
62985W        W26929  13.168  44.828  12.576
62986W        W26930  35.391   3.345   4.734
62987W        W26931  18.563  35.416   0.821
62988W        W26932   7.694  36.487   3.272
62989W        W26933  28.093  12.218  13.416
62990W        W26934  11.214   9.648  11.074
62991W        W26935  24.510  38.875  11.438
62992W        W26936   7.735  18.230  14.012
62993W        W26937  32.453   1.367  11.385
62994W        W26938  43.516  18.698  10.512
62995W        W26939  20.267  33.905   3.851
62996W        W26940   6.831   3.255   0.326
62997W        W26941  36.456  20.654   4.125
62998W        W26942  21.023  39.316  13.953
62999W        W26943   4.751  38.848   1.437
63000W        W26944  41.816   1.275   1.806
63001W        W26945  26.989  14.212   5.194
63002W        W26946  30.975  35.016  12.999
63003W        W26947  29.057  43.498   1.731
63004W        W26948  42.307  34.961   0.308
63005W        W26949  27.983  28.657   3.191
63006W        W26950  22.615  11.372  10.990
63007W        W26951  38.068  29.124   0.956
63008W        W26952   1.858  13.155   0.756
63009W        W26953   0.491  19.716   1.921
63010W        W26954  42.350  15.134  11.490
63011W        W26955  40.878  38.455  11.379
63012W        W26956   9.317  24.487  12.382
63013W        W26957  31.630  30.543  12.096
63014W        W26958  22.589   7.865   2.822
63015W        W26959  33.053  34.052   1.360
63016W        W26960  20.591   2.242   2.853
63017W        W26961  21.746  39.853  12.421
63018W        W26962  35.400  15.258  11.023
63019W        W26963  30.914  27.175  10.420
63020W        W26964  18.246  24.109  10.028
63021W        W26965  31.987   4.904  11.989
63022W        W26966  33.436  25.640  13.802
63023W        W26967  38.062  12.355   2.231
63024W        W26968   6.819  21.166   2.230
63025W        W26969   6.799  20.716   3.351
63026W        W26970  22.120  37.478  14.470
63027W        W26971  35.102   8.680   2.264
63028W        W26972  35.578  36.900   1.869
63029W        W26973  44.951  13.714   3.335
63030W        W26974  32.521  42.779   3.382
63031W        W26975   4.315  44.493   0.417
63032W        W26976  43.387  23.506   0.474
63033W        W26977  13.305  25.083   1.260
63034W        W26978  25.130  43.825  11.507
63035W        W26979  26.085  31.143   1.445
63036W        W26980  21.108   4.237   2.407
63037W        W26981  24.204  12.345  11.943
63038W        W26982   1.481  20.094  13.367
63039W        W26983  34.883  26.023   1.347
63040W        W26984  10.208  38.337   3.805
63041W        W26985   1.385  12.763  11.945
63042W        W26986   0.357   4.817   3.315
63043W        W26987  42.363  10.320  11.469
63044W        W26988  16.775  42.956   4.120
63045W        W26989  14.614  19.623   3.237
63046W        W26990  35.586  19.207  13.923
63047W        W26991   0.456  10.704   2.306
63048W        W26992  32.052  31.606  12.509
63049W        W26993  18.155  28.480  14.373
63050W        W26994  25.032   1.948   2.667
63051W        W26995  32.551   4.886   4.661
63052W        W26996  19.188  29.554  12.083
63053W        W26997   6.836  19.613  13.367
63054W        W26998  26.124  12.273   3.304
63055W        W26999  22.685  11.349   3.246
63056W        W27000  25.523  12.162  11.002
63057W        W27001   5.279   0.387  12.395
63058W        W27002  33.486   3.710  10.595
63059W        W27003  26.138  13.774   0.847
63060W        W27004   0.390   7.370  12.437
63061W        W27005  12.300  23.069   1.427
63062W        W27006   9.349   7.171  10.607
63063W        W27007  22.662  41.521   0.765
63064W        W27008   5.876  26.559   3.716
63065W        W27009  43.499  20.631  10.934
63066W        W27010   0.426  43.835   1.708
63067W        W27011  13.831  42.824  12.004
63068W        W27012  14.183  26.580  13.511
63069W        W27013  26.056   9.770   3.650
63070W        W27014  36.429  14.758  14.377
63071W        W27015  17.214  32.427   5.267
63072W        W27016  22.168  23.146  14.897
63073W        W27017   8.864  26.513  13.058
63074W        W27018   0.439   5.855  11.596
63075W        W27019  35.954  28.130   0.777
63076W        W27020   3.788  29.985  14.503
63077W        W27021  10.346  25.638   2.872
63078W        W27022  30.651  27.084   4.218
63079W        W27023   1.308  35.943  11.393
63080W        W27024  33.879   9.877   0.789
63081W        W27025  44.433  22.045   0.399
63082W        W27026  10.746  17.675  12.544
63083W        W27027  44.341  14.678   4.631
63084W        W27028  40.369  30.011  11.003
63085W        W27029  41.982  42.478  14.860
63086W        W27030  13.322  13.177  13.466
63087W        W27031  10.716   3.760  13.925
63088W        W27032  21.614  13.349  14.461
63089W        W27033  18.722   0.801  14.321
63090W        W27034  25.714  34.865   1.876
63091W        W27035  15.209   6.334   1.448
63092W        W27036  15.308  34.971   5.234
63093W        W27037  42.293  17.145   0.264
63094W        W27038  22.727   8.701   5.205
63095W        W27039  24.699  11.343   0.420
63096W        W27040  41.997  29.468  13.031
63097W        W27041  29.129  31.109   1.441
63098W        W27042  13.615  26.688  15.000
63099W        W27043  24.024  14.327   2.290
63100W        W27044  17.704   9.868   4.185
63101W        W27045   0.293  42.864  12.076
63102W        W27046  44.442   1.455  10.432
63103W        W27047  41.533  25.531   3.158
63104W        W27048   3.358  23.218  14.496
63105W        W27049   4.339   1.811  11.018
63106W        W27050  17.624  27.556  13.490
63107W        W27051  25.490  25.630  13.478
63108W        W27052   1.754  32.446  14.500
63109W        W27053  12.790  41.389  11.939
63110W        W27054  31.420  38.976  11.550
63111W        W27055  37.444  40.051  11.507
63112W        W27056   9.289  14.263   3.642
63113W        W27057  24.038  26.670   5.163
63114W        W27058  19.193   6.757   9.960
63115W        W27059   4.766  20.722   9.966
63116W        W27060  30.136  18.229  10.486
63117W        W27061   0.861  29.034   3.254
63118W        W27062  28.054  42.447  10.147
63119W        W27063   9.689  18.076  14.985
63120W        W27064   4.852  43.365  12.997
63121W        W27065  24.597  43.345  10.591
63122W        W27066   7.410  34.967  12.365
63123W        W27067   1.809  34.580  13.333
63124W        W27068  18.586  36.453   3.235
63125W        W27069  37.940  39.471   1.298
63126W        W27070  31.603  19.107   1.436
63127W        W27071  32.534   4.906   3.238
63128W        W27072  19.185  16.174   1.341
63129W        W27073  36.404  15.804  14.350
63130W        W27074  28.962  27.455   1.438
63131W        W27075  27.451  37.529   4.656
63132W        W27076  27.161  34.541   0.352
63133W        W27077  11.761  14.666   4.604
63134W        W27078  24.616  28.132   1.701
63135W        W27079  25.528  18.273   3.146
63136W        W27080  16.201  19.209   4.600
63137W        W27081   9.731  10.665  11.875
63138W        W27082  38.372  21.664   4.735
63139W        W27083  23.635  30.026  12.953
63140W        W27084   6.778  14.637  11.939
63141W        W27085  10.721  35.920  12.090
63142W        W27086   9.192  25.200   2.845
63143W        W27087  36.013  10.732   2.897
63144W        W27088  30.415   4.857  11.933
63145W        W27089   0.970  32.608  14.842
63146W        W27090  39.514   2.297  14.003
63147W        W27091  30.619   8.784  10.423
63148W        W27092  23.674  27.185   1.911
63149W        W27093  38.513  32.947   0.770
63150W        W27094  15.190  20.202   2.873
63151W        W27095  33.986  32.542   1.798
63152W        W27096  13.829  38.894  12.838
63153W        W27097  15.658  25.132   1.724
63154W        W27098  14.169   0.980  12.054
63155W        W27099  34.488  41.958  10.977
63156W        W27100   9.812  38.407  12.878
63157W        W27101  43.465   6.321   4.160
63158W        W27102  20.543  13.823   3.230
63159W        W27103   3.833  40.507  13.002
63160W        W27104  44.433   7.685   2.295
63161W        W27105  30.113  28.061   1.773
63162W        W27106  21.551  25.538  11.439
63163W        W27107  29.599  38.366  11.525
63164W        W27108   7.207  19.696  13.882
63165W        W27109  28.015  18.629  12.868
63166W        W27110  20.764  34.530   3.747
63167W        W27111  11.251  24.524  13.026
63168W        W27112  21.133  16.092   2.696
63169W        W27113  37.414   9.854  10.588
63170W        W27114  41.970  40.505  10.044
63171W        W27115  36.017  26.598   4.344
63172W        W27116  13.824  28.514  12.557
63173W        W27117  20.041   7.823  13.346
63174W        W27118  39.478  20.197   4.327
63175W        W27119  28.079  27.608  14.421
63176W        W27120  16.647  10.164   1.817
63177W        W27121   6.888  15.330  12.361
63178W        W27122  42.511  40.897   1.924
63179W        W27123  16.615  34.872  13.924
63180W        W27124  43.881   0.485   0.298
63181W        W27125  28.568  35.433  10.514
63182W        W27126  13.295   6.809   4.709
63183W        W27127  41.448   3.336   4.730
63184W        W27128  43.769  40.914  11.897
63185W        W27129   6.825  44.890  11.068
63186W        W27130   5.237   0.924  12.914
63187W        W27131  27.496  19.052   4.139
63188W        W27132  17.734  18.787   1.722
63189W        W27133   7.301   2.295   4.124
63190W        W27134  19.557  44.863  14.775
63191W        W27135  43.323  43.452   1.352
63192W        W27136  39.513  10.642   3.657
63193W        W27137  36.513  37.402   4.349
63194W        W27138   6.234  35.541   1.808
63195W        W27139  40.837   9.816  11.574
63196W        W27140   5.336  42.850   2.204
63197W        W27141   1.416  18.745   2.879
63198W        W27142  17.686  11.648   2.703
63199W        W27143  40.863  20.211   2.704
63200W        W27144  34.972  20.036   1.325
63201W        W27145  20.627  14.759   3.301
63202W        W27146  39.432  20.096   3.677
63203W        W27147  25.002  35.601   3.851
63204W        W27148  19.543   5.876   0.353
63205W        W27149   8.860  33.987   0.479
63206W        W27150  44.790   2.451   2.859
63207W        W27151  41.960  17.801   3.832
63208W        W27152  40.010  33.070  14.453
63209W        W27153  37.531  42.280  11.495
63210W        W27154  28.091  33.067   3.273
63211W        W27155   7.273  25.102  11.972
63212W        W27156  10.193  41.494   4.219
63213W        W27157  38.849  14.668  11.561
63214W        W27158  41.516  43.776   2.273
63215W        W27159  35.856  44.360   0.258
63216W        W27160  23.617  13.144  13.372
63217W        W27161   6.294  12.825  13.804
63218W        W27162  21.718  23.711   5.299
63219W        W27163  34.605   0.382   1.934
63220W        W27164  28.528  10.208   9.956
63221W        W27165  39.415  12.660  11.425
63222W        W27166   6.687   3.438   0.911
63223W        W27167  31.908  33.493   4.262
63224W        W27168   7.755  24.120   3.322
63225W        W27169  16.676  31.011   0.829
63226W        W27170  17.262  20.731   0.755
63227W        W27171  15.765   3.437   0.448
63228W        W27172  22.575  27.631   3.310
63229W        W27173  19.108  21.647  12.878
63230W        W27174  10.640  27.143   5.108
63231W        W27175  26.552  24.603  10.893
63232W        W27176  25.143  40.909  12.940
63233W        W27177   1.758  34.544  12.476
63234W        W27178  33.607  17.091  11.122
63235W        W27179   8.769  21.685  13.534
63236W        W27180  37.933  19.208  14.807
63237W        W27181  19.763   7.668  14.496
63238W        W27182  18.754   3.802  10.918
63239W        W27183  40.847   0.287  13.489
63240W        W27184  38.029  31.638  12.942
63241W        W27185  34.506  35.466  11.895
63242W        W27186  16.182  19.138   3.709
63243W        W27187  23.009   9.724  12.368
63244W        W27188   4.735  37.887  12.471
63245W        W27189  22.179  19.107  14.029
63246W        W27190  23.023  20.076  12.089
63247W        W27191  20.706   6.410   3.251
63248W        W27192  34.468  21.693  13.536
63249W        W27193   6.746   8.692  13.315
63250W        W27194  34.442   9.267   2.305
63251W        W27195  34.949  10.368   1.755
63252W        W27196  25.012  12.170  13.981
63253W        W27197  11.157  13.132   0.435
63254W        W27198   5.383  26.101  13.931
63255W        W27199  37.577  13.321  14.867
63256W        W27200  34.043  12.129  13.323
63257W        W27201  40.534   4.739   3.320
63258W        W27202  24.705  24.575   4.235
63259W        W27203  26.003  36.859  11.014
63260W        W27204  15.625  34.036   1.780
63261W        W27205  20.138  25.132   0.479
63262W        W27206  11.723  37.876  11.882
63263W        W27207  26.650  35.855   4.830
63264W        W27208  19.254  13.108   4.160
63265W        W27209  40.537  23.515   2.378
63266W        W27210  44.774  44.864  14.462
63267W        W27211   6.739  20.029   2.332
63268W        W27212  44.425  10.252   2.308
63269W        W27213  30.058  38.022  11.565
63270W        W27214   9.382   4.863  13.470
63271W        W27215  41.802  22.074   3.856
63272W        W27216  10.346   5.932   2.758
63273W        W27217  37.524  17.572   1.322
63274W        W27218  12.707  22.530   1.813
63275W        W27219   7.189   5.323  11.466
63276W        W27220   0.771  28.565  11.947
63277W        W27221  20.140  36.877  10.542
63278W        W27222  29.984  27.972   3.171
63279W        W27223   6.783  27.468  12.445
63280W        W27224  32.076  24.515   3.697
63281W        W27225  21.750  14.786  13.430
63282W        W27226  25.655   4.284  12.089
63283W        W27227  27.485   2.831   4.818
63284W        W27228  35.424  15.638   1.815
63285W        W27229  18.244  27.943   3.736
63286W        W27230  13.335  35.588  12.549
63287W        W27231   7.708   4.744  13.346
63288W        W27232   1.925  18.208  10.424
63289W        W27233  29.108  19.046   1.897
63290W        W27234  14.669   2.886  13.032
63291W        W27235  20.231  32.053   2.895
63292W        W27236   5.216   7.407   2.258
63293W        W27237  10.874   9.787  11.426
63294W        W27238  28.436  44.359   3.375
63295W        W27239  25.611  23.221   4.257
63296W        W27240  10.383  35.556  10.493
63297W        W27241  16.647  38.384   3.708
63298W        W27242  15.689  36.972  12.962
63299W        W27243  37.442   9.192  10.912
63300W        W27244  38.833  27.505   2.376
63301W        W27245  25.107  44.996  10.977
63302W        W27246  11.757   9.270  11.969
63303W        W27247  38.903   6.233  10.135
63304W        W27248  26.043  35.533   2.892
63305W        W27249   9.864  18.569  12.542
63306W        W27250  31.612  19.279  13.404
63307W        W27251   1.903  21.628  14.837
63308W        W27252  15.710  26.991   1.303
63309W        W27253  40.357   2.463  13.881
63310W        W27254  38.820  25.522   2.246
63311W        W27255  30.158   4.709   0.312
63312W        W27256  42.845  11.635   1.914
63313W        W27257  32.000  34.469   1.245
63314W        W27258  18.702   6.872   1.369
63315W        W27259  26.090   3.836   2.876
63316W        W27260  21.754  29.096   4.222
63317W        W27261  20.247  26.001   1.448
63318W        W27262  44.466  36.070   3.200
63319W        W27263   0.891  21.711   4.823
63320W        W27264  22.194  16.248   0.867
63321W        W27265   4.342  22.744  14.907
63322W        W27266  26.011  17.615  13.317
63323W        W27267  12.148  30.949   1.396
63324W        W27268   9.789  11.270  12.474
63325W        W27269  32.576  43.433  12.535
63326W        W27270  15.101  14.145   3.263
63327W        W27271  21.615  43.969   4.726
63328W        W27272  17.179  17.645  12.348
63329W        W27273  13.702  33.427  13.036
63330W        W27274  11.206  19.766  12.913
63331W        W27275   6.715   9.343   4.834
63332W        W27276   3.222  44.270   2.665
63333W        W27277  33.455  27.028  10.597
63334W        W27278   1.822   5.244   1.739
63335W        W27279  11.360  38.857   4.163
63336W        W27280  37.531  24.077   4.786
63337W        W27281  20.760  42.942  11.128
63338W        W27282  41.906  24.110   4.624
63339W        W27283  44.931  34.977  12.858
63340W        W27284  42.831  11.319   3.799
63341W        W27285  37.885  22.190   1.837
63342W        W27286  21.556  23.094  12.931
63343W        W27287  17.168  26.587   0.954
63344W        W27288  10.251  36.354   2.396
63345W        W27289  21.112  40.996   1.367
63346W        W27290  21.666  35.103  11.863
63347W        W27291  28.530  32.396   2.376
63348W        W27292  14.706  33.982  14.972
63349W        W27293  38.047  25.534  14.946
63350W        W27294  26.689  27.478   2.310
63351W        W27295  42.803  18.118  12.343
63352W        W27296  17.603  36.474  12.038
63353W        W27297  30.620   0.308  11.108
63354W        W27298  15.623  38.544   3.267
63355W        W27299  20.664   9.725  11.957
63356W        W27300  24.674  42.842  12.036
63357W        W27301   3.930  24.052   3.796
63358W        W27302  42.810  26.539  10.948
63359W        W27303  13.664  30.162   2.364
63360W        W27304   7.352   2.916  10.889
63361W        W27305   2.378  40.532  13.799
63362W        W27306  28.610  11.269   3.790
63363W        W27307  41.334  26.974  10.557
63364W        W27308   8.302   3.871  13.339
63365W        W27309  13.783  20.193  12.857
63366W        W27310  10.745  28.679   2.768
63367W        W27311   9.368  29.001  13.800
63368W        W27312   1.755  24.510   3.752
63369W        W27313  41.994  23.569   3.244
63370W        W27314  43.466  10.648  12.450
63371W        W27315  37.354  17.234   1.806
63372W        W27316  13.308  40.539   0.413
63373W        W27317  30.546   2.887   3.684
63374W        W27318   5.373  12.643  10.425
63375W        W27319   3.867  23.228   1.935
63376W        W27320   7.311  29.120   0.771
63377W        W27321  34.415  28.664  12.471
63378W        W27322  13.752  19.248  11.019
63379W        W27323  40.971  15.652   2.394
63380W        W27324  30.657   8.235  10.937
63381W        W27325  27.476   1.850   1.897
63382W        W27326  40.926  12.815   3.799
63383W        W27327  20.703  42.361  14.374
63384W        W27328  17.628  43.767  12.984
63385W        W27329  40.852  12.832  11.921
63386W        W27330  13.631  17.141  11.094
63387W        W27331  42.322  40.450   2.857
63388W        W27332  39.862  28.031  12.516
63389W        W27333  35.392  19.100   2.409
63390W        W27334  14.221  10.781  13.938
63391W        W27335  19.711   9.660   2.694
63392W        W27336  15.767   2.833   2.848
63393W        W27337  42.341  31.592   1.807
63394W        W27338  15.592  19.095   0.346
63395W        W27339   4.895  11.330   4.599
63396W        W27340  14.782  24.091   4.342
63397W        W27341  24.139  33.053  10.636
63398W        W27342  26.058  35.899   3.220
63399W        W27343  19.780  13.157   2.800
63400W        W27344   4.358  36.075   4.814
63401W        W27345   1.836  13.174  10.427
63402W        W27346  10.667  35.985   0.865
63403W        W27347  38.885  31.914  13.040
63404W        W27348  41.928  22.189  14.275
63405W        W27349  22.720  19.707  10.496
63406W        W27350  11.291  21.617   3.731
63407W        W27351  37.076  27.079   3.804
63408W        W27352  17.123  25.198   2.700
63409W        W27353  10.304   1.930  10.990
63410W        W27354  13.678  26.701  10.952
63411W        W27355  36.354  44.505   0.745
63412W        W27356  35.520  23.718  13.527
63413W        W27357  10.841  25.693   3.795
63414W        W27358  24.669  32.130  11.914
63415W        W27359  27.008  21.256   4.720
63416W        W27360  44.951   0.921   1.772
63417W        W27361  39.000  38.058  11.107
63418W        W27362  35.382  19.618  12.351
63419W        W27363  24.978  29.554  13.421
63420W        W27364  18.591  29.633  11.418
63421W        W27365  40.841   3.288  14.413
63422W        W27366   2.722  16.783   4.355
63423W        W27367  28.050  44.899  12.977
63424W        W27368  34.507  20.029   4.745
63425W        W27369  34.576   3.875  10.603
63426W        W27370  33.561  16.149   2.285
63427W        W27371  40.019  36.482   0.788
63428W        W27372  14.711  13.283   1.784
63429W        W27373  30.053   5.407   3.259
63430W        W27374  31.465  10.341  11.389
63431W        W27375  38.902  20.061  14.453
63432W        W27376  28.991   2.384   1.778
63433W        W27377  15.601  30.508  13.989
63434W        W27378   1.464  21.718   3.303
63435W        W27379  21.603   7.875   4.229
63436W        W27380  23.635  21.714  12.513
63437W        W27381  37.017  11.344  11.420
63438W        W27382  27.989  31.545  13.331
63439W        W27383  31.577  17.653  11.484
63440W        W27384  30.942  37.421  11.593
63441W        W27385  22.610  40.307   2.874
63442W        W27386  36.568  30.642  10.057
63443W        W27387  18.286  25.078  11.514
63444W        W27388  26.685  28.448  10.411
63445W        W27389  36.460   3.228   1.382
63446W        W27390  38.478   2.835   0.886
63447W        W27391   4.282   7.266  12.981
63448W        W27392  22.189  30.943  12.514
63449W        W27393   8.885  34.369   4.823
63450W        W27394   6.358  36.014   0.855
63451W        W27395  16.700   2.232  13.491
63452W        W27396   5.383  34.576  14.411
63453W        W27397  31.139  33.537   0.430
63454W        W27398  22.212  41.028   4.745
63455W        W27399  12.855  27.469  11.013
63456W        W27400   5.274   8.769   1.866
63457W        W27401  41.368  36.994  14.883
63458W        W27402   4.773  25.588  13.878
63459W        W27403  31.119  22.137   3.257
63460W        W27404  42.402  39.871   0.861
63461W        W27405  25.482   9.671   4.326
63462W        W27406  39.540  24.676  11.528
63463W        W27407   6.305   9.174  12.496
63464W        W27408   3.226  22.036  11.510
63465W        W27409  21.227  12.665   4.742
63466W        W27410  33.106  33.998  11.375
63467W        W27411  35.574   8.299   2.843
63468W        W27412   5.815  31.446   2.317
63469W        W27413   1.755  24.585  10.965
63470W        W27414  25.659  24.181   0.949
63471W        W27415  25.599  29.088  13.384
63472W        W27416  32.044  17.676   2.300
63473W        W27417  15.266  39.377   1.347
63474W        W27418  12.188  23.498  11.999
63475W        W27419  12.161  30.055  14.889
63476W        W27420   7.184  19.180  13.835
63477W        W27421  44.860  35.404   3.843
63478W        W27422  32.406  34.542   2.878
63479W        W27423  16.762   8.719  12.913
63480W        W27424  13.229  36.938  13.498
63481W        W27425  36.966  15.297   2.821
63482W        W27426  28.981  13.607   1.272
63483W        W27427  18.236  14.306   5.168
63484W        W27428   2.823  34.982  12.509
63485W        W27429  39.837   3.739   3.730
63486W        W27430  14.147  17.243   0.426
63487W        W27431  37.355  27.682   1.321
63488W        W27432  15.785  18.616  14.311
63489W        W27433   1.954   4.744   3.770
63490W        W27434  12.132  28.536   4.709
63491W        W27435  33.434  29.055  13.454
63492W        W27436  44.843  34.575   3.277
63493W        W27437  37.361   3.425   9.595
63494W        W27438  34.023  25.091  12.983
63495W        W27439  32.524  36.889   3.178
63496W        W27440   1.839  13.799   4.120
63497W        W27441  41.959  42.392  13.025
63498W        W27442  10.304  34.397  14.816
63499W        W27443  20.564  22.128   4.152
63500W        W27444  15.778  41.406  14.934
63501W        W27445   4.435  14.667   0.816
63502W        W27446  27.467  25.040   3.672
63503W        W27447  25.170  11.150  10.426
63504W        W27448  22.635   7.352   1.748
63505W        W27449  35.024  15.695  12.075
63506W        W27450   0.276  18.271  14.783
63507W        W27451  35.554  17.220  14.467
63508W        W27452  43.459  10.642  13.347
63509W        W27453  39.333  44.847  13.393
63510W        W27454   6.190  19.684   0.321
63511W        W27455  19.591   8.885   9.983
63512W        W27456  21.625  10.298  10.992
63513W        W27457  39.919  32.563  13.990
63514W        W27458   1.734  39.021  14.763
63515W        W27459  36.963   2.740  14.014
63516W        W27460  23.044  20.718  12.939
63517W        W27461  13.244  25.668   4.630
63518W        W27462  21.088  11.803   1.871
63519W        W27463  12.217  26.681   4.162
63520W        W27464  38.546  30.618   3.782
63521W        W27465   9.682  28.991  12.035
63522W        W27466  29.424  10.191   0.853
63523W        W27467  38.927   4.364   0.384
63524W        W27468  15.294  17.724   0.245
63525W        W27469  23.076  28.641   4.709
63526W        W27470  38.912  19.551   3.825
63527W        W27471  29.959   0.885  11.528
63528W        W27472  22.193  41.920  14.993
63529W        W27473  15.750  38.824  11.467
63530W        W27474   7.224  27.961   1.368
63531W        W27475   0.751  37.915  11.927
63532W        W27476   6.354   1.773   2.181
63533W        W27477  11.200  14.664  12.346
63534W        W27478  10.757  33.432   2.294
63535W        W27479  36.385  27.985   3.155
63536W        W27480  40.303  19.755   5.227
63537W        W27481   4.850  27.161   2.721
63538W        W27482  19.555   2.726   4.737
63539W        W27483   3.438  24.107   4.732
63540W        W27484  10.203   7.186   0.245
63541W        W27485  37.571  29.543  12.348
63542W        W27486  27.644  38.452  14.469
63543W        W27487  34.898  31.032  10.589
63544W        W27488  38.026   8.283  11.858
63545W        W27489  11.370  11.157  14.319
63546W        W27490  15.582  29.052  14.997
63547W        W27491   8.236  11.305  10.476
63548W        W27492  27.541   7.858  14.279
63549W        W27493  32.011   2.366  13.417
63550W        W27494  25.505  33.067  14.383
63551W        W27495  30.577  31.643   2.696
63552W        W27496  37.577  35.365  14.360
63553W        W27497   2.828  10.158  12.836
63554W        W27498  27.061  29.015  11.084
63555W        W27499  17.567  41.848   3.692
63556W        W27500  12.130   3.309  10.514
63557W        W27501   5.432   1.899  10.534
63558W        W27502  31.524  21.181   1.365
63559W        W27503   2.961  22.547  13.993
63560W        W27504  41.800  36.543   1.800
63561W        W27505  18.253  14.104   1.248
63562W        W27506  17.569  25.130  13.060
63563W        W27507  14.236  39.055  10.501
63564W        W27508  16.103   8.901   9.529
63565W        W27509  24.033  17.592  10.971
63566W        W27510  41.376   2.278   0.790
63567W        W27511  27.028  20.172  12.982
63568W        W27512  20.136   8.767  13.924
63569W        W27513  38.549   7.708   1.281
63570W        W27514  13.747  41.970  11.059
63571W        W27515  41.329  11.189  13.967
63572W        W27516  28.530  37.836   3.686
63573W        W27517   1.904   0.251  11.417
63574W        W27518   7.240  35.421  11.555
63575W        W27519  10.718  34.889  10.935
63576W        W27520  23.048  25.507  10.528
63577W        W27521  28.644   8.260  14.978
63578W        W27522   2.456  40.907   2.200
63579W        W27523  21.616  28.004   2.327
63580W        W27524  14.207  16.191  10.489
63581W        W27525  23.075  44.479  12.995
63582W        W27526  42.960  39.524   0.292
63583W        W27527  42.472  41.873  12.431
63584W        W27528  38.992  17.107   3.198
63585W        W27529  18.567  22.212   0.940
63586W        W27530  23.032  43.898  14.409
63587W        W27531  22.101  14.640   3.860
63588W        W27532  13.188  16.105   2.280
63589W        W27533   0.906  36.460  13.972
63590W        W27534   0.815  32.942   0.909
63591W        W27535   2.426  24.075  13.375
63592W        W27536  24.207  27.179   0.321
63593W        W27537  28.677  16.244   5.177
63594W        W27538   6.332  23.074   1.443
63595W        W27539   7.730  36.938  11.028
63596W        W27540   8.283  19.591   1.829
63597W        W27541   2.878   2.447   1.874
63598W        W27542  25.106  10.750   3.180
63599W        W27543  39.349  20.659  13.796
63600W        W27544   2.890  29.971  12.069
63601W        W27545  15.631  34.928  14.946
63602W        W27546  15.142  17.195   3.777
63603W        W27547   7.302  20.136   3.811
63604W        W27548  10.793   9.270  11.601
63605W        W27549  36.365  12.759   3.791
63606W        W27550  21.148  35.923  13.949
63607W        W27551  12.357   7.236   4.300
63608W        W27552  23.713   5.223   2.303
63609W        W27553  12.648  17.246  11.093
63610W        W27554  20.598  40.914  11.970
63611W        W27555   6.184  43.881  10.532
63612W        W27556  44.333  31.463  14.382
63613W        W27557  19.733  29.526  12.981
63614W        W27558   9.338  10.821  14.305
63615W        W27559  41.380  32.943  10.543
63616W        W27560  26.095  32.419   2.685
63617W        W27561  39.405   3.383  14.439
63618W        W27562  32.067   1.372   4.146
63619W        W27563   7.279   7.768  13.479
63620W        W27564   3.807  38.374  11.513
63621W        W27565   7.687   4.354  14.388
63622W        W27566  23.113  13.702   1.759
63623W        W27567  19.230  15.726   0.732
63624W        W27568   6.899  31.920  14.897
63625W        W27569  32.422   6.392  13.469
63626W        W27570  31.589  44.362   4.325
63627W        W27571   4.206  13.766  14.002
63628W        W27572  21.654  41.987  11.003
63629W        W27573  13.317  37.405   1.229
63630W        W27574   2.764  24.191  12.064
63631W        W27575  14.239  43.304  14.985
63632W        W27576  10.800  19.093   1.890
63633W        W27577  22.645  41.330  13.878
63634W        W27578   6.826  20.152  10.480
63635W        W27579  34.586   1.407   4.274
63636W        W27580  17.222  24.068  12.342
63637W        W27581  14.643  17.279  10.417
63638W        W27582  43.471   3.416  11.454
63639W        W27583  24.644  12.308  14.341
63640W        W27584  17.177  38.835   5.115
63641W        W27585  42.441  39.045   2.857
63642W        W27586  43.486  36.590  13.534
63643W        W27587   5.400  16.757   1.240
63644W        W27588  32.583  40.879   0.841
63645W        W27589  39.054  38.529   2.791
63646W        W27590  12.255   5.432  12.007
63647W        W27591  36.923  21.731   2.811
63648W        W27592   5.396   6.286   3.195
63649W        W27593   9.161  32.908   3.631
63650W        W27594  44.983   1.483  11.511
63651W        W27595   9.715  39.055   2.777
63652W        W27596  22.552  17.161   4.704
63653W        W27597  38.953  43.287   1.867
63654W        W27598  12.203  38.389  14.998
63655W        W27599  27.559   8.730  10.946
63656W        W27600   5.803  41.447  14.870
63657W        W27601  21.194  27.168  10.445
63658W        W27602   3.922  32.413  14.856
63659W        W27603  13.652   4.380  11.009
63660W        W27604  24.698   3.945  13.849
63661W        W27605  43.773  37.943  10.920
63662W        W27606  20.706  28.958   4.703
63663W        W27607  26.978   2.754  14.810
63664W        W27608  22.065  39.009  12.523
63665W        W27609  13.737  23.039  11.931
63666W        W27610   3.344  41.938  12.473
63667W        W27611  19.167  30.611  13.999
63668W        W27612  19.070  24.494   2.343
63669W        W27613   7.387  31.080   0.856
63670W        W27614   8.316  24.556  12.465
63671W        W27615  40.871  28.058   3.756
63672W        W27616  42.932  38.430  10.941
63673W        W27617   8.721   8.766  13.990
63674W        W27618  39.045  14.704  12.965
63675W        W27619  17.618  43.447   2.755
63676W        W27620  34.071  25.504   1.821
63677W        W27621   8.386  30.993  14.831
63678W        W27622   9.774  31.497   5.149
63679W        W27623  15.750  38.043  12.387
63680W        W27624  12.660   1.949   4.115
63681W        W27625  17.281  31.553   0.959
63682W        W27626  24.028   0.448  14.280
63683W        W27627  14.603  31.968   3.223
63684W        W27628  33.989  44.847  14.504
63685W        W27629   5.287  26.610  12.035
63686W        W27630  36.438  36.516  11.588
63687W        W27631   3.723  11.823  10.111
63688W        W27632  22.092  43.883  13.926
63689W        W27633   8.849  24.519   1.898
63690W        W27634  20.087  36.348  12.515
63691W        W27635   3.847  15.324  14.943
63692W        W27636  17.113   8.383  13.384
63693W        W27637  19.081  23.009  13.825
63694W        W27638  26.007  19.209   1.217
63695W        W27639   4.712  16.720  12.038
63696W        W27640  24.545   7.675  11.105
63697W        W27641  15.229   6.778   1.235
63698W        W27642  21.691  13.632  14.968
63699W        W27643   9.285  10.661  11.001
63700W        W27644  33.892  29.044  11.892
63701W        W27645  32.063  38.362   4.831
63702W        W27646   2.347  39.452   3.327
63703W        W27647  13.245  17.222  12.508
63704W        W27648  13.745  15.302   0.927
63705W        W27649  29.053  22.502   0.437
63706W        W27650  16.238   0.408  13.338
63707W        W27651  17.675  34.509  12.047
63708W        W27652  38.874  33.530  12.545
63709W        W27653  12.287  12.194   3.739
63710W        W27654  15.670   8.779   0.912
63711W        W27655  25.556   4.879   0.843
63712W        W27656  20.744  12.707  13.996
63713W        W27657  23.602  24.998  10.417
63714W        W27658  44.762  21.029   3.713
63715W        W27659   7.719  13.167  14.426
63716W        W27660  34.541  18.609  12.545
63717W        W27661   3.850  42.806  10.581
63718W        W27662  40.810  11.278  12.398
63719W        W27663  21.108  12.333   1.389
63720W        W27664  20.677  37.981  11.062
63721W        W27665  21.511  19.722  14.492
63722W        W27666  21.673  11.138   1.233
63723W        W27667  37.951   4.379   0.451
63724W        W27668  25.670  36.427   3.841
63725W        W27669  32.607  44.947  12.578
63726W        W27670  36.586  43.334  12.427
63727W        W27671   7.400  36.032  14.919
63728W        W27672  32.886   4.810  12.985
63729W        W27673  23.151  15.579   4.651
63730W        W27674  41.027  10.807  11.001
63731W        W27675  26.173  32.978   3.774
63732W        W27676  20.557  13.338   1.840
63733W        W27677  41.827  42.331  12.465
63734W        W27678  38.060  24.112   0.378
63735W        W27679  26.600  24.485   3.686
63736W        W27680  21.678   1.784   4.729
63737W        W27681  28.004   1.963  11.096
63738W        W27682  39.356  16.151   2.713
63739W        W27683  25.649  40.358  10.951
63740W        W27684  21.170   1.331   3.815
63741W        W27685  29.988   0.893   4.181
63742W        W27686  21.104  22.208  13.885
63743W        W27687   2.937  17.295   0.915
63744W        W27688   2.742  40.874  10.605
63745W        W27689   2.865  30.584   1.449
63746W        W27690  17.279  18.181   3.780
63747W        W27691  32.903  41.959  10.959
63748W        W27692   9.202  19.210  14.830
63749W        W27693  23.141  41.459   4.264
63750W        W27694  20.203   6.923  11.598
63751W        W27695  42.855  24.535  14.986
63752W        W27696   4.444   7.193   4.786
63753W        W27697  17.728  34.409   4.113
63754W        W27698  34.574  16.119   1.255
63755W        W27699  21.127  20.100  11.530
63756W        W27700  38.849   5.284   1.283
63757W        W27701  16.317  25.530  14.437
63758W        W27702  10.328  13.616  10.443
63759W        W27703  23.177  37.459  10.457
63760W        W27704  30.566  32.616  10.465
63761W        W27705  40.376  37.538  10.429
63762W        W27706  42.447  15.767   3.308
63763W        W27707   7.899  30.547   1.917
63764W        W27708   0.350  41.816   0.730
63765W        W27709  18.221  44.387  11.563
63766W        W27710  24.563  18.548  12.542
63767W        W27711  28.090  38.551  13.349
63768W        W27712  13.755   5.910  11.458
63769W        W27713  28.185   1.767  14.900
63770W        W27714  11.280   1.429   9.565
63771W        W27715   3.888  34.945   4.161
63772W        W27716  36.514  27.542  11.038
63773W        W27717  29.998  31.539   2.722
63774W        W27718   4.364  12.192  10.581
63775W        W27719  42.449  36.456  12.833
63776W        W27720   4.822   0.964  14.498
63777W        W27721   1.361   7.844  13.538
63778W        W27722   6.807  25.099  13.855
63779W        W27723  33.881   3.239  10.483
63780W        W27724   7.197  10.735  14.759
63781W        W27725  17.135   2.873   1.784
63782W        W27726  24.983  39.959   3.195
63783W        W27727   1.468  37.033  13.337
63784W        W27728  35.064  16.259  10.986
63785W        W27729  37.843  12.181  13.816
63786W        W27730   5.908   2.884  11.948
63787W        W27731  11.262  25.175  11.973
63788W        W27732   4.724  28.485  10.595
63789W        W27733   2.354  42.851   3.208
63790W        W27734   2.882  39.828   0.832
63791W        W27735  33.885  37.493  11.524
63792W        W27736   7.231   9.268  13.505
63793W        W27737  13.629  43.781  12.534
63794W        W27738   9.303  25.682   4.205
63795W        W27739  13.729   6.372   1.732
63796W        W27740  41.406  23.089   0.918
63797W        W27741  28.475  31.518   4.609
63798W        W27742  24.518  12.666  12.066
63799W        W27743  30.508  32.408   5.123
63800W        W27744   1.458   7.206   2.204
63801W        W27745  15.090  19.772  12.409
63802W        W27746  43.450   6.797   3.680
63803W        W27747   8.833  36.077  11.041
63804W        W27748  37.025  36.522   2.244
63805W        W27749  43.778   4.259   3.312
63806W        W27750  21.569  37.527  11.067
63807W        W27751   5.806  36.038  11.428
63808W        W27752  38.822  10.213   1.366
63809W        W27753  27.013   1.830  11.989
63810W        W27754  37.084  37.890   2.220
63811W        W27755   5.205   1.751  13.522
63812W        W27756   0.319  29.040  14.407
63813W        W27757  33.109  33.574  11.080
63814W        W27758   6.914   9.330   3.165
63815W        W27759  11.709  24.975  12.087
63816W        W27760   5.912  18.266   0.450
63817W        W27761  13.215   7.882   2.724
63818W        W27762  18.744  41.924   0.784
63819W        W27763   3.906  23.513   0.932
63820W        W27764  27.546  16.145  13.828
63821W        W27765  14.172  33.477  12.572
63822W        W27766  17.703  15.220   1.290
63823W        W27767  23.575  14.178  14.444
63824W        W27768  24.140  37.437  14.799
63825W        W27769  17.269  30.105  10.976
63826W        W27770  37.858  24.006   1.402
63827W        W27771  25.207   8.669   1.304
63828W        W27772  27.027  15.134  13.850
63829W        W27773  15.205   1.956   2.209
63830W        W27774  25.060  40.408   4.706
63831W        W27775   8.226   3.267   1.841
63832W        W27776  44.443  28.993   2.887
63833W        W27777  28.048  22.038   1.414
63834W        W27778   3.344  14.654   1.911
63835W        W27779  36.945   3.920   2.267
63836W        W27780  19.255   0.307  11.921
63837W        W27781   5.873  40.942  14.794
63838W        W27782  11.861  41.425  11.403
63839W        W27783  26.094  13.718   1.421
63840W        W27784  17.272  21.225   1.402
63841W        W27785   8.827  20.130   3.365
63842W        W27786  31.434  18.210  11.094
63843W        W27787   9.731  19.106  11.032
63844W        W27788  23.498   0.955  12.344
63845W        W27789  34.998  29.546   2.760
63846W        W27790   0.817  43.285   2.792
63847W        W27791  31.460  43.917  14.322
63848W        W27792  30.123  12.330  13.049
63849W        W27793  36.474  14.803  12.535
63850W        W27794  13.714  23.997  11.011
63851W        W27795   4.235  24.646  11.512
63852W        W27796   8.656  11.275   1.266
63853W        W27797  33.918  16.611  11.033
63854W        W27798  11.154   3.394   5.298
63855W        W27799   2.321  30.156   2.765
63856W        W27800  26.517  37.516  11.896
63857W        W27801  16.280   0.427   3.709
63858W        W27802  10.234  29.085   3.364
63859W        W27803  21.591  42.011   1.363
63860W        W27804   3.250  31.566   0.353
63861W        W27805  41.528   2.736   2.852
63862W        W27806  39.989  41.359   4.294
63863W        W27807  37.472  15.286   2.877
63864W        W27808  21.103  12.702   0.792
63865W        W27809  22.253   8.693   3.284
63866W        W27810  27.981  11.686   0.857
63867W        W27811  13.786  35.536   2.357
63868W        W27812   6.254  33.078  11.608
63869W        W27813  14.198  43.000  14.288
63870W        W27814   6.914  37.424   4.829
63871W        W27815  24.619  42.008  13.025
63872W        W27816  28.093  37.961  13.005
63873W        W27817   4.750  31.947   1.718
63874W        W27818  21.744  14.678  13.976
63875W        W27819   1.295   4.759   4.245
63876W        W27820  24.520  21.627  11.077
63877W        W27821  16.275   3.350  13.797
63878W        W27822  15.770  23.116   3.384
63879W        W27823  34.024  40.811   1.240
63880W        W27824   0.280  36.365   0.442
63881W        W27825  24.115  15.781  14.001
63882W        W27826  38.874   6.898   1.388
63883W        W27827  41.294  39.940  12.994
63884W        W27828  12.782   8.305  12.375
63885W        W27829  40.984  38.897   1.324
63886W        W27830   4.345  13.254  14.418
63887W        W27831  12.301   0.423  12.486
63888W        W27832  29.947  13.124   1.254
63889W        W27833  42.881   2.299  12.013
63890W        W27834  19.260  12.626   4.729
63891W        W27835  40.028  34.579  12.516
63892W        W27836  16.142   4.406  14.501
63893W        W27837  12.785   3.734  12.843
63894W        W27838  21.091  18.667   3.304
63895W        W27839  44.273  36.026  11.598
63896W        W27840  20.646  22.565  12.875
63897W        W27841  15.579  24.541  14.976
63898W        W27842  28.576  15.761   4.793
63899W        W27843  18.641  15.306  12.058
63900W        W27844  28.037   7.829  12.497
63901W        W27845  27.983  26.050   3.281
63902W        W27846  15.670  10.673  12.929
63903W        W27847  32.514  23.571  12.531
63904W        W27848   0.324  35.456  14.936
63905W        W27849  18.759  14.831   4.306
63906W        W27850  28.133  12.263   2.847
63907W        W27851  42.949  31.078   1.706
63908W        W27852  10.306  33.995  14.995
63909W        W27853  16.645   2.347   3.344
63910W        W27854   2.910   5.702   3.829
63911W        W27855   6.914   8.689  10.566
63912W        W27856  30.504  25.173  11.540
63913W        W27857  20.041  40.039   3.349
63914W        W27858  14.337  34.937   4.288
63915W        W27859  15.142   4.863   0.774
63916W        W27860  34.610   2.792   2.382
63917W        W27861  25.512  17.575   2.855
63918W        W27862   2.431  14.285  12.403
63919W        W27863  33.477  33.970  14.863
63920W        W27864  40.448  10.752  12.957
63921W        W27865   3.264  34.914  14.001
63922W        W27866  24.065  14.677   4.700
63923W        W27867  19.158  36.382   0.327
63924W        W27868   6.324  41.033   2.257
63925W        W27869  41.849  41.787  14.968
63926W        W27870  38.984  10.195  11.027
63927W        W27871   1.739   0.771  14.800
63928W        W27872  23.607  14.642  11.432
63929W        W27873   1.927   7.281   3.371
63930W        W27874  43.404   5.292   4.204
63931W        W27875  10.861  20.707   3.265
63932W        W27876   2.888  14.775   3.742
63933W        W27877   8.672  34.018  14.375
63934W        W27878   2.302  35.895   2.676
63935W        W27879  44.892  19.188  11.562
63936W        W27880  29.643   7.724  12.524
63937W        W27881  41.529   3.438  10.530
63938W        W27882  40.389  22.658   5.194
63939W        W27883  26.045  44.303   0.253
63940W        W27884   1.834  43.430  10.474
63941W        W27885  14.605   5.701   3.841
63942W        W27886  30.937   5.765  11.060
63943W        W27887  11.324  44.465  11.898
63944W        W27888  17.239  11.251  11.010
63945W        W27889  26.114  40.959  14.402
63946W        W27890  24.030  43.316   1.346
63947W        W27891  25.602  22.159  13.948
63948W        W27892  28.481   7.252  14.880
63949W        W27893  34.038  40.359   1.719
63950W        W27894  19.722   7.799   4.265
63951W        W27895  23.026  10.181   3.383
63952W        W27896  31.088  41.423  12.503
63953W        W27897  17.283  28.941  11.026
63954W        W27898   3.892  21.101   2.790
63955W        W27899  22.745  34.529   0.308
63956W        W27900   8.871  14.684   0.471
63957W        W27901   3.920   9.291   2.340
63958W        W27902  26.608  33.483  12.545
63959W        W27903  16.593  23.088  11.042
63960W        W27904  24.206   9.173   2.338
63961W        W27905  27.539   1.239   2.841
63962W        W27906  15.775   9.863  13.987
63963W        W27907  36.501   6.238  13.340
63964W        W27908   7.816  39.329  12.357
63965W        W27909  20.032  26.518   4.187
63966W        W27910  39.445   5.813   4.121
63967W        W27911  29.946  10.363   2.238
63968W        W27912  24.027  16.300   3.762
63969W        W27913  11.239  24.526   3.653
63970W        W27914  12.346  19.726  10.611
63971W        W27915  35.495  12.321  12.011
63972W        W27916   6.800   6.225  11.982
63973W        W27917  44.893  16.245  11.560
63974W        W27918   1.745  37.839   4.351
63975W        W27919   3.365   7.902   5.201
63976W        W27920  10.153  11.628  11.603
63977W        W27921  13.225  22.997  10.555
63978W        W27922   4.846   0.457   2.716
63979W        W27923  24.210  12.127  10.626
63980W        W27924   4.728  40.927   3.364
63981W        W27925  17.675  33.898   4.344
63982W        W27926   6.320  14.211  10.074
63983W        W27927   2.356  11.867   1.425
63984W        W27928  32.535  15.597  13.058
63985W        W27929  19.220  38.388   4.755
63986W        W27930  40.400  42.847  12.846
63987W        W27931  22.105  38.333   3.809
63988W        W27932   5.380  28.669   2.320
63989W        W27933   2.926  12.735  11.048
63990W        W27934   2.266  33.439  12.972
63991W        W27935  29.174   8.692  12.482
63992W        W27936   1.927   9.731   4.291
63993W        W27937   0.935  22.724  14.890
63994W        W27938  12.205  30.968  13.019
63995W        W27939  12.653  25.065  13.050
63996W        W27940  12.775   2.807  10.444
63997W        W27941  22.623   9.282   0.304
63998W        W27942  17.166  32.498   3.787
63999W        W27943  19.540   1.892   2.786
64000W        W27944  14.764  42.836   2.394
64001W        W27945  21.222  18.152   9.928
64002W        W27946  27.148  30.651  13.863
64003W        W27947  19.595  24.193   9.539
64004W        W27948  13.631  31.947  12.362
64005W        W27949  14.797  30.950  12.364
64006W        W27950  29.923   3.824  10.947
64007W        W27951   7.746  21.165  13.018
64008W        W27952  31.428  31.932   2.384
64009W        W27953   2.945   8.188  11.522
64010W        W27954  26.655  11.317   9.952
64011W        W27955  15.764  25.570  11.057
64012W        W27956   8.304   9.787  14.409
64013W        W27957  44.992  15.781  11.073
64014W        W27958  36.465   3.928  13.046
64015W        W27959  28.972   3.796  11.097
64016W        W27960  22.013  28.150  14.017
64017W        W27961  16.268  44.933   3.232
64018W        W27962  12.764  26.688  10.442
64019W        W27963  29.466   4.828   4.661
64020W        W27964   5.864   3.913   0.289
64021W        W27965  11.653  37.408   2.694
64022W        W27966  39.827   1.936   1.447
64023W        W27967   4.893  42.523   5.151
64024W        W27968   1.306  23.171   2.394
64025W        W27969   3.344  15.817   4.346
64026W        W27970  21.588  28.438   1.866
64027W        W27971  36.356  13.723   2.890
64028W        W27972  32.451   3.370  12.986
64029W        W27973  23.572  33.089  13.804
64030W        W27974  25.090  27.584  13.792
64031W        W27975   2.742  21.198  12.007
64032W        W27976  12.855  43.851   2.204
64033W        W27977  31.124  34.863   2.686
64034W        W27978  24.075  24.616   2.356
64035W        W27979  22.104  25.602  12.573
64036W        W27980  22.583  21.152  13.473
64037W        W27981  15.765   8.677   9.507
64038W        W27982  12.277  41.445  13.970
64039W        W27983  20.611  27.118   1.868
64040W        W27984  21.115  16.271   0.781
64041W        W27985  21.044  22.209   2.398
64042W        W27986  34.534   1.925  14.424
64043W        W27987  22.674  32.009  12.073
64044W        W27988  15.746  38.836   2.268
64045W        W27989  15.123  42.323   1.271
64046W        W27990  23.116  31.006   1.380
64047W        W27991  22.038   3.390   0.470
64048W        W27992  13.272   4.944   3.660
64049W        W27993  28.004  33.936  12.862
64050W        W27994   8.286   3.287  11.515
64051W        W27995  19.231  25.695  14.025
64052W        W27996  17.227   6.780  10.925
64053W        W27997   6.797   0.814   3.716
64054W        W27998   7.260  26.152  11.583
64055W        W27999  17.800   1.378   3.814
64056W        W28000  28.620  10.857  12.469
64057W        W28001  10.698  25.609   4.813
64058W        W28002  30.983  33.498   2.382
64059W        W28003  37.532  32.592   3.785
64060W        W28004  43.830   3.768  12.467
64061W        W28005  21.114  17.279  14.292
64062W        W28006  27.196  16.575   3.844
64063W        W28007  13.333  23.985  12.866
64064W        W28008  35.525  36.074  13.494
64065W        W28009  42.309  38.006  11.945
64066W        W28010  13.612  25.507   3.667
64067W        W28011   4.216  13.723  10.553
64068W        W28012  11.301  40.541  11.473
64069W        W28013  32.489  42.479   4.734
64070W        W28014  33.391  19.156   0.933
64071W        W28015  10.756   4.369   1.342
64072W        W28016  25.566  34.458   9.993
64073W        W28017  23.133   5.269  13.350
64074W        W28018  29.594  33.050   2.813
64075W        W28019  37.434   2.908   2.672
64076W        W28020   1.839   1.857   1.288
64077W        W28021  32.960   5.768   0.853
64078W        W28022   7.901  40.861  13.390
64079W        W28023  44.333  14.278  14.787
64080W        W28024   3.423  16.150  14.864
64081W        W28025  29.477  27.981   4.660
64082W        W28026  44.929  43.940  11.100
64083W        W28027  14.813  20.573   1.240
64084W        W28028  21.108  35.564   1.342
64085W        W28029   8.732  25.135  12.835
64086W        W28030   6.834  10.740  13.836
64087W        W28031   8.219  31.625   3.639
64088W        W28032  32.497  31.949   4.756
64089W        W28033  21.243   3.850   1.215
64090W        W28034  43.994   2.370   3.372
64091W        W28035   0.287   5.363  10.429
64092W        W28036  31.626  43.898  10.985
64093W        W28037   0.898   6.711   0.360
64094W        W28038  22.173  13.738  14.330
64095W        W28039  17.740  34.479  12.441
64096W        W28040  15.263  40.832  13.383
64097W        W28041  44.808  32.543   4.773
64098W        W28042  11.285  25.977  13.863
64099W        W28043  30.992  29.142   4.663
64100W        W28044  27.160   9.770  12.077
64101W        W28045  37.971  17.160   4.263
64102W        W28046  32.080  16.567  13.376
64103W        W28047  31.488  28.954  12.924
64104W        W28048  39.950  10.746   2.877
64105W        W28049   2.424  39.450   2.416
64106W        W28050   5.890  10.264   3.820
64107W        W28051   5.806  40.995  12.087
64108W        W28052  14.607   8.366   4.212
64109W        W28053  20.561  29.440   0.923
64110W        W28054  24.644  35.517   0.769
64111W        W28055  33.385   9.799   0.774
64112W        W28056  27.112  42.790   5.181
64113W        W28057  31.108  38.948   3.672
64114W        W28058   5.799  43.424   0.375
64115W        W28059  42.446   4.356  10.420
64116W        W28060   6.369  11.746   4.308
64117W        W28061  33.017  39.371  13.406
64118W        W28062   6.190  15.220  10.896
64119W        W28063   4.316  43.392  14.294
64120W        W28064  22.706  44.502  11.911
64121W        W28065  30.417  15.295   4.282
64122W        W28066  40.535  15.765  10.104
64123W        W28067  11.255   0.349  11.082
64124W        W28068   5.436  10.748  14.432
64125W        W28069   9.794  26.113   1.444
64126W        W28070  16.797  31.970  12.573
64127W        W28071  18.669  17.686  13.361
64128W        W28072  36.591   1.871   0.897
64129W        W28073  23.522  18.681   4.170
64130W        W28074  23.133   7.700  12.024
64131W        W28075   5.708  40.309   2.375
64132W        W28076  32.042   3.259  12.577
64133W        W28077  15.700   4.936   1.706
64134W        W28078  22.156  36.080  12.885
64135W        W28079  13.211  21.110  11.553
64136W        W28080   4.937  23.098  13.479
64137W        W28081   9.343   8.673  12.563
64138W        W28082  29.134  14.718   4.259
64139W        W28083  26.119  19.041   1.766
64140W        W28084  24.070  16.628  13.462
64141W        W28085   5.700   5.897  12.537
64142W        W28086  41.829   6.855  10.448
64143W        W28087  27.951  12.853  11.385
64144W        W28088   4.267  41.924  13.326
64145W        W28089  16.122  42.395  10.487
64146W        W28090  34.953  11.661   1.213
64147W        W28091  42.829  23.653  13.385
64148W        W28092  13.195   2.928   2.889
64149W        W28093  23.723  25.480  10.567
64150W        W28094   8.207  29.115   4.172
64151W        W28095   6.810   6.916   3.852
64152W        W28096  44.386  39.960  10.899
64153W        W28097   1.406  11.358  14.847
64154W        W28098   5.351  39.884  12.408
64155W        W28099  19.238  11.368  12.065
64156W        W28100  27.595  25.523   3.362
64157W        W28101  17.239  10.200   1.251
64158W        W28102  25.168  14.718  13.792
64159W        W28103   8.804  26.104   4.290
64160W        W28104  31.053   7.717   3.742
64161W        W28105   8.837   1.879  11.096
64162W        W28106  20.094   0.742   1.768
64163W        W28107  30.006   0.317   3.183
64164W        W28108  25.672   3.427   2.870
64165W        W28109  16.661  31.420  13.314
64166W        W28110  22.698   9.651  12.063
64167W        W28111  21.182  27.671   3.204
64168W        W28112   3.215  32.995  12.828
64169W        W28113  12.145  26.964   3.787
64170W        W28114   9.377   5.257  12.484
64171W        W28115  12.781  25.481   2.889
64172W        W28116   1.392  44.361  14.784
64173W        W28117  15.258  44.301  11.413
64174W        W28118   4.782   7.813   3.383
64175W        W28119  12.675  42.321   4.114
64176W        W28120   1.280  25.190  13.055
64177W        W28121  35.063  39.005  11.956
64178W        W28122   6.258  32.994  13.430
64179W        W28123  24.501  10.233  12.014
64180W        W28124  22.016  22.572   3.846
64181W        W28125  34.525   6.273   1.225
64182W        W28126  31.519   0.959   4.694
64183W        W28127  35.023   8.366   3.865
64184W        W28128  31.554   3.755   4.273
64185W        W28129   3.861  26.479  11.937
64186W        W28130  17.786  18.552   3.869
64187W        W28131  30.035  23.125  13.408
64188W        W28132  38.427  39.829  14.497
64189W        W28133  24.201  30.960   2.775
64190W        W28134  21.621   0.335   3.731
64191W        W28135  30.044   6.197   1.265
64192W        W28136  17.180  30.001   0.466
64193W        W28137  37.438  23.165  14.821
64194W        W28138  32.571   7.253   2.785
64195W        W28139   9.372  42.330  12.080
64196W        W28140  43.291  24.187  10.604
64197W        W28141  23.652  31.501   3.807
64198W        W28142  11.690   1.304  13.791
64199W        W28143  23.689  32.489   4.277
64200W        W28144  12.773  18.071   2.822
64201W        W28145  43.385  37.516  14.315
64202W        W28146  19.693  24.055   0.865
64203W        W28147  12.349  10.757   4.679
64204W        W28148   0.460   7.249   3.679
64205W        W28149  39.424   6.341   1.847
64206W        W28150  24.605   3.833   0.932
64207W        W28151  39.447  35.392   0.839
64208W        W28152  17.590  32.011   1.321
64209W        W28153  23.215   9.371  13.362
64210W        W28154  31.117   0.752  11.558
64211W        W28155   6.333   6.220   2.417
64212W        W28156   4.729  41.027   4.305
64213W        W28157   6.302  31.551   1.364
64214W        W28158  40.504  25.088  10.029
64215W        W28159  38.409   3.332   4.141
64216W        W28160  40.889  39.902   3.245
64217W        W28161  20.684  17.169  11.503
64218W        W28162   8.712   6.724   4.347
64219W        W28163  21.562  42.442  13.409
64220W        W28164  21.530  12.357  14.972
64221W        W28165  23.553   9.353  14.348
64222W        W28166   6.813  23.112  10.431
64223W        W28167  14.769  44.913   0.348
64224W        W28168  10.158  36.921   2.350
64225W        W28169  42.992  32.015  11.593
64226W        W28170  12.216  44.307  12.835
64227W        W28171  43.995  25.515   2.792
64228W        W28172  10.705   3.786  11.384
64229W        W28173  14.654   6.859   3.802
64230W        W28174  39.540   0.970  13.017
64231W        W28175  21.156   4.938   3.208
64232W        W28176  25.596   3.368  14.313
64233W        W28177   6.393  17.234  10.927
64234W        W28178   8.355  14.746   5.178
64235W        W28179  27.058  31.427   4.606
64236W        W28180  34.442  27.964   1.725
64237W        W28181   5.256  13.173  10.552
64238W        W28182  27.079  30.463  11.052
64239W        W28183  17.680  37.027   3.801
64240W        W28184  23.205   9.666  14.306
64241W        W28185  38.024   1.258   2.737
64242W        W28186  23.179  18.275   3.829
64243W        W28187  17.264  21.703   4.642
64244W        W28188   2.380  33.943   2.231
64245W        W28189  23.710  30.074  14.470
64246W        W28190  42.463   2.281  12.422
64247W        W28191  20.065  15.773  13.374
64248W        W28192  36.557  11.823  12.415
64249W        W28193  26.002  28.493   0.423
64250W        W28194  22.119  11.238  13.831
64251W        W28195  25.598  40.541  14.807
64252W        W28196  38.868  11.743   1.211
64253W        W28197  36.523  39.990  12.957
64254W        W28198  24.583  18.129   0.922
64255W        W28199  23.039  21.591  12.455
64256W        W28200  16.730  25.670  10.052
64257W        W28201  41.812   7.400   3.353
64258W        W28202  40.000  37.011   2.833
64259W        W28203  23.686  44.426   3.325
64260W        W28204  13.783  25.143   2.783
64261W        W28205   2.904  19.535   2.273
64262W        W28206  13.104  28.040   2.415
64263W        W28207   7.326  39.404   1.258
64264W        W28208   0.831  25.159   3.690
64265W        W28209   5.695  34.083   3.222
64266W        W28210  16.114   1.443  11.375
64267W        W28211  16.751  33.902  11.488
64268W        W28212  40.412  21.236   5.110
64269W        W28213  15.743  25.581   2.178
64270W        W28214  28.468  20.236   4.114
64271W        W28215  29.935  32.576   1.353
64272W        W28216  38.851  19.190  13.009
64273W        W28217  33.483  31.119   4.302
64274W        W28218  32.560   9.829   4.320
64275W        W28219  41.879   2.959   2.394
64276W        W28220  37.985  40.436  10.616
64277W        W28221  32.536  42.848   2.361
64278W        W28222  28.664  14.338   4.143
64279W        W28223  18.074  22.722  11.402
64280W        W28224  31.052   0.299  11.994
64281W        W28225  37.072  27.502  14.413
64282W        W28226  20.121  32.605  14.926
64283W        W28227  30.066  15.144   0.448
64284W        W28228   6.356  37.548   5.276
64285W        W28229   9.370  15.227   4.176
64286W        W28230   3.793  33.400  10.512
64287W        W28231  14.681  39.494  10.638
64288W        W28232  39.468  42.023  14.278
64289W        W28233  22.520  38.350  10.958
64290W        W28234  43.889  40.856  13.043
64291W        W28235  21.604   8.729  14.832
64292W        W28236  40.526  20.762   2.873
64293W        W28237  38.872   6.681  10.902
64294W        W28238   1.388  37.903   1.715
64295W        W28239  11.268  30.147  14.021
64296W        W28240  25.705  20.735   1.743
64297W        W28241  44.880  36.037  14.390
64298W        W28242   2.287  29.175  14.953
64299W        W28243  16.572  40.801  14.348
64300W        W28244  33.089  24.152   3.853
64301W        W28245  22.198  13.172   1.739
64302W        W28246  37.470  39.491   4.667
64303W        W28247  26.020  27.609   1.254
64304W        W28248  10.344  16.289   1.863
64305W        W28249  40.475   1.805  13.909
64306W        W28250  44.298  11.705   0.447
64307W        W28251  17.194  21.035  11.092
64308W        W28252  39.842   5.401  13.540
64309W        W28253  17.760   0.878  11.001
64310W        W28254  23.039  38.954   3.163
64311W        W28255  39.488  20.116   4.812
64312W        W28256  11.275  26.083   2.293
64313W        W28257  23.014  44.338   4.678
64314W        W28258  32.396   6.826  11.553
64315W        W28259  13.164  25.522  12.376
64316W        W28260   3.387  22.503   0.950
64317W        W28261  19.162  16.255  12.372
64318W        W28262  21.695  27.085  14.390
64319W        W28263  31.907  42.461   4.681
64320W        W28264  26.160  42.306   3.772
64321W        W28265  33.482  12.700   0.798
64322W        W28266  38.530  43.898  11.016
64323W        W28267  35.539  38.403   0.924
64324W        W28268   6.730  13.218  11.534
64325W        W28269  19.615  24.152   3.706
64326W        W28270  43.466  26.140   3.312
64327W        W28271  43.346   2.923   3.340
64328W        W28272  21.545  37.986  12.468
64329W        W28273  40.049  14.104  14.383
64330W        W28274  37.412  17.617   1.927
64331W        W28275  27.677  24.650  11.961
64332W        W28276  29.132  37.375  13.018
64333W        W28277  36.872  15.123  11.478
64334W        W28278  31.981  37.873   3.649
64335W        W28279  26.652  18.287   2.197
64336W        W28280  10.796  21.644   4.787
64337W        W28281  36.379  41.841  13.489
64338W        W28282   4.422  41.016  10.631
64339W        W28283  11.669  20.561  11.008
64340W        W28284  40.820  29.923  11.037
64341W        W28285  25.563  41.489   4.246
64342W        W28286   4.285  29.586  14.397
64343W        W28287  31.577  36.357   2.210
64344W        W28288  17.063   1.735   1.243
64345W        W28289   3.234  41.977   4.834
64346W        W28290  27.514  29.545  13.504
64347W        W28291  39.328  41.441   3.844
64348W        W28292   5.240  25.038  12.876
64349W        W28293  32.992   6.345  10.520
64350W        W28294  41.470  13.789   3.724
64351W        W28295  37.406  13.161  12.538
64352W        W28296   0.340  31.414   0.289
64353W        W28297   6.278  21.079  14.500
64354W        W28298  29.534   8.655  10.906
64355W        W28299  25.684  36.550  12.374
64356W        W28300   4.922  34.558  12.574
64357W        W28301   4.397   2.797  11.594
64358W        W28302  25.019  13.252  14.995
64359W        W28303  30.063  30.094  14.371
64360W        W28304  25.606  12.797  14.466
64361W        W28305   0.281  21.128   2.740
64362W        W28306   6.211  10.687   4.789
64363W        W28307  39.066  17.064  12.370
64364W        W28308  24.975  38.003   4.707
64365W        W28309   3.316  26.171  11.902
64366W        W28310   0.478  36.085   0.727
64367W        W28311  32.942  33.972   0.887
64368W        W28312  27.996   6.736  12.433
64369W        W28313  21.233  26.640   3.681
64370W        W28314   2.312  39.963   0.263
64371W        W28315  20.603  35.008  14.383
64372W        W28316  23.585   1.412  10.890
64373W        W28317  16.114   4.844   0.432
64374W        W28318  17.163  32.464  13.823
64375W        W28319   5.892  35.600   1.442
64376W        W28320  34.888  30.593   4.316
64377W        W28321   4.418  35.965   3.244
64378W        W28322  16.695   9.723   0.444
64379W        W28323  26.059   0.439  11.000
64380W        W28324   3.407  14.268   0.874
64381W        W28325  43.287  32.581   3.669
64382W        W28326   1.794   7.201  14.769
64383W        W28327   9.793   9.677   4.801
64384W        W28328   0.442  24.495   3.265
64385W        W28329   9.706  30.608   5.120
64386W        W28330  44.781   5.928  11.127
64387W        W28331  33.521  39.363  11.059
64388W        W28332  35.450  42.438  14.423
64389W        W28333   0.370  35.419   2.391
64390W        W28334  29.449  43.791  11.929
64391W        W28335  16.768   4.371  13.541
64392W        W28336  43.790  27.136  14.827
64393W        W28337  19.065   6.699   4.334
64394W        W28338  38.946  17.573   5.314
64395W        W28339   5.732  15.098  14.990
64396W        W28340   7.345  34.888   2.666
64397W        W28341  38.547  33.034  10.472
64398W        W28342  43.336  30.004  13.510
64399W        W28343  26.148  43.948   0.863
64400W        W28344   3.249  21.602   4.802
64401W        W28345  29.152  36.466  13.507
64402W        W28346  31.642  11.230   4.236
64403W        W28347  40.022   0.844  14.301
64404W        W28348  21.026   1.304   1.276
64405W        W28349   9.847  36.907  12.063
64406W        W28350   9.210  31.109   1.400
64407W        W28351  31.032  13.297  14.878
64408W        W28352   1.262  44.292   1.764
64409W        W28353  22.043  40.408  11.003
64410W        W28354  24.028   3.418  10.567
64411W        W28355  44.903  28.002  10.421
64412W        W28356  13.609  44.331   0.860
64413W        W28357  39.866  22.087  12.416
64414W        W28358  23.001  36.560   1.375
64415W        W28359  42.840  15.639   0.743
64416W        W28360  37.844  30.060   0.418
64417W        W28361  15.263   9.259  10.642
64418W        W28362  32.886  35.052   2.738
64419W        W28363  14.180   8.183   3.661
64420W        W28364  28.456   5.392   4.180
64421W        W28365  44.328   9.284   4.335
64422W        W28366   5.317   6.797  10.938
64423W        W28367  37.991  32.411   1.348
64424W        W28368  30.080  37.422   1.842
64425W        W28369  38.413  28.597   1.383
64426W        W28370  18.726  29.925  14.284
64427W        W28371  15.754  31.499   1.843
64428W        W28372  22.036  17.616   1.792
64429W        W28373   3.346   3.807   1.265
64430W        W28374   0.492  13.759  12.487
64431W        W28375  23.695   0.983   3.659
64432W        W28376  35.994  11.732   0.820
64433W        W28377  13.214  42.497  14.389
64434W        W28378  30.528  24.537   4.750
64435W        W28379  38.012   6.766  12.438
64436W        W28380  40.819  21.532  12.914
64437W        W28381  16.635  43.776  14.366
64438W        W28382   3.300  14.207   3.154
64439W        W28383   3.833  10.237  12.935
64440W        W28384  16.789  22.605   3.212
64441W        W28385  28.972  36.048   3.664
64442W        W28386  32.052  10.639   3.719
64443W        W28387  39.548  29.664   3.748
64444W        W28388  12.814  37.550   3.254
64445W        W28389  38.951  31.638   4.693
64446W        W28390  12.158  27.505  10.623
64447W        W28391  42.976  12.749   1.836
64448W        W28392   9.257  20.537  14.336
64449W        W28393  35.496  15.218   4.172
64450W        W28394  31.011  36.352   3.761
64451W        W28395   0.759  23.655  12.908
64452W        W28396   1.240  32.453  13.829
64453W        W28397   9.213  41.831   3.274
64454W        W28398  13.822  41.981   2.750
64455W        W28399  16.746   5.747  14.358
64456W        W28400  39.962  32.058  12.034
64457W        W28401   0.324  20.726  10.915
64458W        W28402  16.789  22.684   3.769
64459W        W28403  10.878  10.700   1.375
64460W        W28404  27.459  21.646  13.868
64461W        W28405  44.366   5.207  12.901
64462W        W28406   2.729  18.550  10.561
64463W        W28407  44.363  37.388  14.323
64464W        W28408  26.552  29.954  11.468
64465W        W28409  11.690  22.146  14.802
64466W        W28410  32.028  42.980   3.213
64467W        W28411  18.083  27.516  14.407
64468W        W28412   6.715   7.827  13.020
64469W        W28413  31.046  14.261   0.399
64470W        W28414  21.728   4.352   4.269
64471W        W28415   3.331   0.770  10.922
64472W        W28416  18.166   5.906   2.284
64473W        W28417  18.618  23.233   1.389
64474W        W28418  26.659   1.742   3.846
64475W        W28419   1.769  28.092   5.304
64476W        W28420  26.194   2.891  12.933
64477W        W28421  17.304  11.672  12.955
64478W        W28422  35.434  36.515  12.406
64479W        W28423  27.002  23.515  10.621
64480W        W28424  43.845  23.060   4.766
64481W        W28425   3.785  20.205   4.721
64482W        W28426  33.421  15.183   3.775
64483W        W28427  32.558  10.153  11.586
64484W        W28428   9.881  25.679  12.959
64485W        W28429  31.008  12.299   3.374
64486W        W28430  30.544  14.172  13.426
64487W        W28431  39.026  18.600  13.426
64488W        W28432  19.568   2.450  14.858
64489W        W28433   0.823  21.235   9.931
64490W        W28434  43.363  16.133  14.489
64491W        W28435   4.351   6.863  12.996
64492W        W28436  36.395  10.834  13.388
64493W        W28437  23.146  40.998  11.524
64494W        W28438  33.565  28.145  14.795
64495W        W28439  10.275   7.811  10.525
64496W        W28440  27.083   0.875   4.141
64497W        W28441   6.746  35.886  13.911
64498W        W28442   7.240  26.155  14.919
64499W        W28443   7.715  22.649  10.967
64500W        W28444  43.831  35.524   0.443
64501W        W28445  12.822  24.155  12.021
64502W        W28446   7.665  33.617  14.353
64503W        W28447  13.715  44.360   2.221
64504W        W28448  24.622  28.520   3.671
64505W        W28449  28.055  35.878   4.675
64506W        W28450  40.870   6.409  15.000
64507W        W28451  15.180   3.400   0.253
64508W        W28452  29.537  13.790   2.409
64509W        W28453  24.628  37.393  14.386
64510W        W28454   5.329  39.394  10.962
64511W        W28455  16.595   3.327   3.331
64512W        W28456  13.836  14.647  11.076
64513W        W28457  16.199   1.755   1.695
64514W        W28458  28.466  16.789   0.406
64515W        W28459  21.616  29.068  14.942
64516W        W28460  10.849   4.887  11.884
64517W        W28461  19.101   0.909   3.658
64518W        W28462   6.756  28.437  10.628
64519W        W28463   7.763  14.833  10.624
64520W        W28464  38.436   2.370   5.754
64521W        W28465  36.850  38.545   3.183
64522W        W28466  13.277   0.806  11.048
64523W        W28467  29.575  22.734   0.942
64524W        W28468  35.523  21.229  13.437
64525W        W28469  14.715  22.615   3.649
64526W        W28470   8.851  10.279   2.203
64527W        W28471  27.178  16.297  11.876
64528W        W28472  41.494  35.500   3.295
64529W        W28473  22.186   4.302   4.709
64530W        W28474  34.448   1.430   0.447
64531W        W28475  15.680  15.758   2.900
64532W        W28476  38.565  10.183   3.158
64533W        W28477  13.749  29.569   3.709
64534W        W28478  12.356  33.615   1.439
64535W        W28479  44.487  36.484  11.023
64536W        W28480  12.816  31.455   3.710
64537W        W28481  32.950  35.550  12.543
64538W        W28482  39.396  15.758   4.669
64539W        W28483  22.579   6.320   0.393
64540W        W28484  33.595  15.286  11.997
64541W        W28485  27.136  24.508   2.700
64542W        W28486  30.500   2.342   1.381
64543W        W28487  30.005  18.617  12.026
64544W        W28488  17.157  23.497   1.782
64545W        W28489  28.552  25.217   1.385
64546W        W28490  10.233   4.807   1.245
64547W        W28491  18.236   8.356  14.324
64548W        W28492  42.420  42.524   2.212
64549W        W28493  25.688  24.100   0.289
64550W        W28494  14.336  35.912  10.947
64551W        W28495  35.439  12.197  10.464
64552W        W28496   8.247  25.100  13.375
64553W        W28497   9.719  39.969   1.383
64554W        W28498  11.229  40.915  10.625
64555W        W28499  23.223  25.006   4.717
64556W        W28500  17.064  22.113  10.142
64557W        W28501  13.638   2.354  10.959
64558W        W28502   1.366  40.508   2.185
64559W        W28503  13.640  44.487   1.812
64560W        W28504  24.115  24.976  14.302
64561W        W28505  31.093  42.922  10.558
64562W        W28506  18.294  24.014   2.329
64563W        W28507  39.053  26.077  13.379
64564W        W28508  20.531   5.407   4.696
64565W        W28509  39.491   1.753  13.337
64566W        W28510  29.487  39.964   3.847
64567W        W28511  32.139  10.764   3.199
64568W        W28512  44.789  40.500  13.410
64569W        W28513  18.209  20.274   2.179
64570W        W28514  24.047  38.493   2.367
64571W        W28515   8.723  39.503  14.293
64572W        W28516  20.687  39.443   1.404
64573W        W28517   9.267  16.665   0.731
64574W        W28518  10.787  36.512   0.374
64575W        W28519   0.856  40.967  11.107
64576W        W28520  17.071  38.343   0.438
64577W        W28521  36.568  27.462   3.727
64578W        W28522  26.171  23.503   3.382
64579W        W28523   0.814  29.082  12.852
64580W        W28524  16.669   7.295   0.886
64581W        W28525   4.209  38.400   3.275
64582W        W28526  25.165   2.891  13.356
64583W        W28527   1.323  20.569  13.437
64584W        W28528  36.389  24.225   0.907
64585W        W28529  15.690  16.187   0.428
64586W        W28530   4.721   1.959   4.347
64587W        W28531  12.307  12.249   1.904
64588W        W28532  28.657  39.456  12.017
64589W        W28533   9.855  18.594   3.381
64590W        W28534  10.799  29.466   1.417
64591W        W28535   6.907  26.586   4.604
64592W        W28536   8.193  19.094   4.269
64593W        W28537  31.558  12.331   1.227
64594W        W28538   8.168  34.929   1.799
64595W        W28539   3.916  41.800  11.521
64596W        W28540  27.634  39.370   2.327
64597W        W28541   9.743  11.648  12.943
64598W        W28542  41.976  15.687  11.929
64599W        W28543  12.787  25.149  14.835
64600W        W28544  16.096  18.689   3.666
64601W        W28545  35.564  26.521   3.739
64602W        W28546  34.379  15.662   2.673
64603W        W28547   7.783  35.895  11.445
64604W        W28548  31.977  27.453   1.224
64605W        W28549  12.627  21.671  13.480
64606W        W28550   2.752  27.690  14.803
64607W        W28551  27.579  41.354   4.221
64608W        W28552   6.187  42.997   3.310
64609W        W28553  30.420  42.449  11.866
64610W        W28554  40.310  39.326   3.700
64611W        W28555  44.491  13.300  10.054
64612W        W28556   4.342  17.567  13.875
64613W        W28557  10.703  17.117  13.953
64614W        W28558  44.852   4.228   1.834
64615W        W28559   8.214  34.603  11.008
64616W        W28560   8.210   6.230   3.251
64617W        W28561  33.619  29.649   3.382
64618W        W28562  27.590  20.537   4.339
64619W        W28563  13.183  22.676  12.412
64620W        W28564  14.624  40.482  11.018
64621W        W28565  24.036   1.467  11.086
64622W        W28566  31.475   8.192  14.838
64623W        W28567  19.643  40.803  12.832
64624W        W28568  16.734  42.311  11.888
64625W        W28569  43.311   3.794  13.447
64626W        W28570  23.121  35.103  12.580
64627W        W28571  24.708   5.222   4.244
64628W        W28572   4.863   6.269  11.469
64629W        W28573   6.426   1.273  12.049
64630W        W28574  31.462  39.820   4.172
64631W        W28575  16.187   3.908  10.889
64632W        W28576   8.345   5.312  14.292
64633W        W28577   6.769  20.133  12.896
64634W        W28578   0.984   8.244   2.728
64635W        W28579  14.713   6.806   1.326
64636W        W28580  35.405  10.299   2.211
64637W        W28581  35.422  15.097   3.233
64638W        W28582  20.172  16.211   0.738
64639W        W28583  35.485  36.857  10.977
64640W        W28584  37.038  18.257   1.421
64641W        W28585  29.625  38.007   2.695
64642W        W28586  34.064  15.582   3.673
64643W        W28587  33.480   9.358  13.447
64644W        W28588  33.896  12.805   3.285
64645W        W28589  43.910  14.220   3.868
64646W        W28590   2.838  25.010   1.712
64647W        W28591  34.522  26.486   1.406
64648W        W28592  35.054   5.207  10.564
64649W        W28593  17.596  35.054   2.750
64650W        W28594  35.443   6.812   4.345
64651W        W28595  37.029  19.079  14.483
64652W        W28596  18.576  14.647   1.813
64653W        W28597  30.471   9.298  10.506
64654W        W28598  36.503   1.938  12.350
64655W        W28599   4.704  34.958  10.969
64656W        W28600  39.035  25.117  13.355
64657W        W28601  26.484  19.144  11.576
64658W        W28602  40.415  18.755   5.238
64659W        W28603  28.621  23.156  14.770
64660W        W28604  33.916  36.585  11.046
64661W        W28605  28.979  32.888  12.978
64662W        W28606  23.151  44.484   4.143
64663W        W28607  15.241  16.723   3.826
64664W        W28608  27.093  28.643  12.455
64665W        W28609   6.766  18.064   1.703
64666W        W28610  22.546  24.600  13.907
64667W        W28611  42.442   0.480  12.052
64668W        W28612  40.027  13.181  10.595
64669W        W28613  20.042  21.739   5.310
64670W        W28614  30.106  19.147  13.852
64671W        W28615  40.546   5.228   3.176
64672W        W28616  19.114  32.402  12.011
64673W        W28617  24.704  28.586   0.770
64674W        W28618   1.479  11.643  10.940
64675W        W28619  17.768   1.784   0.731
64676W        W28620  42.946  27.042  10.494
64677W        W28621  26.469  23.996  12.833
64678W        W28622  17.179  24.505   1.218
64679W        W28623  11.237  12.221  13.493
64680W        W28624  34.975  35.990  11.041
64681W        W28625  20.658   7.895  11.907
64682W        W28626  17.179  43.274  12.442
64683W        W28627  25.141  30.612   3.744
64684W        W28628  15.587  20.222   0.470
64685W        W28629  39.398  25.189   3.365
64686W        W28630  26.566  34.430  10.157
64687W        W28631  32.076  23.079  14.386
64688W        W28632  41.905  12.851   9.984
64689W        W28633  31.007   5.298   1.338
64690W        W28634  44.920   9.377   2.375
64691W        W28635  40.514   4.868  10.105
64692W        W28636  35.469   8.738  10.469
64693W        W28637   9.286   8.368  12.905
64694W        W28638  22.624  30.422  10.929
64695W        W28639   9.697  15.198   2.199
64696W        W28640  21.109  20.173  12.891
64697W        W28641  34.470  16.090  12.465
64698W        W28642  44.761  37.343   3.306
64699W        W28643   1.825  22.552  11.916
64700W        W28644  37.947  35.989  12.034
64701W        W28645  43.862  39.926   4.220
64702W        W28646  15.272  27.088   3.215
64703W        W28647  24.626  31.412   4.838
64704W        W28648  30.958  39.465  12.989
64705W        W28649  39.856  16.288  10.638
64706W        W28650   8.693  22.533   3.178
64707W        W28651  28.535  27.609  11.998
64708W        W28652  27.624  33.941  11.993
64709W        W28653  21.216  33.070   4.304
64710W        W28654  12.170  15.211   9.559
64711W        W28655  38.940  17.795  10.582
64712W        W28656  13.300  19.584   3.189
64713W        W28657  18.605  38.445   1.805
64714W        W28658  23.616  11.153   0.391
64715W        W28659  29.079  38.355  13.050
64716W        W28660  31.455  34.061  10.411
64717W        W28661  38.489   3.811   3.776
64718W        W28662  41.394   4.406   2.773
64719W        W28663  38.892   3.953   0.885
64720W        W28664  37.935  16.625  13.879
64721W        W28665  37.861  18.075  13.824
64722W        W28666  31.919  15.169   0.804
64723W        W28667  32.420  17.751   2.742
64724W        W28668   2.835  11.138   4.604
64725W        W28669   3.779  43.348  13.527
64726W        W28670  36.930  19.063   4.214
64727W        W28671   6.192  42.341  13.792
64728W        W28672  27.600  31.477  12.892
64729W        W28673  27.105   5.222   4.245
64730W        W28674  27.956  20.211   4.795
64731W        W28675  22.233  29.522   0.930
64732W        W28676  36.422  11.731   1.932
64733W        W28677   8.292  24.550  13.420
64734W        W28678  39.552  29.971   3.862
64735W        W28679  28.020  22.045  12.089
64736W        W28680  22.146  20.564  14.435
64737W        W28681  32.558  27.555  13.974
64738W        W28682  31.920  11.366   1.288
64739W        W28683  44.763  23.208   1.830
64740W        W28684  15.739  13.310  12.502
64741W        W28685   1.293  10.815   2.387
64742W        W28686  12.772  15.244  14.923
64743W        W28687  10.187  39.830  12.824
64744W        W28688  28.602  41.444   0.388
64745W        W28689  19.132  22.581   3.865
64746W        W28690  31.910  23.056   4.138
64747W        W28691  12.730  25.047   0.314
64748W        W28692  36.401  10.638  11.088
64749W        W28693  33.389  44.846   0.262
64750W        W28694   6.419  31.549   0.853
64751W        W28695  29.106  42.449   1.220
64752W        W28696   6.869  39.360   3.367
64753W        W28697  13.766  28.020   0.315
64754W        W28698  30.080  30.550   4.742
64755W        W28699  31.136  43.832  11.900
64756W        W28700  43.014   0.754   3.759
64757W        W28701  38.007  30.463   2.688
64758W        W28702  35.109  29.464   4.116
64759W        W28703  39.482  42.886   1.367
64760W        W28704  29.638  34.067   2.207
64761W        W28705  35.025  44.816   1.755
64762W        W28706  31.464   2.462   1.426
64763W        W28707  29.564   9.705   4.735
64764W        W28708  18.180  23.017  14.957
64765W        W28709  43.316  31.968   4.831
64766W        W28710  31.499  13.113  13.841
64767W        W28711  36.058  22.503  11.060
64768W        W28712  17.756  18.082   3.778
64769W        W28713  34.538  17.691  13.982
64770W        W28714  22.695  22.696  12.436
64771W        W28715  37.453   6.360   0.288
64772W        W28716  19.718  32.526   1.901
64773W        W28717  15.257  29.126   4.628
64774W        W28718   5.270  40.951  12.469
64775W        W28719  12.796   0.311   0.282
64776W        W28720  21.747  43.468   2.700
64777W        W28721  21.720  38.952   2.411
64778W        W28722  23.620   0.468  12.863
64779W        W28723  28.644  25.192   4.150
64780W        W28724  31.418   2.272  11.435
64781W        W28725  10.237  32.583  11.968
64782W        W28726   2.461  33.463   2.731
64783W        W28727  38.327  39.472  14.292
64784W        W28728  17.761  27.160  14.836
64785W        W28729  19.577  17.220   1.352
64786W        W28730  33.515  41.827   2.850
64787W        W28731  36.037  38.325   0.402
64788W        W28732  12.332  28.998   3.222
64789W        W28733   7.802  40.411   0.312
64790W        W28734  15.267  36.087  13.009
64791W        W28735   0.950  30.486  10.998
64792W        W28736   9.189  24.207  12.443
64793W        W28737  13.121  28.070   0.827
64794W        W28738  16.166  28.004  13.383
64795W        W28739  35.867  20.085  11.865
64796W        W28740  40.504  28.471  11.905
64797W        W28741  29.508  19.233  14.891
64798W        W28742   0.746  14.313  11.938
64799W        W28743  22.164  29.641   3.194
64800W        W28744  25.633  29.484  12.996
64801W        W28745  43.295  43.377   2.879
64802W        W28746  31.031  37.009   2.697
64803W        W28747  21.099  34.012  12.524
64804W        W28748  22.181  15.765   0.924
64805W        W28749  24.594  24.031  12.551
64806W        W28750  42.285  13.697  12.829
64807W        W28751  32.023   2.289  10.930
64808W        W28752  41.968  40.814   3.727
64809W        W28753  26.099   8.744   2.290
64810W        W28754   0.774  21.684  14.960
64811W        W28755  39.466  40.046   2.327
64812W        W28756  30.456  12.339  14.275
64813W        W28757  24.596  22.708  13.876
64814W        W28758  42.934  15.206  11.557
64815W        W28759  30.998  43.980   2.405
64816W        W28760  26.466  29.441   3.679
64817W        W28761  13.232  16.758  14.468
64818W        W28762  31.923  13.699   1.762
64819W        W28763  17.664  21.635  13.458
64820W        W28764  41.470  14.603   1.724
64821W        W28765  16.198  17.141   3.818
64822W        W28766   2.458  32.478   4.350
64823W        W28767   9.376  28.162   5.173
64824W        W28768  27.096  29.583  11.866
64825W        W28769  27.496  24.011   4.206
64826W        W28770  39.388  27.507   3.173
64827W        W28771  22.546  30.587  11.456
64828W        W28772  38.340  28.578   2.670
64829W        W28773  44.373   5.830  12.902
64830W        W28774  11.154  41.011   3.773
64831W        W28775   9.828   0.318   1.893
64832W        W28776  12.268  31.073   0.357
64833W        W28777  20.577  28.450  11.534
64834W        W28778  29.108   5.762   3.304
64835W        W28779  14.722  42.822  11.891
64836W        W28780   4.784  38.041   3.690
64837W        W28781  42.428   6.717   3.862
64838W        W28782  27.635  40.332   3.751
64839W        W28783  32.592  27.581  14.971
64840W        W28784  39.064  24.532  11.542
64841W        W28785  17.595  26.996   0.858
64842W        W28786  34.525  30.063   1.264
64843W        W28787  12.740   8.250   0.848
64844W        W28788  20.253  15.320  12.044
64845W        W28789   9.858  31.421  10.065
64846W        W28790  17.565  39.423   0.336
64847W        W28791   4.890  11.651   0.333
64848W        W28792  39.905   6.406   3.384
64849W        W28793   7.807  13.344  13.817
64850W        W28794   6.231  42.391   0.801
64851W        W28795   7.847  27.955   4.692
64852W        W28796  11.323   9.377   3.283
64853W        W28797  29.616  14.820  11.610
64854W        W28798   9.768   2.724  14.328
64855W        W28799  42.021  18.078   2.785
64856W        W28800  23.523  42.482   3.696
64857W        W28801  42.322  12.121   1.926
64858W        W28802  18.723  29.628   3.822
64859W        W28803   8.306   9.693   1.884
64860W        W28804  34.535  19.718  13.929
64861W        W28805   6.897  22.249  13.022
64862W        W28806  30.561  34.920   0.338
64863W        W28807   3.773  26.512   3.192
64864W        W28808  37.339  34.542   4.306
64865W        W28809  37.582  23.652  12.486
64866W        W28810  11.239  41.437  12.391
64867W        W28811  15.722  38.886   2.758
64868W        W28812   4.253  21.188  11.504
64869W        W28813  33.552  42.402   2.813
64870W        W28814  32.006  37.477  11.020
64871W        W28815  14.636  14.800   3.383
64872W        W28816  21.751  34.512  10.908
64873W        W28817  40.983  42.939   2.799
64874W        W28818   0.868  22.526   2.321
64875W        W28819  29.013   1.340   1.393
64876W        W28820  26.103  18.270  12.481
64877W        W28821  16.113   8.869   2.847
64878W        W28822  16.595  27.040   0.825
64879W        W28823  34.493  28.607   4.803
64880W        W28824   0.493   2.891  14.960
64881W        W28825  28.451   2.283  11.488
64882W        W28826  39.500  38.413   4.289
64883W        W28827  19.215  20.619   2.818
64884W        W28828  32.055   2.407  11.866
64885W        W28829  44.837  22.085   1.869
64886W        W28830   4.307  33.391   1.328
64887W        W28831  40.458  40.487   4.696
64888W        W28832  17.081  35.019   0.796
64889W        W28833  16.799  42.028  11.855
64890W        W28834  26.042  13.234   1.866
64891W        W28835   2.240  36.081   5.260
64892W        W28836  10.340  28.519   5.657
64893W        W28837  32.536  27.956   0.247
64894W        W28838  24.717   5.834  11.425
64895W        W28839  31.464  22.541   0.841
64896W        W28840  26.482  25.680   4.343
64897W        W28841  35.937  42.017   1.782
64898W        W28842  27.624  13.344  10.606
64899W        W28843  22.231  36.068   4.221
64900W        W28844  37.446  38.474   2.291
64901W        W28845  33.089  21.143   3.711
64902W        W28846  11.255   6.254  11.486
64903W        W28847  41.909  44.923   4.220
64904W        W28848  23.508  41.415  13.840
64905W        W28849  39.417   7.696   5.131
64906W        W28850  23.701  18.120   0.365
64907W        W28851  11.204   6.206   3.260
64908W        W28852  39.823  16.230   4.312
64909W        W28853  26.458  31.985   2.741
64910W        W28854   2.245   5.857  14.373
64911W        W28855  40.360  38.909  10.544
64912W        W28856  12.817  32.501  12.558
64913W        W28857   7.889  31.907   0.949
64914W        W28858  19.545  27.489   3.379
64915W        W28859  12.843  11.803  14.940
64916W        W28860  31.498  31.441  14.974
64917W        W28861   6.705   9.293  13.928
64918W        W28862   9.645  18.584  10.153
64919W        W28863  18.175  32.945   4.180
64920W        W28864  26.138  24.514   2.240
64921W        W28865   6.417   8.698   2.803
64922W        W28866  23.214  39.856   0.909
64923W        W28867  21.187   3.717  14.772
64924W        W28868  26.677  41.404  13.813
64925W        W28869  41.930  35.878   1.694
64926W        W28870  32.993  12.331   1.888
64927W        W28871  43.321  30.603   0.951
64928W        W28872  12.230   6.731   1.287
64929W        W28873  44.926  10.158   2.284
64930W        W28874   2.307  32.069   2.679
64931W        W28875   0.807  35.449  13.408
64932W        W28876  26.538  37.442  13.035
64933W        W28877  26.087   4.339   2.195
64934W        W28878  29.629  39.346  10.092
64935W        W28879  16.290  23.030   1.925
64936W        W28880   7.815  23.226   1.725
64937W        W28881  43.353  17.682   0.933
64938W        W28882  40.962   5.744   0.354
64939W        W28883  14.118  21.145  14.315
64940W        W28884  15.252  37.002  11.909
64941W        W28885  33.094  11.281  11.449
64942W        W28886   3.458  31.617  13.349
64943W        W28887  13.110  40.473   5.208
64944W        W28888  18.653  30.082  11.105
64945W        W28889  28.480  31.547   3.320
64946W        W28890   7.742  28.608   9.527
64947W        W28891  43.458   0.452   4.728
64948W        W28892   7.699  21.728  13.980
64949W        W28893  24.207  30.938   4.273
64950W        W28894  28.050   6.217  11.964
64951W        W28895  44.350   0.744   4.288
64952W        W28896  28.634  39.529   5.761
64953W        W28897   1.745   0.870  13.547
64954W        W28898  10.713   5.928  13.015
64955W        W28899  35.551  32.557   0.912
64956W        W28900  29.579   8.770  10.152
64957W        W28901   3.805  26.162   0.314
64958W        W28902  36.920  33.615   1.772
64959W        W28903  24.011   8.234  14.326
64960W        W28904  33.443   0.877  11.868
64961W        W28905  41.887  24.191  11.560
64962W        W28906  10.783  40.823  12.971
64963W        W28907  23.668  34.978  12.367
64964W        W28908  27.558  28.962  13.927
64965W        W28909  14.622  41.874  10.961
64966W        W28910  12.304   7.796   3.656
64967W        W28911   4.791   3.875   2.299
64968W        W28912   4.295  14.661  11.611
64969W        W28913  20.182   2.947   2.236
64970W        W28914  32.001  26.463  13.357
64971W        W28915  28.097  24.046  10.465
64972W        W28916  44.373  40.336  14.455
64973W        W28917  27.501  40.870   1.280
64974W        W28918   9.343  26.656   1.234
64975W        W28919  29.660  28.938  14.909
64976W        W28920   2.378   3.335   0.806
64977W        W28921  36.516  36.472   1.912
64978W        W28922  41.518  36.950  14.348
64979W        W28923   3.736  11.789  11.041
64980W        W28924   9.810  40.005   2.747
64981W        W28925  41.299  10.273   3.839
64982W        W28926  27.592  20.180   4.661
64983W        W28927   7.756   1.273  13.512
64984W        W28928  18.215   9.331  13.409
64985W        W28929  19.064  13.263   3.229
64986W        W28930  23.017  43.853   0.359
64987W        W28931  10.784  36.054  13.863
64988W        W28932  19.170  16.811   0.850
64989W        W28933   9.769  31.990  10.485
64990W        W28934  42.455   9.692   2.799
64991W        W28935   4.250  43.819   2.213
64992W        W28936  12.234  35.386  11.576
64993W        W28937   3.844  39.457   0.474
64994W        W28938  36.507  35.408   1.251
64995W        W28939  18.762  31.941   1.257
64996W        W28940   2.417  40.378   3.728
64997W        W28941  35.987   5.325   0.938
64998W        W28942   7.872  32.525  12.521
64999W        W28943   5.211  32.937  14.478
65000W        W28944   9.712  10.666   4.163
65001W        W28945  23.999  29.546   0.922
65002W        W28946  16.291  20.564   1.432
65003W        W28947   7.403  28.009  12.563
65004W        W28948  44.422  23.191  13.421
65005W        W28949  13.229  10.784   2.242
65006W        W28950  22.678  30.463  13.985
65007W        W28951  15.668  31.535  10.496
65008W        W28952  17.239  20.214   4.651
65009W        W28953  18.296  31.429  10.909
65010W        W28954  29.521  43.961   0.301
65011W        W28955  25.068  43.010   4.707
65012W        W28956   7.715  17.138   3.671
65013W        W28957  14.224  33.529  14.780
65014W        W28958   6.240  11.258  10.928
65015W        W28959  11.346  10.243   4.238
65016W        W28960  15.681   7.183   0.817
65017W        W28961  14.296  12.309  13.008
65018W        W28962  34.066  14.705   1.334
65019W        W28963  16.585  21.650   2.849
65020W        W28964   5.773  43.857   4.719
65021W        W28965  30.549  38.860  12.497
65022W        W28966  38.342  39.041   3.218
65023W        W28967  22.729  29.141  14.451
65024W        W28968  16.108  44.269   3.255
65025W        W28969  24.507   4.764  10.997
65026W        W28970   8.368   2.902   4.313
65027W        W28971  18.646  30.939  13.537
65028W        W28972  32.505  18.791   4.343
65029W        W28973  29.625  27.611   2.884
65030W        W28974  20.175  13.244   3.692
65031W        W28975  15.732  10.290   2.856
65032W        W28976  43.020   8.356   1.876
65033W        W28977  21.649  24.708   3.643
65034W        W28978  33.536  25.558  13.356
65035W        W28979  27.478  26.526   1.446
65036W        W28980   7.196  43.009  13.327
65037W        W28981  22.721  13.175   2.181
65038W        W28982  34.431  29.502   3.159
65039W        W28983  23.048  34.421  10.915
65040W        W28984  25.165  23.031  11.012
65041W        W28985  27.450   0.763   2.687
65042W        W28986  44.336   3.444  12.007
65043W        W28987  37.418  36.047   4.667
65044W        W28988  36.447  30.547   4.624
65045W        W28989  32.418   0.347  13.360
65046W        W28990   3.793   8.190   0.419
65047W        W28991   4.367  20.158  14.833
65048W        W28992   8.676   0.470   2.267
65049W        W28993  41.816  33.543   2.404
65050W        W28994  24.093   2.367  10.601
65051W        W28995  24.106   3.420  14.476
65052W        W28996  19.622   0.414  14.451
65053W        W28997  27.985  32.080  12.418
65054W        W28998  22.571  24.139   0.258
65055W        W28999  28.177  29.640   3.797
65056W        W29000  15.127  23.073   3.666
65057W        W29001   6.217  30.947  13.995
65058W        W29002  41.974  33.909  11.462
65059W        W29003  15.791   2.867   2.314
65060W        W29004  36.876   8.683   3.168
65061W        W29005  28.024   5.275   3.869
65062W        W29006  40.372  24.670  10.507
65063W        W29007   7.373  35.045  10.637
65064W        W29008   0.344  26.596   5.197
65065W        W29009  39.917   4.796   3.203
65066W        W29010   5.428  20.161   2.213
65067W        W29011  33.047  18.134   0.457
65068W        W29012  34.121  36.443   4.785
65069W        W29013  33.407  18.774  14.277
65070W        W29014  44.441  44.958  10.606
65071W        W29015  30.091  19.268  11.441
65072W        W29016  28.444   7.885   0.918
65073W        W29017  12.270  15.281   0.815
65074W        W29018  32.448   3.869  13.483
65075W        W29019  43.418   1.360   4.658
65076W        W29020  23.608   4.791  10.534
65077W        W29021   1.297  38.881   1.234
65078W        W29022   7.266   4.704   4.308
65079W        W29023  12.832  35.940  14.487
65080W        W29024   5.886  13.744  14.276
65081W        W29025  10.867  16.627  13.512
65082W        W29026  29.492  14.778   4.618
65083W        W29027   7.280  30.996   0.431
65084W        W29028  13.307  26.978  14.470
65085W        W29029   8.241  25.691  14.790
65086W        W29030  12.190   3.796   0.455
65087W        W29031   9.849   6.276   0.923
65088W        W29032  27.657   4.205  11.440
65089W        W29033  24.141  12.798  11.045
65090W        W29034  40.333  26.963  12.518
65091W        W29035  21.136  14.171  11.509
65092W        W29036  27.962  22.119   1.848
65093W        W29037  43.501  43.432   0.421
65094W        W29038   4.706   9.329  11.407
65095W        W29039  17.125  10.282  11.902
65096W        W29040  39.019  38.053   2.763
65097W        W29041   1.373  23.668  13.407
65098W        W29042  30.032  23.201   3.792
65099W        W29043  22.656   9.738  11.460
65100W        W29044   1.398  41.034   4.727
65101W        W29045   1.973   8.197   3.710
65102W        W29046   5.758  10.328  14.833
65103W        W29047   2.850  12.668  13.486
65104W        W29048  16.281  32.442  11.388
65105W        W29049   9.310  31.952   3.851
65106W        W29050  33.102  37.858   3.866
65107W        W29051  16.111  28.126   2.181
65108W        W29052  28.453  36.457   0.810
65109W        W29053   0.288   1.429  14.801
65110W        W29054   3.347  41.025   0.871
65111W        W29055  43.857  24.498   3.214
65112W        W29056   3.911  35.551  10.524
65113W        W29057  35.362  32.622  10.583
65114W        W29058  24.146  12.792   4.333
65115W        W29059  36.370   6.245  11.434
65116W        W29060  10.344  24.158   5.190
65117W        W29061  18.665   5.776  12.079
65118W        W29062   4.416  17.608  14.869
65119W        W29063  31.570  20.652   0.907
65120W        W29064  24.171  44.341   3.652
65121W        W29065  21.169   8.750  10.411
65122W        W29066  42.897  29.432  14.329
65123W        W29067  27.088  42.832  11.390
65124W        W29068  30.640  21.724   1.344
65125W        W29069   8.858  29.560   3.709
65126W        W29070  36.001  24.557  11.405
65127W        W29071   3.931  31.123  14.833
65128W        W29072  23.605  11.145   2.715
65129W        W29073   6.762  40.844  13.390
65130W        W29074  13.270   5.819   2.225
65131W        W29075   5.818  27.568  11.054
65132W        W29076  39.373  13.217   0.405
65133W        W29077  20.245   9.373   5.646
65134W        W29078  21.141   5.415   2.400
65135W        W29079  41.940  41.852   1.407
65136W        W29080  12.234  44.347   4.808
65137W        W29081   1.888  26.171   1.835
65138W        W29082  35.502  31.073   4.767
65139W        W29083  24.609   6.779  13.393
65140W        W29084  25.115  11.294  10.981
65141W        W29085  10.672  11.830  13.524
65142W        W29086  31.032  35.976   9.986
65143W        W29087  22.678  13.105  10.442
65144W        W29088   8.750   7.780   4.344
65145W        W29089  17.701  27.191   4.301
65146W        W29090  20.710  31.436   0.363
65147W        W29091  15.234  43.812  14.295
65148W        W29092  25.118  19.239  13.837
65149W        W29093  32.999  35.967  14.804
65150W        W29094  19.109  15.770  11.055
65151W        W29095  20.668  25.692  12.901
65152W        W29096  22.685   5.287   1.306
65153W        W29097  20.615  36.062  13.340
65154W        W29098   3.808  21.656  14.902
65155W        W29099   5.341  12.354  14.853
65156W        W29100  29.632  39.870  12.918
65157W        W29101  34.026  24.057   3.743
65158W        W29102  32.522  38.943  12.399
65159W        W29103  23.153  25.118  14.392
65160W        W29104   6.290  44.428   2.773
65161W        W29105  12.801   2.964   9.500
65162W        W29106  36.485  41.432  14.015
65163W        W29107   3.776  43.009   2.874
65164W        W29108  23.053   3.275   4.791
65165W        W29109   0.794  42.022  13.387
65166W        W29110   6.375  35.506   2.762
65167W        W29111  24.992  40.377  14.837
65168W        W29112  24.127  31.971   5.185
65169W        W29113  10.337  13.747  14.028
65170W        W29114   3.713  16.805   1.761
65171W        W29115  36.469  15.625  14.900
65172W        W29116  40.928  21.750   2.293
65173W        W29117   9.347   9.780   4.232
65174W        W29118  34.479  43.348  10.562
65175W        W29119  40.350  41.967   3.292
65176W        W29120   9.391  39.360  13.898
65177W        W29121  11.144   8.258   3.822
65178W        W29122   1.937   4.943  10.587
65179W        W29123   0.851  41.010   2.204
65180W        W29124   1.831  28.039  13.518
65181W        W29125   7.278  11.231   2.742
65182W        W29126   9.660  38.056   2.366
65183W        W29127  15.113  12.628   3.291
65184W        W29128  40.988  11.753  12.867
65185W        W29129  24.118  39.493   1.445
65186W        W29130  12.644  15.226   2.670
65187W        W29131   7.837   1.331  12.990
65188W        W29132  23.705  29.611  10.611
65189W        W29133   6.345  25.185  10.073
65190W        W29134   0.327  23.990   0.734
65191W        W29135  18.714  16.721  10.630
65192W        W29136  36.423  13.237  14.437
65193W        W29137  38.876   9.184  14.426
65194W        W29138  42.829  37.464   1.925
65195W        W29139  31.535   8.672   1.269
65196W        W29140  16.647  16.594  12.974
65197W        W29141  22.714   0.776   1.284
65198W        W29142  25.173  12.668   2.270
65199W        W29143  28.610   2.960   4.172
65200W        W29144  28.496   9.673   3.715
65201W        W29145  17.628   5.764  13.386
65202W        W29146  21.124  11.627  13.500
65203W        W29147  28.591   3.366   4.188
65204W        W29148  25.548   0.767   4.605
65205W        W29149  10.202  22.152   3.324
65206W        W29150  21.518  10.790   0.779
65207W        W29151   1.739   8.687  10.632
65208W        W29152  44.504  44.794  13.340
65209W        W29153  14.131  30.512  11.433
65210W        W29154  22.564  19.075  13.043
65211W        W29155  21.149   6.182   1.765
65212W        W29156  28.667   4.302  11.938
65213W        W29157  25.470  23.672   0.727
65214W        W29158  25.590   9.355  13.871
65215W        W29159  21.227  20.121   0.402
65216W        W29160   4.291   2.732  13.044
65217W        W29161  11.158  19.192  10.472
65218W        W29162  12.156  11.701  10.430
65219W        W29163  15.292  29.024  12.545
65220W        W29164  28.513  16.779  12.561
65221W        W29165   8.401   7.274  13.028
65222W        W29166  16.105  16.724   3.656
65223W        W29167  36.901  12.825   3.196
65224W        W29168   0.367  38.363  14.436
65225W        W29169  17.255  22.023   5.169
65226W        W29170  41.332  14.300  11.471
65227W        W29171  22.242  14.127  11.943
65228W        W29172   3.741  28.118  11.495
65229W        W29173  12.667  27.008  11.490
65230W        W29174  13.831  43.009  14.802
65231W        W29175  23.693  11.796  14.414
65232W        W29176  44.930  34.864  11.429
65233W        W29177   2.462  38.483   2.792
65234W        W29178   6.739  18.622   1.812
65235W        W29179  12.815  36.007  11.924
65236W        W29180   2.404  25.496   2.884
65237W        W29181   3.412  26.171   1.365
65238W        W29182  35.889  14.743  11.094
65239W        W29183   3.345   6.703  10.454
65240W        W29184  38.856  42.949  14.417
65241W        W29185  44.300  21.126  13.381
65242W        W29186  15.216   9.774   2.283
65243W        W29187  39.368   0.480  12.061
65244W        W29188  10.817  24.557   1.347
65245W        W29189  32.138   1.788   4.288
65246W        W29190  29.498  23.236   2.220
65247W        W29191  22.571  15.092   2.742
65248W        W29192  16.087  43.360   4.309
65249W        W29193  22.090  34.911   3.372
65250W        W29194   0.943  35.404  11.483
65251W        W29195  26.990  34.966  13.308
65252W        W29196  13.139  43.469   1.416
65253W        W29197  19.088  42.789   4.228
65254W        W29198  44.363   4.339  10.917
65255W        W29199  40.846  28.548   2.395
65256W        W29200  14.256  17.111  11.858
65257W        W29201  27.672  36.500   0.744
65258W        W29202  34.865  23.231  14.771
65259W        W29203  22.078  20.557  10.459
65260W        W29204  19.634  33.980  12.464
65261W        W29205  41.883  21.094  13.387
65262W        W29206  23.228  16.104   1.307
65263W        W29207  14.765  32.103   1.694
65264W        W29208  15.608   8.794  10.895
65265W        W29209  17.739  25.999   3.299
65266W        W29210   3.383  24.575   2.297
65267W        W29211   6.317   4.358  14.897
65268W        W29212  16.255  44.905  10.895
65269W        W29213  12.719  18.646   0.356
65270W        W29214  12.300   2.779   2.364
65271W        W29215  30.154  30.546  12.848
65272W        W29216   7.412  19.682  11.577
65273W        W29217  12.637  10.796  11.399
65274W        W29218  26.552  17.134  12.404
65275W        W29219  20.246  39.000   0.286
65276W        W29220  27.146   3.451  10.937
65277W        W29221  11.249  36.037  12.922
65278W        W29222  34.537  18.290  13.877
65279W        W29223  39.032  41.358   3.686
65280W        W29224   2.381   1.472   0.774
65281W        W29225  34.600   9.299   3.831
65282W        W29226  39.917   9.812   3.712
65283W        W29227  39.892   5.333   4.291
65284W        W29228  23.032   0.344  10.627
65285W        W29229   1.956  30.557  13.882
65286W        W29230  21.239  17.716  11.584
65287W        W29231  31.584  39.014   3.265
65288W        W29232  44.903  33.574   2.310
65289W        W29233  10.266  29.441  11.974
65290W        W29234   7.837  29.939   3.657
65291W        W29235  20.134  26.989   1.375
65292W        W29236   9.272   1.840   4.794
65293W        W29237  20.097  41.534  14.482
65294W        W29238   5.205   2.939  10.426
65295W        W29239  38.331  10.860  13.352
65296W        W29240  28.038   8.240   1.346
65297W        W29241  36.939  14.761  14.796
65298W        W29242  36.888   9.682   0.290
65299W        W29243  41.305  38.366  10.412
65300W        W29244  35.589  19.147  11.379
65301W        W29245  39.504  28.439   3.265
65302W        W29246  11.260   4.894  11.563
65303W        W29247  30.524  29.966   4.760
65304W        W29248  26.112  34.935   0.414
65305W        W29249  14.294  14.641   2.844
65306W        W29250  31.422  34.565   4.836
65307W        W29251  28.568  19.119  13.386
65308W        W29252   4.824  27.062   3.699
65309W        W29253  28.662  24.725  11.411
65310W        W29254  38.841  36.410  12.474
65311W        W29255  12.191  38.880   1.417
65312W        W29256  35.896  22.161   0.934
65313W        W29257  32.615  28.984  14.900
65314W        W29258  36.550  38.387  11.542
65315W        W29259  11.747  11.711   2.404
65316W        W29260  24.165  20.678   1.740
65317W        W29261  22.654   6.208  10.571
65318W        W29262   6.740  24.676  11.982
65319W        W29263  20.589   4.712  13.875
65320W        W29264  11.632  16.296   2.206
65321W        W29265   7.336  16.117  11.414
65322W        W29266  20.053  39.875  14.507
65323W        W29267  23.684  23.722  14.952
65324W        W29268  26.098  35.571  10.632
65325W        W29269  32.141  34.471  12.414
65326W        W29270  10.866  27.109   3.782
65327W        W29271   9.820  31.953   4.754
65328W        W29272   4.802  44.762  10.534
65329W        W29273  21.167  16.146  13.905
65330W        W29274   4.933  21.615   4.141
65331W        W29275  20.658  22.250   5.321
65332W        W29276  40.326  13.189  10.550
65333W        W29277   6.692  23.178   2.857
65334W        W29278  44.801  44.990  12.929
65335W        W29279   7.679  44.880  12.377
65336W        W29280  10.728  11.216  13.407
65337W        W29281  10.672  40.502   2.203
65338W        W29282  30.642  42.829   5.145
65339W        W29283  12.120  43.773   3.762
65340W        W29284  41.393  26.187  13.935
65341W        W29285  44.443  17.202   3.748
65342W        W29286  30.548  25.197  12.499
65343W        W29287   1.354  39.941  14.320
65344W        W29288   6.743  26.979  11.489
65345W        W29289  31.992  10.788   4.707
65346W        W29290  16.579  41.955   1.217
65347W        W29291  20.564  34.021   3.670
65348W        W29292  28.170   8.826   0.786
65349W        W29293  39.890  15.328   0.396
65350W        W29294  21.720  15.122   2.884
65351W        W29295  11.272  30.622  11.603
65352W        W29296   0.861  32.614  12.560
65353W        W29297  14.294  17.763  14.878
65354W        W29298  20.113  24.092   3.339
65355W        W29299  30.590  24.219  14.441
65356W        W29300  29.109  42.465   0.829
65357W        W29301  44.835   4.343  12.001
65358W        W29302   2.963   3.726  13.360
65359W        W29303  13.155  43.393  14.871
65360W        W29304  17.127  16.586   0.928
65361W        W29305  36.060  25.542   2.384
65362W        W29306  14.741  15.288  11.586
65363W        W29307  22.524   6.848   2.319
65364W        W29308  36.095  36.576   1.779
65365W        W29309  20.209  26.491  11.478
65366W        W29310  15.628  37.423  11.083
65367W        W29311  22.545  38.412   9.978
65368W        W29312  25.122  36.026  13.397
65369W        W29313   5.400  37.948   3.284
65370W        W29314  44.385  39.461  10.967
65371W        W29315  22.052  15.577   1.293
65372W        W29316   8.685  43.332   0.274
65373W        W29317  29.460  42.014   1.894
65374W        W29318  29.639   3.337   1.335
65375W        W29319  25.502  31.981   2.247
65376W        W29320  18.644  11.722   2.204
65377W        W29321   3.717  11.694  10.528
65378W        W29322  43.969  18.711  11.977
65379W        W29323  16.653  42.923  12.063
65380W        W29324  23.664  32.024   3.726
65381W        W29325  21.061  34.463  11.886
65382W        W29326  37.495  44.976   2.281
65383W        W29327  40.031  17.096   2.837
65384W        W29328  15.173  23.566  10.631
65385W        W29329   3.368  31.047   4.224
65386W        W29330  32.111  16.701   4.763
65387W        W29331  21.155  29.955   2.302
65388W        W29332  23.989   3.293  12.447
65389W        W29333   0.491  27.120  12.003
65390W        W29334  13.109  24.975  12.991
65391W        W29335  37.898  34.956  10.597
65392W        W29336  19.134  28.971   2.729
65393W        W29337  22.515   1.946  14.511
65394W        W29338   0.808  28.078  12.388
65395W        W29339  20.107  13.627   2.263
65396W        W29340  18.240  42.450  14.303
65397W        W29341   9.167  18.207  13.375
65398W        W29342  24.532  39.480   4.232
65399W        W29343  30.951  12.696   2.663
65400W        W29344   0.419  11.129   3.267
65401W        W29345  17.784  27.104  11.440
65402W        W29346  42.288   8.743   0.420
65403W        W29347  33.917  41.502  12.414
65404W        W29348  15.596   6.704   4.600
65405W        W29349   7.383  37.861   3.780
65406W        W29350  35.082  43.887  14.350
65407W        W29351  31.569  17.670   1.772
65408W        W29352   0.366  21.611   4.670
65409W        W29353  19.743   7.209  13.035
65410W        W29354  30.928  41.407   2.367
65411W        W29355  44.949  40.023  12.368
65412W        W29356  12.246  41.476   4.711
65413W        W29357  19.190  14.249  13.390
65414W        W29358   4.422   0.779  13.458
65415W        W29359  10.208  21.618   0.361
65416W        W29360  25.657  42.794   0.763
65417W        W29361  40.967  10.687  13.422
65418W        W29362  30.630  23.143   4.836
65419W        W29363  44.854  14.647   4.209
65420W        W29364  16.281   9.875  11.037
65421W        W29365  16.118  28.586  12.416
65422W        W29366  22.014  37.990   1.398
65423W        W29367  25.570  42.785   1.435
65424W        W29368   9.310  17.791  14.025
65425W        W29369  29.606  34.064   3.831
65426W        W29370  14.185  44.479  14.792
65427W        W29371  27.175   2.347   4.817
65428W        W29372  27.588  43.987   2.396
65429W        W29373  11.754  23.531   3.260
65430W        W29374  20.205  32.125   2.327
65431W        W29375   1.279  15.175   3.826
65432W        W29376   4.716   6.804   4.784
65433W        W29377   9.853  42.818  13.398
65434W        W29378  42.023   2.930  10.603
65435W        W29379  29.431   3.303  13.048
65436W        W29380  34.890  16.629   4.226
65437W        W29381  30.528  24.041   1.833
65438W        W29382  30.459  19.561   3.750
65439W        W29383  32.566   4.336  14.986
65440W        W29384   4.715  20.584   2.886
65441W        W29385  21.590  26.951  10.486
65442W        W29386  27.178   4.261  14.963
65443W        W29387  35.378  24.085   3.355
65444W        W29388  11.767  34.377  13.452
65445W        W29389  14.760  17.295  13.865
65446W        W29390  37.849  34.503  12.964
65447W        W29391   3.922   0.305  14.972
65448W        W29392  17.777  44.753  11.995
65449W        W29393  13.165  31.122  13.844
65450W        W29394  31.074  39.369   5.221
65451W        W29395  43.363  39.508   3.241
65452W        W29396  31.061  37.010   3.310
65453W        W29397  40.330  27.987  12.851
65454W        W29398   4.831  22.021   0.433
65455W        W29399  37.534  30.510  13.868
65456W        W29400   4.446  10.699   2.308
65457W        W29401  26.679  24.645   3.263
65458W        W29402  18.558  14.200   1.809
65459W        W29403  12.791  41.319  12.917
65460W        W29404  34.593  31.984  14.340
65461W        W29405   7.699   2.734   2.292
65462W        W29406  33.130  38.970  14.393
65463W        W29407  41.478  15.184  14.420
65464W        W29408  33.472  38.933   2.382
65465W        W29409   3.334  26.987   5.217
65466W        W29410  35.413  18.146  14.402
65467W        W29411  35.992   0.442  14.003
65468W        W29412   1.357  23.506  11.385
65469W        W29413  31.069   6.266   2.385
65470W        W29414  40.821  33.465   4.837
65471W        W29415  17.087  28.666  10.565
65472W        W29416   8.264  43.312  12.340
65473W        W29417  14.689  17.637   4.330
65474W        W29418  43.847   6.703  10.602
65475W        W29419   8.785   6.767  13.858
65476W        W29420  18.753  38.358  10.503
65477W        W29421  24.713  13.791   2.212
65478W        W29422  42.304  43.327   0.265
65479W        W29423  11.169  23.125   0.278
65480W        W29424  41.495  32.535  12.856
65481W        W29425  28.955  33.449  12.367
65482W        W29426   7.783  39.457   0.383
65483W        W29427  26.586  21.163   1.858
65484W        W29428  27.499  28.945   0.438
65485W        W29429  32.076  43.383   1.769
65486W        W29430  39.503  29.438  12.877
65487W        W29431  17.663  15.737   3.660
65488W        W29432  27.197  40.996   5.643
65489W        W29433   5.431  34.055   0.417
65490W        W29434  40.905  38.971   1.767
65491W        W29435   4.364   8.712  13.439
65492W        W29436  11.816   1.794  12.525
65493W        W29437   3.781  28.489   2.691
65494W        W29438   3.883  35.957   3.166
65495W        W29439  38.987  12.813  13.413
65496W        W29440   3.788  42.308   1.779
65497W        W29441   8.832  43.842  14.919
65498W        W29442  22.227   6.299  14.030
65499W        W29443  11.643   5.289  14.926
65500W        W29444  40.974  17.129  12.904
65501W        W29445  26.006   5.709   3.848
65502W        W29446  30.992  32.599  13.858
65503W        W29447   1.745  29.560   3.300
65504W        W29448  20.258   2.426   0.306
65505W        W29449  26.990  16.125   3.364
65506W        W29450   8.225  19.263  14.316
65507W        W29451  30.151  23.984  11.455
65508W        W29452  20.030   8.823  12.844
65509W        W29453  41.383  37.975  14.281
65510W        W29454  41.912   6.693   4.122
65511W        W29455  40.352  24.027   3.833
65512W        W29456  29.120  37.084  11.910
65513W        W29457  10.344  39.378  13.873
65514W        W29458   7.384   4.929   0.366
65515W        W29459  13.313  26.021   2.268
65516W        W29460  21.140   1.332  10.913
65517W        W29461  15.291  23.619   1.739
65518W        W29462  23.568   5.762   0.464
65519W        W29463  10.199  10.183  10.067
65520W        W29464  42.860  21.085  14.976
65521W        W29465  23.045  24.197  13.986
65522W        W29466  25.032  21.048  13.020
65523W        W29467  10.850  10.153  13.316
65524W        W29468  36.374  43.326   2.211
65525W        W29469  10.703  36.966  13.847
65526W        W29470  35.489   7.182  11.909
65527W        W29471  21.520  17.789   2.681
65528W        W29472  38.530   5.876  10.410
65529W        W29473  43.952  34.977  13.039
65530W        W29474   1.776  43.417   2.183
65531W        W29475  39.024  36.987  12.008
65532W        W29476  33.115  20.082  10.929
65533W        W29477  19.732  43.969  13.819
65534W        W29478  22.577   4.421   3.375
65535W        W29479  28.572  43.391  12.940
65536W        W29480  34.601   3.909   4.197
65537W        W29481  22.106  36.073   2.214
65538W        W29482  42.824  25.995   3.277
65539W        W29483  20.661  23.565  12.090
65540W        W29484   5.763  21.108  12.383
65541W        W29485  16.256   8.375   3.230
65542W        W29486  23.084   5.688   4.798
65543W        W29487  40.822  20.729  12.402
65544W        W29488  21.071  28.994   5.187
65545W        W29489  38.548  37.931   4.215
65546W        W29490  18.113  18.768  13.846
65547W        W29491  28.982  16.285  14.871
65548W        W29492  37.841  41.324  13.994
65549W        W29493  27.650   2.396   4.609
65550W        W29494  19.275  41.394   2.385
65551W        W29495  17.774  44.802  12.922
65552W        W29496  39.010  24.616  10.888
65553W        W29497  26.063   7.855  14.961
65554W        W29498  21.575  29.141  12.450
65555W        W29499  18.755  43.382   3.333
65556W        W29500   8.793  26.000  10.485
65557W        W29501  26.032  41.417  10.488
65558W        W29502   3.318   4.806   2.408
65559W        W29503   4.936   9.733   0.278
65560W        W29504  13.182  40.514  10.993
65561W        W29505  10.772  16.079  13.916
65562W        W29506   3.437  42.410  13.339
65563W        W29507  25.973  15.297   3.334
65564W        W29508  38.006  42.881   0.865
65565W        W29509  30.142  38.373  12.941
65566W        W29510  11.344  26.974  10.608
65567W        W29511   0.350  33.112  14.282
65568W        W29512   5.777   9.368   1.265
65569W        W29513  22.515   9.703   1.934
65570W        W29514  39.382   5.274   1.737
65571W        W29515  12.746  28.042  12.084
65572W        W29516   2.466  43.495   0.450
65573W        W29517  11.781   8.271  11.511
65574W        W29518  21.526  34.982  14.423
65575W        W29519  38.912   1.759  12.824
65576W        W29520  12.772  16.153   3.350
65577W        W29521  38.886  28.984   1.917
65578W        W29522   0.374  10.712  14.321
65579W        W29523  12.280   1.272   0.786
65580W        W29524  38.826  17.173   1.872
65581W        W29525  25.683  22.632  13.878
65582W        W29526   8.814  43.283   2.683
65583W        W29527  20.258  36.007   1.273
65584W        W29528  14.631  40.353   1.740
65585W        W29529  23.603  31.091   2.719
65586W        W29530   7.795  30.088  12.435
65587W        W29531  15.318  42.845  11.109
65588W        W29532   5.775  40.862   2.412
65589W        W29533  32.032   3.417  14.353
65590W        W29534  11.287   0.334   1.758
65591W        W29535  11.328  20.117  14.370
65592W        W29536  23.583  37.035  12.071
65593W        W29537  38.849  38.884  11.072
65594W        W29538  35.904  24.132   4.272
65595W        W29539  23.016   8.341   4.757
65596W        W29540  34.378   5.355   0.886
65597W        W29541  18.274   6.914  11.115
65598W        W29542   9.266  11.197   3.269
65599W        W29543   4.223  17.116   4.337
65600W        W29544  32.610   4.370  11.984
65601W        W29545  36.926  11.665  14.014
65602W        W29546  31.546  43.004   0.888
65603W        W29547   9.306   9.716   2.348
65604W        W29548  21.564  14.645   3.839
65605W        W29549  12.207   5.403  10.902
65606W        W29550  28.666   6.305   1.382
65607W        W29551  21.746  12.171  10.919
65608W        W29552  31.624  13.236  13.518
65609W        W29553   1.815  39.515  13.835
65610W        W29554  43.887  26.611   3.310
65611W        W29555  38.823  25.185   5.083
65612W        W29556  30.931  34.060  11.492
65613W        W29557  35.013  16.209  12.970
65614W        W29558   0.451  20.577  13.531
65615W        W29559  12.131  20.723  13.522
65616W        W29560  33.516  42.903   4.189
65617W        W29561  32.568  20.254   3.789
65618W        W29562  12.217  15.135   3.671
65619W        W29563  14.775  34.422  11.386
65620W        W29564  25.537  35.047   4.631
65621W        W29565  25.031  43.806  14.761
65622W        W29566  41.010  28.510   0.771
65623W        W29567  44.457  38.384   3.714
65624W        W29568  36.437  38.392   2.211
65625W        W29569  42.874   5.708   3.639
65626W        W29570  20.547  19.772  13.870
65627W        W29571  35.046  34.394   2.838
65628W        W29572   9.249   3.454   3.346
65629W        W29573  27.181  37.352   0.799
65630W        W29574  26.047  29.654   3.643
65631W        W29575  21.253   3.414   4.125
65632W        W29576  33.951  43.018  11.395
65633W        W29577  32.941  16.748   2.671
65634W        W29578  14.183   3.926  12.996
65635W        W29579   2.849  28.024  10.984
65636W        W29580  43.021  16.750  12.502
65637W        W29581  27.140   3.872   4.612
65638W        W29582  11.133  13.786   0.832
65639W        W29583  39.873  15.169  12.950
65640W        W29584  17.704   8.189  13.312
65641W        W29585   9.703  21.675  14.372
65642W        W29586  25.105  18.121   1.917
65643W        W29587  33.432  32.887  11.571
65644W        W29588  21.206   8.849   9.992
65645W        W29589  38.383   0.331  10.897
65646W        W29590   1.896  39.422  14.987
65647W        W29591   1.468  23.538  10.590
65648W        W29592   9.226   0.321  13.949
65649W        W29593  12.637  24.610   4.779
65650W        W29594   4.355   1.757  10.451
65651W        W29595  43.849   6.820   0.800
65652W        W29596  21.624  29.511   1.901
65653W        W29597  35.381  22.049   1.876
65654W        W29598  35.099  34.594   3.832
65655W        W29599  27.162  32.451  11.492
65656W        W29600  33.950  44.919  14.943
65657W        W29601  28.549  22.654   3.722
65658W        W29602  33.429  39.029   2.776
65659W        W29603   2.249   6.704  10.428
65660W        W29604  36.008  43.935  11.002
65661W        W29605  18.281  37.032   1.793
65662W        W29606  29.041   6.768   4.812
65663W        W29607  21.531   7.298   0.440
65664W        W29608  14.138   8.247   2.706
65665W        W29609  40.928  30.492  11.589
65666W        W29610  32.909  19.648   3.187
65667W        W29611  40.853  31.122  14.335
65668W        W29612  30.045  15.663  11.540
65669W        W29613  34.601  36.512  10.581
65670W        W29614  37.938  24.642  12.892
65671W        W29615  43.367  29.131  13.442
65672W        W29616  26.186  44.868   1.344
65673W        W29617  26.657  42.959   1.832
65674W        W29618  44.963  21.076  12.933
65675W        W29619  39.891  26.150   4.609
65676W        W29620  38.880  27.635  13.843
65677W        W29621  20.616   7.385  12.497
65678W        W29622  35.524  18.681   3.241
65679W        W29623  43.947  26.120  14.770
65680W        W29624   7.397  12.226  11.989
65681W        W29625  33.595   8.200  10.142
65682W        W29626   9.272  20.643  10.614
65683W        W29627  30.004   5.282  10.898
65684W        W29628   2.263  19.152   1.701
65685W        W29629   0.362  16.088  12.581
65686W        W29630  39.980  17.111  12.406
65687W        W29631   5.231   0.453   4.171
65688W        W29632   7.373  13.762   4.818
65689W        W29633  31.613  18.283   1.714
65690W        W29634  24.576  40.366  11.372
65691W        W29635  42.797  39.943  10.893
65692W        W29636  28.511   4.240  10.582
65693W        W29637  44.890  24.069  14.925
65694W        W29638  11.171   5.341  11.448
65695W        W29639  35.513   3.931   4.287
65696W        W29640  12.226   3.318  12.439
65697W        W29641   8.798  30.446   9.974
65698W        W29642  35.391  12.810   3.649
65699W        W29643  32.055  39.485   4.131
65700W        W29644  23.158  28.949   0.394
65701W        W29645  17.587   5.770  12.486
65702W        W29646   1.393  32.049  10.952
65703W        W29647  31.592  29.607  11.860
65704W        W29648  23.647   7.783  13.420
65705W        W29649  21.185  18.269  13.062
65706W        W29650  34.881  22.057  13.984
65707W        W29651  11.641  34.987   0.877
65708W        W29652  37.031   7.895  12.579
65709W        W29653   5.286  36.416   1.754
65710W        W29654  26.982  33.586  10.978
65711W        W29655  30.607  40.389  11.067
65712W        W29656  40.880  20.197  12.986
65713W        W29657  38.440  35.952   3.652
65714W        W29658  19.049  14.329   5.211
65715W        W29659  10.634  15.682  12.881
65716W        W29660  31.044   8.231  14.820
65717W        W29661  41.506  29.495   3.233
65718W        W29662  12.804  37.537   1.352
65719W        W29663   2.388  12.134   2.212
65720W        W29664   8.368  19.282  11.987
65721W        W29665  29.082  34.465  14.330
65722W        W29666  15.794  10.341   3.680
65723W        W29667  30.035  22.529  14.015
65724W        W29668  35.499  24.513  10.447
65725W        W29669   6.216  23.182  13.818
65726W        W29670  37.988  20.751   4.626
65727W        W29671   0.852  18.194   4.284
65728W        W29672   0.455  10.372   0.731
65729W        W29673  38.532  40.350   0.949
65730W        W29674  41.443   7.910   0.935
65731W        W29675   3.374  22.676   1.766
65732W        W29676  31.542  15.728   0.471
65733W        W29677  44.318  37.371   1.252
65734W        W29678  13.827  23.063  11.025
65735W        W29679  18.199  13.110  11.887
65736W        W29680  13.706  14.267   1.360
65737W        W29681  43.792  40.501  12.549
65738W        W29682  39.527  21.642   2.240
65739W        W29683  32.517  40.026  11.887
65740W        W29684  41.498  25.195  12.433
65741W        W29685  15.718   1.973   4.725
65742W        W29686   3.341   3.413  12.897
65743W        W29687   5.314  43.890   4.740
65744W        W29688  29.959   9.285  12.440
65745W        W29689  27.071  20.196   2.804
65746W        W29690  34.382  19.680  11.001
65747W        W29691  11.816  29.109  14.409
65748W        W29692  13.713   2.397   4.778
65749W        W29693  35.586  42.444   2.895
65750W        W29694  32.977  26.153  10.479
65751W        W29695  31.597  21.639   3.328
65752W        W29696   8.225   4.820  13.827
65753W        W29697   7.829  13.840   1.730
65754W        W29698   9.723  24.201  13.447
65755W        W29699  27.174  13.707  12.894
65756W        W29700   5.209   7.375  11.606
65757W        W29701   9.866  23.191  11.428
65758W        W29702  10.669  11.282  12.988
65759W        W29703  23.622   1.346  13.376
65760W        W29704   6.214  42.435   3.323
65761W        W29705  14.599  16.676   2.236
65762W        W29706  10.810   9.345   1.416
65763W        W29707  25.488  37.916   0.956
65764W        W29708  29.077  35.458  11.497
65765W        W29709  29.580  39.986  14.811
65766W        W29710  26.569  32.896   0.909
65767W        W29711  20.212  28.632  10.910
65768W        W29712  22.054  24.036   1.362
65769W        W29713  31.108  12.293  14.280
65770W        W29714  12.134  12.730   4.734
65771W        W29715  23.241  39.549   1.297
65772W        W29716  15.168  16.173   4.256
65773W        W29717  44.767  11.707  11.434
65774W        W29718   5.911  27.609  12.948
65775W        W29719  20.272  20.107   0.382
65776W        W29720  31.997  37.429  14.350
65777W        W29721  11.844  11.153   4.228
65778W        W29722  38.405  40.416  10.407
65779W        W29723  13.667  16.175  14.316
65780W        W29724  16.123  20.539   1.878
65781W        W29725  31.423  38.541   2.237
65782W        W29726   6.218  32.466  10.640
65783W        W29727  10.270  27.681  11.443
65784W        W29728   1.369  24.484   3.285
65785W        W29729  25.498  20.747  10.485
65786W        W29730  27.059  32.943  14.880
65787W        W29731   0.446  24.133  13.995
65788W        W29732  17.656  11.626  10.543
65789W        W29733  18.781  14.830  13.354
65790W        W29734  23.585   2.827  10.569
65791W        W29735  28.503  23.025   3.801
65792W        W29736  41.506  24.479   4.666
65793W        W29737  30.935  15.305  12.500
65794W        W29738  32.543   7.776  13.437
65795W        W29739  11.790  34.396   4.755
65796W        W29740  38.022  29.024  11.603
65797W        W29741  42.942  13.600   0.833
65798W        W29742  36.452   9.660   3.307
65799W        W29743  36.486  36.863   3.195
65800W        W29744  25.002  35.986   1.753
65801W        W29745  20.756   3.829   2.678
65802W        W29746   0.815  43.344  14.380
65803W        W29747  36.986  19.215   1.401
65804W        W29748   0.473   4.337  11.074
65805W        W29749  14.591  11.279   1.880
65806W        W29750  28.521  18.770   3.709
65807W        W29751   7.306  13.303   0.765
65808W        W29752  24.140  13.739  14.331
65809W        W29753  26.116  22.041   1.326
65810W        W29754  22.074   6.191  14.901
65811W        W29755  10.310   0.746   4.216
65812W        W29756  15.663  19.152  11.456
65813W        W29757  20.617  30.603  10.553
65814W        W29758  40.891  33.426  10.505
65815W        W29759  37.539  44.962   2.817
65816W        W29760  41.461   2.966  12.915
65817W        W29761  32.915  27.448  13.334
65818W        W29762  21.714  16.621   2.866
65819W        W29763   9.294  41.350  10.931
65820W        W29764  21.049  29.112  14.343
65821W        W29765   4.324  21.068   4.778
65822W        W29766  10.265  11.142   4.693
65823W        W29767  22.235   3.916  11.049
65824W        W29768  27.517  21.022   3.152
65825W        W29769  21.247   8.266   1.349
65826W        W29770   2.440   7.206   2.193
65827W        W29771   5.801  12.624   1.381
65828W        W29772  22.535  20.072  13.967
65829W        W29773  20.036   4.815  10.888
65830W        W29774   0.864  32.053  10.020
65831W        W29775   7.792  33.485   3.816
65832W        W29776  28.668  43.894  13.892
65833W        W29777  29.954   7.895  12.852
65834W        W29778  39.999  28.104   1.899
65835W        W29779  30.140  19.771   0.442
65836W        W29780  31.081   0.474   1.704
65837W        W29781  15.313  17.616   1.767
65838W        W29782  30.908  39.999   5.260
65839W        W29783   6.881  10.160   1.868
65840W        W29784  39.430  32.066   2.336
65841W        W29785  39.987  40.363   2.774
65842W        W29786   7.205   1.349  12.359
65843W        W29787  23.137  35.512  12.942
65844W        W29788  10.225  34.384   4.793
65845W        W29789  36.088  10.776  12.021
65846W        W29790  32.910  10.265  14.388
65847W        W29791  43.976  35.041  11.475
65848W        W29792  41.970  13.640   2.327
65849W        W29793  12.784  14.643  13.898
65850W        W29794  20.230  20.605  13.034
65851W        W29795  32.012  41.901   4.757
65852W        W29796  34.922  35.425   2.730
65853W        W29797  25.513  43.323   2.820
65854W        W29798  25.670  38.415   2.419
65855W        W29799  29.589  36.547  10.588
65856W        W29800   3.248  13.172   4.215
65857W        W29801  38.877   8.271   3.155
65858W        W29802   7.900  22.169  12.458
65859W        W29803  23.510   5.900  11.910
65860W        W29804  41.900   0.442  14.857
65861W        W29805  16.716  15.819   0.867
65862W        W29806  24.543   1.804  14.844
65863W        W29807  12.286  18.731  11.895
65864W        W29808   0.763   3.234   3.255
65865W        W29809  11.779  16.212  14.927
65866W        W29810  33.938  44.370   0.287
65867W        W29811  27.645  30.086   0.931
65868W        W29812  17.603  44.500   3.824
65869W        W29813  42.510  20.137   0.794
65870W        W29814  26.486  31.611  10.599
65871W        W29815  14.769  35.598  14.348
65872W        W29816  33.922  13.204   2.680
65873W        W29817   2.934  30.920   2.792
65874W        W29818  34.087   0.813  12.945
65875W        W29819  27.043  43.801  14.374
65876W        W29820  26.564   0.391   0.326
65877W        W29821   5.908   6.207   4.689
65878W        W29822  12.719  25.673   3.239
65879W        W29823  39.883  38.547  12.546
65880W        W29824  13.600  32.545   0.945
65881W        W29825  16.186  11.828   2.872
65882W        W29826  27.142  27.049  13.001
65883W        W29827  19.624  42.819   3.311
65884W        W29828  42.832  12.273   3.717
65885W        W29829  32.492  39.491   4.820
65886W        W29830  12.620   1.935   1.403
65887W        W29831  21.066  15.237   3.314
65888W        W29832  13.742  25.056  13.790
65889W        W29833  22.642   7.708  12.508
65890W        W29834   4.782   5.336  13.518
65891W        W29835  19.112  34.542  14.782
65892W        W29836  15.653   0.494  10.013
65893W        W29837   5.821  17.261  10.913
65894W        W29838  16.579  19.162   2.246
65895W        W29839  39.019  29.053   0.457
65896W        W29840  25.114  30.007  10.590
65897W        W29841  38.348  10.826  12.067
65898W        W29842  11.333  12.824   0.879
65899W        W29843  20.716  38.901   4.812
65900W        W29844  26.987  18.215   4.287
65901W        W29845  44.333   4.834  12.353
65902W        W29846  35.448   1.896  12.028
65903W        W29847  35.037  26.013  13.347
65904W        W29848  37.344  17.152  11.020
65905W        W29849   6.783  21.534   3.647
65906W        W29850  21.153  31.633   3.739
65907W        W29851  42.954  39.428  14.441
65908W        W29852   1.275  20.566   4.272
65909W        W29853  25.485   8.805   0.737
65910W        W29854   2.920  32.456   1.769
65911W        W29855   4.889   4.411   1.334
65912W        W29856  35.978  15.099   4.755
65913W        W29857  17.071  24.517  12.499
65914W        W29858  44.853  30.912  11.409
65915W        W29859  15.202  34.000   1.928
65916W        W29860   1.366   7.875  14.858
65917W        W29861  25.709  25.709  13.955
65918W        W29862  23.576  27.977  14.450
65919W        W29863   3.418  17.236   2.275
65920W        W29864  38.931   1.794  10.480
65921W        W29865  43.911  29.025   2.676
65922W        W29866  33.532  34.487  13.317
65923W        W29867  42.330  14.813   3.692
65924W        W29868  40.476  41.437   3.640
65925W        W29869  29.582  18.750   4.145
65926W        W29870   6.821   1.957  14.468
65927W        W29871  27.051  35.098  11.530
65928W        W29872  10.773  34.613   4.829
65929W        W29873   3.884  31.041  14.279
65930W        W29874  31.464   3.220   4.626
65931W        W29875  28.517  10.288  10.592
65932W        W29876  14.763  44.344   4.735
65933W        W29877  42.411   5.316   0.770
65934W        W29878  17.602  31.500  14.499
65935W        W29879  28.137   1.423  10.081
65936W        W29880  10.239  35.456   4.276
65937W        W29881  28.044  33.585  10.916
65938W        W29882  10.697  32.032  13.062
65939W        W29883  44.416  19.585  12.826
65940W        W29884  22.095  15.083   0.314
65941W        W29885   3.388  33.889  14.941
65942W        W29886  31.592   0.434  10.985
65943W        W29887  34.409  42.514  13.800
65944W        W29888  11.290  23.221  12.485
65945W        W29889  21.655  14.618   4.699
65946W        W29890  39.544  16.642   0.814
65947W        W29891   0.845  22.237  10.436
65948W        W29892  26.700  21.728   4.795
65949W        W29893  19.536   0.879   1.305
65950W        W29894  23.045  10.639   3.695
65951W        W29895  38.059  25.617   1.706
65952W        W29896  35.403  37.489  14.482
65953W        W29897  31.474  27.460   3.732
65954W        W29898   2.259   6.372  13.874
65955W        W29899  25.001   8.749   0.468
65956W        W29900   0.902   3.816  12.063
65957W        W29901  25.646  20.212  11.938
65958W        W29902  37.563   9.175   3.270
65959W        W29903  44.264  19.581   0.819
65960W        W29904   3.231  25.148   2.265
65961W        W29905  15.251  40.841  11.379
65962W        W29906  38.899  18.672  13.900
65963W        W29907  36.979  16.717  12.918
65964W        W29908  44.897  28.943   0.371
65965W        W29909  14.623   0.424  11.069
65966W        W29910  41.470  30.466  10.526
65967W        W29911   9.667  17.172   3.688
65968W        W29912  35.925  30.133   1.398
65969W        W29913  35.926  33.386  11.502
65970W        W29914  32.629  15.170  10.970
65971W        W29915  23.622  11.793   3.769
65972W        W29916   8.766   5.204  12.823
65973W        W29917  37.555  25.211   3.148
65974W        W29918  22.115   3.949   4.133
65975W        W29919  38.507   6.274  10.108
65976W        W29920   1.852  23.079  11.897
65977W        W29921  16.229  16.729  13.465
65978W        W29922   4.425  32.025   2.739
65979W        W29923  23.649  14.667   1.250
65980W        W29924  36.463  12.295  11.873
65981W        W29925  34.917  36.091  14.994
65982W        W29926   7.346   3.304   1.230
65983W        W29927  11.356  36.363   1.231
65984W        W29928  35.584  23.038   1.272
65985W        W29929  14.231  23.054   3.796
65986W        W29930  22.618  17.740  14.402
65987W        W29931  27.459  43.791  14.858
65988W        W29932  33.532  21.705  12.060
65989W        W29933  37.085  36.938  10.404
65990W        W29934  32.629  15.801   9.979
65991W        W29935   2.902  11.192  14.957
65992W        W29936  23.601  37.904   0.334
65993W        W29937  20.086  14.683  14.923
65994W        W29938   5.751  38.051  14.341
65995W        W29939  28.456  35.894   3.382
65996W        W29940   5.259   6.855  12.344
65997W        W29941  39.862  29.022   0.929
65998W        W29942   6.916  15.172   4.313
65999W        W29943  31.942  26.696  12.062
66000W        W29944  21.229  25.056  11.968
66001W        W29945  33.025  20.253   0.944
66002W        W29946  11.745  23.723   1.387
66003W        W29947   0.836   8.213  10.639
66004W        W29948   6.319   0.391  11.382
66005W        W29949  37.834  17.650   0.366
66006W        W29950  26.500  39.384  14.296
66007W        W29951  14.177  17.578  13.320
66008W        W29952  12.685   3.257   2.779
66009W        W29953   0.742  40.415  11.484
66010W        W29954  29.583  42.502   4.731
66011W        W29955   8.680  31.114  13.935
66012W        W29956  29.590  17.181  14.799
66013W        W29957  13.128  33.500  11.900
66014W        W29958  30.942   0.475  13.992
66015W        W29959  43.315  12.267  11.604
66016W        W29960  19.629   9.240  11.420
66017W        W29961   1.442  15.592  12.047
66018W        W29962  35.961  21.151  10.457
66019W        W29963  25.498   7.251  11.123
66020W        W29964  24.155  27.101  10.981
66021W        W29965  11.187  18.619   9.464
66022W        W29966  34.090  34.086  11.991
66023W        W29967  33.614  18.274   3.202
66024W        W29968  10.264  21.568  10.533
66025W        W29969   6.390   4.429  10.963
66026W        W29970   3.788   4.847   1.268
66027W        W29971  20.264  42.469  14.002
66028W        W29972  20.613  26.995   0.407
66029W        W29973  22.177  39.476   4.827
66030W        W29974  16.623   7.250  14.380
66031W        W29975  16.269  10.735   2.810
66032W        W29976  40.875  29.508   0.821
66033W        W29977   3.439   6.829  13.835
66034W        W29978   3.424  24.117  10.630
66035W        W29979  42.956  21.112   1.834
66036W        W29980   9.684   9.785   3.825
66037W        W29981  12.645  12.293  13.988
66038W        W29982  28.932   3.309   1.887
66039W        W29983   8.868  41.879   4.607
66040W        W29984  13.714   8.379  14.333
66041W        W29985   3.357  17.596  10.483
66042W        W29986  42.408  39.465   3.151
66043W        W29987  24.115  40.456  14.966
66044W        W29988  18.689  21.526  14.468
66045W        W29989  38.530  15.722  11.538
66046W        W29990   7.764  33.913   4.146
66047W        W29991  16.586  10.328   0.292
66048W        W29992  41.376  14.244   0.316
66049W        W29993  25.471  44.783   4.291
66050W        W29994  20.107  42.814  11.435
66051W        W29995  30.020   0.254  13.937
66052W        W29996  25.496  17.747   4.630
66053W        W29997  18.654   9.833   4.733
66054W        W29998  37.380  28.650   3.823
66055W        W29999   8.254  44.775  12.452
66056W        W30000  23.142   2.933  13.450
66057W        W30001   1.444  38.035  13.864
66058W        W30002   7.869  40.480   1.917
66059W        W30003  11.623  10.315   1.910
66060W        W30004  34.410   9.847   4.216
66061W        W30005  25.176   4.802  10.622
66062W        W30006  34.522  14.321   4.345
66063W        W30007   0.761  14.672   4.793
66064W        W30008  26.131  41.030  13.401
66065W        W30009  27.066  11.130   4.223
66066W        W30010  18.616   8.690   2.802
66067W        W30011  31.597  26.991   1.344
66068W        W30012  15.766  22.231  12.515
66069W        W30013  37.376  25.643  14.845
66070W        W30014  30.566  29.585  10.957
66071W        W30015  43.892  35.518  13.422
66072W        W30016  23.527   1.911   4.252
66073W        W30017  14.159   3.215  11.447
66074W        W30018  25.969   2.862  12.578
66075W        W30019   2.953  42.903  12.870
66076W        W30020   1.356   2.963  10.507
66077W        W30021  19.154  22.589   0.766
66078W        W30022  17.110  12.617   1.831
66079W        W30023  38.043  22.023  13.411
66080W        W30024  33.460  20.038   2.367
66081W        W30025  38.822  15.190  13.908
66082W        W30026   8.319  30.588   3.672
66083W        W30027  41.921  39.383  14.432
66084W        W30028   8.315  25.172   3.375
66085W        W30029  25.477   4.272  13.912
66086W        W30030   2.311  21.744   0.785
66087W        W30031  41.793  31.509   2.292
66088W        W30032  43.938  31.088   3.752
66089W        W30033  30.934   5.325   3.782
66090W        W30034  22.683  41.526  11.040
66091W        W30035   6.753   1.437   2.367
66092W        W30036  30.654   5.861   4.789
66093W        W30037  39.363   9.277  11.438
66094W        W30038  18.120  24.536   0.754
66095W        W30039  43.906  15.607  10.567
66096W        W30040   9.253  16.230  13.477
66097W        W30041  12.154  28.656   4.194
66098W        W30042  29.582  36.387   3.862
66099W        W30043  26.555  11.153  11.949
66100W        W30044  23.995  29.543   2.329
66101W        W30045  23.609  12.769   2.811
66102W        W30046   0.385   2.344  14.842
66103W        W30047  13.796   2.804   2.363
66104W        W30048  27.072  38.377   4.624
66105W        W30049  40.419  22.694   0.938
66106W        W30050  29.074  29.527  14.915
66107W        W30051  36.954  26.471  10.923
66108W        W30052  40.800  17.589   3.326
66109W        W30053  30.119   6.706   1.397
66110W        W30054   6.338  41.406  14.902
66111W        W30055  13.762  18.548  13.868
66112W        W30056  16.140   8.755  10.416
66113W        W30057  19.160  30.463   3.282
66114W        W30058  12.330  25.063   4.611
66115W        W30059  40.972   2.251   3.252
66116W        W30060  28.032  14.202   0.322
66117W        W30061   5.893   1.962   2.888
66118W        W30062  34.409   0.760  12.479
66119W        W30063   4.917  10.372   0.857
66120W        W30064   3.902  26.463   1.746
66121W        W30065  10.783   2.893   1.738
66122W        W30066  17.214   4.418  13.337
66123W        W30067  27.682  22.594  12.471
66124W        W30068   0.757   1.274   3.156
66125W        W30069   4.415  15.301  14.473
66126W        W30070  26.554  36.549  14.982
66127W        W30071  14.664  26.071   2.690
66128W        W30072  38.417  30.054  13.025
66129W        W30073  18.597  37.847  13.440
66130W        W30074  24.125  34.583  13.979
66131W        W30075   0.315  43.775   1.346
66132W        W30076  21.106  35.373  14.447
66133W        W30077  25.965  43.002   0.746
66134W        W30078  16.711  10.839   4.718
66135W        W30079  44.391  23.639   1.728
66136W        W30080  41.970  12.155   3.747
66137W        W30081  20.680  30.114  13.036
66138W        W30082  38.839  28.534  11.518
66139W        W30083  14.332  15.203   2.318
66140W        W30084  16.244   9.754  13.976
66141W        W30085  26.627   8.666   4.602
66142W        W30086  10.862  28.991   3.780
66143W        W30087   8.203  18.723  13.845
66144W        W30088  25.514   9.838  10.977
66145W        W30089  35.458  19.754   4.284
66146W        W30090  41.006  32.102  10.635
66147W        W30091  40.443   4.772   4.799
66148W        W30092  19.099   3.267  12.923
66149W        W30093  39.894  21.751  14.409
66150W        W30094  38.324  39.438  11.481
66151W        W30095  22.578  27.087  14.804
66152W        W30096  35.950  42.464  11.054
66153W        W30097   5.892  25.083  11.378
66154W        W30098   2.918  35.881  12.059
66155W        W30099  39.377  17.682  13.805
66156W        W30100  41.965  20.087   4.136
66157W        W30101  30.090   9.297   0.737
66158W        W30102  14.103  16.235   4.652
66159W        W30103   6.423  18.245   2.284
66160W        W30104  42.413  34.583  12.426
66161W        W30105  23.724  23.673  10.527
66162W        W30106  12.122   5.814   1.317
66163W        W30107  43.853  14.238   0.257
66164W        W30108  10.763   5.277   3.291
66165W        W30109  17.236  41.444  10.495
66166W        W30110  12.719  22.125  10.995
66167W        W30111  21.751  15.824  13.396
66168W        W30112  36.443  13.227   1.927
66169W        W30113   3.285  27.487   2.256
66170W        W30114   2.228  26.955  13.356
66171W        W30115  37.033  33.623   4.605
66172W        W30116  21.590   8.302   2.367
66173W        W30117  16.237   3.266  14.937
66174W        W30118  30.159   4.733   1.420
66175W        W30119  31.945  42.357   4.159
66176W        W30120   5.290  33.936   0.786
66177W        W30121  39.418   8.342  14.796
66178W        W30122  26.514  24.595   2.369
66179W        W30123  41.985  21.073   4.675
66180W        W30124   1.778  32.441   0.445
66181W        W30125   7.320   3.730   3.738
66182W        W30126  27.684  23.117   3.267
66183W        W30127  10.850  18.677   0.781
66184W        W30128  13.272  37.484   5.089
66185W        W30129  29.034  22.692  11.041
66186W        W30130  15.613  43.012   5.275
66187W        W30131   9.297   7.905  14.407
66188W        W30132  25.035  34.015  11.503
66189W        W30133  41.912  13.153   0.791
66190W        W30134  44.318  30.148   2.191
66191W        W30135  33.946  31.997   0.899
66192W        W30136  32.066   7.293   3.212
66193W        W30137  42.960  33.967   4.750
66194W        W30138  42.019  10.310   9.984
66195W        W30139  29.617  29.665  12.057
66196W        W30140  24.495   4.439  10.474
66197W        W30141  19.276  36.362  13.370
66198W        W30142  15.182  22.565  13.510
66199W        W30143  21.714  31.404   3.212
66200W        W30144  12.332  19.630   0.358
66201W        W30145  20.227  26.040   3.257
66202W        W30146   6.276  14.784  11.960
66203W        W30147  23.711  36.461   3.239
66204W        W30148  40.013   3.266   3.728
66205W        W30149   7.768  30.554   3.820
66206W        W30150   8.712  39.010   2.233
66207W        W30151  18.574  28.976   3.796
66208W        W30152  33.483  19.232   4.304
66209W        W30153  23.670  36.366   2.413
66210W        W30154   1.875  43.416  13.868
66211W        W30155  41.469  22.143  11.956
66212W        W30156  21.175   0.322   0.440
66213W        W30157  19.209  42.013  10.528
66214W        W30158  41.026  26.585   3.162
66215W        W30159  41.963  36.435  12.959
66216W        W30160  31.546   4.346   4.792
66217W        W30161  32.614   5.215   2.263
66218W        W30162  18.219  43.316  14.870
66219W        W30163  13.158  41.409   0.890
66220W        W30164  14.132  38.548  14.280
66221W        W30165  21.573  37.006  13.825
66222W        W30166  43.344  19.188  10.495
66223W        W30167  21.629   6.858  13.055
66224W        W30168  11.758  27.603   3.840
66225W        W30169  44.424  19.067   2.370
66226W        W30170  35.536   6.329  11.038
66227W        W30171  11.677   0.247   0.944
66228W        W30172  38.064  29.975   4.207
66229W        W30173   5.234   2.274  10.948
66230W        W30174  17.699   9.670  12.922
66231W        W30175  42.342   2.726   2.852
66232W        W30176  18.146   0.472   0.399
66233W        W30177  40.852   9.323  12.474
66234W        W30178  12.781   6.918  14.489
66235W        W30179  26.692  12.150  12.905
66236W        W30180  13.629  31.625   1.916
66237W        W30181  10.651  31.414  13.017
66238W        W30182  12.776  10.380   2.792
66239W        W30183  12.139   8.265   2.694
66240W        W30184  43.872  37.991   4.251
66241W        W30185  24.625  18.665   4.324
66242W        W30186  12.205  28.072   0.764
66243W        W30187   5.737  19.632  13.415
66244W        W30188   3.244  42.457   4.314
66245W        W30189  15.310  44.967  12.397
66246W        W30190  21.176  23.136  10.922
66247W        W30191  12.293  41.395   0.337
66248W        W30192  28.011  30.503  11.111
66249W        W30193  24.631  18.262   3.330
66250W        W30194   4.821  35.553  14.810
66251W        W30195  30.575   7.186   0.871
66252W        W30196  12.633  29.016   1.821
66253W        W30197  29.548   7.812   4.828
66254W        W30198  36.062  43.410   2.777
66255W        W30199  21.159  39.328  12.356
66256W        W30200  13.225  28.153   3.763
66257W        W30201   0.276  26.058   1.415
66258W        W30202  38.032  11.664   4.677
66259W        W30203  13.323  21.070   0.745
66260W        W30204  44.397  39.523   3.164
66261W        W30205   1.274   3.237  14.941
66262W        W30206  29.530  35.402   0.900
66263W        W30207   9.873   2.262  14.957
66264W        W30208   8.223  38.949  12.007
66265W        W30209  16.781   0.794   2.302
66266W        W30210  40.888  29.559   4.221
66267W        W30211  24.158  10.752   2.871
66268W        W30212  40.814  19.187   0.747
66269W        W30213  44.759  13.307   0.336
66270W        W30214  35.586  18.708  14.927
66271W        W30215   2.763  31.995   4.214
66272W        W30216   9.762  36.968  13.869
66273W        W30217  38.447  35.050   4.640
66274W        W30218  30.588   2.810   3.163
66275W        W30219  29.021  23.141   3.712
66276W        W30220  41.891  18.134  11.549
66277W        W30221  32.455  34.946   2.675
66278W        W30222  20.172  11.302  13.544
66279W        W30223  43.965  31.075  12.866
66280W        W30224  27.133  14.620  14.390
66281W        W30225  18.177   4.913   4.645
66282W        W30226  39.837  32.611  14.966
66283W        W30227   9.778  44.312  12.954
66284W        W30228   3.726  26.479   3.762
66285W        W30229  18.175  32.039   3.386
66286W        W30230  20.600  38.063   2.877
66287W        W30231  21.080  10.759   1.424
66288W        W30232  26.485   3.347   3.302
66289W        W30233   5.376  30.978  10.525
66290W        W30234  16.780  30.654  14.349
66291W        W30235  10.704  33.893   1.398
66292W        W30236  44.355   6.395   2.206
66293W        W30237   1.848  10.149  14.899
66294W        W30238  41.465  15.747   2.370
66295W        W30239   7.245  41.402   3.193
66296W        W30240  34.533  11.797  14.360
66297W        W30241  11.356  17.700  11.437
66298W        W30242  20.549  35.580   0.950
66299W        W30243  12.774  21.726   0.401
66300W        W30244   9.191  22.007   4.620
66301W        W30245  16.106   2.349   3.849
66302W        W30246  33.530  13.738   1.919
66303W        W30247  17.614  14.170   1.728
66304W        W30248  35.855  44.983   2.841
66305W        W30249  20.685  17.084   0.739
66306W        W30250  19.626   5.372  12.417
66307W        W30251   1.416  13.203  13.992
66308W        W30252  31.120  29.435  14.902
66309W        W30253  13.622   9.727  13.063
66310W        W30254  30.987  38.544   0.431
66311W        W30255  11.177  37.885   1.262
66312W        W30256  11.226  25.060  10.627
66313W        W30257  35.110  35.393   3.747
66314W        W30258  17.147  43.456   0.830
66315W        W30259   2.769  20.667   3.839
66316W        W30260  15.178  13.843   1.881
66317W        W30261  14.277  13.127   1.834
66318W        W30262  37.021  14.618   4.641
66319W        W30263  11.800  30.939  13.802
66320W        W30264   6.198  26.989  14.319
66321W        W30265  30.598   8.730   0.915
66322W        W30266  44.377  32.526  14.361
66323W        W30267   9.889  25.557  14.432
66324W        W30268  10.256  14.328  13.353
66325W        W30269   7.173  41.295  13.312
66326W        W30270   4.370  23.206  11.379
66327W        W30271  29.508  24.013  11.098
66328W        W30272  38.048  27.133   1.237
66329W        W30273  31.434  13.251   2.245
66330W        W30274  14.796  36.955   3.156
66331W        W30275  24.105  18.625   3.705
66332W        W30276  32.569   0.335  10.952
66333W        W30277  37.969  44.824  10.427
66334W        W30278  24.974  15.231   4.753
66335W        W30279  31.973  11.667   5.276
66336W        W30280  22.645  37.360   1.255
66337W        W30281  37.438  41.791   2.211
66338W        W30282  30.973  30.915  11.568
66339W        W30283   7.672  25.988   0.413
66340W        W30284  28.935  12.330   4.276
66341W        W30285   4.352   0.947  12.403
66342W        W30286   5.414   9.327   2.668
66343W        W30287  16.272  12.689  11.029
66344W        W30288  25.005  10.252   2.363
66345W        W30289  41.372  18.549   3.692
66346W        W30290  34.397   8.311  11.908
66347W        W30291   8.660  40.958  14.851
66348W        W30292  36.579  18.741  12.386
66349W        W30293  18.185   5.234   1.902
66350W        W30294  12.211  15.318  11.479
66351W        W30295  26.616  24.117   4.151
66352W        W30296  26.599  44.261  11.866
66353W        W30297  40.053  32.438   3.220
66354W        W30298   0.801  20.268   4.127
66355W        W30299   0.974   9.845   3.262
66356W        W30300  19.272  29.434   1.856
66357W        W30301  39.511   6.402   2.893
66358W        W30302  30.572  15.213  13.425
66359W        W30303   8.202  33.085   3.361
66360W        W30304  35.465  43.984   1.728
66361W        W30305   7.392  37.949  12.572
66362W        W30306   5.794  17.701  10.924
66363W        W30307  21.568   5.900  12.978
66364W        W30308  14.645  11.170   0.928
66365W        W30309  14.239  36.073  12.857
66366W        W30310  28.434  32.948   3.789
66367W        W30311  44.761  22.034  15.000
66368W        W30312   6.290  28.608  12.036
66369W        W30313  13.703  23.565  13.499
66370W        W30314  36.431   5.434  11.555
66371W        W30315   7.348  18.654  11.990
66372W        W30316  28.581  24.135   0.769
66373W        W30317  30.654  28.437  12.886
66374W        W30318  29.113   1.407  10.891
66375W        W30319  17.649  39.326  12.341
66376W        W30320  18.058  35.512  13.480
66377W        W30321  32.977  17.569  13.890
66378W        W30322  22.197  37.078  10.418
66379W        W30323  43.414  33.464  14.292
66380W        W30324   4.910  37.373   2.831
66381W        W30325  14.216  28.940  14.276
66382W        W30326   6.287  25.158  12.502
66383W        W30327  10.837  40.843  14.314
66384W        W30328  14.684  29.120  14.474
66385W        W30329   0.804  36.357   0.377
66386W        W30330   7.694   7.223  10.144
66387W        W30331  41.805  44.809  12.914
66388W        W30332  42.330  44.259  11.918
66389W        W30333  29.133  32.524  12.070
66390W        W30334   3.869  10.806   1.431
66391W        W30335  33.467  22.071   3.172
66392W        W30336   5.926   7.899   3.809
66393W        W30337   4.865  26.673   2.232
66394W        W30338  23.612  44.945  14.921
66395W        W30339   8.385  33.547  13.436
66396W        W30340   5.726  20.769   2.684
66397W        W30341  28.489  25.529   3.332
66398W        W30342  27.671  23.083  12.497
66399W        W30343  40.426  27.619   0.849
66400W        W30344   3.859  32.943  13.026
66401W        W30345  16.712   6.224   4.220
66402W        W30346  30.922  24.022   4.643
66403W        W30347  33.116  40.317  14.824
66404W        W30348  27.655   5.768  13.854
66405W        W30349  39.042   4.227  13.051
66406W        W30350   5.799  44.397   2.351
66407W        W30351  22.667  37.493   0.423
66408W        W30352   9.786  38.558  11.550
66409W        W30353   8.206  44.500   1.353
66410W        W30354   1.415  11.249   0.245
66411W        W30355  33.079  30.981  11.475
66412W        W30356  44.316   9.650   2.721
66413W        W30357  28.980  10.249   4.230
66414W        W30358  30.010  38.061   0.819
66415W        W30359   6.801  14.615  13.444
66416W        W30360  22.237  40.467  13.366
66417W        W30361   6.335  15.810   1.924
66418W        W30362  14.684   0.871  13.474
66419W        W30363   9.839  19.772   4.712
66420W        W30364   1.280   1.312   2.188
66421W        W30365  41.873   7.758  14.395
66422W        W30366  23.622  26.158   1.795
66423W        W30367  20.556  30.473  12.930
66424W        W30368  26.588   9.775  14.355
66425W        W30369  19.591  18.067  11.921
66426W        W30370   2.841  43.919   0.918
66427W        W30371  15.222  26.098  10.514
66428W        W30372  28.126  31.996  14.843
66429W        W30373  37.877  26.576   3.336
66430W        W30374  38.451  43.891   0.936
66431W        W30375  36.090  27.613   3.208
66432W        W30376  15.604   0.856   0.878
66433W        W30377  11.777  17.671  11.879
66434W        W30378   5.356   2.468   2.415
66435W        W30379   1.475  30.613   3.868
66436W        W30380  34.904  17.220   1.285
66437W        W30381  29.593  15.770  13.919
66438W        W30382  13.728  29.480   1.854
66439W        W30383   5.221  21.544   2.743
66440W        W30384  42.523  20.695  12.347
66441W        W30385  28.937  12.624  11.583
66442W        W30386  27.513   2.948   2.308
66443W        W30387  37.421  30.471  10.994
66444W        W30388  29.175  16.291  10.906
66445W        W30389  23.985  18.253   1.731
66446W        W30390  43.316  23.576   3.234
66447W        W30391  31.127  16.190   5.206
66448W        W30392  40.508  15.747  12.574
66449W        W30393   5.866  21.540   1.393
66450W        W30394  33.468  32.535  11.548
66451W        W30395   5.927   2.271   3.756
66452W        W30396  34.031  22.623  11.525
66453W        W30397  42.334   7.283   1.876
66454W        W30398  17.267  37.842  13.542
66455W        W30399   0.868  27.946   0.835
66456W        W30400   7.256   5.432   2.795
66457W        W30401  14.264  31.579   0.829
66458W        W30402  19.273  12.698   3.828
66459W        W30403  27.036  38.027   4.138
66460W        W30404  22.523   0.338  10.489
66461W        W30405  26.068  16.658  14.986
66462W        W30406  12.179  17.581  10.432
66463W        W30407  43.454  44.462   2.774
66464W        W30408  23.525  31.055  14.919
66465W        W30409  10.809  22.608  14.435
66466W        W30410  41.471  19.250   4.190
66467W        W30411  26.081  18.601  12.913
66468W        W30412  17.139  40.309   4.311
66469W        W30413  10.839  39.823  10.975
66470W        W30414   2.358  28.988   4.145
66471W        W30415  25.668  39.993   3.683
66472W        W30416   0.973  36.043   5.082
66473W        W30417  27.952  39.418   0.266
66474W        W30418  19.198  28.497   2.394
66475W        W30419   9.255  41.333  11.528
66476W        W30420  29.646  24.125   1.283
66477W        W30421   0.792  18.180   0.463
66478W        W30422  18.162  12.362  13.013
66479W        W30423  18.566  37.570   2.799
66480W        W30424  28.963  10.317  11.001
66481W        W30425   4.441   0.944   3.763
66482W        W30426  32.569  11.805   2.784
66483W        W30427   3.366  11.185   2.277
66484W        W30428  26.039   8.193  12.093
66485W        W30429  27.687  17.146  12.407
66486W        W30430  20.095  26.001  14.825
66487W        W30431  28.055  36.943   0.754
66488W        W30432  20.618  36.395   3.337
66489W        W30433  25.496  34.082  13.062
66490W        W30434  35.044  37.337   5.309
66491W        W30435  43.320  43.796  12.095
66492W        W30436  11.703  27.689   3.344
66493W        W30437  24.699   3.865  12.078
66494W        W30438  32.557  35.360   4.128
66495W        W30439  36.043  44.808  13.998
66496W        W30440   5.910  37.536   3.191
66497W        W30441   8.362   6.788   1.801
66498W        W30442   8.338  14.143  10.424
66499W        W30443  15.688  24.145  11.912
66500W        W30444  40.324  23.665   0.469
66501W        W30445  39.054  37.367  13.354
66502W        W30446   3.774  33.016   0.763
66503W        W30447  29.014  15.639   3.319
66504W        W30448  25.583  31.923  10.919
66505W        W30449  23.495  20.597  13.060
66506W        W30450   1.237  15.184   0.910
66507W        W30451  13.181  14.094   2.792
66508W        W30452  19.717  14.717   4.327
66509W        W30453  36.029  27.597   2.864
66510W        W30454  37.487  18.291  10.555
66511W        W30455   9.793  11.827   0.468
66512W        W30456  24.975   9.195  14.899
66513W        W30457  28.555  24.523   2.292
66514W        W30458  25.011   7.798   1.326
66515W        W30459  11.854  34.895  12.408
66516W        W30460  23.602   1.921   2.315
66517W        W30461  28.680  37.972   2.791
66518W        W30462  21.601  16.136  13.322
66519W        W30463   6.282   5.883   0.854
66520W        W30464   7.398  18.092  14.360
66521W        W30465  23.559  12.808   4.183
66522W        W30466  30.025  43.938  11.385
66523W        W30467  34.372   1.376  14.874
66524W        W30468   9.291   4.853   2.715
66525W        W30469  26.146  36.361  14.441
66526W        W30470  40.360  13.738  11.018
66527W        W30471  14.207  22.051  13.004
66528W        W30472   3.323   2.871   3.219
66529W        W30473   8.160  39.929   1.800
66530W        W30474  38.343  39.512  11.861
66531W        W30475  19.145   8.704   4.807
66532W        W30476  43.317  23.116   1.895
66533W        W30477  41.479   7.760  14.976
66534W        W30478  29.993  27.475  12.351
66535W        W30479  32.118  12.129  10.597
66536W        W30480   2.794  12.724   1.373
66537W        W30481  20.696  31.949   0.374
66538W        W30482  36.019  24.095   2.671
66539W        W30483   8.834  22.214  14.981
66540W        W30484  29.642  25.161   0.363
66541W        W30485   0.794  38.534  11.110
66542W        W30486   4.394  35.898  11.591
66543W        W30487  32.564  21.204  10.484
66544W        W30488   8.888   0.302   3.304
66545W        W30489  40.813  13.665  12.826
66546W        W30490   6.777  20.562  14.873
66547W        W30491  41.496  14.154  12.938
66548W        W30492  16.723  39.557   1.326
66549W        W30493   7.679   5.367   2.786
66550W        W30494   0.359   4.379   3.338
66551W        W30495  18.562  41.954   2.803
66552W        W30496  38.984  27.018  14.282
66553W        W30497   0.798  40.812   4.728
66554W        W30498  28.604   8.799   0.264
66555W        W30499   9.194  39.910  10.952
66556W        W30500   8.286  43.846  12.028
66557W        W30501   6.397  42.829  13.792
66558W        W30502  35.870   1.282   4.756
66559W        W30503  34.440   0.850   3.259
66560W        W30504  36.530   5.339   1.227
66561W        W30505  35.975  10.868  10.901
66562W        W30506  42.946  24.628  13.819
66563W        W30507  41.376  34.116   2.769
66564W        W30508   0.413   5.399  11.402
66565W        W30509  15.762  28.489  11.429
66566W        W30510   5.760  36.512   3.689
66567W        W30511  22.508  19.591   2.307
66568W        W30512  22.143  25.988   2.752
66569W        W30513  41.406  40.324   3.321
66570W        W30514  31.030  29.593   3.273
66571W        W30515  13.256  30.636  11.461
66572W        W30516  35.883  17.275   0.941
66573W        W30517  40.478  24.210   1.882
66574W        W30518   7.258  26.995  13.423
66575W        W30519  35.075   7.330  12.954
66576W        W30520  26.640  39.492   0.409
66577W        W30521   0.268   8.203   5.175
66578W        W30522   9.205   9.867   1.778
66579W        W30523  10.171  26.149   0.815
66580W        W30524  27.166  32.007   2.725
66581W        W30525  19.199  12.233  13.446
66582W        W30526   4.380  44.496   3.244
66583W        W30527  28.067  14.653   3.357
66584W        W30528   4.416  25.710  12.061
66585W        W30529  25.205   2.924   0.395
66586W        W30530   3.823  37.347   4.694
66587W        W30531  11.652  39.849  10.438
66588W        W30532  13.302  37.996  11.857
66589W        W30533  18.684  28.566  10.413
66590W        W30534  41.005  39.421   0.309
66591W        W30535   3.230   3.321  12.413
66592W        W30536  44.420  32.110  13.829
66593W        W30537  40.454  44.405  10.917
66594W        W30538  42.819  23.716  13.853
66595W        W30539   8.276   9.662  13.524
66596W        W30540  10.243  35.960  10.488
66597W        W30541  43.326  24.038  12.460
66598W        W30542   7.801  29.148   3.243
66599W        W30543  29.540  10.142   5.316
66600W        W30544  33.995  24.648   0.832
66601W        W30545  34.497   3.410  10.617
66602W        W30546  39.975  33.990  12.095
66603W        W30547  28.943  30.617   2.674
66604W        W30548  34.920  39.857   4.825
66605W        W30549  37.541   9.780   9.996
66606W        W30550  10.144  36.403   0.322
66607W        W30551   3.319  30.521   1.771
66608W        W30552  18.632  13.755   2.187
66609W        W30553   0.850   2.459   4.147
66610W        W30554   8.831  30.035  13.434
66611W        W30555  11.140  25.191   0.333
66612W        W30556  16.662   9.371  14.468
66613W        W30557  17.098  31.522  12.850
66614W        W30558   4.303  16.713  10.473
66615W        W30559  13.816  11.344  13.503
66616W        W30560  43.866  42.899   3.705
66617W        W30561  40.344  35.437  11.063
66618W        W30562  26.157   0.423  13.976
66619W        W30563  13.113  42.406  11.605
66620W        W30564  34.548  36.998  13.903
66621W        W30565  30.506  39.497   4.622
66622W        W30566  42.496  39.974   2.781
66623W        W30567  26.548  33.511  11.110
66624W        W30568  19.196   9.812   0.310
66625W        W30569  20.743  38.896  13.379
66626W        W30570  41.863  14.686   4.798
66627W        W30571  31.949   7.171   4.290
66628W        W30572  17.788  11.323  12.867
66629W        W30573  36.521  34.457   3.718
66630W        W30574  23.540  32.947  13.522
66631W        W30575  29.950   1.746   1.405
66632W        W30576   6.250  17.193  13.527
66633W        W30577  40.394   0.924  14.337
66634W        W30578  35.930  37.922  14.432
66635W        W30579   2.378  17.714   1.213
66636W        W30580  27.178  23.726  13.547
66637W        W30581  20.268  11.138  14.812
66638W        W30582   1.415  42.355   1.887
66639W        W30583  12.207  32.579  11.551
66640W        W30584  34.009  39.410  12.045
66641W        W30585  29.560  11.325   3.254
66642W        W30586  39.398   2.415   1.852
66643W        W30587   4.298   3.380   4.722
66644W        W30588  12.143  21.224   1.807
66645W        W30589  34.087  24.534  14.404
66646W        W30590   1.920  14.787  13.485
66647W        W30591  21.085  25.496   0.285
66648W        W30592  20.534  38.991   4.177
66649W        W30593  31.633   4.769   0.865
66650W        W30594  12.740  12.242   0.963
66651W        W30595   7.410  13.244   3.709
66652W        W30596  21.242  27.026  14.434
66653W        W30597   0.963  24.616  11.920
66654W        W30598  30.632  15.730  13.882
66655W        W30599  30.424   2.877  12.546
66656W        W30600  41.861  35.564  11.073
66657W        W30601   9.836  35.069  13.532
66658W        W30602   8.233  22.123   2.219
66659W        W30603  18.259  15.785  14.975
66660W        W30604  11.236  11.842   4.768
66661W        W30605  25.498  38.533  10.924
66662W        W30606  43.280   5.876   3.643
66663W        W30607  18.075  21.064   3.653
66664W        W30608  14.677  15.197   3.838
66665W        W30609  42.014  28.575  14.969
66666W        W30610  44.373   8.333  14.462
66667W        W30611  32.932  41.535   2.800
66668W        W30612  38.067  26.641  14.298
66669W        W30613  17.600  21.661   0.877
66670W        W30614  22.645  37.940  11.991
66671W        W30615  21.748   1.939   3.310
66672W        W30616  34.511   8.836   3.864
66673W        W30617  25.198  32.587   2.736
66674W        W30618  29.928  14.719  14.806
66675W        W30619  38.877  29.456  11.115
66676W        W30620  13.774  37.845   4.114
66677W        W30621  28.157  21.561   0.372
66678W        W30622  25.185  13.721   1.795
66679W        W30623  44.969  36.591  12.844
66680W        W30624  40.911  31.494  13.020
66681W        W30625  29.995  28.584  13.546
66682W        W30626  28.468  14.797  14.883
66683W        W30627   3.344   0.336  11.031
66684W        W30628  41.851  14.307   1.723
66685W        W30629  14.785  33.973   1.888
66686W        W30630  26.630  44.873   1.235
66687W        W30631   8.830   7.714   0.314
66688W        W30632   3.304  30.513  14.418
66689W        W30633  20.031  43.869  13.039
66690W        W30634  11.729  20.734  14.509
66691W        W30635  12.276  32.893  10.641
66692W        W30636  43.864  38.523  14.793
66693W        W30637  23.516  22.127   3.258
66694W        W30638  31.458  27.028   2.380
66695W        W30639  39.405  36.931   0.823
66696W        W30640  15.717  27.647  13.417
66697W        W30641  13.804   5.754  12.940
66698W        W30642   3.844  27.956   4.672
66699W        W30643  37.932  26.487   1.709
66700W        W30644  20.085  13.179  13.023
66701W        W30645  29.636  40.031   3.162
66702W        W30646  30.448  44.797  12.846
66703W        W30647  44.379  42.475  14.776
66704W        W30648  16.616  26.159   4.298
66705W        W30649  28.535  13.200  11.964
66706W        W30650  24.088   1.331   2.362
66707W        W30651   5.885  12.620   0.894
66708W        W30652  27.553  35.048  12.948
66709W        W30653  19.656  18.185   0.363
66710W        W30654   0.306  41.017  11.017
66711W        W30655  24.557  42.812  11.512
66712W        W30656  14.725   8.701   2.295
66713W        W30657  10.856  14.623  10.017
66714W        W30658  43.899  10.807   2.214
66715W        W30659   8.246  13.279  12.464
66716W        W30660   4.726  43.436   1.799
66717W        W30661  38.548  34.494  12.031
66718W        W30662  42.882  14.250   4.306
66719W        W30663  39.947  41.446  13.958
66720W        W30664  36.049  29.631  10.899
66721W        W30665   0.900  29.167   4.622
66722W        W30666  32.594  27.036  13.329
66723W        W30667  27.458   6.258  12.499
66724W        W30668  40.366  37.944   3.263
66725W        W30669  43.814  16.575   2.697
66726W        W30670   9.353  24.021  11.081
66727W        W30671  13.258   2.956  10.521
66728W        W30672  42.340  37.024   2.719
66729W        W30673  23.587  40.907  10.621
66730W        W30674  34.556  32.140   4.177
66731W        W30675  17.703  28.943  14.837
66732W        W30676  42.320  24.180  12.901
66733W        W30677   0.802   5.195  14.504
66734W        W30678  28.478  14.252   1.811
66735W        W30679  24.680  25.163  12.370
66736W        W30680  23.023  34.073   3.647
66737W        W30681  43.345  22.681   1.865
66738W        W30682  41.359  33.941   1.423
66739W        W30683   3.789   8.659   2.816
66740W        W30684  36.038  44.277  11.588
66741W        W30685  22.586   5.336  11.471
66742W        W30686  13.753  43.871   0.945
66743W        W30687   1.393  16.194   3.203
66744W        W30688  29.052  15.770   2.732
66745W        W30689  10.835  21.689   3.647
66746W        W30690  40.483  42.949  13.921
66747W        W30691  17.212  15.753  14.319
66748W        W30692  10.680  38.518  11.928
66749W        W30693  22.131  34.449   3.310
66750W        W30694  13.208   3.757  14.364
66751W        W30695   0.458  11.661   2.196
66752W        W30696  28.944  15.153   0.864
66753W        W30697  30.417  15.813  12.044
66754W        W30698   3.852  12.654  12.975
66755W        W30699  33.485  20.077  11.089
66756W        W30700  15.232  26.460   4.607
66757W        W30701  21.232  30.574  10.106
66758W        W30702  42.011  30.503   3.155
66759W        W30703  41.844   1.856  13.378
66760W        W30704  15.156  28.646  12.040
66761W        W30705  22.087  28.606  11.500
66762W        W30706  19.172  33.540   1.341
66763W        W30707   9.785  29.110  11.545
66764W        W30708  19.112  44.997   1.909
66765W        W30709   5.931  38.324  11.377
66766W        W30710   2.943  16.759   0.260
66767W        W30711  21.648  33.612   4.211
66768W        W30712  38.521  12.682  12.464
66769W        W30713  13.143  23.608   0.815
66770W        W30714  18.594  14.316   5.132
66771W        W30715  22.631  31.062   1.277
66772W        W30716  23.186  44.976  12.956
66773W        W30717  39.408  12.838  14.782
66774W        W30718  37.885  42.017  11.907
66775W        W30719  30.440  17.605   5.770
66776W        W30720   4.746  15.751   4.604
66777W        W30721  35.911  28.621   2.410
66778W        W30722  37.883  35.436   2.222
66779W        W30723  30.544   7.763   2.371
66780W        W30724   9.280  22.078  14.358
66781W        W30725  29.155  19.560   1.332
66782W        W30726  11.847  16.599   5.176
66783W        W30727  10.226  26.054  14.513
66784W        W30728  12.803  17.625  10.895
66785W        W30729  11.212   4.397   2.312
66786W        W30730  43.909  25.061  13.974
66787W        W30731  29.633  39.502  11.021
66788W        W30732  15.112  29.985  14.764
66789W        W30733  36.931  36.055  11.967
66790W        W30734  24.096  14.230   0.791
66791W        W30735   1.407   5.700   5.798
66792W        W30736   5.425  33.512  10.600
66793W        W30737  17.075   4.218   4.300
66794W        W30738  19.073  22.746  11.006
66795W        W30739  37.481  30.985   5.269
66796W        W30740  16.120  15.134   4.192
66797W        W30741  40.888  41.991   0.752
66798W        W30742  40.895  17.277   1.338
66799W        W30743  43.332  30.420  11.552
66800W        W30744   3.795  41.859   1.838
66801W        W30745  41.531  24.514  12.381
66802W        W30746  31.461  36.493  13.405
66803W        W30747   1.455  20.198   4.203
66804W        W30748  41.920  43.437   4.616
66805W        W30749  10.337   7.347  13.895
66806W        W30750   9.648   4.208   4.810
66807W        W30751  12.258  31.526  12.995
66808W        W30752   0.934  25.211  11.092
66809W        W30753  29.575   8.245  14.337
66810W        W30754  17.657  18.187  11.862
66811W        W30755  16.759  24.165   0.810
66812W        W30756  38.945  14.593   1.719
66813W        W30757  43.290  19.181  13.020
66814W        W30758   5.267  23.125  13.899
66815W        W30759  43.821   9.388  12.065
66816W        W30760   9.704  34.009   2.747
66817W        W30761  29.642  33.440  12.026
66818W        W30762  24.212  20.253   2.729
66819W        W30763   0.888  28.034  10.482
66820W        W30764  11.622  21.641  14.985
66821W        W30765  40.035  10.216   2.755
66822W        W30766   7.394   8.695   4.837
66823W        W30767  16.224  11.766  12.379
66824W        W30768  25.135  21.615   3.335
66825W        W30769  14.185  13.740  12.348
66826W        W30770  13.212  42.524   0.324
66827W        W30771   3.892  15.815  11.875
66828W        W30772   9.194  19.774   3.247
66829W        W30773   3.436  26.613  14.978
66830W        W30774  31.532  10.306  12.525
66831W        W30775  27.086  15.710  11.519
66832W        W30776  38.953  24.032  10.535
66833W        W30777  33.455  14.097   2.214
66834W        W30778   0.921   7.179   4.770
66835W        W30779  32.576  17.785   1.867
66836W        W30780  10.360  12.620   1.886
66837W        W30781  32.637  23.101  12.370
66838W        W30782  20.544  34.114  12.062
66839W        W30783  34.906  41.911  12.835
66840W        W30784  10.335  15.314  11.068
66841W        W30785  33.382   4.255   2.732
66842W        W30786  16.080  25.564   1.386
66843W        W30787  39.853  10.837   4.624
66844W        W30788  39.948  35.044  12.545
66845W        W30789   1.874   9.318   0.312
66846W        W30790   7.834  42.309   3.349
66847W        W30791  27.972  34.611  11.593
66848W        W30792  31.002  33.602   3.851
66849W        W30793  43.970  24.570   0.830
66850W        W30794  10.182  28.002  13.938
66851W        W30795  21.620  36.573  13.821
66852W        W30796  44.756  40.529  10.558
66853W        W30797  43.407  27.102   2.789
66854W        W30798  35.881   7.409   1.854
66855W        W30799  41.392  16.672   1.934
66856W        W30800  15.103  37.944   0.803
66857W        W30801  24.122  28.115  12.414
66858W        W30802  42.905  22.196   4.603
66859W        W30803  13.154  28.470   3.726
66860W        W30804  27.130  33.474   3.809
66861W        W30805  23.654  31.049   4.683
66862W        W30806  14.617  25.567  11.095
66863W        W30807  22.542   3.889  12.010
66864W        W30808  35.396  10.329  11.592
66865W        W30809   7.683   4.214   3.647
66866W        W30810  32.076  44.499  11.867
66867W        W30811  13.719  26.186  11.427
66868W        W30812  23.704  17.130  14.972
66869W        W30813  32.892  26.570  14.436
66870W        W30814  21.081  21.555  14.030
66871W        W30815  23.613  20.529  14.989
66872W        W30816  16.574  26.544  13.858
66873W        W30817   6.894   5.302   4.743
66874W        W30818  41.451  25.640  13.399
66875W        W30819  10.301  25.538   0.473
66876W        W30820   9.759  20.633  11.492
66877W        W30821  33.940  42.821   2.276
66878W        W30822  37.464   7.349  11.609
66879W        W30823  22.143  29.071  14.514
66880W        W30824   6.824   1.788  12.493
66881W        W30825  25.660  29.503   2.780
66882W        W30826  12.241   5.732   3.801
66883W        W30827  34.518  16.684  11.987
66884W        W30828  11.196   1.862  12.039
66885W        W30829   7.749  29.939   0.923
66886W        W30830  35.604  23.677   3.316
66887W        W30831  11.866  14.278  12.905
66888W        W30832  24.037  32.472  13.508
66889W        W30833  35.565  20.208   2.844
66890W        W30834  12.119  21.671   0.789
66891W        W30835  22.624  42.333   0.813
66892W        W30836  35.075  43.881   1.246
66893W        W30837  34.419  39.392  12.344
66894W        W30838  25.139  29.092  14.816
66895W        W30839  11.296  20.126   0.332
66896W        W30840  24.678   5.836  12.076
66897W        W30841   3.410  21.677  11.004
66898W        W30842   3.215  20.070   3.803
66899W        W30843  19.775  26.028   1.299
66900W        W30844  10.381  41.878   0.245
66901W        W30845   3.442  33.054   4.793
66902W        W30846  39.905  12.750   2.341
66903W        W30847   4.230  39.876  13.473
66904W        W30848  34.935  10.224   2.405
66905W        W30849  35.418  13.769  12.934
66906W        W30850  26.612  27.953   5.296
66907W        W30851  23.168  36.014  12.385
66908W        W30852  17.570   8.682   0.468
66909W        W30853  43.996  23.675  11.400
66910W        W30854  31.575  38.388  14.805
66911W        W30855  17.773  26.112  11.911
66912W        W30856  13.682   3.848   2.181
66913W        W30857  20.618  16.742  13.023
66914W        W30858  21.622  13.137  12.833
66915W        W30859   4.854  16.714   3.373
66916W        W30860  34.959  33.592   2.262
66917W        W30861  20.670  40.349  13.869
66918W        W30862  27.510  14.700  12.376
66919W        W30863  38.429   9.367   2.284
66920W        W30864   6.272  14.666  12.948
66921W        W30865  16.690  39.980  11.051
66922W        W30866   9.743  11.798   1.427
66923W        W30867   5.201  23.544   1.763
66924W        W30868   1.421   8.388  10.453
66925W        W30869  23.634   5.764   0.822
66926W        W30870  18.650  41.867   4.284
66927W        W30871  35.518   4.698   2.381
66928W        W30872  19.766  35.361  14.473
66929W        W30873  11.678  31.456  10.406
66930W        W30874  12.178  42.974  14.975
66931W        W30875  12.356  37.842  14.410
66932W        W30876  30.515  42.021   1.892
66933W        W30877  41.405  35.515   0.838
66934W        W30878  19.271  27.042   3.328
66935W        W30879  43.386  11.181   0.342
66936W        W30880   5.802   2.967  12.915
66937W        W30881  30.910   3.238   2.419
66938W        W30882   5.798   2.340  14.868
66939W        W30883  22.231   1.761  12.006
66940W        W30884  15.771  34.476   1.279
66941W        W30885   5.350  42.521   1.869
66942W        W30886  19.238   6.248  13.892
66943W        W30887  27.527  12.204  14.932
66944W        W30888  37.925  44.844  10.907
66945W        W30889  21.027  35.894  14.417
66946W        W30890  36.555  42.474  14.327
66947W        W30891  23.717  25.969   0.398
66948W        W30892   8.807  42.518  11.911
66949W        W30893  25.557  39.842  11.889
66950W        W30894  27.577  31.470   4.794
66951W        W30895   9.838   2.730   4.297
66952W        W30896  41.397  24.494  12.900
66953W        W30897  35.519   5.352  13.484
66954W        W30898  16.120  33.129   1.880
66955W        W30899  19.050  15.235   0.275
66956W        W30900   8.890  29.475  14.826
66957W        W30901  11.688  25.136   2.180
66958W        W30902  11.671  13.143   2.383
66959W        W30903  27.035  12.839  11.988
66960W        W30904   4.301  37.992  13.451
66961W        W30905   1.883  11.153  12.902
66962W        W30906   8.837  44.368  11.521
66963W        W30907   1.804  42.362   0.284
66964W        W30908  11.760  25.029   5.192
66965W        W30909  32.607  30.059  12.545
66966W        W30910  22.016  22.689   0.820
66967W        W30911  36.544  37.349   3.654
66968W        W30912  37.886  41.960   4.149
66969W        W30913  20.153  36.356  11.960
66970W        W30914  34.929   0.310  13.820
66971W        W30915  17.759  11.252   3.853
66972W        W30916   4.325  26.187  12.434
66973W        W30917   4.332  20.545  10.459
66974W        W30918  24.507  14.101   3.204
66975W        W30919  17.127  29.982  11.934
66976W        W30920   5.395  29.635  11.865
66977W        W30921  42.808  13.650  12.922
66978W        W30922  35.434  19.734   0.759
66979W        W30923  31.480  27.607  10.932
66980W        W30924   4.894   7.393   0.432
66981W        W30925   6.828  16.178   9.465
66982W        W30926  40.332  17.712   0.808
66983W        W30927  13.832   3.893  11.494
66984W        W30928   8.247   6.387  14.912
66985W        W30929  34.945  31.980  10.107
66986W        W30930  28.168  19.551   0.878
66987W        W30931  36.993  18.755   2.841
66988W        W30932  14.202   5.761   1.785
66989W        W30933  35.894  23.548   4.657
66990W        W30934  18.761  44.297  11.929
66991W        W30935   0.342  16.111  14.025
66992W        W30936  40.497  27.189   1.447
66993W        W30937  38.333  20.041   4.347
66994W        W30938  39.842  15.091  14.341
66995W        W30939  32.498  27.542  14.288
66996W        W30940   6.717   1.261  12.088
66997W        W30941  15.732  10.692   2.857
66998W        W30942   2.470  10.735   1.340
66999W        W30943  18.656  42.977  14.963
67000W        W30944   0.378  12.613   4.681
67001W        W30945  15.233   8.282  14.003
67002W        W30946  28.532  16.078  10.925
67003W        W30947  44.800   5.692   2.836
67004W        W30948  10.212   0.277   3.848
67005W        W30949  14.178  27.945   4.168
67006W        W30950  35.592   3.799   3.225
67007W        W30951   4.260  37.978   4.211
67008W        W30952  34.573   5.740   0.767
67009W        W30953   4.390  22.747   2.349
67010W        W30954  33.946  30.984  13.888
67011W        W30955  31.946  16.250  12.063
67012W        W30956  44.990   2.734   0.771
67013W        W30957  16.615  33.390   0.405
67014W        W30958  13.842  35.371  12.964
67015W        W30959   7.733  30.035   4.726
67016W        W30960  29.603  13.609  12.991
67017W        W30961  42.783  18.736  11.553
67018W        W30962  23.673   6.690   3.237
67019W        W30963  26.567   0.250   0.775
67020W        W30964  22.584  31.932  12.857
67021W        W30965  26.689  25.014   2.797
67022W        W30966  23.641  20.092  12.861
67023W        W30967  40.969  23.522   0.910
67024W        W30968  20.608  12.836   1.317
67025W        W30969  40.993  10.306  12.399
67026W        W30970  31.978  23.548   0.927
67027W        W30971   7.177  23.211  14.306
67028W        W30972  43.467  17.755  12.357
67029W        W30973  20.176  40.377   0.916
67030W        W30974  18.591  35.592  13.403
67031W        W30975  30.470  19.215   3.779
67032W        W30976   3.396  29.166  13.349
67033W        W30977  15.696  26.151  11.917
67034W        W30978  31.481  42.947   3.647
67035W        W30979   2.385  38.013   2.697
67036W        W30980   0.288  31.991   0.804
67037W        W30981  10.669  15.638  12.075
67038W        W30982  10.213  16.684   2.900
67039W        W30983  10.252   2.274   1.442
67040W        W30984  14.643   4.320   3.850
67041W        W30985  17.782  34.385   1.232
67042W        W30986  31.482   3.865  14.879
67043W        W30987  32.965  25.577  13.357
67044W        W30988   5.258  42.444   3.373
67045W        W30989   4.869  34.476  11.556
67046W        W30990   5.878  25.133   4.216
67047W        W30991  39.002   5.729  11.480
67048W        W30992   2.382  37.088  14.513
67049W        W30993   3.789  31.561  11.394
67050W        W30994   0.768   3.341  13.873
67051W        W30995   7.294  25.163   4.144
67052W        W30996   5.808  11.295   4.651
67053W        W30997  28.034  32.972  12.891
67054W        W30998  31.003  17.093   0.299
67055W        W30999  42.484  21.164   0.965
67056W        W31000   2.289  39.965  14.441
67057W        W31001  20.656  25.193  11.479
67058W        W31002   0.436  21.196  14.508
67059W        W31003   6.784  34.054  13.867
67060W        W31004  16.579  24.202   3.777
67061W        W31005   4.881  33.114  13.536
67062W        W31006  14.131  18.722   2.799
67063W        W31007  35.393   7.253   1.275
67064W        W31008  17.219   0.981   1.384
67065W        W31009  35.984  42.901  12.404
67066W        W31010  20.602   0.783   1.339
67067W        W31011  25.070  43.812  12.041
67068W        W31012  34.089  21.129  14.492
67069W        W31013   1.385  35.558  12.364
67070W        W31014   7.307   4.723   3.767
67071W        W31015   2.316  14.774   3.660
67072W        W31016  23.640  16.124  11.494
67073W        W31017   8.893   1.257  11.097
67074W        W31018   8.283   7.803   2.239
67075W        W31019  11.836  12.207  10.475
67076W        W31020   3.242  44.410   9.940
67077W        W31021  25.496  30.445   0.388
67078W        W31022   1.242  29.612  10.526
67079W        W31023  23.181  24.532  10.906
67080W        W31024  41.803  19.070  11.894
67081W        W31025   8.792  24.163   5.303
67082W        W31026   3.451  21.546  12.535
67083W        W31027  37.886  15.244  12.048
67084W        W31028  39.902   0.937  12.448
67085W        W31029  22.070  42.907  11.047
67086W        W31030  37.851  10.741  13.003
67087W        W31031   1.878  21.526  13.001
67088W        W31032  19.603  37.494  10.425
67089W        W31033   8.879   9.274  11.396
67090W        W31034  34.520   7.846  12.465
67091W        W31035  26.959  21.188   9.990
67092W        W31036  36.867  24.536   1.825
67093W        W31037  39.996  28.163  13.051
67094W        W31038  28.675  30.447   0.297
67095W        W31039   2.915  43.770   0.444
67096W        W31040  32.626  26.063   3.816
67097W        W31041  22.629  38.945  14.510
67098W        W31042   8.899  35.377   0.859
67099W        W31043  18.137  44.455  12.092
67100W        W31044  34.477   7.301  14.910
67101W        W31045   4.412  36.493  10.476
67102W        W31046  38.379   9.242   3.691
67103W        W31047  30.091   5.816  12.895
67104W        W31048  29.543  42.511  10.557
67105W        W31049  33.991  30.457   0.407
67106W        W31050  28.039   6.764  13.043
67107W        W31051  12.175  18.688  10.413
67108W        W31052  18.635  27.659  13.977
67109W        W31053  31.897  25.100  13.937
67110W        W31054  44.975  15.595  14.859
67111W        W31055  12.611  12.197  14.296
67112W        W31056  18.149  28.493   1.210
67113W        W31057  15.184  11.352  14.985
67114W        W31058  40.041  12.265   4.331
67115W        W31059  29.657  18.059  12.360
67116W        W31060  15.179  42.295  12.906
67117W        W31061  10.785  16.718  14.446
67118W        W31062  36.066   7.323  10.610
67119W        W31063  40.974   6.727  13.808
67120W        W31064   5.396  22.506   3.634
67121W        W31065  26.967  12.174  13.423
67122W        W31066  28.063  16.136   3.217
67123W        W31067  33.405  43.917  12.442
67124W        W31068  24.693  24.096   3.725
67125W        W31069  33.125  43.301   4.711
67126W        W31070  31.585  39.347   5.751
67127W        W31071  19.173  16.792  11.542
67128W        W31072  19.697  15.282  12.984
67129W        W31073  32.562  44.813   2.358
67130W        W31074  22.143  43.968   4.747
67131W        W31075  35.407  21.115   2.285
67132W        W31076  14.789  38.885   1.413
67133W        W31077  16.583  26.675  11.444
67134W        W31078  40.891  22.068   0.933
67135W        W31079  43.312   6.332   3.301
67136W        W31080   5.428  13.148   3.805
67137W        W31081  18.144   3.246   0.484
67138W        W31082   9.169  41.928  10.533
67139W        W31083  31.943  14.245  14.944
67140W        W31084  14.684  19.243  11.612
67141W        W31085  41.455  39.439  11.553
67142W        W31086  32.904  18.583   0.352
67143W        W31087  28.516   3.337   4.833
67144W        W31088  22.104  18.254  10.422
67145W        W31089  12.351  26.479  10.576
67146W        W31090  19.278  43.873  12.845
67147W        W31091  42.024  17.609   4.654
67148W        W31092  20.224  42.967  13.310
67149W        W31093  44.415   2.419   2.792
67150W        W31094  33.005  23.601   2.739
67151W        W31095   6.781  21.566  11.909
67152W        W31096  40.996  31.023  13.328
67153W        W31097  15.100  22.214  13.519
67154W        W31098  42.408   2.936  13.941
67155W        W31099   8.365   6.365   3.868
67156W        W31100  35.409  32.089  13.462
67157W        W31101  22.598  30.915   4.193
67158W        W31102   4.928  38.499   3.719
67159W        W31103  30.637  43.297  10.421
67160W        W31104   4.917  14.144   4.336
67161W        W31105  40.368  31.109   1.819
67162W        W31106  36.871  25.150   0.258
67163W        W31107  42.342  15.783  13.351
67164W        W31108   3.217  16.121  11.005
67165W        W31109   9.262  16.661  13.345
67166W        W31110  10.761  26.609  12.446
67167W        W31111  40.370  33.550   3.209
67168W        W31112  21.701  33.439  10.984
67169W        W31113  34.120  16.717   3.732
67170W        W31114  38.488  38.069  11.899
67171W        W31115   6.790  13.696   0.926
67172W        W31116  23.135  14.649  11.047
67173W        W31117  35.941  34.008  12.345
67174W        W31118  41.814  33.935  13.351
67175W        W31119  38.332  38.893   2.822
67176W        W31120  36.882  40.530   0.740
67177W        W31121  27.984  37.427  12.032
67178W        W31122   2.932  16.575  13.381
67179W        W31123  33.453  29.159  11.909
67180W        W31124  40.871   4.843  10.903
67181W        W31125  16.234  44.859  12.516
67182W        W31126  26.072  34.924  14.452
67183W        W31127  31.980   0.870  10.973
67184W        W31128  19.769  24.053   0.480
67185W        W31129  18.562   0.981   3.690
67186W        W31130  34.117  22.559  13.891
67187W        W31131  25.172   7.908   3.668
67188W        W31132  26.531  43.010  13.412
67189W        W31133  25.072   0.370   1.769
67190W        W31134  28.145  36.405  13.376
67191W        W31135   9.189  12.261   0.380
67192W        W31136  17.796  24.084   0.291
67193W        W31137  18.710  43.416   2.805
67194W        W31138  25.167  35.385   0.780
67195W        W31139  30.461  34.952  11.473
67196W        W31140  34.464  36.367  14.933
67197W        W31141  36.581  11.297  12.489
67198W        W31142  43.903  18.710   2.319
67199W        W31143  30.147  23.628   1.740
67200W        W31144  41.929   3.411  12.490
67201W        W31145  15.286  24.185   2.354
67202W        W31146  21.693  15.674   3.149
67203W        W31147  32.951  22.078   2.259
67204W        W31148  21.579  39.937  14.404
67205W        W31149  42.945  40.370  13.887
67206W        W31150  31.639  31.451  13.881
67207W        W31151  14.682  13.624   4.149
67208W        W31152   3.388   4.708  11.058
67209W        W31153  38.464  18.289   3.378
67210W        W31154  21.068  24.690  14.376
67211W        W31155  22.083  37.961  12.389
67212W        W31156  13.187  31.094   2.340
67213W        W31157  10.255  39.878   2.778
67214W        W31158  38.942  36.522   0.277
67215W        W31159  17.105   7.795  12.531
67216W        W31160  17.162  41.466  13.483
67217W        W31161   3.951  27.123  13.915
67218W        W31162  18.065  43.786  11.438
67219W        W31163  35.473  32.901   1.752
67220W        W31164  39.874  26.503  13.820
67221W        W31165   4.263  28.586   0.879
67222W        W31166   6.375  39.927  10.916
67223W        W31167  33.074  30.016   1.350
67224W        W31168  21.653   9.335  11.423
67225W        W31169  33.562  31.070  13.419
67226W        W31170  42.849  24.175  11.514
67227W        W31171  23.664  16.114  12.903
67228W        W31172  12.640  21.053  14.424
67229W        W31173  41.507  27.640   3.644
67230W        W31174   1.863  17.113  13.842
67231W        W31175  14.134  27.948   0.906
67232W        W31176  20.074   0.284  12.048
67233W        W31177   5.852   2.960  10.506
67234W        W31178  29.079  20.540  12.420
67235W        W31179  44.985  10.710  14.327
67236W        W31180  39.844  24.098   0.785
67237W        W31181  29.653   3.774   4.823
67238W        W31182   5.373   8.841   1.320
67239W        W31183  41.301  35.420   2.753
67240W        W31184  41.445   6.195  11.582
67241W        W31185  38.002   2.767   2.898
67242W        W31186  12.670  17.685  12.427
67243W        W31187  16.592  28.994   1.864
67244W        W31188   8.288  14.297  13.419
67245W        W31189  43.446   8.679   1.696
67246W        W31190   7.356   5.766   2.304
67247W        W31191  15.243  18.687  14.983
67248W        W31192  12.673  20.142  10.967
67249W        W31193  22.608   8.205   3.786
67250W        W31194  36.992   6.725   0.828
67251W        W31195  16.767  30.928  14.792
67252W        W31196  16.254  32.068  11.969
67253W        W31197  29.592  31.097   0.375
67254W        W31198   7.868  15.622   0.339
67255W        W31199   7.692  18.188   4.338
67256W        W31200   1.303  44.461  14.395
67257W        W31201  44.263  11.185  13.382
67258W        W31202  23.162  28.974  14.296
67259W        W31203  26.060  44.380   4.628
67260W        W31204  22.602   6.690   2.892
67261W        W31205  39.547  37.483   2.887
67262W        W31206   5.782  29.604   2.246
67263W        W31207  33.407   5.766   0.415
67264W        W31208  41.491   2.806  14.287
67265W        W31209   0.290  14.690  10.903
67266W        W31210   7.764   7.300   4.682
67267W        W31211  31.560  18.591  12.951
67268W        W31212  34.397  12.203   2.720
67269W        W31213  33.537  38.033  10.467
67270W        W31214  10.229  38.378  12.895
67271W        W31215  36.965  26.536  11.455
67272W        W31216   4.372  43.409   1.403
67273W        W31217  24.546  29.626  13.989
67274W        W31218  32.435  34.526  12.384
67275W        W31219  16.302  12.175  12.909
67276W        W31220  33.119  19.630   4.303
67277W        W31221  11.187   5.847  13.890
67278W        W31222   7.344  41.386   4.612
67279W        W31223  16.302   8.283   0.362
67280W        W31224  21.527  31.059   4.666
67281W        W31225   7.289  20.056   0.764
67282W        W31226  27.027   2.835  14.030
67283W        W31227   7.868  24.651  12.088
67284W        W31228   7.197  44.309   0.260
67285W        W31229   5.338  25.038  14.346
67286W        W31230  19.677  33.042   4.649
67287W        W31231  10.795  33.477  11.389
67288W        W31232  38.978  37.458   4.688
67289W        W31233  42.915  11.669   0.801
67290W        W31234  23.087  30.546  12.527
67291W        W31235  33.878  38.009   4.160
67292W        W31236  14.321  14.731  11.968
67293W        W31237  33.014  15.767  13.984
67294W        W31238  43.868  11.331   0.816
67295W        W31239   3.396  19.682   2.703
67296W        W31240  29.471  21.535  11.451
67297W        W31241  27.975  18.674  14.351
67298W        W31242  34.496  17.595   3.175
67299W        W31243  21.723  36.512   4.778
67300W        W31244  13.617   5.208  11.582
67301W        W31245  26.492  33.093  12.921
67302W        W31246  22.099  35.560   2.902
67303W        W31247  36.018  20.170   1.396
67304W        W31248  37.451  40.309  12.041
67305W        W31249  43.459   3.285  11.023
67306W        W31250   7.774  22.609  14.381
67307W        W31251   7.314  17.187   0.321
67308W        W31252  15.775  35.065   0.818
67309W        W31253   6.230  18.121  11.488
67310W        W31254   0.775  15.760   2.343
67311W        W31255  39.876   5.195   5.292
67312W        W31256  17.174  44.387  12.378
67313W        W31257  33.885   6.720   3.309
67314W        W31258  27.095   4.778   3.655
67315W        W31259  15.223  20.046  11.424
67316W        W31260  13.272   7.825  11.942
67317W        W31261  26.472   8.305   1.294
67318W        W31262   9.371   5.810  13.371
67319W        W31263   1.973  43.812   1.352
67320W        W31264  41.379   3.911  11.434
67321W        W31265  21.561  44.363  13.917
67322W        W31266  25.499  26.036  10.463
67323W        W31267  25.053  43.015   0.912
67324W        W31268   0.833  21.232   0.812
67325W        W31269  43.401  35.502  13.482
67326W        W31270  33.895  16.693   3.189
67327W        W31271  35.109   6.768  10.508
67328W        W31272  32.465  42.427   3.658
67329W        W31273   8.656   0.768  12.996
67330W        W31274   2.910   2.809  12.830
67331W        W31275  17.656  17.157  10.895
67332W        W31276  12.318  28.611  11.508
67333W        W31277  13.668  32.487   2.317
67334W        W31278  42.445  31.517  12.394
67335W        W31279  34.117  29.436  10.622
67336W        W31280  20.182  24.574   3.683
67337W        W31281  26.602  40.397  11.039
67338W        W31282  33.086  27.194   4.732
67339W        W31283  39.814  13.212   3.817
67340W        W31284   4.840  38.471   5.198
67341W        W31285   6.367  17.166  10.598
67342W        W31286  16.118  11.164   3.313
67343W        W31287  13.711  40.858   3.255
67344W        W31288   1.264  38.050   4.197
67345W        W31289  36.348  40.817   2.704
67346W        W31290  25.606  15.092  13.970
67347W        W31291   7.248  32.994  12.919
67348W        W31292  30.048  32.559  12.887
67349W        W31293  43.387   8.744   3.813
67350W        W31294  18.600  12.669  10.904
67351W        W31295  28.075  40.935  11.491
67352W        W31296  41.983  29.034   1.219
67353W        W31297  15.792  26.131   0.381
67354W        W31298  15.230   6.278  14.838
67355W        W31299  25.151  44.903  11.579
67356W        W31300  42.379  33.481  13.963
67357W        W31301   3.776  27.611  13.977
67358W        W31302  37.477  11.249   2.768
67359W        W31303   8.797   5.694   1.869
67360W        W31304  16.288  26.476   0.250
67361W        W31305   1.770  41.356  10.922
67362W        W31306  44.374  27.057   4.819
67363W        W31307   9.813  19.246  10.620
67364W        W31308  39.548  13.672  10.551
67365W        W31309  29.081  42.785  14.953
67366W        W31310  40.904  29.926  11.978
67367W        W31311  25.477  20.750   0.778
67368W        W31312   6.694   3.382  14.315
67369W        W31313  44.340   7.346   4.824
67370W        W31314  13.775   8.269   3.794
67371W        W31315  33.577  36.969  12.549
67372W        W31316  35.522  31.572   1.935
67373W        W31317  20.039  38.458   3.759
67374W        W31318  41.530  44.471  12.047
67375W        W31319  12.665  15.801   2.683
67376W        W31320  10.822  13.204  12.566
67377W        W31321   2.228   6.713   4.814
67378W        W31322  37.954   1.787   5.278
67379W        W31323  32.089  26.060   4.276
67380W        W31324  14.118  33.890   3.326
67381W        W31325  25.515  23.596  11.109
67382W        W31326  36.879  39.321  14.387
67383W        W31327  24.081  34.120   0.953
67384W        W31328  13.707  41.855   0.432
67385W        W31329  36.442  37.016   4.755
67386W        W31330  43.894  28.157   4.186
67387W        W31331   5.263   2.264   3.681
67388W        W31332  31.091  10.372   1.363
67389W        W31333  36.876  24.534  11.915
67390W        W31334  17.729  33.419   2.351
67391W        W31335  23.718   9.375  14.910
67392W        W31336  41.481  39.983  11.073
67393W        W31337  12.793   2.901   0.353
67394W        W31338   2.918  25.527   4.115
67395W        W31339  28.599  11.716   2.730
67396W        W31340   0.904  31.996   1.863
67397W        W31341  14.604  20.255   0.439
67398W        W31342  24.177  43.390  12.071
67399W        W31343   9.712  28.939   1.849
67400W        W31344  16.285  33.441   3.348
67401W        W31345  18.735  35.376   3.869
67402W        W31346   3.308  17.170   3.333
67403W        W31347  16.720  21.641   0.292
67404W        W31348   8.814  18.069   2.705
67405W        W31349  17.780  20.659   3.823
67406W        W31350  27.465  42.515   3.363
67407W        W31351  29.501  37.532   2.711
67408W        W31352  36.386  40.955  11.031
67409W        W31353  16.177  18.222   2.855
67410W        W31354  32.490  31.096  14.333
67411W        W31355  29.518  39.363   1.433
67412W        W31356  42.812   7.799  12.042
67413W        W31357  16.619   8.308   4.135
67414W        W31358   1.259  40.506   0.351
67415W        W31359  23.210  10.805  13.456
67416W        W31360   1.868  15.169  14.842
67417W        W31361   9.860  19.137   2.182
67418W        W31362   1.327  41.844   2.712
67419W        W31363  34.022  37.024   0.743
67420W        W31364   3.233  35.535  12.433
67421W        W31365   3.809  39.830   2.244
67422W        W31366  22.112  14.221   1.840
67423W        W31367   6.186  27.625  13.999
67424W        W31368  36.900  39.492   0.950
67425W        W31369  40.867  22.615  13.426
67426W        W31370  32.470  36.515   1.437
67427W        W31371  34.401  19.174   0.931
67428W        W31372   3.835  43.503   4.729
67429W        W31373  10.238  17.685   3.233
67430W        W31374  27.478  31.558   0.308
67431W        W31375  22.603  41.957  11.890
67432W        W31376  14.833  18.066   5.274
67433W        W31377  42.346  33.505   0.742
67434W        W31378  37.541  17.750   4.734
67435W        W31379  34.388  27.191  11.594
67436W        W31380   6.211   0.903   1.317
67437W        W31381   7.875  38.519  12.075
67438W        W31382  25.206  39.925  11.517
67439W        W31383  35.594  15.764  14.982
67440W        W31384  11.351  20.727   3.832
67441W        W31385   2.763  10.232   0.940
67442W        W31386  41.823  36.546   0.389
67443W        W31387  14.310   5.375  14.483
67444W        W31388   1.761  28.582  11.582
67445W        W31389   1.243  36.995  10.981
67446W        W31390  30.917  28.664  12.395
67447W        W31391  21.546   6.812   3.736
67448W        W31392  32.636   5.817  12.972
67449W        W31393   4.398  41.457   4.175
67450W        W31394   5.264  25.060   1.350
67451W        W31395  15.764  19.047   2.814
67452W        W31396  10.227  31.487   5.205
67453W        W31397  39.808  41.461   3.323
67454W        W31398  39.044  41.996   1.411
67455W        W31399  31.909  34.959  14.760
67456W        W31400   7.767   1.938   4.649
67457W        W31401  24.171  26.005  12.050
67458W        W31402  17.258  44.862  14.778
67459W        W31403  15.608   2.961  14.374
67460W        W31404  35.475   9.346  10.914
67461W        W31405  24.557  28.443  13.405
67462W        W31406  19.118   1.939  10.590
67463W        W31407  24.718  15.726   3.642
67464W        W31408  31.935  30.962   2.395
67465W        W31409  39.385  10.329  12.916
67466W        W31410   1.305   7.838  10.134
67467W        W31411  20.204  24.595  11.052
67468W        W31412  26.575  44.836   3.348
67469W        W31413  29.138   4.370  13.344
67470W        W31414   1.798  24.176   0.858
67471W        W31415  23.590  28.627  13.500
67472W        W31416  41.364   7.710   2.667
67473W        W31417  11.172  33.009  14.372
67474W        W31418  12.750   3.887  13.469
67475W        W31419  44.357   9.301   3.686
67476W        W31420  22.050   9.790  11.892
67477W        W31421  38.944  22.604  12.576
67478W        W31422  38.499  27.164   3.350
67479W        W31423   8.310  13.697  11.534
67480W        W31424   2.273  10.794  11.380
67481W        W31425  30.075  36.008  14.314
67482W        W31426  32.541  31.605   1.826
67483W        W31427   2.464   5.420   0.279
67484W        W31428  26.638   3.918  10.946
67485W        W31429  20.615   2.819   4.277
67486W        W31430  16.163  22.692  11.611
67487W        W31431  43.388  11.863  12.387
67488W        W31432  25.057   3.430  13.507
67489W        W31433   8.285  43.335   1.792
67490W        W31434   4.210  11.146  14.831
67491W        W31435  39.953  15.652  14.859
67492W        W31436  14.152  39.965   1.317
67493W        W31437   0.458   6.303  11.543
67494W        W31438  40.019  29.557  13.455
67495W        W31439  28.973  17.764   1.399
67496W        W31440  38.834  22.643  12.977
67497W        W31441  19.739  16.135  12.343
67498W        W31442  17.621   5.427  13.432
67499W        W31443   5.733  30.415  11.035
67500W        W31444   6.354  29.515   4.719
67501W        W31445  18.148   3.916   0.432
67502W        W31446   2.454   5.852   5.171
67503W        W31447  34.595  18.230  14.776
67504W        W31448  32.408  13.691  13.540
67505W        W31449   5.325  14.329  13.522
67506W        W31450   6.183  16.167  10.085
67507W        W31451  19.112   4.903  10.438
67508W        W31452  42.298   4.868  11.973
67509W        W31453   3.914  21.240  11.879
67510W        W31454  27.160  36.012  12.359
67511W        W31455  16.791  36.440  13.911
67512W        W31456  41.439  19.244  13.478
67513W        W31457  22.639  22.684   4.191
67514W        W31458  23.718  26.959   2.278
67515W        W31459  30.052  36.098  11.915
67516W        W31460   6.903  34.972  14.917
67517W        W31461  20.254  22.214   5.304
67518W        W31462  14.816  29.004  13.497
67519W        W31463  20.677  36.060  12.008
67520W        W31464   2.738  34.120  11.915
67521W        W31465  26.015  24.595  12.570
67522W        W31466  26.461  29.611  13.862
67523W        W31467  12.117   1.765   0.836
67524W        W31468  30.001  30.550   3.356
67525W        W31469  39.518  14.785  11.090
67526W        W31470  18.658  24.563   2.340
67527W        W31471  30.496  38.443   0.305
67528W        W31472  26.501  13.783   0.265
67529W        W31473  26.191   2.447  14.369
67530W        W31474  30.494  14.216  12.445
67531W        W31475  24.584  21.049   1.735
67532W        W31476  22.704  26.122  13.946
67533W        W31477  44.353  31.467  11.471
67534W        W31478   6.188  29.944  14.767
67535W        W31479  21.627  11.730  12.976
67536W        W31480  16.786  10.192   3.198
67537W        W31481   0.950  16.646   1.251
67538W        W31482  11.816  16.782   3.218
67539W        W31483  19.240  17.585   2.224
67540W        W31484  41.403  15.264   2.305
67541W        W31485  12.260  24.216  14.826
67542W        W31486   9.266  13.638   2.326
67543W        W31487  27.589   7.375  12.034
67544W        W31488  35.489  27.447   3.751
67545W        W31489   2.945  36.964   4.115
67546W        W31490  36.378  35.927   4.700
67547W        W31491   9.359  30.951   3.197
67548W        W31492  43.511  39.929   1.816
67549W        W31493  44.486  35.958  12.983
67550W        W31494   5.923  12.257  13.818
67551W        W31495  38.571  40.927  12.996
67552W        W31496   7.376  27.495  11.514
67553W        W31497  25.520  37.002  14.867
67554W        W31498   5.350  18.090   0.281
67555W        W31499  16.232  25.118   2.307
67556W        W31500  42.809   2.923   0.951
67557W        W31501  19.115  26.053   3.814
67558W        W31502  34.093  15.656  12.556
67559W        W31503  41.998   9.694   2.411
67560W        W31504  27.602  28.016   1.827
67561W        W31505  14.759   2.252  14.368
67562W        W31506  36.926  15.682  11.087
67563W        W31507  43.486  33.623   0.393
67564W        W31508  24.219  14.323   0.289
67565W        W31509  19.680   9.726  13.904
67566W        W31510  35.472  43.929   0.948
67567W        W31511   8.900  14.720   1.875
67568W        W31512  26.974   4.348   3.656
67569W        W31513   2.736   7.773  14.924
67570W        W31514  38.982   9.703  12.383
67571W        W31515  10.301  31.610   3.192
67572W        W31516  40.364  40.873  12.453
67573W        W31517  28.182  20.135   0.905
67574W        W31518  15.287  39.859  14.344
67575W        W31519  11.195  11.694  14.842
67576W        W31520  43.400  14.313  13.438
67577W        W31521  26.615  34.443   2.739
67578W        W31522  37.467  41.039   0.475
67579W        W31523   2.946  28.654   0.837
67580W        W31524  37.876   4.348  13.831
67581W        W31525   6.859  43.361  13.994
67582W        W31526   4.449  29.979  14.305
67583W        W31527  19.270  26.003  11.409
67584W        W31528   9.296  15.323  13.906
67585W        W31529  42.001  34.016  12.403
67586W        W31530   9.889  31.419  11.013
67587W        W31531  43.950  32.102   0.835
67588W        W31532   7.717   5.870  13.026
67589W        W31533  40.408  42.797   0.738
67590W        W31534   3.440  41.433   2.246
67591W        W31535   8.824  33.060  14.973
67592W        W31536  25.181  14.286  13.061
67593W        W31537  13.279  38.435   3.244
67594W        W31538   1.794  11.290  11.003
67595W        W31539  37.393  29.152  14.869
67596W        W31540  26.508  36.403   1.806
67597W        W31541   0.883  35.435  14.371
67598W        W31542  35.536  37.880  10.406
67599W        W31543  42.003   7.235   4.335
67600W        W31544  42.356  27.510  11.072
67601W        W31545   4.332  43.328  12.861
67602W        W31546   2.280  24.613   4.306
67603W        W31547   1.954  21.127   0.469
67604W        W31548   2.244  11.328   0.295
67605W        W31549  24.648  24.679   1.330
67606W        W31550   8.775   1.468  10.521
67607W        W31551  15.591   4.867   2.182
67608W        W31552  13.251   8.174  10.425
67609W        W31553   7.896  20.047   1.932
67610W        W31554  18.096   5.309  10.592
67611W        W31555  36.930  21.753   4.256
67612W        W31556  34.399  11.652  12.402
67613W        W31557   7.801  44.892   4.345
67614W        W31558  11.238  27.159   4.706
67615W        W31559  17.119   9.852  10.412
67616W        W31560  41.302   3.937  11.113
67617W        W31561  44.805  10.229   3.214
67618W        W31562  17.612  15.309  11.409
67619W        W31563  31.514  43.013  10.424
67620W        W31564  32.465  11.349  13.492
67621W        W31565  12.672  43.404   0.910
67622W        W31566  37.852  43.472  10.985
67623W        W31567  19.579  25.037   0.275
67624W        W31568  24.156  38.892   3.638
67625W        W31569  21.658  40.459  11.116
67626W        W31570   2.317  36.369   3.315
67627W        W31571  25.992  33.461   4.791
67628W        W31572  13.605  30.515   4.760
67629W        W31573  32.035  25.020  10.152
67630W        W31574  23.623  38.486  13.403
67631W        W31575  10.823  27.576  10.045
67632W        W31576  17.187  18.245  12.036
67633W        W31577  22.731  23.714   2.889
67634W        W31578  36.985  25.047   1.272
67635W        W31579  12.711   5.793  12.992
67636W        W31580   0.956  34.430   4.120
67637W        W31581  27.670  18.621  13.374
67638W        W31582  23.005  28.638  12.528
67639W        W31583  19.775  36.929   1.352
67640W        W31584   5.796  32.054   1.701
67641W        W31585  35.045  15.750  12.440
67642W        W31586  22.518  41.887   3.355
67643W        W31587  34.988  14.698  11.907
67644W        W31588  18.238   5.298  12.905
67645W        W31589   9.217  19.599  10.983
67646W        W31590   7.729   3.370   5.111
67647W        W31591  29.045  32.436   4.286
67648W        W31592  28.634  17.770   3.671
67649W        W31593  44.919  22.172  11.586
67650W        W31594  20.063  27.590  13.820
67651W        W31595  32.041   8.885  10.068
67652W        W31596  38.966  31.072   3.149
67653W        W31597  14.702  21.664  10.410
67654W        W31598  15.275  31.434   1.915
67655W        W31599  41.444  33.544  10.104
67656W        W31600  30.612   0.465   2.865
67657W        W31601  13.707  13.697   4.758
67658W        W31602  22.619  19.114   1.278
67659W        W31603   0.350   5.392   3.833
67660W        W31604  25.029  35.469   3.288
67661W        W31605  22.649  14.723  13.310
67662W        W31606  30.971  15.241  12.973
67663W        W31607  24.539  43.336  13.506
67664W        W31608   7.210  33.549  12.516
67665W        W31609  34.003  41.338  10.410
67666W        W31610  17.748  44.434   2.676
67667W        W31611  24.074  14.598  11.876
67668W        W31612  30.536  19.203   5.594
67669W        W31613   9.250  20.211  10.456
67670W        W31614  25.587  28.522  13.424
67671W        W31615  28.157  29.165   9.951
67672W        W31616  17.777  13.131   2.885
67673W        W31617  36.401  16.676   4.351
67674W        W31618   4.388  12.819  10.536
67675W        W31619  11.845  29.448  13.359
67676W        W31620  11.782  24.635   1.750
67677W        W31621   3.372   3.394   3.311
67678W        W31622  18.258  23.142  11.106
67679W        W31623  35.999  16.735  13.447
67680W        W31624  34.552  38.872   3.840
67681W        W31625  36.383  28.012  12.371
67682W        W31626  41.997  37.416   2.764
67683W        W31627  21.526  34.091  10.978
67684W        W31628  34.601  14.278  14.989
67685W        W31629  26.174   5.239   4.730
67686W        W31630  29.921  28.616   1.824
67687W        W31631   6.851  29.119   0.754
67688W        W31632  10.705   2.362   2.837
67689W        W31633  30.596   4.708  13.938
67690W        W31634  43.373  14.195  12.388
67691W        W31635   9.745  36.512  10.540
67692W        W31636   1.785  29.069  11.031
67693W        W31637   9.707  33.003  12.472
67694W        W31638  29.920  36.881  14.350
67695W        W31639  40.927  16.665  12.827
67696W        W31640  37.343  29.957   4.345
67697W        W31641  16.728  44.346   2.681
67698W        W31642  33.606   4.732   2.755
67699W        W31643  25.667   1.382  11.574
67700W        W31644  34.007  13.234  12.408
67701W        W31645  36.893  16.239   3.212
67702W        W31646  17.265   4.823  14.516
67703W        W31647  28.511  28.660   3.260
67704W        W31648  32.016  20.161   2.199
67705W        W31649   0.441  39.967  10.531
67706W        W31650  39.491  16.702  12.861
67707W        W31651  22.028  41.878   2.311
67708W        W31652  11.773  38.967   1.908
67709W        W31653   9.752  18.086  13.379
67710W        W31654  40.344  33.060  13.378
67711W        W31655  41.999  20.275   4.785
67712W        W31656   0.805  17.679  14.339
67713W        W31657   1.249  30.982   0.783
67714W        W31658  36.980  35.525   2.347
67715W        W31659  26.098   0.389   1.249
67716W        W31660   2.941  11.319   1.394
67717W        W31661  43.844  21.544  10.448
67718W        W31662  19.699   5.438   4.663
67719W        W31663  22.559   7.748   3.228
67720W        W31664  29.494   3.260   0.467
67721W        W31665  43.299  39.990  14.509
67722W        W31666   4.910  20.574  10.643
67723W        W31667  43.295  28.631   1.450
67724W        W31668  38.439   7.328   4.291
67725W        W31669  33.602   5.411  11.994
67726W        W31670  40.350  41.044   4.172
67727W        W31671  26.951  19.768   4.739
67728W        W31672   8.869  16.731   2.331
67729W        W31673  40.908   5.229   0.255
67730W        W31674  15.734  30.525  10.069
67731W        W31675   4.862  23.014  13.991
67732W        W31676  12.701  33.986   2.846
67733W        W31677  37.887   5.886   1.346
67734W        W31678  26.141  24.610   3.149
67735W        W31679  17.119  17.296   0.879
67736W        W31680  32.994   6.224  11.998
67737W        W31681  23.670  15.660   4.814
67738W        W31682  25.018  17.606   2.410
67739W        W31683  19.736  26.550  12.887
67740W        W31684  32.896  11.831  12.999
67741W        W31685   7.392  10.726  14.445
67742W        W31686   8.752  23.194   4.262
67743W        W31687  33.008  22.645   3.774
67744W        W31688  18.653  38.924  13.848
67745W        W31689  37.046  37.856   4.749
67746W        W31690  17.288  16.223   2.877
67747W        W31691  38.484  23.221  13.960
67748W        W31692  28.535   7.850  12.081
67749W        W31693  38.071  35.465  11.920
67750W        W31694  19.113  30.650   0.276
67751W        W31695  28.640  37.460   9.993
67752W        W31696   6.718  28.495   2.205
67753W        W31697  24.690  30.550   4.804
67754W        W31698  24.663  15.219  13.369
67755W        W31699  34.379  15.161   2.765
67756W        W31700   0.868  15.167   1.241
67757W        W31701  44.438  20.719   2.397
67758W        W31702   5.700  20.184  11.014
67759W        W31703  35.596  38.823   1.414
67760W        W31704  32.104   6.848   2.663
67761W        W31705  29.642  29.948   3.238
67762W        W31706   5.349  44.880   4.286
67763W        W31707   4.445  16.145  12.355
67764W        W31708   5.754   9.346   4.352
67765W        W31709  37.004  42.351  14.428
67766W        W31710   9.741   7.789  12.526
67767W        W31711  39.454  30.040  14.945
67768W        W31712  27.638   1.286  12.882
67769W        W31713  18.732   3.767   4.757
67770W        W31714  21.050  26.167   3.665
67771W        W31715  34.050  14.276  12.995
67772W        W31716  38.463  12.643  12.987
67773W        W31717  30.016  13.698   2.254
67774W        W31718  26.676  26.169  14.026
67775W        W31719  30.636  33.462   4.644
67776W        W31720   0.942  29.654   2.896
67777W        W31721   3.264  11.830   2.776
67778W        W31722  17.798   6.798   0.367
67779W        W31723  29.994   3.889  14.425
67780W        W31724  42.870  38.566  12.454
67781W        W31725  29.527  15.803   1.418
67782W        W31726  32.083   4.900   1.916
67783W        W31727  35.372  31.521  13.043
67784W        W31728  21.521  42.852  13.951
67785W        W31729  11.296  27.170   0.316
67786W        W31730  21.600  10.361  10.406
67787W        W31731   2.454  25.539  13.404
67788W        W31732  17.571  42.347  12.937
67789W        W31733  15.809  14.238   2.739
67790W        W31734  20.749  41.970  11.928
67791W        W31735  18.548  33.532  14.021
67792W        W31736  26.633  23.172  10.993
67793W        W31737  34.585  25.016  11.426
67794W        W31738  32.965  13.127  14.495
67795W        W31739  41.966   7.390   3.638
67796W        W31740   3.741   6.283  11.411
67797W        W31741   0.764  23.571  14.486
67798W        W31742  37.019  24.592  13.329
67799W        W31743  43.766  31.478  12.864
67800W        W31744  37.936  37.443  11.984
67801W        W31745  29.447  25.051  12.573
67802W        W31746   0.315  21.597  13.825
67803W        W31747  13.206   0.409  13.972
67804W        W31748  17.092  30.614  10.431
67805W        W31749  27.051  43.274   1.280
67806W        W31750  30.589  33.107  12.500
67807W        W31751  44.950   8.808   0.377
67808W        W31752  40.042  17.720   2.699
67809W        W31753   8.390   4.782   1.334
67810W        W31754  41.854  25.099  11.461
67811W        W31755  14.187  11.722  13.792
67812W        W31756  16.645  21.104   1.377
67813W        W31757  15.099  38.447  13.514
67814W        W31758  19.693  29.548  12.510
67815W        W31759   0.322  16.660   4.114
67816W        W31760  14.589  42.504  14.929
67817W        W31761  41.481  28.141  12.857
67818W        W31762  18.238  28.126   2.823
67819W        W31763  15.579  23.587   4.619
67820W        W31764   8.335  34.565  13.359
67821W        W31765  37.833   1.949  11.920
67822W        W31766  17.568   6.837   0.776
67823W        W31767  23.543  39.997  12.499
67824W        W31768  44.835  30.544   0.753
67825W        W31769  30.040  37.387   4.139
67826W        W31770   8.701   8.244  11.412
67827W        W31771  10.719  31.044   3.794
67828W        W31772  25.973  23.573  14.929
67829W        W31773  38.862  33.069  13.427
67830W        W31774   6.294   6.789  12.837
67831W        W31775  14.110  29.092   0.730
67832W        W31776  16.308   5.774   2.782
67833W        W31777   7.737  44.951  11.988
67834W        W31778  25.027  26.475   0.443
67835W        W31779  31.138  37.483  11.110
67836W        W31780  26.188   3.456  12.092
67837W        W31781  14.780  24.973  11.455
67838W        W31782  19.117  36.549  11.974
67839W        W31783   9.203  37.898  11.000
67840W        W31784  18.740  20.684   1.747
67841W        W31785  36.995   0.471  11.479
67842W        W31786  21.684   2.915  14.864
67843W        W31787   1.805  14.684   3.286
67844W        W31788  12.731  17.214   0.248
67845W        W31789  39.368  36.853   3.664
67846W        W31790  16.792  27.512   0.928
67847W        W31791  26.020  35.092   1.329
67848W        W31792   1.364   7.873  11.895
67849W        W31793   3.709   8.813  12.842
67850W        W31794  42.395   1.822   4.597
67851W        W31795  10.720  38.938   3.752
67852W        W31796  16.180   4.335  13.055
67853W        W31797  21.180  13.782   0.728
67854W        W31798  40.411  11.821  11.550
67855W        W31799  21.152  25.549  14.501
67856W        W31800   3.816  19.705  13.891
67857W        W31801  32.961  24.562  10.943
67858W        W31802  16.238   8.245   3.798
67859W        W31803   4.896  15.253   1.708
67860W        W31804   9.842  13.190  14.910
67861W        W31805  19.575  38.396   2.233
67862W        W31806  44.811   6.683  13.975
67863W        W31807  19.639   2.937  11.482
67864W        W31808  18.063  31.429   1.762
67865W        W31809  19.084  10.670   1.328
67866W        W31810  20.244  38.064  12.501
67867W        W31811  14.313  23.632   1.921
67868W        W31812   6.388  15.151   3.328
67869W        W31813  41.438  10.740  13.476
67870W        W31814   4.869  31.475  10.952
67871W        W31815  15.251  13.771   1.389
67872W        W31816   9.758  12.247   0.254
67873W        W31817   1.878   9.194   1.762
67874W        W31818  31.531  23.663  11.573
67875W        W31819  10.832  10.221   0.824
67876W        W31820  36.007  15.788   1.222
67877W        W31821   3.910   8.786   3.295
67878W        W31822  25.005  27.970   0.755
67879W        W31823  15.133   3.349   1.869
67880W        W31824   3.219  15.275   3.307
67881W        W31825   9.225  41.516   1.322
67882W        W31826  15.778  35.075   2.807
67883W        W31827  27.472  33.883   3.684
67884W        W31828  12.325  44.906  10.623
67885W        W31829   2.867  29.643  12.464
67886W        W31830  30.058  13.224  14.839
67887W        W31831   5.383  11.147   3.308
67888W        W31832  26.536  31.948   1.332
67889W        W31833  31.124   0.878   0.756
67890W        W31834   7.899  22.018  11.537
67891W        W31835  15.273  35.970   0.349
67892W        W31836   7.406  38.906   3.854
67893W        W31837   3.712   3.291  13.424
67894W        W31838   4.897  23.069  10.594
67895W        W31839  41.458  30.025  11.491
67896W        W31840  44.951   3.778   0.348
67897W        W31841  12.627  31.041   2.325
67898W        W31842  42.401  12.125   4.705
67899W        W31843   0.951  43.000  12.506
67900W        W31844  15.722   1.925  10.431
67901W        W31845  41.508  23.037  12.949
67902W        W31846  41.928  34.053  14.886
67903W        W31847  13.178   8.283  11.875
67904W        W31848  37.361  31.593  12.968
67905W        W31849  41.907  27.013  13.522
67906W        W31850  27.553  34.605  11.506
67907W        W31851  40.838  37.557  13.819
67908W        W31852  44.766   3.726  13.407
67909W        W31853  32.998  28.113  11.120
67910W        W31854  14.673  14.613   1.360
67911W        W31855  21.517  39.349  13.988
67912W        W31856   4.237  15.120   1.220
67913W        W31857   9.718  22.538  11.488
67914W        W31858  21.238  25.974   4.829
67915W        W31859   5.859  36.901   3.712
67916W        W31860  37.531  21.093   2.851
67917W        W31861  44.504  16.735   2.388
67918W        W31862  27.161  43.836   4.223
67919W        W31863  28.649  24.212  13.806
67920W        W31864  36.945  38.965  14.510
67921W        W31865   6.406  27.589  11.517
67922W        W31866  11.625  38.871  12.534
67923W        W31867  32.448  40.885  10.541
67924W        W31868  20.113  22.607  14.888
67925W        W31869  44.438   2.386   0.395
67926W        W31870  38.385  25.203   2.856
67927W        W31871  22.083   6.231   0.448
67928W        W31872  14.137  26.701  10.032
67929W        W31873  13.608   3.852   2.705
67930W        W31874  30.485   2.899   4.821
67931W        W31875  35.079  18.200  12.027
67932W        W31876  10.299   0.275  10.923
67933W        W31877   5.773  15.635   4.823
67934W        W31878  19.161  31.550   0.895
67935W        W31879   2.306  44.003  12.503
67936W        W31880  20.644  25.590   3.379
67937W        W31881   2.934   5.858  11.036
67938W        W31882  28.183   5.782   0.299
67939W        W31883  43.773   7.859   1.767
67940W        W31884   0.861  23.718   1.284
67941W        W31885   2.350  27.484   4.690
67942W        W31886   2.733  28.466  12.435
67943W        W31887  16.159  44.833  11.902
67944W        W31888   6.197   7.191   2.335
67945W        W31889   9.833  41.293   1.290
67946W        W31890  20.551  38.500  10.636
67947W        W31891  38.434  34.967   2.264
67948W        W31892   7.198  35.979  13.511
67949W        W31893  28.941  28.137  12.471
67950W        W31894  42.960   9.331  14.914
67951W        W31895  28.658  32.500   0.943
67952W        W31896  41.403   9.301   4.762
67953W        W31897   6.774  42.942   1.771
67954W        W31898  11.186   9.319   0.327
67955W        W31899  23.050  21.235   4.708
67956W        W31900  28.512   7.344   1.757
67957W        W31901  34.536  37.867   0.481
67958W        W31902  17.615  29.065  11.914
67959W        W31903  21.094  13.214  11.465
67960W        W31904  19.669  32.044  10.970
67961W        W31905  23.561  19.577   3.737
67962W        W31906  16.706  17.266  12.542
67963W        W31907  35.540  31.552   3.211
67964W        W31908   5.235  16.090   3.314
67965W        W31909  37.378  34.914   4.835
67966W        W31910   4.773   1.743  10.582
67967W        W31911  15.258  13.678   3.729
67968W        W31912  40.422  44.377  13.970
67969W        W31913  42.371  36.919   3.168
67970W        W31914  14.594  22.246  13.004
67971W        W31915  43.460  40.304  13.883
67972W        W31916  39.004   7.756  12.824
67973W        W31917  31.940  41.838   0.350
67974W        W31918  28.471   0.484  12.350
67975W        W31919   3.293  41.987   0.354
67976W        W31920   5.838  35.472   2.235
67977W        W31921   9.683  41.404  10.996
67978W        W31922  18.153  44.441  13.952
67979W        W31923  43.354  37.924   3.827
67980W        W31924  29.449   5.201   0.937
67981W        W31925  13.822  16.812   0.966
67982W        W31926   7.413  17.282   0.733
67983W        W31927  37.881  31.133  10.978
67984W        W31928  40.336  36.862  12.461
67985W        W31929   2.424   9.207   4.320
67986W        W31930  32.559  39.365  10.607
67987W        W31931   4.414  13.193  12.462
67988W        W31932  40.483  31.985  13.815
67989W        W31933   4.376  37.950   1.915
67990W        W31934  38.458   6.335  12.383
67991W        W31935  29.455  31.506  12.013
67992W        W31936  38.556   2.282   9.455
67993W        W31937  29.545   5.343  14.819
67994W        W31938  44.399  24.573   2.738
67995W        W31939  18.142  28.534   4.620
67996W        W31940  13.258   3.220  14.781
67997W        W31941  44.480  20.618  13.396
67998W        W31942  14.251   1.795  13.532
67999W        W31943  14.753  14.724  13.485
68000W        W31944   3.812  24.092   2.712
68001W        W31945  34.986  40.322   1.352
68002W        W31946  25.473   4.745   0.254
68003W        W31947  18.098  41.974  13.869
68004W        W31948  23.503  39.459   1.841
68005W        W31949   0.492  34.073  13.548
68006W        W31950   8.370  27.691  12.443
68007W        W31951  19.043   8.814   3.293
68008W        W31952  10.185  10.191  13.535
68009W        W31953  14.681  31.547  14.362
68010W        W31954  10.234  15.219  14.859
68011W        W31955  41.320  41.876   3.650
68012W        W31956  19.747   9.836  11.582
68013W        W31957  31.045   7.246  12.363
68014W        W31958  42.495  16.601   0.785
68015W        W31959  23.129  15.631  10.906
68016W        W31960   5.403  29.150   4.836
68017W        W31961   8.182   8.293  12.868
68018W        W31962  16.223  38.562  13.375
68019W        W31963  43.469  23.026  11.947
68020W        W31964  19.162  37.919   1.770
68021W        W31965  20.040  12.728   4.764
68022W        W31966  40.511   0.403  12.865
68023W        W31967  34.468  28.556   2.902
68024W        W31968  18.665  11.690  12.084
68025W        W31969   6.824  41.988  10.592
68026W        W31970   7.855  32.086   4.212
68027W        W31971  22.677  17.652  12.418
68028W        W31972  26.496  27.954  10.447
68029W        W31973  11.337   6.233  12.487
68030W        W31974  28.071  42.821   3.353
68031W        W31975   0.409  29.552  13.391
68032W        W31976   4.840   1.244  11.464
68033W        W31977  12.147  16.204  13.917
68034W        W31978  10.203  37.016   1.372
68035W        W31979   0.892  35.378   3.648
68036W        W31980  32.505  41.530   1.729
68037W        W31981  16.662  37.027  14.291
68038W        W31982  14.808   1.382  13.487
68039W        W31983  23.735  24.657   4.636
68040W        W31984  23.089  19.250  13.512
68041W        W31985  11.844  35.580  10.587
68042W        W31986  33.877  12.690   2.181
68043W        W31987  27.525  35.563  10.502
68044W        W31988   9.234  34.502   1.837
68045W        W31989  19.771   6.379  14.772
68046W        W31990  28.160  29.644  14.772
68047W        W31991  19.227   1.261   2.182
68048W        W31992  13.152   1.428  10.963
68049W        W31993  38.037  28.037   3.633
68050W        W31994  38.913   4.389  14.866
68051W        W31995  37.948  26.565   0.829
68052W        W31996  40.530  26.112  13.018
68053W        W31997   4.849  33.501   3.831
68054W        W31998  27.094  43.313   4.648
68055W        W31999  30.426  32.907   0.253
68056W        W32000   3.800  19.615   0.852
68057W        W32001  18.682  41.927   2.330
68058W        W32002  38.829   1.910  13.514
68059W        W32003  31.073  36.969   0.354
68060W        W32004  17.629  16.728  13.860
68061W        W32005  24.637   7.761   4.336
68062W        W32006  24.128  33.069   2.373
68063W        W32007  23.997  27.496   1.716
68064W        W32008  32.914  36.006  14.502
68065W        W32009  31.626   4.373   1.870
68066W        W32010  17.280  36.030  12.024
68067W        W32011  25.080  44.267  14.399
68068W        W32012  11.332  42.797  13.885
68069W        W32013  28.022  17.094   3.161
68070W        W32014  44.462  38.428  14.395
68071W        W32015   6.183  14.723   3.852
68072W        W32016  31.533  24.103   0.373
68073W        W32017   0.915  36.376  14.914
68074W        W32018   6.791  14.644   0.815
68075W        W32019  11.244   9.868   2.217
68076W        W32020  35.078  41.015  11.084
68077W        W32021   4.287  40.831   1.789
68078W        W32022  37.438  23.604  10.474
68079W        W32023  27.182   2.388   3.633
68080W        W32024  29.964  11.269  14.990
68081W        W32025  34.449  34.509   1.765
68082W        W32026  37.056  22.096   2.823
68083W        W32027  33.920  35.573  10.495
68084W        W32028  43.507  23.240  12.978
68085W        W32029   0.786  19.714  11.395
68086W        W32030   1.397  17.148   2.273
68087W        W32031  42.979   5.782   4.288
68088W        W32032  10.178  11.856   2.789
68089W        W32033   8.697  28.439   1.762
68090W        W32034  43.919  17.769  12.839
68091W        W32035  11.278  36.959  14.014
68092W        W32036  31.951  44.771   1.442
68093W        W32037  25.485  44.888   1.249
68094W        W32038  25.051  43.353  11.579
68095W        W32039  17.735  30.419  12.533
68096W        W32040  39.957  14.134   1.742
68097W        W32041  43.373  33.891   1.734
68098W        W32042  33.092  42.909   2.287
68099W        W32043  36.557   0.337  10.541
68100W        W32044   2.318  20.084  11.603
68101W        W32045  18.250  21.639  11.498
68102W        W32046  28.996  32.120   3.834
68103W        W32047  16.588  31.098  10.424
68104W        W32048  13.825  20.134   2.395
68105W        W32049  24.140  30.085   0.315
68106W        W32050  21.740  18.578  11.511
68107W        W32051   7.353   1.423   4.818
68108W        W32052  15.193  36.470   1.433
68109W        W32053  24.005  33.513  14.488
68110W        W32054  11.129   4.411   2.705
68111W        W32055  38.369  25.219  11.491
68112W        W32056   7.195  17.069   1.884
68113W        W32057   2.329  33.499   5.310
68114W        W32058  11.819   4.274  14.908
68115W        W32059  17.153   2.237   4.804
68116W        W32060   3.747   9.273   3.765
68117W        W32061   3.232   0.389   1.702
68118W        W32062  10.183  19.700  14.494
68119W        W32063  33.551  41.943   0.348
68120W        W32064   5.915  26.177  14.774
68121W        W32065   5.901  18.202   4.150
68122W        W32066   9.151  37.541  11.880
68123W        W32067  13.115   5.427  13.384
68124W        W32068   7.685  11.845  10.117
68125W        W32069   3.251   1.817  12.421
68126W        W32070  26.087   8.883   1.352
68127W        W32071  39.930  17.684   3.364
68128W        W32072  23.541  26.648   3.325
68129W        W32073  38.837  17.230  14.463
68130W        W32074   0.832  24.583  11.377
68131W        W32075  29.471  33.480   4.336
68132W        W32076  41.385  30.530  14.828
68133W        W32077  34.100  17.678  11.497
68134W        W32078  39.394  26.496  12.914
68135W        W32079   4.881  33.448  14.331
68136W        W32080   6.241  23.097  14.999
68137W        W32081   1.853  43.316  13.458
68138W        W32082   3.444  12.360  12.437
68139W        W32083  12.212  15.774   9.998
68140W        W32084  39.026  39.553   2.418
68141W        W32085  44.846  12.823   0.737
68142W        W32086  14.105  29.997   0.853
68143W        W32087  11.707  42.946  13.876
68144W        W32088  25.647  29.951  13.402
68145W        W32089  19.691  38.072   1.290
68146W        W32090  42.482  18.148  14.893
68147W        W32091   9.333  21.741  14.858
68148W        W32092  36.045  37.548   2.827
68149W        W32093  44.441  15.670  14.892
68150W        W32094  39.394   1.959  11.020
68151W        W32095  22.716  32.608   1.423
68152W        W32096  36.854  15.784   4.228
68153W        W32097  21.252   6.342   4.789
68154W        W32098  26.096  42.309   2.253
68155W        W32099   9.254  17.193  12.917
68156W        W32100  37.391  39.056  10.543
68157W        W32101  11.144  38.333   2.218
68158W        W32102   8.207  23.643  14.304
68159W        W32103  23.081   4.844  13.855
68160W        W32104   2.270   4.883  10.490
68161W        W32105  26.628  23.051   2.806
68162W        W32106  42.389  27.089   4.724
68163W        W32107  33.918  28.616   0.763
68164W        W32108  43.430  25.197   4.732
68165W        W32109   5.724  16.731   4.774
68166W        W32110   2.400  40.480   4.250
68167W        W32111  43.844  32.901  12.436
68168W        W32112  20.261  31.100   4.692
68169W        W32113   4.753  35.857   1.239
68170W        W32114  34.521  27.657  14.418
68171W        W32115  42.389  25.540  11.445
68172W        W32116   6.750  11.773   1.261
68173W        W32117  40.333  15.789   0.390
68174W        W32118  43.801   3.275  13.980
68175W        W32119  33.505  11.286  10.589
68176W        W32120  39.529  17.300   3.644
68177W        W32121  28.079   4.238  10.436
68178W        W32122  26.041  36.515   0.937
68179W        W32123  27.158   7.702  14.933
68180W        W32124   6.413  30.126   1.401
68181W        W32125  22.541  11.166  14.767
68182W        W32126  12.618  35.600   2.251
68183W        W32127  20.724  34.047  14.443
68184W        W32128  25.122  14.674   5.082
68185W        W32129  10.798  40.914   1.757
68186W        W32130  11.768  25.565  12.557
68187W        W32131  37.880  28.010  11.028
68188W        W32132  30.968   3.372  13.368
68189W        W32133  13.132  27.658   1.838
68190W        W32134  35.450   6.853  14.297
68191W        W32135  24.675  37.365  13.865
68192W        W32136  23.145  32.137  12.983
68193W        W32137   3.882  17.181   0.935
68194W        W32138  37.547  12.305   0.911
68195W        W32139  19.082  39.487   3.284
68196W        W32140   4.329   8.401   3.384
68197W        W32141  24.589  26.677   1.894
68198W        W32142  33.092   4.402  11.457
68199W        W32143  13.836   2.445  13.389
68200W        W32144  37.500  37.840   2.889
68201W        W32145   4.750  26.480  13.524
68202W        W32146  28.975   5.256   0.772
68203W        W32147  34.596  40.853   0.437
68204W        W32148  44.423  27.594  13.484
68205W        W32149  30.509   9.302   0.864
68206W        W32150  10.691  17.696  13.400
68207W        W32151   1.341  32.963  12.942
68208W        W32152  31.571  33.051   0.428
68209W        W32153  23.580  10.674  14.996
68210W        W32154   8.247  27.081   3.787
68211W        W32155   3.779  11.817  12.494
68212W        W32156   5.711   1.755  12.387
68213W        W32157  26.120  17.641   3.348
68214W        W32158  19.689  21.180   4.127
68215W        W32159  25.618  18.758   0.268
68216W        W32160  15.618   4.719  12.825
68217W        W32161  33.520  31.031   4.705
68218W        W32162   8.822  28.949   3.850
68219W        W32163   4.395  22.562   1.294
68220W        W32164  24.225  40.395   2.353
68221W        W32165  13.189   0.355   2.661
68222W        W32166  20.240  29.027  14.506
68223W        W32167   7.299  33.910  11.117
68224W        W32168  35.872  44.970   3.794
68225W        W32169  42.977   4.317   2.300
68226W        W32170  28.606  35.967  12.554
68227W        W32171   4.846   8.244  12.097
68228W        W32172  38.842  44.349   5.127
68229W        W32173  21.174  18.233  13.499
68230W        W32174  35.096  17.662   1.721
68231W        W32175   6.836  26.021   3.177
68232W        W32176  20.690  11.213  10.624
68233W        W32177  20.562  10.794   2.852
68234W        W32178  16.728  16.594   0.417
68235W        W32179  21.127  11.309   1.374
68236W        W32180  14.138  19.648  12.085
68237W        W32181  21.721  32.568   0.475
68238W        W32182  36.563  36.933   0.431
68239W        W32183   1.755  27.007  13.947
68240W        W32184  18.224  31.069   4.228
68241W        W32185  40.981  18.581   1.771
68242W        W32186  26.138   9.687   1.229
68243W        W32187  35.001  12.798   4.631
68244W        W32188  22.605  21.666   4.646
68245W        W32189   9.359  15.811  12.043
68246W        W32190  26.644  27.127  11.937
68247W        W32191  25.518  21.646   4.336
68248W        W32192  38.550  11.302  11.052
68249W        W32193   3.920  44.375  11.951
68250W        W32194  41.435  24.104   0.742
68251W        W32195  31.982  42.834  14.389
68252W        W32196  26.070  25.017  11.113
68253W        W32197  38.825   5.278   5.768
68254W        W32198   8.825  21.660   2.248
68255W        W32199   7.349  23.065   3.779
68256W        W32200  32.062  23.059  12.845
68257W        W32201   0.861  27.458   2.794
68258W        W32202   3.901   6.358  12.541
68259W        W32203   8.398  14.712  11.377
68260W        W32204  21.557  32.470  14.015
68261W        W32205  38.340  18.066   1.906
68262W        W32206  34.400  27.497  13.956
68263W        W32207   5.873   8.758  13.479
68264W        W32208  36.532  26.152  12.956
68265W        W32209  20.711  30.001   4.168
68266W        W32210  41.987   8.315  13.043
68267W        W32211  20.711   0.893  10.904
68268W        W32212  36.028  33.426   2.734
68269W        W32213   0.364  29.977   0.387
68270W        W32214  16.189  37.444  13.886
68271W        W32215  32.504  21.139   4.603
68272W        W32216   8.701  43.379  14.346
68273W        W32217  21.647   8.794  12.888
68274W        W32218  38.935  10.732  14.319
68275W        W32219   8.730  20.674   4.155
68276W        W32220  24.193  44.786  11.992
68277W        W32221  17.613  41.956   0.948
68278W        W32222  40.036  24.486   0.875
68279W        W32223  22.584   7.210  11.881
68280W        W32224  24.574  15.111  12.969
68281W        W32225  37.858  28.118   1.318
68282W        W32226  17.206  18.562   3.845
68283W        W32227  17.610  23.613   2.803
68284W        W32228  11.627  28.644   0.795
68285W        W32229  29.436   8.253  12.937
68286W        W32230  27.605  35.892   3.195
68287W        W32231  18.681  19.736  12.879
68288W        W32232   5.219  17.174  11.539
68289W        W32233  11.292  35.972   1.864
68290W        W32234   3.276   2.312   0.323
68291W        W32235  42.336  24.011   2.726
68292W        W32236  33.958  20.121  13.516
68293W        W32237   5.906   8.185  13.918
68294W        W32238   2.460  18.618  13.931
68295W        W32239  41.416  21.214  12.989
68296W        W32240  44.359  30.143   4.124
68297W        W32241   9.677  21.174   2.322
68298W        W32242  20.040  13.777   3.378
68299W        W32243  36.994  27.137  11.050
68300W        W32244   5.756  26.515   2.211
68301W        W32245   6.243   2.265  11.459
68302W        W32246   1.247  29.442   1.791
68303W        W32247   0.884  30.004   3.263
68304W        W32248  16.594  18.749  12.343
68305W        W32249  23.068  25.079  10.989
68306W        W32250  34.116  41.330   1.814
68307W        W32251   2.301  35.027   1.756
68308W        W32252  43.481  26.046   1.295
68309W        W32253  42.467   3.379   3.248
68310W        W32254  25.148  10.166   2.881
68311W        W32255  29.010   4.422   2.736
68312W        W32256  28.449   4.277  12.547
68313W        W32257  32.484  14.125  14.394
68314W        W32258  23.637  39.342   0.459
68315W        W32259  18.608  26.552   2.885
68316W        W32260  21.219  10.683   4.225
68317W        W32261  20.251  23.603  13.326
68318W        W32262  17.196   4.716  13.347
68319W        W32263  27.119   9.238   3.231
68320W        W32264   9.884  21.625   1.757
68321W        W32265  10.326  25.112   3.676
68322W        W32266  14.650  26.046  10.564
68323W        W32267  16.210  41.460   4.217
68324W        W32268  32.518   9.705  14.803
68325W        W32269   8.897  26.649   1.283
68326W        W32270  11.161  16.229  11.858
68327W        W32271  44.770  21.217   0.387
68328W        W32272  36.075  26.561   0.892
68329W        W32273  33.961  20.737  14.848
68330W        W32274  28.929  30.159   3.385
68331W        W32275  19.052  40.814   0.876
68332W        W32276   2.458  29.074  12.017
68333W        W32277   2.290  35.908   0.958
68334W        W32278   1.295  12.227   4.730
68335W        W32279  22.607  42.380   4.663
68336W        W32280  30.522  18.711   0.308
68337W        W32281  13.105   4.251   3.670
68338W        W32282  35.404   9.821  13.925
68339W        W32283  16.230  23.192   2.292
68340W        W32284  11.148   8.277   4.666
68341W        W32285  26.092  12.832   4.192
68342W        W32286  41.455  24.520   2.198
68343W        W32287   8.261  25.615   4.329
68344W        W32288   5.870   2.317  12.533
68345W        W32289  12.712  19.594  11.974
68346W        W32290   8.864   4.428  11.901
68347W        W32291   8.719   5.345  13.453
68348W        W32292   5.713  39.527  12.957
68349W        W32293  35.877  43.774   3.359
68350W        W32294   6.810  39.976   3.213
68351W        W32295   0.774  40.519  13.339
68352W        W32296  28.662  22.073   4.810
68353W        W32297  26.631   1.308   4.715
68354W        W32298  34.605  42.365   3.193
68355W        W32299  11.837   4.757  11.594
68356W        W32300  11.786  18.713   2.407
68357W        W32301  10.655  23.109  11.096
68358W        W32302  41.934   2.842  11.433
68359W        W32303  39.378  42.402   3.311
68360W        W32304  26.477  35.498  13.438
68361W        W32305  16.172  20.527  11.975
68362W        W32306  21.114  31.076   4.267
68363W        W32307   6.907   4.779   3.330
68364W        W32308   9.379  11.280  14.878
68365W        W32309   2.826  33.053  13.434
68366W        W32310  18.554  13.311  12.377
68367W        W32311  11.226  33.006   0.758
68368W        W32312  28.101  40.048   2.834
68369W        W32313  43.384  29.155  11.452
68370W        W32314  43.307  41.371  12.377
68371W        W32315  24.046  16.621   4.315
68372W        W32316   1.459  18.765  13.992
68373W        W32317   8.751  36.471   5.122
68374W        W32318   4.699   4.891   3.300
68375W        W32319  23.996  14.196  11.548
68376W        W32320  29.004  36.858  10.563
68377W        W32321  23.079  28.615  11.422
68378W        W32322  25.033  26.503   1.808
68379W        W32323  13.678  21.561   2.815
68380W        W32324  28.561  20.185   2.358
68381W        W32325   4.428  11.633   4.671
68382W        W32326  37.901  11.179   2.800
68383W        W32327  38.922   0.290  10.608
68384W        W32328  22.199   1.392  11.874
68385W        W32329  18.607   9.707   3.753
68386W        W32330  36.453   8.270   4.722
68387W        W32331  22.998  18.223  12.460
68388W        W32332  25.143   2.426   1.900
68389W        W32333  22.995  13.693   2.218
68390W        W32334  14.685   5.780   4.335
68391W        W32335   6.289  41.380   4.769
68392W        W32336   7.288  39.945   0.765
68393W        W32337  36.054  31.118   4.222
68394W        W32338   8.201  22.665  12.458
68395W        W32339  18.185  24.543   4.780
68396W        W32340   5.867  40.532   0.775
68397W        W32341  13.343  12.321  14.275
68398W        W32342  24.194   6.219   4.634
68399W        W32343   1.806  30.981  14.317
68400W        W32344   5.687  38.538   0.425
68401W        W32345  14.810  27.495  10.508
68402W        W32346  29.667  23.228  14.377
68403W        W32347  30.632  31.426  13.942
68404W        W32348  33.484   2.329   3.630
68405W        W32349   9.304  17.286   0.268
68406W        W32350   1.243  14.654   1.315
68407W        W32351   4.276  41.800   2.699
68408W        W32352  28.186  31.938  13.530
68409W        W32353  26.176  11.626   0.754
68410W        W32354  13.668  39.911  12.925
68411W        W32355  42.464   0.452  14.415
68412W        W32356  34.062  37.862   2.680
68413W        W32357  19.728   5.290  11.105
68414W        W32358   4.765   7.798   0.262
68415W        W32359  20.661  18.606   0.739
68416W        W32360  15.205  13.302  14.833
68417W        W32361  18.735  26.642   5.154
68418W        W32362  40.316  29.528   3.263
68419W        W32363  15.795  28.536  11.987
68420W        W32364  11.174  34.055   4.305
68421W        W32365  26.673  14.264  13.390
68422W        W32366   9.153   6.714   3.787
68423W        W32367  43.359   9.187   0.903
68424W        W32368  19.591  23.691  12.862
68425W        W32369  22.733  15.750  13.526
68426W        W32370  15.268  21.257  11.512
68427W        W32371  24.197  28.504  12.352
68428W        W32372  17.685  11.251   4.643
68429W        W32373   9.214  32.094   4.776
68430W        W32374   4.816   8.796  10.105
68431W        W32375  22.224  32.545  10.466
68432W        W32376  42.848  32.540  11.992
68433W        W32377   2.760  12.157   4.826
68434W        W32378   6.280   0.871  12.941
68435W        W32379  16.152  27.065  14.369
68436W        W32380  38.462   2.319  13.904
68437W        W32381   3.381   9.188  12.540
68438W        W32382  44.811  26.198  11.389
68439W        W32383  14.152   7.754   1.427
68440W        W32384  26.702  27.117  11.502
68441W        W32385   1.822  29.170   3.173
68442W        W32386  18.180  18.158  10.622
68443W        W32387  32.561  40.414   0.248
68444W        W32388  43.817   9.226  13.015
68445W        W32389  24.983  39.350   3.285
68446W        W32390  21.748  11.218   0.293
68447W        W32391  15.151   9.265   2.351
68448W        W32392  41.951  19.276   3.157
68449W        W32393  29.994   1.428   1.899
68450W        W32394   7.897  37.074   3.870
68451W        W32395  26.558   2.404   2.663
68452W        W32396  10.181   2.775   3.373
68453W        W32397   9.288  20.564   4.125
68454W        W32398  44.484  19.685  11.415
68455W        W32399  37.483   4.884  11.013
68456W        W32400  37.994  28.485  10.488
68457W        W32401  14.710   1.451  11.111
68458W        W32402   2.266   1.259   4.770
68459W        W32403  13.782  32.492   0.459
68460W        W32404  10.767  31.972  13.802
68461W        W32405  43.002  42.456   3.234
68462W        W32406  34.104  32.911  12.942
68463W        W32407  17.568   6.883   9.627
68464W        W32408  38.024  35.588  14.879
68465W        W32409  14.769  37.552  12.553
68466W        W32410  31.556  24.180  14.319
68467W        W32411  15.218  29.130  11.559
68468W        W32412  25.168  41.532   4.644
68469W        W32413  30.525  13.181  12.951
68470W        W32414  30.056  12.214  13.846
68471W        W32415  33.436  10.248   1.878
68472W        W32416  32.414  11.293   4.140
68473W        W32417  14.792  38.831  11.052
68474W        W32418  41.871  27.548  10.606
68475W        W32419  34.936  17.748   2.669
68476W        W32420  14.304  21.677  11.489
68477W        W32421   7.252  14.780   1.728
68478W        W32422  23.225  43.432   1.726
68479W        W32423  35.581  42.842  10.445
68480W        W32424  36.026  43.509  10.432
68481W        W32425  37.555  42.330  12.835
68482W        W32426   9.677   6.745  12.487
68483W        W32427  27.111   5.374   1.447
68484W        W32428  30.944  31.128  14.780
68485W        W32429  16.182  11.637   2.248
68486W        W32430  22.100  11.318   3.671
68487W        W32431  26.566  17.695   0.372
68488W        W32432  19.071  13.710  12.883
68489W        W32433  39.329   6.728  12.862
68490W        W32434  24.149  19.657  14.889
68491W        W32435  20.732  34.071   2.727
68492W        W32436  33.490  22.021  11.990
68493W        W32437  22.601  37.395  11.036
68494W        W32438  24.508  39.346   1.301
68495W        W32439  30.133   4.427  11.977
68496W        W32440  25.628  19.661   2.848
68497W        W32441  24.619   8.868  11.460
68498W        W32442  42.873  40.533   0.343
68499W        W32443   8.762   7.842  13.355
68500W        W32444  31.956  30.570   4.770
68501W        W32445  11.792  34.547   3.845
68502W        W32446  39.842  11.766   1.385
68503W        W32447  20.714  40.900   4.349
68504W        W32448  43.018  31.500   2.855
68505W        W32449  19.065   7.390   4.615
68506W        W32450  11.695  24.529   2.868
68507W        W32451  25.528  15.791  14.470
68508W        W32452  31.066  13.124   2.244
68509W        W32453  19.169  16.255  10.578
68510W        W32454  41.915   5.811   9.955
68511W        W32455  12.719  18.072  14.464
68512W        W32456  29.157  35.107  14.391
68513W        W32457  27.545  41.859   4.785
68514W        W32458   5.273  29.428   4.185
68515W        W32459  21.568  29.923  14.813
68516W        W32460  24.144   5.394  10.891
68517W        W32461  39.990  36.555   4.166
68518W        W32462  22.538   2.928  13.998
68519W        W32463  17.302  16.100   3.263
68520W        W32464  24.199  34.545  10.075
68521W        W32465  27.175  23.057   0.343
68522W        W32466  29.540   6.310  12.031
68523W        W32467  16.639  42.459  13.400
68524W        W32468   1.894  43.966   3.838
68525W        W32469  10.157   2.888  11.017
68526W        W32470  16.749  19.132   4.697
68527W        W32471  13.296  31.903   2.411
68528W        W32472  10.293  37.000   3.271
68529W        W32473  39.426  28.008   3.791
68530W        W32474  16.143  17.770   4.804
68531W        W32475  11.781   5.739   0.875
68532W        W32476  34.497  27.131  10.978
68533W        W32477  22.569  37.930   2.666
68534W        W32478  37.994  36.922   0.920
68535W        W32479   1.419  21.024  14.475
68536W        W32480  39.470   0.757  11.113
68537W        W32481  12.656  13.120   1.759
68538W        W32482  11.313  21.612  12.516
68539W        W32483  31.641  27.470  12.061
68540W        W32484  23.115  12.210   2.902
68541W        W32485  40.050   7.286   1.870
68542W        W32486  17.213  40.834   3.268
68543W        W32487   6.196  27.503  13.397
68544W        W32488  17.276  16.091  11.508
68545W        W32489  43.884  28.490   2.225
68546W        W32490  29.954  17.792  12.028
68547W        W32491   6.914  16.607  11.990
68548W        W32492  28.138  37.925   4.837
68549W        W32493  30.572  27.541   3.294
68550W        W32494  44.830  12.645  14.889
68551W        W32495  19.202  44.491   4.200
68552W        W32496  38.503  27.012   1.249
68553W        W32497  36.930  44.868   2.776
68554W        W32498   5.316  37.435   3.276
68555W        W32499  12.674  42.968  11.455
68556W        W32500  37.918  22.119   2.338
68557W        W32501   5.850  21.674   4.294
68558W        W32502  12.855  41.407   0.401
68559W        W32503  38.395   6.795   2.353
68560W        W32504  33.582  37.337  11.560
68561W        W32505  23.191   8.801  14.490
68562W        W32506   8.335   0.298   2.233
68563W        W32507  28.484  18.637  12.367
68564W        W32508   8.382   3.769   4.751
68565W        W32509  34.037  12.335   0.938
68566W        W32510  43.369  15.327  13.001
68567W        W32511  30.567   9.316   2.663
68568W        W32512  24.566  15.266   4.146
68569W        W32513  37.057  35.997  14.505
68570W        W32514  24.981  38.368   1.700
68571W        W32515  33.546   8.402   0.324
68572W        W32516  35.503  34.060  14.801
68573W        W32517  31.947  29.587   5.260
68574W        W32518  30.987  38.915   1.731
68575W        W32519  44.370  38.428  12.045
68576W        W32520   3.358  15.117  12.543
68577W        W32521   4.748  23.533  12.896
68578W        W32522  23.694  18.590   3.660
68579W        W32523  27.182  29.447  12.499
68580W        W32524  44.873  25.169   3.759
68581W        W32525  37.512  14.723   4.163
68582W        W32526  21.033  25.480  14.943
68583W        W32527   3.899  25.599   0.817
68584W        W32528   5.747  11.623   1.310
68585W        W32529  17.179  11.805   1.753
68586W        W32530  26.181  29.144  12.986
68587W        W32531   0.844  19.564   1.733
68588W        W32532  29.960  28.993  10.908
68589W        W32533  31.421  14.114   0.472
68590W        W32534  17.703  14.702  14.944
68591W        W32535  10.281  22.122   2.764
68592W        W32536  24.063   0.799   2.681
68593W        W32537  38.059  23.601  12.403
68594W        W32538  26.024  27.084   0.747
68595W        W32539  32.597   4.791  12.447
68596W        W32540  36.969  28.456  11.404
68597W        W32541  35.574  20.582  10.622
68598W        W32542   0.414  10.849  13.061
68599W        W32543   0.291  37.935  10.442
68600W        W32544  35.583  19.751  11.519
68601W        W32545  22.662  30.120   3.776
68602W        W32546  11.820   2.965   1.403
68603W        W32547  21.141   2.388  11.015
68604W        W32548  33.053  32.510  11.096
68605W        W32549   7.676  25.547   3.653
68606W        W32550  20.653  18.248  10.914
68607W        W32551   4.205  30.447   3.280
68608W        W32552  12.698  35.394  12.049
68609W        W32553   2.251   7.667  11.031
68610W        W32554  25.653   5.724  11.594
68611W        W32555  15.302  15.815  11.963
68612W        W32556   9.720  29.555   1.228
68613W        W32557  27.041  42.848  12.946
68614W        W32558  28.942  20.541   2.794
68615W        W32559  27.646  22.022   1.317
68616W        W32560  18.692  27.546  11.079
68617W        W32561   7.906  36.042   0.254
68618W        W32562  39.434  38.028  14.001
68619W        W32563   0.461  22.670  11.044
68620W        W32564   4.356  21.527  14.014
68621W        W32565  11.294  36.946  11.455
68622W        W32566  20.222  18.074  13.062
68623W        W32567  13.717   4.905  10.479
68624W        W32568  32.581  31.969   1.415
68625W        W32569  44.308  18.626   5.211
68626W        W32570  35.088  43.443   1.338
68627W        W32571  24.689   1.380   3.249
68628W        W32572  33.957   7.333   1.397
68629W        W32573  29.620  15.184   3.366
68630W        W32574  26.030   8.734   3.837
68631W        W32575   4.855  19.224   2.781
68632W        W32576  17.095  36.530   1.695
68633W        W32577   6.303   1.946   4.215
68634W        W32578  20.757  13.229  13.891
68635W        W32579  15.758  26.541  10.109
68636W        W32580  43.330   3.740   2.202
68637W        W32581  19.211  31.513  10.970
68638W        W32582   5.784  21.058   1.762
68639W        W32583  24.524   3.940   0.405
68640W        W32584  23.986  27.533  13.992
68641W        W32585  16.810  37.055  12.358
68642W        W32586  42.021  20.628  11.892
68643W        W32587   3.920  41.996   2.692
68644W        W32588  42.301  28.069   4.823
68645W        W32589  16.589  20.225   0.902
68646W        W32590  34.566  11.721   4.221
68647W        W32591  32.601  32.029  10.486
68648W        W32592   7.217  40.481   4.231
68649W        W32593  42.330  44.296   2.271
68650W        W32594  32.604  30.496  10.409
68651W        W32595  32.499   0.758  12.850
68652W        W32596  36.391  11.150  10.514
68653W        W32597  34.098  12.237   2.322
68654W        W32598  32.546  11.315   4.645
68655W        W32599  33.399  18.574   0.451
68656W        W32600  43.393  19.149  12.375
68657W        W32601  33.896   6.188   4.173
68658W        W32602  34.566  20.595  10.429
68659W        W32603  33.524  24.606  10.534
68660W        W32604  36.060  20.598   3.823
68661W        W32605  17.796  37.560  14.333
68662W        W32606  34.429  39.318   4.827
68663W        W32607  12.309  25.009   2.282
68664W        W32608  19.731  25.682  11.521
68665W        W32609  44.477   0.426   3.692
68666W        W32610  38.389  15.112   4.228
68667W        W32611  30.480  10.342   4.316
68668W        W32612   4.842  25.977   0.456
68669W        W32613  20.075   6.699  11.981
68670W        W32614  16.112   6.314   4.184
68671W        W32615  36.914  20.606   4.771
68672W        W32616  26.107   1.823   2.682
68673W        W32617   6.797  17.606  12.398
68674W        W32618  22.689  40.932   1.714
68675W        W32619  17.580  15.320  12.500
68676W        W32620  35.880  12.155   3.198
68677W        W32621  32.905  18.083   4.243
68678W        W32622  38.473   5.251  12.995
68679W        W32623  19.650  20.622   4.816
68680W        W32624  28.182   8.404   4.193
68681W        W32625  32.073  21.736  14.990
68682W        W32626  44.427  15.785  12.897
68683W        W32627  23.081   9.236  11.485
68684W        W32628   8.814  27.185   2.798
68685W        W32629  40.479  41.375  10.916
68686W        W32630  29.507  15.194   0.293
68687W        W32631  40.445   4.291  12.936
68688W        W32632  44.946  24.037  12.430
68689W        W32633   4.368  37.858  10.498
68690W        W32634  39.429  41.430  11.913
68691W        W32635  43.019  29.102   2.326
68692W        W32636  24.685  11.128   2.771
68693W        W32637  40.330  34.411   2.744
68694W        W32638  21.206   8.882  12.022
68695W        W32639  37.990  21.210  14.405
68696W        W32640  22.093  11.335   4.676
68697W        W32641  40.052  28.465   1.858
68698W        W32642   6.700   7.909  14.325
68699W        W32643  12.185  35.517   2.807
68700W        W32644  39.873  13.115   0.388
68701W        W32645  37.943   7.866  13.829
68702W        W32646  24.489  27.445   0.463
68703W        W32647  13.685  35.403  12.065
68704W        W32648  44.790  14.681   3.300
68705W        W32649  28.154   0.262   1.813
68706W        W32650  29.570   7.320   4.603
68707W        W32651   7.840  42.863   0.400
68708W        W32652   3.782  30.590   1.804
68709W        W32653  43.000  27.185   4.601
68710W        W32654  27.457  27.607   3.214
68711W        W32655  19.700  35.064  12.341
68712W        W32656  43.481  11.297   1.370
68713W        W32657  39.058  11.774   0.941
68714W        W32658  14.776  11.865   4.165
68715W        W32659  13.719  25.481  11.608
68716W        W32660  40.921  27.449   2.896
68717W        W32661  19.715  16.692   0.894
68718W        W32662  40.030   7.246   2.809
68719W        W32663  21.524   9.378   4.330
68720W        W32664  43.308  12.725   4.145
68721W        W32665  13.709   9.176  13.332
68722W        W32666   1.313  13.834  10.510
68723W        W32667   3.298   0.294  13.518
68724W        W32668  26.668  19.042   1.217
68725W        W32669   3.298  22.741  14.507
68726W        W32670  31.059  28.537   0.304
68727W        W32671  11.817   7.709   3.773
68728W        W32672  33.549   0.932   2.846
68729W        W32673  41.411   0.309  12.859
68730W        W32674  36.019  25.513  11.463
68731W        W32675   2.272  42.353  14.276
68732W        W32676  26.563  41.492   9.967
68733W        W32677  40.400  12.361  14.365
68734W        W32678  41.877  17.238  10.889
68735W        W32679   8.284   9.263   0.298
68736W        W32680  40.032  24.003  14.425
68737W        W32681   2.316  43.978   4.209
68738W        W32682  32.008  28.499  14.794
68739W        W32683  10.222  19.250  12.893
68740W        W32684   7.699  38.367   4.242
68741W        W32685   3.917   8.187   4.184
68742W        W32686  42.359  32.415   3.755
68743W        W32687  19.622  31.539  13.916
68744W        W32688   9.336  37.046  11.378
68745W        W32689  38.462  25.606  10.628
68746W        W32690  35.957   8.787   3.209
68747W        W32691  39.904   2.932  10.455
68748W        W32692  33.551  41.390  12.090
68749W        W32693  38.562   3.246  12.492
68750W        W32694  24.128  36.072   3.238
68751W        W32695  28.992  15.817  11.866
68752W        W32696  43.382  19.590  10.930
68753W        W32697  17.667  32.425  12.941
68754W        W32698  34.455  33.012  12.033
68755W        W32699  30.910   2.416   1.798
68756W        W32700  22.653  28.500  13.015
68757W        W32701   5.395  22.009   2.698
68758W        W32702  44.440  25.688   0.923
68759W        W32703  18.296  36.093   1.703
68760W        W32704  24.041  19.227   1.873
68761W        W32705  30.117  33.011   3.715
68762W        W32706  39.319  27.574   1.899
68763W        W32707   0.894  18.160   4.734
68764W        W32708  44.930  28.615  13.548
68765W        W32709  39.907  44.392   3.327
68766W        W32710  12.836   4.288   3.751
68767W        W32711  39.472  29.646  12.502
68768W        W32712  17.125  35.994   3.147
68769W        W32713  38.450  27.089  10.967
68770W        W32714   8.394   6.266  14.295
68771W        W32715   8.774  11.652   1.756
68772W        W32716  38.929   2.321   3.355
68773W        W32717  25.520  33.971  11.007
68774W        W32718  42.511  39.958  11.559
68775W        W32719  17.296  40.475   1.900
68776W        W32720   9.293  25.128   3.748
68777W        W32721  24.180  24.569  13.877
68778W        W32722   2.392  35.088  12.978
68779W        W32723   6.780  37.871   3.153
68780W        W32724  23.096  36.010  14.836
68781W        W32725  27.977  15.584   9.606
68782W        W32726  15.248  18.555   0.476
68783W        W32727  13.110  22.133  13.916
68784W        W32728   4.374   5.402  13.030
68785W        W32729  38.071  33.030   0.804
68786W        W32730  20.190  30.607  10.074
68787W        W32731  29.035  25.565   4.817
68788W        W32732  29.667  44.312  10.154
68789W        W32733  30.630   0.813   4.256
68790W        W32734  39.852  27.637   1.298
68791W        W32735   9.865   7.204   4.211
68792W        W32736   7.410  35.904   2.186
68793W        W32737   4.368   2.877   0.964
68794W        W32738  16.632  27.166   2.246
68795W        W32739  36.845  18.248   0.326
68796W        W32740  44.959  33.086   0.441
68797W        W32741  39.935  40.829  14.004
68798W        W32742  26.635  24.643  14.850
68799W        W32743  15.816  20.551  13.521
68800W        W32744   1.937  44.337   3.778
68801W        W32745  24.650  14.705   3.196
68802W        W32746  35.494  38.866  10.944
68803W        W32747   2.471  15.145  11.408
68804W        W32748  11.627  18.767   9.937
68805W        W32749  15.213  17.269   4.158
68806W        W32750  12.705   7.766   4.142
68807W        W32751  21.567  12.836  11.008
68808W        W32752  16.318  22.522   5.110
68809W        W32753   1.407   6.263   3.203
68810W        W32754  17.061  42.893  10.533
68811W        W32755  38.953  15.593  11.603
68812W        W32756  36.487  10.226  10.941
68813W        W32757  44.288  14.184  12.873
68814W        W32758  26.031  31.418  12.826
68815W        W32759  24.552  19.776  10.514
68816W        W32760  14.615   4.280  12.510
68817W        W32761  41.436   5.903   3.722
68818W        W32762  22.597  37.852   3.194
68819W        W32763  22.178  10.702  11.918
68820W        W32764  34.471  19.235   3.791
68821W        W32765  24.184   4.291  12.883
68822W        W32766  11.357   3.438   0.909
68823W        W32767  42.022  43.844  13.368
68824W        W32768   3.403   3.228   0.828
68825W        W32769   3.897  35.947   1.253
68826W        W32770  33.011  36.963  13.912
68827W        W32771  35.881  19.634  11.877
68828W        W32772  44.305  35.890   3.755
68829W        W32773   5.316  35.997   0.758
68830W        W32774  17.198   0.318  13.448
68831W        W32775   4.297   1.975   3.245
68832W        W32776  37.426  40.050  13.540
68833W        W32777  14.105  10.188  14.922
68834W        W32778  18.246  24.688   0.476
68835W        W32779  23.166  17.190  11.893
68836W        W32780  30.139  44.782  11.049
68837W        W32781  22.704  23.231   2.324
68838W        W32782  25.682  40.974   2.722
68839W        W32783  22.128  15.248   4.630
68840W        W32784  13.771   3.354  12.015
68841W        W32785  43.815   8.214   1.917
68842W        W32786  23.542   9.243   3.330
68843W        W32787  30.079  33.494   3.669
68844W        W32788  29.099  14.760  13.360
68845W        W32789  27.111   5.201   3.278
68846W        W32790  41.460  10.225  12.964
68847W        W32791   1.444   2.301  12.040
68848W        W32792  23.605  44.296  11.948
68849W        W32793  10.291  14.820   4.169
68850W        W32794  27.028  28.617  13.923
68851W        W32795  43.996  36.841  12.020
68852W        W32796  13.107  18.681  14.840
68853W        W32797  16.576  33.441   0.736
68854W        W32798  35.098  37.980  12.052
68855W        W32799   3.317  34.100  14.300
68856W        W32800  34.893  43.459   4.661
68857W        W32801  30.043   0.823   4.692
68858W        W32802   8.291  10.673  12.525
68859W        W32803   8.863  32.415  13.539
68860W        W32804  41.909   9.258   3.851
68861W        W32805   9.385   5.690   3.184
68862W        W32806  44.421  32.478  10.955
68863W        W32807  26.964  10.175  12.382
68864W        W32808  10.193  39.555  10.466
68865W        W32809  22.251   8.361   2.683
68866W        W32810  29.942   8.252  13.893
68867W        W32811  41.432  19.194   4.761
68868W        W32812  11.142   0.824   4.173
68869W        W32813   8.304  11.732   4.686
68870W        W32814  38.971   2.436  13.899
68871W        W32815  43.765  35.084  10.627
68872W        W32816  33.491  11.704  10.560
68873W        W32817  19.078  28.544   4.697
68874W        W32818  18.060   8.836   2.786
68875W        W32819  36.912   4.931  10.891
68876W        W32820  13.214  36.353   1.416
68877W        W32821  22.044  18.680   3.819
68878W        W32822  43.786  36.459  14.457
68879W        W32823   0.411   8.832  12.578
68880W        W32824  14.662  33.582   1.726
68881W        W32825  20.582  25.977  12.056
68882W        W32826  40.033   9.664   0.442
68883W        W32827   4.823  28.166   2.189
68884W        W32828  32.489   9.694  13.526
68885W        W32829  38.433  18.261  11.101
68886W        W32830  21.076  35.068   4.285
68887W        W32831  37.877  22.620   4.246
68888W        W32832  40.491   3.790  12.561
68889W        W32833  26.007  18.099   3.285
68890W        W32834   6.817  10.297  14.009
68891W        W32835  20.574  41.388   2.192
68892W        W32836  19.050  18.168  14.330
68893W        W32837   2.823   7.670   1.365
68894W        W32838  12.362  26.003  11.400
68895W        W32839  38.514  40.380  11.409
68896W        W32840  34.534  31.421  10.577
68897W        W32841  31.923   5.864   3.683
68898W        W32842  41.410  35.426  13.421
68899W        W32843   9.268  28.142  14.280
68900W        W32844  24.015  11.797   1.298
68901W        W32845  35.409   1.358   3.204
68902W        W32846  19.243  36.000   1.254
68903W        W32847  15.593  36.847  12.558
68904W        W32848   6.822  38.399   3.771
68905W        W32849   3.761  40.889  12.006
68906W        W32850   2.827  17.229  10.425
68907W        W32851  25.639  16.626   0.312
68908W        W32852  26.620  43.946   2.697
68909W        W32853  40.431  30.911  13.450
68910W        W32854  35.853   2.888   2.713
68911W        W32855   6.856  38.903  12.825
68912W        W32856  14.790  39.352   0.436
68913W        W32857  10.763  17.143  14.345
68914W        W32858  38.887  43.463   2.353
68915W        W32859  13.775  33.090   2.226
68916W        W32860   7.804  36.551  11.975
68917W        W32861  42.335   4.433  12.871
68918W        W32862   1.840   6.291  14.909
68919W        W32863  34.506  16.809  14.959
68920W        W32864  12.309  18.168  14.825
68921W        W32865   4.827  19.713   9.979
68922W        W32866  36.516   3.445  10.422
68923W        W32867  37.554   5.757   2.326
68924W        W32868  10.703  40.523  12.017
68925W        W32869  38.895  32.009   2.195
68926W        W32870  37.058  25.117   1.694
68927W        W32871   8.796  26.992   2.394
68928W        W32872  19.604  23.620  14.400
68929W        W32873  24.678  26.517   2.869
68930W        W32874  26.685  41.366  10.442
68931W        W32875   6.865  10.261  10.484
68932W        W32876   1.951   8.214   1.754
68933W        W32877   2.313  30.595  10.894
68934W        W32878   4.426   8.858  13.936
68935W        W32879  41.341  26.533   2.752
68936W        W32880  36.923  31.927   1.802
68937W        W32881  22.080   8.894  14.485
68938W        W32882  34.381  38.020  11.460
68939W        W32883   2.294  43.997   2.691
68940W        W32884  11.743   4.221  11.942
68941W        W32885  35.941  12.130  13.359
68942W        W32886   2.825  30.994   3.219
68943W        W32887  30.128   4.789  12.349
68944W        W32888  27.643  22.628  14.865
68945W        W32889  16.218  30.552   1.313
68946W        W32890  29.987  15.694   4.825
68947W        W32891  11.625   2.329   3.231
68948W        W32892  24.065   0.481   1.770
68949W        W32893  29.995   8.891   3.151
68950W        W32894  16.601  30.067   0.818
68951W        W32895  29.170   3.225  10.496
68952W        W32896  20.685  33.449  13.870
68953W        W32897  24.992   2.783   1.846
68954W        W32898  24.491  26.509   4.769
68955W        W32899  29.491   0.743  14.773
68956W        W32900  28.502   3.365  14.800
68957W        W32901  29.960  34.880  10.576
68958W        W32902  21.201   6.368  10.632
68959W        W32903  13.715  34.539  13.529
68960W        W32904  30.125  44.433   3.246
68961W        W32905  16.231  20.176   3.780
68962W        W32906  44.822  17.596   1.916
68963W        W32907  23.100  35.927  10.601
68964W        W32908   9.217  42.393  14.795
68965W        W32909  30.043   5.870   0.279
68966W        W32910   6.260  41.398   1.270
68967W        W32911  18.058  40.992   1.416
68968W        W32912  20.702  36.571  13.450
68969W        W32913   0.972  36.872   0.355
68970W        W32914  35.447  11.674  14.995
68971W        W32915  24.998   1.437  10.925
68972W        W32916   6.746   8.358  14.863
68973W        W32917   5.886  31.918  11.115
68974W        W32918  32.025  16.706   3.713
68975W        W32919  38.439  38.567   0.740
68976W        W32920  10.738  17.695   2.193
68977W        W32921  10.315  14.835  10.621
68978W        W32922  36.350  11.687   4.601
68979W        W32923   3.312  32.119  11.013
68980W        W32924  43.017  19.595   2.707
68981W        W32925  15.230  27.158   0.892
68982W        W32926   9.160   3.752  14.763
68983W        W32927  41.953  22.153  14.859
68984W        W32928   1.867  32.391   2.896
68985W        W32929  13.646   0.431   4.256
68986W        W32930  41.432  30.020   0.383
68987W        W32931  29.082  32.394  12.427
68988W        W32932  17.218   3.768   2.891
68989W        W32933  13.172   3.853  11.062
68990W        W32934  37.994  11.348  11.007
68991W        W32935  29.503  27.627   0.385
68992W        W32936  29.162  30.061   4.646
68993W        W32937  32.401  21.618  14.888
68994W        W32938  41.467  21.576  12.959
68995W        W32939  37.358   3.809   3.350
68996W        W32940   5.895  24.702   2.338
68997W        W32941  23.579  32.635   1.217
68998W        W32942  36.044  26.000   0.264
68999W        W32943  40.426  40.016  12.829
69000W        W32944  25.568  39.341  11.073
69001W        W32945  16.610   2.412   1.327
69002W        W32946  19.696  29.113   4.336
69003W        W32947  39.522  15.111   2.682
69004W        W32948  27.467  32.530  13.951
69005W        W32949  41.301  18.274  14.497
69006W        W32950  35.571   2.810   0.359
69007W        W32951  30.659  27.029  14.390
69008W        W32952   3.928  36.482  11.520
69009W        W32953  31.568  24.172  12.851
69010W        W32954  34.009   0.962   4.354
69011W        W32955  14.225  13.816   1.756
69012W        W32956  40.428  27.478   2.689
69013W        W32957  33.389  33.488  14.325
69014W        W32958  13.700  19.763  10.910
69015W        W32959  11.698   2.834   0.828
69016W        W32960  27.081  15.260  10.445
69017W        W32961  35.877   5.200   4.597
69018W        W32962  37.550   9.325   0.731
69019W        W32963  37.876   5.781  13.886
69020W        W32964  24.697   3.263  13.038
69021W        W32965   3.303  23.135   0.444
69022W        W32966  16.312  16.576   1.831
69023W        W32967   7.854  30.451  11.504
69024W        W32968   2.367  15.762  11.475
69025W        W32969  43.980  35.882  10.478
69026W        W32970  18.260  12.757  10.531
69027W        W32971  35.535  10.227  14.445
69028W        W32972  34.962  39.928   2.373
69029W        W32973  12.721  16.294  13.457
69030W        W32974  22.659  19.085   4.128
69031W        W32975  22.085  12.158  13.968
69032W        W32976  26.460  41.992   1.781
69033W        W32977  18.288  36.899   1.282
69034W        W32978  23.031  10.319  13.449
69035W        W32979  43.308  36.402   0.363
69036W        W32980  35.893  21.628   1.220
69037W        W32981  13.290  12.669  11.049
69038W        W32982  43.933  38.989   4.598
69039W        W32983  44.954  22.531   1.291
69040W        W32984  35.033  14.103   0.904
69041W        W32985  21.240  11.357  14.906
69042W        W32986  22.514  29.560   4.149
69043W        W32987  42.410   3.412  14.848
69044W        W32988  44.926   6.758  14.302
69045W        W32989  33.916  21.625   4.238
69046W        W32990  16.195  18.129   5.082
69047W        W32991  38.037  10.247  11.049
69048W        W32992   3.260  36.844   2.393
69049W        W32993  37.880  22.049   2.683
69050W        W32994  37.444   6.871  11.091
69051W        W32995   8.812  36.377  14.471
69052W        W32996   4.338  40.799  12.527
69053W        W32997   4.857   8.658   3.318
69054W        W32998   9.388  42.344   2.244
69055W        W32999  10.847  37.988  14.290
69056W        W33000   9.189   6.903   4.598
69057W        W33001  25.075   3.829  13.918
69058W        W33002  16.581  39.051   3.647
69059W        W33003  34.965  19.062   1.902
69060W        W33004  12.642  16.786   2.402
69061W        W33005  24.567   4.449  13.039
69062W        W33006  30.934  22.036   2.284
69063W        W33007  18.260  31.150   2.888
69064W        W33008   1.940  18.209  14.469
69065W        W33009  41.463  28.004   4.153
69066W        W33010   4.845  31.066   0.431
69067W        W33011  29.144  11.766  13.430
69068W        W33012  10.671   1.812  11.456
69069W        W33013  28.103  34.064   0.741
69070W        W33014  32.420   3.790   4.776
69071W        W33015  29.540   9.718  14.298
69072W        W33016  21.145   7.824  11.990
69073W        W33017  15.135  39.548  14.498
69074W        W33018  13.604  34.439   1.782
69075W        W33019  12.206  18.559  14.886
69076W        W33020  22.076  11.341  12.404
69077W        W33021  32.596   9.775  12.956
69078W        W33022  15.241   4.228   3.846
69079W        W33023   8.674  28.547  13.470
69080W        W33024  41.906   3.729   0.921
69081W        W33025   3.261  15.320  10.437
69082W        W33026  42.400   8.395  14.296
69083W        W33027   7.366  32.424   1.237
69084W        W33028  43.346  12.629  14.952
69085W        W33029  17.092  26.198  13.878
69086W        W33030  36.967   2.347  11.862
69087W        W33031  33.878  39.470  14.464
69088W        W33032  19.042  35.012   1.418
69089W        W33033  41.326   8.177  10.548
69090W        W33034  23.632  21.728   0.738
69091W        W33035  37.473   9.769   1.360
69092W        W33036  31.077  27.100   3.192
69093W        W33037  28.041  40.830   3.239
69094W        W33038  12.719  25.631  11.083
69095W        W33039  36.385  23.684  13.521
69096W        W33040  36.381   7.686  10.425
69097W        W33041  32.523  33.889  11.889
69098W        W33042  30.574   5.358   2.413
69099W        W33043  40.004   0.989   0.790
69100W        W33044  20.649  10.211  11.418
69101W        W33045  44.440  24.170   4.639
69102W        W33046  44.831  30.634   5.196
69103W        W33047  18.611  34.884   1.362
69104W        W33048   7.339   3.848   1.832
69105W        W33049  22.021  30.044   4.259
69106W        W33050  43.477  41.416   1.774
69107W        W33051   6.286  23.146   2.230
69108W        W33052  10.842  18.093   4.619
69109W        W33053  41.962   4.894   3.849
69110W        W33054  43.913   4.872  11.122
69111W        W33055  19.183  22.540  12.955
69112W        W33056  10.157   3.817  11.946
69113W        W33057  41.042  36.001   4.679
69114W        W33058  10.801  20.138   1.698
69115W        W33059  26.496  34.402  13.361
69116W        W33060  19.053   0.386   2.263
69117W        W33061  29.595  10.750  12.383
69118W        W33062  20.269   7.712  13.045
69119W        W33063  33.915  37.892  12.363
69120W        W33064  44.335  37.976  13.513
69121W        W33065  12.160  23.231  14.030
69122W        W33066  14.766  40.388  10.126
69123W        W33067   7.248  16.107  11.054
69124W        W33068  18.091  38.346   2.715
69125W        W33069   0.305  35.602   3.644
69126W        W33070  10.743  28.020   1.895
69127W        W33071  43.891   3.771   0.446
69128W        W33072   1.364  35.103  11.386
69129W        W33073  21.678  43.815  13.548
69130W        W33074  28.662  38.842  12.954
69131W        W33075  28.461   3.852   3.154
69132W        W33076  29.035  11.819  14.013
69133W        W33077  34.607  11.182  14.504
69134W        W33078   6.316  11.823  12.509
69135W        W33079  42.805  31.105   2.330
69136W        W33080  11.344  42.442  13.527
69137W        W33081  20.261  28.584   0.417
69138W        W33082  34.412  29.584   1.852
69139W        W33083  31.496  39.894   0.328
69140W        W33084   2.245  24.000   1.811
69141W        W33085  13.156   3.322  11.098
69142W        W33086  17.766  36.477   2.735
69143W        W33087  27.600  10.666   2.405
69144W        W33088  37.971  22.556   3.681
69145W        W33089  35.918   9.834  11.580
69146W        W33090  29.669  27.105  12.084
69147W        W33091  43.908  28.460  13.424
69148W        W33092  24.113  32.507  12.440
69149W        W33093  26.629  34.544  10.590
69150W        W33094   1.937   3.890  13.393
69151W        W33095  35.964  18.761   2.223
69152W        W33096  37.539   9.322   0.352
69153W        W33097  24.571  13.615   3.862
69154W        W33098  12.782  23.104   1.899
69155W        W33099  39.866  13.302  13.481
69156W        W33100  19.102  30.001   4.747
69157W        W33101  14.760   8.197  11.046
69158W        W33102  40.054  22.516  10.979
69159W        W33103  29.664  41.921  11.596
69160W        W33104  36.468  24.490   1.783
69161W        W33105  13.276  34.876  10.629
69162W        W33106  41.916  15.653  12.368
69163W        W33107   1.977  27.523   0.917
69164W        W33108  32.543  22.620  11.879
69165W        W33109  11.139  25.561   1.882
69166W        W33110  16.135  12.186  12.508
69167W        W33111  18.096   4.809   4.172
69168W        W33112  44.483  33.900   4.329
69169W        W33113  13.202  33.544   4.153
69170W        W33114  37.345  29.942  13.917
69171W        W33115  17.230  36.580   3.723
69172W        W33116  44.461  23.676   2.736
69173W        W33117  31.994   4.847   2.391
69174W        W33118  44.503  17.191  14.810
69175W        W33119  28.602  10.682  13.943
69176W        W33120  33.062  31.405   1.277
69177W        W33121  41.883  26.612   0.477
69178W        W33122   3.253  13.256   0.791
69179W        W33123  44.447  24.633   4.324
69180W        W33124  32.595   6.399   3.645
69181W        W33125  21.187   7.338  14.818
69182W        W33126  34.878  33.475   2.839
69183W        W33127  20.575  27.096  10.617
69184W        W33128   6.842  22.245   0.811
69185W        W33129  28.489  10.671   3.847
69186W        W33130  37.563   6.333   1.931
69187W        W33131  44.309  36.429  13.498
69188W        W33132  22.048  43.906   1.407
69189W        W33133  30.122  43.010  14.763
69190W        W33134  15.280   2.446  14.782
69191W        W33135  43.433  38.433  12.933
69192W        W33136  14.685   9.177   4.684
69193W        W33137  10.225  33.564  10.921
69194W        W33138  33.914   7.774   3.284
69195W        W33139  22.679   7.763   4.779
69196W        W33140  38.520  17.274  11.915
69197W        W33141  25.469  25.197   2.736
69198W        W33142  32.941  16.160  11.448
69199W        W33143   0.368  33.464   3.670
69200W        W33144  27.956  39.379   9.452
69201W        W33145  24.725   2.855   2.765
69202W        W33146  35.024  41.434  12.460
69203W        W33147  29.069   7.672  13.401
69204W        W33148   1.399   8.769  12.458
69205W        W33149   8.848   5.876   3.841
69206W        W33150  33.416  27.672  12.548
69207W        W33151  32.918  28.163   2.844
69208W        W33152  10.776   1.791   1.849
69209W        W33153  37.994  26.586  13.443
69210W        W33154  28.034  29.519  13.818
69211W        W33155  12.633  17.722   0.763
69212W        W33156   7.229  12.181  10.554
69213W        W33157  11.155  13.341  10.915
69214W        W33158  38.063   6.892   0.826
69215W        W33159  13.318  28.119   5.163
69216W        W33160  11.289   3.255  13.473
69217W        W33161  37.985  12.677  10.963
69218W        W33162  11.144  33.444  12.049
69219W        W33163  34.512  22.163  13.819
69220W        W33164   0.248   5.893   5.130
69221W        W33165   4.717  41.415  14.880
69222W        W33166  32.421   4.261   2.257
69223W        W33167  40.929  24.976  11.937
69224W        W33168  12.257  33.939  13.446
69225W        W33169  20.033  42.940   0.385
69226W        W33170  16.654   7.840   1.374
69227W        W33171   4.346  10.377   4.741
69228W        W33172   5.399  23.165  10.584
69229W        W33173  19.728  40.402   1.449
69230W        W33174   6.412  12.711   3.189
69231W        W33175  38.039  41.421  11.936
69232W        W33176  12.842  15.764   0.330
69233W        W33177  38.484  26.142   4.163
69234W        W33178  37.468   3.379  10.144
69235W        W33179  29.637  10.737   2.257
69236W        W33180   2.244  20.738  13.863
69237W        W33181  14.149   1.972  10.970
69238W        W33182  14.119  17.190  11.590
69239W        W33183  18.601  25.087  12.830
69240W        W33184  36.964  11.668  14.878
69241W        W33185   6.719  42.450   1.899
69242W        W33186  24.142  25.112  12.564
69243W        W33187  26.534   3.453  13.485
69244W        W33188   3.773   7.278  12.009
69245W        W33189  29.453  30.109   1.912
69246W        W33190   9.149  10.315  12.435
69247W        W33191  28.013  41.422   1.868
69248W        W33192  11.627   6.357  11.539
69249W        W33193  35.401  17.219   4.143
69250W        W33194  35.001  19.601   1.349
69251W        W33195  32.448  32.111  14.480
69252W        W33196  12.316  17.203  10.082
69253W        W33197   1.966  11.731  14.975
69254W        W33198  34.008  29.953   4.807
69255W        W33199  41.838  24.604   4.217
69256W        W33200  12.691  42.985  13.516
69257W        W33201  12.287  29.039  11.553
69258W        W33202  39.941  39.953  13.044
69259W        W33203  32.902  25.531  12.854
69260W        W33204  30.915   9.862   2.192
69261W        W33205  21.544  44.267  12.033
69262W        W33206  19.766  40.357  10.942
69263W        W33207  28.667  22.660   4.759
69264W        W33208  44.287  26.163   1.794
69265W        W33209   5.805  44.983  10.415
69266W        W33210  25.681   5.797  14.325
69267W        W33211   8.774   9.183   0.316
69268W        W33212  33.574  36.547   1.389
69269W        W33213  43.016  23.097  13.803
69270W        W33214  17.618  17.704  11.026
69271W        W33215  42.511   3.786  11.016
69272W        W33216  22.239   4.780   3.219
69273W        W33217  43.295  27.947  11.460
69274W        W33218  14.628  41.459   1.788
69275W        W33219  20.273  25.083   1.360
69276W        W33220  20.272  29.096   2.181
69277W        W33221   4.900   2.333  10.072
69278W        W33222  28.595  44.454   4.140
69279W        W33223  11.858   3.290  14.886
69280W        W33224  24.041  21.752   0.465
69281W        W33225  13.146  20.039   0.475
69282W        W33226  30.103  41.831   3.276
69283W        W33227  16.157  42.287  13.956
69284W        W33228  32.486  37.349   4.130
69285W        W33229  32.546  21.233  11.963
69286W        W33230  18.199  19.663   2.292
69287W        W33231   0.494  37.367  11.958
69288W        W33232  39.554  29.079   3.251
69289W        W33233  39.954  40.446  12.868
69290W        W33234   8.359   6.691  10.458
69291W        W33235  28.544  44.934   2.827
69292W        W33236  22.217  27.049  13.340
69293W        W33237   5.747   8.835  10.579
69294W        W33238  17.158   7.215  11.050
69295W        W33239   0.456  14.745   0.375
69296W        W33240  13.742  23.199  14.883
69297W        W33241  35.515   5.200   2.902
69298W        W33242  21.512  22.681   2.865
69299W        W33243  31.067  26.981   1.388
69300W        W33244  22.712  28.185  11.865
69301W        W33245  34.401  12.159  11.497
69302W        W33246  22.706  27.624   2.903
69303W        W33247  41.319  23.516   0.733
69304W        W33248  19.696  22.214   1.268
69305W        W33249  11.301  33.404  13.452
69306W        W33250  34.371  44.275   3.642
69307W        W33251   1.450  37.466   4.350
69308W        W33252   7.881  39.326  14.832
69309W        W33253  22.069  15.620   3.846
69310W        W33254   9.180  43.999   4.245
69311W        W33255  18.656  33.510   2.394
69312W        W33256  31.981  43.930  12.528
69313W        W33257  34.615  31.527  13.803
69314W        W33258  39.356   4.703  13.915
69315W        W33259  32.564  40.534  10.448
69316W        W33260  12.796  20.696  11.040
69317W        W33261  30.593  34.990   3.302
69318W        W33262  35.037  18.110   2.775
69319W        W33263  20.222  25.076  11.479
69320W        W33264  27.502  16.184  11.520
69321W        W33265  19.196  41.903  11.875
69322W        W33266  24.521  26.624  11.048
69323W        W33267  35.884  25.172  12.848
69324W        W33268  24.163  19.223  12.978
69325W        W33269  37.907  37.026  13.898
69326W        W33270  11.731  44.004  14.927
69327W        W33271  38.418  28.131   1.312
69328W        W33272  15.139  18.629   3.702
69329W        W33273  41.515  41.494   2.223
69330W        W33274  22.639  16.098   3.197
69331W        W33275  41.471   6.307   1.255
69332W        W33276  43.348  30.079  12.852
69333W        W33277  30.589   7.386  11.117
69334W        W33278  34.417  14.628   4.133
69335W        W33279  19.082  36.936  12.858
69336W        W33280  10.298  21.150   4.287
69337W        W33281  37.029   4.761   2.292
69338W        W33282  12.795  30.550   4.781
69339W        W33283  12.847  31.008  12.970
69340W        W33284  20.561  43.946   0.372
69341W        W33285   2.430  37.372   0.939
69342W        W33286  25.013  44.960  14.907
69343W        W33287   5.801  41.392  14.289
69344W        W33288  26.613  44.006  11.434
69345W        W33289   4.293   5.811  10.060
69346W        W33290   2.383  11.715  14.328
69347W        W33291  15.721  28.612  12.485
69348W        W33292  34.989  19.686  10.919
69349W        W33293   1.874  18.181   4.667
69350W        W33294  39.367  21.094  14.849
69351W        W33295   1.283  39.524   1.752
69352W        W33296  16.580   8.740  11.574
69353W        W33297  34.567  36.560  12.057
69354W        W33298   6.731  11.235   2.188
69355W        W33299  16.806  26.035   1.424
69356W        W33300  35.358  26.617  13.511
69357W        W33301  33.594   4.376   0.447
69358W        W33302  34.372  37.888   3.673
69359W        W33303  41.792  33.556   3.226
69360W        W33304  18.279   6.416   1.858
69361W        W33305  38.441   5.869   2.726
69362W        W33306  41.871  39.483   0.756
69363W        W33307   8.832  25.073   4.183
69364W        W33308  40.529  35.074   4.803
69365W        W33309  34.101  11.283   4.728
69366W        W33310   2.863   3.774  12.927
69367W        W33311  30.981  44.862   1.306
69368W        W33312   3.815   7.351   2.724
69369W        W33313  16.717  40.965   1.336
69370W        W33314  37.834  31.069  11.564
69371W        W33315  22.701   5.362   2.903
69372W        W33316  31.035  11.836   2.844
69373W        W33317  44.809  40.409  11.459
69374W        W33318   2.959  17.078   1.430
69375W        W33319  28.148  33.468   0.348
69376W        W33320  29.013  29.486   2.390
69377W        W33321  36.486  39.871   0.281
69378W        W33322  16.566   2.310   1.715
69379W        W33323  25.167  14.614   3.668
69380W        W33324  13.346  10.152   2.183
69381W        W33325  20.755   1.956  13.980
69382W        W33326  37.479  32.620  13.495
69383W        W33327  44.990  29.964  14.300
69384W        W33328  15.641   1.863   4.138
69385W        W33329   5.725  18.761   2.662
69386W        W33330   6.764  33.602  13.857
69387W        W33331  26.952  44.895  10.939
69388W        W33332  43.948   7.235   0.816
69389W        W33333  31.909  23.726   3.269
69390W        W33334  13.719  33.616  11.482
69391W        W33335  30.483  29.497   4.222
69392W        W33336  30.434   6.905  14.451
69393W        W33337  35.002   6.832  13.032
69394W        W33338  10.137  23.019   3.731
69395W        W33339  17.559  43.486  11.095
69396W        W33340  24.651  19.061  11.124
69397W        W33341  22.227  18.563  11.959
69398W        W33342  10.138  43.362   1.739
69399W        W33343  33.382  12.720   3.374
69400W        W33344  30.971  14.835   1.427
69401W        W33345  43.975  20.042   2.902
69402W        W33346  33.079  30.629  11.019
69403W        W33347  17.161  16.694  11.377
69404W        W33348  40.930  29.532   1.426
69405W        W33349  32.555  39.993  14.474
69406W        W33350  32.016  31.514  13.317
69407W        W33351  10.843  43.894  13.386
69408W        W33352  39.966   9.301  13.027
69409W        W33353  12.333   0.777  12.029
69410W        W33354  44.304   9.667  13.803
69411W        W33355  18.226  11.808   1.874
69412W        W33356   2.408  13.829  12.411
69413W        W33357  44.825   8.686  11.878
69414W        W33358   8.212  11.299   3.301
69415W        W33359  41.836  36.087   3.800
69416W        W33360  29.029  16.727   1.835
69417W        W33361   4.371  23.122   1.377
69418W        W33362   9.882  31.116   4.665
69419W        W33363  10.361  32.580  13.334
69420W        W33364   1.422  36.439  11.994
69421W        W33365  29.161  26.167   3.669
69422W        W33366   8.276  32.968   0.317
69423W        W33367   1.305  23.637  11.105
69424W        W33368  31.063  10.783  10.532
69425W        W33369  28.639  32.458  13.433
69426W        W33370   2.950  15.800  12.520
69427W        W33371   1.360  39.472  10.563
69428W        W33372   7.200  15.107   5.294
69429W        W33373  34.371  23.530   0.287
69430W        W33374  21.248   9.696  12.030
69431W        W33375  24.153   6.739   2.409
69432W        W33376  30.430  13.835  14.374
69433W        W33377  29.593  30.459  12.505
69434W        W33378   8.321  20.741  13.804
69435W        W33379  36.886  42.934   2.403
69436W        W33380   4.777   5.700   3.778
69437W        W33381  28.045  29.028  10.901
69438W        W33382  40.871  10.332  10.503
69439W        W33383  34.091  29.642  11.533
69440W        W33384   0.349  35.015   3.181
69441W        W33385  31.118  41.414   3.155
69442W        W33386  39.001   4.208   0.836
69443W        W33387  32.461  40.961  11.472
69444W        W33388  26.028  26.512   3.189
69445W        W33389   6.818  37.959   4.193
69446W        W33390  36.384   8.374  10.899
69447W        W33391  15.728  10.201   9.958
69448W        W33392  44.002  44.778   3.818
69449W        W33393   3.229  23.166   1.356
69450W        W33394  25.674  15.127   1.403
69451W        W33395  27.500  10.319  13.835
69452W        W33396  10.265   9.738  13.392
69453W        W33397  39.036  34.903  13.803
69454W        W33398  11.622  28.575  14.026
69455W        W33399  25.097  37.482  14.014
69456W        W33400  10.715  33.603  14.433
69457W        W33401   1.413  16.634   0.731
69458W        W33402  38.522   7.178  13.991
69459W        W33403  23.510  21.107   0.335
69460W        W33404  20.744  20.633  10.556
69461W        W33405  29.535  31.076  13.877
69462W        W33406   5.909  29.935  10.640
69463W        W33407  41.817  19.124  14.361
69464W        W33408  29.428   2.419  14.505
69465W        W33409   9.190   3.826   1.809
69466W        W33410  14.329   7.288   0.746
69467W        W33411  36.532  21.193  14.898
69468W        W33412  41.993  16.690  10.143
69469W        W33413  25.501  26.562  14.786
69470W        W33414  27.080  12.306   3.799
69471W        W33415  23.108  25.138   1.729
69472W        W33416  20.088  33.918   0.243
69473W        W33417   9.664  16.770  11.974
69474W        W33418  30.535  33.443   2.889
69475W        W33419  20.543  15.251   1.243
69476W        W33420  28.474  35.077   3.637
69477W        W33421  24.679  38.558  10.969
69478W        W33422  25.970  24.696   4.239
69479W        W33423  28.515  37.987  14.004
69480W        W33424   3.808  12.140  13.335
69481W        W33425  33.431  32.393   1.360
69482W        W33426  25.650  30.502  13.923
69483W        W33427  24.697  11.868  12.534
69484W        W33428   9.846  39.412   4.261
69485W        W33429  38.341  40.504  14.801
69486W        W33430  26.142  39.384   3.350
69487W        W33431   4.887  39.938   0.842
69488W        W33432   7.831  36.468   1.451
69489W        W33433  25.214  43.889   0.737
69490W        W33434  21.530  30.559  13.337
69491W        W33435   6.723  34.046  11.436
69492W        W33436  29.052  32.493   4.824
69493W        W33437   8.270  17.236  13.944
69494W        W33438  17.781  38.495   3.781
69495W        W33439  13.800  28.448  14.812
69496W        W33440   8.248  11.739   2.799
69497W        W33441  25.063  23.020  13.854
69498W        W33442  32.488  36.349  10.600
69499W        W33443  30.046   7.797  11.001
69500W        W33444  27.509   1.867   2.857
69501W        W33445  12.209   5.212  12.502
69502W        W33446   7.677  35.488   2.665
69503W        W33447  21.642  14.632  12.525
69504W        W33448  10.653  15.740   4.236
69505W        W33449   6.357  15.102  12.031
69506W        W33450  13.169  21.250   3.174
69507W        W33451  11.818  25.163  12.932
69508W        W33452   1.762   6.728  11.903
69509W        W33453   7.803   6.715  14.397
69510W        W33454  31.142  33.623   4.635
69511W        W33455   1.767  24.999  13.809
69512W        W33456  34.528  38.513  10.533
69513W        W33457  34.102  29.642  11.958
69514W        W33458  32.980  27.185  12.013
69515W        W33459  31.947  43.914   4.668
69516W        W33460   2.468  29.101   0.291
69517W        W33461  28.061  38.337   5.620
69518W        W33462   2.376  36.913   4.701
69519W        W33463  27.633  40.348  12.012
69520W        W33464  37.039  21.055   4.702
69521W        W33465  25.542  17.733   4.128
69522W        W33466  34.585   6.401  12.025
69523W        W33467  15.224  13.234   3.708
69524W        W33468  41.471  44.924  12.409
69525W        W33469  19.735  33.028   4.316
69526W        W33470  44.273  28.999   9.953
69527W        W33471  31.074  11.799  10.634
69528W        W33472   2.290   8.808   9.979
69529W        W33473  21.653  20.194   3.857
69530W        W33474  12.779  34.997   3.844
69531W        W33475   0.959  16.613   2.336
69532W        W33476   4.801  24.147   1.794
69533W        W33477  11.233  37.938   0.474
69534W        W33478  36.587  28.046   4.750
69535W        W33479  41.021  18.749  12.015
69536W        W33480   4.213  32.032   0.734
69537W        W33481  35.506  41.369  12.355
69538W        W33482  10.663  21.062  10.453
69539W        W33483  18.736   2.773  13.997
69540W        W33484   0.257   1.880   2.895
69541W        W33485  11.372  13.737  11.546
69542W        W33486  38.963  32.419  14.320
69543W        W33487  40.413  34.988   1.872
69544W        W33488  27.567   0.453   4.794
69545W        W33489   9.274  10.797   3.835
69546W        W33490  21.675  26.077   3.731
69547W        W33491  12.685  13.831   0.932
69548W        W33492  24.178   9.703  13.028
69549W        W33493  24.679  41.496   2.849
69550W        W33494  32.602  43.948   2.292
69551W        W33495  26.104  24.085  13.973
69552W        W33496  41.476  13.134  13.498
69553W        W33497  14.123  31.647  11.012
69554W        W33498  32.945   4.842   3.752
69555W        W33499  39.950  22.069   1.858
69556W        W33500  35.901  42.803  12.015
69557W        W33501  23.503  23.628   0.363
69558W        W33502  31.625  32.516  14.425
69559W        W33503  22.725  14.340  12.090
69560W        W33504   3.401  40.387   1.741
69561W        W33505  10.763  28.025  12.377
69562W        W33506   3.720   1.454  11.870
69563W        W33507  15.284  18.772   3.333
69564W        W33508  36.369  38.532  14.290
69565W        W33509  20.122  38.541  10.527
69566W        W33510   5.769  35.950  10.510
69567W        W33511  32.598  23.605  13.451
69568W        W33512   0.350  37.846  12.889
69569W        W33513  37.533   9.202   1.397
69570W        W33514  33.574  36.541   2.271
69571W        W33515  21.163  15.250  13.991
69572W        W33516  23.172  10.655   1.380
69573W        W33517  13.721  20.250  13.536
69574W        W33518   1.381   8.676   0.472
69575W        W33519  38.413  14.748   2.331
69576W        W33520   3.863  40.022   2.849
69577W        W33521  22.582   7.896  12.086
69578W        W33522  25.601  30.100   3.673
69579W        W33523   3.818  31.513   3.641
69580W        W33524  28.625  44.935  12.462
69581W        W33525  13.247  16.701   3.280
69582W        W33526  29.447  26.193  10.470
69583W        W33527  11.152   8.886   2.802
69584W        W33528  12.730  22.604   0.884
69585W        W33529   2.781  42.896   1.306
69586W        W33530  33.449   5.257  14.786
69587W        W33531  31.027  20.721   3.725
69588W        W33532  30.043  37.856   0.483
69589W        W33533  39.032  38.329  14.432
69590W        W33534  44.469  12.260   0.430
69591W        W33535  23.641  42.920  10.627
69592W        W33536  43.803  41.414  11.887
69593W        W33537  10.351   4.250  10.097
69594W        W33538  21.563  13.805  12.987
69595W        W33539  31.123  42.520   0.319
69596W        W33540  12.638   7.836  10.459
69597W        W33541  37.020   9.307  14.904
69598W        W33542   6.895  15.192   0.410
69599W        W33543  34.115   2.879   4.639
69600W        W33544   7.749  22.217  11.993
69601W        W33545   6.892  24.672  14.953
69602W        W33546   5.810  43.924  11.571
69603W        W33547  34.897   5.250  11.855
69604W        W33548  28.002   2.344   4.288
69605W        W33549  33.991   1.869   4.720
69606W        W33550  26.098  27.961  13.502
69607W        W33551   6.905  43.941  13.377
69608W        W33552  26.656  35.537  13.792
69609W        W33553  20.214  18.144  11.612
69610W        W33554  37.960  40.861  14.416
69611W        W33555  21.131  17.721   1.719
69612W        W33556  13.669  43.865   1.720
69613W        W33557  16.192  17.187   2.830
69614W        W33558  38.923   7.851   9.991
69615W        W33559   6.774  37.978  12.950
69616W        W33560  10.380  33.573   2.223
69617W        W33561  30.118  33.887  14.003
69618W        W33562  12.195  23.170   3.713
69619W        W33563   7.319  35.593   4.661
69620W        W33564  25.603  30.644   0.960
69621W        W33565  14.271  36.569  12.890
69622W        W33566  11.284   0.758   0.465
69623W        W33567  39.415   1.893  14.978
69624W        W33568  18.681  31.000   0.319
69625W        W33569  19.249  44.848  14.786
69626W        W33570   8.832  13.767   9.924
69627W        W33571  16.744  30.062  11.544
69628W        W33572  13.837  11.180   4.690
69629W        W33573  33.549  32.914  13.319
69630W        W33574  18.150  39.393   0.774
69631W        W33575  43.372  34.977  12.017
69632W        W33576  21.121  43.384   0.913
69633W        W33577   5.251  44.387   2.810
69634W        W33578  19.128  25.153   1.260
69635W        W33579  14.292   2.822  11.566
69636W        W33580  18.293  32.005   2.699
69637W        W33581  40.540  30.450  13.804
69638W        W33582  26.033  42.370   3.305
69639W        W33583   3.936  34.012   3.246
69640W        W33584  13.236  34.944   2.692
69641W        W33585  24.556  34.021   4.197
69642W        W33586  25.522  29.099   3.386
69643W        W33587  34.906   3.909  14.399
69644W        W33588   1.771  41.803   3.148
69645W        W33589   8.864   6.344   2.290
69646W        W33590  27.075  16.122   5.737
69647W        W33591  22.577  22.602   1.449
69648W        W33592   7.265   9.151  10.916
69649W        W33593  18.599  39.435   4.309
69650W        W33594  24.688  28.108  13.398
69651W        W33595  43.909   7.894   1.320
69652W        W33596  29.067  34.029  13.000
69653W        W33597   3.846  27.104   1.340
69654W        W33598  17.587  13.303  11.459
69655W        W33599  29.965   1.791   3.831
69656W        W33600  33.487  16.269  14.346
69657W        W33601  15.628  22.584   1.853
69658W        W33602   5.883  23.589  12.539
69659W        W33603  20.217  40.391   3.682
69660W        W33604   7.723  22.161  12.966
69661W        W33605  40.825  44.261  14.324
69662W        W33606  14.801  29.956  13.819
69663W        W33607   0.894   5.900  14.328
69664W        W33608   6.285  10.675  13.454
69665W        W33609  25.136  13.828  12.084
69666W        W33610  40.819  37.049   0.901
69667W        W33611  10.742   5.905   1.694
69668W        W33612   5.261  43.890   3.786
69669W        W33613  20.149  35.433  13.345
69670W        W33614  17.295  29.131   3.666
69671W        W33615  28.035   9.178  13.844
69672W        W33616   6.324  33.071   0.911
69673W        W33617  40.458   8.372  12.096
69674W        W33618  37.338  41.448  13.917
69675W        W33619   8.340   8.797  10.645
69676W        W33620  33.040  32.122   3.312
69677W        W33621  18.061  41.924   3.829
69678W        W33622   9.767  21.711   2.783
69679W        W33623  27.531  33.609   0.740
69680W        W33624  13.210  35.097   3.824
69681W        W33625  14.123   6.815   2.374
69682W        W33626  26.544  16.178   0.332
69683W        W33627  16.124  24.004   3.233
69684W        W33628  21.193  31.456  13.390
69685W        W33629  36.413  33.101   0.847
69686W        W33630  30.025  27.650   1.344
69687W        W33631   8.760   6.845   0.819
69688W        W33632  32.422  40.430   3.731
69689W        W33633  10.668  25.053  12.066
69690W        W33634   7.214  20.258   4.668
69691W        W33635   9.345  41.329  14.427
69692W        W33636  38.407  11.622  11.061
69693W        W33637  44.377  20.110  10.548
69694W        W33638  31.564  20.205  14.023
69695W        W33639  43.271  26.006  12.953
69696W        W33640  38.567  27.679  11.097
69697W        W33641  15.700  39.990   3.667
69698W        W33642  34.432  29.581   1.295
69699W        W33643  11.633  14.639  13.883
69700W        W33644   1.381  18.674  10.926
69701W        W33645   2.255  18.057  11.984
69702W        W33646   4.370  19.587  14.467
69703W        W33647   0.902   3.755   3.280
69704W        W33648  30.062  41.365  12.870
69705W        W33649  38.070  38.920  12.900
69706W        W33650  37.347  41.924  14.379
69707W        W33651  37.989   2.785  10.913
69708W        W33652  32.485   0.274  11.374
69709W        W33653  12.818  26.097  11.427
69710W        W33654  26.678  22.569  10.955
69711W        W33655  27.988  38.440  13.999
69712W        W33656  42.370  34.522  13.954
69713W        W33657  37.434  39.899  13.920
69714W        W33658  42.307  39.498  13.362
69715W        W33659  37.052  26.972  12.397
69716W        W33660  24.561   5.753  12.876
69717W        W33661  26.644  13.727  12.513
69718W        W33662   2.865  11.272  11.922
69719W        W33663  17.578  40.985   0.423
69720W        W33664  43.010  18.140  14.004
69721W        W33665   3.271   1.951   3.723
69722W        W33666  26.654  19.749   1.445
69723W        W33667  42.970  44.862   0.372
69724W        W33668  24.531  18.093   3.819
69725W        W33669   1.259  26.057   3.777
69726W        W33670  22.535  43.270  10.428
69727W        W33671  23.672  29.147   3.856
69728W        W33672  24.588  31.529   3.248
69729W        W33673  18.059  23.666   3.237
69730W        W33674  38.018   5.202   0.922
69731W        W33675  29.636  43.918   1.256
69732W        W33676   4.346   9.341   9.971
69733W        W33677  24.568   5.709   0.467
69734W        W33678  14.591   0.790   3.325
69735W        W33679  15.136  26.645  11.110
69736W        W33680   1.456  11.770   3.794
69737W        W33681   2.790  34.012  12.475
69738W        W33682  19.146  38.932  13.388
69739W        W33683  15.650  24.098   0.383
69740W        W33684  15.253   7.822   3.678
69741W        W33685  36.927   3.459   1.348
69742W        W33686  17.084  18.581   2.223
69743W        W33687  35.104   5.302   4.678
69744W        W33688  21.052  32.927   1.757
69745W        W33689  20.203  29.032   0.879
69746W        W33690  21.678  11.281   3.264
69747W        W33691  43.350   7.753  10.601
69748W        W33692  42.831   6.401   5.254
69749W        W33693  10.169  32.012  10.507
69750W        W33694  20.038  40.863  12.484
69751W        W33695  18.676  36.051   5.154
69752W        W33696  38.498  19.205  13.000
69753W        W33697  43.376  15.766  12.541
69754W        W33698  13.166  28.961   3.833
69755W        W33699  30.924  27.976   1.765
69756W        W33700  40.901  39.366   1.821
69757W        W33701   0.981  34.457  12.405
69758W        W33702  29.164  21.156  13.999
69759W        W33703  32.956   1.283   2.196
69760W        W33704  40.046  30.472   3.358
69761W        W33705  37.430  20.054   5.233
69762W        W33706   8.218   6.893  10.938
69763W        W33707   5.836  14.767   3.259
69764W        W33708  15.244   8.821  14.774
69765W        W33709   8.803  36.051   0.302
69766W        W33710   3.458  41.442  11.540
69767W        W33711  34.422  28.531  10.433
69768W        W33712  31.493   9.309  11.070
69769W        W33713  24.173  19.539  10.615
69770W        W33714   4.741  18.093  12.827
69771W        W33715   9.802  20.126   3.261
69772W        W33716   4.392   8.313   3.667
69773W        W33717  23.695   7.281  11.960
69774W        W33718  10.334  26.127   3.195
69775W        W33719   0.298  34.926   0.330
69776W        W33720   5.789  28.642  14.427
69777W        W33721  37.892  18.213   4.616
69778W        W33722   1.868   0.976  11.595
69779W        W33723  29.530  22.700   1.848
69780W        W33724   9.168  35.089   1.869
69781W        W33725  21.130  12.248  14.985
69782W        W33726  41.926  36.541   4.813
69783W        W33727  30.920  24.049  14.501
69784W        W33728  24.081  34.962   2.342
69785W        W33729  25.033  12.703  13.515
69786W        W33730   4.345  40.852  13.448
69787W        W33731  40.824  34.081  13.865
69788W        W33732  40.379  33.550   2.862
69789W        W33733  41.979  35.895   2.264
69790W        W33734  34.392  38.073  14.339
69791W        W33735  37.456  35.508  12.965
69792W        W33736  43.873  20.164  10.932
69793W        W33737   5.716  28.588  10.924
69794W        W33738   8.764  35.524  14.408
69795W        W33739  11.245  16.084   1.270
69796W        W33740  33.906  42.449  10.469
69797W        W33741  18.118  22.715   3.240
69798W        W33742  26.141  34.396  14.939
69799W        W33743  40.005  30.144   2.191
69800W        W33744  19.119  39.065  13.017
69801W        W33745  10.685  19.173   1.380
69802W        W33746  37.074   4.237   2.841
69803W        W33747  36.429  18.243  13.989
69804W        W33748  15.730  33.088   2.685
69805W        W33749  40.492  27.539   3.767
69806W        W33750  39.882   3.369   4.226
69807W        W33751  12.305  31.538   1.275
69808W        W33752  14.120  24.194  13.524
69809W        W33753  26.126   6.764  11.987
69810W        W33754   5.836  25.148   1.320
69811W        W33755  37.841  18.683   4.663
69812W        W33756  40.309  30.535  12.958
69813W        W33757   0.258  24.641  10.462
69814W        W33758  16.796  23.998   3.331
69815W        W33759  44.277   8.354   0.737
69816W        W33760  18.570   4.717  14.309
69817W        W33761  23.709   8.811   0.879
69818W        W33762   7.265  42.022  14.308
69819W        W33763  33.440  17.147   0.960
69820W        W33764  29.098  28.621  14.507
69821W        W33765  20.173   5.425   4.831
69822W        W33766  24.091  13.713   1.346
69823W        W33767  18.575  42.938   1.317
69824W        W33768  30.605  23.515  12.077
69825W        W33769  30.011  43.499  14.803
69826W        W33770  18.750  31.443  13.911
69827W        W33771  10.162  38.558   4.223
69828W        W33772  12.789   0.911   4.216
69829W        W33773  28.021  42.815  11.038
69830W        W33774  33.504   1.352   4.644
69831W        W33775  24.645  21.603   1.335
69832W        W33776  17.198  13.319  12.481
69833W        W33777  11.338  35.073  13.400
69834W        W33778  34.057  14.282   2.419
69835W        W33779  21.721  13.616   2.873
69836W        W33780  10.343  17.071   2.761
69837W        W33781   2.376  32.569  14.458
69838W        W33782   2.345  22.084   1.919
69839W        W33783  18.077  24.188  13.542
69840W        W33784  18.058   9.770  12.548
69841W        W33785  37.546  14.785   4.621
69842W        W33786  18.622  28.936   1.321
69843W        W33787   0.460  40.453   1.855
69844W        W33788  29.151  27.187   4.144
69845W        W33789  21.588  24.515  13.059
69846W        W33790  29.923  25.586   4.688
69847W        W33791  23.144  19.271   4.347
69848W        W33792  38.388  24.554  12.856
69849W        W33793  21.105  17.184  13.011
69850W        W33794  29.082  26.175   0.441
69851W        W33795  18.727  25.025  11.110
69852W        W33796  10.696  21.142   1.841
69853W        W33797  42.895  44.359   1.806
69854W        W33798   3.942   1.351  14.351
69855W        W33799  26.686   0.260   3.823
69856W        W33800   2.900  34.092  10.915
69857W        W33801  31.570  37.009   2.826
69858W        W33802  22.619  25.614   2.286
69859W        W33803  44.923   9.753  13.455
69860W        W33804  20.171   0.273  14.326
69861W        W33805  36.494  18.782  12.027
69862W        W33806  24.681  11.233   4.796
69863W        W33807  44.862  22.186  12.950
69864W        W33808  10.234  39.952  11.064
69865W        W33809  41.530  29.491   0.874
69866W        W33810  41.393  26.150  14.376
69867W        W33811  23.224  23.197   4.799
69868W        W33812  32.894  25.061   4.614
69869W        W33813   6.851   7.318   3.689
69870W        W33814   2.874   0.915  12.012
69871W        W33815  16.668  43.368  12.429
69872W        W33816   5.808  43.810  14.920
69873W        W33817  11.684   7.804   1.347
69874W        W33818   2.863  31.541  13.815
69875W        W33819  33.887  23.178  11.476
69876W        W33820  44.333  12.212   4.625
69877W        W33821  15.282   7.857   0.336
69878W        W33822  19.726   2.290  12.419
69879W        W33823   1.948  35.441   4.694
69880W        W33824   5.900  14.156   0.870
69881W        W33825  11.366  15.604   4.707
69882W        W33826  39.337  38.980   2.679
69883W        W33827   8.813  23.525  12.892
69884W        W33828  15.608  44.802   5.269
69885W        W33829  27.135  22.149  10.935
69886W        W33830  16.724  40.506  13.389
69887W        W33831  36.860  43.765   2.789
69888W        W33832   6.870   3.949  11.959
69889W        W33833  32.943  26.154  12.453
69890W        W33834   1.416  40.306  13.942
69891W        W33835  25.972  15.799  14.876
69892W        W33836  41.843  26.536  13.478
69893W        W33837   4.936  36.466  11.404
69894W        W33838  39.430  14.600   4.144
69895W        W33839   2.735  22.019  13.866
69896W        W33840   5.293   7.837  11.100
69897W        W33841  35.449  34.049   0.857
69898W        W33842   6.196  40.446   1.845
69899W        W33843  40.801  22.155  12.079
69900W        W33844   2.934  25.003  12.053
69901W        W33845  31.036  25.502  14.833
69902W        W33846  39.533  42.487  13.404
69903W        W33847  37.538  21.724  13.839
69904W        W33848  22.210  36.463  11.513
69905W        W33849  44.816  36.489   4.118
69906W        W33850   6.738  24.153  14.976
69907W        W33851  26.115  23.715  11.936
69908W        W33852  14.617  17.153  11.913
69909W        W33853  24.566  23.527  12.357
69910W        W33854  18.210  23.127   2.278
69911W        W33855  25.681  29.122  11.932
69912W        W33856  23.696  35.100  11.062
69913W        W33857   5.309  14.662  11.477
69914W        W33858   6.751  27.027   4.242
69915W        W33859  26.103  44.950   4.764
69916W        W33860  20.676  24.520   4.315
69917W        W33861  42.895  43.887  14.872
69918W        W33862  24.007  21.701   3.326
69919W        W33863   0.969  14.823  12.464
69920W        W33864  21.532  36.946  12.870
69921W        W33865  29.137  26.509   0.432
69922W        W33866  26.019  20.144   4.255
69923W        W33867  33.424   6.338   5.295
69924W        W33868   7.776  29.468   3.709
69925W        W33869  17.146  11.225   1.785
69926W        W33870  16.145  41.461   1.841
69927W        W33871  44.423  27.654  14.786
69928W        W33872  44.799  16.780  14.930
69929W        W33873  14.726   5.223   4.804
69930W        W33874  31.060  20.205  10.614
69931W        W33875  27.682  17.735   2.896
69932W        W33876  15.624  26.981  10.910
69933W        W33877  10.721  44.308   9.980
69934W        W33878   9.667   2.343   4.237
69935W        W33879  37.364  16.243  14.028
69936W        W33880  17.256   4.445  14.330
69937W        W33881  31.626  35.383   3.248
69938W        W33882   5.205  26.458   3.853
69939W        W33883  31.922  42.987  11.939
69940W        W33884  38.017  33.094  12.436
69941W        W33885   6.232  34.102  12.426
69942W        W33886  22.715  23.608   2.407
69943W        W33887  24.024   5.343  12.481
69944W        W33888  39.463   1.348   4.263
69945W        W33889  20.715  24.721  11.487
69946W        W33890  27.551   7.191  12.906
69947W        W33891   3.851  43.315   2.728
69948W        W33892   9.195  18.631   0.849
69949W        W33893  38.434  26.650  13.340
69950W        W33894  35.953  34.565  14.010
69951W        W33895  24.627  25.041  11.467
69952W        W33896  43.493  10.734   4.833
69953W        W33897  35.439  20.691   2.354
69954W        W33898   8.369  13.161  13.403
69955W        W33899  22.714  27.070  12.002
69956W        W33900  44.467  41.440  13.900
69957W        W33901  22.033   7.793   3.273
69958W        W33902  24.088  36.571   1.731
69959W        W33903   6.712  22.634   3.363
69960W        W33904  10.859  15.649  13.837
69961W        W33905  43.017  22.714   1.416
69962W        W33906   0.899  17.280  10.896
69963W        W33907  12.692  39.339  13.856
69964W        W33908   2.867  17.654  11.575
69965W        W33909   2.922  13.698   4.149
69966W        W33910  37.368  40.453   3.272
69967W        W33911  28.087  26.059   4.711
69968W        W33912  12.800  30.020   1.440
69969W        W33913  23.029  25.643  13.047
69970W        W33914  26.079   3.428   4.623
69971W        W33915  40.495  13.232  12.437
69972W        W33916   0.330   1.410   1.436
69973W        W33917  38.522  21.136  10.491
69974W        W33918  31.501  18.751   4.271
69975W        W33919  23.638  16.297   2.306
69976W        W33920  24.116  39.971   1.296
69977W        W33921  13.673   8.391  14.860
69978W        W33922  28.127  18.672   4.258
69979W        W33923   7.855  26.482  10.491
69980W        W33924  40.513  23.729  14.887
69981W        W33925  19.189   8.397  13.476
69982W        W33926  32.610   0.913   0.374
69983W        W33927  17.204  39.341   1.932
69984W        W33928  35.476   5.874   4.838
69985W        W33929  35.512   8.207  13.827
69986W        W33930  31.533  11.255  11.404
69987W        W33931  28.003  25.572  10.608
69988W        W33932   6.837   5.377  14.316
69989W        W33933   0.421  19.780   2.317
69990W        W33934  27.499   6.384   0.287
69991W        W33935  33.434  37.525  12.359
69992W        W33936  28.061   9.828  12.378
69993W        W33937  16.756  42.911  10.938
69994W        W33938   3.736  26.529  12.852
69995W        W33939   8.358   3.824  12.955
69996W        W33940  15.164  22.231   1.879
69997W        W33941   4.705  30.564  14.915
69998W        W33942  28.628  14.795  13.332
69999W        W33943  30.624  23.537   1.410
70000W        W33944  34.586  36.468  13.026
70001W        W33945  16.739  12.196   2.694
70002W        W33946  24.177  34.608   0.367
70003W        W33947  39.821  44.809   2.318
70004W        W33948   6.792  44.298  12.423
70005W        W33949  37.350  40.354   1.288
70006W        W33950  27.065  32.059  14.490
70007W        W33951  18.646  31.586  14.977
70008W        W33952  34.108  10.204   0.401
70009W        W33953  43.016   3.285   0.811
70010W        W33954  25.215  27.988  13.916
70011W        W33955  23.590  21.074   2.726
70012W        W33956  17.654  14.172   0.736
70013W        W33957  38.430   6.373   0.896
70014W        W33958  19.133  25.967   0.774
70015W        W33959  15.309  40.982   1.803
70016W        W33960   0.925  24.032   1.758
70017W        W33961  29.046  24.104  13.842
70018W        W33962   4.301  36.390  13.430
70019W        W33963  38.410  28.153   1.694
70020W        W33964  35.362  12.303   4.243
70021W        W33965  29.963  13.205   2.299
70022W        W33966  43.895  34.586   3.804
70023W        W33967  27.483  31.415   3.682
70024W        W33968  13.319  25.135  14.868
70025W        W33969  12.619  36.848   1.448
70026W        W33970  17.614  27.690   3.629
70027W        W33971  33.472   4.829  10.484
70028W        W33972  13.802  34.469   2.192
70029W        W33973  26.636  31.068  13.385
70030W        W33974  31.643  30.530  13.852
70031W        W33975   9.269  31.557  10.045
70032W        W33976  18.135  26.067   2.767
70033W        W33977  44.940  14.272  12.393
70034W        W33978  14.766  23.223   3.377
70035W        W33979  40.348  37.454   0.755
70036W        W33980   1.904  15.752   3.206
70037W        W33981  22.026  20.563  12.359
70038W        W33982  42.317  43.442   3.711
70039W        W33983  41.458  34.034  14.280
70040W        W33984  30.595  13.300  11.523
70041W        W33985  25.537  16.723   4.223
70042W        W33986   1.792  15.601   4.647
70043W        W33987  17.092  18.613   1.711
70044W        W33988   8.746  22.516   0.479
70045W        W33989  33.613  29.013   2.772
70046W        W33990  21.030  18.597   4.707
70047W        W33991  30.462  18.547   5.295
70048W        W33992  20.523  15.824  10.500
70049W        W33993   5.271   5.809  14.019
70050W        W33994  31.406   8.701   4.778
70051W        W33995   1.463  17.609   2.712
70052W        W33996   9.298  21.112   3.839
70053W        W33997  24.037  22.522  10.436
70054W        W33998  26.176  44.878  14.031
70055W        W33999  40.890   2.355   9.958
70056W        W34000   6.727  41.862  14.989
70057W        W34001  13.738  37.533   4.700
70058W        W34002  43.364   5.422   3.642
70059W        W34003  26.587  36.902  10.923
70060W        W34004  26.556  17.716  13.059
70061W        W34005  23.984  15.194  11.104
70062W        W34006  18.146  23.987  11.610
70063W        W34007  12.731   2.759   5.290
70064W        W34008  20.208  17.693  10.479
70065W        W34009   0.852  11.754   3.187
70066W        W34010  42.475  15.752  13.964
70067W        W34011  10.343  21.573   0.785
70068W        W34012  25.599   9.834  12.832
70069W        W34013  21.753  26.166  10.556
70070W        W34014  38.440  28.060   3.745
70071W        W34015  25.984  16.735   5.154
70072W        W34016  30.654  42.026   0.447
70073W        W34017  43.272  44.862  12.071
70074W        W34018  28.014  15.797   0.866
70075W        W34019  24.107  10.315  12.397
70076W        W34020   9.156  21.516   3.250
70077W        W34021  38.891  30.479  14.027
70078W        W34022  17.680  43.387  11.490
70079W        W34023  32.956  17.061  12.360
70080W        W34024  26.461  12.665   4.703
70081W        W34025  30.947   7.401  14.806
70082W        W34026   9.359   4.371  14.452
70083W        W34027  33.556  23.549   3.684
70084W        W34028  10.280  38.879  11.493
70085W        W34029   0.253  39.914  14.412
70086W        W34030  18.738  44.894  11.892
70087W        W34031  28.481  19.543  10.904
70088W        W34032  41.811   9.864   0.391
70089W        W34033  43.905  21.627  13.017
70090W        W34034  32.451  17.070  13.528
70091W        W34035   0.947  43.925   2.417
70092W        W34036  39.430  28.524   2.842
70093W        W34037  44.925  28.535   2.755
70094W        W34038   8.678   4.847  14.873
70095W        W34039   8.688  10.858   3.158
70096W        W34040  38.913  30.067   0.287
70097W        W34041  40.985  28.077   3.263
70098W        W34042   0.482  27.481  14.276
70099W        W34043  15.625  37.475   2.319
70100W        W34044  12.774  17.239   4.224
70101W        W34045  25.096  28.672  11.403
70102W        W34046  23.521  30.525  10.617
70103W        W34047   3.322  22.647  13.903
70104W        W34048  16.709   2.229  11.583
70105W        W34049   3.778  12.856  12.042
70106W        W34050  12.712  34.492   0.828
70107W        W34051  13.674  15.233  12.428
70108W        W34052  26.500  24.108   2.410
70109W        W34053  26.624  10.788   0.770
70110W        W34054  43.925  42.932   2.368
70111W        W34055  31.465  40.970  11.390
70112W        W34056  14.702  18.207  13.944
70113W        W34057  31.950  11.630   3.205
70114W        W34058  21.252  23.032   1.854
70115W        W34059  24.653  32.488   1.441
70116W        W34060   6.306   8.169   4.813
70117W        W34061  30.533  27.057   4.753
70118W        W34062   5.410  39.862  14.010
70119W        W34063   3.431  41.838  10.580
70120W        W34064  40.039  19.604   4.668
70121W        W34065  18.757  37.000   2.316
70122W        W34066  26.081  29.446   2.731
70123W        W34067  11.328   0.477   4.253
70124W        W34068  21.542   1.812   2.328
70125W        W34069  34.909  20.588   2.710
70126W        W34070  17.674  23.147   3.221
70127W        W34071  31.532  27.570   4.237
70128W        W34072   9.223  28.013  14.911
70129W        W34073  16.581  38.405   1.827
70130W        W34074  35.955  22.568   3.330
70131W        W34075  38.426   8.780  13.946
70132W        W34076  31.556  22.125  11.970
70133W        W34077  15.814  33.024   3.378
70134W        W34078  30.020  11.735   3.308
70135W        W34079  12.343  39.061  11.107
70136W        W34080  26.592  35.914  13.337
70137W        W34081  41.940  36.861   4.714
70138W        W34082  28.452  20.190  12.892
70139W        W34083   3.357  38.051  13.476
70140W        W34084   8.760  36.478   4.834
70141W        W34085   2.831  30.066   4.286
70142W        W34086  22.701  29.629   0.410
70143W        W34087   7.790   2.735   4.173
70144W        W34088  29.511  27.137  13.489
70145W        W34089  38.018  13.277  10.463
70146W        W34090  12.262  35.541  10.411
70147W        W34091  14.705  13.231   4.639
70148W        W34092  26.147  18.101  11.877
70149W        W34093  20.739   1.972  11.883
70150W        W34094  24.025   2.934  13.423
70151W        W34095  38.407  26.988   4.237
70152W        W34096  22.682  35.475   3.795
70153W        W34097  11.313   8.680  12.057
70154W        W34098  35.438   5.863  11.469
70155W        W34099  25.164  35.083   4.221
70156W        W34100  27.514  29.543   2.671
70157W        W34101   0.362  14.238   2.886
70158W        W34102  25.472  15.691   3.215
70159W        W34103   2.781  43.994   2.671
70160W        W34104   7.879  27.477  11.916
70161W        W34105  28.176  25.087   4.196
70162W        W34106  22.542  44.826  11.045
70163W        W34107   0.293   8.279   4.345
70164W        W34108  35.572  33.009  13.008
70165W        W34109  34.962  33.023   0.258
70166W        W34110  31.905  16.169   1.269
70167W        W34111  31.145   1.890   0.735
70168W        W34112  11.327  30.482  11.861
70169W        W34113  31.486  20.078   2.369
70170W        W34114   0.291  22.681   3.767
70171W        W34115  28.630   8.265  12.920
70172W        W34116  12.156  25.699  14.449
70173W        W34117   8.300  23.118   0.464
70174W        W34118  26.571   8.862   3.297
70175W        W34119  24.187  28.621   4.605
70176W        W34120   3.386  37.028   3.856
70177W        W34121  20.601   2.458  13.855
70178W        W34122  40.480  30.928  12.045
70179W        W34123  29.132  28.633   3.169
70180W        W34124  34.965  39.948  11.885
70181W        W34125  38.014  17.733  11.434
70182W        W34126  22.009  28.649   4.609
70183W        W34127  44.785  22.196   4.186
70184W        W34128  16.614  39.362  11.383
70185W        W34129  39.845  11.679  11.918
70186W        W34130   2.843  21.556  11.446
70187W        W34131  35.943   6.790   3.261
70188W        W34132  12.302  11.141   3.642
70189W        W34133  12.627  40.379  14.305
70190W        W34134  27.135  13.795  11.517
70191W        W34135  22.209  42.307   3.296
70192W        W34136  26.014  13.163  13.948
70193W        W34137  29.004  11.348  13.512
70194W        W34138   2.867   7.705  14.391
70195W        W34139  21.172  19.176  10.920
70196W        W34140   1.868  36.985   3.759
70197W        W34141  44.381  32.067  10.555
70198W        W34142  14.188  44.372  13.878
70199W        W34143   5.279  34.896  14.794
70200W        W34144  23.142  29.518  13.004
70201W        W34145   6.805  36.522  13.981
70202W        W34146  39.823   5.842   0.328
70203W        W34147  30.152  38.876   0.963
70204W        W34148   0.281   8.861   0.466
70205W        W34149   2.825  14.595   0.284
70206W        W34150  37.892   8.750   3.226
70207W        W34151  18.595   6.677  11.878
70208W        W34152  27.614  26.614  11.126
70209W        W34153  10.709   4.343  14.975
70210W        W34154  40.436  14.809   0.250
70211W        W34155  23.583  11.309   4.832
70212W        W34156  38.358  14.209   1.884
70213W        W34157  40.494  24.704  12.435
70214W        W34158  29.064  10.289   0.815
70215W        W34159  21.546  16.676   4.756
70216W        W34160  22.552  19.598  14.449
70217W        W34161   6.393  41.418   3.343
70218W        W34162  17.578  31.055  13.820
70219W        W34163  30.935   3.414   3.852
70220W        W34164  13.680  35.492   2.734
70221W        W34165  24.639   0.840   4.654
70222W        W34166  31.991  44.262  14.785
70223W        W34167  44.902  35.042   2.855
70224W        W34168  25.074  15.789   3.270
70225W        W34169  13.246   8.281  11.113
70226W        W34170  44.823   8.294   0.887
70227W        W34171   2.341  31.484   1.745
70228W        W34172  20.561  28.567   0.917
70229W        W34173  41.869   4.384   3.291
70230W        W34174  19.683  15.108   3.630
70231W        W34175  21.520  44.393  13.322
70232W        W34176  33.049  23.174  13.912
70233W        W34177  30.112  27.107  13.454
70234W        W34178  44.943  19.594   3.636
70235W        W34179  28.544  13.640  13.336
70236W        W34180   8.242  16.239   2.268
70237W        W34181  38.831  32.031   4.682
70238W        W34182  31.134  40.865  13.847
70239W        W34183   0.945  34.489   4.718
70240W        W34184  44.319  40.994   2.780
70241W        W34185  36.349  24.012  11.953
70242W        W34186   5.774  16.228   0.958
70243W        W34187  37.434  39.474   2.766
70244W        W34188  41.424  12.129  14.867
70245W        W34189  41.304  40.931   1.329
70246W        W34190   8.890  13.694   3.294
70247W        W34191  16.256  43.836   0.929
70248W        W34192  42.516   1.769   2.374
70249W        W34193   9.888   0.275   0.466
70250W        W34194  16.771  41.536  12.432
70251W        W34195   3.293  39.856   1.815
70252W        W34196  39.445  23.586  12.536
70253W        W34197  16.181  19.257  11.893
70254W        W34198  40.444  10.166  11.382
70255W        W34199  32.474   7.837  10.956
70256W        W34200  15.792  30.417  12.359
70257W        W34201  27.580  13.304   1.273
70258W        W34202  39.005  25.611   1.845
70259W        W34203  27.477  32.053   3.163
70260W        W34204   4.435  31.480   2.222
70261W        W34205   8.761  31.434  13.456
70262W        W34206   1.965  37.372  14.956
70263W        W34207   4.235  31.475  11.984
70264W        W34208  18.093  14.668  11.985
70265W        W34209  11.129  33.944   3.151
70266W        W34210  12.760  14.168  12.848
70267W        W34211   2.322  24.608   0.303
70268W        W34212  26.682  17.164  13.845
70269W        W34213  38.529   2.736   3.146
70270W        W34214   4.395   5.286  13.544
70271W        W34215  11.757  18.748  14.979
70272W        W34216  12.117  24.632   1.927
70273W        W34217  24.684  43.427  14.890
70274W        W34218   8.808  32.950   2.742
70275W        W34219  16.265  24.538  13.994
70276W        W34220   7.836   7.373  13.804
70277W        W34221  36.092  12.657   4.649
70278W        W34222  40.407  19.736   1.303
70279W        W34223   2.469   5.816   3.270
70280W        W34224  42.978  34.588  12.525
70281W        W34225   2.961  36.377  14.909
70282W        W34226  31.936  34.064   1.446
70283W        W34227   2.807  31.417   4.737
70284W        W34228  19.602  11.366   1.847
70285W        W34229  23.126  23.719   3.368
70286W        W34230  32.420  31.587  14.776
70287W        W34231   7.336  26.130  13.956
70288W        W34232   5.417  26.692   4.114
70289W        W34233   4.367  14.199  13.310
70290W        W34234  28.498  23.109   3.290
70291W        W34235  30.480  14.273   3.817
70292W        W34236  40.884  15.084  12.909
70293W        W34237  10.811  37.400  13.373
70294W        W34238  37.859  41.346  11.016
70295W        W34239   7.204  10.268   4.310
70296W        W34240  39.819   4.241   2.282
70297W        W34241   2.452  33.996  14.468
70298W        W34242  39.548  31.532  12.429
70299W        W34243  35.076  35.856   0.766
70300W        W34244  35.432  27.487  12.394
70301W        W34245  37.426   1.317   2.225
70302W        W34246  21.087  14.225   2.841
70303W        W34247  41.963  11.369  10.965
70304W        W34248  12.322   5.770  14.888
70305W        W34249  17.306  11.190  11.476
70306W        W34250   3.272   8.713   0.745
70307W        W34251  29.152  38.385  14.467
70308W        W34252  20.196  21.098   2.748
70309W        W34253  44.911   1.907   1.229
70310W        W34254   8.208  29.973   9.622
70311W        W34255  10.757  28.579   1.850
70312W        W34256  21.106  28.167   4.599
70313W        W34257  23.503  25.608   0.360
70314W        W34258  23.619  24.179  10.899
70315W        W34259  22.092   2.839  12.852
70316W        W34260  28.589  10.837  14.300
70317W        W34261  25.674   3.281   4.768
70318W        W34262  21.096  14.680  11.011
70319W        W34263   9.299  10.228   2.316
70320W        W34264  28.133  10.789   3.156
70321W        W34265  21.525   8.359   4.611
70322W        W34266   4.869  43.904   1.385
70323W        W34267  12.207  17.149   3.172
70324W        W34268  28.548  23.635  12.508
70325W        W34269  37.929  22.608  14.486
70326W        W34270  22.210  23.517  13.334
70327W        W34271  17.679   1.859   2.373
70328W        W34272  30.143  19.588  13.949
70329W        W34273  17.748  14.768   2.813
70330W        W34274  17.132  33.505  13.996
70331W        W34275  22.204  11.133  12.024
70332W        W34276  43.390   2.849   2.278
70333W        W34277  12.352  29.439  14.373
70334W        W34278   6.691   0.449  12.890
70335W        W34279   7.811   8.181   0.479
70336W        W34280   4.296   3.806  11.950
70337W        W34281  43.418  16.260   0.912
70338W        W34282  25.692   4.268   0.472
70339W        W34283  40.037  42.402  11.879
70340W        W34284   0.383  25.137   0.838
70341W        W34285  22.164  32.904   2.298
70342W        W34286   6.269   6.273   2.815
70343W        W34287  41.310  39.867   3.247
70344W        W34288  11.779  33.407   9.990
70345W        W34289  34.076  32.448  13.913
70346W        W34290   9.875  27.107  13.994
70347W        W34291   8.165  38.843   1.341
70348W        W34292  42.851  30.023   1.375
70349W        W34293  11.269  12.357  10.628
70350W        W34294  17.273  11.790   3.727
70351W        W34295  38.330   1.830   2.790
70352W        W34296  31.452   0.303   1.222
70353W        W34297  15.282   6.825  10.128
70354W        W34298  28.604  11.361  14.760
70355W        W34299  35.055  35.515   4.325
70356W        W34300  33.060  21.706  13.894
70357W        W34301  22.248   4.343   0.307
70358W        W34302  20.552   4.861   3.677
70359W        W34303  26.065  24.215   3.780
70360W        W34304   9.729  16.668  12.401
70361W        W34305   3.812  39.932  13.542
70362W        W34306  21.592  28.613  14.379
70363W        W34307   6.889  30.594  13.039
70364W        W34308  36.070  32.949   3.842
70365W        W34309  29.467  44.838   1.726
70366W        W34310  13.794  43.353  13.879
70367W        W34311  13.821  36.964   4.328
70368W        W34312  42.415  31.076  10.413
70369W        W34313  25.599  19.577  14.973
70370W        W34314   0.906  10.679   0.927
70371W        W34315  25.977  18.251  12.984
70372W        W34316  39.450  35.033  11.574
70373W        W34317  44.413  27.013   3.806
70374W        W34318   6.824   8.735  13.885
70375W        W34319   6.339  29.061   4.326
70376W        W34320  33.581   3.891   4.692
70377W        W34321  30.073   8.771  10.546
70378W        W34322   7.819  43.805   1.404
70379W        W34323   1.963  37.055   0.899
70380W        W34324  16.157  20.632   3.309
70381W        W34325   0.459  12.681   3.750
70382W        W34326  17.091  11.834  10.148
70383W        W34327  24.484   4.435  12.548
70384W        W34328  42.801  18.773   2.808
70385W        W34329  21.165  35.042   0.440
70386W        W34330  37.443  43.773   1.307
70387W        W34331  12.128   9.339  10.610
70388W        W34332  39.414   8.668   4.246
70389W        W34333  35.875   5.215   3.813
70390W        W34334   7.719   4.887   4.830
70391W        W34335  17.062  42.427  11.006
70392W        W34336  31.057   5.340  12.573
70393W        W34337  15.584  23.668   2.742
70394W        W34338   9.310  41.339  13.867
70395W        W34339  31.143  29.597  10.436
70396W        W34340  29.511  35.580   0.349
70397W        W34341  43.769  12.611   3.728
70398W        W34342  20.656   6.236   4.749
70399W        W34343   9.220  21.198  10.557
70400W        W34344  11.846  17.576   4.246
70401W        W34345  31.984   9.388   3.782
70402W        W34346  33.068  31.928  14.959
70403W        W34347  25.625  26.146  13.974
70404W        W34348  17.565   2.465  14.936
70405W        W34349   0.914  19.149   3.763
70406W        W34350  36.013  15.701  11.416
70407W        W34351  18.074  34.055   3.826
70408W        W34352  41.486  40.396  12.474
70409W        W34353   0.350  11.684   0.913
70410W        W34354  16.648  44.311   4.752
70411W        W34355   1.969  11.281   1.365
70412W        W34356  16.194  37.037   0.409
70413W        W34357   5.405  15.785  11.997
70414W        W34358  29.042   3.443  11.963
70415W        W34359   9.330   2.876   4.635
70416W        W34360  27.094   2.860   0.442
70417W        W34361  33.085  21.528   2.815
70418W        W34362   0.982   7.255   9.944
70419W        W34363  28.177  31.009  11.554
70420W        W34364  34.914  26.086  14.861
70421W        W34365  43.513   9.743   3.851
70422W        W34366  36.405  26.686   2.368
70423W        W34367   5.320  43.367  12.091
70424W        W34368  17.664   9.382   5.573
70425W        W34369  31.001  17.587   4.726
70426W        W34370  20.688  13.138  11.388
70427W        W34371  40.421   4.835   0.848
70428W        W34372  28.452  14.660  10.903
70429W        W34373  24.660  37.990  14.760
70430W        W34374   6.773  20.688  11.004
70431W        W34375   1.269  16.626   3.175
70432W        W34376  39.927   2.794  12.453
70433W        W34377   8.388  15.605   0.359
70434W        W34378  34.918   0.819  14.303
70435W        W34379  10.807   2.291   2.248
70436W        W34380  29.511   9.385  10.474
70437W        W34381  12.793   8.324   1.292
70438W        W34382   6.685  18.585   4.815
70439W        W34383  44.797  19.536  14.334
70440W        W34384  31.626  36.948  12.022
70441W        W34385  35.492  42.438  13.453
70442W        W34386  44.769  17.650  10.966
70443W        W34387   3.369  30.918   1.760
70444W        W34388  15.256  24.627   9.565
70445W        W34389  43.906  36.487   3.349
70446W        W34390  27.178  30.512  14.884
70447W        W34391   5.243  18.165   4.115
70448W        W34392   9.206  37.974   1.359
70449W        W34393  28.573  17.110  10.045
70450W        W34394   8.721  22.559   1.724
70451W        W34395  13.199  31.461  11.451
70452W        W34396  44.442  19.116  12.833
70453W        W34397   9.700  40.352  10.903
70454W        W34398   2.335  15.775  14.986
70455W        W34399  35.864   2.316  13.914
70456W        W34400  39.494  42.894  10.502
70457W        W34401   2.346  37.851  13.043
70458W        W34402   5.311  15.588   1.402
70459W        W34403  38.473  10.780  11.387
70460W        W34404   8.784   9.301   1.742
70461W        W34405   2.469   1.747   1.278
70462W        W34406  30.945  11.821  14.984
70463W        W34407   4.213   9.377  11.072
70464W        W34408  38.946  26.989   2.369
70465W        W34409  31.952  33.590  13.985
70466W        W34410  15.606  33.437  12.507
70467W        W34411   1.969  10.370   3.641
70468W        W34412  14.180  27.635   3.735
70469W        W34413  14.607   7.847   2.830
70470W        W34414  32.522  14.818   0.465
70471W        W34415  30.500  10.743   1.314
70472W        W34416  28.053  10.202   3.248
70473W        W34417  30.118  27.665  13.954
70474W        W34418  15.766  21.686  14.385
70475W        W34419   9.841  15.627   0.269
70476W        W34420  26.515  27.659   1.878
70477W        W34421   6.893  17.728  13.532
70478W        W34422   7.209  17.247  12.407
70479W        W34423   6.752  38.449   4.706
70480W        W34424   7.699  20.107  13.051
70481W        W34425  42.285  38.535   0.729
70482W        W34426  13.196   0.963   4.136
70483W        W34427  41.516  25.071  11.598
70484W        W34428  29.498  43.278  11.401
70485W        W34429  42.425  30.416   2.249
70486W        W34430  18.063  34.444   2.200
70487W        W34431  35.416  25.648   4.826
70488W        W34432  42.469  42.487  12.481
70489W        W34433  22.036  16.305   3.350
70490W        W34434  21.021  34.975   3.675
70491W        W34435  23.605  40.341  12.013
70492W        W34436   1.302  43.418   3.363
70493W        W34437   5.325  14.828   4.320
70494W        W34438  25.073  36.065  13.848
70495W        W34439   7.327  34.403  12.963
70496W        W34440  36.946   0.285  14.013
70497W        W34441   5.708  20.183  12.832
70498W        W34442   4.365   7.307  14.896
70499W        W34443   6.874  37.857   3.677
70500W        W34444  38.325  21.032  14.466
70501W        W34445   4.365  39.842   4.154
70502W        W34446  23.722  33.125   3.806
70503W        W34447  33.459  34.443  12.426
70504W        W34448  34.514  21.674  13.976
70505W        W34449  44.358  20.575  13.023
70506W        W34450  19.088  40.884   2.890
70507W        W34451  11.344  43.296   1.277
70508W        W34452   2.374  22.161  14.801
70509W        W34453  29.657  29.111  12.501
70510W        W34454  42.423  37.035  12.026
70511W        W34455  35.920   7.887   0.307
70512W        W34456  29.448  14.305  12.562
70513W        W34457  29.965  32.518  11.499
70514W        W34458  26.009   6.206  10.583
70515W        W34459  13.663  28.161  11.594
70516W        W34460  36.087  24.130  10.540
70517W        W34461  11.808   6.689   1.418
70518W        W34462   6.743  42.004   4.173
70519W        W34463  28.524  23.063  12.951
70520W        W34464  21.102   2.387  11.875
70521W        W34465  32.432   6.838   2.237
70522W        W34466  12.622   5.439   2.772
70523W        W34467  10.668  19.651  12.977
70524W        W34468  31.430  21.242  11.572
70525W        W34469   4.758  38.846  11.010
70526W        W34470  37.001  38.066  14.962
70527W        W34471  43.972  25.160   0.915
70528W        W34472  27.625  17.240   4.313
70529W        W34473  15.653  16.569  12.579
70530W        W34474  27.181   4.759  12.863
70531W        W34475  40.523  22.689  13.001
70532W        W34476   6.185  16.778  11.499
70533W        W34477   5.224  17.299  12.085
70534W        W34478  34.546  16.118   2.764
70535W        W34479  11.230  13.671   4.128
70536W        W34480  21.247  23.173   2.761
70537W        W34481  11.797   2.758  14.479
70538W        W34482  30.030  29.020   4.782
70539W        W34483  26.657  12.623  14.424
70540W        W34484  37.849  33.083   0.314
70541W        W34485  30.550  42.490  12.452
70542W        W34486  35.862  33.462  14.759
70543W        W34487  23.072  43.882  14.809
70544W        W34488  28.633  39.326   1.850
70545W        W34489  35.047   2.742   1.935
70546W        W34490  11.686  32.076  13.436
70547W        W34491  20.752  41.484  10.903
70548W        W34492   0.347  34.051   3.719
70549W        W34493  42.318   2.721   3.741
70550W        W34494  16.713   5.200  11.041
70551W        W34495  33.967  34.562  13.794
70552W        W34496   7.309  21.112  13.852
70553W        W34497  19.271  27.190  10.457
70554W        W34498  27.954  15.208  14.008
70555W        W34499  40.967   9.826  14.343
70556W        W34500   2.756   4.937   5.156
70557W        W34501  11.829  41.419   0.857
70558W        W34502  11.133   2.720   3.696
70559W        W34503  25.010  32.434   0.337
70560W        W34504  44.474  38.040  14.498
70561W        W34505  25.671  31.012   1.356
70562W        W34506   6.794  41.038  14.913
70563W        W34507  28.952  15.198   4.148
70564W        W34508  17.731  31.511   4.655
70565W        W34509  13.241   7.392  10.927
70566W        W34510  17.638   6.387   4.274
70567W        W34511  37.858  40.994   1.351
70568W        W34512  19.758   3.931   0.317
70569W        W34513  40.019   7.299  14.315
70570W        W34514  35.056   4.730  12.542
70571W        W34515  15.651  21.259   4.798
70572W        W34516  30.072  43.286  14.361
70573W        W34517   8.357  30.487  13.022
70574W        W34518  17.735  10.320  10.954
70575W        W34519  38.893  34.535   3.647
70576W        W34520   0.963  22.730  14.023
70577W        W34521  11.207  24.985   2.899
70578W        W34522  33.089  44.889   4.229
70579W        W34523  18.103  37.868  10.458
70580W        W34524  13.332  25.516  13.491
70581W        W34525  22.104  42.009  12.050
70582W        W34526  20.769   3.251   4.119
70583W        W34527  31.507  29.495   0.928
70584W        W34528   7.759  38.824   4.131
70585W        W34529  22.157  35.006  13.420
70586W        W34530  38.516  34.451   4.205
70587W        W34531  42.395  39.829   3.832
70588W        W34532  38.379  18.607   3.742
70589W        W34533  37.530  15.717  11.463
70590W        W34534  44.439   4.850  14.435
70591W        W34535  28.486  21.744  11.905
70592W        W34536  21.148   4.806   2.702
70593W        W34537  27.680   0.490  11.097
70594W        W34538  29.044  31.526   2.185
70595W        W34539  13.678  24.022   2.764
70596W        W34540  38.405   1.786  14.017
70597W        W34541  19.538  16.247   4.321
70598W        W34542  20.180  29.659   3.264
70599W        W34543   6.865   3.904   0.787
70600W        W34544  18.173  28.679  12.964
70601W        W34545  34.073   6.320   3.858
70602W        W34546  40.988  16.588  10.930
70603W        W34547  32.474  26.635  10.897
70604W        W34548  38.499  17.099  11.022
70605W        W34549   8.226  35.368   1.211
70606W        W34550  39.898  21.151  10.449
70607W        W34551  17.295   3.260   3.179
70608W        W34552  42.483  32.013  12.911
70609W        W34553  21.252   7.271   4.793
70610W        W34554   6.361  37.889  11.061
70611W        W34555  14.723  24.653   1.929
70612W        W34556  23.050  20.096  12.555
70613W        W34557  26.111   8.774  12.078
70614W        W34558  35.535  34.425   0.266
70615W        W34559  24.694  18.104  13.493
70616W        W34560  20.536  22.702  13.481
70617W        W34561  10.664  30.978   4.139
70618W        W34562  37.522  31.017  12.375
70619W        W34563   2.448  11.832  12.961
70620W        W34564  30.079  40.850   1.429
70621W        W34565  29.657  34.881   0.244
70622W        W34566  20.136  30.579  12.064
70623W        W34567  18.244  15.588  12.096
70624W        W34568  35.944   3.458   5.322
70625W        W34569   7.827  14.714   0.347
70626W        W34570  30.543  14.182  10.562
70627W        W34571  19.730  25.998  10.528
70628W        W34572  12.232  32.924  12.083
70629W        W34573  33.114   3.248   2.290
70630W        W34574  26.076   8.364  10.938
70631W        W34575  30.086  16.756  14.391
70632W        W34576  24.515  11.269  11.605
70633W        W34577  12.615  27.109   4.600
70634W        W34578  40.328   6.774  14.506
70635W        W34579  15.249   7.884   3.329
70636W        W34580  20.740  36.392  11.909
70637W        W34581  12.186   0.458   1.388
70638W        W34582  10.197   8.237  13.437
70639W        W34583  24.161  11.642   4.601
70640W        W34584  37.917   2.417  10.916
70641W        W34585  18.658   4.421   0.386
70642W        W34586  40.320   3.229   4.212
70643W        W34587  34.075  26.074  12.895
70644W        W34588  25.090  12.213  13.309
70645W        W34589  36.577  19.283   1.320
70646W        W34590  23.526   1.954  12.555
70647W        W34591   1.429  38.938  12.552
70648W        W34592   1.852   5.749  12.400
70649W        W34593  13.777  43.958   5.318
70650W        W34594  44.376   3.825   4.778
70651W        W34595   8.790  12.688   2.210
70652W        W34596   2.461  27.086  11.400
70653W        W34597  29.548   3.803   0.391
70654W        W34598  21.686  16.280  12.954
70655W        W34599  23.176  22.220  12.462
70656W        W34600  10.254  26.594  13.805
70657W        W34601  35.575  22.622  14.907
70658W        W34602  28.100  10.805   0.483
70659W        W34603  40.922  38.851  10.489
70660W        W34604  12.276  24.090  11.457
70661W        W34605   5.785  38.486  11.017
70662W        W34606  13.696  13.743   3.221
70663W        W34607  38.063  19.116   2.679
70664W        W34608  10.385  32.619   5.154
70665W        W34609  14.768  40.531   4.325
70666W        W34610  28.150   2.392   0.438
70667W        W34611  18.702   1.842   5.308
70668W        W34612   8.246  27.506  11.894
70669W        W34613  28.513   9.167  14.869
70670W        W34614  34.615  29.977  13.356
70671W        W34615  31.900  16.746  13.900
70672W        W34616  38.918  39.947  10.509
70673W        W34617  34.996   3.245   0.813
70674W        W34618  41.303  20.564  13.043
70675W        W34619   8.779   3.280   3.275
70676W        W34620  30.608  10.828   3.747
70677W        W34621  42.464  28.047   1.704
70678W        W34622  38.514  27.157   2.874
70679W        W34623  25.470  17.099  13.929
70680W        W34624  34.412  43.386   4.648
70681W        W34625   7.341   0.367  11.440
70682W        W34626  16.111   7.289  11.038
70683W        W34627  33.479  41.306  14.965
70684W        W34628  30.038   5.904  14.773
70685W        W34629  18.609   7.868  11.456
70686W        W34630  16.088  29.511  10.148
70687W        W34631  42.835  39.505   3.250
70688W        W34632  33.447  21.530   1.739
70689W        W34633  30.016   6.739   0.365
70690W        W34634  33.040  22.717   4.271
70691W        W34635  25.545  26.487   4.739
70692W        W34636  32.601  14.284   1.794
70693W        W34637  13.603  33.999   5.216
70694W        W34638   6.900  12.132   1.396
70695W        W34639  15.275  17.717   4.663
70696W        W34640  39.493  40.884   4.760
70697W        W34641  14.648  14.690   0.955
70698W        W34642  31.551  34.880   3.146
70699W        W34643  27.982  35.525   0.834
70700W        W34644  16.636  24.478   1.262
70701W        W34645  28.980  12.706   4.142
70702W        W34646  24.166  28.984  13.050
70703W        W34647  16.201  36.424  14.887
70704W        W34648   4.703  41.383  13.353
70705W        W34649  12.784  27.680  13.012
70706W        W34650   3.305  12.840  14.349
70707W        W34651  42.380  16.233  14.356
70708W        W34652  22.146  38.389  11.034
70709W        W34653  22.729  27.543   0.728
70710W        W34654   1.481   9.759  10.915
70711W        W34655  25.007  34.410  14.460
70712W        W34656  35.028  29.444   0.931
70713W        W34657  29.094  24.557   0.877
70714W        W34658  24.976  14.835  11.066
70715W        W34659  12.167  41.900   1.752
70716W        W34660  34.429   4.342   0.297
70717W        W34661  33.535  21.258  12.496
70718W        W34662  13.643  18.109   2.757
70719W        W34663   2.394  32.570   4.787
70720W        W34664  13.185  24.494  11.894
70721W        W34665   7.739  15.732   0.915
70722W        W34666  18.182  19.198   2.415
70723W        W34667  40.932  16.276  14.759
70724W        W34668  30.050  39.950  11.520
70725W        W34669  13.718  13.124  12.011
70726W        W34670  29.968  23.533  12.503
70727W        W34671  12.184   6.847   3.870
70728W        W34672  16.084   8.174  11.124
70729W        W34673  42.404   5.404  10.438
70730W        W34674   3.932  37.437  14.780
70731W        W34675   3.811  12.826  10.503
70732W        W34676  22.242   7.369   4.153
70733W        W34677  22.997   8.830   3.790
70734W        W34678  27.567   2.363  13.959
70735W        W34679  27.999  11.825   3.651
70736W        W34680   2.866  37.852  13.520
70737W        W34681  34.111   3.415   4.203
70738W        W34682  23.109  25.163   4.154
70739W        W34683  36.452   2.357   2.818
70740W        W34684   1.903   7.256  11.993
70741W        W34685  27.185  34.503   4.790
70742W        W34686  25.639  10.186  10.016
70743W        W34687  26.182  41.394  10.059
70744W        W34688  37.485  37.410   1.292
70745W        W34689  11.732  44.840  11.536
70746W        W34690  11.301  37.993   2.204
70747W        W34691  12.687  43.841   3.361
70748W        W34692  44.315  37.444  11.420
70749W        W34693  34.053   9.177   2.754
70750W        W34694  23.527   5.436  13.440
70751W        W34695  34.079  35.859   2.295
70752W        W34696  16.156   6.422  10.492
70753W        W34697   0.304   7.781   3.293
70754W        W34698  17.284   1.251   1.779
70755W        W34699  10.637   0.958  11.025
70756W        W34700  35.474   2.344  14.938
70757W        W34701   1.376  16.581  12.013
70758W        W34702  18.079  26.600   0.309
70759W        W34703  25.970   7.724   0.436
70760W        W34704  37.479   5.438   1.423
70761W        W34705  33.562   2.290  12.960
70762W        W34706  34.950   1.444  13.367
70763W        W34707  12.322  26.613  14.331
70764W        W34708  19.557   6.906  10.642
70765W        W34709  43.275  18.264   2.382
70766W        W34710   2.242  39.409  13.537
70767W        W34711  13.119  33.889  10.967
70768W        W34712  23.505  19.709   2.711
70769W        W34713  22.708  33.602  14.465
70770W        W34714  40.411  43.424   0.324
70771W        W34715   1.774  19.153  13.430
70772W        W34716   7.172  38.349   0.740
70773W        W34717  16.266   2.836   0.849
70774W        W34718  20.200  11.755  14.847
70775W        W34719   0.907  27.988  13.996
70776W        W34720  33.536   5.714   2.693
70777W        W34721  37.011  13.818   3.166
70778W        W34722   2.372  40.956   1.720
70779W        W34723  15.732  13.609   0.350
70780W        W34724  15.151  34.963   2.783
70781W        W34725  31.072   9.728   3.828
70782W        W34726  26.997  19.742  14.928
70783W        W34727  30.504  40.858  13.974
70784W        W34728  35.359   4.848  14.876
70785W        W34729  31.017  14.316   2.280
70786W        W34730   0.878   3.293   5.182
70787W        W34731  31.991  24.617   1.798
70788W        W34732  41.876   8.291   2.229
70789W        W34733  41.793  41.481   2.800
70790W        W34734  28.148  24.505  13.331
70791W        W34735  15.600  29.960  14.858
70792W        W34736  24.040  16.223   2.796
70793W        W34737  34.379  10.851   0.329
70794W        W34738  14.601   2.300  10.589
70795W        W34739  16.239   3.751   2.754
70796W        W34740  43.973  20.669   4.311
70797W        W34741   6.219  32.006   1.777
70798W        W34742   4.213  20.745  14.398
70799W        W34743  39.471  13.691  13.926
70800W        W34744  20.617  32.101  10.113
70801W        W34745   3.432  19.121  11.473
70802W        W34746  40.838  10.306   2.314
70803W        W34747  27.548  13.708  10.463
70804W        W34748  13.157  24.120  14.471
70805W        W34749   4.865  30.066   4.719
70806W        W34750  28.936  15.791   1.922
70807W        W34751  19.142  15.751  14.839
70808W        W34752  30.957   6.250   0.247
70809W        W34753  21.617  44.887   2.734
70810W        W34754  14.130  16.086  13.968
70811W        W34755  37.534   1.880   1.341
70812W        W34756  13.611  19.703  12.029
70813W        W34757  33.502  34.470   1.301
70814W        W34758   9.178   8.185   1.429
70815W        W34759  30.456  27.691  13.360
70816W        W34760  42.952   1.369  14.298
70817W        W34761  15.756  14.171   4.751
70818W        W34762  14.310   6.318  13.332
70819W        W34763  40.831  18.125  13.973
70820W        W34764  41.969  30.976   3.765
70821W        W34765  39.455   5.702  11.879
70822W        W34766  17.064   0.397   4.642
70823W        W34767  14.833  40.542   2.875
70824W        W34768  30.003  10.277   4.191
70825W        W34769  18.551  10.713   1.233
70826W        W34770  39.008  11.139  11.992
70827W        W34771  23.100  26.637   4.660
70828W        W34772  42.281  37.915  11.090
70829W        W34773  27.090  35.089  11.074
70830W        W34774  15.662  13.642  14.971
70831W        W34775  39.499  19.077  14.904
70832W        W34776  44.816  36.099  13.394
70833W        W34777  29.540   8.217  14.923
70834W        W34778  18.051  39.404   4.746
70835W        W34779  19.072  28.007   1.751
70836W        W34780  10.273  19.210   0.786
70837W        W34781  36.060  39.020   4.351
70838W        W34782  42.375  35.959  12.019
70839W        W34783  34.105  27.080   0.935
70840W        W34784  29.078  14.255  12.001
70841W        W34785  15.120  28.974  14.895
70842W        W34786  23.143  44.434   2.669
70843W        W34787  16.729   9.728  12.508
70844W        W34788  13.208  34.974   1.704
70845W        W34789  22.695  33.381   4.719
70846W        W34790  11.229  35.902   2.353
70847W        W34791   9.693  26.112  14.771
70848W        W34792  44.314  42.934   3.757
70849W        W34793  44.270  15.179   2.669
70850W        W34794  15.240   4.839   1.787
70851W        W34795  37.385  32.006   5.204
70852W        W34796  27.654  10.274  14.891
70853W        W34797  22.642  37.383  14.867
70854W        W34798  25.479  22.070  11.022
70855W        W34799  33.942   4.248  12.382
70856W        W34800   8.313  43.777  14.952
70857W        W34801  29.486  18.673   3.196
70858W        W34802  26.093  37.062   3.345
70859W        W34803   4.284   6.307  14.946
70860W        W34804  34.606  24.027   2.844
70861W        W34805  36.990  29.024   0.955
70862W        W34806  15.615  17.281   4.326
70863W        W34807  39.864  28.614  10.999
70864W        W34808  33.547   2.777   0.810
70865W        W34809  32.586   6.740  13.974
70866W        W34810  42.909  10.142   3.828
70867W        W34811  21.228   0.875   1.822
70868W        W34812  23.226   9.680   4.119
70869W        W34813  29.061  29.924   2.247
70870W        W34814   8.396  17.253  13.404
70871W        W34815  13.755  39.918   4.235
70872W        W34816  28.142  35.367   1.878
70873W        W34817  14.207   8.274  13.460
70874W        W34818  14.188   0.422  14.512
70875W        W34819   4.881   4.794  10.946
70876W        W34820  39.327   6.337   2.352
70877W        W34821  33.382  10.749   0.441
70878W        W34822  37.525   4.725   1.347
70879W        W34823  13.656   2.431   3.695
70880W        W34824  23.046  33.402   0.308
70881W        W34825  31.637  23.164   2.739
70882W        W34826  25.204  22.091   3.274
70883W        W34827  19.178  35.483   1.884
70884W        W34828   5.780  39.871   1.802
70885W        W34829   4.894  17.598  12.974
70886W        W34830  35.357  24.495  13.531
70887W        W34831  34.508  14.677  10.493
70888W        W34832   5.767   5.258   3.783
70889W        W34833  12.830  15.239   3.275
70890W        W34834   1.390  31.915  14.853
70891W        W34835  43.423   7.245   0.948
70892W        W34836  31.919  21.663  12.499
70893W        W34837  34.594  24.207   4.745
70894W        W34838  31.624   7.712   3.662
70895W        W34839  42.443   1.307  14.438
70896W        W34840   6.407  15.167  14.396
70897W        W34841  15.132  36.936  13.823
70898W        W34842  39.812  29.964   3.187
70899W        W34843  42.966  13.127   2.271
70900W        W34844   5.281  19.068   0.842
70901W        W34845  12.349  34.472   2.743
70902W        W34846  29.586  37.481  14.383
70903W        W34847   4.250  34.983  13.456
70904W        W34848   6.741  24.614   0.417
70905W        W34849   4.381  13.660   4.680
70906W        W34850  38.844  21.082  11.032
70907W        W34851  24.106  30.031  10.630
70908W        W34852   9.191  13.153   0.847
70909W        W34853  36.352  43.292  10.452
70910W        W34854  22.997  34.410  12.462
70911W        W34855  33.478  38.550   3.635
70912W        W34856   3.458  13.226  10.626
70913W        W34857  34.546  14.767  14.825
70914W        W34858  20.528  25.704  10.111
70915W        W34859  27.569   4.251   2.866
70916W        W34860  16.803  37.926  11.398
70917W        W34861   2.959  19.699  13.865
70918W        W34862  37.398  14.236   2.194
70919W        W34863   4.910  27.469   3.238
70920W        W34864   6.892  21.589   1.911
70921W        W34865  14.807  26.021  14.896
70922W        W34866  16.671  30.532  13.449
70923W        W34867  32.903  31.125   1.343
70924W        W34868   7.682  22.049   3.807
70925W        W34869  16.316   4.386  13.813
70926W        W34870  25.964  40.013   2.317
70927W        W34871   0.354  11.182   4.789
70928W        W34872  14.739  20.661  13.513
70929W        W34873  37.847  34.089  14.831
70930W        W34874  37.359   8.281   3.811
70931W        W34875   3.405  27.991   5.189
70932W        W34876  37.422  37.429  11.423
70933W        W34877   9.169  33.425  12.955
70934W        W34878  16.682   4.298   4.704
70935W        W34879  19.655  42.998  11.510
70936W        W34880  33.512  13.757   2.851
70937W        W34881  41.797  29.021  13.512
70938W        W34882  27.086  11.730   2.319
70939W        W34883  17.188  17.188   3.222
70940W        W34884  30.611  34.585  11.501
70941W        W34885  31.924  36.412  10.538
70942W        W34886   9.804  42.505   1.236
70943W        W34887  35.060  33.985   0.844
70944W        W34888  28.488  25.522   4.176
70945W        W34889  36.004  40.857   0.792
70946W        W34890  26.022  39.427  10.594
70947W        W34891  16.719  14.200  13.882
70948W        W34892  43.491  10.177  14.800
70949W        W34893  14.261  28.574  11.447
70950W        W34894  19.241   1.318   0.738
70951W        W34895  39.005  41.438   0.943
70952W        W34896  39.523  13.308   4.223
70953W        W34897  22.580  35.093   4.303
70954W        W34898  37.501  40.918   4.260
70955W        W34899  34.900  44.758   3.741
70956W        W34900  33.512  28.184   1.880
70957W        W34901  26.122  37.558   4.674
70958W        W34902  21.157   4.381   1.830
70959W        W34903   5.720   0.905   3.841
70960W        W34904  15.585  41.804  13.451
70961W        W34905  19.767  34.890   1.737
70962W        W34906  37.531  27.544   0.450
70963W        W34907  38.845   8.793  14.345
70964W        W34908  22.593   3.879  12.344
70965W        W34909  11.304  13.728   1.876
70966W        W34910   6.797   7.357   2.259
70967W        W34911   8.703  41.795  10.637
70968W        W34912  21.569  22.508  10.987
70969W        W34913  36.379  42.940  11.055
70970W        W34914  24.642  19.191  12.858
70971W        W34915  40.888  30.509   0.882
70972W        W34916  38.943   8.798   3.257
70973W        W34917  17.207  35.069  13.385
70974W        W34918  38.530   6.201   1.836
70975W        W34919  32.623  12.313  12.860
70976W        W34920  44.262  22.216  12.927
70977W        W34921  37.444   5.336   1.810
70978W        W34922  32.589  41.517  14.901
70979W        W34923   6.330  32.425  13.813
70980W        W34924  33.030  26.975  13.449
70981W        W34925  37.039  21.616  13.317
70982W        W34926  17.727   0.387  10.576
70983W        W34927  41.513  31.907   1.842
70984W        W34928  34.505   0.930   4.144
70985W        W34929   5.361  31.939   0.350
70986W        W34930  42.354  42.827  12.853
70987W        W34931  38.899  31.084   9.993
70988W        W34932  23.601  33.925  14.840
70989W        W34933  30.621  21.621   0.275
70990W        W34934  28.506  41.452   5.691
70991W        W34935  31.969  24.551   4.196
70992W        W34936  33.405  22.131   2.351
70993W        W34937  10.877  38.519  10.528
70994W        W34938  34.529  25.972   3.646
70995W        W34939  16.165  40.965  12.057
70996W        W34940   5.758   7.685   2.181
70997W        W34941   1.746  38.388   4.618
70998W        W34942  12.690  28.021  10.488
70999W        W34943   1.874   3.225  13.038
71000W        W34944   0.988  17.180   5.254
71001W        W34945  44.319   4.345  12.365
71002W        W34946  33.576   0.325  14.425
71003W        W34947  26.690  18.277  14.012
71004W        W34948  34.096   7.684  10.423
71005W        W34949   3.350  35.043  11.886
71006W        W34950  13.163  26.573   3.751
71007W        W34951   4.444  23.070  13.801
71008W        W34952  24.084  32.409   4.690
71009W        W34953  31.061  25.640  13.896
71010W        W34954  38.535  26.539   0.911
71011W        W34955  19.651   8.383   3.369
71012W        W34956   7.783  19.648  10.493
71013W        W34957   4.827  13.707  13.835
71014W        W34958  42.358  25.006   3.667
71015W        W34959   4.363  28.620  11.610
71016W        W34960  10.177  18.696  12.066
71017W        W34961  17.750  43.799  11.104
71018W        W34962   3.856  17.104   0.249
71019W        W34963  25.968  17.100   3.863
71020W        W34964  21.057  29.668  11.104
71021W        W34965  24.631  20.631  11.914
71022W        W34966  28.983  19.736  11.954
71023W        W34967  41.886   0.835  13.915
71024W        W34968  37.993  21.095  11.033
71025W        W34969  17.607  30.939   1.236
71026W        W34970  29.562  18.068  14.411
71027W        W34971   5.404  18.682   3.361
71028W        W34972  39.379  11.687  10.542
71029W        W34973  16.250  22.673   0.332
71030W        W34974  29.972  40.548   2.266
71031W        W34975  37.521   3.385   4.324
71032W        W34976  22.194  18.137  11.524
71033W        W34977  18.259   3.236  14.840
71034W        W34978  25.569  21.214   5.267
71035W        W34979  31.530  33.498  13.877
71036W        W34980  39.383  41.292  10.537
71037W        W34981   9.198   3.751   0.379
71038W        W34982   7.342  22.161   4.282
71039W        W34983  29.086   4.368  11.103
71040W        W34984  10.819   5.887  11.477
71041W        W34985  35.580   3.762  10.478
71042W        W34986  22.558   0.756   4.195
71043W        W34987  28.657  33.547   4.762
71044W        W34988  20.099   0.890  12.515
71045W        W34989  29.444   9.383   2.894
71046W        W34990   9.175  43.842   3.213
71047W        W34991  28.585  16.104   4.828
71048W        W34992   1.373  11.677   0.432
71049W        W34993  43.986   9.829   2.826
71050W        W34994   3.247  25.605  10.442
71051W        W34995  23.020   3.720   1.264
71052W        W34996  40.475  39.915   0.397
71053W        W34997  14.320  24.125   4.609
71054W        W34998  31.038  31.569   1.850
71055W        W34999  18.069  41.443  13.064
71056W        W35000  30.590  15.220   2.792
71057W        W35001  35.956  14.218  10.541
71058W        W35002   6.331   1.312  11.029
71059W        W35003   4.298  29.428  13.536
71060W        W35004   5.207  12.355  11.485
71061W        W35005  29.115  26.611  11.993
71062W        W35006  11.842  20.762   3.217
71063W        W35007  27.508  10.268   1.877
71064W        W35008  27.599   7.775   0.327
71065W        W35009  34.030   3.454  13.057
71066W        W35010  32.393  41.938   4.197
71067W        W35011   1.266  44.844   3.185
71068W        W35012  42.793  16.779  13.056
71069W        W35013  29.626  41.452   2.685
71070W        W35014  40.333  17.268   1.441
71071W        W35015   1.888  39.007  13.375
71072W        W35016  20.703   8.718   2.197
71073W        W35017  20.593  36.406   2.376
71074W        W35018  38.017   3.234  14.456
71075W        W35019  30.567  24.533  14.283
71076W        W35020  12.806   4.204  12.857
71077W        W35021  21.108  29.646  10.406
71078W        W35022  19.195  33.585  11.482
71079W        W35023  21.034  40.963  12.962
71080W        W35024  42.518  30.065  14.400
71081W        W35025  39.899  27.104  11.509
71082W        W35026  16.800   2.957   0.435
71083W        W35027  17.590  39.356  11.563
71084W        W35028  37.882  20.643  10.905
71085W        W35029   3.342  38.865  13.061
71086W        W35030  31.402  18.224   4.638
71087W        W35031  40.414  41.459   3.287
71088W        W35032   0.459  19.132   3.632
71089W        W35033  33.947  18.262   2.352
71090W        W35034  21.548  41.484   3.861
71091W        W35035  16.184  31.633  12.522
71092W        W35036  18.149  36.864   0.388
71093W        W35037  25.691  25.565   1.813
71094W        W35038   2.312   2.827  11.432
71095W        W35039   9.851  10.751   0.896
71096W        W35040  28.050  19.151  12.041
71097W        W35041   9.869  34.947  12.434
71098W        W35042   8.336  17.129  11.935
71099W        W35043  21.603   1.279   4.187
71100W        W35044  14.702  10.275   3.239
71101W        W35045   6.786  18.257  10.503
71102W        W35046   3.789  10.714   2.678
71103W        W35047  22.074  14.826   3.300
71104W        W35048  22.010   5.317  13.316
71105W        W35049  44.905  31.631  10.492
71106W        W35050  12.239  19.121  10.449
71107W        W35051  11.650  37.952  12.537
71108W        W35052  31.416   0.417  14.881
71109W        W35053  21.193  37.950   5.174
71110W        W35054  18.117  36.911  13.528
71111W        W35055  37.869  38.934   0.836
71112W        W35056  29.498  12.207   1.347
71113W        W35057  28.105   2.878  12.489
71114W        W35058  30.005   9.255   1.781
71115W        W35059  44.010  20.218  13.486
71116W        W35060  30.147  33.937   4.124
71117W        W35061  19.591  15.597   1.260
71118W        W35062  17.649   6.733   1.870
71119W        W35063  23.591  18.610  10.473
71120W        W35064  15.123  35.023   1.833
71121W        W35065   0.803   8.777   0.956
71122W        W35066   5.320  39.460   2.869
71123W        W35067  20.764  30.504   0.291
71124W        W35068  24.031  20.719   4.716
71125W        W35069  14.234   9.887  13.970
71126W        W35070  23.614   5.901  13.523
71127W        W35071   2.369  18.134  11.423
71128W        W35072   0.747  26.956  11.451
71129W        W35073   3.236  16.661   4.172
71130W        W35074   7.839  10.292   0.372
71131W        W35075  28.170  12.171  13.791
71132W        W35076  39.323   2.890   2.758
71133W        W35077  28.600  34.570   0.796
71134W        W35078  11.262  26.000   2.898
71135W        W35079  34.869  17.789  11.514
71136W        W35080   1.360   5.226   0.316
71137W        W35081  28.499  10.300  14.449
71138W        W35082  40.392  30.029   4.312
71139W        W35083  19.058  37.882  14.371
71140W        W35084  22.082  11.348   2.352
71141W        W35085  28.586  33.588  10.943
71142W        W35086  16.707  35.442  13.939
71143W        W35087  16.699  34.039  12.508
71144W        W35088  35.555  11.317  12.037
71145W        W35089  28.470   2.734   3.362
71146W        W35090  36.964   0.809  12.984
71147W        W35091  42.421   1.307  10.574
71148W        W35092  33.571  16.151  10.549
71149W        W35093  26.055   4.872   1.319
71150W        W35094  44.406  43.439  13.413
71151W        W35095  16.151   2.922   2.836
71152W        W35096   6.327  24.663  14.008
71153W        W35097   3.804   4.276  11.121
71154W        W35098  41.809   0.342  13.495
71155W        W35099  21.110  33.063   0.457
71156W        W35100  37.900  32.933  13.484
71157W        W35101  29.624  23.719  13.353
71158W        W35102   8.656  34.119   1.351
71159W        W35103  25.652  11.306  14.982
71160W        W35104  26.015  13.694  12.063
71161W        W35105  21.696  43.835  13.844
71162W        W35106  10.875  35.098  11.902
71163W        W35107   3.747  24.686  12.875
71164W        W35108  38.009  31.977  14.795
71165W        W35109  11.682  24.975   2.814
71166W        W35110  33.887  35.106  11.026
71167W        W35111  42.401  21.541  13.380
71168W        W35112  12.207  32.933   0.785
71169W        W35113  42.393   2.962  11.529
71170W        W35114  14.801  18.749   3.793
71171W        W35115  26.007   1.287  11.959
71172W        W35116  12.766  19.087  12.444
71173W        W35117  17.075  12.709  11.072
71174W        W35118  33.986   1.733   2.890
71175W        W35119  38.528  38.884   4.694
71176W        W35120   5.825  28.109   1.306
71177W        W35121   7.325  35.387   3.187
71178W        W35122   3.911  35.906   4.283
71179W        W35123  39.007  25.468  11.950
71180W        W35124   4.800  15.094  11.543
71181W        W35125  33.560  12.341   2.291
71182W        W35126  39.920  14.192   0.872
71183W        W35127  12.845  23.997  14.841
71184W        W35128   4.379  16.252   0.425
71185W        W35129  30.095  37.392   0.242
71186W        W35130  35.406  38.343  14.443
71187W        W35131  13.194   7.721  14.776
71188W        W35132  15.775  32.596  12.556
71189W        W35133  14.181  21.019  11.413
71190W        W35134  16.680  39.841   2.836
71191W        W35135  30.107  35.067  13.378
71192W        W35136  24.639  29.659   2.815
71193W        W35137  43.365  39.555   4.276
71194W        W35138   5.928  28.476   1.875
71195W        W35139  28.067  26.484   4.170
71196W        W35140  26.499   1.975  14.472
71197W        W35141  33.922  13.788   2.317
71198W        W35142  22.665  15.745  14.998
71199W        W35143  23.241   1.321   1.884
71200W        W35144  28.672   9.779  11.101
71201W        W35145   8.738  35.088  11.587
71202W        W35146   5.214   4.719   3.373
71203W        W35147  14.654  10.150  11.089
71204W        W35148  30.131  40.409   0.794
71205W        W35149   7.872   1.770  11.949
71206W        W35150  21.234  14.640  14.990
71207W        W35151  40.816  13.783  11.517
71208W        W35152  29.112  27.530   3.318
71209W        W35153  28.044  35.025  11.864
71210W        W35154   6.803  14.770   0.438
71211W        W35155   4.234  37.495  14.988
71212W        W35156  23.661  11.806  13.906
71213W        W35157  16.784   5.860  10.589
71214W        W35158   5.246   6.221   2.281
71215W        W35159  16.281  41.304   1.426
71216W        W35160   7.907  24.661  12.541
71217W        W35161  22.173  21.026  10.105
71218W        W35162  15.752  28.082  10.415
71219W        W35163  44.860  24.564   3.235
71220W        W35164  10.666   9.265  13.948
71221W        W35165  38.460  20.239   2.665
71222W        W35166  35.016  31.582  11.072
71223W        W35167  29.104  42.344  12.472
71224W        W35168  35.380  26.140   0.967
71225W        W35169  38.520  24.108  13.433
71226W        W35170  15.182  12.704  14.763
71227W        W35171  21.112  30.643   2.799
71228W        W35172  40.851  44.492  12.456
71229W        W35173  31.491  39.405  12.365
71230W        W35174  10.867  14.231   3.839
71231W        W35175  34.457   6.303   4.641
71232W        W35176  38.057  29.563   2.328
71233W        W35177   2.914  14.244   4.205
71234W        W35178  27.623   6.383   3.774
71235W        W35179  28.464  34.458  10.523
71236W        W35180  40.020  40.934   3.216
71237W        W35181  12.350  43.389   1.806
71238W        W35182  31.968  30.437   9.973
71239W        W35183   5.254   5.377   0.870
71240W        W35184   4.370  28.448  12.049
71241W        W35185  31.505   5.192  14.912
71242W        W35186  16.751   4.865   0.251
71243W        W35187   8.819   8.247   2.268
71244W        W35188  16.719  32.930   4.342
71245W        W35189  13.210  42.820   3.739
71246W        W35190  42.953  13.117  11.386
71247W        W35191  10.824  29.110  11.918
71248W        W35192  28.510  26.127  10.633
71249W        W35193  42.847  37.868  14.019
71250W        W35194  44.935   3.813   3.354
71251W        W35195  27.114  27.196  14.309
71252W        W35196  39.342  30.936  14.858
71253W        W35197  35.517  37.058  12.409
71254W        W35198  41.410  24.154   4.629
71255W        W35199  44.396  23.497  13.345
71256W        W35200   1.791   5.333  12.572
71257W        W35201  33.100  26.155   3.851
71258W        W35202  20.175  26.511  13.801
71259W        W35203  35.444  11.320   0.322
71260W        W35204   2.237   9.694  10.475
71261W        W35205  34.912  10.835  12.903
71262W        W35206  26.652  27.459  11.461
71263W        W35207  37.574  28.058   1.424
71264W        W35208  36.890   4.896   1.254
71265W        W35209  18.278  44.417  14.292
71266W        W35210   9.293  13.224   3.171
71267W        W35211  16.138  39.041   4.199
71268W        W35212  14.660  33.411   2.690
71269W        W35213   3.907  25.041  13.486
71270W        W35214  18.244   6.247  14.444
71271W        W35215  21.654  17.176  13.045
71272W        W35216   3.393  13.734   4.776
71273W        W35217  33.025  21.225   4.637
71274W        W35218  29.550  23.146   3.827
71275W        W35219  43.770  43.474   1.347
71276W        W35220  42.899  28.110  13.052
71277W        W35221  44.010  31.026   4.161
71278W        W35222  35.883  43.270  11.869
71279W        W35223  23.697  13.761  11.019
71280W        W35224  12.619  21.238  10.411
71281W        W35225  26.146  35.512   3.827
71282W        W35226  11.859  30.001   3.256
71283W        W35227  41.852  38.398   2.815
71284W        W35228  28.007  15.276  12.001
71285W        W35229  39.410  36.089  14.432
71286W        W35230  19.721  30.910   1.912
71287W        W35231  34.883   4.422   2.721
71288W        W35232  38.006  39.999   1.774
71289W        W35233  34.491   3.309   1.362
71290W        W35234  39.441  44.493   4.266
71291W        W35235  40.934  32.634   0.900
71292W        W35236  17.164  37.049   3.252
71293W        W35237  44.439  18.676   2.382
71294W        W35238  33.462  36.516  11.925
71295W        W35239  30.496  39.852   0.801
71296W        W35240   9.350  33.084   2.785
71297W        W35241   4.352  26.036   4.354
71298W        W35242   5.722  11.319  10.990
71299W        W35243  21.170  35.082  12.395
71300W        W35244  22.033  12.143   0.262
71301W        W35245  24.511  32.003   3.227
71302W        W35246  33.099  40.327  14.354
71303W        W35247   8.175  15.616  12.997
71304W        W35248  15.793   6.190   0.429
71305W        W35249  23.193   3.322  12.365
71306W        W35250  26.070  18.293  11.544
71307W        W35251  36.377  23.231  11.939
71308W        W35252   7.908  16.253  14.844
71309W        W35253   1.338  15.119  12.899
71310W        W35254  28.004  14.830   0.419
71311W        W35255  16.090  43.499  14.029
71312W        W35256  26.507   2.893  11.083
71313W        W35257   1.906  35.973  13.792
71314W        W35258   9.210  42.510  12.416
71315W        W35259   6.397  43.366  11.390
71316W        W35260  17.083  11.626  14.006
71317W        W35261  30.131  25.569  14.473
71318W        W35262  18.053  25.657  14.857
71319W        W35263  11.188  18.161   1.434
71320W        W35264  32.629  21.213  11.566
71321W        W35265  30.962  44.768  13.393
71322W        W35266  14.623  18.783   1.924
71323W        W35267   3.833   0.474  11.059
71324W        W35268  24.054   4.275  14.779
71325W        W35269  20.668   7.883  14.816
71326W        W35270  42.880   4.427   3.712
71327W        W35271  31.087  17.191   1.216
71328W        W35272   9.357   8.731  13.514
71329W        W35273  11.748   1.845   5.273
71330W        W35274  43.458  39.504  13.523
71331W        W35275   8.304  35.913   0.951
71332W        W35276  37.549   5.809  10.494
71333W        W35277  10.775  20.063   0.299
71334W        W35278   6.259  43.880   0.829
71335W        W35279   2.461   5.279   4.819
71336W        W35280   1.366   0.780  10.629
71337W        W35281  36.086   9.383   3.223
71338W        W35282   9.752  22.179   2.744
71339W        W35283  30.614  43.973  14.353
71340W        W35284   1.470  38.548  12.910
71341W        W35285  23.660  11.234  14.799
71342W        W35286  32.133   2.794  12.919
71343W        W35287  20.081  18.152  11.875
71344W        W35288  35.058  28.626   3.293
71345W        W35289  38.381  40.813   4.783
71346W        W35290  25.209  21.263  10.035
71347W        W35291  40.962   8.799  13.013
71348W        W35292  23.080  17.248  11.522
71349W        W35293  31.899   5.913  13.389
71350W        W35294  26.042  38.334  11.520
71351W        W35295  27.017  30.427   3.309
71352W        W35296  14.251  34.372  13.531
71353W        W35297   0.359   9.650   2.377
71354W        W35298  27.133  34.376  13.384
71355W        W35299  35.508  44.467   1.267
71356W        W35300  12.788  26.138   4.691
71357W        W35301  23.658  20.647  11.090
71358W        W35302   3.412  40.324  14.762
71359W        W35303  32.120  12.336   2.302
71360W        W35304  25.047  39.363  11.071
71361W        W35305  30.034   3.242  11.599
71362W        W35306  31.090  22.183  14.421
71363W        W35307  18.731  25.078  10.099
71364W        W35308  23.492   2.408   3.327
71365W        W35309  29.930  10.172  11.008
71366W        W35310  15.724  13.170  10.947
71367W        W35311  28.090  41.879  10.050
71368W        W35312   4.245   5.815  13.878
71369W        W35313  29.514   1.870  11.541
71370W        W35314  11.837   2.738  10.619
71371W        W35315  23.183  26.588  10.039
71372W        W35316  10.210  34.563   1.363
71373W        W35317  13.349  28.542  11.883
71374W        W35318  38.878   8.703   4.691
71375W        W35319  12.733  20.613   4.763
71376W        W35320  24.638  21.180   2.357
71377W        W35321  16.126  22.606  12.542
71378W        W35322  10.799  17.759   4.197
71379W        W35323  41.311  23.617  12.954
71380W        W35324  35.532   0.845   2.736
71381W        W35325  32.970   2.333   3.693
71382W        W35326  30.984  17.768   0.957
71383W        W35327   2.966  24.654   0.953
71384W        W35328  34.482  12.199  12.846
71385W        W35329  27.449  32.986   3.741
71386W        W35330  13.702  16.639   4.181
71387W        W35331  16.205  43.291  13.314
71388W        W35332   7.755  23.628  14.489
71389W        W35333  40.945   9.191  11.980
71390W        W35334  18.660  13.699  14.811
71391W        W35335  13.254  23.601   4.266
71392W        W35336  13.638  33.525   0.357
71393W        W35337   7.219   1.370   3.267
71394W        W35338  12.815   4.396   1.364
71395W        W35339  35.583  44.499   0.339
71396W        W35340  31.996   7.230  14.376
71397W        W35341   6.265  35.923   3.824
71398W        W35342  20.527  20.762   1.438
71399W        W35343  44.465   0.944  11.090
71400W        W35344  32.115  11.324   4.826
71401W        W35345   0.492   8.816   0.846
71402W        W35346   1.262   3.445   0.368
71403W        W35347  35.052   3.319   4.820
71404W        W35348  43.310   1.785   1.239
71405W        W35349   5.687  12.756   2.354
71406W        W35350  33.904  33.576   2.294
71407W        W35351  41.488  15.705   2.886
71408W        W35352   5.265  30.514   0.732
71409W        W35353  11.285  10.348  11.512
71410W        W35354  35.430  40.540  12.359
71411W        W35355  40.512  40.981   1.802
71412W        W35356  30.163  19.652  11.485
71413W        W35357  31.418  33.501  12.934
71414W        W35358  32.435   0.860   2.781
71415W        W35359  35.991  17.627  11.604
71416W        W35360   7.405  14.108   2.864
71417W        W35361  33.059  25.584  12.069
71418W        W35362  31.958  28.612   3.307
71419W        W35363  42.998  24.094  10.488
71420W        W35364  15.093  31.111  14.996
71421W        W35365  39.375  27.034  12.986
71422W        W35366  41.873  41.428  13.962
71423W        W35367   7.398  11.350  12.394
71424W        W35368  24.003  37.474   3.740
71425W        W35369  26.991  40.314   0.867
71426W        W35370  13.127  32.951   1.863
71427W        W35371   3.727   5.747  14.444
71428W        W35372   5.779  16.776   2.376
71429W        W35373  41.506  43.406  13.450
71430W        W35374  11.790  44.959   1.697
71431W        W35375  18.249  10.767   4.803
71432W        W35376  27.102  11.666   1.296
71433W        W35377  18.573  29.957  12.568
71434W        W35378  27.493  11.192  13.849
71435W        W35379  44.360  34.458  14.862
71436W        W35380   1.327  28.581  11.031
71437W        W35381  21.184  15.616  13.435
71438W        W35382  19.057  11.658  12.958
71439W        W35383   0.384   8.173   3.231
71440W        W35384  12.714  11.810  11.124
71441W        W35385   3.352  33.582   1.256
71442W        W35386  37.860  25.502  14.364
71443W        W35387  29.439  27.032   4.330
71444W        W35388  26.017   8.317   4.734
71445W        W35389   2.749   2.305   3.239
71446W        W35390  25.147  21.636   1.781
71447W        W35391  22.559  43.955  13.039
71448W        W35392   9.688  37.395  13.844
71449W        W35393  21.545  34.008   4.124
71450W        W35394  26.486   5.705   2.254
71451W        W35395  39.458   3.282   2.690
71452W        W35396  39.532   0.414   1.697
71453W        W35397  23.654  18.670  11.387
71454W        W35398  38.959  13.712  12.397
71455W        W35399  25.617  29.157  12.366
71456W        W35400  33.533  17.115   3.683
71457W        W35401  32.099  44.935  14.946
71458W        W35402  16.299  34.580   2.339
71459W        W35403  21.626  14.241   1.884
71460W        W35404   7.678  31.904   5.237
71461W        W35405  13.270   3.340   1.363
71462W        W35406  16.142  40.375   1.298
71463W        W35407  21.671  17.746   1.365
71464W        W35408  28.937   4.440   3.340
71465W        W35409   7.232  30.117  14.516
71466W        W35410  10.708  10.867   2.237
71467W        W35411  10.318  20.529   4.281
71468W        W35412  24.621  15.705  14.979
71469W        W35413  21.123   6.888   2.389
71470W        W35414   4.745  36.418   2.727
71471W        W35415  19.258  36.854   1.221
71472W        W35416  13.322  36.050   2.805
71473W        W35417  19.197  39.901   1.259
71474W        W35418  29.071   8.250  14.503
71475W        W35419  31.025  24.006   3.765
71476W        W35420  21.262  13.286   4.677
71477W        W35421   1.928  34.045  14.941
71478W        W35422   2.743  29.119   0.939
71479W        W35423  32.894   7.803  11.457
71480W        W35424  25.162  30.977  11.466
71481W        W35425   2.354  10.664  12.933
71482W        W35426  43.942  40.461  10.911
71483W        W35427  37.565   2.290  12.900
71484W        W35428  44.406  27.057  12.996
71485W        W35429   7.888  15.274   2.300
71486W        W35430  38.457  43.380  11.582
71487W        W35431  31.522   5.900   2.741
71488W        W35432  17.195   4.881   2.184
71489W        W35433  28.456  28.114  11.578
71490W        W35434  20.527  10.671   1.239
71491W        W35435  42.318  44.357   2.845
71492W        W35436  22.599  17.190   0.393
71493W        W35437  43.380  16.646  12.964
71494W        W35438  26.642  18.148   1.871
71495W        W35439  40.908  14.795   4.302
71496W        W35440  44.981  33.585  11.965
71497W        W35441  11.295  15.734   3.225
71498W        W35442  12.307  33.007  14.767
71499W        W35443  32.997  42.443  13.433
71500W        W35444  14.671  37.377  13.534
71501W        W35445   7.416  39.022   3.207
71502W        W35446   1.239  39.356  13.464
71503W        W35447  23.559  21.250  12.463
71504W        W35448  44.468   3.400  12.520
71505W        W35449  34.940  31.637   3.251
71506W        W35450  15.739  15.153  11.373
71507W        W35451  21.664   8.846  13.478
71508W        W35452  17.213  20.245   0.247
71509W        W35453  29.543   0.838  10.604
71510W        W35454  20.044  32.463  12.341
71511W        W35455   4.848   6.851  11.552
71512W        W35456   1.436  35.072   4.222
71513W        W35457  20.528   1.286   4.659
71514W        W35458  38.064  29.919   0.839
71515W        W35459  37.000  41.505   0.839
71516W        W35460  39.474   6.759   3.858
71517W        W35461   4.244  19.089  14.458
71518W        W35462   3.373  10.843   3.651
71519W        W35463  40.966  34.991   2.416
71520W        W35464  34.052  13.607  14.966
71521W        W35465   1.248   9.316   0.759
71522W        W35466  43.785  22.176  13.859
71523W        W35467  25.675  40.968   1.350
71524W        W35468  27.663  44.994  13.488
71525W        W35469  24.657  22.121   3.243
71526W        W35470  33.547  36.012  10.015
71527W        W35471  28.601  33.392  14.506
71528W        W35472  15.789  23.057   5.244
71529W        W35473  43.271  38.851  11.430
71530W        W35474  15.736  36.017   2.686
71531W        W35475  15.310  12.202  14.406
71532W        W35476  26.100  23.598   3.738
71533W        W35477  20.241  26.637  14.418
71534W        W35478   1.371  37.067  14.324
71535W        W35479  24.560   2.460  13.430
71536W        W35480  17.182  40.905   0.774
71537W        W35481  37.963   1.960  12.475
71538W        W35482  38.043  36.896  13.469
71539W        W35483  30.142  35.104   1.414
71540W        W35484  11.276  28.182  14.504
71541W        W35485  14.280   9.326  12.400
71542W        W35486  18.599  42.502   4.639
71543W        W35487  37.938  14.711   2.858
71544W        W35488  41.430  38.346  14.778
71545W        W35489  36.417  34.964  12.563
71546W        W35490   2.824  33.606  13.521
71547W        W35491  13.700  40.000   3.266
71548W        W35492  24.098  32.606   0.760
71549W        W35493  18.591  44.754  13.003
71550W        W35494  34.574   1.341  11.413
71551W        W35495  24.655  23.529   3.211
71552W        W35496   2.350  25.099   0.471
71553W        W35497   7.827   9.368   2.666
71554W        W35498   6.909  40.527  10.952
71555W        W35499   6.885  32.435   4.202
71556W        W35500  11.621  26.573   4.163
71557W        W35501  39.857   4.395  11.394
71558W        W35502   1.746  23.999   0.438
71559W        W35503  41.997   9.648   4.600
71560W        W35504  33.614  41.832  14.949
71561W        W35505  26.140  11.325   2.252
71562W        W35506   9.856  42.348  13.376
71563W        W35507  34.554  37.406   3.869
71564W        W35508  14.279   5.785   4.306
71565W        W35509  12.155   4.363  12.081
71566W        W35510  10.700  10.822  10.638
71567W        W35511   6.737  21.713  12.407
71568W        W35512  40.309  37.997   4.740
71569W        W35513   1.863  16.160  12.071
71570W        W35514  21.639  18.723   1.326
71571W        W35515  20.577  38.448   2.795
71572W        W35516  36.384  28.503  11.123
71573W        W35517  28.946  14.743   0.380
71574W        W35518  32.990  29.966   0.734
71575W        W35519   9.265   3.424   0.268
71576W        W35520  32.063  32.894   1.805
71577W        W35521   3.798   9.213   1.296
71578W        W35522  38.489  26.488  14.914
71579W        W35523  37.447   4.710  12.967
71580W        W35524   0.988  39.986   4.123
71581W        W35525   0.359  44.266   1.768
71582W        W35526  30.430  32.560  11.515
71583W        W35527  20.644  23.122  11.610
71584W        W35528   6.861  39.905   3.800
71585W        W35529  33.621  38.490   3.230
71586W        W35530  40.533  13.215   3.172
71587W        W35531  38.567  43.513   1.294
71588W        W35532  36.864  26.544   0.360
71589W        W35533  17.652  27.646   1.897
71590W        W35534  21.222   6.290   0.784
71591W        W35535  16.172   7.417  10.016
71592W        W35536  26.575   8.683   1.243
71593W        W35537  19.732   1.761   3.693
71594W        W35538   6.319  36.988  12.865
71595W        W35539  10.286  31.976   0.283
71596W        W35540  39.412  21.567  10.432
71597W        W35541  22.586  43.004  11.556
71598W        W35542  34.512  14.743   2.232
71599W        W35543  44.968  30.456   0.254
71600W        W35544  27.662  40.961   2.277
71601W        W35545   4.417  23.103   3.158
71602W        W35546   0.922  24.511   2.792
71603W        W35547  25.568  19.780   4.157
71604W        W35548   7.300  43.448   0.352
71605W        W35549  42.792  42.927   1.443
71606W        W35550  41.981  26.634   1.417
71607W        W35551   3.383  17.776  12.488
71608W        W35552   2.403  31.568   4.675
71609W        W35553  21.674  10.783  14.370
71610W        W35554   6.767  12.843  10.519
71611W        W35555  29.488  18.093   0.809
71612W        W35556  31.499  30.444   4.305
71613W        W35557  34.382   1.808   2.814
71614W        W35558  36.388  17.098  13.816
71615W        W35559   0.767  21.018  13.802
71616W        W35560  34.882  41.973  11.900
71617W        W35561  44.488  10.207   3.304
71618W        W35562  27.061  42.891  14.428
71619W        W35563  37.364  13.187  11.857
71620W        W35564  16.731  37.403   0.728
71621W        W35565  40.524  16.282   0.734
71622W        W35566  41.413  42.838   3.831
71623W        W35567  28.133  22.696   1.272
71624W        W35568  44.778   2.330   3.198
71625W        W35569  33.600  34.430   4.660
71626W        W35570  28.631  42.870  11.476
71627W        W35571  40.860   2.351   4.647
71628W        W35572  39.495  11.270   4.699
71629W        W35573  26.018   9.854   2.294
71630W        W35574  34.074  12.799  12.998
71631W        W35575  30.645  28.093  14.795
71632W        W35576   4.921  41.320  10.439
71633W        W35577  22.699  37.453   3.369
71634W        W35578   5.782  33.471  11.945
71635W        W35579  34.478   1.385   3.207
71636W        W35580  10.685  20.660  11.014
71637W        W35581  11.837  44.968  13.329
71638W        W35582   7.379   0.421  13.497
71639W        W35583  13.832  27.580   2.321
71640W        W35584   6.881   1.780   0.962
71641W        W35585  23.016   5.697  10.443
71642W        W35586  24.139   9.271  13.392
71643W        W35587  23.241  15.719  13.341
71644W        W35588  19.547  41.819  11.521
71645W        W35589  17.252  22.054   3.367
71646W        W35590  41.404  24.674  14.330
71647W        W35591   4.307  21.557   1.221
71648W        W35592  16.291  35.951  13.453
71649W        W35593  25.100  24.187   3.227
71650W        W35594  17.233  10.245   4.210
71651W        W35595  17.726  31.479  12.978
71652W        W35596  13.823  37.506  12.830
71653W        W35597  18.282   0.310  13.488
71654W        W35598  37.891  21.522   1.790
71655W        W35599  36.409   5.205   2.707
71656W        W35600  28.113  35.367  14.400
71657W        W35601  14.610  17.105  10.012
71658W        W35602  27.630   1.773   1.394
71659W        W35603  29.067  29.557   4.332
71660W        W35604  32.135  35.867   2.675
71661W        W35605  20.235   4.313   2.719
71662W        W35606  27.514  31.474  14.318
71663W        W35607  21.607  12.314  11.587
71664W        W35608   1.934  34.902  10.560
71665W        W35609  11.676  36.089   2.883
71666W        W35610   3.376  11.128   0.435
71667W        W35611  14.615  22.157   2.868
71668W        W35612  17.676   3.908   1.745
71669W        W35613  20.637  29.485   3.371
71670W        W35614  34.007  33.439  12.882
71671W        W35615  36.534  39.855  10.145
71672W        W35616  35.375  32.115  13.871
71673W        W35617   6.282  32.048  13.420
71674W        W35618  26.033  44.325  11.027
71675W        W35619   5.882  26.982   3.254
71676W        W35620  10.665  31.091   0.841
71677W        W35621  16.592  28.618  12.085
71678W        W35622  15.201   0.917  10.147
71679W        W35623  10.676  39.378  14.364
71680W        W35624   4.794  15.607  14.326
71681W        W35625  29.141  10.689   3.690
71682W        W35626  40.854  13.748  14.831
71683W        W35627  15.301  42.389   2.299
71684W        W35628  26.168  39.039  12.373
71685W        W35629  38.391   1.762   1.905
71686W        W35630  44.269  27.162   0.907
71687W        W35631  27.485   7.671  14.968
71688W        W35632  36.456  14.177  12.031
71689W        W35633  44.285  25.511  10.579
71690W        W35634  28.063  21.019   4.670
71691W        W35635   8.704   6.217   2.872
71692W        W35636   5.351  29.482   4.741
71693W        W35637  31.936   1.391  14.449
71694W        W35638   4.906  14.819   1.210
71695W        W35639  41.415  14.328   4.634
71696W        W35640  11.226  44.426  12.843
71697W        W35641  20.596  15.231  13.415
71698W        W35642  37.835  14.623  13.505
71699W        W35643  40.864   8.886   4.193
71700W        W35644  37.894  21.030  11.974
71701W        W35645  20.611   4.740  11.482
71702W        W35646  26.475  17.171  14.281
71703W        W35647  10.716  10.875   4.719
71704W        W35648  39.062  27.461   4.118
71705W        W35649   3.429   8.285   2.716
71706W        W35650  21.708  22.170  10.106
71707W        W35651  25.011  14.722   2.355
71708W        W35652   7.668  16.127   2.810
71709W        W35653  23.104   2.228  10.617
71710W        W35654  30.927  18.133   3.334
71711W        W35655  18.221   1.787   3.256
71712W        W35656  36.433  18.732  10.920
71713W        W35657  28.620  30.607  13.935
71714W        W35658  42.779   3.722  14.352
71715W        W35659  28.994  35.912  11.023
71716W        W35660  13.779  11.858  13.845
71717W        W35661  35.585  34.539  12.362
71718W        W35662  10.724  20.663  10.407
71719W        W35663   4.400  23.629  12.008
71720W        W35664  37.835  16.166   1.774
71721W        W35665  14.243   0.961   2.391
71722W        W35666  32.500   1.955  14.766
71723W        W35667  29.946  23.185   4.253
71724W        W35668  43.841  31.505  14.008
71725W        W35669   5.885  30.029  11.597
71726W        W35670  44.768  41.969  13.858
71727W        W35671  17.268  25.588   1.344
71728W        W35672  14.126  42.888  13.831
71729W        W35673  17.290  39.428  12.439
71730W        W35674  41.865  42.881   3.221
71731W        W35675  26.105  38.845   2.285
71732W        W35676  17.716  16.800  12.870
71733W        W35677   9.178  27.503   2.672
71734W        W35678  31.929   0.327   4.756
71735W        W35679   6.742  20.547  13.547
71736W        W35680  10.747   2.879  14.312
71737W        W35681   1.841  34.548  10.610
71738W        W35682  19.145   5.732   2.299
71739W        W35683  33.926   7.348   4.697
71740W        W35684   0.485  13.233  13.048
71741W        W35685   9.782  25.536   3.380
71742W        W35686  31.969  34.442   1.854
71743W        W35687   9.265  10.319   1.411
71744W        W35688  11.208   1.946  11.100
71745W        W35689  16.646  36.028  12.568
71746W        W35690  36.848  40.969   2.188
71747W        W35691  27.497   6.867   2.903
71748W        W35692  23.122   6.709  12.001
71749W        W35693  23.214  31.588   3.780
71750W        W35694  13.648  26.585   3.683
71751W        W35695   6.916  16.712  10.970
71752W        W35696  22.553   7.839  13.314
71753W        W35697  44.471  17.597   2.212
71754W        W35698  43.846  33.052   1.917
71755W        W35699  41.525   4.440  13.352
71756W        W35700  22.997  35.865   3.385
71757W        W35701  24.607   0.852  12.844
71758W        W35702  35.976  27.671   4.756
71759W        W35703  13.676  12.253   4.164
71760W        W35704  13.303   1.758  11.055
71761W        W35705  23.717  36.494   4.624
71762W        W35706  30.988   8.728   4.226
71763W        W35707   8.781  23.080  13.484
71764W        W35708  41.904  43.927   0.826
71765W        W35709  11.669  28.595  13.491
71766W        W35710  21.659  26.990   1.757
71767W        W35711  23.606  32.096  14.796
71768W        W35712  27.106  28.040  14.309
71769W        W35713  38.474   0.487   0.320
71770W        W35714   9.710  18.584   9.547
71771W        W35715  24.974   7.209   2.262
71772W        W35716   4.406   9.204   5.223
71773W        W35717  38.951   4.945  12.411
71774W        W35718  35.392   5.767   2.771
71775W        W35719  35.950  37.502   1.694
71776W        W35720   3.261  38.895  11.475
71777W        W35721  14.723   3.303  13.060
71778W        W35722  43.874  20.195  12.049
71779W        W35723  18.154   5.401  11.551
71780W        W35724  15.801   0.753   5.772
71781W        W35725  13.319   3.729   3.188
71782W        W35726  31.582  40.895   1.824
71783W        W35727   1.896  10.659   2.766
71784W        W35728  14.728   4.436   1.927
71785W        W35729  13.626  42.382   1.248
71786W        W35730  21.181  36.057   3.341
71787W        W35731  19.105  39.932  13.413
71788W        W35732  27.581   8.404  11.547
71789W        W35733  38.914   1.940   4.685
71790W        W35734  12.233  20.685   4.642
71791W        W35735  32.898  16.695   1.831
71792W        W35736  15.695  37.029  13.966
71793W        W35737  38.562   2.252  12.016
71794W        W35738   1.430  25.607   0.864
71795W        W35739  18.114  38.827   4.823
71796W        W35740  33.103   1.240   4.691
71797W        W35741  27.661  23.686  12.952
71798W        W35742  39.854  22.249   1.340
71799W        W35743  39.924  17.103  10.900
71800W        W35744  36.491  12.699   9.961
71801W        W35745  35.078  27.065   0.447
71802W        W35746   7.912  41.887   0.779
71803W        W35747  15.278  41.462  10.922
71804W        W35748  20.094  22.181  12.942
71805W        W35749  43.005  19.039  13.431
71806W        W35750  34.376  38.551   4.200
71807W        W35751  25.986  11.146  13.470
71808W        W35752  14.291   6.378  10.888
71809W        W35753  23.528   6.763  12.860
71810W        W35754  28.121  21.240  11.897
71811W        W35755  11.824  23.078  11.981
71812W        W35756  33.423  15.652  11.391
71813W        W35757  40.830  42.977  13.843
71814W        W35758  22.145  43.876  11.445
71815W        W35759   2.427   8.703  13.337
71816W        W35760  43.886  35.873  13.331
71817W        W35761   4.724   9.787  13.931
71818W        W35762  24.049  13.674   2.401
71819W        W35763  33.558   8.842   2.306
71820W        W35764  28.504  35.579   0.962
71821W        W35765  14.334  17.228  13.023
71822W        W35766  35.381  37.900  14.432
71823W        W35767  33.589  31.528   2.311
71824W        W35768  19.041   8.357  14.845
71825W        W35769  34.593  31.530   0.380
71826W        W35770  33.925  44.984  13.025
71827W        W35771  11.627  10.642  11.932
71828W        W35772  37.959  31.415  11.416
71829W        W35773  35.390   6.194   4.806
71830W        W35774  21.225  20.627  11.909
71831W        W35775  10.303   8.664   9.939
71832W        W35776   6.713  40.540  13.406
71833W        W35777  26.112  42.840   3.740
71834W        W35778   2.792  10.789  11.969
71835W        W35779  32.963  19.252  11.506
71836W        W35780  42.347  13.702   0.433
71837W        W35781  15.732   6.427  14.481
71838W        W35782  25.142   0.879  11.897
71839W        W35783  41.802   7.732  12.070
71840W        W35784   2.251   6.864  11.007
71841W        W35785  11.310  27.600   3.640
71842W        W35786  19.216  40.407   1.772
71843W        W35787  36.087  37.416  13.457
71844W        W35788   8.745  33.901   4.772
71845W        W35789  34.895  44.827   1.375
71846W        W35790  32.956  30.981   3.350
71847W        W35791   6.698  17.215   1.417
71848W        W35792   1.342  43.889  13.459
71849W        W35793  38.066  43.320   3.175
71850W        W35794  17.607  15.679   0.811
71851W        W35795  17.671   1.481  14.015
71852W        W35796  35.941  38.014   0.461
71853W        W35797   0.797   1.465  12.543
71854W        W35798   4.758   9.310  10.628
71855W        W35799  30.471  21.165  14.008
71856W        W35800  26.642  14.140   2.696
71857W        W35801  21.516  27.985   2.755
71858W        W35802  40.014   5.215   4.613
71859W        W35803  18.546  10.830  11.455
71860W        W35804   9.176  27.184  13.878
71861W        W35805  43.979  33.951  11.045
71862W        W35806   1.295   8.825   2.847
71863W        W35807  12.811  10.706   3.785
71864W        W35808  42.391   1.359  13.959
71865W        W35809  43.326  27.671   4.598
71866W        W35810   1.968  39.836  13.955
71867W        W35811  20.526  28.147  12.414
71868W        W35812   8.341  15.189  12.495
71869W        W35813  21.543  14.736  11.028
71870W        W35814   5.908  12.673  14.475
71871W        W35815   7.806  32.923  11.009
71872W        W35816  38.905   3.853  12.876
71873W        W35817  38.850  31.463  10.019
71874W        W35818  42.511  23.125   2.730
71875W        W35819  26.988  23.050  11.981
71876W        W35820  15.593  28.672  10.960
71877W        W35821  34.922  32.956  11.510
71878W        W35822  23.012  29.941  12.828
71879W        W35823   7.216  25.988   1.834
71880W        W35824  35.913  29.613  14.813
71881W        W35825  22.093   0.345   1.243
71882W        W35826  31.971   8.759  12.398
71883W        W35827  18.184  42.311  13.800
71884W        W35828  30.135  32.061   3.201
71885W        W35829   2.248   9.315   3.177
71886W        W35830  11.333  10.344  11.943
71887W        W35831  36.007   0.377   0.407
71888W        W35832  38.821  35.057  12.578
71889W        W35833  14.263  43.776   1.299
71890W        W35834  18.558  28.066   0.265
71891W        W35835   4.874  33.561   4.277
71892W        W35836  40.008  17.081  14.309
71893W        W35837   4.905  38.823   3.776
71894W        W35838  38.048  23.077  11.528
71895W        W35839   2.723  13.644  11.004
71896W        W35840   5.701  37.440  13.428
71897W        W35841  30.591  19.054   1.750
71898W        W35842  43.882   2.306  10.561
71899W        W35843  37.461  25.540  14.375
71900W        W35844   6.411  40.992   0.265
71901W        W35845  31.951  19.110  11.552
71902W        W35846  42.288  12.253   0.319
71903W        W35847   3.371  15.248   3.777
71904W        W35848  44.914  26.132  14.007
71905W        W35849  24.499  28.987   3.260
71906W        W35850   9.257  20.593  11.984
71907W        W35851  42.383  30.097   2.353
71908W        W35852  14.324   7.820   2.304
71909W        W35853  21.515  41.809  14.356
71910W        W35854  32.970   2.863  13.365
71911W        W35855  38.384   4.248   3.728
71912W        W35856  39.990  37.486   0.291
71913W        W35857  23.988   2.451  14.944
71914W        W35858  35.940  21.138   2.807
71915W        W35859  33.052  41.375  13.807
71916W        W35860  26.064  40.852  12.089
71917W        W35861  34.875   2.390   0.808
71918W        W35862   7.183   4.302  13.467
71919W        W35863  13.613  23.199  12.868
71920W        W35864  19.651  33.409   2.226
71921W        W35865  26.127   8.761   3.155
71922W        W35866   6.754  35.990   4.802
71923W        W35867   8.389  37.851   0.302
71924W        W35868   5.271  41.391   1.796
71925W        W35869  42.522  11.748  10.980
71926W        W35870  38.467  13.200  14.927
71927W        W35871  19.746  15.757  11.016
71928W        W35872   5.373  22.614  10.899
71929W        W35873  39.355  12.216   1.847
71930W        W35874  12.673  23.028  10.956
71931W        W35875   8.791   5.828   3.153
71932W        W35876   7.301   0.329   1.848
71933W        W35877  32.441  11.280  11.093
71934W        W35878   0.363  32.420  10.455
71935W        W35879  40.535   0.483   4.712
71936W        W35880   8.846  18.131   0.345
71937W        W35881  28.461  24.578  12.362
71938W        W35882  38.022  20.223   4.315
71939W        W35883   6.858   1.884  11.424
71940W        W35884  19.118  33.082  13.008
71941W        W35885  25.165  24.191   0.813
71942W        W35886  30.418  16.088   0.412
71943W        W35887  14.242  40.810  12.059
71944W        W35888  31.930  22.515  14.342
71945W        W35889  34.459  10.708   1.710
71946W        W35890  24.162  32.070   3.683
71947W        W35891  12.809   6.745   4.309
71948W        W35892   4.370  27.578   3.297
71949W        W35893  40.532  24.637  14.511
71950W        W35894  23.686  38.336  13.841
71951W        W35895  27.170  41.945  10.594
71952W        W35896  41.900  22.149   0.376
71953W        W35897  39.934  26.487  11.092
71954W        W35898  10.185  14.145   3.720
71955W        W35899  18.251  13.323   1.372
71956W        W35900  19.277  23.242   2.377
71957W        W35901  19.713  25.063   2.842
71958W        W35902  41.316  22.124  14.301
71959W        W35903   0.834  30.465  13.000
71960W        W35904  41.826  41.944   4.173
71961W        W35905  42.023  42.511   2.849
71962W        W35906  30.464   7.187  12.576
71963W        W35907  20.231  14.156   3.842
71964W        W35908  34.426   0.291   4.792
71965W        W35909  13.708  16.203  11.979
71966W        W35910  12.723  42.796   4.639
71967W        W35911  36.069  28.573   2.809
71968W        W35912  25.635  23.219  13.546
71969W        W35913   2.870  14.177   2.841
71970W        W35914  25.055   6.705   0.768
71971W        W35915  26.598   9.843  13.928
71972W        W35916  14.111  41.423   3.296
71973W        W35917  24.018   2.732  10.618
71974W        W35918  37.962   9.291  12.895
71975W        W35919  20.184  28.559   3.833
71976W        W35920  39.064   6.769  10.148
71977W        W35921  30.586  42.785  13.348
71978W        W35922  11.346  34.955  12.549
71979W        W35923  12.682  13.661   3.661
71980W        W35924  31.608  14.247  13.006
71981W        W35925  15.093  21.587  13.439
71982W        W35926   3.856  13.747  11.554
71983W        W35927  38.029  27.494   2.362
71984W        W35928  35.579  34.895  10.519
71985W        W35929  31.910  12.325  14.928
71986W        W35930   7.866  25.693  11.068
71987W        W35931  40.308   2.882   0.946
71988W        W35932   7.751   0.279   2.328
71989W        W35933  18.705  23.149  14.319
71990W        W35934  32.594   4.914   4.289
71991W        W35935  33.397  19.721  11.475
71992W        W35936  38.359  40.498   2.391
71993W        W35937  37.554  19.281   3.231
71994W        W35938  34.387   0.755   1.394
71995W        W35939  39.979  25.125  11.980
71996W        W35940  41.818   4.913  14.970
71997W        W35941  14.175   5.206   0.790
71998W        W35942  28.980  39.061   3.158
71999W        W35943  39.483  36.514  14.950
72000W        W35944   7.721  25.518  14.012
72001W        W35945   0.425  33.524   2.783
72002W        W35946  14.125  25.598   4.707
72003W        W35947   3.368  33.437   4.251
72004W        W35948  18.263  31.571   2.191
72005W        W35949  30.469   9.689   4.676
72006W        W35950  11.373  31.574   4.769
72007W        W35951   5.258  25.508  14.441
72008W        W35952  26.078  36.899  14.386
72009W        W35953  19.685  13.713  13.355
72010W        W35954  44.489  40.478  14.997
72011W        W35955  31.104  19.538   5.183
72012W        W35956  23.205  37.892   2.267
72013W        W35957  33.940   6.734  13.042
72014W        W35958   0.925  30.953   3.768
72015W        W35959  16.600  25.963  14.784
72016W        W35960   5.793  26.536  14.906
72017W        W35961  20.655  39.317   3.190
72018W        W35962  21.263  44.476   0.308
72019W        W35963  42.462  26.967   2.758
72020W        W35964   0.962  30.468   4.777
72021W        W35965  18.294  21.220   5.097
72022W        W35966   2.431  25.967   1.382
72023W        W35967   6.868  22.736   4.135
72024W        W35968  23.592   5.810  11.506
72025W        W35969  38.854  26.048  14.353
72026W        W35970   6.398  33.125  12.450
72027W        W35971   7.226  12.636  14.402
72028W        W35972   1.790  34.954  10.965
72029W        W35973  14.112  24.591   4.182
72030W        W35974  33.512  44.000   2.763
72031W        W35975   0.446  16.709  11.410
72032W        W35976  35.984  32.511   3.730
72033W        W35977  17.196  13.214  11.475
72034W        W35978  27.537   4.397  10.542
72035W        W35979  25.998  25.520  14.418
72036W        W35980  28.671  36.367  12.853
72037W        W35981   2.724  10.756   2.178
72038W        W35982   7.687   8.249   1.914
72039W        W35983   3.791  23.166   3.279
72040W        W35984   5.411   7.323  13.925
72041W        W35985  20.256   4.323  13.948
72042W        W35986  23.500  44.366  13.829
72043W        W35987  35.565  15.617  14.030
72044W        W35988  21.126   8.330  11.383
72045W        W35989  21.111   0.303  10.457
72046W        W35990  40.518  10.818   2.826
72047W        W35991  41.342  10.341  14.508
72048W        W35992  29.157  43.348   4.648
72049W        W35993  27.510  15.097   1.931
72050W        W35994   7.298   4.860   1.314
72051W        W35995  43.019  36.048   0.459
72052W        W35996  25.703  34.073  10.420
72053W        W35997   2.264  28.111  13.800
72054W        W35998   8.300  18.673  14.827
72055W        W35999  19.210  31.554  13.400
72056W        W36000  43.330  13.271   1.704
72057W        W36001  31.637   3.454   1.338
72058W        W36002  42.916  13.813  12.473
72059W        W36003   9.355   5.729  12.891
72060W        W36004  17.776  24.148  13.342
72061W        W36005  41.043  43.767   3.223
72062W        W36006  32.033  28.090  11.055
72063W        W36007  38.428  12.205   3.735
72064W        W36008   7.795  43.392  11.042
72065W        W36009  29.563   5.238  11.433
72066W        W36010  15.642  23.220   3.648
72067W        W36011  40.972  40.383   4.125
72068W        W36012  23.729  31.510  12.867
72069W        W36013  43.499  27.583   0.805
72070W        W36014  15.145  31.629   3.220
72071W        W36015   1.856  35.552  11.581
72072W        W36016  20.098  12.263   1.791
72073W        W36017   6.356  21.699  14.808
72074W        W36018  17.220   9.796   5.761
72075W        W36019  21.700  28.017   0.875
72076W        W36020  43.297  13.114   3.223
72077W        W36021  36.925  30.437  11.977
72078W        W36022   2.461  32.095   3.774
72079W        W36023  22.608   7.796  11.112
72080W        W36024  33.925  23.221   1.260
72081W        W36025  34.577  11.769   0.743
72082W        W36026  28.964  12.836   1.789
72083W        W36027  27.111  20.599  13.393
72084W        W36028  26.509  16.779   3.358
72085W        W36029  13.643  31.997   4.751
72086W        W36030  17.605  13.286   4.662
72087W        W36031  24.999  16.649  10.455
72088W        W36032  25.183  39.551   4.161
72089W        W36033  23.214   2.381   0.457
72090W        W36034   6.752  24.054   3.725
72091W        W36035  16.582  12.273  11.893
72092W        W36036  43.286  10.294   1.917
72093W        W36037  35.012  16.314   3.750
72094W        W36038  23.548  44.378  13.360
72095W        W36039  29.986   9.231  11.407
72096W        W36040  36.933   9.710   1.280
72097W        W36041  34.104   8.784   2.181
72098W        W36042  23.136  37.885  14.890
72099W        W36043  18.556  27.571   1.272
72100W        W36044   1.273  18.128   4.799
72101W        W36045   3.279  21.119  12.937
72102W        W36046  10.373  23.514  14.905
72103W        W36047  14.147   1.791   0.811
72104W        W36048  27.603  38.952   0.782
72105W        W36049  26.123  21.156  10.966
72106W        W36050  28.520  40.870   2.347
72107W        W36051  24.195  24.120   3.849
72108W        W36052  35.880  28.496  10.936
72109W        W36053  38.520  23.550  11.011
72110W        W36054   5.755   2.811   1.761
72111W        W36055   3.296  23.690  13.878
72112W        W36056  24.094  19.180  11.407
72113W        W36057  30.474  14.612   0.950
72114W        W36058  25.628  33.120  11.069
72115W        W36059  39.996  26.184   0.251
72116W        W36060  35.465   6.875   1.429
72117W        W36061  31.113   8.745  14.862
72118W        W36062  36.864  35.041  11.496
72119W        W36063  19.108  33.610  14.279
72120W        W36064  32.496  26.636   3.245
72121W        W36065  20.716  32.422   3.633
72122W        W36066  26.642  37.836   4.775
72123W        W36067  21.698   4.921   1.334
72124W        W36068  27.944  42.526   2.830
72125W        W36069   2.410  24.984  13.879
72126W        W36070   3.412  14.154  11.387
72127W        W36071  39.546  26.057  13.889
72128W        W36072  17.743   4.707   0.896
72129W        W36073  37.935  18.275  11.960
72130W        W36074  18.062  36.868   2.769
72131W        W36075  27.055  31.899  10.443
72132W        W36076  19.657  39.903   4.168
72133W        W36077  12.755  44.899   0.923
72134W        W36078  19.261   8.378   3.244
72135W        W36079  32.950   9.664   3.294
72136W        W36080  16.618  35.943   0.954
72137W        W36081  16.680  37.462  11.596
72138W        W36082  11.255   3.812   5.764
72139W        W36083  14.272   9.657   0.246
72140W        W36084  42.789   2.762  10.445
72141W        W36085  14.287  37.499   3.304
72142W        W36086  15.768  25.691  14.783
72143W        W36087  31.466  34.002   2.744
72144W        W36088  43.361  16.577  11.861
72145W        W36089   1.350  22.106   2.204
72146W        W36090  26.180   5.374   2.406
72147W        W36091   4.352  12.737   4.258
72148W        W36092  41.910  37.402   3.769
72149W        W36093   3.866  15.808   4.342
72150W        W36094   0.934  22.617   4.668
72151W        W36095  12.344   9.810  13.859
72152W        W36096  11.715   5.329   3.280
72153W        W36097  38.029   4.811  12.017
72154W        W36098  21.742  29.468  12.447
72155W        W36099  26.139   1.289   1.801
72156W        W36100  15.196   0.353  10.078
72157W        W36101  38.458   2.799  13.517
72158W        W36102  15.766  33.475  12.094
72159W        W36103  25.163   5.368   1.808
72160W        W36104  25.192  35.503   4.235
72161W        W36105  20.198  28.630  10.514
72162W        W36106  16.664  38.872   3.350
72163W        W36107  39.500  35.026  10.634
72164W        W36108  17.609  32.443   0.379
72165W        W36109  13.142  35.948  10.588
72166W        W36110  20.146  16.194  13.943
72167W        W36111   4.364  30.920   2.388
72168W        W36112  29.527  11.777   2.233
72169W        W36113  42.853  12.358  12.971
72170W        W36114   5.426  43.901  14.496
72171W        W36115  25.652  23.692   2.379
72172W        W36116  16.179   0.292   0.879
72173W        W36117   8.204  23.573  10.908
72174W        W36118   9.252  26.573  12.027
72175W        W36119  32.492  34.058  10.931
72176W        W36120  26.619   2.239  11.885
72177W        W36121  30.511  38.337  12.850
72178W        W36122   9.844  44.938   1.256
72179W        W36123   5.786  18.631  12.515
72180W        W36124  43.401   3.754  12.548
72181W        W36125  39.002  36.881   2.197
72182W        W36126  20.088   9.718  11.905
72183W        W36127   3.926  15.806  10.033
72184W        W36128  14.805  30.074   3.329
72185W        W36129  36.862  31.424  12.846
72186W        W36130  22.618  31.124  11.051
72187W        W36131  44.943  36.564  10.526
72188W        W36132   9.822  23.131  10.985
72189W        W36133  41.863  32.984   4.127
72190W        W36134  33.381   1.299   0.314
72191W        W36135  20.537  21.709   0.262
72192W        W36136  19.547   1.855  11.410
72193W        W36137  16.083  18.288  13.492
72194W        W36138  39.912  32.509  11.938
72195W        W36139  30.063  21.655  13.051
72196W        W36140   7.190  34.890   3.160
72197W        W36141  40.321   3.395  10.982
72198W        W36142  43.989  13.711   2.245
72199W        W36143   2.378  40.051   5.263
72200W        W36144  16.804  17.136   0.363
72201W        W36145  37.877   4.726   1.814
72202W        W36146  23.688  17.112   1.776
72203W        W36147  32.128   9.715   4.193
72204W        W36148  15.213  13.762   2.818
72205W        W36149  25.984  13.169   0.967
72206W        W36150  22.684  27.184   0.274
72207W        W36151   6.376   8.738  11.008
72208W        W36152  42.888  30.952   4.834
72209W        W36153   5.209  13.247  12.470
72210W        W36154   5.707  44.408   0.849
72211W        W36155  37.049  43.991  14.885
72212W        W36156  44.001  37.373  14.900
72213W        W36157  34.389  10.274  11.436
72214W        W36158  12.795   7.853   1.912
72215W        W36159  14.319  43.372   3.635
72216W        W36160  41.011   9.837   0.797
72217W        W36161  10.840  28.108   3.213
72218W        W36162  20.644  15.797  12.924
72219W        W36163  17.582  15.287  10.478
72220W        W36164  43.937   7.297   0.475
72221W        W36165  29.499   4.350   4.289
72222W        W36166  14.196  25.492   1.274
72223W        W36167  39.022  42.517   1.246
72224W        W36168  34.516  42.419  14.961
72225W        W36169  19.109  13.701   4.831
72226W        W36170  41.009   9.838  14.018
72227W        W36171   7.218  44.828  14.791
72228W        W36172  13.311  14.132  14.362
72229W        W36173  15.788  40.430  14.949
72230W        W36174  13.682  20.050  11.478
72231W        W36175   0.957  15.607  11.991
72232W        W36176   4.371  35.956  10.564
72233W        W36177  10.326  41.885  10.485
72234W        W36178   8.208  40.309  12.502
72235W        W36179   8.742  32.550  10.133
72236W        W36180  12.818  28.613   4.699
72237W        W36181   8.835  29.992   0.280
72238W        W36182   2.377  32.480  11.601
72239W        W36183  31.438  33.109  14.849
72240W        W36184   8.228  17.691   0.393
72241W        W36185   9.182  39.455   4.610
72242W        W36186  25.548   9.736   1.754
72243W        W36187  37.362  10.284  14.024
72244W        W36188  16.230  22.528   3.733
72245W        W36189   5.907  31.638   1.390
72246W        W36190  20.557  25.698   2.209
72247W        W36191  42.353  34.469  12.019
72248W        W36192   4.906  39.828   0.446
72249W        W36193  25.057  36.949  11.580
72250W        W36194  15.178  43.300  11.553
72251W        W36195  18.680  28.505   1.861
72252W        W36196  27.629  12.682  11.965
72253W        W36197  44.955  35.882   4.762
72254W        W36198  10.642  16.694   1.911
72255W        W36199  30.944   5.358  14.012
72256W        W36200  19.282  19.159   4.830
72257W        W36201  24.547  18.132  13.904
72258W        W36202  20.613  31.414  11.913
72259W        W36203  14.619   8.666  13.530
72260W        W36204  28.999  20.239  14.499
72261W        W36205  17.144   8.273   4.171
72262W        W36206  29.165   7.404  11.405
72263W        W36207  12.705  18.761  12.515
72264W        W36208  26.150   1.282   3.150
72265W        W36209  18.699  30.414  12.959
72266W        W36210  23.018   5.744  11.530
72267W        W36211  33.387  37.364  11.034
72268W        W36212   3.852  35.993   4.739
72269W        W36213  31.055  18.248   9.982
72270W        W36214   0.921  30.540  12.031
72271W        W36215  38.969  39.811   2.360
72272W        W36216  38.540  10.323   3.735
72273W        W36217  11.749  38.481   4.323
72274W        W36218  12.671  23.694  14.401
72275W        W36219  38.052  39.521  10.572
72276W        W36220   7.259   7.363   2.414
72277W        W36221  18.689  37.037  14.795
72278W        W36222   7.263  29.505   2.781
72279W        W36223  22.704  20.751  12.508
72280W        W36224   0.248  22.534   1.747
72281W        W36225  13.683  11.190   3.649
72282W        W36226  38.983  40.920  11.487
72283W        W36227   8.753  39.020   4.655
72284W        W36228  27.559  27.609  11.428
72285W        W36229  40.447  34.979   4.123
72286W        W36230  32.611  30.041  13.839
72287W        W36231   1.245  27.109  14.836
72288W        W36232  30.100   5.264  10.463
72289W        W36233  20.738  25.675  13.332
72290W        W36234  29.082  18.783  10.936
72291W        W36235  12.126  27.082   0.411
72292W        W36236  20.625  29.482  14.291
72293W        W36237  10.852  42.283   1.742
72294W        W36238  42.905   1.791   1.845
72295W        W36239  23.159  11.139  13.913
72296W        W36240  12.266  34.890  12.868
72297W        W36241   6.365  29.539   3.231
72298W        W36242  42.906  11.202  13.885
72299W        W36243  34.077  28.997   2.258
72300W        W36244  39.560   5.258  10.981
72301W        W36245   3.414   4.223  12.891
72302W        W36246   4.814   7.795  14.783
72303W        W36247   9.352  10.259   2.707
72304W        W36248  39.332  19.638  13.471
72305W        W36249  34.114  34.417   5.204
72306W        W36250  44.284  38.332  14.767
72307W        W36251  17.748  10.273   2.800
72308W        W36252  33.395  42.459   0.889
72309W        W36253  13.257  41.858   2.753
72310W        W36254  35.504  14.328   0.349
72311W        W36255  34.864  19.219   1.348
72312W        W36256  16.076   7.294  13.866
72313W        W36257  36.946  39.520   1.343
72314W        W36258  24.709  24.617  14.851
72315W        W36259  12.262   8.319   3.723
72316W        W36260  21.742  11.229   0.875
72317W        W36261  30.940   6.200  10.431
72318W        W36262  16.105  29.667  10.581
72319W        W36263  44.928  12.116  10.469
72320W        W36264  14.702   6.865   3.299
72321W        W36265  21.662  13.242  13.828
72322W        W36266  17.206  14.131  13.873
72323W        W36267  13.754  13.297   4.120
72324W        W36268  29.608   6.802   4.213
72325W        W36269  35.088  11.787  10.932
72326W        W36270  39.340  14.791  12.864
72327W        W36271   2.442  22.060  10.600
72328W        W36272  18.092  32.420  13.979
72329W        W36273  29.506  11.678  13.051
72330W        W36274  41.886   9.727   3.226
72331W        W36275  34.868  21.741  12.089
72332W        W36276   4.301  27.534   2.714
72333W        W36277  18.743  39.889   1.748
72334W        W36278  32.513  37.578  12.977
72335W        W36279  28.049   2.458   1.935
72336W        W36280   7.908  35.007  11.990
72337W        W36281  11.365  27.682   1.443
72338W        W36282  31.576  34.114  11.461
72339W        W36283  17.631  20.570   4.156
72340W        W36284  24.536   1.300   0.301
72341W        W36285  21.092  22.050  10.040
72342W        W36286  17.111  35.965   2.705
72343W        W36287  22.205  28.548  14.846
72344W        W36288  24.702  25.050   2.409
72345W        W36289  19.137  13.844   4.283
72346W        W36290  30.972   9.769  11.389
72347W        W36291   0.754  17.619  12.465
72348W        W36292   0.330  38.846  13.348
72349W        W36293  32.028  40.017  13.404
72350W        W36294  28.009  11.686   2.771
72351W        W36295   9.383  23.063   3.161
72352W        W36296   9.654  37.907  12.049
72353W        W36297   8.303  31.030   3.766
72354W        W36298  34.900  37.473  10.510
72355W        W36299  29.512  13.241   1.380
72356W        W36300  32.484  17.252   9.988
72357W        W36301  22.596  27.072  13.921
72358W        W36302  39.520   5.382  11.519
72359W        W36303  11.271  40.885  12.088
72360W        W36304  13.795  10.341   3.794
72361W        W36305  37.971  22.207   4.615
72362W        W36306  25.621  33.028   3.792
72363W        W36307   2.895  27.483  13.038
72364W        W36308   6.238  29.658   0.354
72365W        W36309   9.821  19.142  10.029
72366W        W36310   4.253  39.832   2.410
72367W        W36311   0.971  10.348  14.409
72368W        W36312  35.087  39.360  11.005
72369W        W36313  44.473  32.044   0.806
72370W        W36314   8.765  25.536   2.198
72371W        W36315  34.613   4.400  10.517
72372W        W36316  39.507   4.450   3.227
72373W        W36317  12.848   0.844  14.341
72374W        W36318  33.435   1.816   4.297
72375W        W36319  39.918  27.991  14.374
72376W        W36320   6.686   2.853   1.240
72377W        W36321  33.938  37.443  10.407
72378W        W36322  19.716  23.730  11.997
72379W        W36323  23.219  18.719   1.298
72380W        W36324  25.012  26.542  11.611
72381W        W36325  36.396  43.860  14.806
72382W        W36326  28.158  18.712   1.240
72383W        W36327  25.597  36.512   2.278
72384W        W36328   8.819   9.274   1.246
72385W        W36329  16.233  18.637   0.316
72386W        W36330  43.317  21.203   3.667
72387W        W36331  40.504   3.398  12.529
72388W        W36332   6.883  21.602  10.949
72389W        W36333  22.557  43.295  13.384
72390W        W36334  40.499  44.272   0.248
72391W        W36335   8.401  35.912   1.401
72392W        W36336  36.497  18.657   4.734
72393W        W36337  44.963  33.542  13.796
72394W        W36338  17.209  22.639   0.911
72395W        W36339   8.810  40.414   0.299
72396W        W36340  34.465  34.392  11.594
72397W        W36341  21.263   2.808   2.187
72398W        W36342  38.974  23.577  12.420
72399W        W36343  13.187  13.339   4.262
72400W        W36344  25.645  16.236  11.384
72401W        W36345   2.329  27.056   3.770
72402W        W36346   0.428  13.286  14.769
72403W        W36347   3.720  16.138  10.890
72404W        W36348  35.994   9.644  10.950
72405W        W36349  35.064  35.029   1.800
72406W        W36350  40.394  18.584   2.357
72407W        W36351  14.636  24.081  11.427
72408W        W36352  22.686  26.527  13.845
72409W        W36353  17.128  24.655  14.498
72410W        W36354  25.612  33.117  11.534
72411W        W36355   8.791  10.773   1.451
72412W        W36356  43.946  11.249   1.724
72413W        W36357  31.908   7.201  11.876
72414W        W36358  26.696  16.117  11.015
72415W        W36359   0.406  22.201  11.415
72416W        W36360   3.873   7.416   1.256
72417W        W36361  38.057  27.635  13.016
72418W        W36362  16.163   1.788  12.090
72419W        W36363  32.081  43.947   4.279
72420W        W36364  13.784  27.169  13.804
72421W        W36365  21.042  40.438   4.690
72422W        W36366  17.204  39.864   4.714
72423W        W36367  14.687  19.671   1.883
72424W        W36368  33.104  31.641   0.311
72425W        W36369  21.023   9.249   2.662
72426W        W36370   6.206  22.059   3.830
72427W        W36371  10.717  28.598  12.858
72428W        W36372  16.673  26.136   2.211
72429W        W36373   8.160  39.896   3.196
72430W        W36374  26.679  14.117  10.523
72431W        W36375  35.539   6.276   0.284
72432W        W36376   7.732  42.374   0.831
72433W        W36377  42.842  17.729  11.913
72434W        W36378  25.496  32.057  12.005
72435W        W36379   5.208  13.762   0.281
72436W        W36380   0.274  27.449   3.658
72437W        W36381  15.097  34.467  12.984
72438W        W36382  12.345  33.958   3.838
72439W        W36383   6.303   2.853  11.117
72440W        W36384  42.319  29.090  14.343
72441W        W36385  14.112  21.136  13.848
72442W        W36386  18.791  19.572  14.406
72443W        W36387  34.911  22.194  14.335
72444W        W36388  17.663   6.847  11.384
72445W        W36389   2.378  34.569   3.714
72446W        W36390  41.008  30.584  14.847
72447W        W36391  29.622  37.083   2.386
72448W        W36392   5.206  43.806   1.363
72449W        W36393   2.344  12.775   4.785
72450W        W36394   1.774  40.444   4.178
72451W        W36395  21.597   1.850   0.322
72452W        W36396  44.354  12.291   3.357
72453W        W36397   0.287  39.954   0.298
72454W        W36398  31.073  25.657  14.294
72455W        W36399  23.650   5.393  11.980
72456W        W36400  41.380  43.311  10.445
72457W        W36401   7.805   4.767   0.313
72458W        W36402  26.072  14.309   1.761
72459W        W36403  11.250  11.858  12.530
72460W        W36404  26.494  40.018   2.874
72461W        W36405  13.710  24.996   3.744
72462W        W36406  28.003  22.092  14.849
72463W        W36407  44.788   3.750   2.232
72464W        W36408  10.306  43.838   0.390
72465W        W36409  40.320  12.160  12.539
72466W        W36410  24.206  16.244   1.736
72467W        W36411  39.809   7.268  12.516
72468W        W36412  44.461   5.912   1.888
72469W        W36413   6.226  18.184  10.045
72470W        W36414  37.428  18.552  10.993
72471W        W36415  33.098  36.486  13.942
72472W        W36416  35.409  21.111   0.374
72473W        W36417  14.334  23.098  11.485
72474W        W36418   6.238   2.733   1.801
72475W        W36419  10.792  23.091   0.401
72476W        W36420  10.675  23.651   2.800
72477W        W36421  13.196  39.932  11.020
72478W        W36422  32.546   9.862  12.039
72479W        W36423  37.878  41.986  13.823
72480W        W36424  11.282  21.030  12.441
72481W        W36425  16.222  28.109   9.965
72482W        W36426  26.127  27.089  12.067
72483W        W36427  31.546  32.996  10.588
72484W        W36428  39.361  43.355  13.504
72485W        W36429  22.222  41.023  14.930
72486W        W36430  42.878  43.766   4.222
72487W        W36431  24.979  37.985   0.352
72488W        W36432   3.886  37.399  11.583
72489W        W36433  36.410  17.621  11.986
72490W        W36434  15.633  32.479   0.362
72491W        W36435  33.026  32.012   2.843
72492W        W36436  14.636   5.716   3.321
72493W        W36437  44.273  27.514   1.930
72494W        W36438  25.062  33.492  12.013
72495W        W36439  39.834   6.418   4.697
72496W        W36440   6.899  36.593   4.124
72497W        W36441  34.507  15.098  14.762
72498W        W36442  19.074  14.288   2.810
72499W        W36443  32.999  12.687   3.814
72500W        W36444   9.213  31.507   1.733
72501W        W36445  39.950  29.488   3.335
72502W        W36446  31.590  44.414  14.474
72503W        W36447   6.316  21.595  13.414
72504W        W36448  19.762  37.421   3.367
72505W        W36449  16.676  20.547   3.348
72506W        W36450   1.854   3.215  10.473
72507W        W36451   9.864   9.186   0.362
72508W        W36452  19.155   7.686   0.303
72509W        W36453  39.461  34.565  11.005
72510W        W36454  22.513  32.465   2.221
72511W        W36455  35.921   7.191  14.317
72512W        W36456   7.778  44.399   3.710
72513W        W36457  38.366  41.354   4.216
72514W        W36458  22.231   1.975   0.888
72515W        W36459  40.038  41.516  12.956
72516W        W36460  31.028  27.995   2.339
72517W        W36461  27.966  35.360   2.250
72518W        W36462   4.254  40.819  11.992
72519W        W36463  30.603  42.411   0.253
72520W        W36464  39.526   6.788   1.751
72521W        W36465  11.334  41.538   1.858
72522W        W36466   1.904  25.981  13.988
72523W        W36467  23.058  32.602   2.747
72524W        W36468   5.911  22.539  10.414
72525W        W36469  24.607  22.141  12.051
72526W        W36470  33.900  19.560   0.411
72527W        W36471   8.735  37.982   4.643
72528W        W36472  15.329  15.194   1.816
72529W        W36473  43.308  44.435  13.411
72530W        W36474  11.861  25.588   1.821
72531W        W36475   6.882  18.709  14.289
72532W        W36476  31.623  28.656   3.692
72533W        W36477  11.792   9.209   3.330
72534W        W36478  15.194  18.776  12.537
72535W        W36479  19.683  38.826   0.479
72536W        W36480  44.300  15.690  13.529
72537W        W36481  29.001   6.337  13.962
72538W        W36482  27.958   0.470  14.772
72539W        W36483  10.303   2.227   2.398
72540W        W36484  12.768  28.576   3.370
72541W        W36485   5.854  21.057  11.560
72542W        W36486  44.382  11.254  14.027
72543W        W36487  18.661   0.979   0.791
72544W        W36488  42.437   3.291   4.705
72545W        W36489  42.367  11.745   1.759
72546W        W36490  14.820  27.079  10.447
72547W        W36491  43.394   6.354   1.742
72548W        W36492   3.728  14.820  13.467
72549W        W36493  43.011  14.817  12.037
72550W        W36494   1.837  37.562   4.220
72551W        W36495  19.650   7.247  14.904
72552W        W36496  27.472  20.125  11.382
72553W        W36497  34.571  14.219   1.404
72554W        W36498  16.107  24.552   2.747
72555W        W36499  36.545  33.481  14.953
72556W        W36500   4.384  29.160  12.349
72557W        W36501  14.284  31.590  14.294
72558W        W36502   9.294   0.407   5.141
72559W        W36503   2.272  35.492  12.952
72560W        W36504  31.414  28.139  11.904
72561W        W36505  32.469  10.139  14.889
72562W        W36506   6.888  18.066   2.380
72563W        W36507   8.702   8.178  10.573
72564W        W36508  31.602  28.138  13.446
72565W        W36509  41.028  40.373  11.478
72566W        W36510  29.631  15.610  13.427
72567W        W36511  23.126  13.681  14.408
72568W        W36512   3.227  22.151   0.340
72569W        W36513  28.457  22.584  10.404
72570W        W36514  31.049  37.072   2.217
72571W        W36515   1.294  17.799  11.088
72572W        W36516  44.418  23.544  10.106
72573W        W36517  37.511  28.524   1.243
72574W        W36518  32.054   6.222   4.690
72575W        W36519   3.783  30.040  12.576
72576W        W36520  42.395  27.582   4.265
72577W        W36521   9.702  41.989  11.905
72578W        W36522  41.830  11.216  12.561
72579W        W36523  22.010  28.574   2.867
72580W        W36524  16.210  41.519   4.728
72581W        W36525  24.176  17.721   2.323
72582W        W36526  25.045  38.346  11.862
72583W        W36527  43.342  40.908   3.156
72584W        W36528   2.875   8.301   4.780
72585W        W36529  43.508  35.531  11.048
72586W        W36530  14.212  13.665   3.632
72587W        W36531  17.101  25.707  13.515
72588W        W36532  35.569  31.632  14.953
72589W        W36533  10.227  12.649  13.866
72590W        W36534   0.955  14.614   3.754
72591W        W36535   1.847  38.457  11.954
72592W        W36536  40.814  32.958  12.935
72593W        W36537  37.543  32.420   2.752
72594W        W36538  22.108  31.475   1.719
72595W        W36539  13.138  44.997   0.313
72596W        W36540  36.925   4.275  11.980
72597W        W36541  11.689  16.140   4.652
72598W        W36542   8.329  10.855  11.493
72599W        W36543  27.087  35.048  12.401
72600W        W36544   7.402  21.225   3.740
72601W        W36545   5.755  22.039   1.369
72602W        W36546  14.776   2.821   0.829
72603W        W36547  17.659  22.572   3.364
72604W        W36548  18.719   0.849  11.111
72605W        W36549   8.236  32.941  13.491
72606W        W36550  13.310   4.427  10.145
72607W        W36551  10.316  28.609   0.775
72608W        W36552  29.584  15.329   2.843
72609W        W36553  30.418  38.065   2.241
72610W        W36554  27.550  25.024   1.312
72611W        W36555  44.884  36.484  11.561
72612W        W36556  36.081  14.191   4.263
72613W        W36557  16.206  35.492  13.402
72614W        W36558  33.509  23.128   2.353
72615W        W36559  44.480  17.152  14.289
72616W        W36560   6.239  42.389   9.977
72617W        W36561  16.789   2.918   1.318
72618W        W36562   5.872  18.752   1.736
72619W        W36563  40.482  18.259   1.411
72620W        W36564  11.674   6.903   0.916
72621W        W36565  43.271  18.163   1.254
72622W        W36566  37.573  28.647  10.526
72623W        W36567   5.805  16.691   0.748
72624W        W36568  17.703  21.030  12.556
72625W        W36569  23.993  10.173  11.868
72626W        W36570   2.763  16.130  12.356
72627W        W36571   9.208  22.609   1.816
72628W        W36572  19.219   2.842  11.016
72629W        W36573  27.652  16.127   2.868
72630W        W36574   5.821  30.472  10.549
72631W        W36575  16.303   8.320   1.328
72632W        W36576  12.805   0.824  13.023
72633W        W36577  44.808  20.664   2.773
72634W        W36578  38.563  35.917   4.128
72635W        W36579  23.503  40.544  13.343
72636W        W36580  29.551  35.061   3.316
72637W        W36581  34.465  11.656   2.384
72638W        W36582   8.834  12.615  14.397
72639W        W36583  31.562  27.498   0.789
72640W        W36584  12.828   3.434  14.946
72641W        W36585  18.166  31.932  13.935
72642W        W36586  16.594  10.202   1.397
72643W        W36587   8.219  23.506  12.939
72644W        W36588  11.283  22.184  11.383
72645W        W36589  28.956   8.800   4.323
72646W        W36590  10.637  33.033  13.353
72647W        W36591  32.948  34.547  12.075
72648W        W36592  38.970   5.267   3.634
72649W        W36593  26.958  29.172   2.258
72650W        W36594   8.210  13.738  10.621
72651W        W36595  21.514   3.789   2.408
72652W        W36596  41.480  39.945   4.338
72653W        W36597  22.522  11.707  10.985
72654W        W36598  24.059  25.000   1.897
72655W        W36599  28.452  14.694   2.889
72656W        W36600   0.444  34.867  13.338
72657W        W36601  33.452  22.531  12.896
72658W        W36602  23.569  33.504  13.469
72659W        W36603  36.923  21.206   3.630
72660W        W36604   6.327  29.012  11.457
72661W        W36605  44.945  28.148   4.344
72662W        W36606  42.420  14.182   2.833
72663W        W36607  25.615  39.330  13.061
72664W        W36608  18.572  42.459  14.327
72665W        W36609   1.464  20.191   4.645
72666W        W36610  31.991  10.216  12.866
72667W        W36611  21.039  32.894  11.526
72668W        W36612  33.059   2.413  13.356
72669W        W36613  19.611   4.762   4.796
72670W        W36614   5.892  44.431   1.421
72671W        W36615   9.879  17.628   1.774
72672W        W36616  32.046  24.987   3.169
72673W        W36617  23.004  19.142   2.201
72674W        W36618  24.493   8.240   0.917
72675W        W36619  13.118  22.211  11.047
72676W        W36620  28.097  11.682   0.439
72677W        W36621   5.816  14.317   1.879
72678W        W36622  20.067  22.140  11.573
72679W        W36623   0.453  16.112   1.835
72680W        W36624  15.305  17.587   3.804
72681W        W36625   9.788  25.642  10.437
72682W        W36626   5.835  17.796  14.864
72683W        W36627  17.256  30.554   1.883
72684W        W36628  16.767  26.593  13.400
72685W        W36629  15.635  13.619  10.451
72686W        W36630  28.493  44.904   0.281
72687W        W36631  40.005  41.521  14.302
72688W        W36632   2.782   5.877   2.762
72689W        W36633  28.527  19.070   0.834
72690W        W36634  29.132   6.362   3.844
72691W        W36635  28.118  42.330  12.097
72692W        W36636   0.787   6.339   1.745
72693W        W36637  24.005  44.505   1.820
72694W        W36638  21.059  44.759   3.189
72695W        W36639   9.827   6.199  12.885
72696W        W36640  14.116  35.573  11.612
72697W        W36641  35.418  22.659  13.426
72698W        W36642  26.041   1.344  14.403
72699W        W36643   4.940  25.591   3.761
72700W        W36644  25.525  25.511  11.470
72701W        W36645  36.037   9.846   2.797
72702W        W36646  40.509  29.503  14.479
72703W        W36647  39.954  27.608  12.483
72704W        W36648  14.745  29.919   1.879
72705W        W36649  12.684  44.294  13.474
72706W        W36650  11.636  22.158  11.068
72707W        W36651  37.907  35.483   0.333
72708W        W36652  33.455  39.460   1.826
72709W        W36653   8.822  21.032  12.413
72710W        W36654  44.874  22.721  10.510
72711W        W36655  22.057  38.023  11.005
72712W        W36656  32.905   8.161   0.295
72713W        W36657   1.951  22.707   4.630
72714W        W36658  14.719   2.883   2.862
72715W        W36659  11.129  42.962  11.446
72716W        W36660   7.401  32.450  11.123
72717W        W36661  43.773   5.689   0.746
72718W        W36662  20.606   7.174   1.920
72719W        W36663  16.148   7.811  14.494
72720W        W36664   0.829  39.907  13.878
72721W        W36665  24.168  24.502  14.482
72722W        W36666  13.153   1.927   5.262
72723W        W36667  41.340  24.640  14.943
72724W        W36668  27.974  38.063   9.999
72725W        W36669  11.362  37.346   1.406
72726W        W36670   7.248  33.444   1.301
72727W        W36671  18.730  44.983   4.165
72728W        W36672  10.687   1.238  10.515
72729W        W36673  32.540  28.634   4.632
72730W        W36674  15.586  30.928   4.690
72731W        W36675   4.746  18.731  14.383
72732W        W36676  17.184  14.112   4.634
72733W        W36677  15.208  15.143   0.773
72734W        W36678  27.999  38.406   3.285
72735W        W36679  37.582  16.233   1.444
72736W        W36680  28.111   4.321  11.044
72737W        W36681  18.130  33.949  14.446
72738W        W36682  14.733  26.158   1.321
72739W        W36683   0.819   0.751   0.760
72740W        W36684   8.171  21.643   1.409
72741W        W36685  17.656  28.465  10.941
72742W        W36686  19.180  28.596  11.107
72743W        W36687  22.712  37.499   1.855
72744W        W36688   8.356  25.497   1.852
72745W        W36689   0.888  25.566  13.918
72746W        W36690   9.294  19.247   4.751
72747W        W36691  37.579   4.389  12.523
72748W        W36692   6.357  42.887  10.118
72749W        W36693   4.236  32.069   4.300
72750W        W36694  11.371  41.875   0.350
72751W        W36695   9.879  18.112  13.906
72752W        W36696  36.459   0.345   3.370
72753W        W36697  36.879  10.637   4.630
72754W        W36698  17.645  44.824   2.818
72755W        W36699  11.152  29.430   4.769
72756W        W36700   7.328  14.753   4.247
72757W        W36701  39.490  32.080   0.919
72758W        W36702   9.171  28.929   3.773
72759W        W36703  23.715  34.410  11.920
72760W        W36704  40.313  28.667  10.611
72761W        W36705   7.203  41.829  13.421
72762W        W36706   9.359  15.707  13.888
72763W        W36707  27.053  12.714   2.236
72764W        W36708  37.485   0.296   2.253
72765W        W36709   3.825  38.026   3.190
72766W        W36710  26.695   2.960  13.934
72767W        W36711  17.708  18.206  12.952
72768W        W36712  14.599  11.366   2.730
72769W        W36713  41.400   1.296   3.703
72770W        W36714  24.004  31.525  11.927
72771W        W36715  13.838  35.095  10.025
72772W        W36716  37.071   2.721  14.901
72773W        W36717  18.089   9.772   5.199
72774W        W36718  30.548  16.270  11.376
72775W        W36719  34.550  42.484  14.420
72776W        W36720  34.985   6.304   1.756
72777W        W36721  39.453   9.826   4.269
72778W        W36722  10.872  24.616   0.328
72779W        W36723  21.539  19.050  13.996
72780W        W36724  35.866  28.151   1.413
72781W        W36725  34.499  27.470   4.738
72782W        W36726  36.355  27.684  13.939
72783W        W36727  21.673  36.061  12.092
72784W        W36728  32.438  44.438   1.247
72785W        W36729  39.434   2.288   3.238
72786W        W36730   9.846  23.176  11.944
72787W        W36731  27.034  19.566  14.288
72788W        W36732  14.238  28.606   4.759
72789W        W36733  16.706  17.167   3.776
72790W        W36734  39.512   9.664   3.852
72791W        W36735   6.226  37.854  12.442
72792W        W36736   3.932  13.330   3.651
72793W        W36737  14.128  20.132   4.700
72794W        W36738  33.960   5.901  12.435
72795W        W36739  16.632  33.970   1.293
72796W        W36740  38.462  16.709  13.912
72797W        W36741   0.845  42.437   2.871
72798W        W36742  41.021  25.685  10.591
72799W        W36743   8.389  37.061   2.209
72800W        W36744  22.065  15.186   2.772
72801W        W36745  13.161  23.029  14.890
72802W        W36746   8.719  28.583  12.454
72803W        W36747  12.778  27.592   2.694
72804W        W36748   4.226   2.419  10.999
72805W        W36749  14.620  44.811   4.635
72806W        W36750  34.612  38.421  14.429
72807W        W36751   6.866  30.102   1.287
72808W        W36752   4.743   5.826   4.686
72809W        W36753  16.812  13.239   1.700
72810W        W36754  19.746  44.294  14.004
72811W        W36755  16.273  19.702   2.851
72812W        W36756   3.432  32.989  14.331
72813W        W36757  20.206  19.119   4.210
72814W        W36758  19.738  18.690   1.848
72815W        W36759   4.372  43.386  14.934
72816W        W36760  12.739  40.436   2.782
72817W        W36761  37.061  12.200   1.366
72818W        W36762   0.492  33.470  14.401
72819W        W36763  33.952  15.136  13.361
72820W        W36764  44.770  32.049   4.724
72821W        W36765  22.246  35.395   1.418
72822W        W36766  40.447  34.595  12.555
72823W        W36767  31.023  24.987   0.757
72824W        W36768  27.947  30.500  12.009
72825W        W36769  44.273  36.586  14.986
72826W        W36770   4.382  25.968   0.784
72827W        W36771  40.930  41.397   3.336
72828W        W36772  26.046  14.283   4.622
72829W        W36773  24.671  33.448  11.920
72830W        W36774   0.822  30.558  14.873
72831W        W36775  15.153  36.486  14.471
72832W        W36776  38.480  32.441  11.002
72833W        W36777   2.388  22.731   2.747
72834W        W36778   5.332  33.094  12.904
72835W        W36779  43.835   0.348   2.815
72836W        W36780   7.782  28.598   0.342
72837W        W36781  36.848  41.834  11.563
72838W        W36782   3.898   8.239   3.279
72839W        W36783  31.596  22.245  14.909
72840W        W36784  17.757   9.365  11.512
72841W        W36785   2.890  43.823   2.300
72842W        W36786  14.598  11.706  14.431
72843W        W36787  15.242   4.910   2.389
72844W        W36788  18.650   7.207   4.134
72845W        W36789  44.863  10.310   1.373
72846W        W36790  24.076  42.932  14.828
72847W        W36791  13.284  29.052   0.401
72848W        W36792   7.196  19.676   2.783
72849W        W36793  38.357   6.220   0.308
72850W        W36794  16.153  10.661   0.329
72851W        W36795  19.118  37.876  12.998
72852W        W36796  11.223  26.200   3.659
72853W        W36797   9.873   9.256  14.822
72854W        W36798  14.820  26.461   3.353
72855W        W36799   7.392  27.087  12.910
72856W        W36800  35.366  11.783  10.481
72857W        W36801   4.767   6.201  14.993
72858W        W36802  14.318  17.263   1.444
72859W        W36803  27.176   5.427  12.977
72860W        W36804  14.287  28.679   3.755
72861W        W36805   7.797  16.274  12.537
72862W        W36806  32.946   3.432   1.867
72863W        W36807  15.267  35.370   0.478
72864W        W36808   8.877   5.231  14.883
72865W        W36809  39.839  18.092  10.933
72866W        W36810  15.147   4.367   1.434
72867W        W36811  40.032  40.516  10.597
72868W        W36812  23.551  21.036   4.638
72869W        W36813  25.213  36.955   0.747
72870W        W36814  17.610  38.880   4.608
72871W        W36815  43.404  34.406   2.784
72872W        W36816   6.221  43.772   4.744
72873W        W36817   0.866  41.428  14.488
72874W        W36818  25.539  14.250   0.857
72875W        W36819  32.438  42.844  13.014
72876W        W36820  13.826   1.452   0.729
72877W        W36821  38.902  34.925   2.193
72878W        W36822   3.303  16.119   0.924
72879W        W36823   5.874   1.884   0.828
72880W        W36824  22.585  13.817  13.808
72881W        W36825  32.590  17.287   0.770
72882W        W36826  15.691  38.026  13.438
72883W        W36827  21.640   2.323  10.987
72884W        W36828  39.334  43.498  12.406
72885W        W36829  13.174  32.593   1.794
72886W        W36830  10.738  11.253  10.901
72887W        W36831  43.880   4.782   3.176
72888W        W36832  39.058   6.721   0.294
72889W        W36833  10.851   2.358   3.727
72890W        W36834  39.533  41.793  13.463
72891W        W36835   3.336  29.148  13.025
72892W        W36836  21.054  18.703  14.433
72893W        W36837   2.267  17.289   0.265
72894W        W36838  11.709  32.505   1.376
72895W        W36839  16.118  11.795   4.799
72896W        W36840  12.271  32.449  13.496
72897W        W36841  35.423  10.258  12.937
72898W        W36842  36.537  41.447  12.898
72899W        W36843  25.998   7.758  10.992
72900W        W36844  42.015  19.263  14.027
72901W        W36845  29.628   8.350   4.630
72902W        W36846  42.884  12.358  13.950
72903W        W36847  29.073  31.464   4.645
72904W        W36848   3.783  15.229   4.790
72905W        W36849  39.025  40.979  13.382
72906W        W36850  41.429  20.655   1.445
72907W        W36851  26.643  21.192  10.933
72908W        W36852  34.869   5.864  12.469
72909W        W36853  25.105  32.928  12.416
72910W        W36854  13.141   1.869   4.663
72911W        W36855  31.925  11.867  14.025
72912W        W36856  11.668  42.302   1.859
72913W        W36857   9.834  16.644  10.966
72914W        W36858   0.333  31.486  11.461
72915W        W36859   3.742   7.685   2.333
72916W        W36860  25.114   2.849   4.616
72917W        W36861  11.264   5.350   0.269
72918W        W36862  14.797   8.672  10.520
72919W        W36863  35.408   7.403  11.493
72920W        W36864  30.964  35.916  11.123
72921W        W36865  19.553  16.183   3.252
72922W        W36866  10.812  33.945  14.959
72923W        W36867  43.325   0.812  11.005
72924W        W36868   0.355  37.563   0.906
72925W        W36869  44.439   8.213  12.006
72926W        W36870  14.199  35.416  11.104
72927W        W36871   5.246   5.895   1.427
72928W        W36872  40.353  44.997  14.770
72929W        W36873  44.929  18.110  10.940
72930W        W36874  40.334  23.616  10.030
72931W        W36875  25.177  30.541   3.159
72932W        W36876  18.050  40.946  12.879
72933W        W36877  34.577  12.855  12.961
72934W        W36878   3.215   6.254   4.268
72935W        W36879  15.321  33.578   0.321
72936W        W36880  37.980  27.168  12.411
72937W        W36881   4.897   9.196  12.888
72938W        W36882   8.346  17.667  13.493
72939W        W36883  12.773  27.983   4.223
72940W        W36884   8.833  17.675   1.803
72941W        W36885  31.154  42.871  11.961
72942W        W36886  43.366  13.684  13.064
72943W        W36887  33.387  39.034   1.795
72944W        W36888  43.017  25.043  10.438
72945W        W36889  15.156  30.973  10.575
72946W        W36890  18.296  37.990  11.613
72947W        W36891  14.602  25.075  12.975
72948W        W36892  43.439  28.587   1.934
72949W        W36893  40.976  31.087   2.285
72950W        W36894  41.894   7.720  14.947
72951W        W36895   5.859  39.879   3.204
72952W        W36896   3.831  32.063  14.777
72953W        W36897  31.954  44.931  12.387
72954W        W36898   0.332  33.026  10.540
72955W        W36899  38.036  34.506   0.945
72956W        W36900  44.396  36.846   0.877
72957W        W36901  37.496  22.237   4.630
72958W        W36902  10.214  44.374   3.158
72959W        W36903  13.733  30.567  12.513
72960W        W36904  13.347   2.384   1.925
72961W        W36905  19.081  21.211   2.182
72962W        W36906  31.628  10.739  14.331
72963W        W36907  34.371  16.210  13.499
72964W        W36908  13.761  39.461  13.440
72965W        W36909  10.271   1.397  14.483
72966W        W36910  10.849  42.790   0.803
72967W        W36911  21.604  31.089   2.829
72968W        W36912  25.138  39.916   2.391
72969W        W36913  25.697  12.698   2.374
72970W        W36914  30.079   8.668  14.512
72971W        W36915   7.187  39.831  10.572
72972W        W36916  43.931   9.199   3.827
72973W        W36917  21.584  16.103   0.835
72974W        W36918  40.430  29.499  12.395
72975W        W36919  18.228  33.915  11.987
72976W        W36920  23.724  36.435   4.175
72977W        W36921  24.081  18.590   4.809
72978W        W36922  39.038   1.778   1.924
72979W        W36923   2.395   7.894  13.466
72980W        W36924   4.717   7.764   3.650
72981W        W36925  42.462   5.690   2.675
72982W        W36926  28.551   5.758  10.621
72983W        W36927  43.513  24.977   4.191
72984W        W36928  37.019  12.361  13.903
72985W        W36929  14.713  29.467   1.250
72986W        W36930   2.795  40.912  14.799
72987W        W36931  19.174  29.163  12.460
72988W        W36932  32.927  37.969   1.421
72989W        W36933  21.690  43.797   2.243
72990W        W36934  10.805  19.566  12.019
72991W        W36935  31.420   5.796  13.814
72992W        W36936  12.726  39.859   1.784
72993W        W36937  37.571  43.455   3.286
72994W        W36938   1.820  39.346  12.929
72995W        W36939  26.580   6.346  13.011
72996W        W36940  35.882  18.054  11.114
72997W        W36941  28.959   8.863   4.641
72998W        W36942  38.991   2.745   3.344
72999W        W36943  14.315  21.126   3.343
73000W        W36944  40.441  13.711   0.729
73001W        W36945  24.536  42.303   2.879
73002W        W36946  24.082   2.381  12.407
73003W        W36947  12.298  12.696   3.812
73004W        W36948  11.316  11.158  10.563
73005W        W36949  40.319   9.337  14.810
73006W        W36950  34.968  25.549   1.421
73007W        W36951  11.206  35.488   2.306
73008W        W36952  27.095  33.115  11.096
73009W        W36953  33.901   0.386   4.149
73010W        W36954   6.878   0.986  13.867
73011W        W36955  33.923  38.978   4.684
73012W        W36956  25.543   3.455  14.770
73013W        W36957  38.417  26.992  10.608
73014W        W36958  20.629  40.939  11.075
73015W        W36959   5.880  30.116  12.029
73016W        W36960  25.011  30.035  13.056
73017W        W36961  30.134  19.229   4.164
73018W        W36962  40.365  29.998  12.009
73019W        W36963  19.198   5.699  12.380
73020W        W36964  43.305   3.923   3.641
73021W        W36965   2.269  31.409  11.405
73022W        W36966   8.826   9.673   0.855
73023W        W36967  30.426  13.602   2.180
73024W        W36968  15.721  16.805  14.902
73025W        W36969  36.374   4.349   2.669
73026W        W36970  22.246  20.072   0.410
73027W        W36971  23.637  27.517   2.195
73028W        W36972  35.096  33.583  13.833
73029W        W36973  39.951  22.600   1.353
73030W        W36974   3.804  15.267   2.680
73031W        W36975  21.623  25.692  13.970
73032W        W36976   6.808  44.371   3.870
73033W        W36977  44.393  37.006  12.933
73034W        W36978  16.719  37.083   0.782
73035W        W36979   7.704  28.093   1.820
73036W        W36980  17.086   8.362   3.198
73037W        W36981  30.094  10.180   4.655
73038W        W36982  37.362   3.363   5.212
73039W        W36983  36.841  31.439   1.308
73040W        W36984  12.119  15.282   5.249
73041W        W36985  22.619   3.288   3.315
73042W        W36986  41.044  44.335  13.848
73043W        W36987  22.640  34.597   3.305
73044W        W36988  42.949   3.358  13.375
73045W        W36989  44.974  17.648  10.630
73046W        W36990  37.401  26.187   0.273
73047W        W36991   2.445  26.004   2.296
73048W        W36992  15.788  34.080  10.632
73049W        W36993  41.025  16.610   0.778
73050W        W36994   2.319  24.518   3.667
73051W        W36995  27.677  21.642  11.496
73052W        W36996  21.631  21.593   4.800
73053W        W36997  35.955  13.337  13.525
73054W        W36998   9.334  15.224  12.025
73055W        W36999  35.866  38.074   3.738
73056W        W37000   4.280  13.816  12.858
73057W        W37001  32.453   6.223   2.353
73058W        W37002  23.233   3.259   2.303
73059W        W37003  25.038  17.238   5.322
73060W        W37004  25.179   3.780  11.561
73061W        W37005  43.943  14.117   0.907
73062W        W37006  30.441  33.887   0.268
73063W        W37007  22.232  21.570  12.485
73064W        W37008   0.309  22.735   1.390
73065W        W37009   1.838  20.669   4.753
73066W        W37010  32.408  35.972   1.290
73067W        W37011  24.556   2.287   2.387
73068W        W37012  30.164  14.763  12.056
73069W        W37013  39.004   3.405   5.750
73070W        W37014  31.524   3.907  11.067
73071W        W37015  33.554  22.577   2.241
73072W        W37016   9.319  30.044   0.274
73073W        W37017  15.231  33.131  12.414
73074W        W37018  11.300  18.202  11.482
73075W        W37019  17.757   5.417   4.295
73076W        W37020   2.345  11.162  10.518
73077W        W37021   8.832  30.956   2.416
73078W        W37022   0.782   9.827   4.669
73079W        W37023  25.674  23.145   0.407
73080W        W37024  18.578   5.769  11.122
73081W        W37025  37.863  44.989  13.420
73082W        W37026  13.344  40.866   3.377
73083W        W37027  21.559  10.147  11.514
73084W        W37028  32.547  37.870   3.826
73085W        W37029   7.263  28.976  13.401
73086W        W37030  29.955  32.115   2.778
73087W        W37031  22.540  20.658  13.336
73088W        W37032   9.796  17.233   1.828
73089W        W37033  23.607  19.700   4.326
73090W        W37034  43.298  19.049   3.291
73091W        W37035  32.102  33.058   2.256
73092W        W37036  24.591   1.410   1.923
73093W        W37037  37.343  22.625   2.346
73094W        W37038   8.818  32.137   5.121
73095W        W37039  35.442  44.996  13.898
73096W        W37040  20.613   3.378   3.770
73097W        W37041   3.824  28.170  12.006
73098W        W37042  43.309  20.637  11.855
73099W        W37043  43.871   2.785   3.342
73100W        W37044  12.144  16.295  11.898
73101W        W37045   7.867  18.687  13.829
73102W        W37046   8.190  37.068   4.792
73103W        W37047  43.777  16.162  12.389
73104W        W37048  19.546   2.382  14.491
73105W        W37049  36.483   6.686  10.404
73106W        W37050  27.113   1.425  13.381
73107W        W37051   4.863   7.708  13.515
73108W        W37052   9.364  10.234  14.014
73109W        W37053  15.643   0.893   5.238
73110W        W37054  41.817   5.760   1.697
73111W        W37055  40.517  33.564  10.617
73112W        W37056   7.778  44.300   2.317
73113W        W37057  14.320  39.327  12.097
73114W        W37058  12.848  42.905   3.251
73115W        W37059   4.431  10.690  13.517
73116W        W37060  34.511   5.209   4.787
73117W        W37061  38.064  17.153   3.743
73118W        W37062  40.467   9.694  14.383
73119W        W37063  17.578  13.284   4.336
73120W        W37064  25.644  42.978   0.393
73121W        W37065  42.325  11.241  11.102
73122W        W37066  38.358  12.663   0.304
73123W        W37067  29.566   7.874  12.984
73124W        W37068   5.798  28.618   2.786
73125W        W37069  23.195  21.595   3.866
73126W        W37070   2.837  11.302  14.410
73127W        W37071  36.359  21.076  13.508
73128W        W37072   5.878  43.330  11.584
73129W        W37073   9.672  13.203  11.014
73130W        W37074  32.025  27.532  11.961
73131W        W37075  31.594  27.061  12.528
73132W        W37076  34.513   6.200  10.408
73133W        W37077  39.835  39.850  14.910
73134W        W37078  28.069  18.099  13.465
73135W        W37079   8.387   5.312   4.749
73136W        W37080  35.491  12.186   1.356
73137W        W37081   7.279  13.322   2.209
73138W        W37082  15.631  30.034  13.884
73139W        W37083   7.822  23.118  10.530
73140W        W37084  25.531  42.383   4.696
73141W        W37085   8.772  33.417  12.498
73142W        W37086  24.714  31.965  13.969
73143W        W37087   4.381   5.718   3.249
73144W        W37088  42.800  32.948  10.088
73145W        W37089  19.200   6.208   2.684
73146W        W37090  43.814  28.444  12.946
73147W        W37091  14.113  36.085   3.744
73148W        W37092  41.416  15.743  14.464
73149W        W37093  24.219   9.169   4.223
73150W        W37094  33.620  34.048  11.514
73151W        W37095  44.348  40.040  13.039
73152W        W37096   0.921  33.917  14.381
73153W        W37097   0.466  32.937   1.339
73154W        W37098  12.720  15.638  11.415
73155W        W37099  27.018  37.439  12.472
73156W        W37100  34.063  38.062  13.335
73157W        W37101  44.271   8.163  14.810
73158W        W37102   6.842   8.847   2.882
73159W        W37103  24.198  21.213  11.418
73160W        W37104  31.452   1.451   0.320
73161W        W37105  35.486  39.520  12.535
73162W        W37106  28.158   6.810  14.861
73163W        W37107   6.730  44.259   3.176
73164W        W37108  17.127   2.899   3.381
73165W        W37109  25.708  13.803  11.573
73166W        W37110  15.188  26.154   0.738
73167W        W37111  28.138   3.344  13.052
73168W        W37112  38.436  42.929   1.876
73169W        W37113  17.677  30.451  14.028
73170W        W37114   5.226  22.589   2.323
73171W        W37115  16.108  21.117   0.365
73172W        W37116   8.771  39.374   3.157
73173W        W37117  40.005  23.715   2.249
73174W        W37118   8.227  13.760  12.529
73175W        W37119  42.835  10.795  11.609
73176W        W37120  36.457  11.686  11.556
73177W        W37121  16.187   7.349  14.793
73178W        W37122  37.882  41.910  14.467
73179W        W37123  29.539  38.964   3.271
73180W        W37124   8.284  22.531   0.261
73181W        W37125  36.420  14.204   1.886
73182W        W37126  10.827   6.256  12.413
73183W        W37127  28.111  19.662  10.912
73184W        W37128   8.720   8.724  14.775
73185W        W37129  37.831   3.241  13.063
73186W        W37130  28.068  23.537   4.259
73187W        W37131  13.203  24.720  11.081
73188W        W37132  16.731  42.803   3.842
73189W        W37133  26.052  38.071  14.359
73190W        W37134  39.864  38.052   3.633
73191W        W37135  22.154  16.621   4.331
73192W        W37136  10.647   0.958  13.368
73193W        W37137  32.540  29.076   4.599
73194W        W37138   5.901   2.885   3.847
73195W        W37139  28.084   0.248  13.536
73196W        W37140  14.669  20.162   2.720
73197W        W37141  22.674  37.850  13.432
73198W        W37142  15.734  43.002  11.939
73199W        W37143  11.677  27.078   0.347
73200W        W37144  10.814  21.532  14.856
73201W        W37145   0.453   8.682  13.392
73202W        W37146  30.955  32.600  10.479
73203W        W37147  39.510  35.870   0.346
73204W        W37148  35.011  10.763  11.441
73205W        W37149  27.178   4.915  11.992
73206W        W37150  25.060   8.219  13.938
73207W        W37151  34.029  26.654  12.937
73208W        W37152  18.611   8.243   1.739
73209W        W37153  25.634  24.634  14.479
73210W        W37154   4.318  33.969   4.307
73211W        W37155   0.947  43.501   0.857
73212W        W37156   0.942  15.139  12.967
73213W        W37157  24.981   1.775   4.773
73214W        W37158  43.954  29.586   1.414
73215W        W37159  26.474  33.902   2.348
73216W        W37160  19.086  19.595  14.938
73217W        W37161  26.656   6.286   0.356
73218W        W37162  39.972  22.191  14.002
73219W        W37163  40.035  31.451   1.301
73220W        W37164  36.896  23.002   1.393
73221W        W37165   7.748  33.991   3.326
73222W        W37166  18.661  43.894  12.401
73223W        W37167  10.342  24.083  10.508
73224W        W37168  14.601  18.214   9.920
73225W        W37169   3.338  33.118   1.922
73226W        W37170  18.766  33.538  12.476
73227W        W37171  41.029  18.291   1.240
73228W        W37172  19.535  38.002  12.937
73229W        W37173  14.340  36.961  14.367
73230W        W37174   4.413  42.521   3.374
73231W        W37175  33.976   5.318  13.419
73232W        W37176  36.901  42.931   3.175
73233W        W37177  34.041  16.658   2.405
73234W        W37178  33.499   7.353   4.252
73235W        W37179  28.138  23.563   1.379
73236W        W37180  31.435  23.160   0.466
73237W        W37181   1.836   7.812  13.444
73238W        W37182  44.315  41.522  14.980
73239W        W37183  14.664  15.819   1.266
73240W        W37184  39.423  10.333   0.425
73241W        W37185   4.237  28.597  14.300
73242W        W37186   0.422  11.130  10.895
73243W        W37187   0.859  17.297   2.271
73244W        W37188   9.295   6.884  14.389
73245W        W37189   3.881  37.418   1.353
73246W        W37190  22.645   7.308   2.384
73247W        W37191  35.385  36.019  14.863
73248W        W37192  20.553  20.267   4.761
73249W        W37193  28.593  36.845   1.729
73250W        W37194  34.915  43.002   0.945
73251W        W37195   5.276  10.815  11.605
73252W        W37196  27.070   4.247   0.872
73253W        W37197  17.566  12.824  10.900
73254W        W37198  32.978  15.760   2.229
73255W        W37199   4.861  34.005  12.965
73256W        W37200   4.205  19.636  14.814
73257W        W37201   4.435  35.024  14.337
73258W        W37202  39.388  42.892   2.252
73259W        W37203  15.665  15.224  11.993
73260W        W37204  19.655  39.398   4.653
73261W        W37205  15.672  38.517   0.352
73262W        W37206   9.767  10.667  10.585
73263W        W37207  17.196  20.687   2.343
73264W        W37208  40.343  31.024  10.639
73265W        W37209  21.059  38.017   4.680
73266W        W37210  22.031  20.052  11.947
73267W        W37211  37.087  22.077  14.764
73268W        W37212   7.329  15.611   3.284
73269W        W37213  10.357  19.083  12.485
73270W        W37214  11.247  31.912   0.475
73271W        W37215  38.044  31.442   4.689
73272W        W37216  42.378   2.300   1.759
73273W        W37217   5.352  35.420  14.315
73274W        W37218   9.221   0.288  14.454
73275W        W37219  44.335  31.980  11.482
73276W        W37220  22.239  13.628   0.446
73277W        W37221  20.651   6.396   2.230
73278W        W37222   0.335   1.458   2.279
73279W        W37223  20.210  27.036   4.638
73280W        W37224   5.747  21.192   3.240
73281W        W37225  40.428   5.833   2.296
73282W        W37226  26.584   5.906   0.769
73283W        W37227  26.663  26.188   3.234
73284W        W37228   4.900  23.225  11.572
73285W        W37229  37.541  40.442  11.410
73286W        W37230  21.544   8.688   5.140
73287W        W37231   9.381  27.495   3.834
73288W        W37232  34.412  29.523  12.496
73289W        W37233  12.758  30.950  11.462
73290W        W37234   5.439  21.542  12.957
73291W        W37235   9.304   4.799   3.815
73292W        W37236  26.182   7.703   4.320
73293W        W37237   7.286  18.659  10.153
73294W        W37238  32.398  43.823  13.488
73295W        W37239  18.149   5.810  14.336
73296W        W37240  36.433  40.454   0.389
73297W        W37241  19.579  13.150   3.642
73298W        W37242   3.217  34.378   2.700
73299W        W37243  20.171   2.279  12.462
73300W        W37244  34.484  43.889   1.416
73301W        W37245  30.476  44.376  11.027
73302W        W37246  35.852  42.790  11.067
73303W        W37247   0.916  35.505   1.406
73304W        W37248  30.046  14.803   1.447
73305W        W37249  41.338  37.999  10.513
73306W        W37250   2.351   1.878  13.367
73307W        W37251   7.368  41.963   1.912
73308W        W37252  25.511   5.240  10.998
73309W        W37253  13.809  23.533   4.708
73310W        W37254  44.442  30.465   0.402
73311W        W37255  44.971  34.950   1.903
73312W        W37256  20.274  12.671  10.048
73313W        W37257  16.270  28.154   4.115
73314W        W37258  16.683   7.172   1.815
73315W        W37259  40.397  19.079   4.118
73316W        W37260  36.440  42.973  14.853
73317W        W37261  13.225  15.154   0.876
73318W        W37262  34.571   7.708  14.762
73319W        W37263  38.439   9.175  10.896
73320W        W37264  37.438  23.604   3.163
73321W        W37265  11.691   7.321  12.826
73322W        W37266  30.116  42.513  12.386
73323W        W37267  32.090   1.269   0.895
73324W        W37268  16.208  10.684  10.000
73325W        W37269   5.208  33.624  13.062
73326W        W37270   7.910  39.821  11.612
73327W        W37271  27.658  16.629  12.839
73328W        W37272  42.964   7.704   3.841
73329W        W37273  23.059  34.925   1.760
73330W        W37274   5.880  42.861   3.801
73331W        W37275  32.094  12.733   4.690
73332W        W37276   3.385  40.906  11.923
73333W        W37277  28.515  24.671   2.729
73334W        W37278   5.415  31.059  10.888
73335W        W37279  32.438  35.894   3.695
73336W        W37280  14.259  15.798   0.259
73337W        W37281  10.716   2.849  11.975
73338W        W37282  33.884   7.857   1.913
73339W        W37283  18.152   3.884  11.524
73340W        W37284  22.743  30.426   1.364
73341W        W37285  22.021  18.212  14.456
73342W        W37286   1.306   7.416   3.262
73343W        W37287  17.232  43.786   3.256
73344W        W37288  24.988   2.863  12.419
73345W        W37289  17.061  26.036  13.519
73346W        W37290  30.417  41.903  12.846
73347W        W37291  22.095   0.782  12.057
73348W        W37292  28.992  20.670  11.602
73349W        W37293  41.819  42.019   0.833
73350W        W37294  28.677  20.542   0.844
73351W        W37295  20.190  29.069   3.245
73352W        W37296   5.319  24.166   2.806
73353W        W37297   7.371  16.647  11.564
73354W        W37298  34.950  23.237  14.383
73355W        W37299   9.386  34.105   4.749
73356W        W37300  35.005  18.192  12.394
73357W        W37301   0.401  12.637  13.482
73358W        W37302   0.416  40.396  11.589
73359W        W37303  30.997  44.850   3.160
73360W        W37304  36.940   7.721  13.332
73361W        W37305   4.240   9.267   5.790
73362W        W37306  18.227  17.722  11.992
73363W        W37307  17.802   7.408   2.789
73364W        W37308  13.630  22.205   0.926
73365W        W37309  42.335  30.992  11.459
73366W        W37310  30.020  43.818   2.873
73367W        W37311  15.593  29.447  12.878
73368W        W37312  43.321  40.946  10.943
73369W        W37313   2.865  33.083  10.550
73370W        W37314  33.380  40.405   1.867
73371W        W37315  41.380  22.136   0.303
73372W        W37316  41.990   3.874   2.319
73373W        W37317   6.260  43.288   2.338
73374W        W37318  19.188  40.879   1.323
73375W        W37319  24.050   8.794  13.955
73376W        W37320  17.094  27.531   4.300
73377W        W37321  30.984   5.860  12.535
73378W        W37322  24.018  33.886   3.335
73379W        W37323  41.962  31.476  13.512
73380W        W37324  33.059  15.706   0.782
73381W        W37325  35.472  12.289   0.265
73382W        W37326   1.419  39.958  14.824
73383W        W37327  25.186  10.302   3.274
73384W        W37328  41.453  41.893   2.814
73385W        W37329  29.086   2.437   2.328
73386W        W37330  43.470  37.563   2.742
73387W        W37331  28.625  40.014   4.222
73388W        W37332  26.981  30.032   4.628
73389W        W37333  26.649  23.189  13.942
73390W        W37334  22.660  21.041   1.310
73391W        W37335   4.321  36.356  12.571
73392W        W37336   8.395  15.211  12.920
73393W        W37337  30.104  12.678   4.800
73394W        W37338   0.925  17.088  10.612
73395W        W37339   0.301  34.911  11.966
73396W        W37340   9.317  38.333   2.854
73397W        W37341  40.391  26.017   0.342
73398W        W37342  35.476  22.574   4.293
73399W        W37343  41.437  13.264   2.894
73400W        W37344  22.631   7.202  14.940
73401W        W37345   8.790   3.762  13.015
73402W        W37346  34.957   1.389  14.350
73403W        W37347  10.216  38.540   5.166
73404W        W37348  30.547  21.632   2.823
73405W        W37349  14.820  23.095   1.804
73406W        W37350   3.441  33.991   2.233
73407W        W37351  30.532   3.375   1.391
73408W        W37352   7.239   1.789   0.470
73409W        W37353  19.689  23.133  11.475
73410W        W37354  10.249  21.734  12.984
73411W        W37355   9.790  41.857  13.947
73412W        W37356  18.104  38.341  10.495
73413W        W37357  23.511  10.205  14.451
73414W        W37358   0.278  44.762  11.554
73415W        W37359   4.449  20.268  10.643
73416W        W37360  12.291  24.042  13.364
73417W        W37361  42.852  34.112  11.380
73418W        W37362  32.001  29.950  10.516
73419W        W37363  13.790   1.835  14.352
73420W        W37364   5.789   5.320   4.308
73421W        W37365  25.036   4.747  11.561
73422W        W37366   5.394  19.188   0.455
73423W        W37367   1.380  44.877  14.887
73424W        W37368  26.049   5.404  11.406
73425W        W37369   6.254   8.835   2.204
73426W        W37370  38.880  19.669  12.886
73427W        W37371  22.565  34.984   3.767
73428W        W37372  34.380  30.441   3.696
73429W        W37373   5.689   9.699  13.432
73430W        W37374  36.366  18.770   2.886
73431W        W37375  42.338  33.578   3.155
73432W        W37376   8.193  44.288   3.330
73433W        W37377  18.751  10.322   4.622
73434W        W37378  29.918  36.428   2.203
73435W        W37379   2.365   2.750  10.992
73436W        W37380  13.287  23.191  13.329
73437W        W37381  40.437   7.214   9.933
73438W        W37382   4.848  41.449   2.275
73439W        W37383  25.112  24.671  11.012
73440W        W37384  34.460  39.405  13.316
73441W        W37385  34.120  26.519   3.289
73442W        W37386  13.672  26.038  13.860
73443W        W37387   5.426  13.654   1.382
73444W        W37388  38.843  31.524  12.831
73445W        W37389  28.929  32.035  12.069
73446W        W37390  13.215  24.064   2.857
73447W        W37391  38.410  20.068   4.670
73448W        W37392  11.268  28.994  12.935
73449W        W37393  28.110  27.594   4.600
73450W        W37394  10.842  44.392   2.295
73451W        W37395  30.522   2.372   2.251
73452W        W37396  23.123  14.662  12.023
73453W        W37397  22.729   0.974  14.863
73454W        W37398  15.792  12.615   1.911
73455W        W37399   6.228  15.592   4.166
73456W        W37400  38.903   6.198   4.795
73457W        W37401   2.901   9.765  12.049
73458W        W37402   6.428   5.226  11.883
73459W        W37403   1.752  25.497  11.994
73460W        W37404  28.123  29.475   0.315
73461W        W37405  13.846  41.830  14.984
73462W        W37406   0.482  31.991   4.748
73463W        W37407   7.377   6.877   1.694
73464W        W37408  39.811  37.402  14.322
73465W        W37409  31.914   6.722  14.330
73466W        W37410   4.394   2.308  14.401
73467W        W37411  10.779  37.485  13.954
73468W        W37412  15.279  39.486  14.841
73469W        W37413   9.880  10.380  11.475
73470W        W37414  19.640   5.906  13.444
73471W        W37415   4.707  38.393   0.418
73472W        W37416   1.813  19.214   4.180
73473W        W37417  42.814   3.770  10.536
73474W        W37418   0.916  41.468   4.231
73475W        W37419  28.023   4.322   3.669
73476W        W37420  33.072  10.741  14.307
73477W        W37421   4.342  14.164  10.494
73478W        W37422  30.081   6.745  10.967
73479W        W37423  37.840  15.612   2.310
73480W        W37424  25.983   0.758   2.811
73481W        W37425  33.595  44.780   4.246
73482W        W37426  20.651  27.679   2.892
73483W        W37427  15.773  20.747   4.673
73484W        W37428  28.180  37.349   0.941
73485W        W37429  13.733   6.764   1.913
73486W        W37430   2.405  43.306   4.698
73487W        W37431  33.118   9.257  10.540
73488W        W37432  40.413  36.417  13.879
73489W        W37433  23.207  28.099   3.711
73490W        W37434  19.246  27.567  13.498
73491W        W37435   5.371  23.984   0.839
73492W        W37436  15.625   6.804  13.410
73493W        W37437   1.325  36.849   2.863
73494W        W37438  31.927  11.330  11.457
73495W        W37439  31.559  19.200  10.625
73496W        W37440  24.608   5.201  12.569
73497W        W37441  12.651  29.576   2.189
73498W        W37442   8.835  34.942   4.199
73499W        W37443  20.122  37.546  12.548
73500W        W37444   7.838  21.025   3.814
73501W        W37445  41.851   1.851  12.425
73502W        W37446  31.419  37.987  14.939
73503W        W37447  19.246  21.088  13.516
73504W        W37448  19.705   5.766  10.891
73505W        W37449   4.378  10.366  11.529
73506W        W37450  30.152  18.217  13.383
73507W        W37451  19.564   9.295  14.897
73508W        W37452  44.287  24.523  12.048
73509W        W37453  43.292  12.743  10.907
73510W        W37454  38.550  25.071  11.923
73511W        W37455  24.594  27.104   0.921
73512W        W37456  28.995  28.662  12.929
73513W        W37457  29.435  16.772   0.848
73514W        W37458  42.314  18.138   1.850
73515W        W37459  43.436   5.214  11.610
73516W        W37460  14.106  44.911   4.132
73517W        W37461  18.546  27.155  13.944
73518W        W37462   3.280   2.833  14.848
73519W        W37463  35.975  29.116   3.816
73520W        W37464  33.092  29.570  11.947
73521W        W37465  42.491  38.369   1.794
73522W        W37466  41.928   5.814  11.877
73523W        W37467  28.592  13.678   0.371
73524W        W37468  25.525   9.806  12.406
73525W        W37469  43.503  20.738   1.371
73526W        W37470  12.309  42.942   0.291
73527W        W37471  34.905  14.786  11.586
73528W        W37472  12.352  18.604  11.081
73529W        W37473   4.289  34.572  13.533
73530W        W37474  14.592  43.300   4.689
73531W        W37475   5.698  13.120   3.199
73532W        W37476  31.072  24.058  11.022
73533W        W37477  43.421  44.448  11.495
73534W        W37478  28.477   0.421   2.692
73535W        W37479  24.981  10.805  14.352
73536W        W37480   9.878  35.531  14.412
73537W        W37481   1.882   7.223   2.811
73538W        W37482  27.587  17.084  11.913
73539W        W37483  18.555  11.794   3.782
73540W        W37484  20.593   0.258   2.409
73541W        W37485   2.742  12.828   4.782
73542W        W37486   5.385   2.316  14.405
73543W        W37487  31.994  38.407   2.663
73544W        W37488   3.257  35.436   0.295
73545W        W37489  12.156  14.621   2.764
73546W        W37490  23.141  37.912   4.754
73547W        W37491   3.841  23.112  11.109
73548W        W37492  12.161  44.917   0.418
73549W        W37493  20.040  17.168   0.871
73550W        W37494  13.334  22.018  14.338
73551W        W37495  26.111  25.575   3.359
73552W        W37496   3.945  37.400  10.639
73553W        W37497  24.050  41.393  14.338
73554W        W37498  25.117   6.870  13.811
73555W        W37499  40.355  30.646  11.110
73556W        W37500  18.755  24.974  13.814
73557W        W37501   4.211  16.631  11.928
73558W        W37502  38.549  18.135   0.795
73559W        W37503  29.952  10.361  12.908
73560W        W37504  30.937   0.486   0.367
73561W        W37505  16.162  17.677  13.392
73562W        W37506   5.817  13.198   4.667
73563W        W37507  26.686  34.581  13.925
73564W        W37508  29.968  19.235   0.856
73565W        W37509  37.436  41.467  14.458
73566W        W37510  32.020  38.455  12.910
73567W        W37511   3.413  26.566  12.869
73568W        W37512   3.327   7.186   3.208
73569W        W37513  18.671   3.357  14.275
73570W        W37514   9.246  27.001  14.863
73571W        W37515  36.932  23.689  14.399
73572W        W37516   6.368  34.042  13.528
73573W        W37517   6.695  18.249  14.357
73574W        W37518  18.749  41.327   2.781
73575W        W37519  39.919   1.381   1.832
73576W        W37520  11.762   4.399  12.872
73577W        W37521  41.534   2.776   1.842
73578W        W37522  16.580  15.818  11.437
73579W        W37523  40.522  15.240   0.433
73580W        W37524  43.818  16.217   2.712
73581W        W37525  11.158  16.647  13.495
73582W        W37526  10.279  15.759  11.039
73583W        W37527  37.498  12.207   4.339
73584W        W37528  29.997  39.898   4.792
73585W        W37529   3.403  39.483   2.182
73586W        W37530   0.393  16.072   2.715
73587W        W37531  13.195  20.081  12.456
73588W        W37532  10.790  19.236  10.617
73589W        W37533  13.620   2.753  10.081
73590W        W37534  10.210  10.820  14.508
73591W        W37535  27.465   5.366   0.909
73592W        W37536  14.094  33.443   2.840
73593W        W37537  36.369  22.534  12.546
73594W        W37538  41.808  17.627  13.858
73595W        W37539  17.705  14.269  10.585
73596W        W37540  22.612  31.636   4.242
73597W        W37541  28.110  34.582  14.930
73598W        W37542  24.709  32.007   1.251
73599W        W37543   3.255  31.153  10.534
73600W        W37544  12.346   5.202  14.503
73601W        W37545  33.046  18.244   3.222
73602W        W37546   8.841  29.100   2.790
73603W        W37547  31.125  11.641   2.348
73604W        W37548  29.631  25.620   3.685
73605W        W37549  43.867  39.362   0.330
73606W        W37550   3.368  17.724   3.284
73607W        W37551  38.056  23.585  14.903
73608W        W37552  22.183  41.926   0.867
73609W        W37553   0.849  23.599   2.747
73610W        W37554  10.235  20.571  11.446
73611W        W37555  36.938   4.922  12.902
73612W        W37556  39.898  44.422   1.352
73613W        W37557   0.901  35.388  11.108
73614W        W37558  40.976   3.403   4.132
73615W        W37559  10.658  11.670   0.438
73616W        W37560  37.910  36.013   2.220
73617W        W37561   5.257   1.254  10.961
73618W        W37562  15.208  39.431  13.463
73619W        W37563   4.315  19.128  12.543
73620W        W37564  33.566  31.536  14.375
73621W        W37565   4.389  30.420  13.444
73622W        W37566   6.350   9.207  13.416
73623W        W37567  13.294  18.697   3.294
73624W        W37568  22.114   2.284  11.908
73625W        W37569   7.761  32.990  11.392
73626W        W37570  44.875  24.215   1.379
73627W        W37571  22.193  34.544  12.477
73628W        W37572  21.048  40.838  10.494
73629W        W37573  14.311  16.592  12.995
73630W        W37574  40.517  30.126  14.900
73631W        W37575  23.114  41.800   4.247
73632W        W37576  44.305  16.304   0.806
73633W        W37577  41.934  40.891   2.385
73634W        W37578  43.482  41.295   5.154
73635W        W37579  20.217  14.766  13.887
73636W        W37580  12.154  17.609  11.381
73637W        W37581  23.604   7.682   0.730
73638W        W37582  23.524  29.590   2.763
73639W        W37583  39.901  24.992  12.443
73640W        W37584  33.392   4.698  13.025
73641W        W37585   8.262  32.111  11.105
73642W        W37586  18.761  29.463   1.822
73643W        W37587  17.567  43.866   1.858
73644W        W37588  13.191  28.680  11.017
73645W        W37589  44.000   7.181   2.870
73646W        W37590  38.523   3.264  11.477
73647W        W37591  44.293   4.743   0.293
73648W        W37592  16.656  30.014  14.820
73649W        W37593   9.737  16.159   4.230
73650W        W37594  36.089  14.777  13.947
73651W        W37595  40.967  23.240   2.273
73652W        W37596   5.347  44.834  14.857
73653W        W37597  34.575   7.416  11.909
73654W        W37598   4.295  29.978  13.903
73655W        W37599  42.441   3.311  14.285
73656W        W37600  37.852  21.579  14.851
73657W        W37601  23.141  33.529  14.773
73658W        W37602  17.780  10.343  11.921
73659W        W37603  25.967  29.567  12.834
73660W        W37604  10.204   0.334   5.220
73661W        W37605  29.050  19.561   0.409
73662W        W37606   1.253  29.008   0.852
73663W        W37607   5.266  44.944  13.023
73664W        W37608   2.362   6.745   0.481
73665W        W37609  34.027  31.506  12.487
73666W        W37610  12.283  27.188  12.082
73667W        W37611   7.891  17.245  14.456
73668W        W37612  25.167  35.584  13.961
73669W        W37613   8.347  19.176   0.276
73670W        W37614   3.771  28.093   2.280
73671W        W37615  20.180  33.048   3.781
73672W        W37616  32.114  40.820  10.938
73673W        W37617  22.747  41.438  10.575
73674W        W37618  37.954  14.288   4.172
73675W        W37619   0.372  14.177  14.794
73676W        W37620  35.550  15.261  11.986
73677W        W37621  43.377  16.607   1.831
73678W        W37622  34.985  42.003   2.824
73679W        W37623  36.856  32.604  11.895
73680W        W37624  21.249  18.702  11.953
73681W        W37625  42.407   4.434  13.907
73682W        W37626  15.160   9.162  14.326
73683W        W37627  29.113  37.913  13.008
73684W        W37628  43.998  28.052  12.447
73685W        W37629  22.679  37.838   0.477
73686W        W37630   3.732   9.744  12.946
73687W        W37631   3.952   8.688   1.291
73688W        W37632  11.665  10.384  13.945
73689W        W37633   8.308  20.737  14.775
73690W        W37634  21.748  14.141  10.594
73691W        W37635  42.445  22.053  11.859
73692W        W37636  28.537  30.943  12.487
73693W        W37637  34.589  44.266  14.969
73694W        W37638  10.347  32.447   1.275
73695W        W37639  16.236  23.009  12.917
73696W        W37640   0.838  31.034   1.431
73697W        W37641   1.434  26.673  13.795
73698W        W37642  30.080   2.878   1.439
73699W        W37643  14.721  32.954   1.852
73700W        W37644  17.651  18.232   2.233
73701W        W37645  36.495  10.681  14.468
73702W        W37646  41.513   6.285  14.841
73703W        W37647  27.575   8.845   4.615
73704W        W37648   5.797  44.348  10.632
73705W        W37649  18.563  35.890   2.834
73706W        W37650  21.035  31.912   4.167
73707W        W37651  17.284  35.583  11.930
73708W        W37652  37.838  43.923  12.040
73709W        W37653  37.342  29.434   3.345
73710W        W37654  37.360   1.474  14.805
73711W        W37655   1.760  19.224   3.794
73712W        W37656  40.369  20.204   3.665
73713W        W37657  21.626  11.660  11.856
73714W        W37658  41.994   6.305   2.856
73715W        W37659   4.716  10.752   4.197
73716W        W37660  31.635   9.803   2.889
73717W        W37661  21.181  24.146  14.914
73718W        W37662   7.671   7.845  12.404
73719W        W37663  41.423  27.010   3.199
73720W        W37664  22.660  11.835   2.335
73721W        W37665   2.417  22.596  14.503
73722W        W37666   2.407  43.930  10.945
73723W        W37667  16.695  18.588   0.373
73724W        W37668  31.039  44.418   1.721
73725W        W37669  40.424  39.389  14.379
73726W        W37670  27.988   6.351   2.263
73727W        W37671  31.598   7.860  12.366
73728W        W37672  14.616  14.098   1.882
73729W        W37673  35.896  21.204  10.981
73730W        W37674  23.649  21.229  14.400
73731W        W37675  38.972  29.639   1.696
73732W        W37676  10.837  44.007   4.725
73733W        W37677  28.477  19.168  14.932
73734W        W37678  26.969  38.852   1.243
73735W        W37679  19.614   4.831   1.702
73736W        W37680  36.850  26.966  14.352
73737W        W37681  40.890   8.710  13.890
73738W        W37682  28.017  18.215  11.429
73739W        W37683  34.494  18.166   1.921
73740W        W37684   4.801  17.731  10.464
73741W        W37685  41.356  16.293   2.254
73742W        W37686   0.326  24.054   4.137
73743W        W37687  22.186  11.743  12.954
73744W        W37688   7.378  36.572  13.451
73745W        W37689   8.387  32.023   0.290
73746W        W37690   3.239   8.707   3.376
73747W        W37691  38.055  26.963  13.518
73748W        W37692  37.447  32.018   9.983
73749W        W37693  18.682   0.285   2.235
73750W        W37694  29.067  11.633  11.396
73751W        W37695  35.476   9.378  13.832
73752W        W37696  13.706  31.601   3.275
73753W        W37697  24.499  28.639  10.608
73754W        W37698  43.783  39.894   0.728
73755W        W37699  17.216  41.025  12.036
73756W        W37700   5.415   6.685   3.188
73757W        W37701  12.211  14.737   4.648
73758W        W37702  23.144  31.625   0.927
73759W        W37703  31.531   9.271  10.408
73760W        W37704  19.210  38.056   4.654
73761W        W37705  43.440   6.749   2.811
73762W        W37706  20.226  17.209  10.635
73763W        W37707  42.961  10.206  11.063
73764W        W37708  34.971  36.887  12.414
73765W        W37709  29.658  37.920  11.868
73766W        W37710  13.721  18.630   3.846
73767W        W37711  14.137  10.828  13.321
73768W        W37712  16.216  38.519   1.271
73769W        W37713  27.599  13.141   4.327
73770W        W37714  18.201  14.232   3.761
73771W        W37715  15.613  43.483  12.370
73772W        W37716   4.886  39.929   4.219
73773W        W37717  40.334  43.800  14.878
73774W        W37718  13.106   9.776   3.380
73775W        W37719  32.480  13.748   4.264
73776W        W37720  43.892   7.896   4.680
73777W        W37721  30.156  14.249  11.012
73778W        W37722  40.477  42.439   2.828
73779W        W37723  21.742  41.822   0.943
73780W        W37724  37.909  39.335   4.733
73781W        W37725  32.091  15.627   1.780
73782W        W37726  27.149  28.015   0.278
73783W        W37727  42.931   9.290   3.702
73784W        W37728   5.697  21.087  12.921
73785W        W37729  20.033  43.841   2.214
73786W        W37730  14.130  29.548   1.729
73787W        W37731  35.426  13.314   0.810
73788W        W37732  43.280  36.875   2.708
73789W        W37733   8.697  41.943   1.310
73790W        W37734  19.675  32.002   1.918
73791W        W37735  28.513  16.190   2.364
73792W        W37736   9.384  25.041  10.920
73793W        W37737   8.870   7.899   5.285
73794W        W37738  15.319  24.010  10.478
73795W        W37739  39.360  16.585  13.343
73796W        W37740  13.775  41.310  12.383
73797W        W37741  18.689  44.393  12.879
73798W        W37742  23.616  17.104   1.324
73799W        W37743   4.211  25.991  12.072
73800W        W37744  31.404  24.032   4.685
73801W        W37745   3.458   9.769  12.073
73802W        W37746  25.477  10.808  13.847
73803W        W37747  13.843  16.738   1.447
73804W        W37748  14.818   8.666   0.443
73805W        W37749  44.892  36.855  13.059
73806W        W37750  17.776  34.483   5.295
73807W        W37751  39.842  41.429  13.539
73808W        W37752  19.645  38.495  12.954
73809W        W37753  38.913  28.005  12.947
73810W        W37754   6.684  38.563  10.432
73811W        W37755  29.475  32.105  12.063
73812W        W37756  12.727  22.642  12.987
73813W        W37757   6.732  25.077   2.269
73814W        W37758  18.662  44.306  13.831
73815W        W37759  14.765   2.339  12.823
73816W        W37760  29.062  31.913  10.967
73817W        W37761   6.721  39.387   0.474
73818W        W37762   1.938  16.730  13.019
73819W        W37763   3.399  35.920   3.740
73820W        W37764  43.009  26.650  10.581
73821W        W37765  30.510   6.414   1.301
73822W        W37766  10.867   3.287  14.772
73823W        W37767  41.492   5.687  10.098
73824W        W37768  36.910  20.640  10.495
73825W        W37769   7.291  19.224   3.376
73826W        W37770  34.878  23.629  11.568
73827W        W37771  40.053  18.267   1.899
73828W        W37772  15.736  44.350   3.787
73829W        W37773  43.951  17.130   2.217
73830W        W37774  19.219  17.187   4.633
73831W        W37775  26.091  21.064   3.731
73832W        W37776  26.190   6.705  13.051
73833W        W37777  42.294   0.865  11.022
73834W        W37778  24.158  11.353  11.993
73835W        W37779   6.320  37.505  13.054
73836W        W37780  12.802  16.171  12.470
73837W        W37781  21.545  22.084   5.703
73838W        W37782   4.432   1.877   0.363
73839W        W37783   1.844  12.276  10.630
73840W        W37784  31.515  32.908   2.388
73841W        W37785   5.768   5.932   1.266
73842W        W37786  41.023   2.446  12.987
73843W        W37787  25.655  12.634   2.758
73844W        W37788  38.943  26.537   0.857
73845W        W37789  23.658  21.633   2.738
73846W        W37790  20.161   1.820  13.489
73847W        W37791  11.646  32.132  11.565
73848W        W37792  21.018  16.773   2.840
73849W        W37793  33.555  34.098  10.624
73850W        W37794  33.914  15.732   1.812
73851W        W37795  31.968  32.542  14.485
73852W        W37796  43.307  25.138  13.884
73853W        W37797  17.296  30.984  13.851
73854W        W37798  32.113   0.310   0.864
73855W        W37799  14.711  19.672   4.665
73856W        W37800  30.006   9.215   0.325
73857W        W37801  23.203  41.509   3.781
73858W        W37802  12.700  34.008   0.455
73859W        W37803  37.071   8.896   1.430
73860W        W37804  21.034  15.690   2.834
73861W        W37805   9.716  28.527  13.963
73862W        W37806  18.632  40.822   3.349
73863W        W37807  38.919  19.774  10.430
73864W        W37808  16.694  10.226  11.427
73865W        W37809  34.898  28.664   1.710
73866W        W37810  33.382  42.953  14.868
73867W        W37811  32.609   1.843   3.197
73868W        W37812   3.828   5.328  13.311
73869W        W37813  13.668   5.322  12.011
73870W        W37814   7.771  30.101  12.070
73871W        W37815  25.999  15.159  11.378
73872W        W37816  39.497   0.447  13.822
73873W        W37817   5.330  19.605  11.886
73874W        W37818  42.453  17.696   3.322
73875W        W37819  25.077  13.690   0.292
73876W        W37820  20.111  18.159   4.715
73877W        W37821  36.537   8.893  12.455
73878W        W37822   3.837  29.473  13.537
73879W        W37823  37.963  17.105   3.266
73880W        W37824  24.099  31.480  14.910
73881W        W37825   5.797  12.142   0.961
73882W        W37826  35.933  34.120  10.938
73883W        W37827  13.726  30.506  11.393
73884W        W37828   0.337  44.854  10.587
73885W        W37829   0.849  21.243  10.893
73886W        W37830  17.228  43.895  13.833
73887W        W37831   0.947  40.408  10.912
73888W        W37832  15.094   2.301   1.727
73889W        W37833  32.926  40.340   4.784
73890W        W37834  34.085  37.073   2.384
73891W        W37835   6.825  19.098  10.514
73892W        W37836  36.395  20.116  12.883
73893W        W37837  38.411   2.391   0.261
73894W        W37838  41.369  35.445  12.031
73895W        W37839  23.562  11.787  12.545
73896W        W37840   4.806  10.736   0.277
73897W        W37841  27.033   0.808  13.878
73898W        W37842  43.948  30.981   0.925
73899W        W37843   0.894  29.600   2.365
73900W        W37844  26.964  38.486  12.861
73901W        W37845  11.832   1.788  10.107
73902W        W37846  34.525  23.012  13.420
73903W        W37847  12.709   6.419  11.940
73904W        W37848  38.880  12.128   0.433
73905W        W37849   1.393  41.464  12.092
73906W        W37850  40.427  43.973  10.896
73907W        W37851  37.439  18.159   4.730
73908W        W37852  43.889  35.049   0.790
73909W        W37853  26.458  28.674  12.020
73910W        W37854  33.483  14.255  11.070
73911W        W37855   6.210  12.684  14.999
73912W        W37856  15.611  34.108   0.759
73913W        W37857  36.519   8.257  11.583
73914W        W37858  41.983   3.930   5.201
73915W        W37859  22.068   3.230   1.717
73916W        W37860  34.488  24.073  13.802
73917W        W37861  34.991  33.999   3.830
73918W        W37862  21.230   8.186  11.066
73919W        W37863  32.484  29.520   0.308
73920W        W37864  23.565   9.772  11.371
73921W        W37865  23.613  27.562  14.911
73922W        W37866   3.364  40.481   0.884
73923W        W37867  11.768  14.245  11.988
73924W        W37868  13.822  44.819   4.185
73925W        W37869  26.490  22.229  13.381
73926W        W37870  30.070   1.868  13.023
73927W        W37871   7.250  17.740   3.649
73928W        W37872  15.583  37.558  11.396
73929W        W37873  24.044  26.655   0.438
73930W        W37874  19.259  40.810   1.767
73931W        W37875   4.382  38.392   4.255
73932W        W37876  31.642  13.303  12.993
73933W        W37877   8.803  32.045   1.786
73934W        W37878  40.822  20.210   4.219
73935W        W37879  18.753  11.187   2.250
73936W        W37880  29.086   0.487   0.293
73937W        W37881  14.164  11.653   4.822
73938W        W37882  15.240   6.254   3.156
73939W        W37883  44.833  42.503  11.473
73940W        W37884  34.062  40.457   4.627
73941W        W37885   0.971  37.951   1.714
73942W        W37886   6.410  13.821   2.277
73943W        W37887  23.082  22.207   1.252
73944W        W37888  16.694  17.624  12.082
73945W        W37889  11.687  25.492   1.261
73946W        W37890   7.819  43.961  11.392
73947W        W37891  12.786  29.161   0.288
73948W        W37892  27.954  38.965  12.061
73949W        W37893  14.623   3.256  13.443
73950W        W37894  15.748   7.673   1.726
73951W        W37895  41.002   2.292   2.878
73952W        W37896  34.873  14.706  12.865
73953W        W37897  27.660  27.075  12.577
73954W        W37898  38.376  12.687   1.781
73955W        W37899   6.299  32.993   2.847
73956W        W37900  44.870  38.516   3.794
73957W        W37901  30.487  43.415   0.243
73958W        W37902  10.685  25.123   0.345
73959W        W37903  43.812  40.932   4.284
73960W        W37904   5.832  32.537   3.353
73961W        W37905  41.371  41.027   0.287
73962W        W37906  16.661   9.737   0.796
73963W        W37907   5.874  14.098   3.314
73964W        W37908  21.255  37.391   3.663
73965W        W37909  11.360  28.074   4.218
73966W        W37910  38.977  23.095   0.332
73967W        W37911  21.061   6.185  11.504
73968W        W37912  36.524  44.788  11.543
73969W        W37913  14.752  16.655  13.970
73970W        W37914   9.671  44.988   0.280
73971W        W37915  19.740  21.751   4.744
73972W        W37916   0.812   1.258   0.309
73973W        W37917  20.668  21.511  12.849
73974W        W37918  31.437  20.032  14.849
73975W        W37919  35.481  10.271   2.785
73976W        W37920  20.621  37.363  14.839
73977W        W37921  21.058  22.011   9.596
73978W        W37922   9.289  23.642   2.339
73979W        W37923  39.066  17.562  13.862
73980W        W37924  34.877   7.767   4.298
73981W        W37925  37.415  42.026  14.901
73982W        W37926   2.423  26.661  14.479
73983W        W37927  33.390   0.749  10.624
73984W        W37928  12.122  29.966  12.954
73985W        W37929  34.027  19.255   1.824
73986W        W37930  18.183   2.412  14.361
73987W        W37931   3.292  15.628  12.861
73988W        W37932  11.669  24.498  11.128
73989W        W37933   4.844  31.898  14.886
73990W        W37934  32.938   6.812  14.015
73991W        W37935  32.071  39.846  14.818
73992W        W37936  34.982  34.383  11.457
73993W        W37937  37.345  16.127   3.635
73994W        W37938  22.501  16.715   2.800
73995W        W37939  43.386  21.656  12.381
73996W        W37940  41.345   7.745   3.714
73997W        W37941   0.289  39.543   3.313
73998W        W37942   1.306  11.852   4.192
73999W        W37943   2.724  10.221  13.962
74000W        W37944   8.214  15.673  13.487
74001W        W37945   9.872  26.522  10.105
74002W        W37946  43.894  17.705  13.321
74003W        W37947  21.203  33.893  12.033
74004W        W37948  26.572  43.799  14.409
74005W        W37949   2.826  22.536  13.453
74006W        W37950  38.071  24.725  13.986
74007W        W37951  40.344  10.722   2.251
74008W        W37952  43.481  35.094  10.584
74009W        W37953  29.522   2.455   0.747
74010W        W37954   0.381  12.161   0.476
74011W        W37955  10.235  25.036  13.000
74012W        W37956   7.759  36.844  14.482
74013W        W37957   2.289  26.663   1.736
74014W        W37958   8.184  10.758   2.273
74015W        W37959  19.600  10.752  10.410
74016W        W37960  41.329   7.739  11.012
74017W        W37961  34.056  30.082  11.121
74018W        W37962   7.877  28.935  13.002
74019W        W37963  25.964  23.700  11.418
74020W        W37964  25.164  10.726  13.379
74021W        W37965  21.684  32.512  12.469
74022W        W37966   3.709  17.743  12.953
74023W        W37967  36.924   9.175   2.314
74024W        W37968   4.320  21.634  12.935
74025W        W37969   5.351   8.846  11.552
74026W        W37970  14.719   6.697  10.527
74027W        W37971   1.293  24.195  14.951
74028W        W37972  39.376  34.017   1.778
74029W        W37973   5.287  10.196   1.768
74030W        W37974   2.919  19.656  10.441
74031W        W37975  10.723  20.052   4.784
74032W        W37976  25.060   8.358  12.449
74033W        W37977   1.789  41.479   4.287
74034W        W37978  23.100  11.694   2.770
74035W        W37979   4.403  43.505  10.558
74036W        W37980  37.517  29.645  14.836
74037W        W37981  16.759  41.794   0.772
74038W        W37982   9.321   6.231  11.898
74039W        W37983  10.637  12.134   0.330
74040W        W37984  14.827  35.569   1.342
74041W        W37985  42.791   3.368   3.647
74042W        W37986  35.098   6.287  14.442
74043W        W37987  24.209  38.369   3.839
74044W        W37988   2.370   4.698   2.816
74045W        W37989  44.917  21.080  12.383
74046W        W37990  28.047  13.125   0.305
74047W        W37991  20.665   6.405  11.916
74048W        W37992   1.455  21.638   1.448
74049W        W37993  38.360  27.650  12.484
74050W        W37994  15.270   1.798   1.378
74051W        W37995   5.737  24.167   1.765
74052W        W37996  16.143   8.872   1.712
74053W        W37997  34.045  34.504   1.225
74054W        W37998  42.805  10.229   5.245
74055W        W37999  11.686  10.191   4.163
74056W        W38000  27.622   7.313  10.476
74057W        W38001  40.825  12.671   1.441
74058W        W38002   1.268  16.746  12.487
74059W        W38003   0.319  31.927  14.419
74060W        W38004  13.313  40.014   4.339
74061W        W38005  44.964   5.836  10.105
74062W        W38006  43.876  12.792   1.865
74063W        W38007  20.650  25.529  12.444
74064W        W38008  32.588  29.487   4.173
74065W        W38009  18.191   2.433   4.263
74066W        W38010   5.845  25.692   0.345
74067W        W38011  12.642  17.681  11.907
74068W        W38012  13.748  41.379   4.321
74069W        W38013  21.517  30.438  11.447
74070W        W38014  25.998  39.428  13.511
74071W        W38015   4.344  39.851  11.058
74072W        W38016  10.698  28.537  10.475
74073W        W38017  40.389  32.136   2.290
74074W        W38018   2.925  18.567   4.224
74075W        W38019  20.141   9.291  10.594
74076W        W38020  41.340  14.230  11.111
74077W        W38021  20.053  13.648  11.542
74078W        W38022   1.863  37.492  12.417
74079W        W38023  31.967   3.777  11.498
74080W        W38024  17.780  31.914   3.700
74081W        W38025   1.267  43.294   4.158
74082W        W38026  15.582  22.998  11.048
74083W        W38027   1.920   9.823   4.759
74084W        W38028  35.398   5.776  14.031
74085W        W38029  18.185  27.601   1.263
74086W        W38030  25.061  26.518   4.606
74087W        W38031  16.161  26.060  11.928
74088W        W38032   3.938  41.464  10.079
74089W        W38033  29.984  42.466   3.367
74090W        W38034  21.107  40.825   2.851
74091W        W38035   5.761   2.409  13.846
74092W        W38036  33.883  23.168  14.389
74093W        W38037   5.860  33.884  11.531
74094W        W38038  44.321   5.349  12.559
74095W        W38039  34.947  14.591  14.833
74096W        W38040   0.805  17.131  12.537
74097W        W38041  33.934   9.753   1.287
74098W        W38042   3.264  14.666  14.366
74099W        W38043  31.559  36.994  14.982
74100W        W38044  14.157  16.241   3.355
74101W        W38045  17.719  31.089   2.730
74102W        W38046  40.357  21.717   2.403
74103W        W38047  26.195  44.371  12.844
74104W        W38048  22.699  36.447   0.373
74105W        W38049  15.316   6.860  14.822
74106W        W38050  11.156  22.530  11.434
74107W        W38051   8.242   8.397  10.430
74108W        W38052   3.229   8.854   4.206
74109W        W38053  40.827   0.963   4.337
74110W        W38054  29.519  26.583   4.736
74111W        W38055  40.417  29.573  13.498
74112W        W38056  17.257  15.129   2.407
74113W        W38057   7.883  11.861   4.769
74114W        W38058  22.070   4.257   2.264
74115W        W38059   7.200  23.187  14.944
74116W        W38060  22.647  34.436  11.890
74117W        W38061  11.808  11.352  10.408
74118W        W38062  16.145  40.541   0.304
74119W        W38063  30.005  19.672   4.785
74120W        W38064  27.171  34.975   0.344
74121W        W38065  37.409  32.915   0.263
74122W        W38066  29.660  44.477  10.967
74123W        W38067  34.464  42.001  12.848
74124W        W38068  13.114  29.064  13.849
74125W        W38069  33.019   4.359  14.337
74126W        W38070  25.096  23.055  14.336
74127W        W38071  37.945  31.565   2.705
74128W        W38072  38.543  30.564   2.216
74129W        W38073  36.979   9.220   0.809
74130W        W38074  36.865  24.605  11.384
74131W        W38075  15.147  19.666   4.232
74132W        W38076   1.906  12.314   4.138
74133W        W38077  34.489  25.123  11.021
74134W        W38078  13.144  32.056   0.870
74135W        W38079   8.855  30.510  13.885
74136W        W38080   5.337  43.311  13.937
74137W        W38081  40.044  33.607  12.521
74138W        W38082  28.048  43.857  10.989
74139W        W38083  28.526  37.554  12.372
74140W        W38084   6.760  27.692   2.393
74141W        W38085  15.290   6.868  12.935
74142W        W38086  38.499  19.747   3.355
74143W        W38087  26.484  13.134  11.865
74144W        W38088  22.637  36.510   1.915
74145W        W38089  38.918   8.314   0.423
74146W        W38090   7.402  15.195   1.283
74147W        W38091  37.361  27.599  10.618
74148W        W38092   6.295  38.420   1.861
74149W        W38093   3.281  21.152  13.875
74150W        W38094   9.218  19.221   2.853
74151W        W38095   0.296   6.265   4.128
74152W        W38096  43.842  32.923  12.910
74153W        W38097   1.394  27.148  10.433
74154W        W38098   1.811  34.459  11.391
74155W        W38099  16.197   4.858  12.849
74156W        W38100  37.896  35.404   0.917
74157W        W38101  26.495  35.504  12.959
74158W        W38102   7.248   9.795   3.681
74159W        W38103   9.656  13.601   3.269
74160W        W38104   5.385  32.587  11.378
74161W        W38105  12.749  44.956  13.463
74162W        W38106  42.526  19.129   3.303
74163W        W38107  19.179   3.403  11.059
74164W        W38108   3.288  19.596   2.413
74165W        W38109  29.924  38.437  11.541
74166W        W38110  32.116  44.476   1.863
74167W        W38111  24.589  44.862  12.411
74168W        W38112  37.064   2.452   5.588
74169W        W38113  29.963  27.119  13.983
74170W        W38114  35.954   5.862   1.904
74171W        W38115  15.200  39.400  13.003
74172W        W38116   0.970  16.808  12.433
74173W        W38117   7.696   2.928   1.764
74174W        W38118  11.803  11.820   3.243
74175W        W38119  33.495  26.128   3.678
74176W        W38120   0.779  22.212   2.206
74177W        W38121  13.677   6.216  10.507
74178W        W38122  38.057   1.391   1.749
74179W        W38123  35.005  37.944  12.521
74180W        W38124  32.434  29.110  12.517
74181W        W38125  16.196   3.802   0.945
74182W        W38126  44.358  15.153   5.229
74183W        W38127  40.043  26.004  11.863
74184W        W38128   8.349   5.717  10.592
74185W        W38129   0.762  26.093   3.277
74186W        W38130   1.794  20.140  13.024
74187W        W38131  23.077   2.764   3.370
74188W        W38132  24.571  14.674   2.780
74189W        W38133  44.929  40.867   1.427
74190W        W38134  19.603   6.412  13.034
74191W        W38135  37.917   7.728   2.772
74192W        W38136  28.501  18.716   0.808
74193W        W38137  37.507  38.936  13.967
74194W        W38138  15.741  34.398  10.426
74195W        W38139  24.597  26.679  12.891
74196W        W38140  39.481   7.254  13.409
74197W        W38141  13.181   6.262  14.881
74198W        W38142  36.910   5.426  14.465
74199W        W38143   6.363  34.914  13.847
74200W        W38144  18.071  16.715  11.528
74201W        W38145  25.109  26.505   5.216
74202W        W38146  22.199  14.256   3.842
74203W        W38147  41.900  25.057  10.154
74204W        W38148  35.417  35.484  14.290
74205W        W38149  26.547  36.953   4.726
74206W        W38150  40.965  36.979   4.646
74207W        W38151  41.525   9.763  13.425
74208W        W38152  18.142  43.449  11.992
74209W        W38153  28.526  43.495   1.744
74210W        W38154  11.808  28.032  13.925
74211W        W38155  36.869  27.622   2.336
74212W        W38156  27.565  16.630  11.998
74213W        W38157  18.054  11.363  11.925
74214W        W38158  21.739  25.014  12.007
74215W        W38159  39.050  35.395   0.780
74216W        W38160  39.369   1.798   5.138
74217W        W38161  15.606  13.796  14.285
74218W        W38162  11.315  15.705  12.085
74219W        W38163  26.647  39.415  13.853
74220W        W38164  17.614  27.160  14.492
74221W        W38165  12.853  19.614  13.404
74222W        W38166  14.659   0.252  14.843
74223W        W38167  27.633  33.932  10.598
74224W        W38168   5.377  11.363   1.298
74225W        W38169  19.057   4.740  14.821
74226W        W38170  35.071  24.650   1.322
74227W        W38171  40.494  39.901  14.404
74228W        W38172  13.817  31.111  11.033
74229W        W38173   3.800   0.490  13.457
74230W        W38174  14.236  27.688   1.796
74231W        W38175  23.187  38.456  10.642
74232W        W38176  36.996   3.350  11.558
74233W        W38177   2.289  22.221   0.290
74234W        W38178  40.055   1.963   1.932
74235W        W38179  39.352   7.710   3.838
74236W        W38180  34.435  36.013  11.959
74237W        W38181   7.757  35.949   3.660
74238W        W38182   8.223  20.612  14.495
74239W        W38183   5.766  23.189   0.823
74240W        W38184  21.103  13.780  14.932
74241W        W38185   8.765  14.283  12.498
74242W        W38186  17.631  22.727  13.438
74243W        W38187  39.879  42.302  13.514
74244W        W38188  36.522  27.596   2.698
74245W        W38189  19.646   8.740  10.600
74246W        W38190  18.750  24.611   1.878
74247W        W38191  15.734  33.441  14.767
74248W        W38192  11.782  24.177   4.152
74249W        W38193  28.033  31.423   3.199
74250W        W38194  26.134  44.880  14.899
74251W        W38195  14.835  34.599   3.275
74252W        W38196  31.096  28.608  10.973
74253W        W38197   6.407  23.726   4.348
74254W        W38198   4.342  25.565   1.335
74255W        W38199  26.150  21.588  10.453
74256W        W38200   8.197  35.991  11.120
74257W        W38201  23.073  30.420  13.993
74258W        W38202  23.674  37.421  12.564
74259W        W38203  27.477   6.213   0.860
74260W        W38204   9.188  25.041   5.146
74261W        W38205  32.525  43.826   2.709
74262W        W38206  12.851  12.236  12.072
74263W        W38207  17.292   5.870  14.306
74264W        W38208  34.060  23.561  13.458
74265W        W38209  10.857   3.739   4.351
74266W        W38210  30.457  12.611  12.350
74267W        W38211  35.464  15.087  10.524
74268W        W38212  34.382  41.796   4.779
74269W        W38213   4.875  12.811   3.730
74270W        W38214  28.512  39.852   4.617
74271W        W38215  34.919  36.099   0.324
74272W        W38216   8.692  31.416   1.933
74273W        W38217  44.002  33.918  12.381
74274W        W38218  26.130  39.503   4.687
74275W        W38219   5.345  21.201   0.836
74276W        W38220  18.581  30.998   3.359
74277W        W38221  26.482  27.147   4.752
74278W        W38222  44.972  34.049   3.264
74279W        W38223  13.711  39.860   3.757
74280W        W38224  41.792  39.957  12.903
74281W        W38225  27.059  14.665   1.443
74282W        W38226  41.893   1.826  11.084
74283W        W38227   9.229   9.359  10.638
74284W        W38228   8.328  13.661   5.786
74285W        W38229  20.054   2.368   0.831
74286W        W38230  35.958  13.258   3.774
74287W        W38231   1.781  39.927   1.314
74288W        W38232  44.781  25.647   0.914
74289W        W38233  13.800  12.692   4.201
74290W        W38234   8.278  39.490   4.609
74291W        W38235   6.808  11.739   2.206
74292W        W38236  14.324  28.033   4.638
74293W        W38237  33.907  34.429   1.806
74294W        W38238  25.619  30.455  11.050
74295W        W38239  37.896  18.734  14.476
74296W        W38240  21.209  26.207  14.869
74297W        W38241  24.645   5.768   3.850
74298W        W38242   4.903   3.440  14.845
74299W        W38243  21.171  38.017   3.166
74300W        W38244  23.991  12.657  12.960
74301W        W38245  27.557  43.455  14.382
74302W        W38246  14.309   7.405  13.023
74303W        W38247  44.001   2.428  12.538
74304W        W38248   8.224  20.224  13.403
74305W        W38249  36.947   3.897  12.458
74306W        W38250  21.098  17.237  11.593
74307W        W38251  13.758  38.479   3.366
74308W        W38252  34.463   2.268  12.453
74309W        W38253  33.086  13.114   2.206
74310W        W38254  20.056  37.034   3.753
74311W        W38255   6.368   3.304   1.247
74312W        W38256   8.361  14.194   1.703
74313W        W38257  43.960  42.826   1.849
74314W        W38258  40.481  21.613   0.464
74315W        W38259  31.934   1.767  10.408
74316W        W38260  27.650  37.884   3.728
74317W        W38261  10.780   0.869   4.275
74318W        W38262   8.302  21.033  14.782
74319W        W38263  15.261  36.467  13.007
74320W        W38264  31.038  42.935   9.991
74321W        W38265  41.806  19.089   4.729
74322W        W38266  10.173  15.298  10.627
74323W        W38267   6.730  24.518   4.836
74324W        W38268  29.513   5.312   2.846
74325W        W38269  38.021  24.076  11.550
74326W        W38270   7.886  35.029   4.729
74327W        W38271  40.951  15.602  12.869
74328W        W38272  36.075  15.121  14.363
74329W        W38273  26.128  19.722   2.816
74330W        W38274  11.742  43.486  11.397
74331W        W38275  31.597  21.148   1.886
74332W        W38276  19.235  12.625  13.396
74333W        W38277   1.388  32.550   4.192
74334W        W38278  29.516   1.388   4.124
74335W        W38279  31.037   2.462  12.082
74336W        W38280  28.014  24.061  10.128
74337W        W38281  44.433  32.926   1.849
74338W        W38282  23.086  24.194  14.835
74339W        W38283  10.170  17.287   5.290
74340W        W38284  22.190   9.257  11.045
74341W        W38285  13.672   6.319  13.049
74342W        W38286   0.305  32.473  12.509
74343W        W38287  35.471  11.218  14.977
74344W        W38288  20.725  20.256   1.721
74345W        W38289  11.349   7.835   2.664
74346W        W38290  42.961  11.624  14.860
74347W        W38291   2.300  37.042  10.930
74348W        W38292  34.480  33.558   3.681
74349W        W38293   0.793  41.896  12.907
74350W        W38294  15.181  40.377   0.960
74351W        W38295  35.019  27.098  14.345
74352W        W38296  41.379  23.734   2.207
74353W        W38297  38.458  20.216  11.990
74354W        W38298   3.949  40.351   2.353
74355W        W38299  17.731   6.830  14.815
74356W        W38300  37.359  38.367   3.828
74357W        W38301  36.389  29.118  13.903
74358W        W38302  35.508  28.670   0.427
74359W        W38303   0.838  24.083  10.635
74360W        W38304  14.728  23.546  12.870
74361W        W38305  24.162  43.778   3.742
74362W        W38306  38.517  42.451   0.830
74363W        W38307  22.687  15.207  12.388
74364W        W38308  25.596   8.258  11.107
74365W        W38309  22.033  34.491   0.362
74366W        W38310  16.692   7.868   3.728
74367W        W38311  42.853  15.648   2.728
74368W        W38312   4.214   4.777  11.392
74369W        W38313  10.157  21.163  11.026
74370W        W38314  34.543  32.454   1.748
74371W        W38315  43.936  20.109  13.887
74372W        W38316   4.229   8.847   4.829
74373W        W38317  17.654   9.262  11.097
74374W        W38318  35.567  37.920   4.134
74375W        W38319   3.944   6.411  11.918
74376W        W38320  20.541   0.916  12.442
74377W        W38321  15.790  19.540   0.249
74378W        W38322  44.969  32.554   3.345
74379W        W38323  13.841  14.679   0.873
74380W        W38324  29.502  42.400  11.960
74381W        W38325  38.865  29.143  14.821
74382W        W38326  11.211  14.750   1.305
74383W        W38327   3.352   2.903  12.911
74384W        W38328   5.703  31.621  13.886
74385W        W38329   7.794  25.556  14.941
74386W        W38330  17.206  25.964   0.879
74387W        W38331  13.295   0.252   3.331
74388W        W38332  17.755  31.457  13.870
74389W        W38333  29.446  14.833   3.819
74390W        W38334   0.791  14.641  10.607
74391W        W38335  16.232  25.969   1.848
74392W        W38336  23.989  33.406   4.776
74393W        W38337  26.687  41.441  14.884
74394W        W38338   2.845  24.643  13.880
74395W        W38339   5.231  14.162   0.391
74396W        W38340  43.425  13.837   4.289
74397W        W38341  37.060  30.442  13.815
74398W        W38342  27.556  30.501  14.335
74399W        W38343  22.711  41.903   4.240
74400W        W38344   2.256  32.016  12.509
74401W        W38345  43.877   2.262   4.621
74402W        W38346  42.414  13.699  14.798
74403W        W38347   2.862  41.953  12.841
74404W        W38348   5.707  29.466  11.543
74405W        W38349  29.120  39.457   3.213
74406W        W38350   2.816  13.116   4.258
74407W        W38351  43.869  44.383  11.907
74408W        W38352  18.274  39.038   0.758
74409W        W38353  10.722   9.205   1.777
74410W        W38354  25.997  10.335  14.875
74411W        W38355  23.502   0.945   3.307
74412W        W38356  18.743  19.643   4.758
74413W        W38357  11.292  28.017   0.405
74414W        W38358  21.577  32.116   4.165
74415W        W38359  43.290  27.468   1.362
74416W        W38360   2.261  11.862   4.802
74417W        W38361   7.856  35.512  11.415
74418W        W38362  41.914  18.277   0.875
74419W        W38363  11.171  42.464  13.824
74420W        W38364   4.765  44.351  14.341
74421W        W38365  25.666  11.643   0.784
74422W        W38366  16.810  32.076  14.785
74423W        W38367  17.801  21.589  11.015
74424W        W38368  25.478  43.453   2.256
74425W        W38369  44.823  19.275   2.722
74426W        W38370  30.908  34.415  14.421
74427W        W38371   2.400  43.369  14.821
74428W        W38372   5.692   3.924  12.970
74429W        W38373  18.253   3.215   5.208
74430W        W38374  14.218  42.890   1.374
74431W        W38375  11.249  44.951   2.688
74432W        W38376   7.236  43.430  11.056
74433W        W38377  39.361  35.567  10.408
74434W        W38378  25.048   7.708   1.918
74435W        W38379  31.413  20.644   4.748
74436W        W38380  36.478  23.664   2.796
74437W        W38381  19.760  41.913   3.789
74438W        W38382  34.967  24.073  14.877
74439W        W38383  38.013  43.348  11.994
74440W        W38384  30.925  17.121   1.863
74441W        W38385  42.449  30.598   4.158
74442W        W38386  24.711   2.314   4.253
74443W        W38387   1.267   3.276   2.409
74444W        W38388  28.178  18.252   0.245
74445W        W38389  27.164  25.186  13.837
74446W        W38390  24.538  29.161  14.807
74447W        W38391  38.389   4.422   2.277
74448W        W38392  21.124  41.878   4.306
74449W        W38393  29.617  28.087  10.996
74450W        W38394  10.217   0.924  12.569
74451W        W38395   2.841  40.000   2.841
74452W        W38396  11.734  44.824   2.891
74453W        W38397   2.422  14.115  13.471
74454W        W38398  37.406  32.487  14.979
74455W        W38399  17.086   3.719  12.054
74456W        W38400   1.798   9.364   2.327
74457W        W38401  44.010  42.959   3.158
74458W        W38402  38.564  31.040  11.380
74459W        W38403   7.371  19.256  12.420
74460W        W38404  40.888  35.381   3.761
74461W        W38405  32.438  11.311   2.275
74462W        W38406   2.908  17.659  14.024
74463W        W38407  16.606  25.508   4.289
74464W        W38408  10.722  25.634   0.843
74465W        W38409  29.995  43.470   2.856
74466W        W38410   2.384  38.948  14.314
74467W        W38411  13.649   6.186   4.740
74468W        W38412  19.274  41.472  14.784
74469W        W38413  30.525  33.099   4.835
74470W        W38414  29.061   1.737  11.508
74471W        W38415  14.242  38.343  14.874
74472W        W38416  39.437   3.951   0.828
74473W        W38417  21.718  14.105   0.854
74474W        W38418  20.098   9.370  12.513
74475W        W38419   0.778   9.863  11.502
74476W        W38420  21.515  10.235   0.426
74477W        W38421  20.152  15.184  12.579
74478W        W38422   3.236   5.271   1.352
74479W        W38423  10.667  18.264  13.307
74480W        W38424   9.377  25.183  10.517
74481W        W38425  31.608  14.674  10.528
74482W        W38426  40.471  39.452  11.571
74483W        W38427  30.479  22.685   2.785
74484W        W38428  38.464   5.349  13.317
74485W        W38429  36.408   2.945  13.906
74486W        W38430  44.448  27.123  10.566
74487W        W38431  21.129  38.929  13.393
74488W        W38432  11.861  37.034   0.935
74489W        W38433   3.940   1.251  11.530
74490W        W38434  44.417  38.941   1.865
74491W        W38435  41.882  40.830   3.308
74492W        W38436  15.632   2.350  10.459
74493W        W38437  32.488  36.908   4.770
74494W        W38438  40.818   4.931   1.381
74495W        W38439  32.613  36.028   5.190
74496W        W38440  16.248  20.262   0.404
74497W        W38441  18.171  30.051  14.476
74498W        W38442  15.688  11.828  13.953
74499W        W38443   1.918   3.217  11.044
74500W        W38444   4.434  32.631  13.548
74501W        W38445   5.785  12.235  10.522
74502W        W38446   3.939   1.285   3.172
74503W        W38447  28.666  37.520   2.311
74504W        W38448  25.618  15.272   3.750
74505W        W38449  20.580  23.560   0.353
74506W        W38450  21.607  24.120  11.378
74507W        W38451  41.001  25.569   2.661
74508W        W38452  26.148   4.893  13.818
74509W        W38453  33.111  33.117   1.742
74510W        W38454  25.989  41.377   5.277
74511W        W38455   4.910  22.716  11.486
74512W        W38456  37.955  18.554  14.869
74513W        W38457   8.269  19.115   2.665
74514W        W38458  28.459  34.028  11.986
74515W        W38459  42.805  14.308  10.472
74516W        W38460  29.550  13.282   0.867
74517W        W38461  25.497   6.224   0.804
74518W        W38462  30.091  15.783   3.199
74519W        W38463  31.101  24.989  11.537
74520W        W38464  19.724  32.034   3.243
74521W        W38465   5.243   4.713  10.533
74522W        W38466   9.776  25.193   2.237
74523W        W38467  12.212   1.303   0.339
74524W        W38468  36.560  34.910  10.061
74525W        W38469  15.645  34.054   2.727
74526W        W38470  10.242  39.407  14.787
74527W        W38471   7.683  42.837  13.993
74528W        W38472  24.656  15.283  14.943
74529W        W38473  12.721  17.647   3.303
74530W        W38474   7.327  34.444  14.886
74531W        W38475  25.605  17.612  13.846
74532W        W38476  20.762   9.725  13.810
74533W        W38477  15.716  19.229  11.021
74534W        W38478  33.965  17.184   0.871
74535W        W38479  29.028  36.556   2.832
74536W        W38480   3.716  29.165  12.523
74537W        W38481  29.445   7.241   1.213
74538W        W38482  19.755  18.267  12.980
74539W        W38483  38.076  23.042   0.876
74540W        W38484   5.909  26.045  11.406
74541W        W38485   1.472   4.710   3.240
74542W        W38486  42.473  11.183   2.264
74543W        W38487  26.684   6.422   3.816
74544W        W38488   3.851  23.058   4.146
74545W        W38489  38.823  20.696   4.653
74546W        W38490   0.803  10.757  13.436
74547W        W38491  13.735  31.488   3.855
74548W        W38492  40.033  43.842   1.879
74549W        W38493  33.889  24.979   4.770
74550W        W38494  32.888  31.138   1.856
74551W        W38495  20.556  12.729   4.144
74552W        W38496  41.947  22.589   1.427
74553W        W38497  39.457  17.708  13.438
74554W        W38498  25.605  10.196   0.966
74555W        W38499  11.264  37.444  11.582
74556W        W38500  35.382  34.451   4.827
74557W        W38501  19.604  39.372  13.801
74558W        W38502  13.175   1.447  12.846
74559W        W38503  18.256   6.396  11.391
74560W        W38504  17.564  33.088   1.414
74561W        W38505  10.783   5.346  11.420
74562W        W38506   4.736   3.952  11.542
74563W        W38507  32.942   4.715  11.529
74564W        W38508  38.842  30.913   2.745
74565W        W38509  17.626  10.376  10.040
74566W        W38510   5.274  40.969   0.483
74567W        W38511   6.424  34.041   4.672
74568W        W38512  15.099  43.318  11.023
74569W        W38513   4.942  29.007   2.245
74570W        W38514  30.127  28.094  11.961
74571W        W38515  11.202  43.369  12.921
74572W        W38516  12.656  41.433  10.425
74573W        W38517  31.914   6.351  10.927
74574W        W38518  30.510  28.152  13.032
74575W        W38519  21.061  42.854   4.714
74576W        W38520  43.494   7.394   2.675
74577W        W38521   8.405  34.491  10.505
74578W        W38522  19.128  31.930  12.949
74579W        W38523  18.693  26.031   3.824
74580W        W38524  41.371  26.558   4.114
74581W        W38525  39.440  40.981   1.447
74582W        W38526  24.192   3.806  12.950
74583W        W38527  35.970  39.558   1.797
74584W        W38528  41.435  38.929   5.186
74585W        W38529  34.056  31.969  13.942
74586W        W38530  13.221  40.347   4.665
74587W        W38531   3.405  15.222   1.252
74588W        W38532   5.354  28.046   2.269
74589W        W38533  10.258  34.535  12.043
74590W        W38534  22.725  28.974  10.958
74591W        W38535   9.367  27.493   4.302
74592W        W38536  40.040  26.191   1.736
74593W        W38537  24.623  12.671  10.958
74594W        W38538  44.954  29.073   2.375
74595W        W38539  27.107  32.615   4.662
74596W        W38540  25.564  29.150  13.862
74597W        W38541  40.317   4.739  11.990
74598W        W38542   6.858  32.557   0.790
74599W        W38543  35.425  32.054   3.283
74600W        W38544  25.015   9.822   2.314
74601W        W38545  30.153   9.773   2.743
74602W        W38546   8.869  19.730  14.387
74603W        W38547  44.288  22.211  10.629
74604W        W38548   5.388  36.419   0.253
74605W        W38549  34.120  22.624  12.374
74606W        W38550   0.811  40.316  12.857
74607W        W38551  19.265  36.000   4.306
74608W        W38552  11.312  39.426   3.866
74609W        W38553  42.925  28.181   1.401
74610W        W38554  23.510  23.731   4.829
74611W        W38555  39.990   8.372   1.845
74612W        W38556  43.789  14.202   3.183
74613W        W38557   5.698  31.120  13.358
74614W        W38558  38.852  11.735  13.417
74615W        W38559  26.629  12.620  13.327
74616W        W38560   1.461  33.445  11.115
74617W        W38561  42.903  17.150   2.698
74618W        W38562  22.248  34.414  10.578
74619W        W38563   7.283  24.143  13.996
74620W        W38564  16.219  11.762   1.784
74621W        W38565  10.200  33.908  13.485
74622W        W38566  43.794  33.126   0.264
74623W        W38567  36.491  28.150   0.301
74624W        W38568  44.777  41.019   0.272
74625W        W38569  13.770  20.526  10.918
74626W        W38570  14.737   4.742  13.377
74627W        W38571  43.801  30.960  13.519
74628W        W38572   5.213  20.074  11.554
74629W        W38573  37.985  20.625  11.498
74630W        W38574  11.213  15.660   0.765
74631W        W38575   4.401  31.110  12.372
74632W        W38576  16.117   0.823  12.923
74633W        W38577  11.173  25.070   2.270
74634W        W38578   2.844   1.265   0.908
74635W        W38579   0.277  29.604  10.529
74636W        W38580  20.765  31.456  13.368
74637W        W38581  19.755  30.582   5.207
74638W        W38582  26.501  40.992   2.780
74639W        W38583  31.147  44.497  14.348
74640W        W38584  32.992  21.748  12.016
74641W        W38585   0.281  35.948   3.252
74642W        W38586   5.222  34.386   0.866
74643W        W38587  27.570   1.885  14.813
74644W        W38588  43.812  38.486   1.305
74645W        W38589  31.107  44.408   4.193
74646W        W38590  14.624  27.463  12.057
74647W        W38591  17.068  38.953  14.876
74648W        W38592  43.854   2.290  11.109
74649W        W38593   0.856  29.588   3.297
74650W        W38594  25.685  41.030   2.304
74651W        W38595  10.694   8.210  14.342
74652W        W38596  11.670  12.152  14.396
74653W        W38597  31.094   3.906   4.337
74654W        W38598  27.047  38.903   0.956
74655W        W38599  44.961  42.527  10.895
74656W        W38600  29.459  17.688  13.430
74657W        W38601  15.815  14.142  10.904
74658W        W38602  14.682  19.226   0.793
74659W        W38603  20.702  37.514  13.843
74660W        W38604   1.412  11.234   4.174
74661W        W38605  12.235  21.106   0.444
74662W        W38606  17.796  39.400  11.059
74663W        W38607   2.453  26.562   0.435
74664W        W38608   6.909  44.396  10.478
74665W        W38609  13.790  19.538   0.880
74666W        W38610   5.225  28.649  13.020
74667W        W38611  44.912  20.674   4.161
74668W        W38612  29.049  17.755  12.870
74669W        W38613  19.776   0.891  10.921
74670W        W38614  20.522  34.946  10.612
74671W        W38615   4.281  37.469   1.748
74672W        W38616  16.285  36.907  10.533
74673W        W38617  13.683   4.322  12.974
74674W        W38618  11.193  35.019  14.902
74675W        W38619  43.861  38.340  12.371
74676W        W38620  43.894  18.767  14.769
74677W        W38621  16.175  13.748   3.263
74678W        W38622  29.055  17.561   3.330
74679W        W38623  20.721   2.415  11.509
74680W        W38624  13.220  27.123   3.796
74681W        W38625  21.565  30.043  13.818
74682W        W38626   4.275  33.390   4.259
74683W        W38627   3.834  29.650  12.496
74684W        W38628  40.906  12.266  11.946
74685W        W38629   6.876  31.543   3.663
74686W        W38630  28.667  33.982   2.778
74687W        W38631  23.596   7.698   2.304
74688W        W38632  25.032   5.373  11.109
74689W        W38633  31.116  17.200  12.455
74690W        W38634  30.447  32.577   1.729
74691W        W38635  40.867  41.884  11.012
74692W        W38636  38.044  19.736  11.548
74693W        W38637  17.762  25.065   3.687
74694W        W38638  14.637  36.933   2.891
74695W        W38639  41.851  27.637  12.373
74696W        W38640  31.512  42.394  10.490
74697W        W38641  17.743  44.883   1.699
74698W        W38642  13.616  27.043  10.407
74699W        W38643  40.455  37.444   4.176
74700W        W38644  31.975  21.133   4.143
74701W        W38645  39.333  43.942  11.967
74702W        W38646  24.667  44.770   4.344
74703W        W38647  38.989  21.645   2.702
74704W        W38648  23.521  39.953   4.819
74705W        W38649  42.842  36.074   3.196
74706W        W38650  25.588  21.142   4.183
74707W        W38651  16.157  19.551  10.559
74708W        W38652  16.718   2.765   3.727
74709W        W38653   1.785  32.575   4.607
74710W        W38654  15.107  34.612   1.434
74711W        W38655   8.214   1.240  14.899
74712W        W38656  37.848  24.490  14.797
74713W        W38657  34.057  25.011   0.471
74714W        W38658  18.266  42.828   2.708
74715W        W38659  18.226  44.882   3.151
74716W        W38660  31.968  28.054  11.920
74717W        W38661  44.766  21.742  11.431
74718W        W38662  43.332  10.142   0.253
74719W        W38663  28.621   2.953  11.060
74720W        W38664   1.817  32.928  10.476
74721W        W38665  39.857  41.822  10.437
74722W        W38666  13.261  17.226  14.846
74723W        W38667  22.045  29.511  13.916
74724W        W38668   4.419  15.208   3.290
74725W        W38669  13.621  17.295   3.381
74726W        W38670  17.648  10.164  14.440
74727W        W38671  40.881  21.636  12.571
74728W        W38672  23.501   8.256   0.804
74729W        W38673   6.754  17.663   4.785
74730W        W38674  19.754   3.904  13.931
74731W        W38675  36.897  14.225  14.831
74732W        W38676  11.144  19.139  12.573
74733W        W38677  23.081  30.465   4.712
74734W        W38678  24.557  21.170  11.870
74735W        W38679  39.870  31.005   1.923
74736W        W38680   2.362  28.091   2.748
74737W        W38681  33.972   0.838  12.456
74738W        W38682  17.255  36.545  13.838
74739W        W38683  32.898  37.437   1.797
74740W        W38684  35.013  13.328   2.746
74741W        W38685  36.490  34.408  13.974
74742W        W38686  37.457  36.963  11.520
74743W        W38687  18.613  27.980   2.824
74744W        W38688   5.803  43.365   2.820
74745W        W38689  38.432  41.405   3.334
74746W        W38690  33.053  13.289  10.993
74747W        W38691   5.423   6.799   0.466
74748W        W38692  14.684  19.237  10.547
74749W        W38693  30.925  37.084   1.225
74750W        W38694   6.757  14.715   4.322
74751W        W38695   0.348   5.411   2.321
74752W        W38696  21.019  42.409   1.348
74753W        W38697  20.103   6.711   2.342
74754W        W38698   8.309  44.277  12.408
74755W        W38699  18.652   0.830   2.774
74756W        W38700  34.379  17.798   0.913
74757W        W38701  36.432  20.268  14.950
74758W        W38702  13.741  18.198   2.319
74759W        W38703  14.244  40.002  10.627
74760W        W38704  42.481  44.403   9.977
74761W        W38705  44.472  28.039  14.993
74762W        W38706  31.061  29.001   0.353
74763W        W38707  22.022  43.288  11.963
74764W        W38708  34.089   2.919  11.410
74765W        W38709   3.429   9.326   4.311
74766W        W38710   4.812  24.500  13.007
74767W        W38711  15.299  15.106  14.370
74768W        W38712  24.112  13.163   0.777
74769W        W38713  23.629  18.641  13.914
74770W        W38714   6.280  43.380  12.380
74771W        W38715   1.453  15.725  12.534
74772W        W38716  29.059  40.489   4.247
74773W        W38717  17.645  35.916  11.565
74774W        W38718   6.833  32.055   3.252
74775W        W38719  28.073  20.044   1.275
74776W        W38720  36.384   8.834  14.864
74777W        W38721  15.823  22.558  13.446
74778W        W38722   8.705  25.163   1.862
74779W        W38723  39.977  32.982   3.859
74780W        W38724  28.512  29.125   3.645
74781W        W38725   2.389   0.316  13.503
74782W        W38726  19.237  44.280   1.863
74783W        W38727  20.576  22.729  10.056
74784W        W38728  42.812  24.126   1.340
74785W        W38729  33.014  37.556   5.235
74786W        W38730  26.665  34.084   2.696
74787W        W38731  34.501  24.029   3.160
74788W        W38732  41.386  44.843  14.295
74789W        W38733  19.062  35.585  12.518
74790W        W38734  27.053  19.745  13.400
74791W        W38735   0.417  18.723   3.802
74792W        W38736   3.800   1.768  14.300
74793W        W38737  12.639  44.896  12.460
74794W        W38738  16.639  40.956  12.434
74795W        W38739  35.084  15.659   3.209
74796W        W38740  24.171  39.991  14.511
74797W        W38741  37.050  38.967   0.393
74798W        W38742  11.189   5.439   1.248
74799W        W38743  17.791  29.005   4.176
74800W        W38744  21.583  44.396  14.421
74801W        W38745  15.730  18.600  10.631
74802W        W38746   4.331   9.242   9.639
74803W        W38747   3.301  24.121   5.130
74804W        W38748  32.589  38.556   1.288
74805W        W38749  36.388  23.648   0.458
74806W        W38750   8.301  25.986  10.470
74807W        W38751  42.775   9.268  12.446
74808W        W38752  35.990   4.237  12.462
74809W        W38753  19.607  28.146   1.315
74810W        W38754  40.499  11.150  12.006
74811W        W38755  15.238   1.316   4.238
74812W        W38756   9.778   9.873  11.524
74813W        W38757   7.811  11.345   1.344
74814W        W38758   6.194  22.539   3.768
74815W        W38759  19.725  22.563   0.431
74816W        W38760  34.995  27.638  14.310
74817W        W38761  16.206  31.449  11.986
74818W        W38762   8.205  43.907   3.803
74819W        W38763  11.255  32.098   4.711
74820W        W38764   9.284   8.685  13.944
74821W        W38765   5.756  30.108   0.727
74822W        W38766   5.400   1.969  11.483
74823W        W38767  17.662  33.448   2.841
74824W        W38768  19.269  12.295  10.518
74825W        W38769   7.281  36.508   2.868
74826W        W38770   7.208  32.109  10.567
74827W        W38771  38.821  27.602   1.713
74828W        W38772  11.683   7.381  11.525
74829W        W38773  40.845  19.688  12.834
74830W        W38774  30.009  24.659  11.861
74831W        W38775  40.392  18.587  12.428
74832W        W38776  15.637  10.661   5.161
74833W        W38777   4.878  11.202   1.260
74834W        W38778  26.163   5.329   0.305
74835W        W38779  37.480  17.178   4.756
74836W        W38780  37.466   7.303   1.315
74837W        W38781  17.065  22.239  13.308
74838W        W38782  40.338   8.345   2.209
74839W        W38783  29.642  36.912  12.961
74840W        W38784  39.354  23.081   1.866
74841W        W38785  39.455  25.496   4.181
74842W        W38786  13.116   6.707   4.258
74843W        W38787  17.697  22.150   2.217
74844W        W38788  25.608  44.823   3.864
74845W        W38789  23.101  34.023  11.458
74846W        W38790  33.515  19.741  11.858
74847W        W38791  18.553   1.422   0.913
74848W        W38792  15.763   4.892  10.056
74849W        W38793  37.010  40.035   1.905
74850W        W38794  34.558  12.134   2.339
74851W        W38795  40.354  26.998  14.504
74852W        W38796  25.189  33.484   3.310
74853W        W38797   6.778  29.092  12.013
74854W        W38798  28.960  43.979  12.077
74855W        W38799   8.805  32.588   5.091
74856W        W38800   9.394   5.303  13.352
74857W        W38801  23.216  39.997  12.999
74858W        W38802   2.955  39.921  14.333
74859W        W38803   1.826  29.430   1.779
74860W        W38804  25.650  23.592   2.810
74861W        W38805  32.931  27.096   2.732
74862W        W38806   0.960  28.565   0.316
74863W        W38807  36.035  40.427  11.875
74864W        W38808  44.959  21.707   3.790
74865W        W38809  31.552  34.452  10.910
74866W        W38810   0.364  36.915   3.195
74867W        W38811  44.961  35.598   3.317
74868W        W38812  15.175  37.912  11.596
74869W        W38813  15.660   0.405  13.015
74870W        W38814  18.683  17.127  10.489
74871W        W38815   3.393  13.729  11.917
74872W        W38816  32.466  25.676  14.301
74873W        W38817  39.521  33.561  12.894
74874W        W38818  30.625  16.141   1.874
74875W        W38819  26.005  27.687   4.124
74876W        W38820  22.169  26.676   1.352
74877W        W38821  32.637  14.717  10.432
74878W        W38822  18.282  30.094  13.503
74879W        W38823   9.167  40.504   4.183
74880W        W38824  29.425  36.989   0.298
74881W        W38825  32.101  15.798  10.568
74882W        W38826  39.892  20.576  11.869
74883W        W38827   7.231   6.198  12.384
74884W        W38828  43.450   6.338   1.443
74885W        W38829  20.724  44.412   3.857
74886W        W38830  36.357  27.174  11.043
74887W        W38831  14.828  43.017  14.807
74888W        W38832  40.516  22.197  12.433
74889W        W38833   4.410  31.980  13.835
74890W        W38834  25.632  13.728  14.875
74891W        W38835  23.619  41.962   2.809
74892W        W38836  21.520   5.932   4.803
74893W        W38837  11.295  25.978   1.821
74894W        W38838  34.063  26.087   1.322
74895W        W38839  37.859  28.589   0.880
74896W        W38840  21.570  38.077  14.794
74897W        W38841  41.353  33.114   2.876
74898W        W38842  17.075  44.866  11.041
74899W        W38843  34.946  24.085   4.826
74900W        W38844  32.635  36.385   3.273
74901W        W38845  13.248  22.202   1.881
74902W        W38846  41.916  40.451  14.513
74903W        W38847  15.699   5.397   1.754
74904W        W38848  23.683  15.749  11.877
74905W        W38849  13.338  11.276   1.788
74906W        W38850  39.047   8.173   3.828
74907W        W38851   2.303  14.739  12.343
74908W        W38852  43.476  22.691   2.392
74909W        W38853  25.689   5.302   4.804
74910W        W38854  12.129  16.106  13.014
74911W        W38855   4.884   3.809   2.681
74912W        W38856  44.300   9.223   2.377
74913W        W38857   4.816   8.265  14.939
74914W        W38858  17.136  24.565   2.750
74915W        W38859  29.563   8.678   0.344
74916W        W38860  40.949  34.463   3.266
74917W        W38861  11.290  10.244   2.804
74918W        W38862   7.762   4.875   0.857
74919W        W38863  16.757  27.174   4.268
74920W        W38864  16.803  33.452  13.457
74921W        W38865  34.871  38.840   3.819
74922W        W38866  10.637  23.999  13.903
74923W        W38867  22.116  14.137  14.341
74924W        W38868   9.811  30.038   0.906
74925W        W38869   0.271  28.467   0.316
74926W        W38870  26.074  10.741  14.409
74927W        W38871   4.376   4.238  11.921
74928W        W38872  25.075  41.292   4.328
74929W        W38873  32.097  28.092   4.599
74930W        W38874   4.447   7.363  13.828
74931W        W38875   1.823   0.946   2.843
74932W        W38876  40.493  34.108  14.453
74933W        W38877  42.776  37.391   2.786
74934W        W38878   5.371  24.211  13.994
74935W        W38879  19.091   5.400   1.711
74936W        W38880  19.553   5.237  13.903
74937W        W38881   2.458  44.310   3.374
74938W        W38882   7.408  42.931   0.857
74939W        W38883  26.989  41.990   1.883
74940W        W38884  34.961  43.883   4.240
74941W        W38885   8.821  43.469   4.706
74942W        W38886  42.446  41.803  10.959
74943W        W38887   9.350  43.894  14.325
74944W        W38888  34.441  42.343   0.819
74945W        W38889  11.370  33.500   0.921
74946W        W38890  37.040  23.111   3.655
74947W        W38891  32.512   7.179  14.965
74948W        W38892   6.188  32.936   2.282
74949W        W38893   3.789  10.855   2.211
74950W        W38894  13.730  38.836  10.584
74951W        W38895  13.296  18.155  12.515
74952W        W38896   6.401   2.243  10.540
74953W        W38897  12.335  16.264   0.475
74954W        W38898  34.918  28.125   0.267
74955W        W38899  32.403  39.409   3.657
74956W        W38900  29.593  13.717  13.424
74957W        W38901   9.870  12.303  11.557
74958W        W38902  10.841  44.307  12.823
74959W        W38903  31.048  10.768   4.792
74960W        W38904   5.295  33.927  14.512
74961W        W38905  12.349  18.182   4.302
74962W        W38906  40.317  28.654  11.522
74963W        W38907  10.272   5.288   0.322
74964W        W38908  33.399  29.500  14.963
74965W        W38909   7.851  29.565   4.179
74966W        W38910  10.354  34.004  14.399
74967W        W38911  13.771  10.634  13.013
74968W        W38912  34.534  23.702   2.370
74969W        W38913  11.738   7.351   4.721
74970W        W38914  16.289  28.545   2.756
74971W        W38915  11.834   8.396  11.989
74972W        W38916  19.722  22.647  13.887
74973W        W38917  38.887  44.431  13.546
74974W        W38918  10.238  34.981   4.168
74975W        W38919  18.243  22.243   3.702
74976W        W38920  15.694  24.545  12.499
74977W        W38921   8.808  41.292   3.646
74978W        W38922  40.842  15.660   2.867
74979W        W38923  10.149   3.898   1.925
74980W        W38924   5.366  25.699  12.093
74981W        W38925  38.339  29.031   2.258
74982W        W38926  16.643  10.138  11.932
74983W        W38927  37.490  12.808  14.354
74984W        W38928  28.439  21.221  12.855
74985W        W38929   2.439  33.965  12.829
74986W        W38930  28.982  20.198  11.876
74987W        W38931  32.134  10.826  14.486
74988W        W38932  32.556  18.114   0.751
74989W        W38933   0.835  23.126   4.787
74990W        W38934   9.290  40.925   4.345
74991W        W38935  27.136  22.089  10.476
74992W        W38936  25.975  31.441   1.432
74993W        W38937  19.563  38.855   5.246
74994W        W38938  22.219  11.640  13.947
74995W        W38939  16.630   1.819  14.829
74996W        W38940  24.657   4.774   1.211
74997W        W38941  33.536  12.829  13.390
74998W        W38942   9.683  29.428   0.445
74999W        W38943  19.154   1.427   3.868
75000W        W38944   9.366   1.243   3.233
75001W        W38945   2.848  16.175  14.344
75002W        W38946  10.212   1.903   1.739
75003W        W38947  35.903   6.723   0.285
75004W        W38948  15.802  20.695  14.465
75005W        W38949  12.630  21.588  12.865
75006W        W38950  14.743  17.150   4.700
75007W        W38951  41.474  21.716  11.041
75008W        W38952   9.864   3.854  13.933
75009W        W38953  32.118  13.608  11.104
75010W        W38954  10.801  31.995   2.337
75011W        W38955  38.471   6.892   5.129
75012W        W38956  19.123   6.723  13.801
75013W        W38957  40.956  40.889  10.485
75014W        W38958  14.325   3.396   1.877
75015W        W38959  40.431  16.624  14.378
75016W        W38960  31.973  33.396  12.019
75017W        W38961  21.260  14.823   2.815
75018W        W38962  27.550  20.198   4.167
75019W        W38963  22.648  31.912  14.910
75020W        W38964  39.467  21.522   4.770
75021W        W38965   4.858  15.649  13.006
75022W        W38966   1.846   4.718   2.361
75023W        W38967  35.096   2.800   3.294
75024W        W38968  36.063  26.989  13.494
75025W        W38969  40.829  12.155  14.872
75026W        W38970  11.706  33.040  14.335
75027W        W38971  38.836  19.644   0.882
75028W        W38972   1.444  17.765  11.530
75029W        W38973  35.985  32.566  11.068
75030W        W38974  38.061  35.926   3.291
75031W        W38975  24.987  26.178   3.202
75032W        W38976  12.147  14.603  14.809
75033W        W38977  24.482  36.453   3.328
75034W        W38978  17.582  30.058   3.840
75035W        W38979  33.126  16.194   2.827
75036W        W38980  40.342  14.290  13.921
75037W        W38981  34.894  31.526   0.776
75038W        W38982  30.479  35.923   1.849
75039W        W38983  39.419   5.299  11.999
75040W        W38984  16.128   8.825  12.525
75041W        W38985  12.641   4.228  11.569
75042W        W38986  35.959  36.098  10.410
75043W        W38987  29.517  27.192  10.573
75044W        W38988   7.307  15.782  14.927
75045W        W38989  15.734  31.101  10.644
75046W        W38990   2.376  23.642  14.358
75047W        W38991  20.272  43.000   2.283
75048W        W38992   2.821  17.081  12.346
75049W        W38993  35.521  10.824  11.490
75050W        W38994  12.837  30.978  11.961
75051W        W38995   5.429  32.428   4.267
75052W        W38996  25.171  41.838   3.634
75053W        W38997  21.112  21.635  13.535
75054W        W38998  27.104  19.134   1.241
75055W        W38999  26.099   4.363   4.813
75056W        W39000  27.608  40.022   2.893
75057W        W39001  11.660  40.495   0.935
75058W        W39002  20.757  24.025  13.834
75059W        W39003   1.770  16.573   4.709
75060W        W39004  27.617  19.074  11.044
75061W        W39005   0.773  34.093   1.834
75062W        W39006   4.432  36.877  14.888
75063W        W39007  42.405  44.958  12.914
75064W        W39008  27.011  44.310  12.441
75065W        W39009  15.151  36.908   4.791
75066W        W39010  31.072  26.081  13.961
75067W        W39011  33.415   3.774  11.926
75068W        W39012   8.742  15.109  13.908
75069W        W39013  11.623  31.493  12.997
75070W        W39014  11.728   2.962   2.396
75071W        W39015  26.532   8.808  13.546
75072W        W39016  35.418  20.581  10.888
75073W        W39017   3.361  29.043   2.756
75074W        W39018  15.810  40.865  11.944
75075W        W39019  25.074  29.591  11.962
75076W        W39020  38.333   6.384   1.391
75077W        W39021  28.434  21.595   3.322
75078W        W39022   5.307  43.276   3.712
75079W        W39023  30.973  35.021  14.492
75080W        W39024   6.903  43.764   1.769
75081W        W39025  15.709  28.673   4.316
75082W        W39026  17.281   9.651  13.313
75083W        W39027  17.592   7.697  13.463
75084W        W39028   6.367  20.603   1.323
75085W        W39029  39.035  33.531  14.321
75086W        W39030  18.245   6.723   2.244
75087W        W39031  32.493  21.675   2.675
75088W        W39032   8.210  23.099  12.459
75089W        W39033  28.994  37.368  10.905
75090W        W39034  28.624  20.109   2.798
75091W        W39035   3.955  42.971   0.905
75092W        W39036  20.661  16.185  13.021
75093W        W39037  11.723   9.706   0.853
75094W        W39038   2.363  24.190   4.176
75095W        W39039   2.237  18.172   0.777
75096W        W39040   9.712   4.286   2.869
75097W        W39041   7.362  34.596  10.422
75098W        W39042  40.917   9.878  12.967
75099W        W39043  36.951  21.072   0.415
75100W        W39044  32.928  30.011  12.383
75101W        W39045  32.990   6.900   3.788
75102W        W39046  28.058  22.600  14.358
75103W        W39047  38.451  17.178   2.321
75104W        W39048  20.704  18.609   4.269
75105W        W39049  28.646  18.679   2.229
75106W        W39050  11.358  42.776  13.389
75107W        W39051  13.693  28.998   1.324
75108W        W39052  36.489  19.268  11.920
75109W        W39053  38.878  13.797   0.939
75110W        W39054  21.256  37.469  13.454
75111W        W39055  31.085  13.311  14.284
75112W        W39056  39.498  17.658   2.734
75113W        W39057  30.992  22.694  14.842
75114W        W39058  20.222  30.031   2.702
75115W        W39059  11.171   1.304   0.889
75116W        W39060  13.265  38.917   3.319
75117W        W39061  15.741  13.128  14.399
75118W        W39062  18.608  23.648   0.254
75119W        W39063  31.047  15.279   3.672
75120W        W39064  42.409  21.629  13.855
75121W        W39065  29.595  38.997   4.304
75122W        W39066  33.569  10.782   2.210
75123W        W39067   9.182   7.813  12.973
75124W        W39068  19.592  30.983  11.490
75125W        W39069  38.556  24.214  10.472
75126W        W39070  26.559  30.970  11.922
75127W        W39071  29.626  36.441  13.366
75128W        W39072  43.832  25.122   2.797
75129W        W39073  18.125  12.624   2.198
75130W        W39074  42.776   1.442   3.746
75131W        W39075  33.579  39.343  13.354
75132W        W39076  35.894  13.348  11.915
75133W        W39077   3.400  10.295   1.255
75134W        W39078  33.490  38.961  12.424
75135W        W39079  32.485  38.885   3.682
75136W        W39080  16.295  13.713   4.214
75137W        W39081  18.578  36.937  10.630
75138W        W39082  31.011  11.837   1.367
75139W        W39083  11.865  28.464  12.386
75140W        W39084  38.931  10.311  13.889
75141W        W39085   6.276  11.849  14.446
75142W        W39086  36.921  35.073  14.016
75143W        W39087  44.499  13.282   1.377
75144W        W39088  33.580  35.549   2.301
75145W        W39089  11.210   6.816  12.559
75146W        W39090   3.809  35.458  12.539
75147W        W39091  44.861  13.349   4.297
75148W        W39092  20.162   4.284  12.059
75149W        W39093   8.373  15.601  11.580
75150W        W39094  19.272  18.567  14.010
75151W        W39095   9.305   9.214  14.840
75152W        W39096   7.811  23.554  11.890
75153W        W39097  39.905  37.979   1.291
75154W        W39098   9.306  32.948  10.605
75155W        W39099  36.464  24.574   2.252
75156W        W39100  42.400  31.918  11.117
75157W        W39101  34.399  15.210  11.607
75158W        W39102  35.523  41.535   3.309
75159W        W39103   2.890  42.418   1.758
75160W        W39104  15.811  27.473   4.243
75161W        W39105   3.841   5.796   0.913
75162W        W39106  39.934  15.280  10.974
75163W        W39107  40.954  15.124   1.255
75164W        W39108  40.875  12.199   4.244
75165W        W39109  43.784  21.697  13.802
75166W        W39110  41.507  21.174  14.438
75167W        W39111  17.223  28.577  12.030
75168W        W39112  25.652   9.819   0.267
75169W        W39113  31.038  42.025  11.496
75170W        W39114  28.551   1.459  14.396
75171W        W39115  42.897   7.258  12.340
75172W        W39116  40.537  16.094  10.628
75173W        W39117  30.432  43.419  11.531
75174W        W39118   9.750  36.354  12.926
75175W        W39119  35.378  15.821  10.502
75176W        W39120   5.421  25.698   4.251
75177W        W39121   9.303  43.493  13.800
75178W        W39122  18.189   6.391  10.889
75179W        W39123  21.568  26.199  13.341
75180W        W39124  15.686  26.518  12.487
75181W        W39125  16.246  18.053  10.949
75182W        W39126   0.963  32.503  10.644
75183W        W39127  19.043   9.727   0.950
75184W        W39128  31.028   9.647  14.915
75185W        W39129  38.029  12.294   4.811
75186W        W39130  18.245  40.476  10.404
75187W        W39131  13.677  25.610  14.365
75188W        W39132  32.452   2.413  10.483
75189W        W39133   1.822  40.548  13.991
75190W        W39134  34.021  16.566  11.865
75191W        W39135  13.351   2.920  12.390
75192W        W39136  39.517  28.108  10.916
75193W        W39137  11.150  13.166  14.307
75194W        W39138  25.701   1.286   3.352
75195W        W39139  34.946  38.877  11.417
75196W        W39140  23.493   3.779  10.909
75197W        W39141  30.075  15.807   4.157
75198W        W39142  16.684  15.286  14.286
75199W        W39143  44.332  35.937   2.859
75200W        W39144   6.852  15.772   3.237
75201W        W39145   6.803  33.450  14.950
75202W        W39146  28.019  18.190   3.720
75203W        W39147  29.965  18.248  10.092
75204W        W39148  20.624  27.482   1.329
75205W        W39149  44.333   0.435   5.255
75206W        W39150   8.164  13.709   9.613
75207W        W39151  25.549  38.060  13.397
75208W        W39152   4.331  29.100   3.646
75209W        W39153  14.606   1.351   3.222
75210W        W39154  13.703   7.866   2.797
75211W        W39155  31.137   0.478  11.599
75212W        W39156  34.510  17.597  12.054
75213W        W39157  18.781   2.730  11.032
75214W        W39158  21.263   7.735  12.517
75215W        W39159  31.567  10.226   3.723
75216W        W39160  17.135  39.865   0.884
75217W        W39161  33.456  42.494  14.482
75218W        W39162  37.548  30.600  10.148
75219W        W39163  29.480  26.134  11.993
75220W        W39164  16.225  44.855   0.377
75221W        W39165  31.548  26.156   1.276
75222W        W39166  38.843  26.130   1.699
75223W        W39167  21.065   6.746   2.743
75224W        W39168  29.964  17.756   1.399
75225W        W39169  25.040  12.776  14.008
75226W        W39170  26.504  10.677  10.569
75227W        W39171  25.164   9.701  14.296
75228W        W39172   4.371  10.684  13.826
75229W        W39173  11.163  16.274   4.285
75230W        W39174  35.989  36.577  10.998
75231W        W39175  26.634  38.071  11.535
75232W        W39176  30.026  16.645  10.447
75233W        W39177  14.112  27.012   2.333
75234W        W39178   2.735  24.617  11.579
75235W        W39179  27.049  15.129   4.631
75236W        W39180  39.506   1.351   0.791
75237W        W39181  30.422   2.799  13.805
75238W        W39182  33.959  24.221  13.814
75239W        W39183  32.518  26.015   4.759
75240W        W39184  26.476  20.095  12.552
75241W        W39185  42.030  20.687  14.513
75242W        W39186  22.738   1.799  13.402
75243W        W39187  32.969  43.876  12.978
75244W        W39188  21.128  34.573  14.435
75245W        W39189  31.133   8.361  13.001
75246W        W39190  40.395  27.655   2.284
75247W        W39191   2.921  33.037   2.406
75248W        W39192  21.166  15.752   0.458
75249W        W39193  28.063  16.227  12.367
75250W        W39194   4.859   6.317   3.150
75251W        W39195  13.676  26.611   0.471
75252W        W39196  29.947  28.115   3.843
75253W        W39197   5.436   4.338  13.850
75254W        W39198  29.149   5.429  13.918
75255W        W39199  37.523  34.906  10.458
75256W        W39200  15.678  30.096  12.968
75257W        W39201  16.789  28.651  14.844
75258W        W39202  19.714  34.910  13.441
75259W        W39203  29.972  28.047   0.916
75260W        W39204   2.450  19.714   2.751
75261W        W39205  29.628  24.586  14.780
75262W        W39206   7.401  42.869   0.474
75263W        W39207   3.266   7.771   4.628
75264W        W39208  22.074   8.877  12.856
75265W        W39209  20.689   4.399  13.973
75266W        W39210   9.887  44.983  14.489
75267W        W39211  33.470   0.408  12.880
75268W        W39212  31.477  18.609   1.716
75269W        W39213  24.617  31.526   0.914
75270W        W39214  25.024  41.871  12.543
75271W        W39215  18.281  16.652  11.088
75272W        W39216  30.462  15.251   0.791
75273W        W39217  30.131  17.075   3.815
75274W        W39218   3.947  44.779  13.525
75275W        W39219  33.900  21.075   1.398
75276W        W39220   9.305  34.962   3.772
75277W        W39221  23.541  39.378   2.416
75278W        W39222  23.575  21.602  14.509
75279W        W39223  21.060  44.998   2.327
75280W        W39224  10.768  30.033   3.172
75281W        W39225  35.020   7.850  14.450
75282W        W39226  12.669  15.124   3.860
75283W        W39227  24.571   5.352  11.477
75284W        W39228  36.851  15.781   1.436
75285W        W39229   0.327   9.252   3.291
75286W        W39230  10.658  33.003  11.084
75287W        W39231  27.167  13.758  10.941
75288W        W39232  24.520  37.351   1.739
75289W        W39233  40.945  24.655   0.246
75290W        W39234   1.240  13.254  11.557
75291W        W39235  38.511  17.165   1.734
75292W        W39236  44.367  30.561   3.865
75293W        W39237  22.094   0.871  14.438
75294W        W39238  28.558  43.881  11.582
75295W        W39239  10.693   8.755   0.774
75296W        W39240  15.668  30.649   3.632
75297W        W39241  25.170   9.206   2.363
75298W        W39242  14.726   1.362  13.038
75299W        W39243  22.069  36.958  10.903
75300W        W39244  26.989  31.015  13.955
75301W        W39245  10.837  12.802   4.246
75302W        W39246   8.168  31.971  13.511
75303W        W39247  13.106   2.727  14.894
75304W        W39248  13.617  32.620  10.987
75305W        W39249  16.283   9.683   4.222
75306W        W39250  21.557  11.704  13.856
75307W        W39251  42.357  21.143   3.641
75308W        W39252  18.689   4.789   2.852
75309W        W39253  15.203  42.395  12.393
75310W        W39254  25.115  18.685  11.900
75311W        W39255  19.184  37.354   0.826
75312W        W39256  33.116  37.521   2.300
75313W        W39257  25.497  29.560   3.207
75314W        W39258  36.078  42.284   1.425
75315W        W39259  28.476  24.218   1.754
75316W        W39260  15.784  30.151   0.459
75317W        W39261  10.260  35.478   1.833
75318W        W39262  33.398  36.502   1.724
75319W        W39263  37.335  17.229   2.747
75320W        W39264  42.820  14.733   0.418
75321W        W39265   6.826  31.949   1.223
75322W        W39266  32.606  42.408  12.025
75323W        W39267  29.105   1.251  13.419
75324W        W39268  38.000  21.522  12.507
75325W        W39269  34.962  12.186  12.015
75326W        W39270  42.880  42.989  13.500
75327W        W39271   9.375  20.618  10.898
75328W        W39272  11.257  27.677  10.469
75329W        W39273  31.485  37.551  10.936
75330W        W39274  39.814  25.629   2.857
75331W        W39275   3.782  14.254   4.617
75332W        W39276  44.814  26.995  14.428
75333W        W39277   1.416   8.280  13.057
75334W        W39278  32.056  31.013   1.318
75335W        W39279   4.359  24.974   2.887
75336W        W39280  10.294  18.221   4.769
75337W        W39281   5.798  24.992  13.015
75338W        W39282   9.709  10.209  13.386
75339W        W39283  13.251  19.115   0.333
75340W        W39284  37.878  26.682  11.106
75341W        W39285  18.194  17.300   2.216
75342W        W39286   2.265  16.753   2.790
75343W        W39287   2.817  41.000  11.920
75344W        W39288   3.803  43.964   3.279
75345W        W39289  25.064   6.899  13.005
75346W        W39290  17.065  28.144   3.223
75347W        W39291  17.767  33.944  11.562
75348W        W39292  29.577  19.077   2.748
75349W        W39293   9.280  33.559  10.446
75350W        W39294  40.466  39.511   4.178
75351W        W39295  28.009   6.387   0.774
75352W        W39296  42.836  31.122   3.218
75353W        W39297  11.734  27.087  11.997
75354W        W39298   8.292  37.028   0.330
75355W        W39299  27.548  36.076  14.854
75356W        W39300   2.763  26.658   4.330
75357W        W39301  26.575  32.045   0.741
75358W        W39302   7.787  19.234   0.788
75359W        W39303  35.573  31.510  14.333
75360W        W39304  29.970  11.233  12.358
75361W        W39305  40.327  34.900  11.501
75362W        W39306  13.142   1.845   1.220
75363W        W39307  43.372  14.732   4.329
75364W        W39308  43.992  35.001  13.900
75365W        W39309  19.096  38.892  11.976
75366W        W39310   4.291  32.106  11.083
75367W        W39311  20.259  30.476  12.577
75368W        W39312  42.835   6.392   3.778
75369W        W39313  40.876  23.712  14.376
75370W        W39314   6.412  37.923  13.542
75371W        W39315  36.505  38.520  11.881
75372W        W39316   5.759  28.574  10.071
75373W        W39317   5.873  16.136  11.426
75374W        W39318  32.433  11.284   1.242
75375W        W39319  19.591  42.368   1.343
75376W        W39320  19.180   8.193  11.536
75377W        W39321  37.459  20.763   4.130
75378W        W39322   7.381  27.095  11.004
75379W        W39323  27.625  29.582  12.887
75380W        W39324  20.042  15.133   0.871
75381W        W39325  21.575  11.372   1.735
75382W        W39326  35.929   8.842  14.989
75383W        W39327  11.847   4.737  10.579
75384W        W39328   6.751  15.182   4.735
75385W        W39329  33.954  18.602   1.391
75386W        W39330  14.107  44.932  13.820
75387W        W39331  24.007  16.687  14.425
75388W        W39332  44.882   6.425   2.733
75389W        W39333  25.545  33.597  13.401
75390W        W39334  30.120   7.198   2.252
75391W        W39335  24.522   8.397   4.687
75392W        W39336  26.151  16.788  11.918
75393W        W39337  21.631   0.809  14.850
75394W        W39338   3.952   0.412   2.339
75395W        W39339   3.753   1.883  15.000
75396W        W39340  36.081  42.397  12.487
75397W        W39341   0.813   3.953   4.312
75398W        W39342  24.186   0.965   3.664
75399W        W39343   0.831  33.957   4.683
75400W        W39344  18.204   0.278   2.278
75401W        W39345  31.501  10.671  12.447
75402W        W39346   0.307  42.368  12.452
75403W        W39347   8.269  14.251  11.551
75404W        W39348  38.005  38.895  13.518
75405W        W39349  41.314  14.163  10.643
75406W        W39350  43.885   5.768  12.431
75407W        W39351  19.045  17.797  11.434
75408W        W39352   5.816  39.057   2.397
75409W        W39353  44.453  24.679   0.446
75410W        W39354   2.865  31.598  14.860
75411W        W39355  13.830  27.452   2.776
75412W        W39356  12.648  43.981   2.730
75413W        W39357  15.289  15.183  10.515
75414W        W39358  19.212  11.179   4.204
75415W        W39359  25.603  37.000   0.808
75416W        W39360  26.003  37.437   2.254
75417W        W39361  35.568  37.416   0.831
75418W        W39362  41.354   2.775  14.770
75419W        W39363  15.221  11.251   0.322
75420W        W39364   8.267  35.901   4.678
75421W        W39365  27.983   7.389   2.730
75422W        W39366  24.230  28.056   2.256
75423W        W39367  21.105   0.806  11.467
75424W        W39368  23.719  41.796  11.993
75425W        W39369  25.597  40.986   4.155
75426W        W39370  29.073  18.624   0.898
75427W        W39371  38.041  39.931  10.996
75428W        W39372   8.699  19.082  11.094
75429W        W39373  42.978   0.746   2.848
75430W        W39374  35.972  14.731  14.880
75431W        W39375  32.938  35.888  11.586
75432W        W39376   1.793  29.953   1.256
75433W        W39377  33.904  13.170   4.798
75434W        W39378  20.718  15.806   2.722
75435W        W39379  44.899  43.017  14.775
75436W        W39380   5.330   5.220  12.484
75437W        W39381  39.464  30.044  13.831
75438W        W39382  28.488  20.268  10.062
75439W        W39383  36.498   0.746  10.985
75440W        W39384  13.635  28.090   0.763
75441W        W39385   4.851   2.960   4.808
75442W        W39386  42.886  22.173  11.416
75443W        W39387  29.517  19.099  12.532
75444W        W39388  25.664   1.301  14.358
75445W        W39389  29.101  29.546  11.465
75446W        W39390  36.089  40.470   1.435
75447W        W39391  22.013  34.498   0.781
75448W        W39392  39.826   9.213   0.964
75449W        W39393  14.707  44.361  13.868
75450W        W39394  43.776  32.570  14.358
75451W        W39395   3.236  38.547  10.515
75452W        W39396  29.604  32.000  14.935
75453W        W39397  13.154  30.106  11.569
75454W        W39398  39.448  19.153   0.847
75455W        W39399  30.520  22.031  14.502
75456W        W39400  12.151  35.591  13.803
75457W        W39401  25.557  32.489   2.850
75458W        W39402  32.115  39.029   3.360
75459W        W39403  17.556  29.944  14.319
75460W        W39404  36.410  33.051   4.703
75461W        W39405   0.377   1.908   4.253
75462W        W39406  20.573   9.313  11.010
75463W        W39407  22.648  27.019   3.299
75464W        W39408   1.869  26.133  10.526
75465W        W39409  13.274  17.155  11.123
75466W        W39410  22.016  41.010   3.336
75467W        W39411   0.392  31.580  13.817
75468W        W39412  28.183  30.425  11.599
75469W        W39413  33.426  40.363  10.981
75470W        W39414  42.000   2.743  12.554
75471W        W39415  27.130   3.257   4.283
75472W        W39416  14.674   0.862   2.757
75473W        W39417  30.991  31.939  11.449
75474W        W39418  27.060  11.832  10.021
75475W        W39419  31.506  44.485  13.480
75476W        W39420   0.363  37.424   2.689
75477W        W39421   0.842  23.667   4.273
75478W        W39422  37.064   2.908   5.208
75479W        W39423   6.409  25.713   0.814
75480W        W39424  12.618  18.085   3.209
75481W        W39425  25.978  25.550   0.478
75482W        W39426   9.299   2.397  12.086
75483W        W39427  32.049  42.283   2.722
75484W        W39428  37.579  32.426   1.417
75485W        W39429  25.214  44.844   2.694
75486W        W39430  36.902   8.187  12.928
75487W        W39431  26.964  28.061  13.307
75488W        W39432  21.550   6.705  13.816
75489W        W39433  28.575  43.946   3.349
75490W        W39434  19.653   2.381   2.385
75491W        W39435   7.410  40.916   3.675
75492W        W39436  33.113   3.281  10.526
75493W        W39437  24.636  14.597   4.597
75494W        W39438   6.878   8.225   2.741
75495W        W39439   2.745  36.557   4.325
75496W        W39440  32.062  28.138   0.778
75497W        W39441  44.906  44.484   4.703
75498W        W39442  33.467  29.480  11.483
75499W        W39443  17.146  41.835  13.423
75500W        W39444  22.133  44.288  12.458
75501W        W39445  39.041  21.200   2.301
75502W        W39446  32.985  13.684  11.499
75503W        W39447  17.304  12.826   3.364
75504W        W39448  18.184  28.963  14.380
75505W        W39449  26.203  36.351   0.274
75506W        W39450  29.948  44.889   4.616
75507W        W39451  42.438   3.876  12.983
75508W        W39452  32.534  34.584  13.463
75509W        W39453  24.996  24.980  10.984
75510W        W39454  14.674  15.645   4.114
75511W        W39455  43.516  41.025   4.750
75512W        W39456  33.589  39.919   4.795
75513W        W39457   1.835   3.220   2.756
75514W        W39458  15.083  39.398  10.452
75515W        W39459  24.657  22.047   2.374
75516W        W39460  42.453  37.450  12.039
75517W        W39461  39.382  26.982  11.057
75518W        W39462  19.056  34.891   4.818
75519W        W39463  26.185  20.735   0.912
75520W        W39464  39.065  26.687  11.076
75521W        W39465  15.320  44.930  10.528
75522W        W39466   5.763   5.719   0.476
75523W        W39467   7.909  21.189  10.039
75524W        W39468  18.783  38.008   2.180
75525W        W39469  19.109  25.016   3.362
75526W        W39470  12.159   5.860  13.028
75527W        W39471  19.183  36.985  10.643
75528W        W39472  12.152  13.835   0.963
75529W        W39473  11.260  41.909   4.117
75530W        W39474  10.710  37.019   1.451
75531W        W39475   6.789  12.240   4.780
75532W        W39476  38.536  12.781  14.762
75533W        W39477  24.169   3.282  11.884
75534W        W39478  44.953  20.081   1.723
75535W        W39479   3.845   5.432   1.912
75536W        W39480  38.012  39.534  11.893
75537W        W39481  15.687  14.712  11.519
75538W        W39482  38.341  34.876   4.228
75539W        W39483  33.526  17.288  10.461
75540W        W39484  41.002  35.090   4.633
75541W        W39485  16.255  24.037   0.307
75542W        W39486   0.897  42.297   1.721
75543W        W39487  20.252  11.750  11.007
75544W        W39488  24.100  20.169   4.163
75545W        W39489  12.159  18.602   1.899
75546W        W39490  28.656  31.977   3.747
75547W        W39491  20.690  34.528   3.290
75548W        W39492  43.488   9.394  10.487
75549W        W39493  10.733  27.196  10.968
75550W        W39494  32.887  39.536  11.998
75551W        W39495  32.107  25.070  11.128
75552W        W39496  35.098  43.488  14.432
75553W        W39497  13.690  44.323   4.835
75554W        W39498  18.773  19.230   3.768
75555W        W39499  19.195  35.372  14.482
75556W        W39500  43.988   3.451  12.561
75557W        W39501  39.482  36.075  13.459
75558W        W39502   2.853  17.694  14.854
75559W        W39503  13.812  33.393   1.222
75560W        W39504  39.401  15.112  13.951
75561W        W39505  32.007  26.457  13.932
75562W        W39506  35.966   2.372   2.791
75563W        W39507  12.274   9.846  11.887
75564W        W39508  11.289  42.288  14.502
75565W        W39509  29.482  28.099  13.911
75566W        W39510   8.367  11.213  12.531
75567W        W39511  20.754  39.507  13.878
75568W        W39512  28.074  43.287   0.926
75569W        W39513  26.200  16.179   3.241
75570W        W39514  33.046  13.815  13.868
75571W        W39515  23.162  15.130  10.927
75572W        W39516  41.342   6.685  13.368
75573W        W39517   2.439  44.422   4.329
75574W        W39518   0.420  22.088   2.211
75575W        W39519  28.502  23.115   4.638
75576W        W39520  42.436  29.662  11.127
75577W        W39521  40.404  28.520   4.757
75578W        W39522  17.070  19.274  13.862
75579W        W39523  12.260   2.419   2.661
75580W        W39524  10.232  22.712   3.339
75581W        W39525   2.408   3.262  14.363
75582W        W39526  24.195   3.322   2.764
75583W        W39527  24.180   0.772  11.083
75584W        W39528  35.542  28.504   1.217
75585W        W39529   3.263  14.202  10.905
75586W        W39530  43.777  14.741  14.356
75587W        W39531  28.955  38.402  12.023
75588W        W39532  39.942  11.369  10.515
75589W        W39533  41.944  39.485  11.539
75590W        W39534  35.969  13.838   0.727
75591W        W39535  38.348  33.406   0.307
75592W        W39536  38.451  43.969  11.880
75593W        W39537  35.858  40.849   2.686
75594W        W39538   3.326  30.152   2.362
75595W        W39539  27.677  18.602  12.993
75596W        W39540  41.999   6.875  12.963
75597W        W39541  18.061  30.581   0.382
75598W        W39542  31.131  30.423  12.871
75599W        W39543   2.868  10.380   1.403
75600W        W39544  44.983  42.344   1.376
75601W        W39545  16.619  18.118  11.988
75602W        W39546  21.751  41.928  14.820
75603W        W39547  18.778  26.523  12.531
75604W        W39548  35.007  37.832   3.840
75605W        W39549  17.561  39.482   2.762
75606W        W39550  29.533   2.441  11.019
75607W        W39551  10.189  19.669   0.791
75608W        W39552  19.265  16.232   2.672
75609W        W39553  23.687  40.482   2.404
75610W        W39554  15.110  11.326   4.271
75611W        W39555  15.115  43.003   1.246
75612W        W39556  32.450  43.783  11.953
75613W        W39557  29.980  12.363   1.902
75614W        W39558  31.104  16.253  10.939
75615W        W39559  19.581  15.264   1.719
75616W        W39560  24.140   1.953  14.451
75617W        W39561  12.767  29.467  12.013
75618W        W39562   5.690  12.799  11.034
75619W        W39563  19.581   7.799  10.938
75620W        W39564  41.858  15.580   3.236
75621W        W39565   2.855  12.710  12.491
75622W        W39566  34.997  27.621   0.734
75623W        W39567  18.629  25.559   3.638
75624W        W39568  28.011  29.467   9.928
75625W        W39569  38.925  44.349   0.385
75626W        W39570   6.767   2.802  14.019
75627W        W39571   0.352   8.197  10.407
75628W        W39572  16.792   1.241   4.711
75629W        W39573  26.091   2.911  11.017
75630W        W39574  39.417  27.102   2.776
75631W        W39575  30.534  12.789   3.347
75632W        W39576  20.608  26.596   0.335
75633W        W39577  11.262  29.108  11.887
75634W        W39578  20.767  37.396   3.249
75635W        W39579  43.823  41.431  13.974
75636W        W39580  41.445  20.607  13.470
75637W        W39581  44.344  20.235   1.262
75638W        W39582   5.835  16.610   1.785
75639W        W39583  29.157  18.739  12.581
75640W        W39584  12.295  33.458   3.383
75641W        W39585  44.963  23.732   0.940
75642W        W39586  35.948   8.788   2.358
75643W        W39587   1.342  17.303   1.746
75644W        W39588   7.700  14.302   1.844
75645W        W39589   1.774  38.000   3.817
75646W        W39590  12.324  11.261   0.254
75647W        W39591  11.237  20.263   2.714
75648W        W39592  25.012  38.014  13.944
75649W        W39593   1.959  27.041  10.900
75650W        W39594  26.113  21.544  11.962
75651W        W39595  40.911  30.141  13.932
75652W        W39596  19.281  22.140  12.459
75653W        W39597  16.155   5.279   0.296
75654W        W39598  28.053  38.052  13.498
75655W        W39599  44.900  12.265  10.919
75656W        W39600  29.056  18.632   1.738
75657W        W39601  36.098  16.120   3.194
75658W        W39602  11.155  39.995   2.700
75659W        W39603  21.259  11.725  12.942
75660W        W39604   6.688  28.673   9.940
75661W        W39605   7.885  29.492  10.928
75662W        W39606  10.289  41.370   3.677
75663W        W39607  39.436   1.274  13.361
75664W        W39608  22.743  25.181  12.423
75665W        W39609  31.899  33.621   3.828
75666W        W39610   0.765  16.586   4.302
75667W        W39611  33.962  43.764   3.728
75668W        W39612  18.779  14.721   2.402
75669W        W39613  12.688  33.912  14.951
75670W        W39614  14.670  34.475   5.166
75671W        W39615  17.302  20.234   3.362
75672W        W39616  19.250  14.188   4.766
75673W        W39617  23.643  10.336   2.795
75674W        W39618  43.336  18.655  11.921
75675W        W39619  37.444  36.519   1.364
75676W        W39620  12.819  31.523  11.115
75677W        W39621  29.607   8.883   1.901
75678W        W39622  44.434  39.468   2.409
75679W        W39623  30.656  23.563  14.303
75680W        W39624   9.786  26.677  14.318
75681W        W39625  44.481  10.384  13.000
75682W        W39626  44.481   9.663  13.385
75683W        W39627  41.348   3.400   9.447
75684W        W39628  22.128   5.706   0.293
75685W        W39629  22.182  42.829  13.925
75686W        W39630  33.000   1.400   0.291
75687W        W39631  14.102  10.169  10.528
75688W        W39632  12.686  44.505   3.175
75689W        W39633  44.475  44.992   4.115
75690W        W39634  25.568  38.468  10.608
75691W        W39635  29.153  16.585   2.866
75692W        W39636  44.373  18.179  13.354
75693W        W39637  25.188  40.826  13.460
75694W        W39638   2.741   4.359  10.625
75695W        W39639  27.614  44.469  12.358
75696W        W39640  42.840  23.186   4.249
75697W        W39641  21.030  19.250   1.740
75698W        W39642  30.593  23.116  12.028
75699W        W39643  37.925  41.467   3.641
75700W        W39644  29.096  41.018   2.676
75701W        W39645   0.787  41.340   1.745
75702W        W39646  20.118   3.263   3.151
75703W        W39647  41.444  40.309  10.443
75704W        W39648  17.260  28.547  13.040
75705W        W39649  26.596  44.812  12.884
75706W        W39650  36.874  11.686   2.706
75707W        W39651  29.976   6.350  11.939
75708W        W39652  43.441  33.910   3.349
75709W        W39653  12.301  44.381  11.935
75710W        W39654  27.161  30.049   2.836
75711W        W39655  27.552  26.591  11.961
75712W        W39656  39.038  36.021   3.158
75713W        W39657  31.604  22.251   4.224
75714W        W39658  38.910  15.631  14.964
75715W        W39659  10.296  15.812   9.529
75716W        W39660  31.570  15.311   1.239
75717W        W39661  10.150   4.792  14.500
75718W        W39662  11.636  27.453   1.760
75719W        W39663  33.961  44.828  12.340
75720W        W39664  33.459  27.555   3.754
75721W        W39665  19.725  30.028  13.836
75722W        W39666  41.977  26.180   4.623
75723W        W39667  10.778  11.246   2.767
75724W        W39668  26.208  30.162  14.009
75725W        W39669  26.059  38.075   4.779
75726W        W39670  20.111  13.229  11.383
75727W        W39671  27.130  12.806  13.547
75728W        W39672   0.904   2.371   0.456
75729W        W39673  11.757  17.274   4.743
75730W        W39674  14.255   2.242   0.305
75731W        W39675   3.882  24.231   4.319
75732W        W39676  19.136  27.034   2.878
75733W        W39677  10.356  23.121  11.561
75734W        W39678  30.552  43.288   0.959
75735W        W39679  16.671  20.153  11.578
75736W        W39680   3.882  31.963   5.112
75737W        W39681  18.112  24.615   3.827
75738W        W39682  34.410  41.438   2.679
75739W        W39683  19.203  37.343  12.918
75740W        W39684  41.318  11.681   1.326
75741W        W39685  35.388   1.251   2.750
75742W        W39686   7.366  23.604   3.738
75743W        W39687  42.858   6.848   4.644
75744W        W39688  12.179   9.655   1.413
75745W        W39689  44.343  28.001   3.292
75746W        W39690  26.676  30.445   3.272
75747W        W39691  41.919   9.657  11.537
75748W        W39692  12.320  14.098  13.014
75749W        W39693  19.704  37.400   2.411
75750W        W39694  39.998  43.812  14.360
75751W        W39695  35.034   4.837   1.237
75752W        W39696  31.547  41.431   3.799
75753W        W39697  40.956   3.406   2.821
75754W        W39698   8.321  39.382   1.931
75755W        W39699  34.881  21.077  10.501
75756W        W39700  13.756  23.057   4.216
75757W        W39701  40.375  42.025  11.545
75758W        W39702   5.319  30.586  13.031
75759W        W39703  37.836  25.004  11.504
75760W        W39704  32.972  29.579  10.404
75761W        W39705  26.577  19.110  12.428
75762W        W39706  19.560  40.850   1.321
75763W        W39707   8.374  27.011  12.453
75764W        W39708   3.324   4.249  14.479
75765W        W39709  22.071  22.627   4.648
75766W        W39710  10.241   2.780  12.559
75767W        W39711  37.884  24.618   4.610
75768W        W39712  40.818  19.609  10.508
75769W        W39713   8.778  22.594  14.884
75770W        W39714  29.923  42.820  14.514
75771W        W39715  16.742   3.908   0.408
75772W        W39716  14.790  31.142   1.398
75773W        W39717   0.356  10.644  12.558
75774W        W39718  44.924  24.986  13.036
75775W        W39719  27.981   6.268   3.831
75776W        W39720  23.684   2.838  13.354
75777W        W39721  10.638  17.780   1.914
75778W        W39722  37.462  20.076  11.068
75779W        W39723  30.115  13.675   1.788
75780W        W39724  18.283  27.022  12.369
75781W        W39725  18.769  25.122   9.631
75782W        W39726   9.890  22.634   1.873
75783W        W39727  36.470  17.794  12.960
75784W        W39728  40.548  35.584  12.577
75785W        W39729   0.828  44.489   1.302
75786W        W39730  16.284  11.725  12.997
75787W        W39731  34.072  30.073   0.405
75788W        W39732  38.495  13.319  11.486
75789W        W39733   4.762  39.843  13.319
75790W        W39734   8.367  34.426  14.023
75791W        W39735  31.132  38.416  12.948
75792W        W39736   7.872   8.737   3.323
75793W        W39737  20.561  30.032   4.718
75794W        W39738  39.354   6.364   4.260
75795W        W39739  28.598  37.077  14.339
75796W        W39740  25.538  34.393   2.679
75797W        W39741   1.414  13.209  10.950
75798W        W39742  36.553  19.738  13.421
75799W        W39743  25.059  17.709  12.923
75800W        W39744  33.466  17.080   0.467
75801W        W39745   2.232  14.772  11.987
75802W        W39746  11.316  24.648  10.918
75803W        W39747   2.275   7.322   3.377
75804W        W39748  20.730   9.304  12.386
75805W        W39749  21.233   0.394   2.777
75806W        W39750  36.478  22.696  10.964
75807W        W39751   9.292  39.350  14.368
75808W        W39752   4.853  23.524   3.155
75809W        W39753  39.359   6.348  12.367
75810W        W39754  14.701   8.241   1.764
75811W        W39755  20.573  43.397  12.384
75812W        W39756  30.529  44.376   2.418
75813W        W39757   4.868  32.057   2.693
75814W        W39758  27.130  16.757   0.940
75815W        W39759  10.153  41.397   3.210
75816W        W39760  32.106  34.117   4.167
75817W        W39761  40.364  34.470   4.802
75818W        W39762  20.099  33.534  12.385
75819W        W39763   9.174  20.640   2.853
75820W        W39764  16.798  30.551  11.381
75821W        W39765  29.141   5.697  11.920
75822W        W39766  41.398  29.998  14.374
75823W        W39767  25.210  34.461  11.997
75824W        W39768  28.976  14.153   3.755
75825W        W39769  42.497  22.580  13.883
75826W        W39770  26.532  40.839  10.577
75827W        W39771   7.780  26.609   2.822
75828W        W39772  13.342  19.761   0.866
75829W        W39773  28.122  31.090  14.955
75830W        W39774  33.434  22.581  12.411
75831W        W39775  35.859  17.696   1.222
75832W        W39776  42.878   4.207   1.341
75833W        W39777  10.360  21.102   2.377
75834W        W39778  26.539  34.475  11.604
75835W        W39779  11.769   9.856   4.319
75836W        W39780  30.125  17.145   2.796
75837W        W39781   8.792   2.340   4.793
75838W        W39782  10.753  22.085   3.830
75839W        W39783  43.801  12.653  12.832
75840W        W39784   0.969  34.108  11.874
75841W        W39785  25.036   1.937   1.867
75842W        W39786  16.648  40.820   0.372
75843W        W39787   2.760  35.092  13.536
75844W        W39788   3.714  25.080  11.520
75845W        W39789  16.244  13.169   3.274
75846W        W39790  40.992  12.830  13.042
75847W        W39791   4.935  22.199   2.203
75848W        W39792  42.416  12.166  13.030
75849W        W39793  11.353  11.301   0.484
75850W        W39794  42.948  32.456   4.807
75851W        W39795  19.604   0.871   3.707
75852W        W39796   6.311  13.201  10.527
75853W        W39797  42.974  25.074   0.810
75854W        W39798  39.439   8.355   3.721
75855W        W39799  34.037  35.988  13.356
75856W        W39800  24.027  34.882  11.983
75857W        W39801   4.724   7.727  13.862
75858W        W39802  39.551  29.013  12.395
75859W        W39803  42.802   8.779  12.849
75860W        W39804  29.097  44.340  11.410
75861W        W39805  31.082  14.776   0.798
75862W        W39806  43.799  23.167  13.444
75863W        W39807  12.321  13.210  13.448
75864W        W39808  36.525   2.825   4.657
75865W        W39809  42.794  26.471  14.310
75866W        W39810  21.075  26.957  11.935
75867W        W39811   6.812   0.417  11.042
75868W        W39812  41.434  10.173  11.001
75869W        W39813  40.305  14.162  14.401
75870W        W39814  15.139  30.037   3.850
75871W        W39815  14.233  38.826   1.322
75872W        W39816  41.386  12.802  10.623
75873W        W39817  35.074  12.831   0.772
75874W        W39818  28.464  38.920  12.564
75875W        W39819   9.161  12.361  13.407
75876W        W39820   4.292  35.573   2.304
75877W        W39821  15.250  20.574   4.659
75878W        W39822   8.865  11.704  14.338
75879W        W39823  38.393   1.400  13.002
75880W        W39824   6.398   1.929   1.856
75881W        W39825  15.101  44.808   3.343
75882W        W39826  40.336  21.593   4.271
75883W        W39827  37.847  37.844  10.893
75884W        W39828  35.897  10.729   4.690
75885W        W39829  25.505  21.050   0.920
75886W        W39830  27.945  43.278  10.449
75887W        W39831  12.347  41.008  11.107
75888W        W39832  15.640  25.684  10.001
75889W        W39833  31.413   1.258  14.758
75890W        W39834  30.149  29.496  11.029
75891W        W39835   0.810  32.036   2.388
75892W        W39836  21.063  36.008   1.365
75893W        W39837   7.286  44.796  12.887
75894W        W39838  39.375  42.914   1.734
75895W        W39839  11.188  10.652   1.369
75896W        W39840   3.860   0.967   2.806
75897W        W39841  37.466  14.319  10.961
75898W        W39842  22.996  44.825   4.191
75899W        W39843  25.090  12.216   3.253
75900W        W39844  31.647  24.137   0.844
75901W        W39845  23.079  42.011  13.404
75902W        W39846  23.077  32.066   4.159
75903W        W39847  31.432   4.881   2.373
75904W        W39848  12.192  13.167  10.578
75905W        W39849  17.085  23.046   3.247
75906W        W39850  37.997   1.461  13.882
75907W        W39851  17.237  17.296   1.832
75908W        W39852  34.473   9.342   0.265
75909W        W39853  17.071  39.053   1.287
75910W        W39854  23.037  41.010   4.604
75911W        W39855  18.110  17.271   0.244
75912W        W39856  35.922   9.328   4.739
75913W        W39857  25.110  17.303   2.740
75914W        W39858  11.350  19.224   2.788
75915W        W39859  17.712  41.967  12.495
75916W        W39860  36.001  24.115  13.978
75917W        W39861  37.379   6.854  13.426
75918W        W39862   8.744  18.050  10.585
75919W        W39863   1.293   0.339  11.611
75920W        W39864  38.561  25.131  14.392
75921W        W39865  27.622  14.734   2.708
75922W        W39866  42.855  22.588  14.958
75923W        W39867  27.187  28.937  13.424
75924W        W39868  32.569  42.007   0.848
75925W        W39869   2.743   6.880  13.534
75926W        W39870  19.586   1.836  13.810
75927W        W39871  36.377  27.965  12.026
75928W        W39872  28.592  16.795   4.702
75929W        W39873   1.373  27.567  13.376
75930W        W39874  12.143  33.465   2.362
75931W        W39875  32.563  34.865  14.912
75932W        W39876  15.223  23.732  14.345
75933W        W39877  24.671  34.997   4.746
75934W        W39878  23.605  40.846   0.963
75935W        W39879  17.125  24.045  11.102
75936W        W39880  37.456  22.207  12.029
75937W        W39881  26.015  10.766   3.777
75938W        W39882   6.366  27.955   1.289
75939W        W39883   4.830   1.777  12.916
75940W        W39884  29.545  40.488  12.839
75941W        W39885  13.721   9.877  14.982
75942W        W39886   3.777  30.106   4.320
75943W        W39887   8.276  12.321  13.341
75944W        W39888  26.020   6.725   3.785
75945W        W39889  36.943  30.027  11.895
75946W        W39890  43.487  20.598   2.182
75947W        W39891  25.580   1.747  10.070
75948W        W39892   2.830  30.141  10.580
75949W        W39893   4.828   1.243   2.189
75950W        W39894  31.925   6.789  13.865
75951W        W39895   9.748  34.027  12.949
75952W        W39896   5.422  25.993   4.231
75953W        W39897  15.808  12.736   2.702
75954W        W39898   4.880  36.473  11.929
75955W        W39899  24.601  33.552   3.656
75956W        W39900   0.377  36.966  10.956
75957W        W39901  29.611  30.086  12.366
75958W        W39902  27.570  10.216   3.154
75959W        W39903  28.605  10.748   2.896
75960W        W39904  30.982  25.992  12.834
75961W        W39905  44.973  10.705  12.394
75962W        W39906   7.269  42.312   0.375
75963W        W39907  11.652  37.059  12.919
75964W        W39908  12.129   0.273   1.749
75965W        W39909  16.236  38.394  12.916
75966W        W39910   7.368   5.362   2.337
75967W        W39911  28.566  10.264  13.420
75968W        W39912  12.193  37.082  12.949
75969W        W39913  29.586  12.855   4.124
75970W        W39914  17.785   5.301   0.321
75971W        W39915   6.873  35.901   4.322
75972W        W39916  37.394   2.769   3.642
75973W        W39917  39.857  28.092   0.916
75974W        W39918  33.612   0.446   4.225
75975W        W39919   8.313  42.841   4.296
75976W        W39920  17.608  28.556   1.264
75977W        W39921  14.226  43.341   2.863
75978W        W39922  24.508  32.939   1.902
75979W        W39923  11.800  41.513  14.830
75980W        W39924  34.446  14.206  14.288
75981W        W39925  10.331  18.645   0.258
75982W        W39926  24.112  23.043   2.757
75983W        W39927  26.099  28.144   2.316
75984W        W39928  17.201  20.146   3.779
75985W        W39929  36.532  42.957  13.815
75986W        W39930   5.225  15.580  11.602
75987W        W39931  19.165  38.526  13.848
75988W        W39932   5.741  39.055   2.783
75989W        W39933  12.185  28.156   4.339
75990W        W39934  40.900  38.484   3.775
75991W        W39935  20.649   8.361   4.284
75992W        W39936   4.744  14.338   5.297
75993W        W39937  39.368   2.343  10.144
75994W        W39938  42.948  29.140   0.252
75995W        W39939   3.736  34.459   0.923
75996W        W39940   6.390  21.547   0.853
75997W        W39941  30.955  30.051   2.338
75998W        W39942   8.885  35.452   1.906
75999W        W39943   1.435  28.947   2.788
76000W        W39944  18.094  14.717   0.445
76001W        W39945  19.669  44.996   3.798
76002W        W39946  44.006   1.429  14.820
76003W        W39947  31.152  34.482  11.607
76004W        W39948  23.617  23.992  10.483
76005W        W39949  11.811  12.178   4.615
76006W        W39950  18.168  39.354   2.283
76007W        W39951  38.002  35.458   1.379
76008W        W39952  14.321   0.926  12.852
76009W        W39953   0.885  20.028  12.890
76010W        W39954  13.334  31.405  14.866
76011W        W39955  27.662  33.059  12.524
76012W        W39956  24.997  27.651  11.450
76013W        W39957  43.406   7.769   0.302
76014W        W39958  17.775  10.747   9.987
76015W        W39959  25.045  10.754   0.477
76016W        W39960  25.021   9.278   1.811
76017W        W39961  44.342  22.735   2.199
76018W        W39962  24.070  10.138   4.259
76019W        W39963   6.711  32.921  14.910
76020W        W39964  11.673  22.220   3.845
76021W        W39965   2.950  22.730   1.341
76022W        W39966   5.222   6.322   5.130
76023W        W39967  44.265  12.153   1.796
76024W        W39968  19.540  33.979  10.616
76025W        W39969   3.411  23.733   2.682
76026W        W39970  20.734  27.097  11.435
76027W        W39971  34.962  37.902   1.430
76028W        W39972  29.156  38.462   3.345
76029W        W39973   8.382  18.589  12.991
76030W        W39974  14.719  37.542   5.246
76031W        W39975   3.912  33.591   9.947
76032W        W39976  13.204  15.643   1.415
76033W        W39977  44.483  11.247  10.506
76034W        W39978   0.950   2.356  14.974
76035W        W39979  38.039  38.886   1.253
76036W        W39980  16.195  14.819   0.962
76037W        W39981  29.516  34.882   2.740
76038W        W39982  37.935  30.916  12.435
76039W        W39983  43.838  43.912   4.641
76040W        W39984   1.793  34.112   2.192
76041W        W39985  22.208  39.354   1.409
76042W        W39986  31.076  16.294  13.532
76043W        W39987   8.398   0.942  14.515
76044W        W39988   9.854  17.654  12.066
76045W        W39989   3.735  42.506  13.517
76046W        W39990  14.097   0.395  13.386
76047W        W39991  29.044  12.623   3.790
76048W        W39992   9.174   0.377   2.901
76049W        W39993  41.805  30.977  13.981
76050W        W39994  29.070  19.090  11.088
76051W        W39995   9.846  35.365   4.305
76052W        W39996  34.951  30.927  13.483
76053W        W39997   5.918  12.221  14.421
76054W        W39998  35.050  12.178  10.439
76055W        W39999  22.570  19.757  14.032
76056W        W40000   2.778  13.837   3.766
76057W        W40001   4.241  36.489   2.281
76058W        W40002   0.408   5.872  13.832
76059W        W40003   6.284  39.934   3.833
76060W        W40004   5.781  30.601  14.964
76061W        W40005  24.520   2.845  13.001
76062W        W40006  13.119  43.015   5.247
76063W        W40007  22.652  21.165   4.301
76064W        W40008   8.836  42.465  13.409
76065W        W40009  31.472  40.838  14.505
76066W        W40010   6.784   7.745   0.744
76067W        W40011  11.336  36.883  14.998
76068W        W40012  41.847   6.314   0.443
76069W        W40013  41.958  38.392   0.245
76070W        W40014  10.154  19.553  13.340
76071W        W40015  16.247  11.319  13.897
76072W        W40016  26.610  29.945  12.920
76073W        W40017   9.219  44.962  14.462
76074W        W40018  20.662  10.780  13.493
76075W        W40019  14.250   6.384  10.503
76076W        W40020  12.130  22.154  14.322
76077W        W40021  28.949   2.826  11.508
76078W        W40022   9.160  25.963   1.301
76079W        W40023   9.392  38.897   1.216
76080W        W40024  17.138   1.430  14.885
76081W        W40025  27.593  10.140  13.015
76082W        W40026  26.961  36.958   3.308
76083W        W40027  41.353  36.514  14.030
76084W        W40028  32.520  27.446   3.262
76085W        W40029  14.243  41.901  10.599
76086W        W40030  32.449  36.503  11.044
76087W        W40031  32.612  44.937   3.787
76088W        W40032  28.035  14.638   2.369
76089W        W40033   6.782  19.600   2.864
76090W        W40034  26.617  18.154   9.942
76091W        W40035  35.039  19.081   0.811
76092W        W40036   2.414   0.306   3.707
76093W        W40037   2.946  25.557   0.475
76094W        W40038   5.294  19.235  14.870
76095W        W40039  40.046   8.828   3.275
76096W        W40040   7.841   3.315  14.515
76097W        W40041  35.508  10.656  14.410
76098W        W40042  36.522  36.931   1.726
76099W        W40043  34.931   0.389  13.359
76100W        W40044   0.282   5.733   0.823
76101W        W40045  15.720  18.130  11.376
76102W        W40046  14.721  26.139  13.834
76103W        W40047  31.944  36.460   1.251
76104W        W40048  31.134  22.572   3.745
76105W        W40049  16.278  28.035  14.281
76106W        W40050  40.029  20.210   0.928
76107W        W40051  25.538  43.475   4.796
76108W        W40052  29.650  41.911  10.423
76109W        W40053   6.280  30.466   1.904
76110W        W40054  26.047  42.022   1.435
76111W        W40055   7.827  35.417   4.689
76112W        W40056   0.288  23.986  12.406
76113W        W40057   3.271  29.545  13.307
76114W        W40058  33.084  10.237  13.463
76115W        W40059  11.291  15.724   5.299
76116W        W40060   8.272  22.734   1.695
76117W        W40061  23.692  14.221   0.378
76118W        W40062  19.087  12.188  11.597
76119W        W40063   3.350  38.935  12.491
76120W        W40064   1.431  24.126  13.818
76121W        W40065  30.549  29.967   0.745
76122W        W40066   8.846  26.601   5.310
76123W        W40067   4.310   0.833  11.530
76124W        W40068  16.714  25.144  14.952
76125W        W40069  44.476   4.718   2.785
76126W        W40070  33.523   3.374   3.649
76127W        W40071  13.181  13.152  10.935
76128W        W40072  12.739  20.083  10.546
76129W        W40073  35.082   3.330   3.251
76130W        W40074  25.175   5.297   3.788
76131W        W40075  35.380  31.023  12.005
76132W        W40076   2.277   7.793   5.111
76133W        W40077  17.733   4.700  10.048
76134W        W40078  25.677  17.300  10.116
76135W        W40079   2.868   5.711  14.366
76136W        W40080  23.180  36.972   4.214
76137W        W40081   5.762  41.934   3.359
76138W        W40082  42.877  40.514   4.321
76139W        W40083  28.980  21.588   3.838
76140W        W40084   4.226  35.483   4.205
76141W        W40085  41.362  13.831  11.534
76142W        W40086  21.617  30.474  11.011
76143W        W40087  44.271  39.314  13.349
76144W        W40088   7.770  19.595  11.962
76145W        W40089  23.555  20.625  10.559
76146W        W40090  23.552  26.076   4.232
76147W        W40091  11.358  13.795   2.284
76148W        W40092   4.759   9.293   3.254
76149W        W40093  32.058  13.628   1.321
76150W        W40094   3.314  20.204  12.923
76151W        W40095  16.689  29.658   0.261
76152W        W40096  44.354  13.698   1.798
76153W        W40097  36.434  30.933  12.349
76154W        W40098  22.641  36.437   3.212
76155W        W40099   1.846  10.739  10.528
76156W        W40100  12.621  18.561   2.738
76157W        W40101  36.498  18.292  11.118
76158W        W40102  35.013  36.426  11.885
76159W        W40103  39.944   3.382   1.843
76160W        W40104  19.576  13.219   4.211
76161W        W40105  15.778  19.767   4.606
76162W        W40106  25.609  17.580  14.963
76163W        W40107  33.392  34.514  12.940
76164W        W40108  22.659  17.589  10.616
76165W        W40109  31.143  43.461  14.991
76166W        W40110  10.138   6.238  14.763
76167W        W40111   3.449  44.275  11.960
76168W        W40112  23.677   0.870   2.800
76169W        W40113   3.871  33.889  14.469
76170W        W40114  32.412   1.788  14.429
76171W        W40115  14.641  41.813   2.309
76172W        W40116  38.528  37.085  11.019
76173W        W40117  12.178   4.829   2.241
76174W        W40118  37.489   3.912   1.719
76175W        W40119  19.113  18.206  14.029
76176W        W40120   9.233  26.533   0.870
76177W        W40121  39.496  25.528   3.176
76178W        W40122  36.010  26.667  10.520
76179W        W40123  19.605  33.388  10.950
76180W        W40124   6.345   3.306   3.220
76181W        W40125  16.238  32.483   0.963
76182W        W40126   8.832  12.731   3.269
76183W        W40127  19.172   5.306   0.760
76184W        W40128  19.693  42.314   0.318
76185W        W40129  43.862  43.828   3.147
76186W        W40130  25.649  27.055  11.942
76187W        W40131  22.044  26.671  11.522
76188W        W40132  28.578  35.462   4.697
76189W        W40133  11.632  20.688   1.427
76190W        W40134  43.483  35.904  11.423
76191W        W40135  12.195   2.732  10.447
76192W        W40136  21.259  35.387  11.936
76193W        W40137  21.514  33.019  11.110
76194W        W40138   1.774  30.439   4.658
76195W        W40139  27.964  37.996  11.119
76196W        W40140  22.527  40.343   0.785
76197W        W40141  27.128  22.711  14.365
76198W        W40142   0.829  35.995   1.868
76199W        W40143  17.795   5.739   4.262
76200W        W40144  10.357   3.910   4.332
76201W        W40145  27.085  14.149  11.941
76202W        W40146  15.681  25.217  12.935
76203W        W40147  19.197  33.933   1.831
76204W        W40148  19.600  30.616   4.342
76205W        W40149  30.596  28.151   0.272
76206W        W40150  42.397  42.958   4.219
76207W        W40151  30.966  41.314   0.469
76208W        W40152  41.307  34.981   0.750
76209W        W40153   2.804   9.666  14.325
76210W        W40154  34.379  44.371  12.339
76211W        W40155  35.027  39.518   3.659
76212W        W40156  21.712  36.949   2.779
76213W        W40157  31.523  36.069   0.460
76214W        W40158  28.588  35.012  12.995
76215W        W40159  41.878   8.819   1.210
76216W        W40160  33.026  18.595   1.415
76217W        W40161  17.719  23.062   0.325
76218W        W40162  39.062  17.719   4.665
76219W        W40163  11.345  18.680   2.190
76220W        W40164  31.589   3.452   3.185
76221W        W40165  40.890   8.778   3.314
76222W        W40166  43.815  19.269   1.821
76223W        W40167  41.808  43.965  13.817
76224W        W40168   7.356  37.567   1.221
76225W        W40169  14.773  33.905   2.705
76226W        W40170   2.929  39.436  14.760
76227W        W40171  34.550  32.443  11.869
76228W        W40172   4.204  32.057  13.496
76229W        W40173  16.155  32.141  12.829
76230W        W40174  31.073  39.825  10.438
76231W        W40175   0.251  13.762  12.093
76232W        W40176   1.271  40.454  12.978
76233W        W40177  26.198   2.867  13.910
76234W        W40178  44.764   5.867  14.837
76235W        W40179  25.083   8.331  10.566
76236W        W40180  37.520  21.590   2.750
76237W        W40181  14.794   1.410  13.965
76238W        W40182   3.861  42.870  11.115
76239W        W40183  21.723   7.396   1.423
76240W        W40184  17.226  21.549   0.887
76241W        W40185  37.063  28.515   3.228
76242W        W40186  42.010  20.704   1.868
76243W        W40187  36.548  31.085  11.584
76244W        W40188   7.668  18.271  14.509
76245W        W40189  34.031  12.302   1.336
76246W        W40190  20.730  38.359  14.358
76247W        W40191   7.192  32.914  13.812
76248W        W40192  24.063   4.801   5.232
76249W        W40193  30.082  35.908  11.455
76250W        W40194  21.218  34.404   2.778
76251W        W40195  43.870  17.702  13.998
76252W        W40196  34.865  27.628  10.600
76253W        W40197  44.768  19.237  12.446
76254W        W40198  44.410  22.211   4.144
76255W        W40199  35.940   6.299   3.662
76256W        W40200  25.069  16.622   0.343
76257W        W40201  36.997  14.156   5.173
76258W        W40202  37.857  18.255   1.766
76259W        W40203  44.791  15.326   3.633
76260W        W40204   2.847  42.840   3.850
76261W        W40205   5.729   6.187   3.192
76262W        W40206  22.585  25.970  11.546
76263W        W40207  19.605  41.905  12.433
76264W        W40208   4.783  38.065  10.614
76265W        W40209   4.846   3.255   3.645
76266W        W40210  41.023  12.151  12.531
76267W        W40211   8.286  23.692   2.706
76268W        W40212  39.323   1.742   5.653
76269W        W40213  11.662  29.600   4.325
76270W        W40214  31.568   3.391  14.957
76271W        W40215  11.149   3.814  14.958
76272W        W40216  26.464  37.042   0.768
76273W        W40217   1.284  24.514  11.493
76274W        W40218  40.510  25.202   1.906
76275W        W40219  35.567   0.482   0.876
76276W        W40220  24.152  18.689  11.112
76277W        W40221   5.333  39.987  11.505
76278W        W40222  22.054  38.998  10.513
76279W        W40223  27.643  32.422  11.372
76280W        W40224  10.876  16.121  11.399
76281W        W40225  41.878  43.341  13.414
76282W        W40226  13.701  30.142   0.334
76283W        W40227  28.006  22.045   0.466
76284W        W40228  23.678  44.888  12.575
76285W        W40229  17.590  37.566   2.882
76286W        W40230  24.121  22.160  12.044
76287W        W40231  23.551  35.529   4.187
76288W        W40232   7.816  25.018  14.461
76289W        W40233  35.102  16.745  11.866
76290W        W40234  37.062  24.622  14.385
76291W        W40235  40.798  30.015  10.618
76292W        W40236  44.785  33.988  12.958
76293W        W40237  35.521  18.051  12.970
76294W        W40238  25.522  36.572   4.769
76295W        W40239  20.579   9.875   1.322
76296W        W40240   8.758  42.003   3.260
76297W        W40241  14.214  31.621  12.428
76298W        W40242  12.830   7.888  12.385
76299W        W40243  29.928  16.583   0.302
76300W        W40244  17.686  38.549   4.661
76301W        W40245  31.636  27.678  12.377
76302W        W40246   6.850  31.050   5.151
76303W        W40247   7.737   6.279   4.329
76304W        W40248  34.883  15.798  14.838
76305W        W40249  44.007  42.370   0.844
76306W        W40250  25.214   2.230   3.312
76307W        W40251  42.423   6.898  14.437
76308W        W40252  41.463  34.876  12.551
76309W        W40253  17.730  43.508  10.515
76310W        W40254  13.260  35.038  10.989
76311W        W40255  39.536  34.080   0.882
76312W        W40256  43.906  31.045  13.900
76313W        W40257   9.875  22.250  10.954
76314W        W40258  37.087  36.417  11.512
76315W        W40259  14.316   5.863   0.247
76316W        W40260  42.999  17.702   0.443
76317W        W40261  16.309  36.472  10.459
76318W        W40262  40.904  19.631   0.945
76319W        W40263  14.780  41.966  13.434
76320W        W40264  23.709  33.028  12.361
76321W        W40265  43.014  20.547  10.955
76322W        W40266  10.656  44.803   1.865
76323W        W40267  36.478  32.412  11.464
76324W        W40268  28.644   8.308   4.720
76325W        W40269  34.473  16.570  10.576
76326W        W40270  31.087  16.237   1.758
76327W        W40271  16.739  26.048  13.964
76328W        W40272  10.841  39.468  10.890
76329W        W40273  40.809  10.839   1.282
76330W        W40274  12.233   3.924   2.679
76331W        W40275  16.673  27.596   1.864
76332W        W40276  25.700  37.500   3.833
76333W        W40277   9.261  31.543   5.163
76334W        W40278  14.769  31.142   1.729
76335W        W40279  17.269  36.418   3.171
76336W        W40280  36.563  36.081  14.402
76337W        W40281  41.859  11.779   0.908
76338W        W40282  29.563  43.306  13.903
76339W        W40283  42.989  16.615  14.286
76340W        W40284  10.856  16.109  12.556
76341W        W40285   0.777  15.105   2.800
76342W        W40286  28.599  14.094   2.745
76343W        W40287  24.106  19.118  12.082
76344W        W40288  20.043   6.745  14.343
76345W        W40289  30.561  29.571  11.986
76346W        W40290   7.199  44.005  14.813
76347W        W40291  33.104  44.907   0.315
76348W        W40292  16.594   3.847   0.828
76349W        W40293   4.939  39.964  11.524
76350W        W40294   4.753  42.298   0.951
76351W        W40295  14.307  21.186  10.475
76352W        W40296  21.753   6.784  13.489
76353W        W40297  27.054   4.796  10.441
76354W        W40298   8.332  44.890   2.893
76355W        W40299  44.765   4.890  10.594
76356W        W40300  36.480  22.079  11.037
76357W        W40301  33.547  44.867   1.852
76358W        W40302  32.080  33.972   0.332
76359W        W40303  40.541  39.004  13.025
76360W        W40304  43.489   7.221   0.277
76361W        W40305  20.212  36.930  11.018
76362W        W40306  42.478  28.932   4.753
76363W        W40307  20.757   9.382  14.975
76364W        W40308  30.142  25.687  11.389
76365W        W40309   9.865   1.270  12.491
76366W        W40310   8.383  41.019   0.319
76367W        W40311  24.600  15.650   0.755
76368W        W40312   8.401  14.791  13.919
76369W        W40313  35.082  37.337   2.737
76370W        W40314  38.454  27.553  14.277
76371W        W40315   6.832  42.319   1.326
76372W        W40316  32.617  34.865  14.471
76373W        W40317  41.973  43.428   3.285
76374W        W40318  21.037  25.154   1.750
76375W        W40319   1.860  14.322   4.171
76376W        W40320   5.804   3.870  10.975
76377W        W40321  13.190  13.141   4.745
76378W        W40322  30.546   9.873  11.571
76379W        W40323  17.148  34.444  13.523
76380W        W40324  29.582  21.194  10.891
76381W        W40325  42.955  33.394   4.806
76382W        W40326  32.564  14.253   2.273
76383W        W40327  40.548  24.489   2.409
76384W        W40328  36.480  32.434   2.316
76385W        W40329  30.060  21.536   4.682
76386W        W40330   5.356  26.988  10.573
76387W        W40331   5.784  22.006  10.405
76388W        W40332  20.639  39.388   2.331
76389W        W40333  21.606  20.717   3.220
76390W        W40334  25.535  25.640   2.227
76391NA+    NA+40335  14.596   9.165  14.855
76392NA+    NA+40336   7.208  25.650   3.738
76393NA+    NA+40337  40.511  11.292   2.873
76394NA+    NA+40338  23.116  18.176   4.715
76395NA+    NA+40339  15.207   9.648  14.892
76396NA+    NA+40340  36.427  11.349  14.285
76397NA+    NA+40341  30.598   0.767   3.245
76398NA+    NA+40342  26.548  32.613  11.385
76399NA+    NA+40343   7.308  10.643   0.841
76400NA+    NA+40344  44.780  33.973  10.629
76401NA+    NA+40345  36.391   6.276  12.529
76402NA+    NA+40346   9.782  43.858   0.328
76403NA+    NA+40347  27.555  13.307  13.402
76404NA+    NA+40348  21.191  20.760  10.644
76405NA+    NA+40349  38.473  22.575   3.158
76406NA+    NA+40350  13.211   7.306  12.026
76407NA+    NA+40351  20.244  27.191   3.635
76408NA+    NA+40352  32.611  15.728   1.816
76409NA+    NA+40353  11.825  22.632   1.404
76410NA+    NA+40354  17.632  35.534   5.620
76411NA+    NA+40355  20.030   5.308  13.030
76412NA+    NA+40356  16.798  36.477   2.317
76413NA+    NA+40357  15.737  19.039   2.215
76414NA+    NA+40358   0.904  35.929  10.946
76415NA+    NA+40359  27.079  16.567  12.497
76416NA+    NA+40360  42.939   5.389   4.689
76417NA+    NA+40361  40.480  12.835   1.713
76418NA+    NA+40362  39.403  19.570  14.976
76419NA+    NA+40363  28.989   4.897   4.727
76420NA+    NA+40364  18.102   3.215  11.401
76421NA+    NA+40365  24.496  16.274   2.889
76422NA+    NA+40366  22.735  43.511  14.424
76423NA+    NA+40367  41.859   0.978  12.412
76424NA+    NA+40368   9.843  25.467   0.884
76425NA+    NA+40369   2.448  13.310   0.861
76426NA+    NA+40370  31.555   0.345  14.514
76427NA+    NA+40371  17.696  36.571   3.216
76428NA+    NA+40372  27.559  38.543  12.937
76429NA+    NA+40373  15.771   8.803  14.007
76430NA+    NA+40374   1.886  36.922  13.411
76431NA+    NA+40375  41.317  21.048   0.753
76432NA+    NA+40376  12.821  11.692  13.481
76433NA+    NA+40377  26.972  41.895  10.927
76434NA+    NA+40378  44.418   2.771   1.786
76435NA+    NA+40379  34.576  23.667   4.658
76436NA+    NA+40380  20.205   8.294  12.056
76437NA+    NA+40381  29.105   0.385   2.885
76438NA+    NA+40382  19.649  30.077   3.754
76439NA+    NA+40383   6.362  21.703  10.527
76440NA+    NA+40384  23.239  41.535  11.858
76441NA+    NA+40385  31.549   2.799  10.499
76442NA+    NA+40386  44.877  26.007   1.714
76443NA+    NA+40387  34.931   4.888  10.546
76444NA+    NA+40388  28.651  20.110  13.955
76445NA+    NA+40389  25.103  21.662  12.437
76446NA+    NA+40390  37.049  43.840   1.737
76447NA+    NA+40391  31.135  22.051   0.417
76448NA+    NA+40392   9.261  33.106  14.508
76449NA+    NA+40393  25.469  31.914  11.373
76450NA+    NA+40394  42.490  26.541   3.806
76451NA+    NA+40395  11.801  19.627  10.980
76452NA+    NA+40396  17.654   1.444  12.541
76453NA+    NA+40397  31.937  31.510  11.059
76454NA+    NA+40398  17.646  16.636  10.557
76455NA+    NA+40399   2.408  34.502   4.769
76456NA+    NA+40400  15.723   9.161  14.404
76457NA+    NA+40401  10.730  41.882   2.319
76458NA+    NA+40402  35.480  41.321   2.249
76459NA+    NA+40403  28.181  32.043   0.281
76460NA+    NA+40404  13.185  12.292   2.894
76461NA+    NA+40405  21.021  15.231  13.478
76462NA+    NA+40406  11.774   5.277   3.647
76463NA+    NA+40407   4.273   1.391  13.877
76464NA+    NA+40408  37.480  17.689   2.281
76465NA+    NA+40409   8.739  42.318   1.331
76466NA+    NA+40410  18.146  18.650   4.139
76467NA+    NA+40411   7.173  21.683   1.926
76468NA+    NA+40412  16.164  29.126   3.342
76469NA+    NA+40413  21.240  43.392   4.662
76470NA+    NA+40414   7.758  26.565   1.298
76471NA+    NA+40415   4.435  15.139  10.416
76472NA+    NA+40416  31.408  10.744  10.556
76473NA+    NA+40417  31.147  43.340  12.981
76474NA+    NA+40418  28.089   9.163  13.450
76475NA+    NA+40419   3.249  20.538  14.821
76476NA+    NA+40420  44.483  41.023  14.402
76477NA+    NA+40421  23.571  43.367  10.947
76478NA+    NA+40422  10.740  24.074   1.365
76479NA+    NA+40423  20.056   1.356   3.646
76480NA+    NA+40424  10.783  18.682  13.450
76481NA+    NA+40425  10.748   8.313  12.452
76482NA+    NA+40426  20.617  33.390  14.483
76483NA+    NA+40427  31.093   0.869  10.642
76484NA+    NA+40428  43.992  11.698  11.399
76485NA+    NA+40429  31.551   9.771   0.476
76486NA+    NA+40430  30.577  38.919   1.313
76487NA+    NA+40431  31.454  43.351   3.183
76488NA+    NA+40432  42.475  24.118  12.344
76489NA+    NA+40433  32.916  25.005   2.860
76490NA+    NA+40434  31.115  42.011   0.372
76491NA+    NA+40435  29.438  31.474  10.438
76492NA+    NA+40436  16.721  24.127   1.704
76493NA+    NA+40437   8.701  26.194   0.389
76494NA+    NA+40438   4.711  18.613  12.918
76495NA+    NA+40439   1.964  36.404   2.895
76496NA+    NA+40440  16.646  40.958  10.561
76497NA+    NA+40441  40.035  21.629  11.069
76498NA+    NA+40442  17.653  14.211   3.178
76499NA+    NA+40443  16.300  28.970   4.163
76500NA+    NA+40444  29.098   8.223   4.324
76501NA+    NA+40445  11.276  22.712   0.897
76502NA+    NA+40446  38.075   5.394  12.418
76503NA+    NA+40447  33.533  22.730   1.349
76504NA+    NA+40448  40.503  28.000  10.113
76505NA+    NA+40449  44.441  25.713  13.455
76506NA+    NA+40450  27.450   2.308  11.010
76507NA+    NA+40451  20.602  32.023  14.886
76508NA+    NA+40452  40.044  11.207  13.950
76509NA+    NA+40453  24.645  39.948  13.547
76510NA+    NA+40454  41.347  43.839  13.325
76511NA+    NA+40455  39.911  44.440  11.863
76512NA+    NA+40456  35.485  11.679   3.289
76513NA+    NA+40457   9.365  10.770  12.351
76514NA+    NA+40458  11.825  37.882   4.832
76515NA+    NA+40459  44.482  27.453   1.299
76516NA+    NA+40460  18.126  33.605  14.341
76517NA+    NA+40461  39.436  38.842  14.906
76518NA+    NA+40462  22.222  14.756   2.322
76519NA+    NA+40463  41.508  20.565   2.408
76520NA+    NA+40464  12.849  40.431   2.261
76521NA+    NA+40465  42.007  18.712  12.951
76522NA+    NA+40466   3.346   3.370  14.025
76523NA+    NA+40467  26.667  37.426   4.672
76524NA+    NA+40468   2.382  18.131   3.209
76525NA+    NA+40469  17.663  39.030  14.348
76526NA+    NA+40470   1.379  12.790  13.059
76527NA+    NA+40471  37.910  30.507   4.319
76528NA+    NA+40472  22.709  36.503   2.350
76529NA+    NA+40473  37.393  42.806   3.702
76530NA+    NA+40474  19.202  31.061  11.553
76531NA+    NA+40475   9.655  33.573   3.742
76532NA+    NA+40476  44.297  20.152   4.232
76533NA+    NA+40477  17.130  20.148  14.436
76534NA+    NA+40478   1.260  39.903   0.759
76535NA+    NA+40479  26.146  16.271   4.770
76536NA+    NA+40480  21.243  24.080   1.216
76537NA+    NA+40481  14.752  20.044  11.954
76538NA+    NA+40482  30.907  12.836  14.975
76539NA+    NA+40483  28.017  11.749  14.418
76540NA+    NA+40484  19.268  13.705   2.703
76541NA+    NA+40485  30.630  29.623  14.799
76542NA+    NA+40486   2.394  40.830   2.698
76543NA+    NA+40487  11.155  13.736   3.305
76544NA+    NA+40488  26.120  29.076   0.362
76545NA+    NA+40489  40.032  19.755   3.827
76546NA+    NA+40490  30.569  44.874  14.913
76547NA+    NA+40491   6.880  34.614   3.268
76548NA+    NA+40492  19.284  41.371   4.825
76549NA+    NA+40493  25.137  38.351   3.346
76550NA+    NA+40494  26.139   2.886   2.270
76551NA+    NA+40495  43.991  22.173  10.906
76552NA+    NA+40496   7.905  35.083   2.297
76553NA+    NA+40497  16.083  17.141  10.116
76554NA+    NA+40498  14.594  28.186  14.471
76555NA+    NA+40499  20.204  32.989  10.444
76556NA+    NA+40500  41.921   1.867   2.208
76557NA+    NA+40501  16.078  25.040   3.379
76558NA+    NA+40502  30.984   0.490   3.805
76559NA+    NA+40503  24.685  22.159  12.870
76560NA+    NA+40504   2.740  42.420  11.870
76561NA+    NA+40505   5.338  17.101   1.778
76562NA+    NA+40506  24.589  19.254   4.671
76563NA+    NA+40507  26.080  11.781   3.661
76564NA+    NA+40508  19.134  35.456  14.023
76565NA+    NA+40509  33.588  33.957   3.311
76566NA+    NA+40510  33.582   5.739  13.039
76567NA+    NA+40511  29.130  24.647  13.417
76568NA+    NA+40512  26.043  16.809  13.014
76569NA+    NA+40513  16.813   4.400  11.386
76570NA+    NA+40514   4.710  19.711   0.414
76571NA+    NA+40515  12.349  15.742  12.057
76572NA+    NA+40516  37.380  33.917  11.498
76573NA+    NA+40517   0.338  22.555  12.511
76574NA+    NA+40518  13.281  30.637   0.758
76575NA+    NA+40519  12.632  34.591  13.018
76576NA+    NA+40520  26.086  32.958  11.416
76577NA+    NA+40521  32.002   7.866  10.408
76578NA+    NA+40522   6.216  26.657  10.095
76579NA+    NA+40523  27.136  32.039   2.311
76580NA+    NA+40524  20.716  38.411  13.419
76581NA+    NA+40525  41.355  38.978   4.336
76582NA+    NA+40526  37.978  42.385  11.039
76583NA+    NA+40527  43.832  17.198  14.835
76584NA+    NA+40528  31.115  23.226   2.201
76585NA+    NA+40529   3.769  42.830  11.945
76586NA+    NA+40530  33.419  28.056  13.324
76587NA+    NA+40531  37.878  14.252   3.859
76588NA+    NA+40532  34.983  12.806  12.374
76589NA+    NA+40533  43.322  36.009  11.872
76590NA+    NA+40534  17.160  36.929  11.126
76591NA+    NA+40535   3.941  25.642  14.029
76592NA+    NA+40536   2.296  36.047  12.555
76593NA+    NA+40537  10.264  24.587   5.271
76594NA+    NA+40538  27.592   2.935   1.232
76595NA+    NA+40539  32.400  15.601  13.398
76596NA+    NA+40540  29.055  27.617  14.000
76597NA+    NA+40541  40.322   9.390   2.394
76598NA+    NA+40542  20.197  43.001  14.904
76599NA+    NA+40543  44.949  20.147  14.314
76600NA+    NA+40544  11.641  41.826   2.306
76601NA+    NA+40545  22.172  29.934  12.458
76602NA+    NA+40546  24.524  40.023   4.322
76603NA+    NA+40547  25.001  26.064  10.948
76604NA+    NA+40548  30.105  12.212  11.122
76605NA+    NA+40549   8.180   8.172   3.335
76606NA+    NA+40550   8.229  32.023   1.841
76607NA+    NA+40551  33.925  17.777   2.799
76608NA+    NA+40552   2.398  42.897   4.640
76609NA+    NA+40553  30.983  10.376   2.302
76610NA+    NA+40554  43.896   7.256   1.809
76611NA+    NA+40555  25.652  18.628  12.854
76612NA+    NA+40556  42.875  31.431   4.136
76613NA+    NA+40557   0.807  32.021   3.386
76614NA+    NA+40558  28.575  10.787  11.862
76615NA+    NA+40559   2.946  38.860   0.394
76616NA+    NA+40560  26.955  37.576   4.730
76617NA+    NA+40561  17.180  31.059  11.913
76618NA+    NA+40562  29.526   1.358   0.316
76619NA+    NA+40563   2.831  11.318   1.702
76620NA+    NA+40564  16.615  15.233   1.410
76621NA+    NA+40565  30.929  27.135   4.262
76622NA+    NA+40566  23.693   9.876  14.295
76623NA+    NA+40567  33.476  42.450   4.252
76624NA+    NA+40568   3.434  32.073  11.466
76625NA+    NA+40569  31.612  18.762  13.440
76626NA+    NA+40570  19.549  15.199   4.237
76627NA+    NA+40571  35.909  35.023   1.700
76628NA+    NA+40572   5.903   4.902  12.037
76629NA+    NA+40573  24.995  24.593   3.698
76630NA+    NA+40574  11.656  23.722  10.630
76631NA+    NA+40575  10.702  13.323  12.093
76632NA+    NA+40576  18.626  27.198   2.756
76633NA+    NA+40577  44.315  36.866  11.419
76634NA+    NA+40578   6.297  37.381  11.030
76635NA+    NA+40579  17.183  11.369   0.853
76636NA+    NA+40580   6.764  19.050   3.645
76637NA+    NA+40581  31.418   8.760  14.328
76638NA+    NA+40582  29.521  44.482   1.722
76639NA+    NA+40583   7.755  40.051  14.778
76640NA+    NA+40584   1.254  44.788  11.047
76641NA+    NA+40585   6.346  20.557  10.108
76642NA+    NA+40586  43.007  27.953  13.859
76643NA+    NA+40587  30.967  41.464   1.429
76644NA+    NA+40588  12.287  11.828   1.718
76645NA+    NA+40589  16.752  23.721   1.826
76646NA+    NA+40590   9.339  25.088  13.883
76647NA+    NA+40591   1.941  34.068  11.473
76648NA+    NA+40592  43.290   5.876  14.920
76649NA+    NA+40593  18.201  34.414  13.447
76650NA+    NA+40594  27.638  11.826  14.449
76651NA+    NA+40595  40.864  17.778   2.777
76652NA+    NA+40596   9.819  10.813  10.984
76653NA+    NA+40597  31.535   4.389  13.862
76654NA+    NA+40598  34.970  14.603   4.664
76655NA+    NA+40599  20.157   7.877   0.387
76656NA+    NA+40600  30.079   1.864  14.312
76657NA+    NA+40601  27.944  39.469  13.390
76658NA+    NA+40602  29.641  39.846  13.401
76659NA+    NA+40603  22.108  29.573  14.421
76660NA+    NA+40604  38.906  12.252   0.759
76661NA+    NA+40605  21.239   5.332  11.889
76662NA+    NA+40606  13.626   2.325  12.025
76663NA+    NA+40607  42.424  35.461  12.341
76664NA+    NA+40608  24.613  27.076  12.888
76665NA+    NA+40609   7.276   8.812  14.486
76666NA+    NA+40610  14.276  32.499   3.736
76667NA+    NA+40611  34.500  33.086   0.917
76668NA+    NA+40612  22.154  37.559   0.378
76669NA+    NA+40613  15.583  14.624   1.780
76670NA+    NA+40614  10.863  20.548  13.945
76671NA+    NA+40615   9.305  12.841  14.314
76672NA+    NA+40616   6.182  22.124  10.999
76673NA+    NA+40617  14.783  41.503  13.396
76674NA+    NA+40618  12.796  23.698  14.923
76675NA+    NA+40619  34.927  25.577   4.760
76676NA+    NA+40620  20.657   8.260  10.968
76677NA+    NA+40621  11.172  21.730   1.705
76678NA+    NA+40622   2.414  38.986  13.481
76679NA+    NA+40623  34.903  35.601  13.513
76680NA+    NA+40624   1.952  39.536   3.815
76681NA+    NA+40625  39.490  36.448  11.998
76682NA+    NA+40626   7.771  11.131  13.845
76683NA+    NA+40627  20.129  35.942   2.404
76684NA+    NA+40628   4.315  25.083   1.357
76685NA+    NA+40629  27.155  43.985  13.422
76686NA+    NA+40630  43.479  13.636  13.396
76687NA+    NA+40631  44.865  32.457   0.807
76688NA+    NA+40632  11.799  32.054   1.235
76689NA+    NA+40633   2.865  41.516  12.937
76690NA+    NA+40634  33.118  22.158  11.009
76691NA+    NA+40635  12.820  32.521  14.375
76692NA+    NA+40636  23.571  12.830  13.838
76693NA+    NA+40637   9.356  31.960  13.920
76694NA+    NA+40638  23.226  15.747   3.224
76695NA+    NA+40639  20.207  41.959  13.388
76696NA+    NA+40640  39.388  35.401  13.867
76697NA+    NA+40641  36.383  13.263   1.246
76698NA+    NA+40642  36.970  35.483   3.634
76699NA+    NA+40643   2.333  21.148  14.474
76700NA+    NA+40644  26.536  30.099  14.885
76701NA+    NA+40645  23.038  16.787   0.733
76702NA+    NA+40646  21.180  42.910  13.024
76703NA+    NA+40647  44.970  33.452  13.333
76704NA+    NA+40648  30.102  32.981   1.860
76705NA+    NA+40649  42.937  20.610   2.269
76706NA+    NA+40650   0.779  11.686   2.744
76707NA+    NA+40651  35.013  12.188   1.391
76708NA+    NA+40652  14.691  38.032   4.212
76709NA+    NA+40653  34.028  10.194  11.006
76710NA+    NA+40654  10.313  32.607   3.231
76711NA+    NA+40655  12.655   5.882  11.544
76712NA+    NA+40656  31.917   4.283   2.263
76713NA+    NA+40657  22.514  42.348   4.165
76714NA+    NA+40658  19.570  14.193  11.387
76715NA+    NA+40659  22.196  16.090   1.909
76716NA+    NA+40660   5.870   4.286   1.703
76717NA+    NA+40661  35.895  19.097  13.538
76718NA+    NA+40662   7.345  11.230  13.005
76719NA+    NA+40663  23.187  18.591  13.004
76720NA+    NA+40664   9.794  30.641  11.099
76721NA+    NA+40665  19.066  20.632  11.439
76722NA+    NA+40666   3.830   4.273  14.844
76723NA+    NA+40667  36.517  39.484  10.563
76724NA+    NA+40668   6.815  14.814  10.581
76725NA+    NA+40669  26.531  33.936  13.807
76726NA+    NA+40670  39.897  10.876  10.633
76727NA+    NA+40671   8.166  26.172  11.450
76728NA+    NA+40672  28.148  23.222  12.486
76729NA+    NA+40673  35.567  22.530   3.244
76730NA+    NA+40674   7.388  43.788  10.463
76731NA+    NA+40675  17.245  39.431   2.772
76732NA+    NA+40676   6.344   0.850  14.979
76733NA+    NA+40677  22.613  44.274   0.812
76734NA+    NA+40678  31.061   2.731   4.610
76735NA+    NA+40679   5.326  28.956  12.950
76736NA+    NA+40680  26.043  26.113   1.813
76737NA+    NA+40681  21.100  20.174   2.780
76738NA+    NA+40682  34.536   2.774   3.169
76739NA+    NA+40683   4.442   5.327   2.320
76740NA+    NA+40684  31.628  22.702   4.769
76741NA+    NA+40685  42.926  40.989  10.927
76742NA+    NA+40686  10.795  30.638  10.546
76743NA+    NA+40687  20.078  37.065  12.580
76744NA+    NA+40688  27.635  36.002   2.218
76745NA+    NA+40689   8.836   8.326  10.895
76746NA+    NA+40690  14.300  27.676  12.374
76747NA+    NA+40691  41.854  23.998  14.818
76748NA+    NA+40692   4.421  44.411  14.942
76749NA+    NA+40693  25.469  21.114   2.671
76750NA+    NA+40694  29.532   6.767  12.002
76751NA+    NA+40695  24.980   6.428  10.503
76752NA+    NA+40696  24.106  41.043   4.766
76753NA+    NA+40697   2.231   9.749   3.205
76754NA+    NA+40698  43.896  18.671   3.655
76755NA+    NA+40699  23.489  32.409  10.896
76756NA+    NA+40700   5.748   2.837  13.371
76757NA+    NA+40701  39.044   7.266  12.908
76758NA+    NA+40702  21.163  10.211  11.908
76759NA+    NA+40703  44.459   7.779   3.843
76760NA+    NA+40704  39.546  16.630  13.973
76761NA+    NA+40705  22.632  11.799  12.031
76762NA+    NA+40706   2.258   9.350   1.302
76763NA+    NA+40707   3.290  13.810  13.431
76764NA+    NA+40708  31.568   2.292   0.868
76765NA+    NA+40709   2.396  23.604  13.389
76766NA+    NA+40710  32.947  10.249   1.324
76767NA+    NA+40711  32.606  28.504  11.984
76768NA+    NA+40712  13.269   2.267   5.750
76769NA+    NA+40713  12.299  43.470  12.512
76770NA+    NA+40714  11.816  10.767  11.419
76771NA+    NA+40715  20.110   2.315  13.391
76772NA+    NA+40716  11.338  23.986  14.985
76773NA+    NA+40717  23.085  30.049  13.313
76774NA+    NA+40718  25.503  26.084  11.478
76775NA+    NA+40719   4.862   4.716   1.422
76776NA+    NA+40720  15.301  37.982   2.288
76777NA+    NA+40721   7.867  11.348  12.849
76778NA+    NA+40722  14.697  28.022  12.966
76779NA+    NA+40723  36.920   3.803   4.228
76780NA+    NA+40724   9.834  25.582  11.604
76781NA+    NA+40725  22.243   2.847   1.378
76782NA+    NA+40726   5.251  11.370  10.555
76783NA+    NA+40727   3.303  26.515   2.743
76784NA+    NA+40728  44.422  16.636   3.830
76785NA+    NA+40729  36.382  17.098   2.859
76786NA+    NA+40730   7.684  37.442  11.101
76787NA+    NA+40731  39.044  42.429  11.585
76788NA+    NA+40732  22.539  16.141  10.557
76789NA+    NA+40733   8.207  19.272   2.330
76790NA+    NA+40734  20.539  32.913   2.408
76791NA+    NA+40735  23.194  41.035  12.420
76792NA+    NA+40736   6.722  20.681  11.924
76793NA+    NA+40737  32.131  28.671  10.912
76794NA+    NA+40738  39.835   3.723  14.908
76795NA+    NA+40739   0.452   1.280   0.809
76796NA+    NA+40740  24.219  24.178  11.566
76797NA+    NA+40741   1.782   4.704  10.160
76798NA+    NA+40742  31.402  24.211  14.927
76799NA+    NA+40743  24.565  27.682   4.202
76800NA+    NA+40744  25.643  32.463  13.025
76801NA+    NA+40745  22.665   8.718   2.406
76802NA+    NA+40746  18.567  38.875  10.038
76803NA+    NA+40747  40.311  24.038   1.309
76804NA+    NA+40748  44.011  33.432   4.320
76805NA+    NA+40749  26.670  23.181  11.878
76806NA+    NA+40750  44.920  44.398  14.314
76807NA+    NA+40751  32.979  29.514   3.272
76808NA+    NA+40752  29.665  24.144   3.199
76809NA+    NA+40753  10.776  44.465  14.287
76810NA+    NA+40754  41.385  32.461  11.055
76811NA+    NA+40755  21.542   9.857  10.614
76812NA+    NA+40756  13.350   7.201   0.262
76813NA+    NA+40757   5.807  25.128   0.269
76814NA+    NA+40758  17.191  12.804  11.943
76815NA+    NA+40759   9.669   9.673   1.289
76816NA+    NA+40760  18.743  25.082   0.815
76817NA+    NA+40761  41.511   2.833  12.418
76818NA+    NA+40762  38.950   6.214   0.950
76819NA+    NA+40763  41.383  27.079  11.954
76820NA+    NA+40764  43.793  35.429  13.837
76821NA+    NA+40765  43.450  12.617  11.509
76822NA+    NA+40766  17.078   1.308   0.877
76823NA+    NA+40767  28.634  42.842  12.357
76824NA+    NA+40768  26.676  32.480   0.274
76825NA+    NA+40769  44.323   4.748   1.837
76826NA+    NA+40770   9.369  31.041   4.726
76827NA+    NA+40771  42.416   1.451  13.506
76828NA+    NA+40772   2.283  44.920   2.382
76829NA+    NA+40773  24.631   6.875  12.377
76830NA+    NA+40774  13.206   4.434  10.627
76831NA+    NA+40775  17.178  24.204  14.488
76832NA+    NA+40776  25.653  36.490  10.983
76833NA+    NA+40777  36.443   3.951   5.281
76834NA+    NA+40778  25.707  30.608  10.158
76835NA+    NA+40779  23.114  11.323   3.708
76836NA+    NA+40780  42.859  22.734   4.316
76837NA+    NA+40781  36.592   4.862   2.350
76838NA+    NA+40782  25.201  12.121   1.724
76839NA+    NA+40783  26.627  44.799  12.363
76840NA+    NA+40784  38.019   7.214  12.979
76841NA+    NA+40785   5.923   0.340  10.518
76842NA+    NA+40786  41.309   8.725   4.774
76843NA+    NA+40787  31.422   3.721   2.284
76844NA+    NA+40788  37.568  41.507   3.849
76845NA+    NA+40789   7.846  12.129  11.869
76846NA+    NA+40790  43.897   5.836  11.532
76847NA+    NA+40791  12.813  24.206   2.230
76848NA+    NA+40792  20.757  33.016  14.909
76849NA+    NA+40793  44.326  41.020   4.730
76850NA+    NA+40794  23.617  19.203   0.967
76851NA+    NA+40795  15.093   7.746   9.954
76852NA+    NA+40796  11.323  34.486  14.799
76853NA+    NA+40797  42.363  42.885  14.441
76854NA+    NA+40798   4.394  32.899  14.433
76855NA+    NA+40799   2.364  24.630  10.432
76856NA+    NA+40800   4.801  17.635  11.878
76857NA+    NA+40801  11.668  32.019   3.310
76858NA+    NA+40802  29.526  37.497  13.504
76859NA+    NA+40803   0.810  33.529  13.445
76860NA+    NA+40804  33.955  13.253  13.413
76861NA+    NA+40805  14.243   7.265  14.471
76862NA+    NA+40806  30.509  18.074   2.806
76863NA+    NA+40807  26.469   8.701  10.141
76864NA+    NA+40808  42.010  32.977   3.852
76865NA+    NA+40809  44.833  33.898   4.825
76866NA+    NA+40810  10.763  35.092  10.463
76867NA+    NA+40811  39.021  27.643   9.991
76868NA+    NA+40812  44.293  15.250  11.492
76869NA+    NA+40813   4.324  30.141  10.523
76870NA+    NA+40814   6.731  40.806   2.681
76871NA+    NA+40815  10.240  26.461   4.115
76872NA+    NA+40816  37.344  27.485  11.098
76873NA+    NA+40817  42.943  38.896  12.390
76874NA+    NA+40818  16.676  39.464  14.335
76875NA+    NA+40819  28.934  31.486   3.357
76876NA+    NA+40820  35.397  10.185  12.435
76877NA+    NA+40821  31.057  38.352   2.859
76878NA+    NA+40822  21.641  36.914   2.414
76879NA+    NA+40823  12.635   1.946  11.388
76880NA+    NA+40824   6.782  39.019  13.841
76881NA+    NA+40825  11.137   7.891   4.828
76882NA+    NA+40826   5.855  20.190  10.635
76883NA+    NA+40827   3.790   7.397  12.437
76884NA+    NA+40828  40.982  19.697   1.749
76885NA+    NA+40829  42.361   0.783  13.354
76886NA+    NA+40830  44.433  39.012   1.353
76887NA+    NA+40831  29.926   6.304  14.501
76888NA+    NA+40832  37.339  35.861  11.004
76889NA+    NA+40833  22.656  10.645  14.424
76890NA+    NA+40834  15.663  18.174  12.959
76891NA+    NA+40835  21.699  14.816   1.251
76892NA+    NA+40836  44.362   3.723   2.331
76893NA+    NA+40837  15.280  32.996   4.234
76894NA+    NA+40838  36.436  37.377   1.827
76895NA+    NA+40839  43.322  44.768  10.994
76896NA+    NA+40840  27.945   3.369  13.336
76897NA+    NA+40841  16.567  23.078   1.237
76898NA+    NA+40842  26.080  33.919  11.027
76899NA+    NA+40843   8.780  20.711   1.258
76900NA+    NA+40844   9.150  33.058   0.279
76901NA+    NA+40845   0.335  27.113   2.843
76902NA+    NA+40846  13.641  38.547  13.369
76903NA+    NA+40847  43.912  10.807  12.948
76904NA+    NA+40848  10.380   1.962  11.980
76905NA+    NA+40849  29.089  38.479   2.835
76906NA+    NA+40850  28.070  44.460  13.015
76907NA+    NA+40851  36.475   8.656  10.064
76908NA+    NA+40852  41.933  19.620  12.026
76909NA+    NA+40853  23.714  13.230  14.017
76910NA+    NA+40854   7.218  25.184  11.450
76911NA+    NA+40855  32.906  29.531   2.382
76912NA+    NA+40856   1.342   4.824  14.444
76913NA+    NA+40857  15.302  25.149   0.820
76914NA+    NA+40858  42.405  39.962   1.832
76915NA+    NA+40859  22.142   6.769   4.727
76916NA+    NA+40860  12.180  39.408  14.791
76917NA+    NA+40861  34.001  39.319  12.355
76918NA+    NA+40862   4.914  34.906  13.467
76919NA+    NA+40863   0.489  18.546  11.503
76920NA+    NA+40864   1.377  10.176   0.944
76921NA+    NA+40865  17.089  22.722  12.903
76922NA+    NA+40866  12.674   3.219  11.401
76923NA+    NA+40867  26.091  35.379  13.932
76924NA+    NA+40868  25.565  10.193   0.289
76925NA+    NA+40869  16.582  23.533  13.058
76926NA+    NA+40870   1.894  33.061  12.417
76927NA+    NA+40871   1.833  33.031   4.778
76928NA+    NA+40872  19.728   2.314   4.292
76929NA+    NA+40873  41.981  23.565  10.951
76930NA+    NA+40874   6.229   3.357  13.913
76931NA+    NA+40875  21.095  12.621   0.389
76932NA+    NA+40876   6.916  23.148  13.000
76933NA+    NA+40877   1.934  19.576  12.948
76934NA+    NA+40878   3.270  19.271  12.574
76935NA+    NA+40879  11.633  11.264  13.350
76936NA+    NA+40880  23.497   1.242   1.223
76937NA+    NA+40881  19.140  32.139   4.240
76938NA+    NA+40882  19.237  29.995   0.425
76939NA+    NA+40883  25.499  36.476   1.801
76940NA+    NA+40884  17.125  16.269  10.940
76941NA+    NA+40885  30.654   3.822  13.367
76942NA+    NA+40886  37.014   1.257  13.913
76943NA+    NA+40887   7.897  11.254   4.663
76944NA+    NA+40888  41.828  11.718   4.814
76945NA+    NA+40889  15.325  24.648  13.524
76946NA+    NA+40890   3.235  22.241  14.883
76947NA+    NA+40891  13.822  28.069   4.653
76948NA+    NA+40892  19.645  27.684  11.435
76949NA+    NA+40893  37.560  14.618   0.247
76950NA+    NA+40894  19.620  23.677   3.635
76951NA+    NA+40895  41.925  35.409   1.227
76952NA+    NA+40896   6.676   1.430   3.177
76953NA+    NA+40897  14.196  12.722   4.219
76954NA+    NA+40898   1.382  15.721  13.334
76955NA+    NA+40899  17.160  12.679   3.803
76956NA+    NA+40900  30.930  19.621   2.888
76957NA+    NA+40901  26.054  43.304   3.833
76958NA+    NA+40902  18.194  15.206  13.826
76959NA+    NA+40903  29.568  19.587  11.052
76960NA+    NA+40904  33.467  29.149  13.929
76961NA+    NA+40905   2.374  37.523  12.532
76962NA+    NA+40906   7.830  36.579   3.842
76963NA+    NA+40907  19.760  17.793   4.697
76964NA+    NA+40908   3.247   3.934   4.616
76965NA+    NA+40909  44.885   7.383   0.934
76966NA+    NA+40910  16.791  19.642   4.289
76967NA+    NA+40911  12.127  27.966  14.438
76968NA+    NA+40912  22.672  36.068   2.338
76969NA+    NA+40913   0.902  40.989  12.525
76970NA+    NA+40914  41.895  34.989  10.985
76971NA+    NA+40915  22.639   8.682  13.414
76972NA+    NA+40916  41.853  15.294   2.372
76973NA+    NA+40917  10.872  42.492  12.946
76974NA+    NA+40918  44.902  21.246   1.817
76975NA+    NA+40919  23.574  18.078  12.844
76976NA+    NA+40920   7.708  44.300  13.327
76977NA+    NA+40921  43.497  38.054   2.833
76978NA+    NA+40922  37.042  18.293   4.678
76979NA+    NA+40923  28.089  38.983   5.589
76980NA+    NA+40924  34.554  37.892  14.880
76981NA+    NA+40925  18.750  12.814  14.813
76982NA+    NA+40926  11.324  29.662  11.020
76983NA+    NA+40927  28.998  24.554   2.317
76984NA+    NA+40928  33.990  18.055   3.189
76985NA+    NA+40929   9.738  17.747   3.373
76986NA+    NA+40930  23.170  21.726   1.331
76987NA+    NA+40931  28.544  36.545   2.220
76988NA+    NA+40932   4.308  27.020  12.885
76989NA+    NA+40933  29.512  31.925   2.793
76990NA+    NA+40934  23.106   1.810  10.492
76991NA+    NA+40935  12.699  43.361   0.249
76992NA+    NA+40936  18.222  28.054   3.306
76993NA+    NA+40937  35.001  37.977   4.227
76994NA+    NA+40938  34.920  13.695   1.288
76995NA+    NA+40939  23.020  31.415  10.500
76996NA+    NA+40940  39.352  25.686  12.534
76997NA+    NA+40941  11.136  30.124  10.576
76998NA+    NA+40942  43.318  44.870   4.830
76999NA+    NA+40943   0.365  13.713  13.930
77000NA+    NA+40944  24.654  23.574  14.442
77001NA+    NA+40945  23.188  10.660   0.331
77002NA+    NA+40946  18.745  18.191  11.021
77003NA+    NA+40947  16.798  12.746   0.736
77004NA+    NA+40948  36.034  18.115  13.996
77005NA+    NA+40949  23.020  16.806   3.836
77006NA+    NA+40950  10.666  10.708   4.175
77007NA+    NA+40951  11.728  33.030  13.486
77008NA+    NA+40952  19.746  36.503  10.547
77009NA+    NA+40953   6.870  30.007   3.217
77010NA+    NA+40954  37.956   6.373   4.696
77011NA+    NA+40955  13.707  12.790  11.463
77012NA+    NA+40956  12.649  34.566   4.803
77013NA+    NA+40957  27.138  42.349   3.248
77014NA+    NA+40958  19.670  24.598   0.386
77015NA+    NA+40959  17.716  25.643  10.999
77016NA+    NA+40960  12.201   0.963   4.169
77017NA+    NA+40961  17.066  44.887  13.509
77018NA+    NA+40962  39.377   2.950   4.690
77019NA+    NA+40963   6.848  18.777  10.148
77020NA+    NA+40964  23.584  28.678   3.174
77021NA+    NA+40965  25.648  31.520  11.058
77022NA+    NA+40966  23.645  12.815   1.435
77023NA+    NA+40967  40.002  30.651  13.448
77024NA+    NA+40968   7.833  34.547   2.793
77025NA+    NA+40969  37.555   6.707  11.374
77026NA+    NA+40970  25.667  20.151   3.238
77027NA+    NA+40971  39.833  11.223  10.905
77028NA+    NA+40972  23.683  28.454   4.310
77029NA+    NA+40973  32.925   2.904   0.953
77030NA+    NA+40974  10.271  11.136   0.385
77031NA+    NA+40975  12.611  25.537  14.417
77032NA+    NA+40976   7.770   7.241   3.160
77033NA+    NA+40977   0.279  27.196   2.384
77034NA+    NA+40978  21.597  42.526   3.703
77035NA+    NA+40979  20.726   8.222   1.929
77036NA+    NA+40980  23.152  36.897  12.071
77037NA+    NA+40981  24.130  34.882   5.110
77038NA+    NA+40982   5.430  34.927  13.407
77039NA+    NA+40983  27.564  38.073  13.492
77040NA+    NA+40984  11.822  38.053  13.524
77041NA+    NA+40985  41.023  26.492   3.716
77042NA+    NA+40986  28.178  40.492   2.233
77043NA+    NA+40987   9.703  28.109   9.929
77044NA+    NA+40988  36.048  10.668  10.477
77045NA+    NA+40989  42.295  22.068   0.318
77046NA+    NA+40990  40.533  10.167   1.784
77047NA+    NA+40991  31.005  42.300  11.496
77048NA+    NA+40992  42.981  10.719   3.794
77049NA+    NA+40993  17.297   3.272   1.903
77050NA+    NA+40994  31.612  37.358   3.791
77051NA+    NA+40995  32.971  15.197   0.880
77052NA+    NA+40996  44.299  24.163  12.491
77053NA+    NA+40997  30.543  24.551   4.209
77054NA+    NA+40998   4.746   9.796  12.566
77055NA+    NA+40999  32.549   1.444   0.464
77056NA+    NA+41000   7.371   0.753  12.475
77057NA+    NA+41001   4.449  37.027   3.692
77058NA+    NA+41002   8.834   2.760   0.368
77059NA+    NA+41003  19.070   0.443   2.732
77060NA+    NA+41004  40.535   1.869   3.236
77061NA+    NA+41005  20.193  39.336   2.747
77062NA+    NA+41006  19.675   9.225   0.356
77063NA+    NA+41007  24.975   4.305   2.209
77064NA+    NA+41008  43.333  43.850  14.786
77065NA+    NA+41009  43.889  21.146  13.970
77066NA+    NA+41010  10.841  39.472  11.575
77067NA+    NA+41011  11.829  26.515   3.734
77068NA+    NA+41012   5.437   1.237   0.844
77069NA+    NA+41013  42.923  23.058   1.419
77070NA+    NA+41014   8.784  20.598  13.847
77071NA+    NA+41015  24.038  35.529  10.997
77072NA+    NA+41016  26.589   8.315   3.237
77073NA+    NA+41017  13.143   6.809  12.837
77074NA+    NA+41018   7.244  23.503  14.984
77075NA+    NA+41019  31.067  32.606  12.429
77076NA+    NA+41020  33.539   7.681  13.503
77077NA+    NA+41021  14.156  19.554   1.723
77078NA+    NA+41022  33.622  16.137   1.217
77079NA+    NA+41023  43.326  20.141   4.219
77080NA+    NA+41024  13.147  15.313  14.345
77081NA+    NA+41025   9.811   2.394   0.263
77082NA+    NA+41026  18.616  38.884   0.853
77083NA+    NA+41027  44.259  10.863  11.570
77084NA+    NA+41028  18.731   3.321   4.645
77085NA+    NA+41029  26.517   1.473   1.813
77086NA+    NA+41030  32.544  36.962  13.892
77087NA+    NA+41031  18.051  21.640  12.343
77088NA+    NA+41032   4.844  35.539  14.319
77089NA+    NA+41033  27.073  36.910  13.012
77090NA+    NA+41034  32.566  33.589   3.774
77091NA+    NA+41035  25.209  18.286  11.992
77092NA+    NA+41036   0.387  29.430   0.258
77093NA+    NA+41037  10.364  38.842  12.996
77094NA+    NA+41038  17.200  31.450  10.601
77095NA+    NA+41039   5.853  32.539   0.452
77096NA+    NA+41040   5.764  26.205  10.492
77097NA+    NA+41041  10.288  16.693   2.198
77098NA+    NA+41042   1.741   2.418   3.836
77099NA+    NA+41043  26.084  12.179  12.981
77100NA+    NA+41044  21.519  31.064  12.051
77101NA+    NA+41045  11.666  43.785   0.929
77102NA+    NA+41046   1.740   5.774   3.146
77103NA+    NA+41047  10.687  33.061   4.298
77104NA+    NA+41048  14.682  26.506  12.047
77105NA+    NA+41049   9.772  30.590   2.198
77106NA+    NA+41050   3.791   1.430   0.943
77107NA+    NA+41051  11.228  31.099  13.056
77108NA+    NA+41052   4.346   9.786  11.024
77109NA+    NA+41053  21.203  36.895  11.543
77110NA+    NA+41054  43.501  29.110  12.890
77111NA+    NA+41055  30.144  14.812   4.274
77112NA+    NA+41056  23.646  19.579  11.096
77113NA+    NA+41057  23.224  26.648   1.770
77114NA+    NA+41058  24.701  22.612  14.411
77115NA+    NA+41059  37.070  38.378  11.903
77116NA+    NA+41060  42.416  14.140  11.935
77117NA+    NA+41061  18.703   3.719   0.864
77118NA+    NA+41062  13.670  27.985  12.523
77119NA+    NA+41063  41.415  44.487   0.824
77120NA+    NA+41064  13.754  43.996   2.397
77121NA+    NA+41065  19.778  15.609   5.252
77122NA+    NA+41066  13.769  37.992  11.535
77123NA+    NA+41067  24.668  34.918   0.785
77124NA+    NA+41068  26.563  20.239   0.313
77125NA+    NA+41069  42.973  29.442  10.960
77126NA+    NA+41070   5.253  26.119   3.661
77127NA+    NA+41071   4.368  37.069  12.401
77128NA+    NA+41072   1.807  38.964   1.720
77129NA+    NA+41073  28.997  41.973   9.476
77130NA+    NA+41074  13.741  17.096   0.729
77131NA+    NA+41075  42.872  29.047   3.700
77132NA+    NA+41076  26.683  13.817   5.131
77133NA+    NA+41077  32.407  29.140   1.711
77134NA+    NA+41078  36.377  20.717   1.740
77135NA+    NA+41079   5.744  42.358   0.347
77136NA+    NA+41080  33.113  17.673   0.262
77137NA+    NA+41081   9.855  13.611   5.789
77138NA+    NA+41082  25.128   7.232   1.413
77139NA+    NA+41083  37.886  32.078  11.941
77140NA+    NA+41084  24.698  18.545  11.518
77141NA+    NA+41085  41.947   2.414   0.741
77142NA+    NA+41086   8.320  44.495  14.934
77143NA+    NA+41087  42.844  24.110   4.127
77144NA+    NA+41088  30.971  34.045   2.277
77145NA+    NA+41089  44.828  41.306   3.712
77146NA+    NA+41090  15.800  36.545   5.240
77147NA+    NA+41091  15.278  28.120   4.687
77148NA+    NA+41092   5.253  42.028   4.690
77149NA+    NA+41093  21.251  42.921   1.386
77150NA+    NA+41094  12.847  34.941  14.401
77151NA+    NA+41095  19.219   7.370  12.867
77152NA+    NA+41096  37.057  25.022  14.349
77153NA+    NA+41097  40.005   7.781  12.435
77154NA+    NA+41098  15.785  19.698   3.709
77155NA+    NA+41099   0.776   9.252  14.425
77156NA+    NA+41100   5.383   9.789   1.220
77157NA+    NA+41101   0.427  17.244   4.181
77158NA+    NA+41102   9.340   8.169  14.879
77159NA+    NA+41103  37.575  42.435   3.690
77160NA+    NA+41104   2.842  22.198   1.797
77161NA+    NA+41105  11.367   5.929  13.482
77162NA+    NA+41106  20.753  11.243   4.807
77163NA+    NA+41107  32.433  21.515  11.521
77164NA+    NA+41108   8.742  39.423   1.731
77165NA+    NA+41109  25.542  15.094   2.375
77166NA+    NA+41110  20.637  16.615   3.191
77167NA+    NA+41111  38.854   0.816  12.470
77168NA+    NA+41112   2.257  25.023   4.633
77169NA+    NA+41113  35.363  41.892  10.529
77170NA+    NA+41114   3.225  25.623  13.015
77171NA+    NA+41115   9.710  12.776  13.346
77172NA+    NA+41116  35.966   7.907   3.176
77173NA+    NA+41117  43.343  41.312   3.283
77174NA+    NA+41118  37.503  32.950  11.016
77175NA+    NA+41119  28.955  40.914  13.030
77176NA+    NA+41120  17.798  23.532   1.846
77177NA+    NA+41121  24.995  21.099  10.602
77178NA+    NA+41122  22.175   3.260   2.902
77179NA+    NA+41123  44.303  30.095  12.070
77180NA+    NA+41124  29.664  44.790  11.952
77181NA+    NA+41125  38.918  40.353  11.377
77182NA+    NA+41126  16.266  39.417   1.825
77183NA+    NA+41127  10.340  32.096   3.331
77184NA+    NA+41128  20.661  19.538   4.165
77185NA+    NA+41129  26.631  16.616   0.771
77186NA+    NA+41130  36.052  42.480  12.828
77187NA+    NA+41131  21.250  38.556  11.578
77188NA+    NA+41132   4.710  22.212  12.921
77189NA+    NA+41133  42.901  27.591   1.718
77190NA+    NA+41134  42.371   1.917   3.333
77191NA+    NA+41135  43.789  30.992   3.153
77192NA+    NA+41136   8.258  30.030  14.905
77193NA+    NA+41137  35.588  40.814   2.284
77194NA+    NA+41138  21.057   9.311   2.372
77195NA+    NA+41139  12.159  19.152  13.411
77196NA+    NA+41140  42.423  34.870   3.846
77197NA+    NA+41141  24.981   9.781   3.353
77198NA+    NA+41142  44.800  14.615   4.809
77199NA+    NA+41143  21.703  12.697   1.883
77200NA+    NA+41144   4.884  17.606   2.231
77201NA+    NA+41145  18.246  17.300  13.338
77202NA+    NA+41146   8.713  11.210   2.705
77203NA+    NA+41147  18.187  21.066  12.481
77204NA+    NA+41148   7.233  21.049   0.476
77205NA+    NA+41149  14.743  33.916  12.494
77206NA+    NA+41150   7.901   1.282   0.339
77207NA+    NA+41151   6.269  35.364   4.176
77208NA+    NA+41152  18.593  18.182  10.600
77209NA+    NA+41153   7.701  38.052   4.634
77210NA+    NA+41154  28.595   5.830  11.465
77211NA+    NA+41155   7.230  26.965  14.471
77212NA+    NA+41156  10.825  31.538  11.479
77213NA+    NA+41157   2.825  35.384  13.868
77214NA+    NA+41158  25.690  26.041   3.255
77215NA+    NA+41159   3.813  18.240  13.338
77216NA+    NA+41160   4.809  41.335   1.236
77217NA+    NA+41161  24.523  31.050  14.452
77218NA+    NA+41162  19.103   0.259   0.407
77219NA+    NA+41163  15.172  19.127  13.471
77220NA+    NA+41164  35.454  28.991  10.933
77221NA+    NA+41165  34.017  40.953  14.925
77222NA+    NA+41166  27.653  27.514  12.843
77223NA+    NA+41167  31.026  41.950   3.707
77224NA+    NA+41168  13.698   9.173  11.966
77225NA+    NA+41169  35.008  14.143  13.404
77226NA+    NA+41170   5.885  43.465   2.358
77227NA+    NA+41171  22.692  23.094   1.344
77228NA+    NA+41172  12.289  27.003   1.218
77229NA+    NA+41173  17.566  21.522  14.516
77230NA+    NA+41174  11.219  27.125   2.884
77231NA+    NA+41175  44.921  42.024  11.924
77232NA+    NA+41176  35.429  42.425  11.882
77233NA+    NA+41177  26.201  33.463   2.716
77234NA+    NA+41178   8.673   6.291   1.307
77235NA+    NA+41179  41.354  14.795   2.335
77236NA+    NA+41180  43.328  24.137  14.784
77237NA+    NA+41181  32.940  44.278  13.496
77238NA+    NA+41182   6.783   3.434   4.826
77239NA+    NA+41183  38.928  31.488  14.504
77240NA+    NA+41184  39.480  23.551   2.344
77241NA+    NA+41185  28.575   6.750   4.618
77242NA+    NA+41186   1.379  21.075  12.518
77243NA+    NA+41187   3.825  21.532  11.077
77244NA+    NA+41188  40.310  24.982   2.746
77245NA+    NA+41189  29.088   0.446  14.934
77246NA+    NA+41190  27.052  41.456  11.974
77247NA+    NA+41191   3.882  31.922   2.287
77248NA+    NA+41192   5.871   1.886   0.302
77249NA+    NA+41193   9.355   3.945  14.439
77250NA+    NA+41194  28.526  24.024   1.321
77251NA+    NA+41195  24.185   8.803  14.788
77252NA+    NA+41196  34.448  35.058  14.804
77253NA+    NA+41197  41.498  44.338  10.473
77254NA+    NA+41198  19.213  26.619   2.332
77255NA+    NA+41199   7.688  39.385  11.083
77256NA+    NA+41200  15.163  11.708  11.473
77257NA+    NA+41201  15.301   3.883  11.072
77258NA+    NA+41202  22.203  29.025   0.741
77259NA+    NA+41203   8.248  42.856   2.790
77260NA+    NA+41204  42.779   3.941  12.938
77261NA+    NA+41205  22.042   8.727  11.874
77262NA+    NA+41206  20.248   3.871   1.839
77263NA+    NA+41207  43.942  41.422  10.981
77264NA+    NA+41208   9.158  18.583   5.109
77265NA+    NA+41209  31.140  41.460   0.805
77266NA+    NA+41210  42.997  21.109  10.135
77267NA+    NA+41211  10.679  40.421   0.303
77268NA+    NA+41212  12.124  13.845   3.302
77269NA+    NA+41213   8.171  16.810   1.361
77270NA+    NA+41214   9.213  27.576  13.874
77271NA+    NA+41215  38.868  13.255  10.893
77272NA+    NA+41216   7.222   3.761  13.034
77273NA+    NA+41217   1.960  26.114  14.791
77274NA+    NA+41218  14.287  11.309   1.790
77275NA+    NA+41219  14.258  25.115   4.717
77276NA+    NA+41220  15.140  42.831  12.349
77277NA+    NA+41221  42.976  37.538  11.060
77278NA+    NA+41222  43.467  42.880   1.786
77279NA+    NA+41223   4.892   0.848  12.865
77280NA+    NA+41224  13.677   5.797  14.289
77281NA+    NA+41225  27.685  43.775   0.255
77282NA+    NA+41226  32.491  25.607   3.659
77283NA+    NA+41227   7.739   6.279  11.986
77284NA+    NA+41228  14.269  20.607   3.238
77285NA+    NA+41229  17.253  30.618   3.253
77286NA+    NA+41230  31.898  37.429  10.026
77287NA+    NA+41231  28.518  15.627  12.848
77288NA+    NA+41232  32.574  21.143  13.432
77289NA+    NA+41233   6.219  14.787  14.862
77290NA+    NA+41234  26.470  31.008   2.673
77291NA+    NA+41235  21.202  35.931   1.802
77292NA+    NA+41236  18.198  27.546   1.846
77293NA+    NA+41237  43.405  36.997   3.810
77294NA+    NA+41238  37.910  25.477   0.810
77295NA+    NA+41239  19.571  27.521   4.130
77296NA+    NA+41240  11.290  30.451  13.889
77297NA+    NA+41241  23.611  20.702   1.239
77298NA+    NA+41242   5.404  43.355   1.857
77299NA+    NA+41243  31.476   4.248   0.808
77300NA+    NA+41244  11.730  26.992   4.327
77301NA+    NA+41245  32.029  20.101   4.666
77302NA+    NA+41246  18.618  15.584  10.419
77303NA+    NA+41247  33.962  25.623  13.310
77304NA+    NA+41248   8.864  43.308  12.422
77305NA+    NA+41249  35.479  11.733  14.415
77306NA+    NA+41250  14.722   5.923  10.579
77307NA+    NA+41251  44.425  11.650  14.829
77308NA+    NA+41252  29.065   9.802  13.358
77309NA+    NA+41253   5.887  29.975   1.340
77310NA+    NA+41254   7.891  22.524   0.865
77311NA+    NA+41255   4.205  29.931   3.291
77312NA+    NA+41256  22.651   0.325  13.348
77313NA+    NA+41257   1.790  24.658   0.292
77314NA+    NA+41258  13.281  30.486   3.851
77315NA+    NA+41259  35.469   8.767  12.569
77316NA+    NA+41260  23.230   0.257  11.867
77317NA+    NA+41261  22.528  31.609  12.903
77318NA+    NA+41262  38.054  27.447   1.884
77319NA+    NA+41263  18.251  28.173  12.443
77320NA+    NA+41264  35.890  31.421  10.472
77321NA+    NA+41265  23.062  22.167   0.330
77322NA+    NA+41266  37.342  25.023   2.407
77323NA+    NA+41267  43.322   0.782   2.350
77324NA+    NA+41268  16.303   7.322  12.410
77325NA+    NA+41269   4.796  14.140   1.878
77326NA+    NA+41270  38.368  15.108  13.530
77327NA+    NA+41271  10.714  14.822  12.905
77328NA+    NA+41272  38.939  34.973  11.558
77329NA+    NA+41273  37.021  43.374   4.194
77330NA+    NA+41274  39.915  16.312  12.989
77331NA+    NA+41275   7.686  20.272   3.681
77332NA+    NA+41276  32.632  15.726  11.612
77333NA+    NA+41277  13.749  32.000  11.086
77334NA+    NA+41278   4.405  25.191   2.335
77335NA+    NA+41279  29.466  24.544  10.445
77336NA+    NA+41280  22.044  44.263   4.828
77337NA+    NA+41281  27.582   7.891  11.875
77338NA+    NA+41282  27.499  17.681  11.556
77339NA+    NA+41283  25.003  44.840   0.328
77340NA+    NA+41284  27.068  12.302   4.347
77341NA+    NA+41285  18.763  22.200   5.091
77342NA+    NA+41286  29.072  19.140  14.469
77343NA+    NA+41287  41.950  38.943  10.411
77344NA+    NA+41288  39.045  29.111  13.911
77345NA+    NA+41289  40.819  21.699  11.567
77346NA+    NA+41290  38.875  25.160  10.979
77347NA+    NA+41291  44.993   4.355  14.303
77348NA+    NA+41292  21.515  16.671   3.157
77349NA+    NA+41293  29.610  11.843   1.764
77350NA+    NA+41294  17.159  23.995  11.608
77351NA+    NA+41295  20.744   2.350  13.324
77352NA+    NA+41296  41.458  28.152  10.497
77353NA+    NA+41297  40.863  15.228  14.802
77354NA+    NA+41298  34.063  44.901   2.802
77355NA+    NA+41299  12.259  15.615   2.233
77356NA+    NA+41300  14.794  20.691   2.844
77357NA+    NA+41301  10.771   1.825  14.006
77358NA+    NA+41302   5.269  11.291  14.492
77359NA+    NA+41303   8.187  24.081   1.707
77360NA+    NA+41304  19.675   0.919  10.568
77361NA+    NA+41305  25.212  34.905   4.683
77362NA+    NA+41306  44.318  43.407  14.382
77363NA+    NA+41307  16.212   6.835   1.828
77364NA+    NA+41308   6.424  24.562  12.544
77365NA+    NA+41309  31.449  17.602  14.797
77366NA+    NA+41310  14.655  28.538   1.250
77367NA+    NA+41311  27.172   0.863   1.377
77368NA+    NA+41312  16.766   5.392  10.567
77369NA+    NA+41313  13.841  35.021  10.989
77370NA+    NA+41314  38.396  25.668  10.944
77371NA+    NA+41315   1.938  15.229  13.791
77372NA+    NA+41316   8.771  14.681  12.926
77373NA+    NA+41317  43.363   2.406   0.838
77374NA+    NA+41318   3.426  11.634  10.602
77375NA+    NA+41319  19.768  36.080  12.970
77376NA+    NA+41320  39.360  43.354  14.448
77377NA+    NA+41321  24.598   1.350   1.372
77378NA+    NA+41322  32.956   4.429   1.381
77379NA+    NA+41323   3.824  44.458  10.892
77380NA+    NA+41324   8.365  19.534  10.542
77381NA+    NA+41325  17.784   9.764   0.751
77382NA+    NA+41326  42.989  41.309  10.921
77383NA+    NA+41327  13.749  38.019  12.541
77384NA+    NA+41328  39.038  35.409   3.825
77385NA+    NA+41329  35.577  19.280   4.304
77386NA+    NA+41330   0.397  43.500  11.495
77387NA+    NA+41331  28.019  34.956   4.251
77388NA+    NA+41332  29.629  28.086  12.841
77389NA+    NA+41333  11.653   6.739  10.509
77390NA+    NA+41334  38.893  30.148   3.751
77391NA+    NA+41335  35.380   8.764   4.259
77392NA+    NA+41336   1.339  36.575   1.364
77393NA+    NA+41337  26.129   1.898  11.905
77394NA+    NA+41338  31.402  39.389   0.454
77395NA+    NA+41339  20.105  44.952  13.982
77396NA+    NA+41340  22.604  44.312   1.779
77397NA+    NA+41341  44.392  16.629  13.339
77398NA+    NA+41342  30.089   4.430   1.279
77399NA+    NA+41343  34.429  36.038   0.932
77400NA+    NA+41344  34.384  13.725  11.062
77401NA+    NA+41345   4.828  35.875   3.253
77402NA+    NA+41346   2.231  41.976  13.464
77403NA+    NA+41347  30.521  26.493  14.431
77404NA+    NA+41348   2.392  26.485  10.500
77405NA+    NA+41349   5.828  18.699   0.798
77406NA+    NA+41350  42.359   7.356   0.398
77407NA+    NA+41351  20.225   5.920   1.865
77408NA+    NA+41352  22.069  17.718   3.754
77409NA+    NA+41353  33.383  22.746   4.625
77410NA+    NA+41354  26.695  28.458   1.228
77411NA+    NA+41355  35.999  19.559  10.426
77412NA+    NA+41356  42.342   4.261  10.935
77413NA+    NA+41357   9.802  20.180  12.019
77414NA+    NA+41358  13.718   2.244  12.539
77415NA+    NA+41359  25.502  44.331   4.603
77416NA+    NA+41360  36.409  17.189  14.327
77417NA+    NA+41361  10.743  26.143  10.997
77418NA+    NA+41362   0.840   7.375   1.300
77419NA+    NA+41363  13.657  25.475   3.280
77420NA+    NA+41364  39.815  42.010   4.255
77421NA+    NA+41365  13.648   4.721   5.150
77422NA+    NA+41366  23.628  16.717   0.337
77423NA+    NA+41367  24.228  36.858   2.725
77424NA+    NA+41368   3.861  37.023  14.941
77425NA+    NA+41369  37.340  42.019  13.939
77426NA+    NA+41370  14.297   0.427   2.320
77427NA+    NA+41371  39.402   8.176  10.410
77428NA+    NA+41372  19.151  21.545  14.402
77429NA+    NA+41373  10.678  26.702  11.041
77430NA+    NA+41374  26.484  15.712  12.848
77431NA+    NA+41375  18.616  20.549  10.519
77432NA+    NA+41376  24.616  17.185   2.804
77433NA+    NA+41377  30.043   0.365   4.123
77434NA+    NA+41378  14.308  32.492  14.303
77435NA+    NA+41379  25.499  10.684  13.444
77436NA+    NA+41380  30.597  30.512   2.785
77437NA+    NA+41381   6.243  41.821  12.448
77438NA+    NA+41382  38.835  11.145   1.850
77439NA+    NA+41383  15.245  15.785  12.892
77440NA+    NA+41384  14.787   3.743   4.226
77441NA+    NA+41385  33.039   8.709  11.880
77442NA+    NA+41386  39.502  32.496   2.818
77443NA+    NA+41387  43.325  29.171  13.936
77444NA+    NA+41388  30.564  39.065   1.757
77445NA+    NA+41389  10.245  17.748   4.280
77446NA+    NA+41390  22.063  10.278   0.805
77447NA+    NA+41391  24.118  22.715  14.461
77448NA+    NA+41392  36.434   5.257  14.412
77449NA+    NA+41393  21.137  32.448  11.515
77450NA+    NA+41394  33.974   7.761  12.050
77451NA+    NA+41395  35.984  22.112  14.780
77452NA+    NA+41396   1.762   4.384  13.325
77453NA+    NA+41397  32.937   2.741  14.847
77454NA+    NA+41398  12.125  13.618   4.132
77455NA+    NA+41399  20.068  22.615   2.801
77456NA+    NA+41400  30.455  11.791  14.467
77457NA+    NA+41401  43.349  30.019  10.546
77458NA+    NA+41402  23.530   5.265   1.867
77459NA+    NA+41403   8.881   8.162   0.853
77460NA+    NA+41404  18.777  17.193   1.889
77461NA+    NA+41405   4.292  29.008  13.037
77462NA+    NA+41406   6.328  16.263   2.311
77463NA+    NA+41407  14.728   7.826   9.991
77464NA+    NA+41408  11.193  32.547  10.462
77465NA+    NA+41409  18.285  21.029   1.907
77466NA+    NA+41410  19.048  41.925  14.987
77467NA+    NA+41411  22.698  23.148   1.902
77468NA+    NA+41412  34.559  32.927   3.342
77469NA+    NA+41413  43.333  13.759   1.412
77470NA+    NA+41414   6.326   7.340   3.833
77471NA+    NA+41415  24.033   6.813  13.014
77472NA+    NA+41416  26.523  18.760  14.333
77473NA+    NA+41417  10.243  15.177  12.373
77474NA+    NA+41418  19.137  15.138  11.951
77475NA+    NA+41419   4.698  21.244  12.998
77476NA+    NA+41420  29.986  21.581  13.451
77477NA+    NA+41421  25.549  30.436  14.509
77478NA+    NA+41422   6.681  43.418  12.998
77479NA+    NA+41423  13.265  41.799  13.946
77480NA+    NA+41424   9.294  40.843   1.281
77481NA+    NA+41425  29.022  10.716   2.253
77482NA+    NA+41426   6.234   6.317  14.302
77483NA+    NA+41427   2.760  36.974   0.736
77484NA+    NA+41428  33.383  20.274   1.425
77485NA+    NA+41429   7.839  36.006  12.873
77486NA+    NA+41430  43.515  15.204  14.884
77487NA+    NA+41431   5.216  11.184  11.508
77488NA+    NA+41432  29.092   5.393   4.782
77489NA+    NA+41433  24.119  34.935  12.347
77490NA+    NA+41434   8.305  26.175  12.356
77491NA+    NA+41435  25.026   2.776  10.554
77492NA+    NA+41436  19.127  31.504  10.643
77493NA+    NA+41437  12.611  31.422  14.773
77494NA+    NA+41438  20.257   9.836  11.451
77495NA+    NA+41439  22.605  31.937   3.660
77496NA+    NA+41440  15.580  17.248  14.802
77497NA+    NA+41441   3.881  20.699   1.326
77498NA+    NA+41442  19.059   5.762   4.749
77499NA+    NA+41443  17.297  43.283  11.955
77500NA+    NA+41444  38.023  32.413  11.429
77501NA+    NA+41445  11.687  40.419   1.892
77502NA+    NA+41446  17.098  10.759  11.915
77503NA+    NA+41447  16.208  12.773   0.786
77504NA+    NA+41448  24.165  41.971  11.485
77505NA+    NA+41449  11.791  31.505   2.689
77506NA+    NA+41450  27.689   7.214  10.987
77507NA+    NA+41451  38.555  22.246   2.795
77508NA+    NA+41452  32.940  24.518   0.735
77509NA+    NA+41453  29.662  36.353   0.878
77510NA+    NA+41454   9.294  39.988   0.337
77511NA+    NA+41455  10.263   0.964  14.781
77512NA+    NA+41456   1.405   1.967   3.241
77513NA+    NA+41457  12.627  42.284   3.361
77514NA+    NA+41458   6.274   0.462  12.988
77515NA+    NA+41459   8.795  27.944   3.652
77516NA+    NA+41460  23.633  40.487  14.818
77517NA+    NA+41461  17.677  41.418  13.970
77518NA+    NA+41462  33.421   1.262  13.943
77519NA+    NA+41463  38.933  15.639  13.825
77520NA+    NA+41464   4.357   1.976   4.818
77521NA+    NA+41465   1.814  25.492   2.709
77522NA+    NA+41466  11.786  43.308  10.450
77523NA+    NA+41467  12.257   2.319   4.231
77524NA+    NA+41468  26.022  24.181   3.165
77525NA+    NA+41469  24.047  24.706   0.817
77526NA+    NA+41470  37.059  41.309   1.227
77527NA+    NA+41471  14.701  44.836   1.827
77528NA+    NA+41472  36.999   2.850   0.327
77529NA+    NA+41473  16.284   4.420  11.920
77530NA+    NA+41474  23.238  11.811   2.190
77531NA+    NA+41475  10.353   9.661   0.938
77532NA+    NA+41476  24.079   6.344   1.778
77533NA+    NA+41477  17.722  26.190   4.674
77534NA+    NA+41478  11.646  28.016  10.581
77535NA+    NA+41479  31.943  23.154   3.353
77536NA+    NA+41480  14.703  24.702   4.820
77537NA+    NA+41481   9.353  30.600  11.877
77538NA+    NA+41482  16.106  11.165  13.377
77539NA+    NA+41483  30.506  40.840   5.204
77540NA+    NA+41484   4.245  12.698   1.738
77541NA+    NA+41485  10.812  23.507   3.686
77542NA+    NA+41486  15.756   3.346  12.500
77543NA+    NA+41487  10.817  26.075   4.697
77544NA+    NA+41488  31.900  26.070  14.317
77545NA+    NA+41489  43.435  17.162   9.923
77546NA+    NA+41490   4.232  29.919  14.798
77547NA+    NA+41491  42.975  43.910  10.073
77548NA+    NA+41492  38.465  29.048  14.840
77549NA+    NA+41493  26.497  22.597  14.360
77550NA+    NA+41494  17.238  38.402   4.287
77551NA+    NA+41495  19.155   0.831  12.558
77552NA+    NA+41496  23.579   3.366  11.892
77553NA+    NA+41497   5.730  24.069   2.206
77554NA+    NA+41498  30.498   5.332   3.791
77555NA+    NA+41499  11.623   6.204   9.994
77556NA+    NA+41500   3.318  22.534   2.777
77557NA+    NA+41501  18.570  38.400  11.569
77558NA+    NA+41502  27.038   7.366  14.960
77559NA+    NA+41503  30.615  25.679  14.971
77560NA+    NA+41504  15.324   5.369   0.272
77561NA+    NA+41505  32.962  43.956   2.349
77562NA+    NA+41506  17.192  24.991   3.758
77563NA+    NA+41507   2.243  35.444   0.857
77564NA+    NA+41508  19.570  14.717  12.491
77565NA+    NA+41509  12.830  28.006  12.844
77566NA+    NA+41510   8.294  25.021   4.310
77567NA+    NA+41511  38.853  42.942  11.499
77568NA+    NA+41512   0.267  38.831   3.383
77569NA+    NA+41513  23.693  13.808   3.253
77570NA+    NA+41514  35.928  43.957  13.844
77571NA+    NA+41515  15.655  24.647   1.796
77572NA+    NA+41516  37.390  16.725  14.420
77573NA+    NA+41517  38.356  38.858  13.529
77574NA+    NA+41518  37.852  39.507  12.549
77575NA+    NA+41519  32.455   7.878   3.651
77576NA+    NA+41520  27.124  16.079   3.859
77577NA+    NA+41521  19.042   3.810  10.506
77578NA+    NA+41522  40.407  11.842  14.917
77579NA+    NA+41523   7.396  43.997  11.557
77580NA+    NA+41524  17.574  31.010  13.358
77581NA+    NA+41525  20.528  17.667   2.697
77582NA+    NA+41526  16.811  37.920  14.943
77583NA+    NA+41527  32.586  40.426   0.781
77584NA+    NA+41528   2.894  44.832  10.448
77585NA+    NA+41529  31.079  11.325  12.037
77586NA+    NA+41530  10.803  39.358   4.351
77587NA+    NA+41531   8.241  38.399  14.855
77588NA+    NA+41532  11.320   7.295   1.372
77589NA+    NA+41533  35.087   0.296   3.798
77590NA+    NA+41534  21.236  22.689  11.372
77591NA+    NA+41535  25.166  22.720  14.372
77592NA+    NA+41536  31.534  32.469  13.033
77593NA+    NA+41537   4.327  32.909   4.598
77594NA+    NA+41538  41.475  14.137   3.833
77595NA+    NA+41539   1.244  31.951   2.240
77596NA+    NA+41540   5.222  21.247   2.747
77597NA+    NA+41541  36.974  31.498  11.534
77598NA+    NA+41542   2.415  11.803   5.252
77599NA+    NA+41543  37.895  39.479   0.375
77600NA+    NA+41544  24.996  22.522   2.356
77601NA+    NA+41545  28.116   6.873  11.439
77602NA+    NA+41546  11.659   5.293   1.421
77603NA+    NA+41547  18.188  34.952   9.992
77604NA+    NA+41548  35.900  26.999   1.451
77605NA+    NA+41549  31.053  27.173   3.634
77606NA+    NA+41550  29.540  44.310  12.479
77607NA+    NA+41551  44.426  30.153   3.703
77608NA+    NA+41552   8.237  10.184   1.780
77609NA+    NA+41553  33.622  19.257   2.855
77610NA+    NA+41554  32.932  44.994   3.242
77611NA+    NA+41555  39.535  34.073  14.360
77612NA+    NA+41556  33.049   5.222   1.787
77613NA+    NA+41557  40.871  25.675   4.178
77614NA+    NA+41558  18.292  22.018  13.826
77615NA+    NA+41559   7.806  21.601  14.846
77616NA+    NA+41560  28.598  29.173  11.592
77617NA+    NA+41561   5.922  12.124   3.253
77618NA+    NA+41562  24.608   1.877  13.474
77619NA+    NA+41563   1.959  16.744   1.749
77620NA+    NA+41564  41.900   8.309   3.341
77621NA+    NA+41565  40.383  38.855  12.519
77622NA+    NA+41566  43.374  13.158  11.884
77623NA+    NA+41567  20.174  12.740  11.873
77624NA+    NA+41568   7.279  26.509  13.365
77625NA+    NA+41569  27.511  37.868  14.425
77626NA+    NA+41570  32.953  36.364   1.328
77627NA+    NA+41571  18.575  39.516   4.679
77628NA+    NA+41572  11.284  21.724  12.938
77629NA+    NA+41573  11.193  31.970   1.380
77630NA+    NA+41574  14.723  25.215   3.768
77631NA+    NA+41575  36.553   3.853  14.446
77632NA+    NA+41576  35.362  29.041  14.509
77633NA+    NA+41577   0.282  33.983   3.336
77634NA+    NA+41578  25.486  44.805   4.744
77635NA+    NA+41579   9.200  13.818  12.954
77636NA+    NA+41580  42.841   3.383  12.049
77637NA+    NA+41581  14.658  10.155   2.754
77638NA+    NA+41582  22.080  28.566   3.219
77639NA+    NA+41583  37.067   4.414  13.986
77640NA+    NA+41584   0.438   2.442   3.780
77641NA+    NA+41585  30.091  27.092   2.331
77642NA+    NA+41586  28.060  29.456  13.491
77643NA+    NA+41587   3.806  35.980  14.886
77644NA+    NA+41588  26.199  36.473  13.970
77645NA+    NA+41589   2.392  17.299  14.512
77646NA+    NA+41590  35.379   3.791   1.415
77647NA+    NA+41591  34.373  35.091   4.153
77648NA+    NA+41592  32.044  18.737  13.317
77649NA+    NA+41593   3.241  44.923  14.319
77650NA+    NA+41594  23.572   1.415   2.300
77651NA+    NA+41595   8.172  27.001   5.173
77652NA+    NA+41596  20.245   1.393  11.939
77653NA+    NA+41597  34.543  31.648   1.838
77654NA+    NA+41598   6.193  14.190   0.462
77655NA+    NA+41599  40.484   2.799   4.350
77656NA+    NA+41600  19.043  42.348   0.896
77657NA+    NA+41601   5.387   0.421  11.402
77658NA+    NA+41602  28.067   7.186  13.439
77659NA+    NA+41603  30.538  26.132  13.932
77660NA+    NA+41604  43.014  21.035  11.587
77661NA+    NA+41605  16.625  19.217  12.967
77662NA+    NA+41606  41.450  30.522  13.044
77663NA+    NA+41607  42.856  24.985  10.968
77664NA+    NA+41608  44.323  22.124   1.341
77665NA+    NA+41609  22.642  37.072  14.920
77666NA+    NA+41610  37.374  19.533  11.544
77667NA+    NA+41611  15.666   2.827  13.981
77668NA+    NA+41612  20.570   3.773   0.277
77669NA+    NA+41613  29.628  44.850  14.910
77670NA+    NA+41614  15.758  44.867   3.652
77671NA+    NA+41615  37.936  21.620  14.344
77672NA+    NA+41616  22.533  28.952  13.425
77673NA+    NA+41617  14.157   6.356   2.746
77674NA+    NA+41618  29.134   9.786  11.036
77675NA+    NA+41619  12.844  29.536  14.932
77676NA+    NA+41620  24.980  14.720  13.512
77677NA+    NA+41621  33.092  24.203  14.460
77678NA+    NA+41622  38.897  11.700  11.553
77679NA+    NA+41623  15.138  13.280   3.225
77680NA+    NA+41624  25.684  40.341   3.154
77681NA+    NA+41625  16.740  25.615   0.354
77682NA+    NA+41626  36.997  18.135   3.775
77683NA+    NA+41627  20.270  40.863   4.604
77684NA+    NA+41628  22.689   0.969  12.924
77685NA+    NA+41629  18.597   8.307  11.049
77686NA+    NA+41630  12.192  31.032   1.708
77687NA+    NA+41631  43.272  29.446   4.196
77688NA+    NA+41632  12.147  22.245   2.896
77689NA+    NA+41633  44.312  35.951   0.961
77690NA+    NA+41634  22.630  36.488  11.113
77691NA+    NA+41635  11.158   8.318   2.367
77692NA+    NA+41636  24.717  32.053  14.382
77693NA+    NA+41637  15.097  38.534  14.398
77694NA+    NA+41638  21.642  39.891  13.333
77695NA+    NA+41639  33.962  27.167   2.207
77696NA+    NA+41640  23.657   3.718  10.563
77697NA+    NA+41641  26.057   7.727  12.397
77698NA+    NA+41642  40.042  14.167   2.361
77699NA+    NA+41643  39.936  43.920  10.444
77700NA+    NA+41644  20.134   8.810  14.972
77701NA+    NA+41645   0.984  29.621  12.925
77702NA+    NA+41646  35.934   0.301  10.932
77703NA+    NA+41647  16.676   9.758  11.941
77704NA+    NA+41648   5.793   9.848  11.072
77705NA+    NA+41649   7.312   0.902   2.318
77706NA+    NA+41650  43.482  20.102  12.974
77707NA+    NA+41651  35.468   3.303   3.161
77708NA+    NA+41652  41.438  32.142   2.307
77709NA+    NA+41653  11.335   5.379  14.766
77710NA+    NA+41654   2.440  42.342   3.263
77711NA+    NA+41655  32.049   9.331  14.004
77712NA+    NA+41656   9.245  10.856  12.950
77713NA+    NA+41657  41.440  38.956  10.637
77714NA+    NA+41658  39.537  34.505  10.439
77715NA+    NA+41659  34.511  40.547   1.750
77716NA+    NA+41660   2.238  29.531   0.731
77717NA+    NA+41661   6.267   6.369  10.602
77718NA+    NA+41662   9.302  37.387  12.944
77719NA+    NA+41663  38.874  16.308  13.366
77720NA+    NA+41664   7.867   9.852  10.447
77721NA+    NA+41665  35.583  21.605  12.914
77722NA+    NA+41666  44.769  14.701   1.817
77723NA+    NA+41667   1.430   7.231   5.589
77724NA+    NA+41668  16.153  12.207  13.957
77725NA+    NA+41669  31.566   6.681  10.580
77726NA+    NA+41670  27.541   5.833   3.252
77727NA+    NA+41671  14.193  20.089  10.552
77728NA+    NA+41672  35.882  13.633   1.346
77729NA+    NA+41673   6.765  15.211  13.415
77730NA+    NA+41674  30.521  22.578  14.014
77731NA+    NA+41675  34.571  22.607   3.634
77732NA+    NA+41676  41.355  12.612  14.957
77733NA+    NA+41677  14.153  13.346   3.689
77734NA+    NA+41678  26.521  21.534  10.929
77735NA+    NA+41679   5.734  34.877  11.403
77736NA+    NA+41680  40.960   6.191   1.892
77737NA+    NA+41681  10.191  37.519  14.016
77738NA+    NA+41682  39.872   8.775  12.846
77739NA+    NA+41683  13.819  11.192  10.497
77740NA+    NA+41684  19.177  23.145  11.893
77741NA+    NA+41685   0.892  22.501  11.125
77742NA+    NA+41686  32.615  44.008   0.415
77743NA+    NA+41687   2.378  13.606   2.748
77744NA+    NA+41688  41.906   2.756   4.766
77745NA+    NA+41689   0.274  37.365  10.472
77746NA+    NA+41690  18.780  44.849   2.762
77747NA+    NA+41691  11.813   6.917   1.890
77748NA+    NA+41692  18.774  22.230   2.198
77749NA+    NA+41693  25.490  11.714   1.320
77750NA+    NA+41694  22.706  16.660   4.117
77751NA+    NA+41695  34.003   2.472  13.936
77752NA+    NA+41696  34.058  13.313  11.933
77753NA+    NA+41697  41.302  24.677   3.868
77754NA+    NA+41698  27.972  35.990  12.481
77755NA+    NA+41699  12.699   9.770  13.370
77756NA+    NA+41700  25.670  10.839  12.047
77757NA+    NA+41701  35.561  39.985  12.369
77758NA+    NA+41702  17.069  39.456  13.866
77759NA+    NA+41703  15.703  11.721   0.833
77760NA+    NA+41704  37.384   1.770   2.735
77761NA+    NA+41705  31.408  24.579   4.317
77762NA+    NA+41706  18.267  16.725  13.477
77763NA+    NA+41707  35.556  41.994  14.985
77764NA+    NA+41708  15.295  34.022   3.312
77765NA+    NA+41709  13.231  19.200  14.857
77766NA+    NA+41710  37.501  39.902   2.257
77767NA+    NA+41711  13.702   2.281   1.802
77768NA+    NA+41712  30.478  18.669   2.372
77769NA+    NA+41713  27.645  35.923  12.466
77770NA+    NA+41714  39.338   4.349  13.319
77771NA+    NA+41715   6.381  36.055  13.058
77772NA+    NA+41716  19.723   4.339   0.753
77773NA+    NA+41717  15.321  12.356  12.947
77774NA+    NA+41718  21.138  26.643  12.367
77775NA+    NA+41719  23.671   4.431  12.051
77776NA+    NA+41720  14.128  10.727   2.318
77777NA+    NA+41721  20.069  33.516  13.510
77778NA+    NA+41722  26.462  31.543   1.901
77779NA+    NA+41723   6.405  20.241  13.922
77780NA+    NA+41724  13.260   6.743  13.916
77781NA+    NA+41725  11.644   0.437   2.395
77782NA+    NA+41726  27.175  19.165  10.463
77783NA+    NA+41727  29.107  21.677   0.761
77784NA+    NA+41728  15.211  21.171  12.864
77785NA+    NA+41729  14.829   5.921  12.893
77786NA+    NA+41730  27.658  35.598   1.244
77787NA+    NA+41731  36.864  23.165  11.063
77788NA+    NA+41732  32.531  16.729   2.804
77789NA+    NA+41733  44.377  13.787   2.703
77790NA+    NA+41734  28.642   0.853   2.390
77791NA+    NA+41735  35.068   1.959   4.137
77792NA+    NA+41736  14.324   1.378   0.442
77793NA+    NA+41737  25.582  39.980  14.800
77794NA+    NA+41738  37.053   1.458   0.382
77795NA+    NA+41739  41.853  36.576  14.818
77796NA+    NA+41740   5.246  44.356   0.910
77797NA+    NA+41741  14.295  16.657  10.440
77798NA+    NA+41742   1.373  33.979   0.339
77799NA+    NA+41743   9.342   1.883  10.431
77800NA+    NA+41744  42.962  37.947   1.436
77801NA+    NA+41745  40.308  37.960  11.942
77802NA+    NA+41746   3.246  30.937   5.127
77803NA+    NA+41747  11.824   6.403  11.899
77804NA+    NA+41748  13.782  42.935  12.451
77805NA+    NA+41749  44.474  10.245  10.919
77806NA+    NA+41750  32.055  14.750  11.386
77807NA+    NA+41751   5.323   0.279  13.921
77808NA+    NA+41752  25.712  43.447  13.961
77809NA+    NA+41753  40.962  26.045   1.906
77810NA+    NA+41754  10.344   6.316   4.775
77811NA+    NA+41755  32.578  17.132  14.293
77812NA+    NA+41756   3.758  37.492   2.183
77813NA+    NA+41757  44.402   1.419  11.583
77814NA+    NA+41758   6.783  15.778   2.781
77815NA+    NA+41759  23.492  29.454   1.335
77816NA+    NA+41760  42.827  34.014   0.882
77817NA+    NA+41761   0.964  24.165   0.877
77818NA+    NA+41762  10.161  16.123  11.884
77819NA+    NA+41763  37.479  38.482  14.789
77820NA+    NA+41764  17.726  37.930  13.034
77821NA+    NA+41765  26.643  27.136  12.946
77822NA+    NA+41766   1.286   9.334   3.381
77823NA+    NA+41767  44.491  36.925  13.519
77824NA+    NA+41768  21.512  28.570  13.033
77825NA+    NA+41769  29.514  35.439  11.516
77826NA+    NA+41770  36.926   7.381  10.644
77827NA+    NA+41771  10.670   1.315  12.979
77828NA+    NA+41772  32.525  16.750   4.714
77829NA+    NA+41773   8.848  39.427  11.988
77830NA+    NA+41774   2.769  14.177  13.893
77831NA+    NA+41775   7.192  43.935   0.835
77832NA+    NA+41776   3.712  28.041  14.952
77833NA+    NA+41777   5.773  16.087  12.564
77834NA+    NA+41778  17.564  10.786  12.027
77835NA+    NA+41779  31.500  10.320  12.999
77836NA+    NA+41780  25.985  21.700   1.439
77837NA+    NA+41781  11.703  19.540  10.563
77838NA+    NA+41782   0.285   7.239   0.479
77839NA+    NA+41783   5.348  32.436   1.333
77840NA+    NA+41784  40.382   0.355  11.959
77841NA+    NA+41785  17.782   4.384  14.903
77842NA+    NA+41786   1.251  32.501   3.772
77843NA+    NA+41787  27.629  37.934  14.000
77844NA+    NA+41788   0.914  18.271   3.248
77845NA+    NA+41789  18.749   9.348  14.326
77846NA+    NA+41790  29.014  36.036  13.454
77847NA+    NA+41791  32.953   8.374  14.281
77848NA+    NA+41792  28.445  11.698  10.570
77849NA+    NA+41793  42.482  22.555  12.462
77850NA+    NA+41794  15.226  23.233  13.890
77851NA+    NA+41795  23.117  33.054   2.361
77852NA+    NA+41796  15.219  40.001  10.612
77853NA+    NA+41797  38.515  27.178   0.822
77854NA+    NA+41798  20.724  10.248  13.795
77855NA+    NA+41799   8.346  42.995  14.424
77856NA+    NA+41800  22.534  18.170  12.485
77857NA+    NA+41801  14.218   6.745  10.529
77858NA+    NA+41802  42.827  26.107  12.506
77859NA+    NA+41803  36.017  42.375  13.494
77860NA+    NA+41804  15.723  31.513  13.052
77861NA+    NA+41805   4.825  17.162   4.287
77862NA+    NA+41806   9.172  11.356  11.461
77863NA+    NA+41807   3.224   9.259  11.986
77864NA+    NA+41808  31.528  26.462   3.692
77865NA+    NA+41809  35.482  19.152   3.345
77866NA+    NA+41810  28.601  12.674  13.878
77867NA+    NA+41811  27.092  11.809  12.545
77868NA+    NA+41812   3.294  21.065  11.970
77869NA+    NA+41813  20.210   5.727   0.264
77870NA+    NA+41814  27.684  15.176  11.580
77871NA+    NA+41815  20.727   5.325   3.264
77872NA+    NA+41816  14.818   4.723  13.908
77873NA+    NA+41817  43.851  31.022  12.072
77874NA+    NA+41818  25.649  11.227   3.725
77875NA+    NA+41819  34.112  29.014   5.116
77876NA+    NA+41820   0.972  13.150  12.862
77877NA+    NA+41821  27.478  21.262   3.638
77878NA+    NA+41822  17.771  25.196   0.961
77879NA+    NA+41823  44.815  22.731  12.000
77880NA+    NA+41824  23.172   6.306  10.959
77881NA+    NA+41825  41.892  12.267  12.410
77882NA+    NA+41826   5.244  11.724  14.902
77883NA+    NA+41827  27.072  28.604  10.982
77884NA+    NA+41828  11.130  20.142   1.898
77885NA+    NA+41829  40.519  22.099   0.914
77886NA+    NA+41830  43.011  10.177  14.025
77887NA+    NA+41831  13.333  15.633   3.704
77888NA+    NA+41832   2.370  26.186  14.786
77889NA+    NA+41833   6.793  25.548  11.473
77890NA+    NA+41834  33.610  40.039  11.984
77891NA+    NA+41835  40.891  16.121   4.627
77892NA+    NA+41836  41.304  30.495  13.499
77893NA+    NA+41837  33.488  36.025   2.376
77894NA+    NA+41838  33.558  44.895   3.265
77895NA+    NA+41839  17.092   1.377  10.911
77896NA+    NA+41840   8.289  18.248   2.258
77897NA+    NA+41841  14.323  33.972  14.765
77898NA+    NA+41842  11.224  11.759   3.679
77899NA+    NA+41843  42.411  36.475  11.517
77900NA+    NA+41844  34.038  19.627  14.285
77901NA+    NA+41845   9.677   1.360  12.981
77902NA+    NA+41846   7.678  28.604  11.559
77903NA+    NA+41847  41.491  12.269   0.455
77904NA+    NA+41848   9.386  28.670  13.354
77905NA+    NA+41849  19.582  35.953  14.445
77906NA+    NA+41850  32.412  14.232   3.340
77907NA+    NA+41851  39.864  23.001   2.734
77908NA+    NA+41852  23.617  43.362  12.063
77909NA+    NA+41853  25.112  27.500  11.027
77910NA+    NA+41854  41.318   5.770  12.963
77911NA+    NA+41855  34.434   1.322  14.501
77912NA+    NA+41856  26.691  12.807   2.273
77913NA+    NA+41857  15.609   2.250   4.242
77914NA+    NA+41858  23.705  13.791  14.293
77915NA+    NA+41859  23.047   7.690  13.509
77916NA+    NA+41860  20.642  34.048  10.419
77917NA+    NA+41861  42.473  26.051   4.815
77918NA+    NA+41862   2.256  22.722   1.773
77919NA+    NA+41863  30.950   8.294   2.806
77920NA+    NA+41864   9.298  27.083  12.465
77921NA+    NA+41865  24.174   0.474  12.528
77922NA+    NA+41866  40.343  37.006  10.896
77923NA+    NA+41867  13.824  14.638  10.440
77924NA+    NA+41868  15.141  43.274  14.027
77925NA+    NA+41869   8.363  29.954  13.952
77926NA+    NA+41870  25.528  41.922   3.283
77927NA+    NA+41871  13.139   4.263  12.081
77928NA+    NA+41872   3.367   8.877  13.340
77929NA+    NA+41873  13.127  10.250  14.798
77930NA+    NA+41874   3.947  15.310  12.349
77931NA+    NA+41875  19.542  41.979  10.909
77932NA+    NA+41876   8.875  21.704  10.577
77933NA+    NA+41877  10.307   8.278   1.919
77934NA+    NA+41878  31.434   4.343  14.923
77935NA+    NA+41879  20.552  42.426  11.495
77936NA+    NA+41880   0.836   3.308   0.757
77937NA+    NA+41881  40.821  27.988  12.351
77938NA+    NA+41882  26.158  33.492   1.274
77939NA+    NA+41883  16.589  35.891  10.966
77940NA+    NA+41884  30.936   2.781   2.416
77941NA+    NA+41885  12.751   5.771   2.772
77942NA+    NA+41886  10.789  37.943  13.055
77943NA+    NA+41887  27.649  36.444  13.357
77944NA+    NA+41888  11.809  10.244  13.448
77945NA+    NA+41889  37.564   9.876   2.371
77946NA+    NA+41890  39.967  33.405  13.890
77947NA+    NA+41891  25.996   9.380   3.252
77948NA+    NA+41892  23.712   5.842  12.932
77949NA+    NA+41893  17.209  19.155  12.003
77950NA+    NA+41894  21.044  18.653  12.511
77951NA+    NA+41895   7.776   4.448   2.274
77952NA+    NA+41896  22.171  28.174   4.769
77953NA+    NA+41897  18.669  18.111   3.638
77954NA+    NA+41898  18.079  20.246  14.278
77955NA+    NA+41899   5.208  10.694  13.456
77956NA+    NA+41900  38.867   7.358   5.239
77957NA+    NA+41901  13.819   9.285  13.018
77958NA+    NA+41902  12.750  23.545  11.413
77959NA+    NA+41903  41.868  26.026   2.760
77960NA+    NA+41904   8.231  14.603   3.242
77961NA+    NA+41905  14.295  12.749  12.977
77962NA+    NA+41906  42.419   1.299  14.878
77963NA+    NA+41907  35.377  18.618  11.020
77964NA+    NA+41908  22.677  39.042  14.759
77965NA+    NA+41909  21.601  34.006   0.363
77966NA+    NA+41910   6.259  42.480   4.805
77967NA+    NA+41911  36.974   7.250   3.700
77968NA+    NA+41912   1.789  37.038  13.034
77969NA+    NA+41913  23.542  36.959   4.736
77970NA+    NA+41914  26.579  10.181  13.963
77971NA+    NA+41915  37.980  38.411   3.678
77972NA+    NA+41916  13.280   6.209  14.487
77973NA+    NA+41917  43.473  39.976   2.712
77974NA+    NA+41918  29.652  26.684  12.050
77975NA+    NA+41919  19.227  41.529   2.771
77976NA+    NA+41920  18.171   5.220  14.909
77977NA+    NA+41921  19.131  41.310  10.991
77978NA+    NA+41922  19.162   8.703  12.447
77979NA+    NA+41923  42.385  37.489   3.645
77980NA+    NA+41924  21.714  43.336  12.894
77981NA+    NA+41925  33.956   1.298  14.932
77982NA+    NA+41926  25.665  22.663   0.479
77983NA+    NA+41927  11.216  12.709  11.447
77984NA+    NA+41928  23.681   4.212  11.579
77985NA+    NA+41929  21.037  30.532  13.034
77986NA+    NA+41930  27.610  11.158  13.428
77987NA+    NA+41931  43.954   8.670   4.154
77988NA+    NA+41932  23.695   9.655   1.792
77989NA+    NA+41933  33.623  35.040  10.543
77990NA+    NA+41934  32.511   6.894  10.903
77991NA+    NA+41935  17.214  19.092  12.837
77992NA+    NA+41936  39.048  36.853   1.878
77993NA+    NA+41937  27.161  20.574  12.898
77994NA+    NA+41938  32.555  37.343   2.704
77995NA+    NA+41939  41.505  17.751   4.140
77996NA+    NA+41940  32.539   9.354   0.285
77997NA+    NA+41941  22.126  42.915   3.163
77998NA+    NA+41942  44.816  44.995   0.905
77999NA+    NA+41943   8.167  19.055  11.470
78000NA+    NA+41944  16.175  14.803   3.827
78001NA+    NA+41945  43.939  13.324   1.709
78002NA+    NA+41946  20.641  39.970  12.400
78003NA+    NA+41947  19.110   6.898  12.528
78004NA+    NA+41948  10.844  41.824   4.131
78005NA+    NA+41949  18.148  15.202   0.768
78006NA+    NA+41950  31.566  38.919  12.529
78007NA+    NA+41951  42.000  39.409   3.829
78008NA+    NA+41952   3.358  28.011  11.441
78009NA+    NA+41953  43.895  27.038  10.577
78010NA+    NA+41954  38.524  35.941   2.747
78011NA+    NA+41955  12.644  21.582   4.756
78012NA+    NA+41956  39.556  36.535  12.858
78013NA+    NA+41957   4.278   8.818  14.786
78014NA+    NA+41958  19.280  36.993  12.504
78015NA+    NA+41959   8.725  16.088   0.483
78016NA+    NA+41960   1.473  19.671  11.587
78017NA+    NA+41961   1.429   8.830  13.398
78018NA+    NA+41962  21.168   5.894  10.095
78019NA+    NA+41963  40.303  38.514  11.585
78020NA+    NA+41964   6.895  23.044   0.389
78021NA+    NA+41965  12.204  18.287   3.785
78022NA+    NA+41966  41.434  16.648   3.185
78023NA+    NA+41967  38.030  17.766   2.846
78024NA+    NA+41968  44.932  24.178  11.923
78025NA+    NA+41969  15.287  13.275  10.890
78026NA+    NA+41970  18.640  21.161   9.497
78027NA+    NA+41971  42.992   1.325   4.283
78028NA+    NA+41972  12.732  13.159  12.927
78029NA+    NA+41973  29.983  36.091   0.354
78030NA+    NA+41974  28.030   2.801  13.956
78031NA+    NA+41975  10.797  13.223   2.265
78032NA+    NA+41976  23.500  32.091   0.423
78033NA+    NA+41977  34.557  15.148   3.363
78034NA+    NA+41978  17.658   7.250   2.380
78035NA+    NA+41979  33.571  16.279  14.793
78036NA+    NA+41980  22.014  11.714   1.222
78037NA+    NA+41981  20.649  42.348   1.305
78038NA+    NA+41982  16.215  10.712  14.388
78039NA+    NA+41983  27.453  29.112   4.280
78040NA+    NA+41984  14.272   6.278  12.501
78041NA+    NA+41985  43.802  42.966   4.725
78042NA+    NA+41986  40.980  25.660   1.835
78043NA+    NA+41987   9.794  12.789   2.841
78044NA+    NA+41988  23.551  34.908   1.377
78045NA+    NA+41989  25.076  31.596   0.334
78046NA+    NA+41990  38.502  26.080  14.828
78047NA+    NA+41991  12.335   2.313   3.172
78048NA+    NA+41992  30.545  17.146  13.908
78049NA+    NA+41993  21.600  16.244  10.557
78050NA+    NA+41994   2.773  23.066  14.860
78051NA+    NA+41995  32.132  13.281   2.695
78052NA+    NA+41996  25.107  29.428   3.214
78053NA+    NA+41997   7.189   7.697   3.193
78054NA+    NA+41998  25.000  39.845  14.389
78055NA+    NA+41999  27.483   1.739   4.199
78056NA+    NA+42000   3.815  30.451   4.309
78057NA+    NA+42001  12.176  13.711  10.457
78058NA+    NA+42002  39.405   9.656  14.337
78059NA+    NA+42003  13.146  40.979  13.926
78060NA+    NA+42004  29.427   2.409  12.823
78061NA+    NA+42005  28.035   7.826  10.511
78062NA+    NA+42006  39.330   3.427   3.285
78063NA+    NA+42007  11.127  40.921   4.730
78064NA+    NA+42008  22.040  28.941  10.547
78065NA+    NA+42009  37.962  24.183  14.801
78066NA+    NA+42010   8.206  38.402  10.900
78067NA+    NA+42011  27.456  15.615  11.394
78068NA+    NA+42012   7.258  42.495   3.689
78069NA+    NA+42013   9.273  28.180  10.506
78070NA+    NA+42014   7.201  30.521  14.377
78071NA+    NA+42015  37.497   0.816   2.194
78072NA+    NA+42016  26.181  14.202  13.316
78073NA+    NA+42017  14.818   6.306   4.262
78074NA+    NA+42018  16.277   6.367   1.413
78075NA+    NA+42019  14.169  34.468  12.055
78076NA+    NA+42020  23.236  35.863  10.990
78077NA+    NA+42021   1.752  22.700  11.079
78078NA+    NA+42022  39.480  41.321  11.464
78079NA+    NA+42023  25.573   1.831   0.909
78080NA+    NA+42024  29.118  25.003   0.802
78081NA+    NA+42025  21.222   7.727  13.490
78082NA+    NA+42026  10.384  42.454  11.109
78083NA+    NA+42027  21.129   3.820   0.765
78084NA+    NA+42028   3.939  16.810   1.336
78085NA+    NA+42029   4.925   0.307   4.305
78086NA+    NA+42030  37.451  43.782  11.074
78087NA+    NA+42031  29.102  25.039  14.300
78088NA+    NA+42032  31.645   7.299   1.793
78089NA+    NA+42033  33.557  18.219  12.092
78090NA+    NA+42034   1.958  18.569   4.322
78091NA+    NA+42035  24.989  25.083   1.351
78092NA+    NA+42036   1.303  43.370   1.301
78093NA+    NA+42037   5.756  39.431   2.265
78094NA+    NA+42038   7.381  38.057  11.951
78095NA+    NA+42039  38.356  21.223  11.126
78096NA+    NA+42040  43.913  43.987   2.838
78097NA+    NA+42041  39.559  40.800   2.317
78098NA+    NA+42042  17.138   5.228  13.479
78099NA+    NA+42043   1.331  40.309   4.202
78100NA+    NA+42044   6.746  29.130  10.628
78101NA+    NA+42045  38.877  42.020   0.272
78102NA+    NA+42046  25.021   8.813  11.442
78103NA+    NA+42047   9.170  19.113  11.434
78104NA+    NA+42048  39.427  31.961  10.941
78105NA+    NA+42049  36.398  33.428  12.472
78106NA+    NA+42050  41.502  42.839  14.396
78107NA+    NA+42051  44.294   1.845   1.302
78108NA+    NA+42052  19.558   2.962   2.345
78109NA+    NA+42053  15.232  37.944   3.852
78110NA+    NA+42054   6.918  22.558  11.581
78111NA+    NA+42055  24.534  20.080  12.010
78112NA+    NA+42056   1.399  22.668  11.515
78113NA+    NA+42057   3.243  10.216   0.308
78114NA+    NA+42058  11.241  26.468   3.182
78115NA+    NA+42059  32.581  23.596   4.165
78116NA+    NA+42060  15.117  33.477   3.712
78117NA+    NA+42061  40.412   5.793   1.435
78118NA+    NA+42062  16.596  43.355   0.379
78119NA+    NA+42063   0.474   9.725   3.332
78120NA+    NA+42064  24.983   0.757  10.552
78121NA+    NA+42065  34.433  22.565  12.417
78122NA+    NA+42066  24.996  26.499  10.918
78123NA+    NA+42067  16.728  28.978  14.951
78124NA+    NA+42068   8.692  44.831   1.356
78125NA+    NA+42069  37.472  23.122  10.417
78126NA+    NA+42070   7.275  34.498   4.655
78127NA+    NA+42071  10.844  27.595   0.904
78128NA+    NA+42072  21.229  25.038  13.980
78129NA+    NA+42073   9.856  37.921  11.484
78130NA+    NA+42074  30.921  20.759   1.901
78131NA+    NA+42075   5.904   4.279  10.615
78132NA+    NA+42076  41.850  27.598   0.917
78133NA+    NA+42077  44.986  41.416   0.902
78134NA+    NA+42078  33.406  42.488  13.412
78135NA+    NA+42079  24.582  17.602   0.426
78136NA+    NA+42080  18.636  21.021  14.494
78137NA+    NA+42081  22.659  26.516  13.358
78138NA+    NA+42082  10.337  42.520  13.382
78139NA+    NA+42083  26.986  27.494  10.492
78140NA+    NA+42084  13.675  28.085   3.649
78141NA+    NA+42085  37.490  15.614   3.375
78142NA+    NA+42086   2.440   4.819  13.450
78143NA+    NA+42087   6.339  40.516  14.796
78144NA+    NA+42088  43.291  28.584   0.276
78145NA+    NA+42089   7.258  31.454  14.489
78146NA+    NA+42090   8.692  41.868  13.846
78147NA+    NA+42091  14.759  40.389   5.131
78148NA+    NA+42092   4.227  30.602  12.958
78149NA+    NA+42093  38.380  11.210   0.825
78150NA+    NA+42094  27.106  41.445   2.282
78151NA+    NA+42095  16.583   8.895   1.298
78152NA+    NA+42096  23.179  19.727  13.818
78153NA+    NA+42097  22.514  36.447  11.410
78154NA+    NA+42098  15.124  35.402   2.805
78155NA+    NA+42099  24.149  30.508   0.814
78156NA+    NA+42100  32.107  40.934  11.964
78157NA+    NA+42101  34.544  43.009   2.300
78158NA+    NA+42102  23.242  29.949  11.014
78159NA+    NA+42103   7.881  22.160  13.315
78160NA+    NA+42104  13.177  38.367  11.477
78161NA+    NA+42105  37.482   0.940  12.490
78162NA+    NA+42106  40.407  42.320   4.162
78163NA+    NA+42107  23.656   6.875   2.684
78164NA+    NA+42108  36.496  31.463   1.723
78165NA+    NA+42109  44.387  42.961   4.656
78166NA+    NA+42110  30.447  35.941  12.575
78167NA+    NA+42111  26.625  36.456   3.785
78168NA+    NA+42112  29.569  40.004   2.676
78169NA+    NA+42113   1.380  25.578   1.769
78170NA+    NA+42114   2.829   0.420  12.444
78171NA+    NA+42115   5.195   8.215  11.568
78172NA+    NA+42116  44.412  42.023  13.955
78173NA+    NA+42117  12.750  36.592  13.413
78174NA+    NA+42118  16.672  40.315  11.431
78175NA+    NA+42119  41.512  30.449   1.768
78176NA+    NA+42120  33.593  35.370   3.248
78177NA+    NA+42121  12.308   5.898   2.816
78178NA+    NA+42122  21.057  10.362   2.683
78179NA+    NA+42123  16.704  34.557  12.895
78180NA+    NA+42124   1.945  42.841  14.394
78181NA+    NA+42125  28.574  16.312   9.589
78182NA+    NA+42126  10.705  35.601   2.380
78183NA+    NA+42127  21.086  20.649   1.810
78184NA+    NA+42128  34.118  35.908  11.019
78185NA+    NA+42129  25.028  20.264   5.199
78186NA+    NA+42130  32.998  28.599  14.896
78187NA+    NA+42131  17.062  19.590  12.837
78188NA+    NA+42132  20.166  13.658   0.837
78189NA+    NA+42133  33.485   0.744  14.856
78190NA+    NA+42134  25.501  20.180   0.809
78191NA+    NA+42135   2.741  14.245  12.921
78192NA+    NA+42136   9.345  18.617  11.584
78193NA+    NA+42137  25.481   7.293   0.745
78194NA+    NA+42138  36.519  44.319  13.347
78195NA+    NA+42139  23.051  40.815   1.706
78196NA+    NA+42140  23.085  30.598   3.336
78197NA+    NA+42141  12.747  14.798   0.766
78198NA+    NA+42142  12.183  25.059   0.846
78199NA+    NA+42143  30.596  28.111  12.372
78200NA+    NA+42144  27.940   0.306   3.210
78201NA+    NA+42145   1.792  26.567   3.224
78202NA+    NA+42146  31.995  37.448  11.571
78203NA+    NA+42147  25.031   3.726   0.866
78204NA+    NA+42148  19.154  11.159   2.815
78205NA+    NA+42149  11.768  27.080   2.254
78206NA+    NA+42150  21.241   4.759  14.993
78207NA+    NA+42151   0.811  35.967   1.220
78208NA+    NA+42152  16.767  10.350   0.820
78209NA+    NA+42153   5.882  11.715   4.759
78210NA+    NA+42154  33.506  41.917   1.935
78211NA+    NA+42155  33.919  28.567  12.384
78212NA+    NA+42156  34.528  18.744  11.032
78213NA+    NA+42157  34.962  25.038  11.117
78214NA+    NA+42158   6.300  31.628  11.943
78215NA+    NA+42159  36.953  27.180  10.627
78216NA+    NA+42160  23.167   7.221  14.972
78217NA+    NA+42161  24.581  36.435   0.459
78218NA+    NA+42162   7.321  32.517  13.060
78219NA+    NA+42163  27.660  18.573  10.590
78220CL-    CL-42164   6.806  44.859   1.318
78221CL-    CL-42165   9.206  36.934   2.869
78222CL-    CL-42166   1.334  13.120  12.071
78223CL-    CL-42167  33.903  35.937   0.864
78224CL-    CL-42168   1.243  29.494  14.293
78225CL-    CL-42169  18.051  34.588  11.375
78226CL-    CL-42170   5.922  28.109  13.054
78227CL-    CL-42171  12.310  16.674   4.781
78228CL-    CL-42172   3.939   4.875  14.904
78229CL-    CL-42173  38.980  14.255  10.023
78230CL-    CL-42174   9.360  34.393   4.194
78231CL-    CL-42175  23.028   0.436   0.246
78232CL-    CL-42176  42.485  28.480  14.465
78233CL-    CL-42177  44.841   3.229  13.957
78234CL-    CL-42178  35.480  16.225  11.861
78235CL-    CL-42179  39.314  36.527  12.467
78236CL-    CL-42180   2.908   6.869  11.440
78237CL-    CL-42181   6.885  22.584   3.662
78238CL-    CL-42182  15.266  34.522  10.541
78239CL-    CL-42183  25.607   6.843  10.912
78240CL-    CL-42184  25.049  11.301   4.795
78241CL-    CL-42185  19.205   0.301   1.421
78242CL-    CL-42186   5.780  10.647   4.620
78243CL-    CL-42187  37.424  25.015  12.908
78244CL-    CL-42188   1.807  27.196  14.337
78245CL-    CL-42189  35.958  31.046   0.260
78246CL-    CL-42190  38.338  27.578  11.609
78247CL-    CL-42191  10.201  37.878  13.888
78248CL-    CL-42192  30.476  26.120  10.974
78249CL-    CL-42193  30.028  38.408  10.419
78250CL-    CL-42194  16.133  37.993  11.982
78251CL-    CL-42195   1.259  28.673  11.564
78252CL-    CL-42196   8.882  41.292   2.254
78253CL-    CL-42197  40.837  17.072  13.373
78254CL-    CL-42198  44.885  12.223   0.307
78255CL-    CL-42199   9.271  34.901  10.429
78256CL-    CL-42200  36.937  41.439   2.267
78257CL-    CL-42201   0.314  21.742  12.976
78258CL-    CL-42202  12.161  27.049   2.334
78259CL-    CL-42203  34.421  18.066  11.388
78260CL-    CL-42204  18.644  20.722   2.319
78261CL-    CL-42205  35.486  26.539  11.070
78262CL-    CL-42206  44.479  29.622  13.876
78263CL-    CL-42207   1.791   0.911   4.281
78264CL-    CL-42208   3.461  36.039  13.355
78265CL-    CL-42209  40.833  13.311   1.817
78266CL-    CL-42210  33.886  21.066   4.316
78267CL-    CL-42211  39.506  30.587   3.330
78268CL-    CL-42212  28.131   7.271  10.629
78269CL-    CL-42213  24.188  31.057  11.486
78270CL-    CL-42214  10.795  25.142  14.833
78271CL-    CL-42215  39.993  39.895  10.564
78272CL-    CL-42216  35.973  29.140  10.638
78273CL-    CL-42217   2.468   2.817  10.516
78274CL-    CL-42218  30.938  43.852   2.804
78275CL-    CL-42219  18.214  22.637  13.404
78276CL-    CL-42220  21.531  43.765  14.296
78277CL-    CL-42221  35.570  22.639   3.691
78278CL-    CL-42222   4.259  24.141   0.904
78279CL-    CL-42223  43.308  12.831   3.293
78280CL-    CL-42224  37.575  36.460  12.051
78281CL-    CL-42225  25.608   0.777   3.632
78282CL-    CL-42226  39.914  28.938   2.362
78283CL-    CL-42227  35.377  14.187   1.819
78284CL-    CL-42228   9.680  11.327  14.300
78285CL-    CL-42229  26.194  12.299   4.235
78286CL-    CL-42230   3.919  11.631   2.268
78287CL-    CL-42231  34.069  22.056  10.551
78288CL-    CL-42232   6.875  20.594   3.712
78289CL-    CL-42233  26.605  37.876   3.733
78290CL-    CL-42234  30.084  19.191   3.360
78291CL-    CL-42235  41.803  36.544  10.619
78292CL-    CL-42236  23.518  33.074  11.425
78293CL-    CL-42237  17.223   6.777   4.779
78294CL-    CL-42238  23.672  37.887   4.685
78295CL-    CL-42239  34.398  16.117  12.083
78296CL-    CL-42240  43.947  42.297   2.237
78297CL-    CL-42241   6.377  18.713   0.442
78298CL-    CL-42242   6.259  17.668   0.378
78299CL-    CL-42243  36.581  18.245   4.629
78300CL-    CL-42244  24.496  26.182   3.313
78301CL-    CL-42245  33.606   3.786   1.789
78302CL-    CL-42246   3.767  32.434   2.257
78303CL-    CL-42247  24.083  30.976  14.958
78304CL-    CL-42248   5.841  40.846  10.612
78305CL-    CL-42249  44.759   1.405  10.544
78306CL-    CL-42250   5.883  11.643  10.889
78307CL-    CL-42251  13.732  24.167  12.490
78308CL-    CL-42252   7.702  18.776  12.540
78309CL-    CL-42253  40.440  37.841  12.450
78310CL-    CL-42254  41.525   2.344  14.847
78311CL-    CL-42255  11.717  23.617  12.519
78312CL-    CL-42256  16.153  43.375  14.350
78313CL-    CL-42257  18.672  20.721  13.838
78314CL-    CL-42258  35.064   4.754   0.908
78315CL-    CL-42259  17.789  24.528  13.871
78316CL-    CL-42260  39.987  18.101  14.344
78317CL-    CL-42261  26.174   3.908  14.850
78318CL-    CL-42262  37.966  29.580  10.910
78319CL-    CL-42263  30.452   7.195   2.673
78320CL-    CL-42264  28.470  36.054  11.024
78321CL-    CL-42265  42.855   9.310  14.348
78322CL-    CL-42266   9.849  44.366   0.810
78323CL-    CL-42267   4.706  18.754   1.347
78324CL-    CL-42268  24.006  30.607  12.982
78325CL-    CL-42269  41.863  37.543  11.505
78326CL-    CL-42270  10.233   2.808  12.825
78327CL-    CL-42271  37.512   2.831   1.873
78328CL-    CL-42272  10.298  25.126   1.397
78329CL-    CL-42273   4.219  40.966  12.968
78330CL-    CL-42274  40.505  40.828  11.564
78331CL-    CL-42275   5.740  10.250  11.015
78332CL-    CL-42276  18.072  27.606   0.310
78333CL-    CL-42277  40.906   9.784  14.921
78334CL-    CL-42278  19.709   4.722   2.869
78335CL-    CL-42279  27.476  37.485  10.494
78336CL-    CL-42280  20.085  36.091   1.781
78337CL-    CL-42281  14.756   6.379  11.110
78338CL-    CL-42282  43.857  18.140  11.088
78339CL-    CL-42283  14.141  14.694  14.370
78340CL-    CL-42284   6.875  32.478   2.768
78341CL-    CL-42285  20.723  21.595   1.257
78342CL-    CL-42286   5.289   5.334   2.873
78343CL-    CL-42287  29.127   3.279   0.785
78344CL-    CL-42288   2.432  16.796  14.282
78345CL-    CL-42289   2.402  41.520   4.665
78346CL-    CL-42290  18.580   1.467  13.018
78347CL-    CL-42291  31.907  23.096  11.451
78348CL-    CL-42292  43.496  22.073  14.879
78349CL-    CL-42293  23.661  29.429  14.761
78350CL-    CL-42294  43.375  32.923   4.783
78351CL-    CL-42295  16.213  42.467  14.287
78352CL-    CL-42296  18.136   6.757  10.033
78353CL-    CL-42297  43.787  23.661   3.223
78354CL-    CL-42298  36.553   0.272  12.532
78355CL-    CL-42299  10.832   7.219  12.022
78356CL-    CL-42300  19.660   1.249   4.644
78357CL-    CL-42301  41.465  10.650   3.237
78358CL-    CL-42302  31.088  41.984  14.339
78359CL-    CL-42303   8.763  26.192  14.458
78360CL-    CL-42304  39.338  14.132  11.507
78361CL-    CL-42305  29.088  30.976  13.860
78362CL-    CL-42306  13.163   2.252  10.472
78363CL-    CL-42307  26.983  34.099   1.815
78364CL-    CL-42308  19.642   0.272  10.957
78365CL-    CL-42309   1.941   3.321  12.359
78366CL-    CL-42310  31.617  41.509  11.006
78367CL-    CL-42311   6.380  40.484   3.246
78368CL-    CL-42312  23.225  29.482   0.773
78369CL-    CL-42313  41.820  27.544   2.306
78370CL-    CL-42314  20.645  28.064  10.525
78371CL-    CL-42315  20.701  40.830  10.456
78372CL-    CL-42316  19.102  24.682  14.868
78373CL-    CL-42317  43.271  43.388   4.117
78374CL-    CL-42318  26.989  38.427  12.018
78375CL-    CL-42319  25.653  40.980  11.072
78376CL-    CL-42320  17.596  38.555  14.285
78377CL-    CL-42321  44.433  40.348   0.801
78378CL-    CL-42322   6.385   3.820   1.912
78379CL-    CL-42323   6.798  28.091   3.631
78380CL-    CL-42324  33.115  17.171  12.929
78381CL-    CL-42325  37.032  21.248   4.167
78382CL-    CL-42326  31.127   1.264  14.370
78383CL-    CL-42327  21.566  30.559   5.302
78384CL-    CL-42328  17.647  15.645  13.051
78385CL-    CL-42329  28.113  39.042  11.036
78386CL-    CL-42330  16.216  42.866  14.513
78387CL-    CL-42331  23.001  20.761  11.876
78388CL-    CL-42332  19.173  21.137   3.824
78389CL-    CL-42333  28.656  23.505   4.249
78390CL-    CL-42334  33.427  27.500   2.371
78391CL-    CL-42335  31.617   9.182   0.802
78392CL-    CL-42336  34.430  35.963  13.436
78393CL-    CL-42337  26.127  34.513   0.790
78394CL-    CL-42338   7.236  23.511  13.866
78395CL-    CL-42339  17.184  19.719  10.043
78396CL-    CL-42340  44.437  21.228   1.704
78397CL-    CL-42341  16.732  22.746   1.762
78398CL-    CL-42342  36.858  41.477  10.557
78399CL-    CL-42343  29.001  31.451  14.340
78400CL-    CL-42344   5.282  36.535   1.376
78401CL-    CL-42345  33.394  39.445  13.962
78402CL-    CL-42346  28.174  28.681   1.806
78403CL-    CL-42347  21.587  39.361   1.327
78404CL-    CL-42348  18.264  21.102   1.395
78405CL-    CL-42349  31.548  21.676   0.966
78406CL-    CL-42350  19.555  26.203   4.174
78407CL-    CL-42351   0.839  25.034   2.796
78408CL-    CL-42352   5.345  44.477  14.307
78409CL-    CL-42353  26.037  14.335  14.470
78410CL-    CL-42354  19.636  25.217  12.546
78411CL-    CL-42355  16.162  17.281   2.220
78412CL-    CL-42356  13.708  17.239  10.448
78413CL-    CL-42357   3.931  13.165   0.429
78414CL-    CL-42358  38.025  28.996  14.325
78415CL-    CL-42359  22.064   9.798   1.821
78416CL-    CL-42360  14.144  32.405   2.681
78417CL-    CL-42361  37.939  44.878  11.907
78418CL-    CL-42362  37.566   2.847   4.246
78419CL-    CL-42363  39.912  15.589   4.258
78420CL-    CL-42364   2.883  20.638   1.228
78421CL-    CL-42365  17.243  31.425  14.444
78422CL-    CL-42366  38.431   5.917   3.362
78423CL-    CL-42367  39.853  22.030   3.180
78424CL-    CL-42368  13.111  43.465   3.152
78425CL-    CL-42369  41.810  26.677  13.950
78426CL-    CL-42370   9.351  15.648  14.882
78427CL-    CL-42371   1.796  34.461   2.228
78428CL-    CL-42372  27.554   6.869  12.880
78429CL-    CL-42373  10.672  25.474   1.745
78430CL-    CL-42374  36.882  26.618  10.586
78431CL-    CL-42375  30.060  27.000   0.875
78432CL-    CL-42376  28.495  22.094  12.014
78433CL-    CL-42377  30.050  42.881  12.451
78434CL-    CL-42378  21.094  24.051   4.838
78435CL-    CL-42379  14.217  20.690  14.836
78436CL-    CL-42380  42.006  22.661  10.081
78437CL-    CL-42381   9.227  10.874  10.603
78438CL-    CL-42382  14.674   5.906  12.095
78439CL-    CL-42383  18.201  29.501   3.146
78440CL-    CL-42384  27.690  15.311  14.855
78441CL-    CL-42385  38.018   5.855   2.214
78442CL-    CL-42386  10.652   7.782   0.259
78443CL-    CL-42387  16.708  15.757  14.010
78444CL-    CL-42388  41.004  10.691   2.312
78445CL-    CL-42389  27.967  23.658   1.925
78446CL-    CL-42390  39.415  11.330   3.354
78447CL-    CL-42391  30.963   3.862   0.484
78448CL-    CL-42392  33.381  36.363  10.921
78449CL-    CL-42393   6.803  18.746  13.509
78450CL-    CL-42394  43.341  16.655   0.875
78451CL-    CL-42395  20.169   4.836  10.515
78452CL-    CL-42396   0.370  27.612  14.831
78453CL-    CL-42397  31.534  14.725   2.663
78454CL-    CL-42398  27.689  29.170  11.532
78455CL-    CL-42399   4.349  39.942   1.223
78456CL-    CL-42400   9.818   0.911  14.904
78457CL-    CL-42401  16.618   4.367   3.724
78458CL-    CL-42402  43.510  32.035  14.293
78459CL-    CL-42403  35.938  27.940   3.713
78460CL-    CL-42404  43.300  32.494  12.026
78461CL-    CL-42405  33.917  10.705  13.393
78462CL-    CL-42406  30.551   7.801   0.859
78463CL-    CL-42407  18.174  28.141  12.950
78464CL-    CL-42408   3.775  22.711   0.341
78465CL-    CL-42409  22.221  30.120  11.570
78466CL-    CL-42410  44.952  15.299  14.320
78467CL-    CL-42411  19.658  16.599  12.886
78468CL-    CL-42412  10.853  42.393  10.968
78469CL-    CL-42413  24.092  20.656  12.871
78470CL-    CL-42414   4.320  11.762  13.797
78471CL-    CL-42415  18.711  23.999  13.950
78472CL-    CL-42416   2.330  26.532   3.868
78473CL-    CL-42417  18.677  34.958   2.327
78474CL-    CL-42418  18.710  37.496  11.446
78475CL-    CL-42419  31.429  12.815  11.009
78476CL-    CL-42420  41.810  14.639  11.105
78477CL-    CL-42421  24.597  34.024  12.867
78478CL-    CL-42422  26.462  29.582  11.542
78479CL-    CL-42423  43.943  21.677  14.767
78480CL-    CL-42424   6.708   4.391  14.964
78481CL-    CL-42425   5.408  27.466  14.463
78482CL-    CL-42426  38.034  44.409  12.497
78483CL-    CL-42427  31.477  41.871   5.719
78484CL-    CL-42428   8.819  14.780  11.499
78485CL-    CL-42429  29.163  31.942  10.575
78486CL-    CL-42430  41.842   3.850   4.147
78487CL-    CL-42431  25.203  10.843   0.841
78488CL-    CL-42432  41.312  13.181   1.767
78489CL-    CL-42433  32.578   0.485   4.830
78490CL-    CL-42434  15.710   3.739   2.179
78491CL-    CL-42435  37.511  11.207   4.760
78492CL-    CL-42436   8.877  33.959   1.908
78493CL-    CL-42437  23.591  27.563  11.470
78494CL-    CL-42438  15.648  28.677   3.181
78495CL-    CL-42439  43.511   3.324   2.827
78496CL-    CL-42440  33.534  21.067  10.573
78497CL-    CL-42441   6.892  34.972   0.845
78498CL-    CL-42442  37.088  16.208   1.734
78499CL-    CL-42443   5.817  20.680  14.494
78500CL-    CL-42444  16.156  37.489   5.268
78501CL-    CL-42445  17.109   6.910   0.851
78502CL-    CL-42446  43.285  12.813   0.436
78503CL-    CL-42447  34.379  31.923  11.465
78504CL-    CL-42448   0.318  38.873   2.773
78505CL-    CL-42449  23.503  40.963   3.736
78506CL-    CL-42450   4.375   3.338  14.784
78507CL-    CL-42451  35.930  25.062  13.802
78508CL-    CL-42452  34.876  43.470   0.441
78509CL-    CL-42453  12.201   1.761  11.393
78510CL-    CL-42454  38.339  10.769   2.688
78511CL-    CL-42455  20.204  44.764   4.656
78512CL-    CL-42456   2.744  11.679   4.783
78513CL-    CL-42457  39.518  32.404  11.970
78514CL-    CL-42458  36.854  23.988   4.750
78515CL-    CL-42459  14.817  42.357  14.325
78516CL-    CL-42460  22.212   1.417   3.832
78517CL-    CL-42461  37.364   2.255  11.442
78518CL-    CL-42462  20.163  30.092  13.476
78519CL-    CL-42463   1.958  19.652   1.755
78520CL-    CL-42464  27.624  41.869   4.189
78521CL-    CL-42465  43.442  38.020   0.851
78522CL-    CL-42466   1.925  36.364   4.832
78523CL-    CL-42467  30.125  23.507  13.327
78524CL-    CL-42468  30.649  20.057   0.760
78525CL-    CL-42469  29.048  23.213  12.895
78526CL-    CL-42470  28.070  23.993   1.777
78527CL-    CL-42471  30.087   2.316   2.897
78528CL-    CL-42472  31.110   9.192  14.393
78529CL-    CL-42473   9.329   8.690  10.521
78530CL-    CL-42474  32.945  43.844  13.435
78531CL-    CL-42475  32.608  14.709   4.797
78532CL-    CL-42476   8.833  24.046  14.299
78533CL-    CL-42477  25.183  10.749   4.647
78534CL-    CL-42478  35.007  27.065   3.179
78535CL-    CL-42479  33.489  18.587   1.933
78536CL-    CL-42480   6.792   7.875   0.461
78537CL-    CL-42481  41.886   3.334   3.751
78538CL-    CL-42482  21.573  22.136  14.480
78539CL-    CL-42483  29.174  19.115   3.258
78540CL-    CL-42484  44.968  26.200   1.412
78541CL-    CL-42485  21.633  40.032  10.532
78542CL-    CL-42486   1.407  13.750   3.267
78543CL-    CL-42487  19.190   2.804  14.354
78544CL-    CL-42488  36.945  17.119   3.633
78545CL-    CL-42489   3.731  19.187   2.843
78546CL-    CL-42490  11.174  43.803   2.386
78547CL-    CL-42491  29.937  23.081  10.598
78548CL-    CL-42492  43.347  43.960   4.338
78549CL-    CL-42493  12.670  42.916  12.450
78550CL-    CL-42494  41.910  25.159   2.831
78551CL-    CL-42495  13.195   8.766  10.599
78552CL-    CL-42496  13.172  11.228   3.731
78553CL-    CL-42497  31.123  10.187  13.338
78554CL-    CL-42498  41.521  32.580  14.466
78555CL-    CL-42499  21.066  44.839  12.414
78556CL-    CL-42500   5.707  34.034  14.332
78557CL-    CL-42501  19.204   2.238   2.283
78558CL-    CL-42502  18.766   3.222   0.780
78559CL-    CL-42503  23.015   9.716  11.855
78560CL-    CL-42504   3.433   4.903  14.513
78561CL-    CL-42505  44.812   7.213  13.480
78562CL-    CL-42506   5.382   5.288   4.168
78563CL-    CL-42507  43.290  35.872   0.832
78564CL-    CL-42508   1.437  29.067  13.901
78565CL-    CL-42509  32.426   0.473   3.158
78566CL-    CL-42510  23.568  43.993   4.836
78567CL-    CL-42511  44.462  16.201  14.284
78568CL-    CL-42512  43.912  18.577  10.541
78569CL-    CL-42513  35.414  28.568   3.822
78570CL-    CL-42514  41.886  25.618  14.032
78571CL-    CL-42515  18.658  38.349  10.926
78572CL-    CL-42516  29.168  12.798  14.417
78573CL-    CL-42517  18.625   4.930   3.219
78574CL-    CL-42518  39.868  31.490  12.505
78575CL-    CL-42519   4.819  23.158   0.479
78576CL-    CL-42520  11.846   7.750   2.394
78577CL-    CL-42521  42.344   5.873   4.775
78578CL-    CL-42522  43.455   4.406  11.539
78579CL-    CL-42523  26.641   5.782  11.881
78580CL-    CL-42524  36.522  20.089   1.227
78581CL-    CL-42525  18.173  35.048  13.366
78582CL-    CL-42526  17.684  35.573   5.272
78583CL-    CL-42527  11.293   7.863  13.452
78584CL-    CL-42528  26.555  16.613  11.926
78585CL-    CL-42529  38.413   8.856   2.797
78586CL-    CL-42530  40.401   4.447  14.318
78587CL-    CL-42531  33.960   6.252   0.868
78588CL-    CL-42532   2.349   6.316   2.892
78589CL-    CL-42533   0.760   5.823  10.509
78590CL-    CL-42534  30.988  44.915  14.944
78591CL-    CL-42535  14.310  19.039  14.899
78592CL-    CL-42536  20.030  38.561  13.040
78593CL-    CL-42537  12.772   0.970   3.200
78594CL-    CL-42538  32.919  23.010  11.004
78595CL-    CL-42539  21.622  23.508  14.775
78596CL-    CL-42540  37.364  22.173   2.241
78597CL-    CL-42541  23.724  32.485   2.357
78598CL-    CL-42542   1.270  11.813  10.411
78599CL-    CL-42543  31.464   7.672   0.440
78600CL-    CL-42544  30.930  33.607  12.901
78601CL-    CL-42545  38.429  33.006   2.283
78602CL-    CL-42546  32.525   0.309  12.439
78603CL-    CL-42547  12.734  29.140   1.394
78604CL-    CL-42548  16.677  40.840  14.878
78605CL-    CL-42549  25.587   2.431   3.204
78606CL-    CL-42550  34.096  28.527   4.133
78607CL-    CL-42551  10.315   7.727  11.891
78608CL-    CL-42552   5.405   2.867   2.211
78609CL-    CL-42553  42.887  29.553   1.842
78610CL-    CL-42554  27.470  12.672   4.288
78611CL-    CL-42555  40.905  10.318  14.355
78612CL-    CL-42556   4.374  29.043   0.964
78613CL-    CL-42557  13.285  23.060   1.327
78614CL-    CL-42558  33.512   7.898  14.007
78615CL-    CL-42559   5.236  36.552  12.854
78616CL-    CL-42560  43.893  11.331   4.608
78617CL-    CL-42561   0.482  37.920   3.725
78618CL-    CL-42562  33.519   4.751   5.222
78619CL-    CL-42563  43.504   6.686   4.236
78620CL-    CL-42564  15.247  42.291  13.994
78621CL-    CL-42565  27.579   7.302   2.401
78622CL-    CL-42566  42.364   6.240   4.785
78623CL-    CL-42567  33.917  22.064  14.481
78624CL-    CL-42568   9.791  20.655   4.191
78625CL-    CL-42569  43.416  33.027  11.478
78626CL-    CL-42570  18.606  37.412  14.854
78627CL-    CL-42571   1.848  20.532   1.320
78628CL-    CL-42572  22.715   2.924   3.228
78629CL-    CL-42573  25.579  12.247   3.336
78630CL-    CL-42574  42.283  35.957  12.374
78631CL-    CL-42575   8.861  42.324   3.688
78632CL-    CL-42576  19.725  40.053  10.558
78633CL-    CL-42577  18.152  25.075   3.860
78634CL-    CL-42578  22.648  21.725   0.319
78635CL-    CL-42579  33.579  13.257   1.378
78636CL-    CL-42580   8.853  21.260  13.856
78637CL-    CL-42581  19.171  11.649  10.584
78638CL-    CL-42582  37.410  36.954  12.071
78639CL-    CL-42583  16.137  17.266  11.958
78640CL-    CL-42584  32.889  32.615  11.400
78641CL-    CL-42585  33.955   4.935  14.288
78642CL-    CL-42586  36.053   2.879  11.957
78643CL-    CL-42587  34.955  33.965  12.364
78644CL-    CL-42588  17.627  15.764   0.471
78645CL-    CL-42589  44.493  38.940  12.953
78646CL-    CL-42590  20.526  15.259  13.048
78647CL-    CL-42591  13.314  24.715   0.780
78648CL-    CL-42592   9.834  13.771  10.146
78649CL-    CL-42593  43.784  30.496   1.342
78650CL-    CL-42594  21.057  39.519  12.920
78651CL-    CL-42595  43.013  39.480  12.837
78652CL-    CL-42596  15.586  42.887   2.221
78653CL-    CL-42597  12.264  28.139  13.880
78654CL-    CL-42598  44.321   7.306  14.821
78655CL-    CL-42599  29.649  24.094  14.808
78656CL-    CL-42600   4.860  16.243  12.451
78657CL-    CL-42601  25.195  30.983   3.651
78658CL-    CL-42602  22.522  12.611   0.745
78659CL-    CL-42603   2.801  39.855   2.251
78660CL-    CL-42604   3.338  31.967  14.385
78661CL-    CL-42605   7.187  42.831  10.410
78662CL-    CL-42606  38.467   2.410   5.140
78663CL-    CL-42607   2.230  39.354   2.804
78664CL-    CL-42608  30.462   5.834  12.560
78665CL-    CL-42609  10.814   6.346   2.323
78666CL-    CL-42610  42.417  29.665  11.569
78667CL-    CL-42611   7.212  30.923  13.887
78668CL-    CL-42612  11.285  42.467   2.765
78669CL-    CL-42613  35.456   6.815   2.838
78670CL-    CL-42614  36.944  29.025   1.381
78671CL-    CL-42615  39.846   4.319   0.866
78672CL-    CL-42616  20.575   0.342   0.746
78673CL-    CL-42617  33.966  38.367   1.233
78674CL-    CL-42618  18.217  11.739  14.383
78675CL-    CL-42619  13.835  13.344   1.898
78676CL-    CL-42620  35.858   4.334   3.841
78677CL-    CL-42621  39.852  18.097   4.660
78678CL-    CL-42622  41.000  39.459   0.964
78679CL-    CL-42623  32.609  29.526   1.889
78680CL-    CL-42624  40.479   8.161  11.025
78681CL-    CL-42625   1.425   0.920  13.032
78682CL-    CL-42626  44.322  10.819   4.659
78683CL-    CL-42627  20.763  15.281   0.295
78684CL-    CL-42628  34.549  19.256  13.370
78685CL-    CL-42629  10.216  33.013  10.093
78686CL-    CL-42630  14.626  24.486  12.429
78687CL-    CL-42631   7.199  25.071   3.783
78688CL-    CL-42632   0.789   3.849  10.541
78689CL-    CL-42633  41.437  21.063   1.891
78690CL-    CL-42634  12.147  12.328   1.298
78691CL-    CL-42635  31.118  40.047   2.199
78692CL-    CL-42636   0.865  13.351   3.161
78693CL-    CL-42637  33.402  37.384   1.434
78694CL-    CL-42638  11.803  19.269   2.844
78695CL-    CL-42639  40.365  19.668   3.147
78696CL-    CL-42640   0.751  28.085   4.279
78697CL-    CL-42641  21.180  41.913  13.373
78698CL-    CL-42642  23.625  35.486  12.995
78699CL-    CL-42643  14.693  24.189  12.891
78700CL-    CL-42644  10.675   4.810   4.170
78701CL-    CL-42645  31.569   1.295  11.920
78702CL-    CL-42646  42.891  21.533   1.744
78703CL-    CL-42647  17.253   9.757  13.891
78704CL-    CL-42648  28.130  34.888   2.202
78705CL-    CL-42649  29.003   9.744   2.413
78706CL-    CL-42650  40.041  18.624   4.137
78707CL-    CL-42651  42.911  38.515   4.173
78708CL-    CL-42652  37.838  35.511   4.674
78709CL-    CL-42653  39.015   4.918   3.165
78710CL-    CL-42654  27.968   1.741   2.900
78711CL-    CL-42655  15.813  27.466   3.339
78712CL-    CL-42656   9.188  32.052  10.065
78713CL-    CL-42657  22.084  37.912  14.906
78714CL-    CL-42658   5.781  10.820   4.168
78715CL-    CL-42659  35.465  39.996  10.997
78716CL-    CL-42660  44.771  11.312  11.585
78717CL-    CL-42661  24.686  16.082   1.714
78718CL-    CL-42662  21.263  42.450   4.317
78719CL-    CL-42663  11.861  38.358  14.410
78720CL-    CL-42664  38.569  38.027  13.950
78721CL-    CL-42665  38.420   0.491  12.086
78722CL-    CL-42666  14.251  18.596   2.387
78723CL-    CL-42667  27.161  31.615  10.896
78724CL-    CL-42668  19.538  39.388  14.763
78725CL-    CL-42669  43.888  33.601  11.990
78726CL-    CL-42670  22.734   2.960   1.214
78727CL-    CL-42671  36.392  15.616   0.963
78728CL-    CL-42672  41.517   3.807  10.093
78729CL-    CL-42673  22.606  20.117   0.324
78730CL-    CL-42674  34.558   8.358  10.537
78731CL-    CL-42675   9.820  30.156   2.268
78732CL-    CL-42676   0.750  15.251   3.690
78733CL-    CL-42677  42.432   9.772   1.926
78734CL-    CL-42678  12.292  24.567  12.532
78735CL-    CL-42679   0.824   1.824   4.832
78736CL-    CL-42680  41.946  18.558  11.415
78737CL-    CL-42681   3.796   3.331  11.481
78738CL-    CL-42682  21.723  22.638  14.011
78739CL-    CL-42683  37.483  42.822   3.289
78740CL-    CL-42684  25.654  38.913  12.975
78741CL-    CL-42685  18.775   2.816  10.566
78742CL-    CL-42686   9.340   2.228   4.791
78743CL-    CL-42687   3.761  32.002   2.875
78744CL-    CL-42688   5.910  37.044   0.305
78745CL-    CL-42689  10.706  24.115   3.685
78746CL-    CL-42690  14.274  30.094   1.442
78747CL-    CL-42691   4.809   9.843  11.379
78748CL-    CL-42692  32.923  40.303   2.768
78749CL-    CL-42693  17.240  36.372   0.248
78750CL-    CL-42694  44.779  23.221   3.169
78751CL-    CL-42695  41.897  40.900  13.430
78752CL-    CL-42696  36.880   9.395  11.481
78753CL-    CL-42697  12.745  27.559  10.610
78754CL-    CL-42698  22.067  33.506  10.428
78755CL-    CL-42699  24.544  15.762  11.067
78756CL-    CL-42700  12.643  31.106   0.258
78757CL-    CL-42701   2.809  23.609  12.005
78758CL-    CL-42702  37.578  28.676   3.152
78759CL-    CL-42703  26.952  20.073   2.263
78760CL-    CL-42704  15.125  30.485   9.957
78761CL-    CL-42705  22.584  19.614   4.621
78762CL-    CL-42706  29.066  36.913   0.419
78763CL-    CL-42707  27.121   6.247   0.787
78764CL-    CL-42708  15.767  43.479  13.439
78765CL-    CL-42709  19.095  42.516  14.877
78766CL-    CL-42710  43.875   0.371   0.745
78767CL-    CL-42711  36.508   3.303  14.448
78768CL-    CL-42712  27.052  28.986  10.627
78769CL-    CL-42713  38.862  44.942   1.215
78770CL-    CL-42714  15.816  34.439  11.514
78771CL-    CL-42715  33.907   5.842   4.628
78772CL-    CL-42716  14.262  36.964   3.316
78773CL-    CL-42717  30.608  29.159  12.580
78774CL-    CL-42718   8.316  32.587   3.228
78775CL-    CL-42719  42.837  23.543   1.296
78776CL-    CL-42720   5.904   5.804  11.892
78777CL-    CL-42721  27.092   1.382   0.889
78778CL-    CL-42722  18.155  21.747  12.973
78779CL-    CL-42723  30.617  24.557   3.826
78780CL-    CL-42724  12.742  24.035   4.187
78781CL-    CL-42725  26.120   3.271  11.378
78782CL-    CL-42726  22.500  42.933   0.386
78783CL-    CL-42727  24.983  42.430  10.563
78784CL-    CL-42728  29.571  35.386  14.301
78785CL-    CL-42729   0.940  38.015  11.448
78786CL-    CL-42730   9.871  39.917  13.504
78787CL-    CL-42731  41.928   5.439  11.542
78788CL-    CL-42732   2.259  40.526   1.362
78789CL-    CL-42733  27.450  28.141  11.070
78790CL-    CL-42734   6.344  10.379   2.671
78791CL-    CL-42735  34.567   1.359   1.864
78792CL-    CL-42736  22.018  12.629  14.451
78793CL-    CL-42737  12.805  37.074   1.868
78794CL-    CL-42738  17.605  37.479  12.341
78795CL-    CL-42739   2.439  15.652   2.208
78796CL-    CL-42740  31.442  37.872   3.280
78797CL-    CL-42741  40.514  35.929  10.998
78798CL-    CL-42742  44.809  21.075  10.970
78799CL-    CL-42743   0.444  19.178  13.356
78800CL-    CL-42744   9.175  42.827  11.890
78801CL-    CL-42745  38.394  28.089   4.695
78802CL-    CL-42746  12.823  16.597   4.257
78803CL-    CL-42747  40.524   8.666   1.855
78804CL-    CL-42748  19.724  28.087   2.229
78805CL-    CL-42749  30.071  25.990   1.768
78806CL-    CL-42750   4.427   1.291   4.729
78807CL-    CL-42751  35.520  41.387  14.441
78808CL-    CL-42752  28.618  26.036   0.345
78809CL-    CL-42753  34.446  30.140  12.888
78810CL-    CL-42754  26.959  24.680  13.893
78811CL-    CL-42755   8.892  35.480  13.502
78812CL-    CL-42756   5.690   2.958  14.844
78813CL-    CL-42757   3.928  22.679  13.358
78814CL-    CL-42758  42.813  36.548   1.772
78815CL-    CL-42759  24.097  43.343  10.941
78816CL-    CL-42760   3.730  37.844   2.363
78817CL-    CL-42761  30.028  44.927  13.002
78818CL-    CL-42762  18.264  40.050   0.854
78819CL-    CL-42763  35.943  38.997   0.300
78820CL-    CL-42764  26.167  10.347  12.929
78821CL-    CL-42765  22.687  42.920  14.931
78822CL-    CL-42766  21.216  31.604   1.362
78823CL-    CL-42767  42.344  34.071  10.943
78824CL-    CL-42768  36.517   7.383  12.436
78825CL-    CL-42769  22.565  10.282   3.232
78826CL-    CL-42770   5.841   0.402  13.868
78827CL-    CL-42771   3.923   8.782  13.965
78828CL-    CL-42772  14.333   1.755  14.459
78829CL-    CL-42773  17.068  35.073  10.491
78830CL-    CL-42774   9.880  31.580   4.696
78831CL-    CL-42775   8.881  14.790  10.404
78832CL-    CL-42776  10.145  43.487   1.260
78833CL-    CL-42777  12.611  13.775   3.342
78834CL-    CL-42778  31.149  38.558   3.209
78835CL-    CL-42779  18.167   8.374   2.776
78836CL-    CL-42780  33.901  27.117   4.627
78837CL-    CL-42781  12.266  37.870   0.873
78838CL-    CL-42782  10.273  18.733  13.460
78839CL-    CL-42783   4.365  42.802  11.870
78840CL-    CL-42784   5.194  37.556   0.750
78841CL-    CL-42785  32.564  38.485   3.170
78842CL-    CL-42786   5.206  13.760  12.962
78843CL-    CL-42787  40.984  29.578  11.923
78844CL-    CL-42788  11.771   3.820   1.866
78845CL-    CL-42789  15.605  30.596   0.292
78846CL-    CL-42790   6.831   5.840  11.388
78847CL-    CL-42791  28.545   6.796   1.813
78848CL-    CL-42792  18.184  23.635  14.964
78849CL-    CL-42793  32.089  39.356   4.603
78850CL-    CL-42794  37.879  32.415  12.563
78851CL-    CL-42795   0.783  21.732  12.401
78852CL-    CL-42796  31.425  24.098  11.083
78853CL-    CL-42797  21.579   9.164   3.275
78854CL-    CL-42798  26.503  27.192  14.881
78855CL-    CL-42799  39.975  23.558   1.226
78856CL-    CL-42800  28.156  44.315   4.614
78857CL-    CL-42801  34.898  15.764   4.622
78858CL-    CL-42802  13.714  25.150   0.460
78859CL-    CL-42803  42.517   8.295   4.160
78860CL-    CL-42804  22.067  33.618   1.881
78861CL-    CL-42805  22.646   1.776  10.086
78862CL-    CL-42806   6.753  11.713   1.882
78863CL-    CL-42807  24.176  33.588   3.229
78864CL-    CL-42808   9.813  31.058  12.500
78865CL-    CL-42809  19.042  13.771  14.389
78866CL-    CL-42810  27.955  42.317   0.430
78867CL-    CL-42811   7.755  11.687  10.580
78868CL-    CL-42812  24.051  40.979   4.338
78869CL-    CL-42813  37.935   8.687  11.462
78870CL-    CL-42814  34.102  15.166  10.613
78871CL-    CL-42815  31.126  34.909   2.185
78872CL-    CL-42816  33.121  19.066   2.869
78873CL-    CL-42817  11.702  31.409  10.893
78874CL-    CL-42818   3.852  25.210   0.885
78875CL-    CL-42819  17.655  18.287  12.439
78876CL-    CL-42820  26.687  19.677  10.594
78877CL-    CL-42821   9.734   9.167  13.961
78878CL-    CL-42822  21.058  37.984  10.510
78879CL-    CL-42823  25.020  16.092  10.597
78880CL-    CL-42824  21.190  25.153  12.400
78881CL-    CL-42825  33.886  44.384   4.120
78882CL-    CL-42826  20.223  32.630  13.994
78883CL-    CL-42827  17.062  34.066  12.424
78884CL-    CL-42828  35.919  22.548  12.983
78885CL-    CL-42829   6.333  25.073  11.427
78886CL-    CL-42830  17.268  32.485   1.745
78887CL-    CL-42831   7.843  19.570   1.886
78888CL-    CL-42832  25.507  24.697   3.374
78889CL-    CL-42833  25.153  21.699   2.744
78890CL-    CL-42834  38.533   6.288  14.513
78891CL-    CL-42835  19.085  34.898   2.759
78892CL-    CL-42836  32.993  20.544   1.718
78893CL-    CL-42837  22.564  13.712  12.339
78894CL-    CL-42838  31.526  35.934  11.939
78895CL-    CL-42839  25.673  44.796   2.281
78896CL-    CL-42840  38.021   6.842   0.483
78897CL-    CL-42841  10.179  27.084  11.411
78898CL-    CL-42842  44.332  15.217  11.119
78899CL-    CL-42843  13.186  20.742   4.706
78900CL-    CL-42844  16.693  16.091  10.567
78901CL-    CL-42845   8.212  14.150   5.586
78902CL-    CL-42846  34.515   0.914   0.437
78903CL-    CL-42847  33.923  14.309  12.449
78904CL-    CL-42848  12.671   9.184  13.006
78905CL-    CL-42849   2.348  44.782  11.494
78906CL-    CL-42850  40.549   6.696   0.878
78907CL-    CL-42851   2.431  44.885  10.607
78908CL-    CL-42852  34.521  19.080  10.522
78909CL-    CL-42853  40.970  42.937   2.284
78910CL-    CL-42854   4.803  41.483  12.440
78911CL-    CL-42855   4.757  33.539   2.888
78912CL-    CL-42856  30.120  43.879   2.191
78913CL-    CL-42857   5.434  28.034   3.769
78914CL-    CL-42858  20.144   0.342  10.484
78915CL-    CL-42859  17.082  13.315  13.960
78916CL-    CL-42860  10.139  23.030  12.992
78917CL-    CL-42861  14.323  20.251  13.351
78918CL-    CL-42862  23.507  26.173  10.430
78919CL-    CL-42863  33.616  39.960   4.237
78920CL-    CL-42864  20.058  31.088   3.152
78921CL-    CL-42865  31.639   9.191  11.920
78922CL-    CL-42866  44.794  18.215   1.329
78923CL-    CL-42867  26.128   6.212   4.236
78924CL-    CL-42868  17.684   7.229  14.297
78925CL-    CL-42869   1.296  17.223  11.879
78926CL-    CL-42870  33.024  26.599  13.352
78927CL-    CL-42871   0.884  25.032  12.427
78928CL-    CL-42872  10.793  41.457  13.994
78929CL-    CL-42873  26.107  11.739  11.919
78930CL-    CL-42874  31.612   7.364  10.966
78931CL-    CL-42875  20.220  42.339   2.295
78932CL-    CL-42876  44.782  42.901   0.420
78933CL-    CL-42877  25.010   8.826  11.982
78934CL-    CL-42878  22.098   7.821   1.294
78935CL-    CL-42879  18.715  13.807  10.923
78936CL-    CL-42880  11.748  22.195   2.678
78937CL-    CL-42881   5.899  11.350   2.227
78938CL-    CL-42882  18.092   8.237   3.712
78939CL-    CL-42883  12.668  29.558  12.514
78940CL-    CL-42884  31.958  29.491  11.574
78941CL-    CL-42885  32.036  18.559  14.392
78942CL-    CL-42886  10.151  41.978  14.957
78943CL-    CL-42887  33.429   8.681  14.882
78944CL-    CL-42888  20.031  17.117  12.855
78945CL-    CL-42889  23.503  38.386   0.291
78946CL-    CL-42890  42.014   7.816   1.702
78947CL-    CL-42891   3.432  42.809  10.092
78948CL-    CL-42892  36.574  16.271   2.265
78949CL-    CL-42893  19.185  37.891   3.310
78950CL-    CL-42894  28.143  35.387  14.026
78951CL-    CL-42895  34.606  28.034  12.920
78952CL-    CL-42896  40.868  32.905   2.688
78953CL-    CL-42897  28.100  41.448   3.229
78954CL-    CL-42898   6.253  31.127  14.479
78955CL-    CL-42899   0.275  26.196   0.914
78956CL-    CL-42900  13.348  30.156  11.041
78957CL-    CL-42901   4.256  14.287  12.060
78958CL-    CL-42902  40.924  28.175   0.776
78959CL-    CL-42903  24.666  28.474   4.320
78960CL-    CL-42904  16.125  42.466   0.917
78961CL-    CL-42905  29.930   3.922   4.275
78962CL-    CL-42906   5.777  30.937  11.862
78963CL-    CL-42907   7.250  40.540  11.037
78964CL-    CL-42908  42.806   7.360  10.007
78965CL-    CL-42909   1.930   1.259   0.419
78966CL-    CL-42910  16.805   0.842   3.178
78967CL-    CL-42911  22.678  26.463   1.866
78968CL-    CL-42912  11.289  33.388   1.301
78969CL-    CL-42913  13.311   8.832  12.568
78970CL-    CL-42914  37.580   2.277   4.610
78971CL-    CL-42915  43.347  30.527   0.314
78972CL-    CL-42916  24.042  28.117  14.913
78973CL-    CL-42917  19.236  25.193  12.002
78974CL-    CL-42918  22.192  24.231   3.237
78975CL-    CL-42919  11.172  44.859  14.797
78976CL-    CL-42920  26.026  44.306   2.861
78977CL-    CL-42921  19.543   3.808   1.245
78978CL-    CL-42922   6.844  31.429  12.888
78979CL-    CL-42923  41.810  10.201   0.255
78980CL-    CL-42924  37.434  32.138  10.595
78981CL-    CL-42925  28.130  41.339  10.996
78982CL-    CL-42926  25.000  34.986   3.799
78983CL-    CL-42927  10.313  37.367   4.151
78984CL-    CL-42928  15.259  34.490  10.956
78985CL-    CL-42929   0.325  19.690  11.382
78986CL-    CL-42930   8.194  30.467  11.411
78987CL-    CL-42931   2.899  13.726  10.500
78988CL-    CL-42932  43.813  29.139  11.094
78989CL-    CL-42933   3.838  12.284  10.628
78990CL-    CL-42934  10.790   6.320  11.434
78991CL-    CL-42935  18.095  16.809  11.979
78992CL-    CL-42936  18.253  16.785   2.397
78993CL-    CL-42937  23.707   2.369   0.477
78994CL-    CL-42938  29.075  16.767  11.516
78995CL-    CL-42939  44.295  21.155  10.593
78996CL-    CL-42940  11.297   1.898  14.888
78997CL-    CL-42941   7.232  10.286   0.852
78998CL-    CL-42942  44.288   8.306  11.535
78999CL-    CL-42943  30.646  41.036   1.791
79000CL-    CL-42944  25.111  26.521  13.471
79001CL-    CL-42945  39.433   4.272   1.872
79002CL-    CL-42946  15.315  20.040   3.290
79003CL-    CL-42947  38.550  39.901  13.888
79004CL-    CL-42948  10.717   3.396   3.842
79005CL-    CL-42949  22.055   9.382   4.766
79006CL-    CL-42950  34.028   0.311  14.986
79007CL-    CL-42951  28.536  40.351  10.542
79008CL-    CL-42952  40.455   6.354  11.420
79009CL-    CL-42953   5.863  15.325  11.470
79010CL-    CL-42954  38.447  11.788   3.268
79011CL-    CL-42955  12.857  27.664  14.291
79012CL-    CL-42956  26.077  38.378   1.852
79013CL-    CL-42957  11.726   3.310   2.257
79014CL-    CL-42958  21.249  18.642  10.913
79015CL-    CL-42959  42.525  18.662  11.917
79016CL-    CL-42960  23.073  27.475   4.616
79017CL-    CL-42961   7.835  39.468   3.335
79018CL-    CL-42962   7.309  20.686   4.620
79019CL-    CL-42963  10.321  31.515  13.031
79020CL-    CL-42964  38.928  17.788  11.097
79021CL-    CL-42965  44.764  30.145  10.556
79022CL-    CL-42966  32.122   2.772  11.123
79023CL-    CL-42967  33.589  23.677  12.555
79024CL-    CL-42968  12.174   0.868   2.296
79025CL-    CL-42969  11.645   0.835   4.264
79026CL-    CL-42970  33.991  19.042   0.245
79027CL-    CL-42971   1.244  22.166   3.853
79028CL-    CL-42972  17.590  38.038   2.856
79029CL-    CL-42973  26.487   0.384   2.368
79030CL-    CL-42974  38.859  26.673  14.975
79031CL-    CL-42975  30.652  12.234   3.206
79032CL-    CL-42976   9.287  10.653  11.458
79033CL-    CL-42977  28.930  11.372   4.226
79034CL-    CL-42978  20.653  43.350  11.893
79035CL-    CL-42979  27.114  15.760  11.939
79036CL-    CL-42980  36.383  17.158   3.804
79037CL-    CL-42981  30.577  38.022   1.777
79038CL-    CL-42982   5.732   7.896   1.796
79039CL-    CL-42983  31.058  42.358  13.368
79040CL-    CL-42984  17.127   5.898  10.158
79041CL-    CL-42985   8.716  13.255  12.038
79042CL-    CL-42986  26.094  15.735   3.251
79043CL-    CL-42987  11.691   0.375   9.654
79044CL-    CL-42988  42.957   7.252  14.391
79045CL-    CL-42989  33.622  43.020  12.983
79046CL-    CL-42990  36.497   9.723   2.304
79047CL-    CL-42991   0.882  29.059  10.641
79048CL-    CL-42992   8.892  17.651   0.480
79049CL-    CL-42993  34.406  23.503   0.892
79050CL-    CL-42994  33.462  16.620  13.920
79051CL-    CL-42995   4.752  11.272  14.323
79052CL-    CL-42996  18.569  27.017  12.048
79053CL-    CL-42997  27.030   1.871   1.411
79054CL-    CL-42998  28.637  27.988  14.361
79055CL-    CL-42999  12.796  40.026  14.508
79056CL-    CL-43000   2.957   6.716  11.937
79057CL-    CL-43001  32.890   3.760   4.124
79058CL-    CL-43002  17.078   4.882   4.655
79059CL-    CL-43003   0.767  37.015   1.346
79060CL-    CL-43004  19.228  23.726   1.387
79061CL-    CL-43005  42.826   4.707   4.201
79062CL-    CL-43006  24.560  37.497  14.822
79063CL-    CL-43007   4.356  31.451   0.853
79064CL-    CL-43008  22.547  41.421   5.241
79065CL-    CL-43009  10.852  36.071   2.264
79066CL-    CL-43010  43.893  40.017  11.894
79067CL-    CL-43011   7.711  21.118   4.636
79068CL-    CL-43012  36.393  28.667   2.817
79069CL-    CL-43013  44.289  34.524   3.235
79070CL-    CL-43014  26.544  21.757  12.404
79071CL-    CL-43015  23.219   0.791   1.716
79072CL-    CL-43016  14.691  13.772   1.859
79073CL-    CL-43017  18.730  36.098   4.788
79074CL-    CL-43018  13.181  26.561   4.676
79075CL-    CL-43019  37.356  31.149  13.819
79076CL-    CL-43020  34.546  22.221   0.447
79077CL-    CL-43021   4.364   6.873   1.859
79078CL-    CL-43022  34.038  33.614  12.062
79079CL-    CL-43023  39.970   0.960   3.181
79080CL-    CL-43024  26.032   5.710  11.515
79081CL-    CL-43025   0.457   6.260  14.443
79082CL-    CL-43026  18.103  40.939  12.047
79083CL-    CL-43027  19.694  14.634   3.305
79084CL-    CL-43028  19.656   6.389   0.414
79085CL-    CL-43029  35.434   6.703  14.899
79086CL-    CL-43030  11.141  21.110   2.665
79087CL-    CL-43031  12.825  21.711  11.512
79088CL-    CL-43032  29.968  44.365  10.596
79089CL-    CL-43033  27.004   5.806   1.260
79090CL-    CL-43034   4.441   1.846  14.503
79091CL-    CL-43035  10.306  10.643  13.883
79092CL-    CL-43036  37.959  21.213   1.288
79093CL-    CL-43037  20.030  37.953  10.465
79094CL-    CL-43038  12.171  12.738   4.347
79095CL-    CL-43039  34.106   4.729  11.578
79096CL-    CL-43040  17.570  19.685  11.942
79097CL-    CL-43041  21.190   9.188   1.323
79098CL-    CL-43042   3.860  43.494  10.585
79099CL-    CL-43043  24.202   6.865  11.462
79100CL-    CL-43044  42.310   5.386   3.219
79101CL-    CL-43045  34.371   8.824   2.797
79102CL-    CL-43046   9.760  34.957   1.326
79103CL-    CL-43047  15.727  18.667   1.878
79104CL-    CL-43048  23.104  38.340  13.807
79105CL-    CL-43049   4.284  26.699   5.306
79106CL-    CL-43050  39.917  13.739   1.825
79107CL-    CL-43051  21.753  43.458  11.449
79108CL-    CL-43052  27.985  19.765  14.981
79109CL-    CL-43053  30.516  30.634  14.514
79110CL-    CL-43054  44.007  11.262  12.985
79111CL-    CL-43055  21.110  37.923  12.986
79112CL-    CL-43056  23.211   3.863  14.281
79113CL-    CL-43057  14.821  32.020   1.217
79114CL-    CL-43058  23.227  34.050   4.124
79115CL-    CL-43059   4.347  27.486  11.116
79116CL-    CL-43060  16.127   0.361   4.608
79117CL-    CL-43061  37.345  27.619   1.762
79118CL-    CL-43062  27.591  39.469  11.417
79119CL-    CL-43063   7.364  22.642  10.973
79120CL-    CL-43064  27.553  32.080  14.314
79121CL-    CL-43065  12.209   7.669   3.210
79122CL-    CL-43066  35.996  21.019  13.408
79123CL-    CL-43067   8.720  11.773   4.818
79124CL-    CL-43068   3.907  36.934   2.823
79125CL-    CL-43069   6.245  34.493   3.308
79126CL-    CL-43070  30.132  29.447  12.883
79127CL-    CL-43071  23.601  12.788   0.779
79128CL-    CL-43072  38.003   0.414   2.761
79129CL-    CL-43073   3.781  33.498  14.800
79130CL-    CL-43074  19.132  26.067   1.770
79131CL-    CL-43075  23.080  23.583  11.906
79132CL-    CL-43076  39.366  42.976  14.808
79133CL-    CL-43077  12.274   3.862  11.485
79134CL-    CL-43078  37.927  19.563   4.644
79135CL-    CL-43079  24.087  42.463  14.948
79136CL-    CL-43080  44.315  25.561   0.402
79137CL-    CL-43081  27.543  24.057  10.599
79138CL-    CL-43082  42.947  30.445   1.809
79139CL-    CL-43083  20.089  12.266   3.664
79140CL-    CL-43084  39.002  23.126  12.855
79141CL-    CL-43085  25.049  31.995   2.189
79142CL-    CL-43086   8.374  42.786  13.830
79143CL-    CL-43087   0.477  13.649   4.742
79144CL-    CL-43088   7.803   9.245   4.127
79145CL-    CL-43089  15.086   8.755   3.269
79146CL-    CL-43090  25.705  25.042  10.569
79147CL-    CL-43091   7.894  16.210  14.436
79148CL-    CL-43092   5.715  12.325  11.035
79149CL-    CL-43093  34.084  21.205  13.040
79150CL-    CL-43094   8.779  41.371  14.822
79151CL-    CL-43095  41.012  25.488   0.281
79152CL-    CL-43096   4.924   1.274  10.945
79153CL-    CL-43097  29.092  14.322   4.683
79154CL-    CL-43098  14.316  22.154  12.055
79155CL-    CL-43099  36.458  40.456  13.887
79156CL-    CL-43100  11.866  35.915   3.853
79157CL-    CL-43101   8.367  26.463   4.738
79158CL-    CL-43102  37.338  21.096   0.458
79159CL-    CL-43103  19.720  19.185   4.623
79160CL-    CL-43104  19.776  32.608   2.733
79161CL-    CL-43105  28.151   9.809   4.700
79162CL-    CL-43106  41.508  11.739   4.172
79163CL-    CL-43107   5.270  12.667  14.010
79164CL-    CL-43108   0.257   4.862  10.587
79165CL-    CL-43109  24.175   8.773  12.486
79166CL-    CL-43110   3.400  21.047  14.886
79167CL-    CL-43111   9.879  39.498   0.381
79168CL-    CL-43112  37.873  34.085  11.989
79169CL-    CL-43113  36.985  42.496  11.889
79170CL-    CL-43114   1.398  42.788   2.686
79171CL-    CL-43115  30.638  16.139  12.393
79172CL-    CL-43116   9.376  42.453  13.033
79173CL-    CL-43117  17.193  18.737  13.819
79174CL-    CL-43118  43.462  30.607  12.505
79175CL-    CL-43119  37.850  37.992   3.726
79176CL-    CL-43120  10.808   0.950   0.369
79177CL-    CL-43121  16.082   9.330   5.268
79178CL-    CL-43122  25.711   1.428   0.825
79179CL-    CL-43123  31.995  20.198   0.809
79180CL-    CL-43124  33.521   9.350   3.299
79181CL-    CL-43125   2.235  19.640  14.004
79182CL-    CL-43126  35.884  10.790   4.172
79183CL-    CL-43127  24.024  26.089  11.451
79184CL-    CL-43128   0.346   0.467   3.833
79185CL-    CL-43129  25.999  32.566   0.342
79186CL-    CL-43130   9.794  31.479  11.961
79187CL-    CL-43131  27.603  12.229   3.329
79188CL-    CL-43132  44.895  17.064   1.411
79189CL-    CL-43133   8.355  28.128   9.967
79190CL-    CL-43134  30.941  24.989   2.722
79191CL-    CL-43135  21.140  13.604  14.458
79192CL-    CL-43136  31.493  24.517  12.074
79193CL-    CL-43137  26.143  40.501   2.380
79194CL-    CL-43138  12.788  40.954   4.792
79195CL-    CL-43139  22.123   5.804  10.557
79196CL-    CL-43140  30.630  24.214   3.648
79197CL-    CL-43141   7.355  26.208   1.230
79198CL-    CL-43142   4.867  19.219   3.219
79199CL-    CL-43143   6.217   4.292  10.552
79200CL-    CL-43144  38.496  39.914  12.492
79201CL-    CL-43145  15.613  29.524   5.096
79202CL-    CL-43146  33.917  41.789  14.839
79203CL-    CL-43147  17.701  30.471   2.725
79204CL-    CL-43148  39.329  29.930   4.328
79205CL-    CL-43149  11.845  28.552   9.497
79206CL-    CL-43150  33.563  37.549   1.923
79207CL-    CL-43151   8.216   2.735   3.271
79208CL-    CL-43152  23.505  35.538  10.461
79209CL-    CL-43153   7.831   9.262   3.303
79210CL-    CL-43154  31.993  24.996   3.796
79211CL-    CL-43155  37.074  28.535  14.764
79212CL-    CL-43156   0.824  31.154  13.332
79213CL-    CL-43157   9.833   8.815   0.286
79214CL-    CL-43158  32.988  43.015  12.349
79215CL-    CL-43159  10.206  33.082   1.324
79216CL-    CL-43160  10.365   8.674   2.196
79217CL-    CL-43161  28.057  35.586   3.841
79218CL-    CL-43162  34.897   9.383   4.281
79219CL-    CL-43163  32.445  32.098   0.758
79220CL-    CL-43164  40.521  26.156  10.563
79221CL-    CL-43165  26.571  25.190   9.976
79222CL-    CL-43166  17.741  36.035  10.494
79223CL-    CL-43167  14.182   8.263  11.549
79224CL-    CL-43168  36.057  27.634  12.413
79225CL-    CL-43169  41.020  44.275   0.914
79226CL-    CL-43170  11.290   3.792   3.818
79227CL-    CL-43171   1.425  42.810  12.949
79228CL-    CL-43172  42.403  22.613   4.665
79229CL-    CL-43173  18.622  13.149  13.013
79230CL-    CL-43174  31.580  22.037   0.923
79231CL-    CL-43175  44.931  20.090   2.237
79232CL-    CL-43176  18.111  40.341  13.307
79233CL-    CL-43177  42.803   7.373   2.298
79234CL-    CL-43178  20.056  26.599  10.902
79235CL-    CL-43179  34.929  28.156   1.416
79236CL-    CL-43180  10.234  37.498  14.791
79237CL-    CL-43181  35.458  23.549   4.290
79238CL-    CL-43182  27.455  30.543   3.301
79239CL-    CL-43183  11.629  20.665   0.379
79240CL-    CL-43184   0.465  26.128   1.737
79241CL-    CL-43185  23.178  19.076   1.223
79242CL-    CL-43186   5.217  10.803   4.626
79243CL-    CL-43187   6.867   6.279   3.356
79244CL-    CL-43188  25.638  35.596   0.422
79245CL-    CL-43189  10.839  44.412   0.909
79246CL-    CL-43190  15.316  12.787   0.431
79247CL-    CL-43191  12.257  27.459  13.823
79248CL-    CL-43192   2.789   6.199  12.341
79249CL-    CL-43193  23.168   1.393   2.887
79250CL-    CL-43194  35.860  24.485  14.027
79251CL-    CL-43195   6.363   3.921   2.682
79252CL-    CL-43196  25.609  30.590   4.614
79253CL-    CL-43197  34.532   3.236  14.892
79254CL-    CL-43198  21.639  37.569   3.634
79255CL-    CL-43199   6.923  27.459  10.943
79256CL-    CL-43200  32.498   2.267   2.857
79257CL-    CL-43201  31.111   5.226  12.095
79258CL-    CL-43202   2.847  36.930   3.862
79259CL-    CL-43203  21.682   9.676  10.922
79260CL-    CL-43204  27.025  39.919   2.793
79261CL-    CL-43205   5.410  16.097  13.389
79262CL-    CL-43206  10.269   9.367   3.758
79263CL-    CL-43207   0.930  19.073  13.852
79264CL-    CL-43208  32.534  34.956   1.933
79265CL-    CL-43209  15.598  18.602  13.979
79266CL-    CL-43210  42.294  37.385   0.407
79267CL-    CL-43211   9.200  36.587   0.412
79268CL-    CL-43212  31.412  33.902  14.443
79269CL-    CL-43213   8.658  15.640   0.359
79270CL-    CL-43214   8.893  39.827  12.057
79271CL-    CL-43215   2.885   9.656  12.913
79272CL-    CL-43216  15.796  32.986   1.770
79273CL-    CL-43217  39.918  11.169  11.587
79274CL-    CL-43218   7.742  35.486   4.160
79275CL-    CL-43219  25.641   9.344   2.190
79276CL-    CL-43220  17.702  42.856  11.905
79277CL-    CL-43221  30.577  30.989   5.213
79278CL-    CL-43222   4.900  36.971   2.194
79279CL-    CL-43223  29.033  32.952   4.811
79280CL-    CL-43224   7.327  34.496   3.292
79281CL-    CL-43225  17.230   2.424   1.787
79282CL-    CL-43226   4.837  14.210   2.780
79283CL-    CL-43227   7.784   4.941  14.327
79284CL-    CL-43228  38.820   4.284  11.962
79285CL-    CL-43229  33.584   8.797   4.782
79286CL-    CL-43230  21.096  17.622   3.817
79287CL-    CL-43231  38.427  19.098   3.214
79288CL-    CL-43232  41.002  20.768  10.482
79289CL-    CL-43233  15.262  41.029  14.971
79290CL-    CL-43234   8.321  39.817   0.937
79291CL-    CL-43235  28.143  32.564   1.765
79292CL-    CL-43236   4.221  36.402   1.444
79293CL-    CL-43237  22.735   1.342   3.236
79294CL-    CL-43238   5.743   5.861   3.785
79295CL-    CL-43239  15.593  34.921  11.432
79296CL-    CL-43240  21.186  27.673   1.280
79297CL-    CL-43241  24.576  18.076   4.310
79298CL-    CL-43242  36.960   9.759   2.289
79299CL-    CL-43243  22.113  16.744   4.644
79300CL-    CL-43244   9.343  15.267   9.535
79301CL-    CL-43245   1.913  12.288  13.523
79302CL-    CL-43246  34.575  42.861  13.048
79303CL-    CL-43247  42.998   8.898  14.374
79304CL-    CL-43248  41.465  21.175   5.087
79305CL-    CL-43249  13.776   4.261   5.085
79306CL-    CL-43250  13.719  10.843   4.609
79307CL-    CL-43251  13.251  38.378  10.644
79308CL-    CL-43252  28.482  22.023  14.460
79309CL-    CL-43253   0.858  33.598   3.201
79310CL-    CL-43254   0.296  24.551   0.376
79311CL-    CL-43255  21.720  32.434  11.912
79312CL-    CL-43256  16.218  19.098  13.962
79313CL-    CL-43257  10.249  35.459   2.856
79314CL-    CL-43258  42.449  29.938  13.442
79315CL-    CL-43259  13.105  10.642   4.235
79316CL-    CL-43260  34.570  44.850  14.770
79317CL-    CL-43261   8.882   4.404  10.642
79318CL-    CL-43262   1.865  14.292   3.744
79319CL-    CL-43263  33.908  29.166  14.020
79320CL-    CL-43264   0.750  42.891   4.224
79321CL-    CL-43265  22.563  17.209   1.913
79322CL-    CL-43266   3.830  33.553   4.733
79323CL-    CL-43267  34.999  21.591   3.634
79324CL-    CL-43268   0.328  36.402   4.211
79325CL-    CL-43269  10.800  32.413   3.177
79326CL-    CL-43270  12.635  14.141  11.543
79327CL-    CL-43271  29.922  30.565  12.492
79328CL-    CL-43272  33.546  33.012   2.258
79329CL-    CL-43273  28.128  39.049  12.978
79330CL-    CL-43274  16.742  41.801  11.022
79331CL-    CL-43275  41.338  23.544  12.353
79332CL-    CL-43276   6.885  11.235  10.507
79333CL-    CL-43277  19.112  26.548   2.760
79334CL-    CL-43278  27.607  44.956   0.909
79335CL-    CL-43279   3.345  39.882   3.646
79336CL-    CL-43280  43.506  42.471  12.976
79337CL-    CL-43281  37.429  15.085  10.498
79338CL-    CL-43282  20.160  21.625  10.591
79339CL-    CL-43283  40.036   8.305  11.408
79340CL-    CL-43284  22.209  38.568  13.464
79341CL-    CL-43285   5.872  37.916   2.788
79342CL-    CL-43286   7.384  40.967  10.977
79343CL-    CL-43287  44.837   1.445   4.199
79344CL-    CL-43288  10.262   8.401  12.832
79345CL-    CL-43289  35.922  16.766   1.303
79346CL-    CL-43290  30.132   4.230  13.422
79347CL-    CL-43291   9.705  25.683   4.315
79348CL-    CL-43292  29.559  42.391   1.444
79349CL-    CL-43293  37.465  27.101  14.302
79350CL-    CL-43294  29.001  18.270   2.846
79351CL-    CL-43295  25.487  23.670  12.526
79352CL-    CL-43296  30.936   3.217  12.543
79353CL-    CL-43297   7.384  11.177  11.434
79354CL-    CL-43298  37.956  41.532   1.260
79355CL-    CL-43299  17.677   3.395  14.859
79356CL-    CL-43300  27.449   2.240   3.846
79357CL-    CL-43301  37.023   2.311   2.284
79358CL-    CL-43302   8.185  37.835   1.380
79359CL-    CL-43303  42.797  11.335  10.920
79360CL-    CL-43304  28.001   9.703  13.842
79361CL-    CL-43305   3.741  14.308  13.527
79362CL-    CL-43306  12.678  43.937   1.251
79363CL-    CL-43307  44.001  31.006   1.444
79364CL-    CL-43308  15.151  31.478  10.517
79365CL-    CL-43309  30.632  30.955   4.190
79366CL-    CL-43310   4.773  41.837  14.006
79367CL-    CL-43311  27.629  39.849  13.014
79368CL-    CL-43312   0.398  30.107  11.956
79369CL-    CL-43313   7.864   3.754   2.900
79370CL-    CL-43314  31.420   9.725   0.795
79371CL-    CL-43315  16.189  15.293  14.790
79372CL-    CL-43316  41.013  19.067   1.747
79373CL-    CL-43317  33.985   3.269  13.963
79374CL-    CL-43318  34.990  44.362  11.440
79375CL-    CL-43319  34.471  30.479  13.004
79376CL-    CL-43320  35.560  41.980   1.699
79377CL-    CL-43321  36.960  24.183   1.812
79378CL-    CL-43322  11.655   3.345   3.777
79379CL-    CL-43323  38.448  13.299   1.881
79380CL-    CL-43324  38.875  36.042  12.051
79381CL-    CL-43325  11.312  22.167   1.310
79382CL-    CL-43326  37.422  10.865  12.509
79383CL-    CL-43327  35.462  33.500   2.715
79384CL-    CL-43328  21.142  37.538   4.122
79385CL-    CL-43329  21.512  14.218  14.847
79386CL-    CL-43330  38.055   2.469  13.972
79387CL-    CL-43331  24.012   8.677  11.442
79388CL-    CL-43332   9.826  17.753  11.115
79389CL-    CL-43333  19.733  13.308   0.425
79390CL-    CL-43334  35.563  15.621  11.610
79391CL-    CL-43335  34.082  11.128  12.894
79392CL-    CL-43336  12.634  44.275   4.821
79393CL-    CL-43337  39.460  29.062   2.794
79394CL-    CL-43338  32.409   9.761  13.999
79395CL-    CL-43339  41.502  31.116  10.562
79396CL-    CL-43340  32.028  24.120  12.506
79397CL-    CL-43341   8.202  16.249   0.386
79398CL-    CL-43342  41.471  34.457   0.380
79399CL-    CL-43343  35.918  15.103   1.225
79400CL-    CL-43344  37.562  20.605   0.442
79401CL-    CL-43345  25.550  33.470  10.639
79402CL-    CL-43346  14.828  22.625   0.803
79403CL-    CL-43347   0.898  19.645   4.810
79404CL-    CL-43348  36.092  20.106   2.892
79405CL-    CL-43349  16.154  12.813   4.761
79406CL-    CL-43350   9.873  44.479  12.485
79407CL-    CL-43351  13.300  31.403   0.960
79408CL-    CL-43352  38.853  11.634   4.304
79409CL-    CL-43353  16.758  43.294  14.836
79410CL-    CL-43354  31.024  26.006   3.686
79411CL-    CL-43355  21.699  13.303   0.296
79412CL-    CL-43356  17.678  40.810   3.638
79413CL-    CL-43357  26.112   0.311   0.440
79414CL-    CL-43358  37.440  27.467  12.973
79415CL-    CL-43359  10.190   2.379  12.551
79416CL-    CL-43360  44.493  44.784   1.722
79417CL-    CL-43361  23.987  44.848  13.401
79418CL-    CL-43362   1.919  13.728  11.029
79419CL-    CL-43363   4.777  32.620  12.484
79420CL-    CL-43364  30.528  32.973   2.840
79421CL-    CL-43365  35.433   4.893  14.319
79422CL-    CL-43366  27.173  35.869   4.791
79423CL-    CL-43367  40.885  21.713   0.484
79424CL-    CL-43368   1.424   1.347   3.655
79425CL-    CL-43369  40.329   7.889   2.222
79426CL-    CL-43370   6.246  40.928  11.928
79427CL-    CL-43371  13.120  24.704   1.721
79428CL-    CL-43372   4.780  41.996   4.113
79429CL-    CL-43373  22.730  18.723  12.378
79430CL-    CL-43374  33.530  37.564   2.410
79431CL-    CL-43375  13.771   8.287  10.968
79432CL-    CL-43376  36.434  42.494  10.420
79433CL-    CL-43377   8.335  13.198   1.429
79434CL-    CL-43378   6.316   5.789   3.330
79435CL-    CL-43379  18.706  35.041   4.637
79436CL-    CL-43380  18.751  20.763   4.262
79437CL-    CL-43381  24.653  34.525   3.310
79438CL-    CL-43382  36.421   0.752  12.567
79439CL-    CL-43383  16.295  37.855  11.101
79440CL-    CL-43384  10.674  44.976  14.364
79441CL-    CL-43385  25.577   4.307   1.261
79442CL-    CL-43386  11.691  11.658  12.926
79443CL-    CL-43387  28.095  23.172  11.004
79444CL-    CL-43388  41.886  40.445  13.478
79445CL-    CL-43389  37.944   4.430   4.282
79446CL-    CL-43390  26.187  36.510  11.524
79447CL-    CL-43391  32.127  37.877  10.572
79448CL-    CL-43392  22.039  35.506  12.494
79449CL-    CL-43393  25.038  39.835   4.682
79450CL-    CL-43394  21.094  32.056   1.342
79451CL-    CL-43395  22.625  13.335   2.823
79452CL-    CL-43396  10.156  34.449   4.126
79453CL-    CL-43397  40.883  43.421  14.389
79454CL-    CL-43398  24.203  42.433  11.547
79455CL-    CL-43399  29.071  42.495   2.868
79456CL-    CL-43400  11.729  39.372   4.805
79457CL-    CL-43401   2.774  11.255  13.506
79458CL-    CL-43402  14.615  11.201   0.390
79459CL-    CL-43403  43.898  22.252  11.513
79460CL-    CL-43404  38.493  30.425   0.958
79461CL-    CL-43405  39.852  26.131  12.489
79462CL-    CL-43406  36.885  38.508  10.440
79463CL-    CL-43407  28.519  17.787   2.210
79464CL-    CL-43408  22.243  40.308   3.360
79465CL-    CL-43409  42.849  24.187   2.868
79466CL-    CL-43410  17.778  37.033  13.844
79467CL-    CL-43411  12.290   8.881  10.930
79468CL-    CL-43412  26.466   5.921   1.832
79469CL-    CL-43413   9.820   7.251   0.290
79470CL-    CL-43414  20.751  10.190  13.487
79471CL-    CL-43415  16.656  21.038  11.915
79472CL-    CL-43416  23.033  25.072   2.815
79473CL-    CL-43417   9.721   4.728   4.674
79474CL-    CL-43418  37.065  28.170   3.652
79475CL-    CL-43419   3.761  36.554  12.977
79476CL-    CL-43420  22.044  29.430  13.308
79477CL-    CL-43421  26.063  18.545  10.061
79478CL-    CL-43422  32.016   1.779   4.794
79479CL-    CL-43423  35.515  36.041   1.713
79480CL-    CL-43424  37.482   4.350  11.095
79481CL-    CL-43425  15.135  24.620   1.293
79482CL-    CL-43426  41.000  41.929   4.246
79483CL-    CL-43427   9.877  30.051   1.795
79484CL-    CL-43428  21.126   7.870  14.765
79485CL-    CL-43429   8.364  39.443   2.883
79486CL-    CL-43430  41.019  12.748  14.976
79487CL-    CL-43431  27.671  30.063  11.420
79488CL-    CL-43432  44.335  27.588  12.439
79489CL-    CL-43433  27.050  32.986   4.676
79490CL-    CL-43434  36.028   2.773   4.191
79491CL-    CL-43435  31.501   5.356   4.154
79492CL-    CL-43436  19.067  28.528  12.567
79493CL-    CL-43437  41.317  27.529   4.814
79494CL-    CL-43438  28.436  11.753  12.930
79495CL-    CL-43439  23.494  22.145  12.502
79496CL-    CL-43440   1.401  28.130   2.273
79497CL-    CL-43441  22.720  16.806  13.906
79498CL-    CL-43442  40.962   9.668   1.357
79499CL-    CL-43443  30.603  26.503  13.051
79500CL-    CL-43444  26.047   6.282   2.851
79501CL-    CL-43445  27.996  16.201   5.713
79502CL-    CL-43446   8.793  43.866   3.294
79503CL-    CL-43447   3.955  22.712   4.705
79504CL-    CL-43448   7.748  38.491   0.357
79505CL-    CL-43449  43.328  36.877   4.151
79506CL-    CL-43450  42.947  16.193   4.240
79507CL-    CL-43451   8.810  24.601  13.054
79508CL-    CL-43452   2.937   1.939   0.290
79509CL-    CL-43453  42.401  22.220   4.156
79510CL-    CL-43454  41.001   5.904   5.294
79511CL-    CL-43455  42.463  44.830  10.478
79512CL-    CL-43456  32.965  29.537   0.932
79513CL-    CL-43457  34.093   2.942   3.166
79514CL-    CL-43458  31.116  27.672  13.537
79515CL-    CL-43459  43.934  27.147  14.355
79516CL-    CL-43460  28.942  34.016   4.652
79517CL-    CL-43461  42.854  15.108   2.282
79518CL-    CL-43462  18.259  42.488  11.072
79519CL-    CL-43463  14.147  24.600  14.288
79520CL-    CL-43464   0.378  28.616  11.970
79521CL-    CL-43465  17.117  19.552  11.007
79522CL-    CL-43466  19.100  11.782   3.699
79523CL-    CL-43467  30.545   7.682  10.542
79524CL-    CL-43468  36.951  27.617  12.510
79525CL-    CL-43469   0.385  33.064  10.969
79526CL-    CL-43470  30.949  23.021  14.890
79527CL-    CL-43471  13.304  21.021   2.691
79528CL-    CL-43472  18.241  30.058  11.425
79529CL-    CL-43473   4.717  31.922  11.387
79530CL-    CL-43474  33.622  44.434  12.428
79531CL-    CL-43475   2.267  23.075  12.089
79532CL-    CL-43476  35.599   3.749  14.913
79533CL-    CL-43477   9.773  17.749   0.873
79534CL-    CL-43478  30.966  15.710   0.800
79535CL-    CL-43479  17.279  24.653   4.312
79536CL-    CL-43480   7.878  14.693  13.369
79537CL-    CL-43481  18.176  12.851   0.274
79538CL-    CL-43482  27.486  32.990  14.494
79539CL-    CL-43483  34.478  18.079  12.411
79540CL-    CL-43484   7.911  19.613   4.697
79541CL-    CL-43485  12.785  33.415  14.459
79542CL-    CL-43486   8.763  13.712   2.302
79543CL-    CL-43487  41.014  23.715   2.889
79544CL-    CL-43488   1.828  30.006   1.912
79545CL-    CL-43489  29.610   1.882   0.959
79546CL-    CL-43490   4.901  14.218   3.329
79547CL-    CL-43491  12.184  28.037  14.957
79548CL-    CL-43492  38.516   7.849  14.411
79549CL-    CL-43493  20.249  24.166   3.789
79550CL-    CL-43494  19.704   6.310  12.397
79551CL-    CL-43495  16.729  43.806   1.703
79552CL-    CL-43496  40.011  43.996   0.814
79553CL-    CL-43497  43.830  44.314   1.786
79554CL-    CL-43498  32.927  36.587   0.452
79555CL-    CL-43499   7.776  32.494   2.285
79556CL-    CL-43500   8.873  11.155   3.730
79557CL-    CL-43501  25.021   5.857   1.839
79558CL-    CL-43502  10.824  35.869  14.484
79559CL-    CL-43503  22.091   1.470   0.322
79560CL-    CL-43504   9.359  19.755  13.444
79561CL-    CL-43505  32.571  20.203  12.501
79562CL-    CL-43506  38.385  11.737  11.888
79563CL-    CL-43507  38.041  26.185   1.241
79564CL-    CL-43508   3.283  28.978   4.806
79565CL-    CL-43509  38.918   0.757  13.364
79566CL-    CL-43510   6.713  17.745   4.154
79567CL-    CL-43511  24.526  20.112   4.243
79568CL-    CL-43512   8.262  28.471   0.349
79569CL-    CL-43513  21.235   1.899   1.924
79570CL-    CL-43514   2.268   1.803  10.042
79571CL-    CL-43515  17.714  14.612   1.813
79572CL-    CL-43516  27.532   1.803  11.044
79573CL-    CL-43517   4.383   2.793   4.248
79574CL-    CL-43518  31.008  40.429   9.602
79575CL-    CL-43519  43.849  17.627  10.552
79576CL-    CL-43520   3.932  19.210  12.537
79577CL-    CL-43521  12.727  19.679  14.869
79578CL-    CL-43522  17.669  19.563  12.857
79579CL-    CL-43523  37.994   9.225   4.706
79580CL-    CL-43524  36.525  24.139  14.389
79581CL-    CL-43525  39.891  22.115   2.225
79582CL-    CL-43526  14.313   6.814  13.873
79583CL-    CL-43527  18.781  12.345  12.524
79584CL-    CL-43528  33.121   7.254  13.891
79585CL-    CL-43529  29.923  39.027   2.198
79586CL-    CL-43530  31.967  38.460   3.172
79587CL-    CL-43531   2.459  36.932   1.764
79588CL-    CL-43532   0.276  43.855  13.482
79589CL-    CL-43533   3.373  10.187   4.668
79590CL-    CL-43534  38.909   2.327  10.096
79591CL-    CL-43535  17.166  39.976  14.842
79592CL-    CL-43536  24.075  31.911  13.955
79593CL-    CL-43537  40.839   3.275   5.264
79594CL-    CL-43538  10.237  38.046   4.354
79595CL-    CL-43539   5.832  44.498  13.975
79596CL-    CL-43540  32.403   6.200  10.080
79597CL-    CL-43541  11.864   1.786   3.630
79598CL-    CL-43542  32.105  12.197   3.361
79599CL-    CL-43543   3.792   3.346   1.442
79600CL-    CL-43544  35.400  15.578  14.387
79601CL-    CL-43545   1.260  42.876  12.461
79602CL-    CL-43546  35.970  11.850  12.051
79603CL-    CL-43547  16.308  14.588   4.813
79604CL-    CL-43548  41.530   5.845  13.519
79605CL-    CL-43549  11.206  40.867   1.808
79606CL-    CL-43550  18.078  43.362   2.300
79607CL-    CL-43551  17.707  28.638  11.873
79608CL-    CL-43552  20.175  26.558   0.918
79609CL-    CL-43553  28.949  14.595   1.798
79610CL-    CL-43554  40.996   8.664   3.706
79611CL-    CL-43555   2.871  27.551  10.439
79612CL-    CL-43556   2.372  37.906   3.186
79613CL-    CL-43557  44.351  33.968   3.341
79614CL-    CL-43558  43.847  25.708  10.473
79615CL-    CL-43559   1.381  44.292   4.675
79616CL-    CL-43560   1.936   9.218   4.633
79617CL-    CL-43561  37.887  27.512   3.175
79618CL-    CL-43562  25.091   5.734  10.127
79619CL-    CL-43563   7.765   0.920   0.407
79620CL-    CL-43564  41.917  23.173   3.688
79621CL-    CL-43565  42.947  26.546   4.268
79622CL-    CL-43566  41.846   6.676   3.275
79623CL-    CL-43567  17.195   2.454  14.896
79624CL-    CL-43568  13.325   9.349  12.042
79625CL-    CL-43569  15.195  22.089   1.352
79626CL-    CL-43570   3.455  29.468  11.124
79627CL-    CL-43571  27.460  10.777  12.920
79628CL-    CL-43572  43.433  16.774  11.484
79629CL-    CL-43573  35.465  26.584   5.296
79630CL-    CL-43574  32.134  42.801  13.858
79631CL-    CL-43575   8.821   4.367   2.665
79632CL-    CL-43576  31.021   2.367  10.925
79633CL-    CL-43577  19.680  39.810  13.315
79634CL-    CL-43578  43.988  26.538   4.692
79635CL-    CL-43579   5.850  34.381   3.195
79636CL-    CL-43580   3.419  32.016  10.441
79637CL-    CL-43581   3.291   1.414  11.485
79638CL-    CL-43582  37.957  31.461   3.230
79639CL-    CL-43583   0.288  29.582   2.198
79640CL-    CL-43584   9.157  39.960   4.240
79641CL-    CL-43585  43.308  27.019  12.059
79642CL-    CL-43586   7.777  38.058  11.489
79643CL-    CL-43587  27.967  38.943   2.732
79644CL-    CL-43588  40.856   8.807   5.108
79645CL-    CL-43589   5.819  17.702   5.186
79646CL-    CL-43590  32.400  35.555  10.574
79647CL-    CL-43591  25.067  42.014  10.525
79648CL-    CL-43592   4.799  20.737  11.058
79649CL-    CL-43593   1.352  44.840   2.750
79650CL-    CL-43594   9.730  42.924  10.439
79651CL-    CL-43595  31.484   1.866   1.926
79652CL-    CL-43596   6.236  26.975  11.960
79653CL-    CL-43597  11.229  31.903  10.918
79654CL-    CL-43598  43.776  20.532  11.045
79655CL-    CL-43599  22.231  26.647   4.309
79656CL-    CL-43600  43.867  27.518   1.293
79657CL-    CL-43601  35.497  14.811  10.438
79658CL-    CL-43602  10.653  44.912   0.741
79659CL-    CL-43603  32.538  33.000   3.237
79660CL-    CL-43604  22.025  30.979  13.799
79661CL-    CL-43605  35.410   4.358   4.824
79662CL-    CL-43606  31.428  27.648   0.282
79663CL-    CL-43607  24.135   8.291   4.133
79664CL-    CL-43608  15.769  21.100   0.444
79665CL-    CL-43609  26.002  24.566  11.987
79666CL-    CL-43610  34.449   4.262   1.405
79667CL-    CL-43611  30.085  15.687   2.686
79668CL-    CL-43612  14.819  15.313   4.794
79669CL-    CL-43613  16.584  17.662  11.593
79670CL-    CL-43614  37.429  22.592   2.765
79671CL-    CL-43615  21.258  27.448   0.348
79672CL-    CL-43616  13.335  23.234   0.847
79673CL-    CL-43617  26.100  42.311   0.908
79674CL-    CL-43618  24.219  17.287   0.456
79675CL-    CL-43619  14.733  34.040  13.449
79676CL-    CL-43620  31.941   9.169   1.247
79677CL-    CL-43621  22.096  44.403   2.222
79678CL-    CL-43622   6.294  16.740   0.460
79679CL-    CL-43623  29.159  19.124   4.137
79680CL-    CL-43624  44.846  21.063  14.813
79681CL-    CL-43625   6.862  28.518  14.489
79682CL-    CL-43626  23.632  34.490   2.892
79683CL-    CL-43627  22.122  20.104  14.920
79684CL-    CL-43628  12.291  20.200   3.262
79685CL-    CL-43629   5.913  38.911   3.868
79686CL-    CL-43630   3.375   6.208   3.793
79687CL-    CL-43631  26.615  41.521   1.851
79688CL-    CL-43632  15.599  31.941  12.476
79689CL-    CL-43633  20.058   8.789   4.752
79690CL-    CL-43634  42.398   3.265  13.391
79691CL-    CL-43635  41.870  43.813   1.350
79692CL-    CL-43636  32.048  37.849  10.903
79693CL-    CL-43637   6.705  23.142   3.261
79694CL-    CL-43638  43.416  26.623   2.813
79695CL-    CL-43639  16.640  19.733  12.036
79696CL-    CL-43640  30.650  14.588  10.528
79697CL-    CL-43641  13.783  10.175  11.493
79698CL-    CL-43642  24.559   8.180   2.799
79699CL-    CL-43643  44.949   3.721   1.366
79700CL-    CL-43644  33.382  36.863   2.899
79701CL-    CL-43645  10.349  37.547  14.356
79702CL-    CL-43646  41.849   2.367  13.448
79703CL-    CL-43647  21.709   7.273   3.294
79704CL-    CL-43648  44.820  20.692   0.266
79705CL-    CL-43649  43.426  41.859   3.173
79706CL-    CL-43650   2.312   8.893   4.778
79707CL-    CL-43651  27.160  44.475  10.496
79708CL-    CL-43652  19.149  40.400  14.339
79709CL-    CL-43653   2.468  32.911  14.290
79710CL-    CL-43654  26.056  20.766   4.705
79711CL-    CL-43655  35.495   0.855  10.901
79712CL-    CL-43656  16.578   8.269  12.904
79713CL-    CL-43657   5.766   3.230   2.232
79714CL-    CL-43658  16.137  17.236  10.905
79715CL-    CL-43659  30.016  39.819  12.021
79716CL-    CL-43660  31.115  27.188   2.258
79717CL-    CL-43661  38.475  16.218   3.834
79718CL-    CL-43662  35.553  19.552   2.286
79719CL-    CL-43663  42.463   6.724  13.858
79720CL-    CL-43664  11.782   5.211   4.813
79721CL-    CL-43665  33.938  19.062  10.630
79722CL-    CL-43666   0.429  38.945  14.391
79723CL-    CL-43667  16.628  44.412  11.444
79724CL-    CL-43668  19.543  40.399   3.211
79725CL-    CL-43669   5.439  24.048  12.085
79726CL-    CL-43670   5.773  32.472   3.657
79727CL-    CL-43671  22.623  38.845   2.263
79728CL-    CL-43672  17.100  42.524  12.919
79729CL-    CL-43673  19.082  25.694   1.286
79730CL-    CL-43674  37.001  28.481   1.376
79731CL-    CL-43675  17.763   7.270  10.488
79732CL-    CL-43676  27.067   3.457   5.214
79733CL-    CL-43677  31.639   7.773   3.267
79734CL-    CL-43678  10.853  11.691  12.394
79735CL-    CL-43679  39.946  33.545  12.989
79736CL-    CL-43680  16.148  10.819  10.595
79737CL-    CL-43681  18.569   5.828   0.866
79738CL-    CL-43682  28.953  29.479   2.824
79739CL-    CL-43683  41.430  10.772  13.910
79740CL-    CL-43684  18.122   0.874   3.715
79741CL-    CL-43685  32.464  44.986  13.428
79742CL-    CL-43686  11.732  36.491   2.760
79743CL-    CL-43687  26.670   1.272   2.236
79744CL-    CL-43688   3.400  11.352   1.401
79745CL-    CL-43689  30.433   5.277   2.680
79746CL-    CL-43690   1.925  40.365   1.817
79747CL-    CL-43691  36.044  29.159  10.965
79748CL-    CL-43692  29.592   8.291   4.306
79749CL-    CL-43693   1.931   4.924   0.460
79750CL-    CL-43694  42.348  42.375   1.393
79751CL-    CL-43695   7.787  31.017  13.809
79752CL-    CL-43696   9.159   8.833   1.822
79753CL-    CL-43697  38.537  30.578  13.821
79754CL-    CL-43698  18.090  23.159   1.776
79755CL-    CL-43699  30.976  19.085   4.689
79756CL-    CL-43700  27.073  29.560   2.743
79757CL-    CL-43701  22.597  14.322  13.383
79758CL-    CL-43702  29.490  28.052   1.808
79759CL-    CL-43703   9.821   1.261   3.320
79760CL-    CL-43704  33.102  44.950   2.765
79761CL-    CL-43705   9.689  23.604   3.352
79762CL-    CL-43706  23.547   6.278  14.939
79763CL-    CL-43707  21.671  20.224   1.895
79764CL-    CL-43708  38.568   3.315  14.986
79765CL-    CL-43709   8.792   4.887   1.249
79766CL-    CL-43710  39.832  22.555   3.771
79767CL-    CL-43711  15.312  40.314   3.311
79768CL-    CL-43712  18.757   0.467  10.630
79769CL-    CL-43713  28.565   4.446  14.778
79770CL-    CL-43714   0.308   5.754   1.789
79771CL-    CL-43715  35.456  29.446  10.957
79772CL-    CL-43716   6.202  38.961   5.206
79773CL-    CL-43717  37.395   8.870   2.766
79774CL-    CL-43718  34.086  36.954  14.772
79775CL-    CL-43719   7.356   1.881  10.481
79776CL-    CL-43720  24.054  19.637  14.401
79777CL-    CL-43721  13.692   7.707  13.491
79778CL-    CL-43722  38.473   2.875   2.275
79779CL-    CL-43723  23.591  10.198  11.409
79780CL-    CL-43724  39.014   5.829   9.621
79781CL-    CL-43725  27.069  35.563  10.950
79782CL-    CL-43726  44.855   0.768  14.373
79783CL-    CL-43727  40.419  31.913   4.837
79784CL-    CL-43728   0.305  24.001  12.870
79785CL-    CL-43729  33.588  37.042  13.347
79786CL-    CL-43730  39.373   2.735  11.382
79787CL-    CL-43731   4.314   2.305  10.575
79788CL-    CL-43732   1.809  33.965  14.392
79789CL-    CL-43733  30.948  24.635   3.667
79790CL-    CL-43734  23.040   0.365  10.959
79791CL-    CL-43735  27.102  43.851   0.757
79792CL-    CL-43736  17.232   2.226   2.227
79793CL-    CL-43737  16.084  35.881   3.316
79794CL-    CL-43738  23.698   2.441  12.036
79795CL-    CL-43739   9.203  17.791  14.936
79796CL-    CL-43740  34.584  26.599  11.986
79797CL-    CL-43741  26.970   2.317   2.825
79798CL-    CL-43742  31.908  33.901   3.859
79799CL-    CL-43743  11.793  16.784  10.102
79800CL-    CL-43744  41.360  15.733  12.021
79801CL-    CL-43745  30.946  12.291   3.866
79802CL-    CL-43746  12.358  33.588  14.420
79803CL-    CL-43747  12.625   5.219   3.215
79804CL-    CL-43748  22.647   5.875  11.523
79805CL-    CL-43749  17.623   7.189   4.154
79806CL-    CL-43750  15.772  38.565  11.538
79807CL-    CL-43751  33.955  18.050  11.585
79808CL-    CL-43752  27.537   7.848   0.807
79809CL-    CL-43753  37.896  38.070  14.819
79810CL-    CL-43754  36.000  35.964   0.768
79811CL-    CL-43755  39.899   4.726   0.296
79812CL-    CL-43756  22.243  16.777   2.250
79813CL-    CL-43757  11.757  25.186  14.276
79814CL-    CL-43758  11.308   0.946  11.518
79815CL-    CL-43759  13.722  37.014   2.206
79816CL-    CL-43760  25.550  29.427   4.197
79817CL-    CL-43761  23.009  41.821  10.986
79818CL-    CL-43762   9.780  15.322  13.056
79819CL-    CL-43763  33.112  33.014   2.285
79820CL-    CL-43764  23.679   4.226   3.188
79821CL-    CL-43765   3.863  16.643   0.786
79822CL-    CL-43766  21.242  44.878  10.062
79823CL-    CL-43767  16.162  21.682  12.564
79824CL-    CL-43768   9.740   7.341  14.346
79825CL-    CL-43769  41.478  42.498  11.997
79826CL-    CL-43770  24.094   1.847  10.129
79827CL-    CL-43771   2.305   4.440   2.342
79828CL-    CL-43772   8.354  35.511  12.359
79829CL-    CL-43773  17.176   0.923  12.537
79830CL-    CL-43774  44.947  35.959   2.781
79831CL-    CL-43775  30.473  28.127   4.765
79832CL-    CL-43776   5.309  15.162   1.695
79833CL-    CL-43777  41.022   6.799   5.196
79834CL-    CL-43778  26.510  37.973   0.325
79835CL-    CL-43779  43.943   7.767   2.269
79836CL-    CL-43780  17.296  32.451   0.351
79837CL-    CL-43781  17.132   6.827  12.488
79838CL-    CL-43782  24.721   3.927  12.406
79839CL-    CL-43783  41.838  22.184  11.963
79840CL-    CL-43784  36.525  37.028   0.927
79841CL-    CL-43785  22.197  26.185  14.794
79842CL-    CL-43786  25.515   7.377  12.037
79843CL-    CL-43787   6.843   6.331  13.469
79844CL-    CL-43788  23.689   6.902  10.432
79845CL-    CL-43789  43.315  43.473  12.945
79846CL-    CL-43790  13.645  17.175  12.418
79847CL-    CL-43791  12.244  31.143  12.377
79848CL-    CL-43792  27.668   3.448   3.678
79849CL-    CL-43793  23.569   4.801  14.311
79850CL-    CL-43794   2.257  17.269   4.262
79851CL-    CL-43795  11.156  12.731  13.471
79852CL-    CL-43796  21.233  31.081  13.048
79853CL-    CL-43797  25.624  31.512  11.884
79854CL-    CL-43798  16.705  33.508   3.298
79855CL-    CL-43799  14.774  28.640  12.090
79856CL-    CL-43800  44.824   4.445  13.877
79857CL-    CL-43801  19.233  31.463  14.830
79858CL-    CL-43802  44.992   3.293   4.171
79859CL-    CL-43803  12.715  40.463   1.865
79860CL-    CL-43804  39.865  12.189   4.616
79861CL-    CL-43805  38.026  32.979  14.883
79862CL-    CL-43806   0.979   3.414   3.844
79863CL-    CL-43807  17.281  23.601  13.927
79864CL-    CL-43808   9.706   2.875  10.627
79865CL-    CL-43809   4.225   0.484   3.838
79866CL-    CL-43810  27.575  28.939   4.802
79867CL-    CL-43811  13.192  19.625   4.734
79868CL-    CL-43812  20.715   6.850   1.928
79869CL-    CL-43813  43.791   5.341  12.501
79870CL-    CL-43814  15.736  36.000   3.277
79871CL-    CL-43815  20.723  20.221   4.198
79872CL-    CL-43816  44.765  18.251   3.314
79873CL-    CL-43817  17.174   9.803   1.765
79874CL-    CL-43818  37.376  11.819  14.369
79875CL-    CL-43819  36.883  16.649  11.978
79876CL-    CL-43820  16.278   0.977   4.793
79877CL-    CL-43821   9.306   2.786  11.553
79878CL-    CL-43822  37.864  12.612   0.778
79879CL-    CL-43823  10.856  40.830  14.817
79880CL-    CL-43824  10.806   8.239  11.887
79881CL-    CL-43825   8.810   9.176  14.407
79882CL-    CL-43826   6.843   2.279  12.425
79883CL-    CL-43827  44.758   2.345  13.355
79884CL-    CL-43828  43.414  35.870  12.514
79885CL-    CL-43829  44.818  15.185  12.418
79886CL-    CL-43830  10.728  15.200  10.138
79887CL-    CL-43831   5.714  42.957   1.805
79888CL-    CL-43832  43.840  38.452   2.712
79889CL-    CL-43833  38.038   9.372  13.483
79890CL-    CL-43834  23.095   1.448   4.681
79891CL-    CL-43835  35.398  28.976  12.035
79892CL-    CL-43836   8.887  31.638  12.499
79893CL-    CL-43837  25.985   1.819   0.871
79894CL-    CL-43838  43.824  34.559  12.356
79895CL-    CL-43839  42.324  41.385   3.171
79896CL-    CL-43840  29.432  10.346   1.782
79897CL-    CL-43841  23.539  39.338   4.624
79898CL-    CL-43842  12.278  21.575   3.802
79899CL-    CL-43843  30.948  19.573   0.891
79900CL-    CL-43844   6.876  18.745  14.916
79901CL-    CL-43845   4.428  27.988  12.476
79902CL-    CL-43846   1.778  41.379  13.506
79903CL-    CL-43847   0.439  36.490   3.845
79904CL-    CL-43848  15.625  29.098   3.806
79905CL-    CL-43849  40.814  12.153   1.267
79906CL-    CL-43850  27.027  13.119   4.209
79907CL-    CL-43851  34.557  38.064   2.822
79908CL-    CL-43852  27.007  15.278  10.128
79909CL-    CL-43853  26.518   3.862   4.678
79910CL-    CL-43854   7.766  31.969  13.006
79911CL-    CL-43855  23.538  22.624  13.844
79912CL-    CL-43856  38.009  16.133   0.840
79913CL-    CL-43857  12.653  42.976  10.532
79914CL-    CL-43858   4.843  34.963  11.566
79915CL-    CL-43859  41.469  37.439  14.876
79916CL-    CL-43860  12.335  17.769  12.529
79917CL-    CL-43861  34.435   5.933  11.530
79918CL-    CL-43862  42.327  28.514   2.865
79919CL-    CL-43863  20.700  35.006   2.319
79920CL-    CL-43864  39.335   7.285  10.624
79921CL-    CL-43865  27.098   5.770   4.202
79922CL-    CL-43866  32.569  44.364   4.186
79923CL-    CL-43867  30.048  11.773  10.429
79924CL-    CL-43868  30.651  37.436  14.925
79925CL-    CL-43869  18.104  29.429   2.396
79926CL-    CL-43870  35.375   1.328   0.450
79927CL-    CL-43871  15.302   6.832   4.683
79928CL-    CL-43872   5.757  38.923  10.462
79929CL-    CL-43873   8.221  24.092   2.226
79930CL-    CL-43874  41.881  41.446  10.914
79931CL-    CL-43875  38.882  43.322   4.699
79932CL-    CL-43876   9.378   1.461  11.505
79933CL-    CL-43877   2.900  22.635   0.439
79934CL-    CL-43878  33.041  30.126  13.425
79935CL-    CL-43879  28.997   2.734  13.844
79936CL-    CL-43880  19.622  32.629   1.283
79937CL-    CL-43881  39.533   7.790  10.964
79938CL-    CL-43882  21.515  21.215   2.691
79939CL-    CL-43883   4.919  28.508   3.668
79940CL-    CL-43884  20.256  18.160  12.408
79941CL-    CL-43885   3.433  22.502  13.432
79942CL-    CL-43886  19.602   5.815  14.840
79943CL-    CL-43887  32.981  44.821  11.111
79944CL-    CL-43888  34.615  15.744   1.435
79945CL-    CL-43889  19.711  38.886   1.886
79946CL-    CL-43890   4.358  29.467   2.416
79947CL-    CL-43891   5.814  37.510  13.984
79948CL-    CL-43892  37.843   4.844  14.293
79949CL-    CL-43893  28.128  28.456  13.019
79950CL-    CL-43894  19.763  20.593   3.161
79951CL-    CL-43895   9.360  44.880   4.346
79952CL-    CL-43896  16.642   9.321   0.790
79953CL-    CL-43897  39.542   6.850   5.227
79954CL-    CL-43898  14.146   2.900   2.706
79955CL-    CL-43899  33.970   0.329   3.306
79956CL-    CL-43900  26.983  30.556   4.276
79957CL-    CL-43901  26.200  35.421  14.454
79958CL-    CL-43902  24.127   7.890   1.786
79959CL-    CL-43903  35.412  11.844  12.980
79960CL-    CL-43904   4.440   3.919  13.452
79961CL-    CL-43905  33.034  15.796  12.485
79962CL-    CL-43906   4.342  40.470  12.354
79963CL-    CL-43907   6.358  39.449   3.823
79964CL-    CL-43908  21.097   5.423  10.492
79965CL-    CL-43909  33.028  28.028  12.409
79966CL-    CL-43910  31.546  25.057   0.253
79967CL-    CL-43911  10.155  12.239   2.185
79968CL-    CL-43912  24.183  12.179  14.367
79969CL-    CL-43913  20.159  27.522  10.629
79970CL-    CL-43914   4.727  31.464   5.238
79971CL-    CL-43915  44.381  42.894   2.329
79972CL-    CL-43916  39.371  33.417  10.524
79973CL-    CL-43917  43.304  31.412   3.185
79974CL-    CL-43918  33.092  14.615  11.430
79975CL-    CL-43919  44.373  23.642  10.985
79976CL-    CL-43920  11.372   8.781  14.943
79977CL-    CL-43921  43.366  40.934   3.669
79978CL-    CL-43922  18.726  34.424  10.960
79979CL-    CL-43923  22.648  14.682   4.609
79980CL-    CL-43924  16.615   7.271   5.579
79981CL-    CL-43925  44.486  39.983   0.317
79982CL-    CL-43926  22.065  14.741  11.060
79983CL-    CL-43927  32.402  12.283   4.825
79984CL-    CL-43928  39.992  27.174   1.226
79985CL-    CL-43929  35.100   8.703   2.842
79986CL-    CL-43930  10.860  17.720  13.968
79987CL-    CL-43931  29.618   5.895  10.496
79988CL-    CL-43932  32.022  33.507  12.573
79989CL-    CL-43933  35.412  24.603   4.137
79990CL-    CL-43934   6.256   8.707   4.810
79991CL-    CL-43935  15.122  43.285  12.932
79992CL-    CL-43936  11.244  10.309  14.974
79993CL-    CL-43937  10.333  15.179   5.315
79994CL-    CL-43938  33.498  11.278   1.923
79995CL-    CL-43939  34.982  31.547  12.429
79996CL-    CL-43940   6.737  26.161  14.372
79997CL-    CL-43941  27.684   5.859   2.311
79998CL-    CL-43942  29.433  40.884  12.480
79999CL-    CL-43943  17.732  28.160   2.684
80000CL-    CL-43944  32.925   3.239   0.801
80001CL-    CL-43945   8.220  30.051  11.557
80002CL-    CL-43946  16.780  13.119   2.814
80003CL-    CL-43947   1.899   3.872   0.860
80004CL-    CL-43948  30.507  31.496   1.845
80005CL-    CL-43949  17.278  35.358   3.224
80006CL-    CL-43950  42.521  26.590   2.829
80007CL-    CL-43951  40.384  38.978   1.363
80008CL-    CL-43952  20.235  28.966  12.044
80009CL-    CL-43953   6.392  23.560  11.093
80010CL-    CL-43954  36.536   0.430   0.358
80011CL-    CL-43955   8.225  33.889  11.112
80012CL-    CL-43956  12.313  25.488  12.923
80013CL-    CL-43957  20.242  29.031   3.646
80014CL-    CL-43958  41.917  40.319  10.526
80015CL-    CL-43959  18.790  23.574   0.773
80016CL-    CL-43960  32.628  30.565   3.214
80017CL-    CL-43961  24.174   0.781  12.985
80018CL-    CL-43962  15.285  13.254   4.746
80019CL-    CL-43963   2.301   1.880   2.666
80020CL-    CL-43964   3.881  28.109   3.238
80021CL-    CL-43965  34.998  11.798  13.047
80022CL-    CL-43966  40.480   8.756   3.347
80023CL-    CL-43967  37.405   8.737  14.325
80024CL-    CL-43968  33.001  43.397  11.443
80025CL-    CL-43969  44.846  34.890   1.297
80026CL-    CL-43970  42.399  40.929   4.260
80027CL-    CL-43971  41.879  30.615   4.310
80028CL-    CL-43972  12.776  44.387   2.256
80029CL-    CL-43973  29.176  32.136  13.521
80030CL-    CL-43974  16.807  24.669  14.366
80031CL-    CL-43975  43.440  12.333   3.860
80032CL-    CL-43976  32.897   1.773  11.424
80033CL-    CL-43977  42.998   9.674  12.500
80034CL-    CL-43978  26.489  19.768   3.699
80035CL-    CL-43979  11.684  23.088   4.346
80036CL-    CL-43980   7.224  21.255  14.796
80037CL-    CL-43981  19.075   1.316  12.832
80038CL-    CL-43982  24.122  23.195  11.439
80039CL-    CL-43983  24.146   4.750   2.834
80040CL-    CL-43984  11.172   1.424   2.901
80041CL-    CL-43985  41.031   1.299  11.027
80042CL-    CL-43986  31.955   2.382   0.889
80043CL-    CL-43987  14.782  10.350   1.228
80044CL-    CL-43988  16.731  22.226   0.481
80045CL-    CL-43989  24.486  28.484  11.090
80046CL-    CL-43990   4.396  23.231  14.483
80047CL-    CL-43991   2.457  34.570   0.267
80048CL-    CL-43992  13.319  15.324  11.583
  45.00000  45.00000  15.00000   0.00000   0.00000   0.00000   0.00000   0.00000   0.00000

